
*************** JDFTx 1.6.0  ***************

Start date and time: Mon Dec  6 15:53:00 2021
Executable /projects/musgravc/apps/jdftx-1.6.1/build/jdftx with command-line: -i in
Running on hosts (process indices):  shas0922.rc.int.colorado.edu (0-23)
Divided in process groups (process indices):  0 (0)  1 (1)  2 (2)  3 (3)  4 (4)  5 (5)  6 (6)  7 (7)  8 (8)  9 (9)  10 (10)  11 (11)  12 (12)  13 (13)  14 (14)  15 (15)  16 (16)  17 (17)  18 (18)  19 (19)  20 (20)  21 (21)  22 (22)  23 (23)
Resource initialization completed at t[s]:      0.00
Run totals: 24 processes, 24 threads, 0 GPUs


Input parsed successfully to the following command list (including defaults):

basis kpoint-dependent
converge-empty-states yes
coords-type Cartesian
core-overlap-check none
coulomb-interaction Periodic
davidson-band-ratio 1.1
density-of-states Etol 1.000000e-06 Esigma 1.000000e-03 \
		Complete \
	Total \
	OrthoOrbital Cu 1   s \
	OrthoOrbital Cu 1   p \
	OrthoOrbital Cu 1   px \
	OrthoOrbital Cu 1   py \
	OrthoOrbital Cu 1   pz \
	OrthoOrbital Cu 1   d \
	OrthoOrbital Cu 1   dxy \
	OrthoOrbital Cu 1   dyz \
	OrthoOrbital Cu 1   dz2 \
	OrthoOrbital Cu 1   dxz \
	OrthoOrbital Cu 1   dx2-y2 \
	OrthoOrbital Cu 2   s \
	OrthoOrbital Cu 2   p \
	OrthoOrbital Cu 2   px \
	OrthoOrbital Cu 2   py \
	OrthoOrbital Cu 2   pz \
	OrthoOrbital Cu 2   d \
	OrthoOrbital Cu 2   dxy \
	OrthoOrbital Cu 2   dyz \
	OrthoOrbital Cu 2   dz2 \
	OrthoOrbital Cu 2   dxz \
	OrthoOrbital Cu 2   dx2-y2 \
	OrthoOrbital Cu 3   s \
	OrthoOrbital Cu 3   p \
	OrthoOrbital Cu 3   px \
	OrthoOrbital Cu 3   py \
	OrthoOrbital Cu 3   pz \
	OrthoOrbital Cu 3   d \
	OrthoOrbital Cu 3   dxy \
	OrthoOrbital Cu 3   dyz \
	OrthoOrbital Cu 3   dz2 \
	OrthoOrbital Cu 3   dxz \
	OrthoOrbital Cu 3   dx2-y2 \
	OrthoOrbital Cu 4   s \
	OrthoOrbital Cu 4   p \
	OrthoOrbital Cu 4   px \
	OrthoOrbital Cu 4   py \
	OrthoOrbital Cu 4   pz \
	OrthoOrbital Cu 4   d \
	OrthoOrbital Cu 4   dxy \
	OrthoOrbital Cu 4   dyz \
	OrthoOrbital Cu 4   dz2 \
	OrthoOrbital Cu 4   dxz \
	OrthoOrbital Cu 4   dx2-y2 \
	OrthoOrbital Cu 5   s \
	OrthoOrbital Cu 5   p \
	OrthoOrbital Cu 5   px \
	OrthoOrbital Cu 5   py \
	OrthoOrbital Cu 5   pz \
	OrthoOrbital Cu 5   d \
	OrthoOrbital Cu 5   dxy \
	OrthoOrbital Cu 5   dyz \
	OrthoOrbital Cu 5   dz2 \
	OrthoOrbital Cu 5   dxz \
	OrthoOrbital Cu 5   dx2-y2 \
	OrthoOrbital Cu 6   s \
	OrthoOrbital Cu 6   p \
	OrthoOrbital Cu 6   px \
	OrthoOrbital Cu 6   py \
	OrthoOrbital Cu 6   pz \
	OrthoOrbital Cu 6   d \
	OrthoOrbital Cu 6   dxy \
	OrthoOrbital Cu 6   dyz \
	OrthoOrbital Cu 6   dz2 \
	OrthoOrbital Cu 6   dxz \
	OrthoOrbital Cu 6   dx2-y2 \
	OrthoOrbital Cu 7   s \
	OrthoOrbital Cu 7   p \
	OrthoOrbital Cu 7   px \
	OrthoOrbital Cu 7   py \
	OrthoOrbital Cu 7   pz \
	OrthoOrbital Cu 7   d \
	OrthoOrbital Cu 7   dxy \
	OrthoOrbital Cu 7   dyz \
	OrthoOrbital Cu 7   dz2 \
	OrthoOrbital Cu 7   dxz \
	OrthoOrbital Cu 7   dx2-y2 \
	OrthoOrbital Cu 8   s \
	OrthoOrbital Cu 8   p \
	OrthoOrbital Cu 8   px \
	OrthoOrbital Cu 8   py \
	OrthoOrbital Cu 8   pz \
	OrthoOrbital Cu 8   d \
	OrthoOrbital Cu 8   dxy \
	OrthoOrbital Cu 8   dyz \
	OrthoOrbital Cu 8   dz2 \
	OrthoOrbital Cu 8   dxz \
	OrthoOrbital Cu 8   dx2-y2 \
	OrthoOrbital Cu 9   s \
	OrthoOrbital Cu 9   p \
	OrthoOrbital Cu 9   px \
	OrthoOrbital Cu 9   py \
	OrthoOrbital Cu 9   pz \
	OrthoOrbital Cu 9   d \
	OrthoOrbital Cu 9   dxy \
	OrthoOrbital Cu 9   dyz \
	OrthoOrbital Cu 9   dz2 \
	OrthoOrbital Cu 9   dxz \
	OrthoOrbital Cu 9   dx2-y2 \
	OrthoOrbital Cu 10   s \
	OrthoOrbital Cu 10   p \
	OrthoOrbital Cu 10   px \
	OrthoOrbital Cu 10   py \
	OrthoOrbital Cu 10   pz \
	OrthoOrbital Cu 10   d \
	OrthoOrbital Cu 10   dxy \
	OrthoOrbital Cu 10   dyz \
	OrthoOrbital Cu 10   dz2 \
	OrthoOrbital Cu 10   dxz \
	OrthoOrbital Cu 10   dx2-y2 \
	OrthoOrbital Cu 11   s \
	OrthoOrbital Cu 11   p \
	OrthoOrbital Cu 11   px \
	OrthoOrbital Cu 11   py \
	OrthoOrbital Cu 11   pz \
	OrthoOrbital Cu 11   d \
	OrthoOrbital Cu 11   dxy \
	OrthoOrbital Cu 11   dyz \
	OrthoOrbital Cu 11   dz2 \
	OrthoOrbital Cu 11   dxz \
	OrthoOrbital Cu 11   dx2-y2 \
	OrthoOrbital Cu 12   s \
	OrthoOrbital Cu 12   p \
	OrthoOrbital Cu 12   px \
	OrthoOrbital Cu 12   py \
	OrthoOrbital Cu 12   pz \
	OrthoOrbital Cu 12   d \
	OrthoOrbital Cu 12   dxy \
	OrthoOrbital Cu 12   dyz \
	OrthoOrbital Cu 12   dz2 \
	OrthoOrbital Cu 12   dxz \
	OrthoOrbital Cu 12   dx2-y2 \
	OrthoOrbital Cu 13   s \
	OrthoOrbital Cu 13   p \
	OrthoOrbital Cu 13   px \
	OrthoOrbital Cu 13   py \
	OrthoOrbital Cu 13   pz \
	OrthoOrbital Cu 13   d \
	OrthoOrbital Cu 13   dxy \
	OrthoOrbital Cu 13   dyz \
	OrthoOrbital Cu 13   dz2 \
	OrthoOrbital Cu 13   dxz \
	OrthoOrbital Cu 13   dx2-y2 \
	OrthoOrbital Cu 14   s \
	OrthoOrbital Cu 14   p \
	OrthoOrbital Cu 14   px \
	OrthoOrbital Cu 14   py \
	OrthoOrbital Cu 14   pz \
	OrthoOrbital Cu 14   d \
	OrthoOrbital Cu 14   dxy \
	OrthoOrbital Cu 14   dyz \
	OrthoOrbital Cu 14   dz2 \
	OrthoOrbital Cu 14   dxz \
	OrthoOrbital Cu 14   dx2-y2 \
	OrthoOrbital Cu 15   s \
	OrthoOrbital Cu 15   p \
	OrthoOrbital Cu 15   px \
	OrthoOrbital Cu 15   py \
	OrthoOrbital Cu 15   pz \
	OrthoOrbital Cu 15   d \
	OrthoOrbital Cu 15   dxy \
	OrthoOrbital Cu 15   dyz \
	OrthoOrbital Cu 15   dz2 \
	OrthoOrbital Cu 15   dxz \
	OrthoOrbital Cu 15   dx2-y2 \
	OrthoOrbital Cu 16   s \
	OrthoOrbital Cu 16   p \
	OrthoOrbital Cu 16   px \
	OrthoOrbital Cu 16   py \
	OrthoOrbital Cu 16   pz \
	OrthoOrbital Cu 16   d \
	OrthoOrbital Cu 16   dxy \
	OrthoOrbital Cu 16   dyz \
	OrthoOrbital Cu 16   dz2 \
	OrthoOrbital Cu 16   dxz \
	OrthoOrbital Cu 16   dx2-y2 \
	OrthoOrbital Cu 17   s \
	OrthoOrbital Cu 17   p \
	OrthoOrbital Cu 17   px \
	OrthoOrbital Cu 17   py \
	OrthoOrbital Cu 17   pz \
	OrthoOrbital Cu 17   d \
	OrthoOrbital Cu 17   dxy \
	OrthoOrbital Cu 17   dyz \
	OrthoOrbital Cu 17   dz2 \
	OrthoOrbital Cu 17   dxz \
	OrthoOrbital Cu 17   dx2-y2 \
	OrthoOrbital Cu 18   s \
	OrthoOrbital Cu 18   p \
	OrthoOrbital Cu 18   px \
	OrthoOrbital Cu 18   py \
	OrthoOrbital Cu 18   pz \
	OrthoOrbital Cu 18   d \
	OrthoOrbital Cu 18   dxy \
	OrthoOrbital Cu 18   dyz \
	OrthoOrbital Cu 18   dz2 \
	OrthoOrbital Cu 18   dxz \
	OrthoOrbital Cu 18   dx2-y2 \
	OrthoOrbital Cu 19   s \
	OrthoOrbital Cu 19   p \
	OrthoOrbital Cu 19   px \
	OrthoOrbital Cu 19   py \
	OrthoOrbital Cu 19   pz \
	OrthoOrbital Cu 19   d \
	OrthoOrbital Cu 19   dxy \
	OrthoOrbital Cu 19   dyz \
	OrthoOrbital Cu 19   dz2 \
	OrthoOrbital Cu 19   dxz \
	OrthoOrbital Cu 19   dx2-y2 \
	OrthoOrbital Cu 20   s \
	OrthoOrbital Cu 20   p \
	OrthoOrbital Cu 20   px \
	OrthoOrbital Cu 20   py \
	OrthoOrbital Cu 20   pz \
	OrthoOrbital Cu 20   d \
	OrthoOrbital Cu 20   dxy \
	OrthoOrbital Cu 20   dyz \
	OrthoOrbital Cu 20   dz2 \
	OrthoOrbital Cu 20   dxz \
	OrthoOrbital Cu 20   dx2-y2 \
	OrthoOrbital Cu 21   s \
	OrthoOrbital Cu 21   p \
	OrthoOrbital Cu 21   px \
	OrthoOrbital Cu 21   py \
	OrthoOrbital Cu 21   pz \
	OrthoOrbital Cu 21   d \
	OrthoOrbital Cu 21   dxy \
	OrthoOrbital Cu 21   dyz \
	OrthoOrbital Cu 21   dz2 \
	OrthoOrbital Cu 21   dxz \
	OrthoOrbital Cu 21   dx2-y2 \
	OrthoOrbital Cu 22   s \
	OrthoOrbital Cu 22   p \
	OrthoOrbital Cu 22   px \
	OrthoOrbital Cu 22   py \
	OrthoOrbital Cu 22   pz \
	OrthoOrbital Cu 22   d \
	OrthoOrbital Cu 22   dxy \
	OrthoOrbital Cu 22   dyz \
	OrthoOrbital Cu 22   dz2 \
	OrthoOrbital Cu 22   dxz \
	OrthoOrbital Cu 22   dx2-y2 \
	OrthoOrbital Cu 23   s \
	OrthoOrbital Cu 23   p \
	OrthoOrbital Cu 23   px \
	OrthoOrbital Cu 23   py \
	OrthoOrbital Cu 23   pz \
	OrthoOrbital Cu 23   d \
	OrthoOrbital Cu 23   dxy \
	OrthoOrbital Cu 23   dyz \
	OrthoOrbital Cu 23   dz2 \
	OrthoOrbital Cu 23   dxz \
	OrthoOrbital Cu 23   dx2-y2 \
	OrthoOrbital Cu 24   s \
	OrthoOrbital Cu 24   p \
	OrthoOrbital Cu 24   px \
	OrthoOrbital Cu 24   py \
	OrthoOrbital Cu 24   pz \
	OrthoOrbital Cu 24   d \
	OrthoOrbital Cu 24   dxy \
	OrthoOrbital Cu 24   dyz \
	OrthoOrbital Cu 24   dz2 \
	OrthoOrbital Cu 24   dxz \
	OrthoOrbital Cu 24   dx2-y2 \
	OrthoOrbital Cu 25   s \
	OrthoOrbital Cu 25   p \
	OrthoOrbital Cu 25   px \
	OrthoOrbital Cu 25   py \
	OrthoOrbital Cu 25   pz \
	OrthoOrbital Cu 25   d \
	OrthoOrbital Cu 25   dxy \
	OrthoOrbital Cu 25   dyz \
	OrthoOrbital Cu 25   dz2 \
	OrthoOrbital Cu 25   dxz \
	OrthoOrbital Cu 25   dx2-y2 \
	OrthoOrbital Cu 26   s \
	OrthoOrbital Cu 26   p \
	OrthoOrbital Cu 26   px \
	OrthoOrbital Cu 26   py \
	OrthoOrbital Cu 26   pz \
	OrthoOrbital Cu 26   d \
	OrthoOrbital Cu 26   dxy \
	OrthoOrbital Cu 26   dyz \
	OrthoOrbital Cu 26   dz2 \
	OrthoOrbital Cu 26   dxz \
	OrthoOrbital Cu 26   dx2-y2
dump End ElecDensity KEdensity BandEigs EigStats RhoAtom DOS Kpoints
dump Ionic State IonicPositions Lattice EigStats Ecomponents
dump 
dump 
dump 
dump 
dump 
dump 
dump 
dump 
dump-name jdft.$VAR
elec-cutoff 20
elec-eigen-algo Davidson
elec-ex-corr gga-PBE
elec-initial-magnetization 0.000000 no
elec-n-bands 297
elec-smearing Fermi 0.001
electronic-minimize  \
	dirUpdateScheme      FletcherReeves \
	linminMethod         DirUpdateRecommended \
	nIterations          100 \
	history              15 \
	knormThreshold       0 \
	energyDiffThreshold  1e-07 \
	nEnergyDiff          2 \
	alphaTstart          1 \
	alphaTmin            1e-10 \
	updateTestStepSize   yes \
	alphaTreduceFactor   0.1 \
	alphaTincreaseFactor 3 \
	nAlphaAdjustMax      3 \
	wolfeEnergy          0.0001 \
	wolfeGradient        0.9 \
	fdTest               no
exchange-regularization WignerSeitzTruncated
fluid LinearPCM 298.000000 1.013250
fluid-anion F- 0.5 MeanFieldLJ \
	epsBulk 1 \
	pMol 0 \
	epsInf 1 \
	Pvap 0 \
	sigmaBulk 0 \
	Rvdw 2.24877 \
	Res 0 \
	tauNuc 343133
fluid-cation Na+ 0.5 MeanFieldLJ \
	epsBulk 1 \
	pMol 0 \
	epsInf 1 \
	Pvap 0 \
	sigmaBulk 0 \
	Rvdw 2.19208 \
	Res 0 \
	tauNuc 343133
fluid-ex-corr lda-TF lda-PZ
fluid-gummel-loop 10 1.000000e-05
fluid-minimize  \
	dirUpdateScheme      PolakRibiere \
	linminMethod         DirUpdateRecommended \
	nIterations          400 \
	history              15 \
	knormThreshold       1e-11 \
	energyDiffThreshold  0 \
	nEnergyDiff          2 \
	alphaTstart          1 \
	alphaTmin            1e-10 \
	updateTestStepSize   yes \
	alphaTreduceFactor   0.1 \
	alphaTincreaseFactor 3 \
	nAlphaAdjustMax      6 \
	wolfeEnergy          0.0001 \
	wolfeGradient        0.9 \
	fdTest               no
fluid-solvent H2O 55.338 ScalarEOS \
	epsBulk 78.4 \
	pMol 0.92466 \
	epsInf 1.77 \
	Pvap 1.06736e-10 \
	sigmaBulk 4.62e-05 \
	Rvdw 2.61727 \
	Res 1.42 \
	tauNuc 343133 \
	poleEl 15 7 1
forces-output-coords Positions
ion Cu  -0.000003000000000   9.348120000000000  21.968073000000000 1
ion Cu   0.000000000000000   3.739243000000000  18.228829000000001 1
ion Cu   3.370512000000001   6.543688000000000  20.098451000000001 1
ion Cu   3.370515000000000   0.934811000000000  16.359207999999999 1
ion Cu  -0.000003000000000   7.478499000000001  12.619964000000000 1
ion Cu   0.000000000000000   1.869622000000000   8.880720999999999 1
ion Cu   3.370512000000000  10.282931000000001  14.489585999999999 1
ion Cu   3.370515000000000   4.674054000000000  10.750343000000001 1
ion Cu  -0.000003000000000  11.217741999999999   7.011099000000000 1
ion Cu   0.000000000000000   5.608865000000001   3.271856000000000 1
ion Cu   0.000000000000000   0.000000000000000  23.837693999999999 1
ion Cu   3.370512000000000   8.413310000000001   5.141478000000000 1
ion Cu   3.370515000000000   2.804432000000000   1.402234000000000 1
ion Cu   3.370508000000000  11.217741999999999  19.163676999999996 1
ion Cu   3.370512000000000   5.608865000000001  15.424359999999998 1
ion Cu   0.000000000000000   8.413310000000001  17.293982000000000 1
ion Cu   0.000003000000000   2.804432000000000  13.554738999999998 1
ion Cu   3.370508000000000   9.348120000000000   9.815495000000000 1
ion Cu   3.370512000000001   3.739243000000000   6.076251999999999 1
ion Cu   3.370512000000000   0.000000000000000  11.685116999999998 1
ion Cu   0.000000000000000   6.543688000000000   7.945874000000000 1
ion Cu   0.000003000000000   0.934811000000000   4.206630000000000 1
ion Cu   3.370508000000000   7.478499000000001   0.467387000000000 1
ion Cu   3.370512000000001   1.869622000000000  21.033297999999995 1
ion Cu   0.000000000000000  10.282931000000001   2.337009000000000 1
ion Cu   0.000003000000000   4.674054000000000  22.902920000000002 1
ion-species /projects/musgravc/apps/jdftx-1.6.0/build/pseudopotentials/GBRV_v1.5/$ID_pbe_v1.uspp
ion-species /projects/musgravc/apps/jdftx-1.6.0/build/pseudopotentials/GBRV_v1.5/$ID_pbe_v1.2.uspp
ion-species /projects/musgravc/apps/jdftx-1.6.0/build/pseudopotentials/GBRV_v1.5/$ID_pbe_v1.4.uspp
ion-species /projects/musgravc/apps/jdftx-1.6.0/build/pseudopotentials/GBRV_v1.5/$ID_pbe_v1.5.uspp
ion-width Ecut
ionic-minimize  \
	dirUpdateScheme      L-BFGS \
	linminMethod         DirUpdateRecommended \
	nIterations          100 \
	history              15 \
	knormThreshold       0.0001 \
	energyDiffThreshold  1e-06 \
	nEnergyDiff          2 \
	alphaTstart          1 \
	alphaTmin            1e-10 \
	updateTestStepSize   yes \
	alphaTreduceFactor   0.1 \
	alphaTincreaseFactor 3 \
	nAlphaAdjustMax      3 \
	wolfeEnergy          0.0001 \
	wolfeGradient        0.9 \
	fdTest               no
kpoint   0.000000000000   0.000000000000   0.000000000000  1.00000000000000
kpoint-folding 9 4 1 
latt-move-scale 0 0 0
latt-scale 1 1 1 
lattice  \
	   6.741023000000000   -3.370512000000000    0.000000000000000  \
	   0.000000000000000   12.152552999999999    0.000000000000000  \
	   0.000000000000000    0.000000000000000   72.915317000000002 
lattice-minimize  \
	dirUpdateScheme      L-BFGS \
	linminMethod         DirUpdateRecommended \
	nIterations          0 \
	history              15 \
	knormThreshold       0 \
	energyDiffThreshold  1e-06 \
	nEnergyDiff          2 \
	alphaTstart          1 \
	alphaTmin            1e-10 \
	updateTestStepSize   yes \
	alphaTreduceFactor   0.1 \
	alphaTincreaseFactor 3 \
	nAlphaAdjustMax      3 \
	wolfeEnergy          0.0001 \
	wolfeGradient        0.9 \
	fdTest               no
lcao-params 30 1e-06 0.001
pcm-variant CANDLE
spintype z-spin
subspace-rotation-factor 1 yes
symmetries none
symmetry-threshold 0.0001
target-mu -0.0978 no

van-der-waals D3


Applied RMS atom displacement 0 bohrs to make symmetries exact.

---------- Initializing the Grid ----------
R = 
[      6.74102     -3.37051            0  ]
[            0      12.1526            0  ]
[            0            0      72.9153  ]
unit cell volume = 5973.27
G =
[   0.932082   0.258513         -0  ]
[          0   0.517026          0  ]
[          0         -0   0.086171  ]
Minimum fftbox size, Smin = [  28  52  296  ]
Chosen fftbox size, S = [  28  54  300  ]

---------- Exchange Correlation functional ----------
Initalized PBE GGA exchange.
Initalized PBE GGA correlation.

---------- Setting up pseudopotentials ----------
Width of ionic core gaussian charges (only for fluid interactions / plotting) set to 0.397384

Reading pseudopotential file '/projects/musgravc/apps/jdftx-1.6.0/build/pseudopotentials/GBRV_v1.5/cu_pbe_v1.2.uspp':
  Title: Cu.  Created by USPP 7.3.6 on 3-2-2014
  Reference state energy: -201.059491.  19 valence electrons in orbitals:
    |300>  occupation: 2  eigenvalue: -5.020764
    |310>  occupation: 6  eigenvalue: -3.445588
    |320>  occupation: 8  eigenvalue: -0.925168
    |400>  occupation: 2  eigenvalue: -0.567638
    |410>  occupation: 0  eigenvalue: -0.326154
  lMax: 2  lLocal: 3  QijEcut: 6
  6 projectors sampled on a log grid with 613 points:
    l: 0  eig: -5.020767  rCut: 1.4
    l: 0  eig: -0.567640  rCut: 1.4
    l: 1  eig: -3.445589  rCut: 1.55
    l: 1  eig: -0.326157  rCut: 1.55
    l: 2  eig: -0.925170  rCut: 1.5
    l: 2  eig: 1.500000  rCut: 1.5
  Partial core density with radius 0.8
  Transforming core density to a uniform radial grid of dG=0.02 with 1277 points.
  Transforming local potential to a uniform radial grid of dG=0.02 with 1277 points.
  Transforming nonlocal projectors to a uniform radial grid of dG=0.02 with 432 points.
  Transforming density augmentations to a uniform radial grid of dG=0.02 with 1277 points.
  Transforming atomic orbitals to a uniform radial grid of dG=0.02 with 432 points.
  Core radius for overlap checks: 1.55 bohrs.

Initialized 1 species with 26 total atoms.

Folded 1 k-points by 9x4x1 to 36 k-points.

---------- Setting up k-points, bands, fillings ----------
No reducable k-points. 
Computing the number of bands and number of electrons
Calculating initial fillings.
nElectrons: 494.000000   nBands: 297   nStates: 72

----- Setting up reduced wavefunction bases (one per k-point) -----
average nbasis = 25520.806 , ideal nbasis = 25518.262

----- Initializing Supercell corresponding to k-point mesh -----
Lattice vector linear combinations in supercell:
[   9   0   0  ]
[   0   4   0  ]
[   0   0   1  ]
Supercell lattice vectors:
[  60.6692  -13.482  0  ]
[  0  48.6102  0  ]
[  0  0  72.9153  ]

Initializing DFT-D3 calculator:
	Parameters set for gga-PBE functional
	s6:  1.000  s_r6:  1.217
	s8:  0.722  s_r8:  1.000
	Per-atom parameters loaded for:
	Cu:  sqrtQ[a0]:  5.226  Rcov[a0]:  1.909  CN: [ 0.00 0.96 ]

Initializing DFT-D2 calculator for fluid / solvation:
	Cu:  C6:  187.33 Eh-a0^6  R0: 2.952 a0

---------- Setting up ewald sum ----------
Optimum gaussian width for ewald sums = 4.205509 bohr.
Real space sum over 935 unit cells with max indices [  8  5  2  ]
Reciprocal space sum over 6669 terms with max indices [  4  6  28  ]

Computing DFT-D3 correction:
# coordination-number Cu 6.854 9.148 8.375 9.157 9.160 9.158 9.159 9.160 9.153 8.350 4.602 9.127 5.358 9.127 9.158 9.153 9.160 9.159 9.148 9.160 9.157 8.375 4.602 8.350 6.854 5.358
# diagonal-C6 Cu 175.00 175.00 175.00 175.00 175.00 175.00 175.00 175.00 175.00 175.00 175.00 175.00 175.00 175.00 175.00 175.00 175.00 175.00 175.00 175.00 175.00 175.00 175.00 175.00 175.00 175.00
EvdW_6 =   -0.161310
EvdW_8 =   -0.239379

---------- Allocating electronic variables ----------
Initializing wave functions:  linear combination of atomic orbitals
Cu pseudo-atom occupations:   s ( 2 1 )  p ( 6 0 )  d ( 10 )
	FillingsUpdate:  mu: -0.097800000  nElectrons: 494.000000  magneticMoment: [ Abs: 0.21743  Tot: +0.00183 ]
LCAOMinimize: Iter:   0  G: -5075.9831435554369818  |grad|_K:  3.278e-02  alpha:  1.000e+00
LCAOMinimize: 	Step increased G by 1.662293e+03, reducing alpha to 4.033373e-02.
LCAOMinimize: 	Step increased G by 2.337448e+02, reducing alpha to 4.033373e-03.
	FillingsUpdate:  mu: -0.097800000  nElectrons: 494.000000  magneticMoment: [ Abs: 0.21840  Tot: -0.00092 ]
LCAOMinimize: Iter:   1  G: -5099.8195796753570903  |grad|_K:  1.263e-02  alpha:  4.033e-03  linmin: -1.951e-01  cgtest:  8.469e-01  t[s]:    265.01
LCAOMinimize: Encountered beta<0, resetting CG.
	FillingsUpdate:  mu: -0.097800000  nElectrons: 494.000000  magneticMoment: [ Abs: 0.22619  Tot: -0.00307 ]
LCAOMinimize: Iter:   2  G: -5108.1985835864970795  |grad|_K:  1.119e-02  alpha:  1.194e-02  linmin: -1.869e-02  cgtest:  6.074e-02  t[s]:    330.03
LCAOMinimize: 	Predicted alpha/alphaT>3.000000, increasing alphaT to 3.581375e-02.
	FillingsUpdate:  mu: -0.097800000  nElectrons: 494.000000  magneticMoment: [ Abs: 0.01815  Tot: -0.00088 ]
LCAOMinimize: Iter:   3  G: -5134.7770971512281903  |grad|_K:  1.775e-02  alpha:  5.496e-02  linmin:  7.230e-03  cgtest:  4.315e-02  t[s]:    411.94
	FillingsUpdate:  mu: -0.097800000  nElectrons: 494.000000  magneticMoment: [ Abs: 0.00128  Tot: -0.00005 ]
LCAOMinimize: Iter:   4  G: -5189.3264196362733855  |grad|_K:  4.337e-03  alpha:  4.745e-02  linmin:  1.017e-02  cgtest: -4.040e-04  t[s]:    476.95
	FillingsUpdate:  mu: -0.097800000  nElectrons: 494.000000  magneticMoment: [ Abs: 0.00121  Tot: -0.00002 ]
LCAOMinimize: Iter:   5  G: -5190.7405830017587505  |grad|_K:  1.919e-03  alpha:  2.128e-02  linmin:  1.920e-02  cgtest:  6.848e-02  t[s]:    542.87
LCAOMinimize: 	Predicted alpha/alphaT>3.000000, increasing alphaT to 6.384332e-02.
LCAOMinimize: 	Predicted alpha/alphaT>3.000000, increasing alphaT to 1.915300e-01.
	FillingsUpdate:  mu: -0.097800000  nElectrons: 494.000000  magneticMoment: [ Abs: 0.00141  Tot: -0.00002 ]
LCAOMinimize: Iter:   6  G: -5192.9845815473145194  |grad|_K:  1.311e-03  alpha:  9.820e-02  linmin: -1.100e-01  cgtest:  2.316e-01  t[s]:    641.27
	FillingsUpdate:  mu: -0.097800000  nElectrons: 494.000000  magneticMoment: [ Abs: 0.00197  Tot: +0.00001 ]
LCAOMinimize: Iter:   7  G: -5193.8350826928672177  |grad|_K:  3.766e-03  alpha:  1.197e-01  linmin:  2.929e-02  cgtest: -1.515e-01  t[s]:    706.30
LCAOMinimize: 	Bad step direction: g.d > 0.
LCAOMinimize: 	Undoing step.
LCAOMinimize: 	Step failed: resetting search direction.
	FillingsUpdate:  mu: -0.097800000  nElectrons: 494.000000  magneticMoment: [ Abs: 0.00197  Tot: +0.00001 ]
LCAOMinimize: Iter:   8  G: -5193.8350826928672177  |grad|_K:  3.766e-03  alpha:  0.000e+00
	FillingsUpdate:  mu: -0.097800000  nElectrons: 494.000000  magneticMoment: [ Abs: 0.00197  Tot: +0.00003 ]
LCAOMinimize: Iter:   9  G: -5194.3291968393468778  |grad|_K:  2.109e-03  alpha:  5.501e-03  linmin: -1.128e-01  cgtest:  9.593e-01  t[s]:    819.67
LCAOMinimize: Encountered beta<0, resetting CG.
	FillingsUpdate:  mu: -0.097800000  nElectrons: 494.000000  magneticMoment: [ Abs: 0.00198  Tot: +0.00003 ]
LCAOMinimize: Iter:  10  G: -5194.6347858898407139  |grad|_K:  1.488e-03  alpha:  1.644e-02  linmin: -3.489e-03  cgtest: -2.745e-02  t[s]:    886.13
LCAOMinimize: 	Predicted alpha/alphaT>3.000000, increasing alphaT to 4.933143e-02.
	FillingsUpdate:  mu: -0.097800000  nElectrons: 494.000000  magneticMoment: [ Abs: 0.00213  Tot: +0.00000 ]
LCAOMinimize: Iter:  11  G: -5195.0964700270633330  |grad|_K:  1.504e-03  alpha:  5.166e-02  linmin:  4.680e-02  cgtest:  8.997e-03  t[s]:    967.90
	FillingsUpdate:  mu: -0.097800000  nElectrons: 494.000000  magneticMoment: [ Abs: 0.00215  Tot: -0.00000 ]
LCAOMinimize: Iter:  12  G: -5195.1231863513930875  |grad|_K:  1.524e-03  alpha:  3.922e-03  linmin: -2.325e-02  cgtest:  9.815e-01  t[s]:   1032.92
LCAOMinimize: 	Predicted alpha/alphaT>3.000000, increasing alphaT to 1.176532e-02.
	FillingsUpdate:  mu: -0.097800000  nElectrons: 494.000000  magneticMoment: [ Abs: 0.00218  Tot: -0.00002 ]
LCAOMinimize: Iter:  13  G: -5195.4076526726094016  |grad|_K:  7.755e-04  alpha:  3.007e-02  linmin:  1.501e-02  cgtest: -1.400e-01  t[s]:   1115.01
	FillingsUpdate:  mu: -0.097800000  nElectrons: 494.000000  magneticMoment: [ Abs: 0.00232  Tot: -0.00001 ]
LCAOMinimize: Iter:  14  G: -5195.5279580739152152  |grad|_K:  1.484e-03  alpha:  5.446e-02  linmin:  6.763e-03  cgtest: -2.801e-03  t[s]:   1180.55
	FillingsUpdate:  mu: -0.097800000  nElectrons: 494.000000  magneticMoment: [ Abs: 0.00242  Tot: -0.00003 ]
LCAOMinimize: Iter:  15  G: -5195.6288189132928892  |grad|_K:  1.346e-03  alpha:  6.925e-03  linmin: -4.034e-02  cgtest:  9.645e-01  t[s]:   1245.66
LCAOMinimize: Encountered beta<0, resetting CG.
	FillingsUpdate:  mu: -0.097800000  nElectrons: 494.000000  magneticMoment: [ Abs: 0.00244  Tot: -0.00004 ]
LCAOMinimize: Iter:  16  G: -5195.7070661928592017  |grad|_K:  4.946e-04  alpha:  1.060e-02  linmin:  1.497e-02  cgtest: -1.255e-01  t[s]:   1310.68
LCAOMinimize: 	Predicted alpha/alphaT>3.000000, increasing alphaT to 3.179843e-02.
	FillingsUpdate:  mu: -0.097800000  nElectrons: 494.000000  magneticMoment: [ Abs: 0.00252  Tot: -0.00007 ]
LCAOMinimize: Iter:  17  G: -5195.7430195532670041  |grad|_K:  5.133e-04  alpha:  3.813e-02  linmin:  1.135e-02  cgtest:  1.425e-01  t[s]:   1392.54
	FillingsUpdate:  mu: -0.097800000  nElectrons: 494.000000  magneticMoment: [ Abs: 0.00262  Tot: -0.00008 ]
LCAOMinimize: Iter:  18  G: -5195.7804222848772042  |grad|_K:  8.096e-04  alpha:  3.672e-02  linmin:  2.457e-03  cgtest:  1.129e-01  t[s]:   1458.35
	FillingsUpdate:  mu: -0.097800000  nElectrons: 494.000000  magneticMoment: [ Abs: 0.00277  Tot: -0.00008 ]
LCAOMinimize: Iter:  19  G: -5195.8268407668083455  |grad|_K:  2.349e-04  alpha:  1.616e-02  linmin: -1.854e-02  cgtest:  3.169e-01  t[s]:   1523.33
LCAOMinimize: Encountered beta<0, resetting CG.
	FillingsUpdate:  mu: -0.097800000  nElectrons: 494.000000  magneticMoment: [ Abs: 0.00279  Tot: -0.00010 ]
LCAOMinimize: Iter:  20  G: -5195.8326377512130421  |grad|_K:  2.613e-04  alpha:  2.552e-02  linmin:  1.150e-03  cgtest: -3.302e-03  t[s]:   1588.27
	FillingsUpdate:  mu: -0.097800000  nElectrons: 494.000000  magneticMoment: [ Abs: 0.00281  Tot: -0.00010 ]
LCAOMinimize: Iter:  21  G: -5195.8371577669404360  |grad|_K:  1.423e-04  alpha:  1.616e-02  linmin: -2.232e-04  cgtest:  3.527e-02  t[s]:   1653.84
	FillingsUpdate:  mu: -0.097800000  nElectrons: 494.000000  magneticMoment: [ Abs: 0.00283  Tot: -0.00011 ]
LCAOMinimize: Iter:  22  G: -5195.8395623779633752  |grad|_K:  8.821e-05  alpha:  2.858e-02  linmin: -1.362e-03  cgtest: -2.682e-02  t[s]:   1718.90
LCAOMinimize: 	Predicted alpha/alphaT>3.000000, increasing alphaT to 8.575376e-02.
	FillingsUpdate:  mu: -0.097800000  nElectrons: 494.000000  magneticMoment: [ Abs: 0.00298  Tot: -0.00017 ]
LCAOMinimize: Iter:  23  G: -5195.8444694283889476  |grad|_K:  9.685e-05  alpha:  1.560e-01  linmin:  6.410e-03  cgtest: -2.626e-02  t[s]:   1800.94
	FillingsUpdate:  mu: -0.097800000  nElectrons: 494.000000  magneticMoment: [ Abs: 0.00304  Tot: -0.00016 ]
LCAOMinimize: Iter:  24  G: -5195.8457494432013846  |grad|_K:  1.124e-04  alpha:  3.264e-02  linmin: -3.303e-03  cgtest:  1.465e-01  t[s]:   1866.00
	FillingsUpdate:  mu: -0.097800000  nElectrons: 494.000000  magneticMoment: [ Abs: 0.00307  Tot: -0.00016 ]
LCAOMinimize: Iter:  25  G: -5195.8464714818201173  |grad|_K:  5.012e-05  alpha:  1.295e-02  linmin: -5.831e-04  cgtest: -2.602e-01  t[s]:   1931.20
	FillingsUpdate:  mu: -0.097800000  nElectrons: 494.000000  magneticMoment: [ Abs: 0.00310  Tot: -0.00015 ]
LCAOMinimize: Iter:  26  G: -5195.8468575832666829  |grad|_K:  4.261e-05  alpha:  3.694e-02  linmin:  1.831e-04  cgtest:  8.670e-02  t[s]:   1996.27
	FillingsUpdate:  mu: -0.097800000  nElectrons: 494.000000  magneticMoment: [ Abs: 0.00313  Tot: -0.00016 ]
LCAOMinimize: Iter:  27  G: -5195.8470775444802712  |grad|_K:  5.413e-05  alpha:  2.930e-02  linmin:  3.957e-04  cgtest: -2.153e-03  t[s]:   2061.82
	FillingsUpdate:  mu: -0.097800000  nElectrons: 494.000000  magneticMoment: [ Abs: 0.00315  Tot: -0.00016 ]
LCAOMinimize: Iter:  28  G: -5195.8473185806151378  |grad|_K:  3.564e-05  alpha:  1.996e-02  linmin:  9.333e-04  cgtest:  3.926e-03  t[s]:   2126.82
	FillingsUpdate:  mu: -0.097800000  nElectrons: 494.000000  magneticMoment: [ Abs: 0.00320  Tot: -0.00017 ]
LCAOMinimize: Iter:  29  G: -5195.8475710432385313  |grad|_K:  4.014e-05  alpha:  5.062e-02  linmin:  2.374e-03  cgtest: -4.079e-02  t[s]:   2192.06
	FillingsUpdate:  mu: -0.097800000  nElectrons: 494.000000  magneticMoment: [ Abs: 0.00321  Tot: -0.00016 ]
LCAOMinimize: Iter:  30  G: -5195.8476426485513002  |grad|_K:  1.949e-05  alpha:  1.132e-02  linmin:  1.242e-03  cgtest:  1.296e-01  t[s]:   2257.19
LCAOMinimize: None of the convergence criteria satisfied after 30 iterations.
----- createFluidSolver() ----- (Fluid-side solver setup)
   Initializing fluid molecule 'H2O'
     Initializing site 'O'
       Electron density: proportional to exp(-r/0.36935)*erfc((r-0.51523)/0.36823) with norm 6.826
       Charge density: gaussian nuclear width 0.478731 with net site charge 0.826
       Polarizability: cuspless exponential with width 0.32 and norm 3.73
       Hard sphere radius: 2.57003 bohrs
       Positions in reference frame:
         [ +0.000000 +0.000000 +0.000000 ]
     Initializing site 'H'
       Electron density: proportional to exp(-r/0.34641)*erfc((r-0)/0.390882) with norm 0.587
       Charge density: gaussian nuclear width 0.377945 with net site charge -0.413
       Polarizability: cuspless exponential with width 0.39 and norm 3.3
       Positions in reference frame:
         [ +0.000000 -1.441945 +1.122523 ]
         [ +0.000000 +1.441945 +1.122523 ]
     Net charge: 0   dipole magnitude: 0.927204
     Initializing spherical shell mfKernel with radius 2.61727 Bohr
     deltaS corrections:
       site 'O': -7.54299
       site 'H': -6.83917
   Initializing fluid molecule 'Na+'
     Initializing site 'Na'
       Electron density: proportional to exp(-r/0.19682)*erfc((r-0.71491)/0.41314) with norm 8.1383
       Charge density: gaussian nuclear width 0.365347 with net site charge -1
       Hard sphere radius: 1.86327 bohrs
       Positions in reference frame:
         [ +0.000000 +0.000000 +0.000000 ]
     Net charge: -1   dipole magnitude: 0
     Initializing gaussian mfKernel with width: 1.55004 Bohr
     deltaS corrections:
       site 'Na': -22.3555
   Initializing fluid molecule 'F-'
     Initializing site 'F'
       Electron density: proportional to exp(-r/0.38886)*erfc((r-0)/0.438782) with norm 8
       Charge density: gaussian nuclear width 0.374796 with net site charge 1
       Hard sphere radius: 2.39995 bohrs
       Positions in reference frame:
         [ +0.000000 +0.000000 +0.000000 ]
     Net charge: 1   dipole magnitude: 0
     Initializing gaussian mfKernel with width: 1.59012 Bohr
     deltaS corrections:
       site 'F': -9.04335

Correction to mu due to finite nuclear width = -0.0820568
   Cavity determined by nc: 0.00142 and sigma: 0.707107
   Nonlocal vdW cavity from gaussian model electron density with norm = 8 and sigma = 0.993594 bohr
   Charge asymmetry in cavity with sensitivity pCavity = 36.5 e-bohr/Eh
   Electrostatic cavity expanded by eta = 1.46 bohrs
   Weighted density cavitation model constrained by Nbulk: 0.0049383 bohr^-3, Pvap: 3.14029 kPa, Rvdw: 2.61727 bohr and sigmaBulk: 4.62e-05 Eh/bohr^2 at T: 298 K.
   Weighted density dispersion model using vdW pair potentials with single solvent site with sqrtC6eff: 0.77 SI.


---- Citations for features of the code used in this run ----

   Software package:
      R. Sundararaman, K. Letchworth-Weaver, K.A. Schwarz, D. Gunceler, Y. Ozhabes and T.A. Arias, 'JDFTx: software for joint density-functional theory', SoftwareX 6, 278 (2017)

   gga-PBE exchange-correlation functional:
      J.P. Perdew, K. Burke and M. Ernzerhof, Phys. Rev. Lett. 77, 3865 (1996)

   Pseudopotentials:
      KF Garrity, JW Bennett, KM Rabe and D Vanderbilt, Comput. Mater. Sci. 81, 446 (2014)

   DFT-D3 dispersion correction:
      S. Grimme, J. Antony, S. Ehrlich and H. Krieg, J. Chem. Phys. 132, 154104 (2010)

   DFT-D2 dispersion correction:
      S. Grimme, J. Comput. Chem. 27, 1787 (2006)

   Charge-asymmetric nonlocally-determined local-electric (CANDLE) solvation model:
      R. Sundararaman and W.A. Goddard III, J. Chem. Phys. 142, 064107 (2015)

   Total energy minimization with Auxiliary Hamiltonian:
      C. Freysoldt, S. Boeck, and J. Neugebauer, Phys. Rev. B 79, 241103(R) (2009)

   Grand-canonical (fixed-potential) DFT:
      R. Sundararaman, W. A. Goddard III and T. A. Arias, J. Chem. Phys. 146, 114104 (2017)

   Linear-tetrahedron sampling for density of states:
      G. Lehmann and M. Taut, Phys. status solidi (b) 54, 469 (1972)

This list may not be complete. Please suggest additional citations or
report any other bugs at https://github.com/shankar1729/jdftx/issues

Initialization completed successfully at t[s]:   2275.49


Computing DFT-D3 correction:
# coordination-number Cu 6.854 9.148 8.375 9.157 9.160 9.158 9.159 9.160 9.153 8.350 4.602 9.127 5.358 9.127 9.158 9.153 9.160 9.159 9.148 9.160 9.157 8.375 4.602 8.350 6.854 5.358
# diagonal-C6 Cu 175.00 175.00 175.00 175.00 175.00 175.00 175.00 175.00 175.00 175.00 175.00 175.00 175.00 175.00 175.00 175.00 175.00 175.00 175.00 175.00 175.00 175.00 175.00 175.00 175.00 175.00
EvdW_6 =   -0.161310
EvdW_8 =   -0.239379
Fluid solver invoked on fresh (random / LCAO) wavefunctions
Running a vacuum solve first:

-------- Initial electronic minimization -----------
	FillingsUpdate:  mu: +0.154558039  nElectrons: 494.000000  magneticMoment: [ Abs: 0.00321  Tot: -0.00016 ]
ElecMinimize: Iter:   0  G: -5195.849237018353051  |grad|_K:  1.796e-04  alpha:  1.000e+00
	FillingsUpdate:  mu: +0.033938322  nElectrons: 494.000000  magneticMoment: [ Abs: 0.00312  Tot: -0.00017 ]
	SubspaceRotationAdjust: set factor to 0.969
ElecMinimize: Iter:   1  G: -5197.543340142956367  |grad|_K:  8.908e-05  alpha:  9.979e-02  linmin:  2.722e-04  t[s]:   2451.33
	FillingsUpdate:  mu: +0.433224500  nElectrons: 494.000000  magneticMoment: [ Abs: 0.00235  Tot: -0.00011 ]
	SubspaceRotationAdjust: set factor to 0.52
ElecMinimize: Iter:   2  G: -5198.783751193583157  |grad|_K:  1.921e-04  alpha:  2.616e-01  linmin: -2.735e-04  t[s]:   2563.35
ElecMinimize: 	Step increased G by 3.669078e-01, reducing alpha to 5.374474e-03.
	FillingsUpdate:  mu: +0.308383977  nElectrons: 494.000000  magneticMoment: [ Abs: 0.00231  Tot: -0.00011 ]
	SubspaceRotationAdjust: set factor to 0.361
ElecMinimize: Iter:   3  G: -5199.001760533513334  |grad|_K:  9.176e-05  alpha:  5.374e-03  linmin: -9.412e-04  t[s]:   2746.61
ElecMinimize: 	Predicted alpha/alphaT>3.000000, increasing alphaT to 1.612342e-02.
	FillingsUpdate:  mu: +0.225646828  nElectrons: 494.000000  magneticMoment: [ Abs: 0.00223  Tot: -0.00011 ]
	SubspaceRotationAdjust: set factor to 0.186
ElecMinimize: Iter:   4  G: -5199.163907309969545  |grad|_K:  5.320e-05  alpha:  1.937e-02  linmin: -7.486e-05  t[s]:   2886.25
ElecMinimize: 	Predicted alpha/alphaT>3.000000, increasing alphaT to 5.809836e-02.
	FillingsUpdate:  mu: +0.353224961  nElectrons: 494.000000  magneticMoment: [ Abs: 0.00206  Tot: -0.00012 ]
	SubspaceRotationAdjust: set factor to 0.126
	SubspaceRotationAdjust: resetting CG because factor has changed by 0.126293
ElecMinimize: 	State modified externally: resetting search direction.
ElecMinimize: Iter:   5  G: -5199.320404439709819  |grad|_K:  5.786e-05  alpha:  9.396e-02
	FillingsUpdate:  mu: +0.141312282  nElectrons: 494.000000  magneticMoment: [ Abs: 0.00188  Tot: -0.00010 ]
	SubspaceRotationAdjust: set factor to 0.101
ElecMinimize: Iter:   6  G: -5199.498710430310894  |grad|_K:  2.549e-05  alpha:  9.701e-02  linmin: -1.736e-04  t[s]:   3194.58
	FillingsUpdate:  mu: +0.126146334  nElectrons: 494.000000  magneticMoment: [ Abs: 0.00162  Tot: -0.00010 ]
	SubspaceRotationAdjust: set factor to 0.113
ElecMinimize: Iter:   7  G: -5199.601500072166345  |grad|_K:  3.062e-05  alpha:  2.873e-01  linmin:  1.876e-05  t[s]:   3306.97
	FillingsUpdate:  mu: +0.094663049  nElectrons: 494.000000  magneticMoment: [ Abs: 0.00131  Tot: -0.00009 ]
	SubspaceRotationAdjust: set factor to 0.152
ElecMinimize: Iter:   8  G: -5199.696564190426216  |grad|_K:  1.540e-05  alpha:  1.857e-01  linmin:  1.048e-07  t[s]:   3418.61
	FillingsUpdate:  mu: +0.096923713  nElectrons: 494.000000  magneticMoment: [ Abs: 0.00119  Tot: -0.00008 ]
	SubspaceRotationAdjust: set factor to 0.168
ElecMinimize: Iter:   9  G: -5199.721875678294055  |grad|_K:  1.537e-05  alpha:  1.944e-01  linmin: -2.988e-06  t[s]:   3530.24
	FillingsUpdate:  mu: +0.105083322  nElectrons: 494.000000  magneticMoment: [ Abs: 0.00117  Tot: -0.00007 ]
	SubspaceRotationAdjust: set factor to 0.227
ElecMinimize: Iter:  10  G: -5199.748862258150439  |grad|_K:  1.269e-05  alpha:  2.078e-01  linmin: -3.748e-06  t[s]:   3643.10
	FillingsUpdate:  mu: +0.108674170  nElectrons: 494.000000  magneticMoment: [ Abs: 0.00114  Tot: -0.00005 ]
	SubspaceRotationAdjust: set factor to 0.249
ElecMinimize: Iter:  11  G: -5199.776958568823829  |grad|_K:  1.736e-05  alpha:  3.157e-01  linmin: -6.921e-06  t[s]:   3754.93
	FillingsUpdate:  mu: +0.104763947  nElectrons: 494.000000  magneticMoment: [ Abs: 0.00119  Tot: -0.00004 ]
	SubspaceRotationAdjust: set factor to 0.215
ElecMinimize: Iter:  12  G: -5199.802255161611356  |grad|_K:  1.244e-05  alpha:  1.551e-01  linmin:  9.826e-06  t[s]:   3866.65
	FillingsUpdate:  mu: +0.104617152  nElectrons: 494.000000  magneticMoment: [ Abs: 0.00123  Tot: -0.00003 ]
	SubspaceRotationAdjust: set factor to 0.182
ElecMinimize: Iter:  13  G: -5199.815859062375239  |grad|_K:  1.151e-05  alpha:  1.619e-01  linmin: -6.253e-06  t[s]:   3978.68
	FillingsUpdate:  mu: +0.103577714  nElectrons: 494.000000  magneticMoment: [ Abs: 0.00119  Tot: -0.00002 ]
	SubspaceRotationAdjust: set factor to 0.187
ElecMinimize: Iter:  14  G: -5199.829423116960243  |grad|_K:  8.830e-06  alpha:  1.842e-01  linmin: -3.065e-06  t[s]:   4090.49
	FillingsUpdate:  mu: +0.103117664  nElectrons: 494.000000  magneticMoment: [ Abs: 0.00111  Tot: -0.00001 ]
	SubspaceRotationAdjust: set factor to 0.192
ElecMinimize: Iter:  15  G: -5199.836812768558957  |grad|_K:  8.301e-06  alpha:  1.717e-01  linmin: -1.613e-07  t[s]:   4202.45
	FillingsUpdate:  mu: +0.101302507  nElectrons: 494.000000  magneticMoment: [ Abs: 0.00091  Tot: -0.00000 ]
	SubspaceRotationAdjust: set factor to 0.179
ElecMinimize: Iter:  16  G: -5199.843856709751890  |grad|_K:  5.249e-06  alpha:  1.861e-01  linmin: -1.445e-06  t[s]:   4314.01
	FillingsUpdate:  mu: +0.101374554  nElectrons: 494.000000  magneticMoment: [ Abs: 0.00080  Tot: -0.00000 ]
	SubspaceRotationAdjust: set factor to 0.185
ElecMinimize: Iter:  17  G: -5199.845952570076406  |grad|_K:  4.050e-06  alpha:  1.383e-01  linmin: -1.059e-07  t[s]:   4426.13
	FillingsUpdate:  mu: +0.102066813  nElectrons: 494.000000  magneticMoment: [ Abs: 0.00065  Tot: -0.00000 ]
	SubspaceRotationAdjust: set factor to 0.201
ElecMinimize: Iter:  18  G: -5199.848129122063256  |grad|_K:  3.335e-06  alpha:  2.418e-01  linmin:  2.011e-07  t[s]:   4538.62
	FillingsUpdate:  mu: +0.102389014  nElectrons: 494.000000  magneticMoment: [ Abs: 0.00056  Tot: -0.00000 ]
	SubspaceRotationAdjust: set factor to 0.219
ElecMinimize: Iter:  19  G: -5199.848939244687244  |grad|_K:  2.567e-06  alpha:  1.328e-01  linmin:  3.418e-08  t[s]:   4651.12
	FillingsUpdate:  mu: +0.102900100  nElectrons: 494.000000  magneticMoment: [ Abs: 0.00045  Tot: -0.00000 ]
	SubspaceRotationAdjust: set factor to 0.243
ElecMinimize: Iter:  20  G: -5199.849833419293645  |grad|_K:  2.466e-06  alpha:  2.471e-01  linmin: -9.662e-08  t[s]:   4763.14
	FillingsUpdate:  mu: +0.103064638  nElectrons: 494.000000  magneticMoment: [ Abs: 0.00040  Tot: -0.00000 ]
	SubspaceRotationAdjust: set factor to 0.297
ElecMinimize: Iter:  21  G: -5199.850319978547304  |grad|_K:  1.686e-06  alpha:  1.458e-01  linmin: -3.306e-08  t[s]:   4874.95
	FillingsUpdate:  mu: +0.102907977  nElectrons: 494.000000  magneticMoment: [ Abs: 0.00035  Tot: -0.00000 ]
	SubspaceRotationAdjust: set factor to 0.347
ElecMinimize: Iter:  22  G: -5199.850660565014550  |grad|_K:  1.729e-06  alpha:  2.184e-01  linmin:  3.289e-08  t[s]:   4986.79
	FillingsUpdate:  mu: +0.102225976  nElectrons: 494.000000  magneticMoment: [ Abs: 0.00031  Tot: -0.00000 ]
	SubspaceRotationAdjust: set factor to 0.412
ElecMinimize: Iter:  23  G: -5199.850930753787907  |grad|_K:  1.463e-06  alpha:  1.646e-01  linmin:  1.162e-08  t[s]:   5099.46
	FillingsUpdate:  mu: +0.100888533  nElectrons: 494.000000  magneticMoment: [ Abs: 0.00026  Tot: -0.00000 ]
	SubspaceRotationAdjust: set factor to 0.446
ElecMinimize: Iter:  24  G: -5199.851233178047551  |grad|_K:  1.455e-06  alpha:  2.577e-01  linmin:  6.309e-07  t[s]:   5211.46
	FillingsUpdate:  mu: +0.101043746  nElectrons: 494.000000  magneticMoment: [ Abs: 0.00023  Tot: -0.00000 ]
	SubspaceRotationAdjust: set factor to 0.487
ElecMinimize: Iter:  25  G: -5199.851382149958226  |grad|_K:  9.428e-07  alpha:  1.284e-01  linmin: -1.040e-07  t[s]:   5323.30
	FillingsUpdate:  mu: +0.102028826  nElectrons: 494.000000  magneticMoment: [ Abs: 0.00020  Tot: -0.00000 ]
	SubspaceRotationAdjust: set factor to 0.48
ElecMinimize: Iter:  26  G: -5199.851480094723229  |grad|_K:  9.367e-07  alpha:  2.007e-01  linmin:  1.573e-07  t[s]:   5435.46
	FillingsUpdate:  mu: +0.101851190  nElectrons: 494.000000  magneticMoment: [ Abs: 0.00017  Tot: -0.00000 ]
	SubspaceRotationAdjust: set factor to 0.418
ElecMinimize: Iter:  27  G: -5199.851549250568496  |grad|_K:  8.042e-07  alpha:  1.436e-01  linmin:  4.069e-08  t[s]:   5546.90
	FillingsUpdate:  mu: +0.101612133  nElectrons: 494.000000  magneticMoment: [ Abs: 0.00015  Tot: -0.00000 ]
	SubspaceRotationAdjust: set factor to 0.282
ElecMinimize: Iter:  28  G: -5199.851575437404790  |grad|_K:  6.864e-07  alpha:  7.375e-02  linmin: -1.036e-07  t[s]:   5659.54
	FillingsUpdate:  mu: +0.101376867  nElectrons: 494.000000  magneticMoment: [ Abs: 0.00012  Tot: -0.00000 ]
	SubspaceRotationAdjust: set factor to 0.299
ElecMinimize: Iter:  29  G: -5199.851614725045692  |grad|_K:  5.928e-07  alpha:  1.519e-01  linmin:  1.718e-07  t[s]:   5770.94
	FillingsUpdate:  mu: +0.101472434  nElectrons: 494.000000  magneticMoment: [ Abs: 0.00009  Tot: -0.00000 ]
	SubspaceRotationAdjust: set factor to 0.319
ElecMinimize: Iter:  30  G: -5199.851638136085967  |grad|_K:  4.094e-07  alpha:  1.214e-01  linmin:  1.978e-08  t[s]:   5882.77
	FillingsUpdate:  mu: +0.101674343  nElectrons: 494.000000  magneticMoment: [ Abs: 0.00008  Tot: -0.00000 ]
	SubspaceRotationAdjust: set factor to 0.258
ElecMinimize: Iter:  31  G: -5199.851648720242338  |grad|_K:  3.640e-07  alpha:  1.150e-01  linmin: -1.359e-07  t[s]:   5995.49
	FillingsUpdate:  mu: +0.101854623  nElectrons: 494.000000  magneticMoment: [ Abs: 0.00006  Tot: -0.00000 ]
	SubspaceRotationAdjust: set factor to 0.298
ElecMinimize: Iter:  32  G: -5199.851658939881418  |grad|_K:  2.652e-07  alpha:  1.405e-01  linmin:  2.958e-08  t[s]:   6107.46
	FillingsUpdate:  mu: +0.101752526  nElectrons: 494.000000  magneticMoment: [ Abs: 0.00005  Tot: -0.00000 ]
	SubspaceRotationAdjust: set factor to 0.342
ElecMinimize: Iter:  33  G: -5199.851664485379843  |grad|_K:  2.410e-07  alpha:  1.437e-01  linmin:  1.571e-07  t[s]:   6219.14
	FillingsUpdate:  mu: +0.101544378  nElectrons: 494.000000  magneticMoment: [ Abs: 0.00004  Tot: -0.00000 ]
	SubspaceRotationAdjust: set factor to 0.298
ElecMinimize: Iter:  34  G: -5199.851669307814518  |grad|_K:  2.379e-07  alpha:  1.513e-01  linmin: -2.198e-07  t[s]:   6331.26
	FillingsUpdate:  mu: +0.101523925  nElectrons: 494.000000  magneticMoment: [ Abs: 0.00004  Tot: -0.00000 ]
	SubspaceRotationAdjust: set factor to 0.306
ElecMinimize: Iter:  35  G: -5199.851672896569653  |grad|_K:  1.746e-07  alpha:  1.155e-01  linmin:  3.860e-08  t[s]:   6442.78
	FillingsUpdate:  mu: +0.101754184  nElectrons: 494.000000  magneticMoment: [ Abs: 0.00003  Tot: -0.00000 ]
	SubspaceRotationAdjust: set factor to 0.349
ElecMinimize: Iter:  36  G: -5199.851675994929792  |grad|_K:  1.664e-07  alpha:  1.852e-01  linmin:  2.488e-07  t[s]:   6555.22
	FillingsUpdate:  mu: +0.101862795  nElectrons: 494.000000  magneticMoment: [ Abs: 0.00003  Tot: -0.00000 ]
	SubspaceRotationAdjust: set factor to 0.345
ElecMinimize: Iter:  37  G: -5199.851678211507533  |grad|_K:  1.446e-07  alpha:  1.460e-01  linmin:  2.202e-08  t[s]:   6667.07
	FillingsUpdate:  mu: +0.101777404  nElectrons: 494.000000  magneticMoment: [ Abs: 0.00003  Tot: -0.00000 ]
	SubspaceRotationAdjust: set factor to 0.284
ElecMinimize: Iter:  38  G: -5199.851679543077807  |grad|_K:  1.319e-07  alpha:  1.159e-01  linmin: -4.229e-08  t[s]:   6778.80
	FillingsUpdate:  mu: +0.101612913  nElectrons: 494.000000  magneticMoment: [ Abs: 0.00003  Tot: -0.00000 ]
	SubspaceRotationAdjust: set factor to 0.271
ElecMinimize: Iter:  39  G: -5199.851680993616355  |grad|_K:  1.084e-07  alpha:  1.519e-01  linmin:  6.168e-08  t[s]:   6891.46
	FillingsUpdate:  mu: +0.101625492  nElectrons: 494.000000  magneticMoment: [ Abs: 0.00003  Tot: -0.00000 ]
	SubspaceRotationAdjust: set factor to 0.306
ElecMinimize: Iter:  40  G: -5199.851682040250125  |grad|_K:  9.325e-08  alpha:  1.622e-01  linmin: -2.403e-07  t[s]:   7003.06
	FillingsUpdate:  mu: +0.101718937  nElectrons: 494.000000  magneticMoment: [ Abs: 0.00002  Tot: -0.00000 ]
	SubspaceRotationAdjust: set factor to 0.263
ElecMinimize: Iter:  41  G: -5199.851682729039567  |grad|_K:  7.547e-08  alpha:  1.442e-01  linmin:  6.165e-08  t[s]:   7115.90
	FillingsUpdate:  mu: +0.101757438  nElectrons: 494.000000  magneticMoment: [ Abs: 0.00002  Tot: -0.00000 ]
	SubspaceRotationAdjust: set factor to 0.226
ElecMinimize: Iter:  42  G: -5199.851683149872770  |grad|_K:  6.542e-08  alpha:  1.347e-01  linmin:  2.127e-07  t[s]:   7228.74
	FillingsUpdate:  mu: +0.101731668  nElectrons: 494.000000  magneticMoment: [ Abs: 0.00002  Tot: -0.00000 ]
	SubspaceRotationAdjust: set factor to 0.247
ElecMinimize: Iter:  43  G: -5199.851683544641674  |grad|_K:  5.183e-08  alpha:  1.678e-01  linmin: -2.753e-07  t[s]:   7340.94
	FillingsUpdate:  mu: +0.101705480  nElectrons: 494.000000  magneticMoment: [ Abs: 0.00001  Tot: +0.00000 ]
	SubspaceRotationAdjust: set factor to 0.252
ElecMinimize: Iter:  44  G: -5199.851683745199807  |grad|_K:  4.141e-08  alpha:  1.362e-01  linmin: -3.883e-07  t[s]:   7453.18
	FillingsUpdate:  mu: +0.101705724  nElectrons: 494.000000  magneticMoment: [ Abs: 0.00001  Tot: +0.00000 ]
	SubspaceRotationAdjust: set factor to 0.24
ElecMinimize: Iter:  45  G: -5199.851683918154777  |grad|_K:  4.048e-08  alpha:  1.833e-01  linmin:  4.220e-07  t[s]:   7565.62
	FillingsUpdate:  mu: +0.101724848  nElectrons: 494.000000  magneticMoment: [ Abs: 0.00001  Tot: +0.00000 ]
	SubspaceRotationAdjust: set factor to 0.264
ElecMinimize: Iter:  46  G: -5199.851684042319903  |grad|_K:  2.842e-08  alpha:  1.393e-01  linmin:  1.866e-07  t[s]:   7678.08
	FillingsUpdate:  mu: +0.101733303  nElectrons: 494.000000  magneticMoment: [ Abs: 0.00001  Tot: +0.00000 ]
	SubspaceRotationAdjust: set factor to 0.292
ElecMinimize: Iter:  47  G: -5199.851684116665638  |grad|_K:  2.711e-08  alpha:  1.670e-01  linmin:  4.925e-07  t[s]:   7790.84
	FillingsUpdate:  mu: +0.101726426  nElectrons: 494.000000  magneticMoment: [ Abs: 0.00001  Tot: +0.00000 ]
	SubspaceRotationAdjust: set factor to 0.302
ElecMinimize: Iter:  48  G: -5199.851684175440823  |grad|_K:  2.066e-08  alpha:  1.464e-01  linmin: -4.753e-07  t[s]:   7903.50
ElecMinimize: Converged (|Delta G|<1.000000e-07 for 2 iters).
Setting wave functions to eigenvectors of Hamiltonian
Converging empty states (this may take a while): |deigs|: 1.452e-02
Vacuum energy after initial minimize, F = -5199.851684175440823

Shifting auxilliary hamiltonian by -0.199526 to set nElectrons=494.000000

-------- Electronic minimization -----------
	Linear fluid (dielectric constant: 78.4, screening length: 8.12261 Bohr) occupying 0.541720 of unit cell:	Completed after 22 iterations at t[s]:   8396.27
	FillingsUpdate:  mu: -0.097800000  nElectrons: 494.000000  magneticMoment: [ Abs: 0.00000  Tot: +0.00000 ]
ElecMinimize: Iter:   0  G: -5199.852060296313539  |grad|_K:  1.362e-05  alpha:  1.000e+00
	Linear fluid (dielectric constant: 78.4, screening length: 8.12261 Bohr) occupying 0.601410 of unit cell:	Completed after 28 iterations at t[s]:   8492.20
	Linear fluid (dielectric constant: 78.4, screening length: 8.12261 Bohr) occupying 0.548365 of unit cell:	Completed after 26 iterations at t[s]:   8525.37
ElecMinimize: 	Step increased G by 5.827355e-04, reducing alpha to 8.027831e-03.
	Linear fluid (dielectric constant: 78.4, screening length: 8.12261 Bohr) occupying 0.541720 of unit cell:	Completed after 17 iterations at t[s]:   8599.90
	FillingsUpdate:  mu: -0.097800000  nElectrons: 494.029108  magneticMoment: [ Abs: 0.00000  Tot: +0.00000 ]
	SubspaceRotationAdjust: set factor to 0.151
ElecMinimize: Iter:   1  G: -5199.853491410599418  |grad|_K:  1.039e-05  alpha:  8.028e-03  linmin: -4.643e-02  t[s]:   8646.34
	Linear fluid (dielectric constant: 78.4, screening length: 8.12261 Bohr) occupying 0.541868 of unit cell:	Completed after 16 iterations at t[s]:   8688.87
	Linear fluid (dielectric constant: 78.4, screening length: 8.12261 Bohr) occupying 0.542675 of unit cell:	Completed after 16 iterations at t[s]:   8720.58
	FillingsUpdate:  mu: -0.097800000  nElectrons: 494.126921  magneticMoment: [ Abs: 0.00000  Tot: +0.00000 ]
	SubspaceRotationAdjust: set factor to 0.101
ElecMinimize: Iter:   2  G: -5199.855721679806265  |grad|_K:  3.804e-06  alpha:  2.056e-02  linmin: -3.864e-03  t[s]:   8765.73
	Linear fluid (dielectric constant: 78.4, screening length: 8.12261 Bohr) occupying 0.542964 of unit cell:	Completed after 11 iterations at t[s]:   8807.42
ElecMinimize: 	Predicted alpha/alphaT>3.000000, increasing alphaT to 6.167229e-02.
	Linear fluid (dielectric constant: 78.4, screening length: 8.12261 Bohr) occupying 0.543688 of unit cell:	Completed after 12 iterations at t[s]:   8838.29
ElecMinimize: 	Predicted alpha/alphaT>3.000000, increasing alphaT to 1.850169e-01.
	Linear fluid (dielectric constant: 78.4, screening length: 8.12261 Bohr) occupying 0.546959 of unit cell:	Completed after 16 iterations at t[s]:   8869.44
	Linear fluid (dielectric constant: 78.4, screening length: 8.12261 Bohr) occupying 0.548277 of unit cell:	Completed after 12 iterations at t[s]:   8900.44
	FillingsUpdate:  mu: -0.097800000  nElectrons: 494.283271  magneticMoment: [ Abs: 0.00000  Tot: +0.00000 ]
	SubspaceRotationAdjust: set factor to 0.0642
ElecMinimize: Iter:   3  G: -5199.857794184119484  |grad|_K:  5.311e-06  alpha:  2.233e-01  linmin: -1.582e-03  t[s]:   8946.65
	Linear fluid (dielectric constant: 78.4, screening length: 8.12261 Bohr) occupying 0.559923 of unit cell:	Completed after 20 iterations at t[s]:   8989.55
	Linear fluid (dielectric constant: 78.4, screening length: 8.12261 Bohr) occupying 0.560447 of unit cell:	Completed after 10 iterations at t[s]:   9020.57
	FillingsUpdate:  mu: -0.097800000  nElectrons: 494.487644  magneticMoment: [ Abs: 0.00000  Tot: +0.00000 ]
	SubspaceRotationAdjust: set factor to 0.0704
ElecMinimize: Iter:   4  G: -5199.861833009901602  |grad|_K:  4.344e-06  alpha:  2.330e-01  linmin: -1.227e-04  t[s]:   9066.02
	Linear fluid (dielectric constant: 78.4, screening length: 8.12261 Bohr) occupying 0.568188 of unit cell:	Completed after 19 iterations at t[s]:   9108.56
	Linear fluid (dielectric constant: 78.4, screening length: 8.12261 Bohr) occupying 0.566226 of unit cell:	Completed after 17 iterations at t[s]:   9139.94
	FillingsUpdate:  mu: -0.097800000  nElectrons: 494.582675  magneticMoment: [ Abs: 0.00000  Tot: +0.00000 ]
	SubspaceRotationAdjust: set factor to 0.0795
ElecMinimize: Iter:   5  G: -5199.863624723722751  |grad|_K:  4.503e-06  alpha:  1.679e-01  linmin:  2.010e-05  t[s]:   9185.27
	Linear fluid (dielectric constant: 78.4, screening length: 8.12261 Bohr) occupying 0.572126 of unit cell:	Completed after 21 iterations at t[s]:   9228.14
	Linear fluid (dielectric constant: 78.4, screening length: 8.12261 Bohr) occupying 0.574754 of unit cell:	Completed after 18 iterations at t[s]:   9259.75
	FillingsUpdate:  mu: -0.097800000  nElectrons: 494.751227  magneticMoment: [ Abs: 0.00000  Tot: +0.00000 ]
	SubspaceRotationAdjust: set factor to 0.0949
ElecMinimize: Iter:   6  G: -5199.866496729109713  |grad|_K:  4.960e-06  alpha:  2.670e-01  linmin:  4.249e-04  t[s]:   9305.19
	Linear fluid (dielectric constant: 78.4, screening length: 8.12261 Bohr) occupying 0.580537 of unit cell:	Completed after 27 iterations at t[s]:   9348.69
	Linear fluid (dielectric constant: 78.4, screening length: 8.12261 Bohr) occupying 0.579155 of unit cell:	Completed after 21 iterations at t[s]:   9380.59
	FillingsUpdate:  mu: -0.097800000  nElectrons: 494.869264  magneticMoment: [ Abs: 0.00000  Tot: +0.00000 ]
	SubspaceRotationAdjust: set factor to 0.111
ElecMinimize: Iter:   7  G: -5199.868701837542176  |grad|_K:  5.389e-06  alpha:  1.750e-01  linmin:  6.944e-06  t[s]:   9425.92
	Linear fluid (dielectric constant: 78.4, screening length: 8.12261 Bohr) occupying 0.582599 of unit cell:	Completed after 24 iterations at t[s]:   9469.27
	Linear fluid (dielectric constant: 78.4, screening length: 8.12261 Bohr) occupying 0.582078 of unit cell:	Completed after 16 iterations at t[s]:   9500.69
	FillingsUpdate:  mu: -0.097800000  nElectrons: 494.972273  magneticMoment: [ Abs: 0.00000  Tot: +0.00000 ]
	SubspaceRotationAdjust: set factor to 0.148
ElecMinimize: Iter:   8  G: -5199.870984125287578  |grad|_K:  3.670e-06  alpha:  1.448e-01  linmin: -1.666e-04  t[s]:   9546.55
	Linear fluid (dielectric constant: 78.4, screening length: 8.12261 Bohr) occupying 0.583661 of unit cell:	Completed after 24 iterations at t[s]:   9589.60
	Linear fluid (dielectric constant: 78.4, screening length: 8.12261 Bohr) occupying 0.583629 of unit cell:	Completed after 11 iterations at t[s]:   9620.22
	FillingsUpdate:  mu: -0.097800000  nElectrons: 495.034097  magneticMoment: [ Abs: 0.00000  Tot: +0.00000 ]
	SubspaceRotationAdjust: set factor to 0.162
ElecMinimize: Iter:   9  G: -5199.872050749449045  |grad|_K:  3.666e-06  alpha:  1.418e-01  linmin:  9.928e-05  t[s]:   9665.57
	Linear fluid (dielectric constant: 78.4, screening length: 8.12261 Bohr) occupying 0.584706 of unit cell:	Completed after 24 iterations at t[s]:   9708.88
	Linear fluid (dielectric constant: 78.4, screening length: 8.12261 Bohr) occupying 0.585155 of unit cell:	Completed after 19 iterations at t[s]:   9740.58
	FillingsUpdate:  mu: -0.097800000  nElectrons: 495.115222  magneticMoment: [ Abs: 0.00000  Tot: +0.00000 ]
	SubspaceRotationAdjust: set factor to 0.177
ElecMinimize: Iter:  10  G: -5199.873516944634503  |grad|_K:  4.635e-06  alpha:  2.033e-01  linmin:  1.464e-04  t[s]:   9786.08
	Linear fluid (dielectric constant: 78.4, screening length: 8.12261 Bohr) occupying 0.585125 of unit cell:	Completed after 23 iterations at t[s]:   9829.23
	Linear fluid (dielectric constant: 78.4, screening length: 8.12261 Bohr) occupying 0.585136 of unit cell:	Completed after 17 iterations at t[s]:   9861.69
	FillingsUpdate:  mu: -0.097800000  nElectrons: 495.155465  magneticMoment: [ Abs: 0.00000  Tot: -0.00000 ]
	SubspaceRotationAdjust: set factor to 0.25
ElecMinimize: Iter:  11  G: -5199.875124617382426  |grad|_K:  4.089e-06  alpha:  1.389e-01  linmin:  4.060e-06  t[s]:   9907.23
	Linear fluid (dielectric constant: 78.4, screening length: 8.12261 Bohr) occupying 0.584102 of unit cell:	Completed after 24 iterations at t[s]:   9950.52
	Linear fluid (dielectric constant: 78.4, screening length: 8.12261 Bohr) occupying 0.584383 of unit cell:	Completed after 18 iterations at t[s]:   9982.10
	FillingsUpdate:  mu: -0.097800000  nElectrons: 495.153671  magneticMoment: [ Abs: 0.00000  Tot: -0.00000 ]
	SubspaceRotationAdjust: set factor to 0.252
ElecMinimize: Iter:  12  G: -5199.876046652663717  |grad|_K:  3.192e-06  alpha:  1.006e-01  linmin: -1.621e-06  t[s]:  10027.66
	Linear fluid (dielectric constant: 78.4, screening length: 8.12261 Bohr) occupying 0.584080 of unit cell:	Completed after 21 iterations at t[s]:  10070.58
	Linear fluid (dielectric constant: 78.4, screening length: 8.12261 Bohr) occupying 0.583930 of unit cell:	Completed after 17 iterations at t[s]:  10102.18
	FillingsUpdate:  mu: -0.097800000  nElectrons: 495.163971  magneticMoment: [ Abs: 0.00000  Tot: -0.00000 ]
	SubspaceRotationAdjust: set factor to 0.295
ElecMinimize: Iter:  13  G: -5199.876896275854051  |grad|_K:  3.774e-06  alpha:  1.519e-01  linmin: -1.870e-06  t[s]:  10148.10
	Linear fluid (dielectric constant: 78.4, screening length: 8.12261 Bohr) occupying 0.584094 of unit cell:	Completed after 24 iterations at t[s]:  10191.29
	Linear fluid (dielectric constant: 78.4, screening length: 8.12261 Bohr) occupying 0.584075 of unit cell:	Completed after 13 iterations at t[s]:  10222.35
	FillingsUpdate:  mu: -0.097800000  nElectrons: 495.208306  magneticMoment: [ Abs: 0.00000  Tot: -0.00000 ]
	SubspaceRotationAdjust: set factor to 0.293
ElecMinimize: Iter:  14  G: -5199.877994367770043  |grad|_K:  3.581e-06  alpha:  1.401e-01  linmin:  5.929e-05  t[s]:  10267.65
	Linear fluid (dielectric constant: 78.4, screening length: 8.12261 Bohr) occupying 0.584004 of unit cell:	Completed after 18 iterations at t[s]:  10310.03
	Linear fluid (dielectric constant: 78.4, screening length: 8.12261 Bohr) occupying 0.584004 of unit cell:	Completed after 15 iterations at t[s]:  10341.46
	FillingsUpdate:  mu: -0.097800000  nElectrons: 495.234156  magneticMoment: [ Abs: 0.00000  Tot: -0.00000 ]
	SubspaceRotationAdjust: set factor to 0.325
ElecMinimize: Iter:  15  G: -5199.878696341486830  |grad|_K:  2.950e-06  alpha:  1.007e-01  linmin:  2.403e-06  t[s]:  10386.89
	Linear fluid (dielectric constant: 78.4, screening length: 8.12261 Bohr) occupying 0.583740 of unit cell:	Completed after 21 iterations at t[s]:  10429.58
	Linear fluid (dielectric constant: 78.4, screening length: 8.12261 Bohr) occupying 0.583709 of unit cell:	Completed after 14 iterations at t[s]:  10461.20
	FillingsUpdate:  mu: -0.097800000  nElectrons: 495.246083  magneticMoment: [ Abs: 0.00000  Tot: -0.00000 ]
	SubspaceRotationAdjust: set factor to 0.338
ElecMinimize: Iter:  16  G: -5199.879241107570124  |grad|_K:  2.707e-06  alpha:  1.139e-01  linmin: -4.278e-05  t[s]:  10506.68
	Linear fluid (dielectric constant: 78.4, screening length: 8.12261 Bohr) occupying 0.583872 of unit cell:	Completed after 21 iterations at t[s]:  10549.62
	Linear fluid (dielectric constant: 78.4, screening length: 8.12261 Bohr) occupying 0.583855 of unit cell:	Completed after 10 iterations at t[s]:  10580.18
	FillingsUpdate:  mu: -0.097800000  nElectrons: 495.270953  magneticMoment: [ Abs: 0.00000  Tot: -0.00000 ]
	SubspaceRotationAdjust: set factor to 0.361
ElecMinimize: Iter:  17  G: -5199.879659967517000  |grad|_K:  2.362e-06  alpha:  1.034e-01  linmin:  4.171e-05  t[s]:  10625.60
	Linear fluid (dielectric constant: 78.4, screening length: 8.12261 Bohr) occupying 0.583857 of unit cell:	Completed after 15 iterations at t[s]:  10667.65
	Linear fluid (dielectric constant: 78.4, screening length: 8.12261 Bohr) occupying 0.583862 of unit cell:	Completed after 12 iterations at t[s]:  10698.74
	FillingsUpdate:  mu: -0.097800000  nElectrons: 495.290080  magneticMoment: [ Abs: 0.00000  Tot: -0.00000 ]
	SubspaceRotationAdjust: set factor to 0.395
ElecMinimize: Iter:  18  G: -5199.880067834286820  |grad|_K:  2.459e-06  alpha:  1.341e-01  linmin:  3.261e-05  t[s]:  10745.57
	Linear fluid (dielectric constant: 78.4, screening length: 8.12261 Bohr) occupying 0.583347 of unit cell:	Completed after 21 iterations at t[s]:  10788.50
	Linear fluid (dielectric constant: 78.4, screening length: 8.12261 Bohr) occupying 0.583489 of unit cell:	Completed after 16 iterations at t[s]:  10820.02
	FillingsUpdate:  mu: -0.097800000  nElectrons: 495.288322  magneticMoment: [ Abs: 0.00000  Tot: -0.00000 ]
	SubspaceRotationAdjust: set factor to 0.394
ElecMinimize: Iter:  19  G: -5199.880387007978243  |grad|_K:  2.074e-06  alpha:  9.673e-02  linmin: -2.390e-06  t[s]:  10865.45
	Linear fluid (dielectric constant: 78.4, screening length: 8.12261 Bohr) occupying 0.583482 of unit cell:	Completed after 16 iterations at t[s]:  10907.69
	Linear fluid (dielectric constant: 78.4, screening length: 8.12261 Bohr) occupying 0.583482 of unit cell:	Completed after 11 iterations at t[s]:  10938.70
	FillingsUpdate:  mu: -0.097800000  nElectrons: 495.295680  magneticMoment: [ Abs: 0.00000  Tot: -0.00000 ]
	SubspaceRotationAdjust: set factor to 0.435
ElecMinimize: Iter:  20  G: -5199.880594996289801  |grad|_K:  1.617e-06  alpha:  8.807e-02  linmin:  1.058e-05  t[s]:  10984.28
	Linear fluid (dielectric constant: 78.4, screening length: 8.12261 Bohr) occupying 0.583215 of unit cell:	Completed after 16 iterations at t[s]:  11026.66
	Linear fluid (dielectric constant: 78.4, screening length: 8.12261 Bohr) occupying 0.583114 of unit cell:	Completed after 13 iterations at t[s]:  11058.89
	FillingsUpdate:  mu: -0.097800000  nElectrons: 495.284180  magneticMoment: [ Abs: 0.00000  Tot: -0.00000 ]
	SubspaceRotationAdjust: set factor to 0.515
ElecMinimize: Iter:  21  G: -5199.880768780924882  |grad|_K:  1.641e-06  alpha:  1.211e-01  linmin: -7.791e-06  t[s]:  11104.40
	Linear fluid (dielectric constant: 78.4, screening length: 8.12261 Bohr) occupying 0.582443 of unit cell:	Completed after 21 iterations at t[s]:  11147.47
	Linear fluid (dielectric constant: 78.4, screening length: 8.12261 Bohr) occupying 0.582418 of unit cell:	Completed after 9 iterations at t[s]:  11178.33
	FillingsUpdate:  mu: -0.097800000  nElectrons: 495.257596  magneticMoment: [ Abs: 0.00000  Tot: -0.00000 ]
	SubspaceRotationAdjust: set factor to 0.547
ElecMinimize: Iter:  22  G: -5199.880955052442005  |grad|_K:  1.755e-06  alpha:  1.258e-01  linmin: -3.734e-05  t[s]:  11223.68
	Linear fluid (dielectric constant: 78.4, screening length: 8.12261 Bohr) occupying 0.582242 of unit cell:	Completed after 18 iterations at t[s]:  11266.04
	Linear fluid (dielectric constant: 78.4, screening length: 8.12261 Bohr) occupying 0.582309 of unit cell:	Completed after 15 iterations at t[s]:  11297.20
	FillingsUpdate:  mu: -0.097800000  nElectrons: 495.252501  magneticMoment: [ Abs: 0.00000  Tot: -0.00000 ]
	SubspaceRotationAdjust: set factor to 0.523
ElecMinimize: Iter:  23  G: -5199.881086849592975  |grad|_K:  1.503e-06  alpha:  7.724e-02  linmin: -2.466e-06  t[s]:  11343.35
	Linear fluid (dielectric constant: 78.4, screening length: 8.12261 Bohr) occupying 0.581904 of unit cell:	Completed after 18 iterations at t[s]:  11385.67
	Linear fluid (dielectric constant: 78.4, screening length: 8.12261 Bohr) occupying 0.581898 of unit cell:	Completed after 2 iterations at t[s]:  11415.68
	FillingsUpdate:  mu: -0.097800000  nElectrons: 495.234438  magneticMoment: [ Abs: 0.00000  Tot: -0.00000 ]
	SubspaceRotationAdjust: set factor to 0.586
ElecMinimize: Iter:  24  G: -5199.881184276642671  |grad|_K:  1.239e-06  alpha:  7.849e-02  linmin: -3.063e-05  t[s]:  11460.82
	Linear fluid (dielectric constant: 78.4, screening length: 8.12261 Bohr) occupying 0.581781 of unit cell:	Completed after 15 iterations at t[s]:  11503.00
	Linear fluid (dielectric constant: 78.4, screening length: 8.12261 Bohr) occupying 0.581721 of unit cell:	Completed after 14 iterations at t[s]:  11534.27
	FillingsUpdate:  mu: -0.097800000  nElectrons: 495.222842  magneticMoment: [ Abs: 0.00000  Tot: -0.00000 ]
	SubspaceRotationAdjust: set factor to 0.663
ElecMinimize: Iter:  25  G: -5199.881286318284765  |grad|_K:  1.199e-06  alpha:  1.206e-01  linmin:  1.505e-05  t[s]:  11579.41
	Linear fluid (dielectric constant: 78.4, screening length: 8.12261 Bohr) occupying 0.581519 of unit cell:	Completed after 16 iterations at t[s]:  11621.69
	Linear fluid (dielectric constant: 78.4, screening length: 8.12261 Bohr) occupying 0.581539 of unit cell:	Completed after 8 iterations at t[s]:  11652.37
	FillingsUpdate:  mu: -0.097800000  nElectrons: 495.209987  magneticMoment: [ Abs: 0.00000  Tot: -0.00000 ]
	SubspaceRotationAdjust: set factor to 0.74
ElecMinimize: Iter:  26  G: -5199.881371373102411  |grad|_K:  1.098e-06  alpha:  1.082e-01  linmin:  7.351e-06  t[s]:  11697.68
	Linear fluid (dielectric constant: 78.4, screening length: 8.12261 Bohr) occupying 0.581089 of unit cell:	Completed after 18 iterations at t[s]:  11740.07
	Linear fluid (dielectric constant: 78.4, screening length: 8.12261 Bohr) occupying 0.581177 of unit cell:	Completed after 14 iterations at t[s]:  11771.06
	FillingsUpdate:  mu: -0.097800000  nElectrons: 495.191834  magneticMoment: [ Abs: 0.00000  Tot: -0.00000 ]
	SubspaceRotationAdjust: set factor to 0.701
ElecMinimize: Iter:  27  G: -5199.881428253449485  |grad|_K:  1.180e-06  alpha:  8.661e-02  linmin: -3.116e-05  t[s]:  11816.26
	Linear fluid (dielectric constant: 78.4, screening length: 8.12261 Bohr) occupying 0.581271 of unit cell:	Completed after 16 iterations at t[s]:  11858.53
	Linear fluid (dielectric constant: 78.4, screening length: 8.12261 Bohr) occupying 0.581237 of unit cell:	Completed after 15 iterations at t[s]:  11889.62
	FillingsUpdate:  mu: -0.097800000  nElectrons: 495.188892  magneticMoment: [ Abs: 0.00000  Tot: -0.00000 ]
	SubspaceRotationAdjust: set factor to 0.578
ElecMinimize: Iter:  28  G: -5199.881472148508692  |grad|_K:  1.040e-06  alpha:  5.684e-02  linmin:  9.618e-09  t[s]:  11934.85
	Linear fluid (dielectric constant: 78.4, screening length: 8.12261 Bohr) occupying 0.581081 of unit cell:	Completed after 15 iterations at t[s]:  11977.81
	Linear fluid (dielectric constant: 78.4, screening length: 8.12261 Bohr) occupying 0.581015 of unit cell:	Completed after 12 iterations at t[s]:  12008.53
	FillingsUpdate:  mu: -0.097800000  nElectrons: 495.175134  magneticMoment: [ Abs: 0.00000  Tot: -0.00000 ]
	SubspaceRotationAdjust: set factor to 0.632
ElecMinimize: Iter:  29  G: -5199.881520915273541  |grad|_K:  8.115e-07  alpha:  8.184e-02  linmin: -5.202e-05  t[s]:  12053.78
	Linear fluid (dielectric constant: 78.4, screening length: 8.12261 Bohr) occupying 0.580953 of unit cell:	Completed after 13 iterations at t[s]:  12095.89
	Linear fluid (dielectric constant: 78.4, screening length: 8.12261 Bohr) occupying 0.580932 of unit cell:	Completed after 7 iterations at t[s]:  12126.37
	FillingsUpdate:  mu: -0.097800000  nElectrons: 495.166815  magneticMoment: [ Abs: 0.00000  Tot: -0.00000 ]
	SubspaceRotationAdjust: set factor to 0.709
ElecMinimize: Iter:  30  G: -5199.881561348097421  |grad|_K:  7.945e-07  alpha:  1.107e-01  linmin: -1.310e-05  t[s]:  12171.70
	Linear fluid (dielectric constant: 78.4, screening length: 8.12261 Bohr) occupying 0.581133 of unit cell:	Completed after 16 iterations at t[s]:  12214.22
	Linear fluid (dielectric constant: 78.4, screening length: 8.12261 Bohr) occupying 0.581102 of unit cell:	Completed after 11 iterations at t[s]:  12245.89
	FillingsUpdate:  mu: -0.097800000  nElectrons: 495.167616  magneticMoment: [ Abs: 0.00000  Tot: -0.00000 ]
	SubspaceRotationAdjust: set factor to 0.671
ElecMinimize: Iter:  31  G: -5199.881593856082873  |grad|_K:  8.982e-07  alpha:  9.351e-02  linmin:  1.638e-05  t[s]:  12291.11
	Linear fluid (dielectric constant: 78.4, screening length: 8.12261 Bohr) occupying 0.580994 of unit cell:	Completed after 16 iterations at t[s]:  12333.57
	Linear fluid (dielectric constant: 78.4, screening length: 8.12261 Bohr) occupying 0.581033 of unit cell:	Completed after 13 iterations at t[s]:  12364.81
	FillingsUpdate:  mu: -0.097800000  nElectrons: 495.161520  magneticMoment: [ Abs: 0.00000  Tot: +0.00000 ]
	SubspaceRotationAdjust: set factor to 0.582
ElecMinimize: Iter:  32  G: -5199.881620028430007  |grad|_K:  6.989e-07  alpha:  5.936e-02  linmin:  5.972e-06  t[s]:  12410.17
	Linear fluid (dielectric constant: 78.4, screening length: 8.12261 Bohr) occupying 0.581151 of unit cell:	Completed after 15 iterations at t[s]:  12452.44
	Linear fluid (dielectric constant: 78.4, screening length: 8.12261 Bohr) occupying 0.581207 of unit cell:	Completed after 12 iterations at t[s]:  12483.38
	FillingsUpdate:  mu: -0.097800000  nElectrons: 495.163841  magneticMoment: [ Abs: 0.00000  Tot: +0.00000 ]
	SubspaceRotationAdjust: set factor to 0.648
ElecMinimize: Iter:  33  G: -5199.881643468728726  |grad|_K:  5.690e-07  alpha:  8.752e-02  linmin:  2.675e-06  t[s]:  12528.73
	Linear fluid (dielectric constant: 78.4, screening length: 8.12261 Bohr) occupying 0.581330 of unit cell:	Completed after 13 iterations at t[s]:  12571.34
	Linear fluid (dielectric constant: 78.4, screening length: 8.12261 Bohr) occupying 0.581382 of unit cell:	Completed after 11 iterations at t[s]:  12602.49
	FillingsUpdate:  mu: -0.097800000  nElectrons: 495.166535  magneticMoment: [ Abs: 0.00000  Tot: +0.00000 ]
	SubspaceRotationAdjust: set factor to 0.713
ElecMinimize: Iter:  34  G: -5199.881665548642559  |grad|_K:  5.973e-07  alpha:  1.243e-01  linmin: -8.174e-07  t[s]:  12648.03
	Linear fluid (dielectric constant: 78.4, screening length: 8.12261 Bohr) occupying 0.581383 of unit cell:	Completed after 14 iterations at t[s]:  12690.03
	Linear fluid (dielectric constant: 78.4, screening length: 8.12261 Bohr) occupying 0.581382 of unit cell:	Completed after 13 iterations at t[s]:  12721.15
	FillingsUpdate:  mu: -0.097800000  nElectrons: 495.164467  magneticMoment: [ Abs: 0.00000  Tot: +0.00000 ]
	SubspaceRotationAdjust: set factor to 0.646
ElecMinimize: Iter:  35  G: -5199.881682149210974  |grad|_K:  6.004e-07  alpha:  8.479e-02  linmin:  1.644e-07  t[s]:  12766.43
	Linear fluid (dielectric constant: 78.4, screening length: 8.12261 Bohr) occupying 0.581608 of unit cell:	Completed after 16 iterations at t[s]:  12808.47
	Linear fluid (dielectric constant: 78.4, screening length: 8.12261 Bohr) occupying 0.581533 of unit cell:	Completed after 14 iterations at t[s]:  12840.33
	FillingsUpdate:  mu: -0.097800000  nElectrons: 495.168189  magneticMoment: [ Abs: 0.00000  Tot: +0.00000 ]
	SubspaceRotationAdjust: set factor to 0.547
ElecMinimize: Iter:  36  G: -5199.881693324140542  |grad|_K:  4.674e-07  alpha:  5.645e-02  linmin:  2.080e-06  t[s]:  12885.62
	Linear fluid (dielectric constant: 78.4, screening length: 8.12261 Bohr) occupying 0.581548 of unit cell:	Completed after 11 iterations at t[s]:  12927.11
	Linear fluid (dielectric constant: 78.4, screening length: 8.12261 Bohr) occupying 0.581560 of unit cell:	Completed after 11 iterations at t[s]:  12957.83
	FillingsUpdate:  mu: -0.097800000  nElectrons: 495.168052  magneticMoment: [ Abs: 0.00000  Tot: +0.00000 ]
	SubspaceRotationAdjust: set factor to 0.582
ElecMinimize: Iter:  37  G: -5199.881705136319397  |grad|_K:  4.201e-07  alpha:  9.865e-02  linmin:  7.892e-06  t[s]:  13003.10
	Linear fluid (dielectric constant: 78.4, screening length: 8.12261 Bohr) occupying 0.581604 of unit cell:	Completed after 12 iterations at t[s]:  13044.75
	Linear fluid (dielectric constant: 78.4, screening length: 8.12261 Bohr) occupying 0.581611 of unit cell:	Completed after 2 iterations at t[s]:  13074.59
	FillingsUpdate:  mu: -0.097800000  nElectrons: 495.169125  magneticMoment: [ Abs: 0.00000  Tot: +0.00000 ]
	SubspaceRotationAdjust: set factor to 0.63
ElecMinimize: Iter:  38  G: -5199.881716187481288  |grad|_K:  3.954e-07  alpha:  1.142e-01  linmin: -7.024e-06  t[s]:  13119.90
	Linear fluid (dielectric constant: 78.4, screening length: 8.12261 Bohr) occupying 0.581789 of unit cell:	Completed after 16 iterations at t[s]:  13162.50
	Linear fluid (dielectric constant: 78.4, screening length: 8.12261 Bohr) occupying 0.581734 of unit cell:	Completed after 12 iterations at t[s]:  13193.56
	FillingsUpdate:  mu: -0.097800000  nElectrons: 495.173075  magneticMoment: [ Abs: 0.00000  Tot: +0.00000 ]
	SubspaceRotationAdjust: set factor to 0.563
ElecMinimize: Iter:  39  G: -5199.881723004823471  |grad|_K:  3.623e-07  alpha:  7.894e-02  linmin:  1.719e-05  t[s]:  13238.79
	Linear fluid (dielectric constant: 78.4, screening length: 8.12261 Bohr) occupying 0.581735 of unit cell:	Completed after 13 iterations at t[s]:  13280.82
	Linear fluid (dielectric constant: 78.4, screening length: 8.12261 Bohr) occupying 0.581735 of unit cell:	Completed after 0 iterations at t[s]:  13310.20
	FillingsUpdate:  mu: -0.097800000  nElectrons: 495.173201  magneticMoment: [ Abs: 0.00000  Tot: +0.00000 ]
	SubspaceRotationAdjust: set factor to 0.514
ElecMinimize: Iter:  40  G: -5199.881728529995598  |grad|_K:  3.178e-07  alpha:  7.692e-02  linmin:  3.417e-05  t[s]:  13355.65
	Linear fluid (dielectric constant: 78.4, screening length: 8.12261 Bohr) occupying 0.581790 of unit cell:	Completed after 11 iterations at t[s]:  13397.14
	Linear fluid (dielectric constant: 78.4, screening length: 8.12261 Bohr) occupying 0.581811 of unit cell:	Completed after 4 iterations at t[s]:  13427.01
	FillingsUpdate:  mu: -0.097800000  nElectrons: 495.176149  magneticMoment: [ Abs: 0.00000  Tot: +0.00000 ]
	SubspaceRotationAdjust: set factor to 0.559
ElecMinimize: Iter:  41  G: -5199.881734357647474  |grad|_K:  2.787e-07  alpha:  1.056e-01  linmin: -2.480e-05  t[s]:  13472.34
	Linear fluid (dielectric constant: 78.4, screening length: 8.12261 Bohr) occupying 0.581857 of unit cell:	Completed after 10 iterations at t[s]:  13513.88
	Linear fluid (dielectric constant: 78.4, screening length: 8.12261 Bohr) occupying 0.581857 of unit cell:	Completed after 0 iterations at t[s]:  13543.34
	FillingsUpdate:  mu: -0.097800000  nElectrons: 495.178211  magneticMoment: [ Abs: 0.00000  Tot: +0.00000 ]
	SubspaceRotationAdjust: set factor to 0.628
ElecMinimize: Iter:  42  G: -5199.881738878737451  |grad|_K:  2.496e-07  alpha:  1.055e-01  linmin: -9.901e-06  t[s]:  13588.50
	Linear fluid (dielectric constant: 78.4, screening length: 8.12261 Bohr) occupying 0.581837 of unit cell:	Completed after 13 iterations at t[s]:  13630.37
	Linear fluid (dielectric constant: 78.4, screening length: 8.12261 Bohr) occupying 0.581838 of unit cell:	Completed after 0 iterations at t[s]:  13659.81
	FillingsUpdate:  mu: -0.097800000  nElectrons: 495.178171  magneticMoment: [ Abs: 0.00000  Tot: +0.00000 ]
	SubspaceRotationAdjust: set factor to 0.609
ElecMinimize: Iter:  43  G: -5199.881742350862623  |grad|_K:  2.880e-07  alpha:  1.014e-01  linmin:  4.877e-05  t[s]:  13704.93
	Linear fluid (dielectric constant: 78.4, screening length: 8.12261 Bohr) occupying 0.581916 of unit cell:	Completed after 14 iterations at t[s]:  13747.49
	Linear fluid (dielectric constant: 78.4, screening length: 8.12261 Bohr) occupying 0.581892 of unit cell:	Completed after 11 iterations at t[s]:  13778.19
	FillingsUpdate:  mu: -0.097800000  nElectrons: 495.180681  magneticMoment: [ Abs: 0.00000  Tot: +0.00000 ]
	SubspaceRotationAdjust: set factor to 0.523
ElecMinimize: Iter:  44  G: -5199.881745490018147  |grad|_K:  2.534e-07  alpha:  6.993e-02  linmin: -1.390e-05  t[s]:  13823.45
	Linear fluid (dielectric constant: 78.4, screening length: 8.12261 Bohr) occupying 0.581870 of unit cell:	Completed after 11 iterations at t[s]:  13865.27
	Linear fluid (dielectric constant: 78.4, screening length: 8.12261 Bohr) occupying 0.581865 of unit cell:	Completed after 3 iterations at t[s]:  13895.29
	FillingsUpdate:  mu: -0.097800000  nElectrons: 495.180550  magneticMoment: [ Abs: 0.00000  Tot: +0.00000 ]
	SubspaceRotationAdjust: set factor to 0.601
ElecMinimize: Iter:  45  G: -5199.881748501759830  |grad|_K:  1.882e-07  alpha:  8.515e-02  linmin: -3.484e-05  t[s]:  13940.56
	Linear fluid (dielectric constant: 78.4, screening length: 8.12261 Bohr) occupying 0.581840 of unit cell:	Completed after 11 iterations at t[s]:  13982.34
	Linear fluid (dielectric constant: 78.4, screening length: 8.12261 Bohr) occupying 0.581834 of unit cell:	Completed after 3 iterations at t[s]:  14012.46
	FillingsUpdate:  mu: -0.097800000  nElectrons: 495.180140  magneticMoment: [ Abs: 0.00000  Tot: +0.00000 ]
	SubspaceRotationAdjust: set factor to 0.641
ElecMinimize: Iter:  46  G: -5199.881750586604539  |grad|_K:  1.954e-07  alpha:  1.064e-01  linmin: -1.245e-04  t[s]:  14058.03
	Linear fluid (dielectric constant: 78.4, screening length: 8.12261 Bohr) occupying 0.581866 of unit cell:	Completed after 13 iterations at t[s]:  14100.01
	Linear fluid (dielectric constant: 78.4, screening length: 8.12261 Bohr) occupying 0.581858 of unit cell:	Completed after 7 iterations at t[s]:  14130.69
	FillingsUpdate:  mu: -0.097800000  nElectrons: 495.181568  magneticMoment: [ Abs: 0.00000  Tot: -0.00000 ]
	SubspaceRotationAdjust: set factor to 0.551
ElecMinimize: Iter:  47  G: -5199.881752291319572  |grad|_K:  2.000e-07  alpha:  7.941e-02  linmin:  7.432e-05  t[s]:  14175.87
	Linear fluid (dielectric constant: 78.4, screening length: 8.12261 Bohr) occupying 0.581818 of unit cell:	Completed after 13 iterations at t[s]:  14217.69
	Linear fluid (dielectric constant: 78.4, screening length: 8.12261 Bohr) occupying 0.581820 of unit cell:	Completed after 0 iterations at t[s]:  14247.12
	FillingsUpdate:  mu: -0.097800000  nElectrons: 495.180948  magneticMoment: [ Abs: 0.00000  Tot: -0.00000 ]
	SubspaceRotationAdjust: set factor to 0.514
ElecMinimize: Iter:  48  G: -5199.881753900279364  |grad|_K:  1.571e-07  alpha:  7.421e-02  linmin:  6.305e-05  t[s]:  14292.41
	Linear fluid (dielectric constant: 78.4, screening length: 8.12261 Bohr) occupying 0.581815 of unit cell:	Completed after 6 iterations at t[s]:  14333.57
	Linear fluid (dielectric constant: 78.4, screening length: 8.12261 Bohr) occupying 0.581813 of unit cell:	Completed after 2 iterations at t[s]:  14363.79
	FillingsUpdate:  mu: -0.097800000  nElectrons: 495.181327  magneticMoment: [ Abs: 0.00000  Tot: -0.00000 ]
	SubspaceRotationAdjust: set factor to 0.548
ElecMinimize: Iter:  49  G: -5199.881755260914360  |grad|_K:  1.363e-07  alpha:  1.010e-01  linmin: -6.363e-05  t[s]:  14409.14
	Linear fluid (dielectric constant: 78.4, screening length: 8.12261 Bohr) occupying 0.581801 of unit cell:	Completed after 3 iterations at t[s]:  14450.01
	Linear fluid (dielectric constant: 78.4, screening length: 8.12261 Bohr) occupying 0.581798 of unit cell:	Completed after 3 iterations at t[s]:  14479.99
	FillingsUpdate:  mu: -0.097800000  nElectrons: 495.181409  magneticMoment: [ Abs: 0.00000  Tot: -0.00000 ]
	SubspaceRotationAdjust: set factor to 0.598
ElecMinimize: Iter:  50  G: -5199.881756494796718  |grad|_K:  1.310e-07  alpha:  1.201e-01  linmin:  9.456e-06  t[s]:  14525.49
	Linear fluid (dielectric constant: 78.4, screening length: 8.12261 Bohr) occupying 0.581753 of unit cell:	Completed after 12 iterations at t[s]:  14567.49
	Linear fluid (dielectric constant: 78.4, screening length: 8.12261 Bohr) occupying 0.581764 of unit cell:	Completed after 5 iterations at t[s]:  14597.66
	FillingsUpdate:  mu: -0.097800000  nElectrons: 495.180684  magneticMoment: [ Abs: 0.00000  Tot: -0.00000 ]
	SubspaceRotationAdjust: set factor to 0.552
ElecMinimize: Iter:  51  G: -5199.881757352850400  |grad|_K:  1.252e-07  alpha:  9.074e-02  linmin:  7.653e-05  t[s]:  14644.04
	Linear fluid (dielectric constant: 78.4, screening length: 8.12261 Bohr) occupying 0.581776 of unit cell:	Completed after 11 iterations at t[s]:  14685.85
	Linear fluid (dielectric constant: 78.4, screening length: 8.12261 Bohr) occupying 0.581773 of unit cell:	Completed after 5 iterations at t[s]:  14715.93
	FillingsUpdate:  mu: -0.097800000  nElectrons: 495.181300  magneticMoment: [ Abs: 0.00000  Tot: -0.00000 ]
	SubspaceRotationAdjust: set factor to 0.467
ElecMinimize: Iter:  52  G: -5199.881757935312635  |grad|_K:  1.115e-07  alpha:  6.904e-02  linmin:  6.090e-06  t[s]:  14761.21
	Linear fluid (dielectric constant: 78.4, screening length: 8.12261 Bohr) occupying 0.581757 of unit cell:	Completed after 8 iterations at t[s]:  14802.57
	Linear fluid (dielectric constant: 78.4, screening length: 8.12261 Bohr) occupying 0.581749 of unit cell:	Completed after 3 iterations at t[s]:  14832.59
	FillingsUpdate:  mu: -0.097800000  nElectrons: 495.180836  magneticMoment: [ Abs: 0.00000  Tot: -0.00000 ]
	SubspaceRotationAdjust: set factor to 0.494
ElecMinimize: Iter:  53  G: -5199.881758638724932  |grad|_K:  9.917e-08  alpha:  1.026e-01  linmin: -6.514e-05  t[s]:  14877.83
	Linear fluid (dielectric constant: 78.4, screening length: 8.12261 Bohr) occupying 0.581729 of unit cell:	Completed after 8 iterations at t[s]:  14919.05
	Linear fluid (dielectric constant: 78.4, screening length: 8.12261 Bohr) occupying 0.581729 of unit cell:	Completed after 0 iterations at t[s]:  14949.07
	FillingsUpdate:  mu: -0.097800000  nElectrons: 495.180421  magneticMoment: [ Abs: 0.00000  Tot: -0.00000 ]
	SubspaceRotationAdjust: set factor to 0.547
ElecMinimize: Iter:  54  G: -5199.881759206325114  |grad|_K:  8.664e-08  alpha:  1.034e-01  linmin: -3.293e-05  t[s]:  14994.40
	Linear fluid (dielectric constant: 78.4, screening length: 8.12261 Bohr) occupying 0.581733 of unit cell:	Completed after 11 iterations at t[s]:  15035.99
	Linear fluid (dielectric constant: 78.4, screening length: 8.12261 Bohr) occupying 0.581732 of unit cell:	Completed after 2 iterations at t[s]:  15065.75
	FillingsUpdate:  mu: -0.097800000  nElectrons: 495.180700  magneticMoment: [ Abs: 0.00000  Tot: -0.00000 ]
	SubspaceRotationAdjust: set factor to 0.486
[...]
force Cu   0.000000559260408   0.000316439062492  -0.000172522754626 1
force Cu   0.000003765487855   0.000163487343048   0.000383348100360 1
force Cu   0.000015821650861  -0.000180675067398   0.000224771689366 1
force Cu   0.000012772907752  -0.000020429364494   0.000371409864352 1
force Cu  -0.000031651431931  -0.000400355166213  -0.000326244752946 1
force Cu   0.000018227126952  -0.000490672186068   0.000205631546667 1
force Cu  -0.000015639536427  -0.000248469545823   0.000420636550322 1

# Energy components:
   A_diel =       -0.3645694325446756
   Eewald =    47546.4168365298755816
       EH =    52442.3699126751525910
     Eloc =  -106221.5538770336715970
      Enl =      952.1344619194289862
     EvdW =       -0.4012436066646123
      Exc =     -504.8486924209064455
 Exc_core =        1.2212575064989815
       KE =      536.8070643771347932
  MuShift =       -0.0994741632994307
-------------------------------------
     Etot =    -5248.3183236489903720
       TS =        0.0004806431506401
-------------------------------------
        F =    -5248.3188042921410670
      muN =      -48.4317590485298410
-------------------------------------
        G =    -5199.8870452436112828


Dumping 'jdft.fillings' ... done
Dumping 'jdft.wfns' ... done
Dumping 'jdft.fluidState' ... done
Dumping 'jdft.ionpos' ... done
Dumping 'jdft.lattice' ... done
Dumping 'jdft.eigenvals' ... done
Dumping 'jdft.eigStats' ... 
	eMin: -4.240481 at state 36 ( [ +0.000000 +0.000000 +0.000000 ] spin -1 )
	HOMO: -0.099096 at state 23 ( [ -0.444444 -0.250000 +0.000000 ] spin 1 )
	mu  : -0.097800
	LUMO: -0.097204 at state 51 ( [ +0.333333 -0.250000 +0.000000 ] spin -1 )
	eMax: +0.230608 at state 4 ( [ +0.111111 +0.000000 +0.000000 ] spin 1 )
	HOMO-LUMO gap: +0.001892
	Optical gap  : +0.003953 at state 62 ( [ -0.333333 +0.500000 +0.000000 ] spin -1 )
Dumping 'jdft.Ecomponents' ... done
IonicMinimize: Iter:   4  G: -5199.887045243611283  |grad|_K:  1.888e-04  alpha:  1.000e+00  linmin:  1.581e-01  t[s]:  35177.61

#--- Lowdin population analysis ---
# oxidation-state Cu -0.039 +0.071 +0.030 +0.074 +0.073 +0.076 +0.076 +0.076 +0.075 -0.015 -0.008 +0.050 -0.013 +0.050 +0.076 +0.075 +0.076 +0.076 +0.071 +0.073 +0.074 +0.030 -0.009 -0.015 -0.039 -0.012
# magnetic-moments Cu -0.000 -0.000 -0.000 +0.000 -0.000 -0.000 +0.000 -0.000 +0.000 -0.000 +0.000 +0.000 +0.000 +0.000 +0.000 +0.000 +0.000 +0.000 +0.000 -0.000 -0.000 -0.000 +0.000 -0.000 -0.000 +0.000


Computing DFT-D3 correction:
# coordination-number Cu 6.859 9.058 8.309 9.114 9.178 9.103 9.191 9.174 9.060 8.337 5.022 9.076 5.676 9.082 9.109 9.067 9.177 9.187 9.051 9.176 9.108 8.303 5.022 8.342 6.856 5.679
# diagonal-C6 Cu 175.00 175.00 175.00 175.00 175.00 175.00 175.00 175.00 175.00 175.00 175.00 175.00 175.00 175.00 175.00 175.00 175.00 175.00 175.00 175.00 175.00 175.00 175.00 175.00 175.00 175.00
EvdW_6 =   -0.161433
EvdW_8 =   -0.239826
Shifting auxilliary hamiltonian by -0.000007 to set nElectrons=495.212260

-------- Electronic minimization -----------
	Linear fluid (dielectric constant: 78.4, screening length: 8.12261 Bohr) occupying 0.585930 of unit cell:	Completed after 14 iterations at t[s]:  35222.43
	FillingsUpdate:  mu: -0.097800000  nElectrons: 495.212260  magneticMoment: [ Abs: 0.00000  Tot: -0.00000 ]
ElecMinimize: Iter:   0  G: -5199.887006573448161  |grad|_K:  4.489e-07  alpha:  1.000e+00
	Linear fluid (dielectric constant: 78.4, screening length: 8.12261 Bohr) occupying 0.586579 of unit cell:	Completed after 24 iterations at t[s]:  35317.96
	Linear fluid (dielectric constant: 78.4, screening length: 8.12261 Bohr) occupying 0.586004 of unit cell:	Completed after 21 iterations at t[s]:  35350.77
	FillingsUpdate:  mu: -0.097800000  nElectrons: 495.214959  magneticMoment: [ Abs: 0.00000  Tot: -0.00000 ]
	SubspaceRotationAdjust: set factor to 0.307
ElecMinimize: Iter:   1  G: -5199.887019380882521  |grad|_K:  3.663e-07  alpha:  1.148e-01  linmin: -2.049e-04  t[s]:  35395.66
	Linear fluid (dielectric constant: 78.4, screening length: 8.12261 Bohr) occupying 0.585908 of unit cell:	Completed after 15 iterations at t[s]:  35438.09
	Linear fluid (dielectric constant: 78.4, screening length: 8.12261 Bohr) occupying 0.585890 of unit cell:	Completed after 11 iterations at t[s]:  35469.18
	FillingsUpdate:  mu: -0.097800000  nElectrons: 495.210794  magneticMoment: [ Abs: 0.00000  Tot: -0.00000 ]
	SubspaceRotationAdjust: set factor to 0.225
ElecMinimize: Iter:   2  G: -5199.887029536755108  |grad|_K:  3.705e-07  alpha:  1.368e-01  linmin: -4.839e-05  t[s]:  35514.38
	Linear fluid (dielectric constant: 78.4, screening length: 8.12261 Bohr) occupying 0.585929 of unit cell:	Completed after 14 iterations at t[s]:  35556.72
	Linear fluid (dielectric constant: 78.4, screening length: 8.12261 Bohr) occupying 0.585931 of unit cell:	Completed after 2 iterations at t[s]:  35586.76
	FillingsUpdate:  mu: -0.097800000  nElectrons: 495.212297  magneticMoment: [ Abs: 0.00000  Tot: -0.00000 ]
	SubspaceRotationAdjust: set factor to 0.267
ElecMinimize: Iter:   3  G: -5199.887040429253830  |grad|_K:  2.351e-07  alpha:  1.440e-01  linmin: -3.001e-05  t[s]:  35632.09
	Linear fluid (dielectric constant: 78.4, screening length: 8.12261 Bohr) occupying 0.585956 of unit cell:	Completed after 13 iterations at t[s]:  35675.37
	Linear fluid (dielectric constant: 78.4, screening length: 8.12261 Bohr) occupying 0.585963 of unit cell:	Completed after 8 iterations at t[s]:  35706.19
	FillingsUpdate:  mu: -0.097800000  nElectrons: 495.213456  magneticMoment: [ Abs: 0.00000  Tot: -0.00000 ]
	SubspaceRotationAdjust: set factor to 0.26
ElecMinimize: Iter:   4  G: -5199.887046164900312  |grad|_K:  1.977e-07  alpha:  1.881e-01  linmin: -8.644e-05  t[s]:  35751.40
	Linear fluid (dielectric constant: 78.4, screening length: 8.12261 Bohr) occupying 0.585884 of unit cell:	Completed after 15 iterations at t[s]:  35793.95
	Linear fluid (dielectric constant: 78.4, screening length: 8.12261 Bohr) occupying 0.585915 of unit cell:	Completed after 12 iterations at t[s]:  35825.15
	FillingsUpdate:  mu: -0.097800000  nElectrons: 495.211698  magneticMoment: [ Abs: 0.00000  Tot: -0.00000 ]
	SubspaceRotationAdjust: set factor to 0.207
ElecMinimize: Iter:   5  G: -5199.887048638644956  |grad|_K:  1.548e-07  alpha:  1.145e-01  linmin:  1.860e-05  t[s]:  35870.63
	Linear fluid (dielectric constant: 78.4, screening length: 8.12261 Bohr) occupying 0.585928 of unit cell:	Completed after 10 iterations at t[s]:  35912.67
	Linear fluid (dielectric constant: 78.4, screening length: 8.12261 Bohr) occupying 0.585944 of unit cell:	Completed after 10 iterations at t[s]:  35944.22
	FillingsUpdate:  mu: -0.097800000  nElectrons: 495.212774  magneticMoment: [ Abs: 0.00000  Tot: -0.00000 ]
	SubspaceRotationAdjust: set factor to 0.214
ElecMinimize: Iter:   6  G: -5199.887051961546604  |grad|_K:  1.933e-07  alpha:  2.545e-01  linmin:  3.352e-05  t[s]:  35989.69
	Linear fluid (dielectric constant: 78.4, screening length: 8.12261 Bohr) occupying 0.585971 of unit cell:	Completed after 11 iterations at t[s]:  36031.81
	Linear fluid (dielectric constant: 78.4, screening length: 8.12261 Bohr) occupying 0.585960 of unit cell:	Completed after 8 iterations at t[s]:  36062.58
	FillingsUpdate:  mu: -0.097800000  nElectrons: 495.213361  magneticMoment: [ Abs: 0.00000  Tot: -0.00000 ]
	SubspaceRotationAdjust: set factor to 0.258
ElecMinimize: Iter:   7  G: -5199.887055075887474  |grad|_K:  1.037e-07  alpha:  1.528e-01  linmin:  1.112e-05  t[s]:  36107.91
	Linear fluid (dielectric constant: 78.4, screening length: 8.12261 Bohr) occupying 0.585931 of unit cell:	Completed after 12 iterations at t[s]:  36150.13
	Linear fluid (dielectric constant: 78.4, screening length: 8.12261 Bohr) occupying 0.585934 of unit cell:	Completed after 2 iterations at t[s]:  36180.13
	FillingsUpdate:  mu: -0.097800000  nElectrons: 495.212420  magneticMoment: [ Abs: 0.00000  Tot: -0.00000 ]
	SubspaceRotationAdjust: set factor to 0.23
ElecMinimize: Iter:   8  G: -5199.887055884059919  |grad|_K:  1.005e-07  alpha:  1.373e-01  linmin:  4.575e-05  t[s]:  36225.41
	Linear fluid (dielectric constant: 78.4, screening length: 8.12261 Bohr) occupying 0.585940 of unit cell:	Completed after 7 iterations at t[s]:  36267.15
	Linear fluid (dielectric constant: 78.4, screening length: 8.12261 Bohr) occupying 0.585943 of unit cell:	Completed after 7 iterations at t[s]:  36297.59
	FillingsUpdate:  mu: -0.097800000  nElectrons: 495.212729  magneticMoment: [ Abs: 0.00000  Tot: -0.00000 ]
	SubspaceRotationAdjust: set factor to 0.213
ElecMinimize: Iter:   9  G: -5199.887057190471751  |grad|_K:  1.024e-07  alpha:  2.349e-01  linmin: -8.440e-05  t[s]:  36342.75
	Linear fluid (dielectric constant: 78.4, screening length: 8.12261 Bohr) occupying 0.585931 of unit cell:	Completed after 7 iterations at t[s]:  36383.88
	Linear fluid (dielectric constant: 78.4, screening length: 8.12261 Bohr) occupying 0.585937 of unit cell:	Completed after 3 iterations at t[s]:  36413.98
	FillingsUpdate:  mu: -0.097800000  nElectrons: 495.212479  magneticMoment: [ Abs: 0.00000  Tot: +0.00000 ]
	SubspaceRotationAdjust: set factor to 0.251
ElecMinimize: Iter:  10  G: -5199.887057909302712  |grad|_K:  5.662e-08  alpha:  1.225e-01  linmin:  1.844e-05  t[s]:  36459.15
	Linear fluid (dielectric constant: 78.4, screening length: 8.12261 Bohr) occupying 0.585933 of unit cell:	Completed after 3 iterations at t[s]:  36500.15
	Linear fluid (dielectric constant: 78.4, screening length: 8.12261 Bohr) occupying 0.585930 of unit cell:	Completed after 6 iterations at t[s]:  36530.48
	FillingsUpdate:  mu: -0.097800000  nElectrons: 495.212209  magneticMoment: [ Abs: 0.00000  Tot: -0.00000 ]
	SubspaceRotationAdjust: set factor to 0.252
ElecMinimize: Iter:  11  G: -5199.887058300821991  |grad|_K:  5.963e-08  alpha:  2.280e-01  linmin:  1.894e-04  t[s]:  36576.12
	Linear fluid (dielectric constant: 78.4, screening length: 8.12261 Bohr) occupying 0.585949 of unit cell:	Completed after 11 iterations at t[s]:  36617.95
	Linear fluid (dielectric constant: 78.4, screening length: 8.12261 Bohr) occupying 0.585942 of unit cell:	Completed after 5 iterations at t[s]:  36648.35
	FillingsUpdate:  mu: -0.097800000  nElectrons: 495.212638  magneticMoment: [ Abs: 0.00000  Tot: +0.00000 ]
	SubspaceRotationAdjust: set factor to 0.214
ElecMinimize: Iter:  12  G: -5199.887058571302987  |grad|_K:  4.595e-08  alpha:  1.406e-01  linmin:  1.288e-04  t[s]:  36693.70
	Linear fluid (dielectric constant: 78.4, screening length: 8.12261 Bohr) occupying 0.585937 of unit cell:	Completed after 7 iterations at t[s]:  36735.36
	Linear fluid (dielectric constant: 78.4, screening length: 8.12261 Bohr) occupying 0.585936 of unit cell:	Completed after 0 iterations at t[s]:  36765.07
	FillingsUpdate:  mu: -0.097800000  nElectrons: 495.212418  magneticMoment: [ Abs: 0.00000  Tot: +0.00000 ]
	SubspaceRotationAdjust: set factor to 0.2
ElecMinimize: Iter:  13  G: -5199.887058769491887  |grad|_K:  3.461e-08  alpha:  1.715e-01  linmin: -6.144e-04  t[s]:  36810.44
	Linear fluid (dielectric constant: 78.4, screening length: 8.12261 Bohr) occupying 0.585936 of unit cell:	Completed after 2 iterations at t[s]:  36851.90
	Linear fluid (dielectric constant: 78.4, screening length: 8.12261 Bohr) occupying 0.585936 of unit cell:	Completed after 0 iterations at t[s]:  36881.82
	FillingsUpdate:  mu: -0.097800000  nElectrons: 495.212434  magneticMoment: [ Abs: 0.00000  Tot: -0.00000 ]
	SubspaceRotationAdjust: set factor to 0.228
ElecMinimize: Iter:  14  G: -5199.887058870935107  |grad|_K:  2.742e-08  alpha:  1.438e-01  linmin:  1.850e-04  t[s]:  36927.28
	Linear fluid (dielectric constant: 78.4, screening length: 8.12261 Bohr) occupying 0.585942 of unit cell:	Completed after 3 iterations at t[s]:  36968.39
	Linear fluid (dielectric constant: 78.4, screening length: 8.12261 Bohr) occupying 0.585941 of unit cell:	Completed after 0 iterations at t[s]:  36998.07
	FillingsUpdate:  mu: -0.097800000  nElectrons: 495.212604  magneticMoment: [ Abs: 0.00000  Tot: +0.00000 ]
	SubspaceRotationAdjust: set factor to 0.21
ElecMinimize: Iter:  15  G: -5199.887058920908203  |grad|_K:  2.280e-08  alpha:  1.231e-01  linmin:  3.608e-04  t[s]:  37043.16
	Linear fluid (dielectric constant: 78.4, screening length: 8.12261 Bohr) occupying 0.585940 of unit cell:	Completed after 2 iterations at t[s]:  37084.35
	Linear fluid (dielectric constant: 78.4, screening length: 8.12261 Bohr) occupying 0.585940 of unit cell:	Completed after 0 iterations at t[s]:  37114.17
	FillingsUpdate:  mu: -0.097800000  nElectrons: 495.212563  magneticMoment: [ Abs: 0.00000  Tot: -0.00000 ]
	SubspaceRotationAdjust: set factor to 0.264
ElecMinimize: Iter:  16  G: -5199.887058962459378  |grad|_K:  1.539e-08  alpha:  1.482e-01  linmin: -1.235e-03  t[s]:  37159.51
ElecMinimize: Converged (|Delta G|<1.000000e-07 for 2 iters).
Setting wave functions to eigenvectors of Hamiltonian
Converging empty states (this may take a while): |deigs|: 1.516e-08

Computing DFT-D3 correction:
# coordination-number Cu 6.859 9.058 8.309 9.114 9.178 9.103 9.191 9.174 9.060 8.337 5.022 9.076 5.676 9.082 9.109 9.067 9.177 9.187 9.051 9.176 9.108 8.303 5.022 8.342 6.856 5.679
# diagonal-C6 Cu 175.00 175.00 175.00 175.00 175.00 175.00 175.00 175.00 175.00 175.00 175.00 175.00 175.00 175.00 175.00 175.00 175.00 175.00 175.00 175.00 175.00 175.00 175.00 175.00 175.00 175.00
EvdW_6 =   -0.161433
EvdW_8 =   -0.239826

# Ionic positions in cartesian coordinates:
ion Cu   0.001040138444275   9.325284884627148  22.053809026980066 1
ion Cu  -0.002814214555515   3.743972191924505  18.186791199167121 1
ion Cu   3.368338190179911   6.574748689986137  20.223265408825736 1
ion Cu   3.369825690403403   0.943571935960505  16.365395768893684 1
ion Cu  -0.001234286384052   7.477434966296868  12.612421586088752 1
ion Cu   0.000843959536865   1.858298678072714   8.860991675883522 1
ion Cu   3.371407945530366  10.281982392776237  14.478409102229064 1
ion Cu   3.370824776311637   4.673460162974145  10.774680455589269 1
ion Cu   0.001773110453958  11.223884032267684   7.011053044446478 1
ion Cu   0.002431799438515   5.585297787421742   3.195701915546981 1
ion Cu   0.000221747228518  -0.004366103271931  23.631630170176244 1
ion Cu   3.371710464779767   8.440663367265783   5.191798863513153 1
ion Cu   3.370683763160867   2.809445710888952   1.490697982015671 1
ion Cu   3.370753563382729  11.190062242207656  19.113153910406659 1
ion Cu   3.368778974892117   5.620450597812312  15.445572904866154 1
ion Cu  -0.000673613899532   8.407378623541538  17.294351795346284 1
ion Cu  -0.001698037899512   2.805311071517813  13.532678916396980 1
ion Cu   3.371058298105848   9.349284967004108   9.828742732367909 1
ion Cu   3.371746877721339   3.734324381351122   6.118245398963535 1
ion Cu   3.372197026384145   0.001511968953449  11.694810431740448 1
ion Cu   0.000448722080368   6.535016144969736   7.940918020161666 1
ion Cu   0.002171142326018   0.903539869183951   4.080179710469811 1
ion Cu   3.370964329616574   7.482844942324578   0.671868371731624 1
ion Cu   3.367145510445395   1.893130809910184  21.107769471639106 1
ion Cu   0.000546440665306  10.305240863667537   2.249454761225931 1
ion Cu  -0.001839318349309   4.668858820365532  22.811883375328126 1

# Forces in Cartesian coordinates:
force Cu  -0.000019702762798   0.000118076595286  -0.000088995412768 1
force Cu  -0.000012423637024   0.000072394059726  -0.000023218390196 1
force Cu  -0.000015397453194   0.000005641266708   0.000009534894662 1
force Cu  -0.000010617298271  -0.000006453800024  -0.000230263554185 1
force Cu   0.000002013738209  -0.000024872796500   0.000062476954567 1
force Cu   0.000009726309712  -0.000028315514061  -0.000146554016731 1
force Cu  -0.000003482960402   0.000024186036184  -0.000028033919642 1
force Cu   0.000000518731246   0.000004493701237  -0.000032491810612 1
force Cu   0.000014993241330  -0.000078042181893  -0.000074221933514 1
force Cu   0.000022095906857   0.000117559901549   0.000418661494873 1
force Cu  -0.000014840550743   0.000032719213778  -0.000131234334460 1
force Cu   0.000012865787379  -0.000070929336099   0.000114705611303 1
force Cu   0.000020759440154   0.000126995823086   0.000073201333394 1
force Cu  -0.000015189213823   0.000068749509680  -0.000133348890884 1
force Cu  -0.000005570029949   0.000019762740436   0.000078256377410 1
force Cu  -0.000012631825779   0.000061855482493   0.000046533287560 1
force Cu  -0.000003252210732  -0.000008293812057  -0.000086250813831 1
force Cu   0.000006256399848  -0.000027422932056  -0.000072153930448 1
force Cu   0.000017340300399  -0.000069289524360   0.000002507572279 1
force Cu   0.000001751335358   0.000011620980876  -0.000156560315325 1
force Cu   0.000007684409988   0.000016035045967   0.000182241090599 1
force Cu   0.000019604825904  -0.000009260473162   0.000055745382294 1
force Cu   0.000017830483813  -0.000035805615615   0.000242548075417 1
force Cu  -0.000019282668106  -0.000104945472754  -0.000330190827581 1
force Cu   0.000019405654500  -0.000113477281242   0.000199262175726 1
force Cu  -0.000019497683668  -0.000115840866388   0.000067694842110 1

# Energy components:
   A_diel =       -0.3646731500013063
   Eewald =    47549.3277205642807530
       EH =    52445.3122418785278569
     Eloc =  -106227.4073347158991965
      Enl =      952.1349499103553171
     EvdW =       -0.4012590478058926
      Exc =     -504.8487288705970286
 Exc_core =        1.2212570712892512
       KE =      536.8069579799849862
  MuShift =       -0.0994990120547406
-------------------------------------
     Etot =    -5248.3183673919311332
       TS =        0.0004802352385117
-------------------------------------
        F =    -5248.3188476271698164
      muN =      -48.4317886647104530
-------------------------------------
        G =    -5199.8870589624593777


Dumping 'jdft.fillings' ... done
Dumping 'jdft.wfns' ... done
Dumping 'jdft.fluidState' ... done
Dumping 'jdft.ionpos' ... done
Dumping 'jdft.lattice' ... done
Dumping 'jdft.eigenvals' ... done
Dumping 'jdft.eigStats' ... 
	eMin: -4.240477 at state 36 ( [ +0.000000 +0.000000 +0.000000 ] spin -1 )
	HOMO: -0.099105 at state 53 ( [ +0.444444 +0.250000 +0.000000 ] spin -1 )
	mu  : -0.097800
	LUMO: -0.097175 at state 15 ( [ +0.333333 -0.250000 +0.000000 ] spin 1 )
	eMax: +0.230605 at state 4 ( [ +0.111111 +0.000000 +0.000000 ] spin 1 )
	HOMO-LUMO gap: +0.001930
	Optical gap  : +0.003936 at state 26 ( [ -0.333333 +0.500000 +0.000000 ] spin 1 )
Dumping 'jdft.Ecomponents' ... done
IonicMinimize: Iter:   5  G: -5199.887058962459378  |grad|_K:  9.735e-05  alpha:  1.000e+00  linmin: -6.948e-01  t[s]:  37278.22
IonicMinimize: Converged (|grad|_K<1.000000e-04).

#--- Lowdin population analysis ---
# oxidation-state Cu -0.039 +0.071 +0.030 +0.074 +0.073 +0.076 +0.076 +0.076 +0.075 -0.015 -0.009 +0.050 -0.013 +0.050 +0.076 +0.075 +0.076 +0.076 +0.071 +0.073 +0.074 +0.030 -0.009 -0.015 -0.039 -0.012
# magnetic-moments Cu +0.000 +0.000 -0.000 +0.000 -0.000 +0.000 -0.000 +0.000 +0.000 -0.000 +0.000 -0.000 -0.000 -0.000 -0.000 +0.000 +0.000 -0.000 +0.000 +0.000 +0.000 -0.000 -0.000 -0.000 +0.000 -0.000


Dumping 'jdft.n_up' ... done
Dumping 'jdft.n_dn' ... done
Dumping 'jdft.tau_up' ... done
Dumping 'jdft.tau_dn' ... done
Dumping 'jdft.eigenvals' ... done
Dumping 'jdft.eigStats' ... 
	eMin: -4.240477 at state 36 ( [ +0.000000 +0.000000 +0.000000 ] spin -1 )
	HOMO: -0.099105 at state 53 ( [ +0.444444 +0.250000 +0.000000 ] spin -1 )
	mu  : -0.097800
	LUMO: -0.097175 at state 15 ( [ +0.333333 -0.250000 +0.000000 ] spin 1 )
	eMax: +0.230605 at state 4 ( [ +0.111111 +0.000000 +0.000000 ] spin 1 )
	HOMO-LUMO gap: +0.001930
	Optical gap  : +0.003936 at state 26 ( [ -0.333333 +0.500000 +0.000000 ] spin 1 )
Dumping 'jdft.kPts' ... done
Dumping 'jdft.dosUp' ... done.
Dumping 'jdft.dosDn' ... done.
End date and time: Tue Dec  7 02:15:27 2021  (Duration: 0-10:22:26.96)
Done!
