
*************** JDFTx 1.6.0  ***************

Start date and time: Mon Dec  6 15:25:57 2021
Executable /projects/musgravc/apps/jdftx-1.6.1/build/jdftx with command-line: -i in
Running on hosts (process indices):  shas0209.rc.int.colorado.edu (0-23)
Divided in process groups (process indices):  0 (0)  1 (1)  2 (2)  3 (3)  4 (4)  5 (5)  6 (6)  7 (7)  8 (8)  9 (9)  10 (10)  11 (11)  12 (12)  13 (13)  14 (14)  15 (15)  16 (16)  17 (17)  18 (18)  19 (19)  20 (20)  21 (21)  22 (22)  23 (23)
Resource initialization completed at t[s]:      0.00
Run totals: 24 processes, 24 threads, 0 GPUs


Input parsed successfully to the following command list (including defaults):

basis kpoint-dependent
converge-empty-states yes
coords-type Cartesian
core-overlap-check none
coulomb-interaction Periodic
davidson-band-ratio 1.1
density-of-states Etol 1.000000e-06 Esigma 1.000000e-03 \
		Complete \
	Total \
	OrthoOrbital Cu 1   s \
	OrthoOrbital Cu 1   p \
	OrthoOrbital Cu 1   px \
	OrthoOrbital Cu 1   py \
	OrthoOrbital Cu 1   pz \
	OrthoOrbital Cu 1   d \
	OrthoOrbital Cu 1   dxy \
	OrthoOrbital Cu 1   dyz \
	OrthoOrbital Cu 1   dz2 \
	OrthoOrbital Cu 1   dxz \
	OrthoOrbital Cu 1   dx2-y2 \
	OrthoOrbital Cu 2   s \
	OrthoOrbital Cu 2   p \
	OrthoOrbital Cu 2   px \
	OrthoOrbital Cu 2   py \
	OrthoOrbital Cu 2   pz \
	OrthoOrbital Cu 2   d \
	OrthoOrbital Cu 2   dxy \
	OrthoOrbital Cu 2   dyz \
	OrthoOrbital Cu 2   dz2 \
	OrthoOrbital Cu 2   dxz \
	OrthoOrbital Cu 2   dx2-y2 \
	OrthoOrbital Cu 3   s \
	OrthoOrbital Cu 3   p \
	OrthoOrbital Cu 3   px \
	OrthoOrbital Cu 3   py \
	OrthoOrbital Cu 3   pz \
	OrthoOrbital Cu 3   d \
	OrthoOrbital Cu 3   dxy \
	OrthoOrbital Cu 3   dyz \
	OrthoOrbital Cu 3   dz2 \
	OrthoOrbital Cu 3   dxz \
	OrthoOrbital Cu 3   dx2-y2 \
	OrthoOrbital Cu 4   s \
	OrthoOrbital Cu 4   p \
	OrthoOrbital Cu 4   px \
	OrthoOrbital Cu 4   py \
	OrthoOrbital Cu 4   pz \
	OrthoOrbital Cu 4   d \
	OrthoOrbital Cu 4   dxy \
	OrthoOrbital Cu 4   dyz \
	OrthoOrbital Cu 4   dz2 \
	OrthoOrbital Cu 4   dxz \
	OrthoOrbital Cu 4   dx2-y2 \
	OrthoOrbital Cu 5   s \
	OrthoOrbital Cu 5   p \
	OrthoOrbital Cu 5   px \
	OrthoOrbital Cu 5   py \
	OrthoOrbital Cu 5   pz \
	OrthoOrbital Cu 5   d \
	OrthoOrbital Cu 5   dxy \
	OrthoOrbital Cu 5   dyz \
	OrthoOrbital Cu 5   dz2 \
	OrthoOrbital Cu 5   dxz \
	OrthoOrbital Cu 5   dx2-y2 \
	OrthoOrbital Cu 6   s \
	OrthoOrbital Cu 6   p \
	OrthoOrbital Cu 6   px \
	OrthoOrbital Cu 6   py \
	OrthoOrbital Cu 6   pz \
	OrthoOrbital Cu 6   d \
	OrthoOrbital Cu 6   dxy \
	OrthoOrbital Cu 6   dyz \
	OrthoOrbital Cu 6   dz2 \
	OrthoOrbital Cu 6   dxz \
	OrthoOrbital Cu 6   dx2-y2 \
	OrthoOrbital Cu 7   s \
	OrthoOrbital Cu 7   p \
	OrthoOrbital Cu 7   px \
	OrthoOrbital Cu 7   py \
	OrthoOrbital Cu 7   pz \
	OrthoOrbital Cu 7   d \
	OrthoOrbital Cu 7   dxy \
	OrthoOrbital Cu 7   dyz \
	OrthoOrbital Cu 7   dz2 \
	OrthoOrbital Cu 7   dxz \
	OrthoOrbital Cu 7   dx2-y2 \
	OrthoOrbital Cu 8   s \
	OrthoOrbital Cu 8   p \
	OrthoOrbital Cu 8   px \
	OrthoOrbital Cu 8   py \
	OrthoOrbital Cu 8   pz \
	OrthoOrbital Cu 8   d \
	OrthoOrbital Cu 8   dxy \
	OrthoOrbital Cu 8   dyz \
	OrthoOrbital Cu 8   dz2 \
	OrthoOrbital Cu 8   dxz \
	OrthoOrbital Cu 8   dx2-y2
dump End ElecDensity KEdensity BandEigs EigStats RhoAtom DOS Kpoints
dump Ionic State IonicPositions Lattice EigStats Ecomponents
dump 
dump 
dump 
dump 
dump 
dump 
dump 
dump 
dump-name jdft.$VAR
elec-cutoff 20
elec-eigen-algo Davidson
elec-ex-corr gga-PBE
elec-initial-magnetization 0.000000 no
elec-n-bands 92
elec-smearing Fermi 0.001
electronic-minimize  \
	dirUpdateScheme      FletcherReeves \
	linminMethod         DirUpdateRecommended \
	nIterations          100 \
	history              15 \
	knormThreshold       0 \
	energyDiffThreshold  1e-07 \
	nEnergyDiff          2 \
	alphaTstart          1 \
	alphaTmin            1e-10 \
	updateTestStepSize   yes \
	alphaTreduceFactor   0.1 \
	alphaTincreaseFactor 3 \
	nAlphaAdjustMax      3 \
	wolfeEnergy          0.0001 \
	wolfeGradient        0.9 \
	fdTest               no
exchange-regularization WignerSeitzTruncated
fluid LinearPCM 298.000000 1.013250
fluid-anion F- 0.5 MeanFieldLJ \
	epsBulk 1 \
	pMol 0 \
	epsInf 1 \
	Pvap 0 \
	sigmaBulk 0 \
	Rvdw 2.24877 \
	Res 0 \
	tauNuc 343133
fluid-cation Na+ 0.5 MeanFieldLJ \
	epsBulk 1 \
	pMol 0 \
	epsInf 1 \
	Pvap 0 \
	sigmaBulk 0 \
	Rvdw 2.19208 \
	Res 0 \
	tauNuc 343133
fluid-ex-corr lda-TF lda-PZ
fluid-gummel-loop 10 1.000000e-05
fluid-minimize  \
	dirUpdateScheme      PolakRibiere \
	linminMethod         DirUpdateRecommended \
	nIterations          400 \
	history              15 \
	knormThreshold       1e-11 \
	energyDiffThreshold  0 \
	nEnergyDiff          2 \
	alphaTstart          1 \
	alphaTmin            1e-10 \
	updateTestStepSize   yes \
	alphaTreduceFactor   0.1 \
	alphaTincreaseFactor 3 \
	nAlphaAdjustMax      6 \
	wolfeEnergy          0.0001 \
	wolfeGradient        0.9 \
	fdTest               no
fluid-solvent H2O 55.338 ScalarEOS \
	epsBulk 78.4 \
	pMol 0.92466 \
	epsInf 1.77 \
	Pvap 1.06736e-10 \
	sigmaBulk 4.62e-05 \
	Rvdw 2.61727 \
	Res 1.42 \
	tauNuc 343133 \
	poleEl 15 7 1
forces-output-coords Positions
ion Cu   4.766623000000000   6.741023000000000  44.091266999999995 1
ion Cu   0.000000000000000   6.741023000000000  39.324643000000002 1
ion Cu   2.383311000000000   3.370512000000000  46.474578999999991 1
ion Cu   2.383311000000000   3.370512000000000  41.707954999999998 1
ion Cu   0.000000000000000   0.000000000000000  34.558019999999992 1
ion Cu   0.000000000000000   0.000000000000000  29.791396999999996 1
ion Cu   2.383311000000000   3.370512000000000  36.941332000000003 1
ion Cu   2.383311000000000   3.370512000000000  32.174708000000003 1
ion-species /projects/musgravc/apps/jdftx-1.6.0/build/pseudopotentials/GBRV_v1.5/$ID_pbe_v1.uspp
ion-species /projects/musgravc/apps/jdftx-1.6.0/build/pseudopotentials/GBRV_v1.5/$ID_pbe_v1.2.uspp
ion-species /projects/musgravc/apps/jdftx-1.6.0/build/pseudopotentials/GBRV_v1.5/$ID_pbe_v1.4.uspp
ion-species /projects/musgravc/apps/jdftx-1.6.0/build/pseudopotentials/GBRV_v1.5/$ID_pbe_v1.5.uspp
ion-width Ecut
ionic-minimize  \
	dirUpdateScheme      L-BFGS \
	linminMethod         DirUpdateRecommended \
	nIterations          100 \
	history              15 \
	knormThreshold       0.0001 \
	energyDiffThreshold  1e-06 \
	nEnergyDiff          2 \
	alphaTstart          1 \
	alphaTmin            1e-10 \
	updateTestStepSize   yes \
	alphaTreduceFactor   0.1 \
	alphaTincreaseFactor 3 \
	nAlphaAdjustMax      3 \
	wolfeEnergy          0.0001 \
	wolfeGradient        0.9 \
	fdTest               no
kpoint   0.000000000000   0.000000000000   0.000000000000  1.00000000000000
kpoint-folding 12 8 1 
latt-move-scale 0 0 0
latt-scale 1 1 1 
lattice  \
	   4.766623000000000    0.000000000000000    0.000000000000000  \
	   0.000000000000000    6.741023000000000    0.000000000000000  \
	  -0.000000000000000    0.000000000000000   47.666234000000003 
lattice-minimize  \
	dirUpdateScheme      L-BFGS \
	linminMethod         DirUpdateRecommended \
	nIterations          0 \
	history              15 \
	knormThreshold       0 \
	energyDiffThreshold  1e-06 \
	nEnergyDiff          2 \
	alphaTstart          1 \
	alphaTmin            1e-10 \
	updateTestStepSize   yes \
	alphaTreduceFactor   0.1 \
	alphaTincreaseFactor 3 \
	nAlphaAdjustMax      3 \
	wolfeEnergy          0.0001 \
	wolfeGradient        0.9 \
	fdTest               no
lcao-params 30 1e-06 0.001
pcm-variant CANDLE
spintype z-spin
subspace-rotation-factor 1 yes
symmetries none
symmetry-threshold 0.0001
van-der-waals D3


Applied RMS atom displacement 0 bohrs to make symmetries exact.

---------- Initializing the Grid ----------
R = 
[      4.76662            0            0  ]
[            0      6.74102            0  ]
[            0            0      47.6662  ]
unit cell volume = 1531.61
G =
[    1.31816          0          0  ]
[         -0   0.932082          0  ]
[          0         -0   0.131816  ]
Minimum fftbox size, Smin = [  20  28  192  ]
Chosen fftbox size, S = [  20  28  192  ]

---------- Exchange Correlation functional ----------
Initalized PBE GGA exchange.
Initalized PBE GGA correlation.

---------- Setting up pseudopotentials ----------
Width of ionic core gaussian charges (only for fluid interactions / plotting) set to 0.397384

Reading pseudopotential file '/projects/musgravc/apps/jdftx-1.6.0/build/pseudopotentials/GBRV_v1.5/cu_pbe_v1.2.uspp':
  Title: Cu.  Created by USPP 7.3.6 on 3-2-2014
  Reference state energy: -201.059491.  19 valence electrons in orbitals:
    |300>  occupation: 2  eigenvalue: -5.020764
    |310>  occupation: 6  eigenvalue: -3.445588
    |320>  occupation: 8  eigenvalue: -0.925168
    |400>  occupation: 2  eigenvalue: -0.567638
    |410>  occupation: 0  eigenvalue: -0.326154
  lMax: 2  lLocal: 3  QijEcut: 6
  6 projectors sampled on a log grid with 613 points:
    l: 0  eig: -5.020767  rCut: 1.4
    l: 0  eig: -0.567640  rCut: 1.4
    l: 1  eig: -3.445589  rCut: 1.55
    l: 1  eig: -0.326157  rCut: 1.55
    l: 2  eig: -0.925170  rCut: 1.5
    l: 2  eig: 1.500000  rCut: 1.5
  Partial core density with radius 0.8
  Transforming core density to a uniform radial grid of dG=0.02 with 1128 points.
  Transforming local potential to a uniform radial grid of dG=0.02 with 1128 points.
  Transforming nonlocal projectors to a uniform radial grid of dG=0.02 with 432 points.
  Transforming density augmentations to a uniform radial grid of dG=0.02 with 1128 points.
  Transforming atomic orbitals to a uniform radial grid of dG=0.02 with 432 points.
  Core radius for overlap checks: 1.55 bohrs.

Initialized 1 species with 8 total atoms.

Folded 1 k-points by 12x8x1 to 96 k-points.

---------- Setting up k-points, bands, fillings ----------
No reducable k-points. 
Computing the number of bands and number of electrons
Calculating initial fillings.
nElectrons: 152.000000   nBands: 92   nStates: 192

----- Setting up reduced wavefunction bases (one per k-point) -----
average nbasis = 6542.969 , ideal nbasis = 6543.143

----- Initializing Supercell corresponding to k-point mesh -----
Lattice vector linear combinations in supercell:
[  12   0   0  ]
[   0   8   0  ]
[   0   0   1  ]
Supercell lattice vectors:
[  57.1995  0  0  ]
[  0  53.9282  0  ]
[  0  0  47.6662  ]

Initializing DFT-D3 calculator:
	Parameters set for gga-PBE functional
	s6:  1.000  s_r6:  1.217
	s8:  0.722  s_r8:  1.000
	Per-atom parameters loaded for:
	Cu:  sqrtQ[a0]:  5.226  Rcov[a0]:  1.909  CN: [ 0.00 0.96 ]

Initializing DFT-D2 calculator for fluid / solvation:
	Cu:  C6:  187.33 Eh-a0^6  R0: 2.952 a0

---------- Setting up ewald sum ----------
Optimum gaussian width for ewald sums = 3.251703 bohr.
Real space sum over 1105 unit cells with max indices [  8  6  2  ]
Reciprocal space sum over 4851 terms with max indices [  4  5  24  ]

Computing DFT-D3 correction:
# coordination-number Cu 8.354 9.157 5.354 9.147 9.147 5.354 9.157 8.354
# diagonal-C6 Cu 175.00 175.00 175.00 175.00 175.00 175.00 175.00 175.00
EvdW_6 =   -0.045710
EvdW_8 =   -0.069700

---------- Allocating electronic variables ----------
Initializing wave functions:  linear combination of atomic orbitals
Cu pseudo-atom occupations:   s ( 2 1 )  p ( 6 0 )  d ( 10 )
	FillingsUpdate:  mu: -4.270580923  nElectrons: 152.000000  magneticMoment: [ Abs: 0.10288  Tot: +0.00216 ]
LCAOMinimize: Iter:   0  F: -1567.3912470641328127  |grad|_K:  3.217e-02  alpha:  1.000e+00
LCAOMinimize: 	Step increased F by 2.529106e+02, reducing alpha to 4.431932e-02.
LCAOMinimize: 	Step increased F by 3.140598e+01, reducing alpha to 4.431932e-03.
	FillingsUpdate:  mu: -3.228570933  nElectrons: 152.000000  magneticMoment: [ Abs: 0.10693  Tot: +0.00041 ]
LCAOMinimize: Iter:   1  F: -1575.3538907503409519  |grad|_K:  1.820e-02  alpha:  4.432e-03  linmin: -1.869e-01  cgtest:  8.739e-01  t[s]:     26.52
LCAOMinimize: Encountered beta<0, resetting CG.
	FillingsUpdate:  mu: -2.432293721  nElectrons: 152.000000  magneticMoment: [ Abs: 0.11786  Tot: -0.00426 ]
LCAOMinimize: Iter:   2  F: -1579.3866307662231065  |grad|_K:  1.056e-02  alpha:  1.002e-02  linmin: -1.212e-01  cgtest:  2.961e-01  t[s]:     33.15
LCAOMinimize: 	Wrong curvature in test step, increasing alphaT to 3.006897e-02.
	FillingsUpdate:  mu: -2.207081061  nElectrons: 152.000000  magneticMoment: [ Abs: 0.12339  Tot: -0.02579 ]
LCAOMinimize: Iter:   3  F: -1582.4767761302537110  |grad|_K:  1.208e-02  alpha: -3.114e-02  linmin: -2.038e-01  cgtest:  8.204e-01  t[s]:     39.70
	FillingsUpdate:  mu: +1.966053106  nElectrons: 152.000000  magneticMoment: [ Abs: 0.00184  Tot: +0.00145 ]
LCAOMinimize: Iter:   4  F: -1604.5300396027982970  |grad|_K:  2.563e-03  alpha:  5.204e-01  linmin:  4.689e-02  cgtest: -3.540e+00  t[s]:     46.27
	FillingsUpdate:  mu: +1.771771767  nElectrons: 152.000000  magneticMoment: [ Abs: 0.00132  Tot: -0.00026 ]
LCAOMinimize: Iter:   5  F: -1604.7394222973084652  |grad|_K:  2.230e-03  alpha:  9.556e-02  linmin: -1.051e-02  cgtest:  9.290e-01  t[s]:     52.81
LCAOMinimize: Encountered beta<0, resetting CG.
LCAOMinimize: 	Wrong curvature in test step, increasing alphaT to 2.866711e-01.
	FillingsUpdate:  mu: +1.607109439  nElectrons: 152.000000  magneticMoment: [ Abs: 0.00168  Tot: -0.00079 ]
LCAOMinimize: Iter:   6  F: -1605.7912551079352852  |grad|_K:  2.112e-03  alpha: -1.047e+00  linmin: -9.524e-02  cgtest:  8.454e-01  t[s]:     60.03
	FillingsUpdate:  mu: +1.569214897  nElectrons: 152.000000  magneticMoment: [ Abs: 0.00156  Tot: -0.00042 ]
LCAOMinimize: Iter:   7  F: -1606.0875469681493541  |grad|_K:  2.108e-03  alpha:  2.739e-02  linmin: -6.884e-02  cgtest:  9.504e-01  t[s]:     67.41
LCAOMinimize: 	Wrong curvature in test step, increasing alphaT to 8.217075e-02.
	FillingsUpdate:  mu: +1.531305005  nElectrons: 152.000000  magneticMoment: [ Abs: 0.00159  Tot: -0.00082 ]
LCAOMinimize: Iter:   8  F: -1606.3607529112628072  |grad|_K:  2.075e-03  alpha: -2.864e+00  linmin: -1.175e-01  cgtest:  9.679e-01  t[s]:     73.75
	FillingsUpdate:  mu: +1.490847826  nElectrons: 152.000000  magneticMoment: [ Abs: 0.00132  Tot: -0.00032 ]
LCAOMinimize: Iter:   9  F: -1606.6478528952693523  |grad|_K:  2.067e-03  alpha:  3.031e-02  linmin: -1.096e-01  cgtest:  9.552e-01  t[s]:     80.32
LCAOMinimize: 	Wrong curvature in test step, increasing alphaT to 9.094421e-02.
	FillingsUpdate:  mu: +1.450434308  nElectrons: 152.000000  magneticMoment: [ Abs: 0.00145  Tot: -0.00057 ]
LCAOMinimize: Iter:  10  F: -1606.9431243230164910  |grad|_K:  2.086e-03  alpha: -4.724e-01  linmin: -6.559e-02  cgtest:  9.419e-01  t[s]:     86.67
	FillingsUpdate:  mu: +1.403424981  nElectrons: 152.000000  magneticMoment: [ Abs: 0.00175  Tot: -0.00120 ]
LCAOMinimize: Iter:  11  F: -1607.2885009475644438  |grad|_K:  2.068e-03  alpha:  3.421e-02  linmin: -1.109e-01  cgtest:  9.510e-01  t[s]:     93.39
LCAOMinimize: 	Wrong curvature in test step, increasing alphaT to 1.026348e-01.
	FillingsUpdate:  mu: +1.360217000  nElectrons: 152.000000  magneticMoment: [ Abs: 0.00159  Tot: -0.00098 ]
LCAOMinimize: Iter:  12  F: -1607.6211997619127487  |grad|_K:  2.070e-03  alpha: -6.075e-01  linmin: -1.010e-01  cgtest:  9.429e-01  t[s]:    100.00
	FillingsUpdate:  mu: +1.315669404  nElectrons: 152.000000  magneticMoment: [ Abs: 0.00150  Tot: -0.00086 ]
LCAOMinimize: Iter:  13  F: -1607.9835217933675722  |grad|_K:  2.070e-03  alpha:  3.631e-02  linmin: -1.199e-01  cgtest:  9.383e-01  t[s]:    106.60
LCAOMinimize: 	Wrong curvature in test step, increasing alphaT to 1.089406e-01.
	FillingsUpdate:  mu: +1.269766782  nElectrons: 152.000000  magneticMoment: [ Abs: 0.00139  Tot: -0.00073 ]
LCAOMinimize: Iter:  14  F: -1608.3463958136235306  |grad|_K:  2.065e-03  alpha: -5.983e-01  linmin: -1.445e-01  cgtest:  9.379e-01  t[s]:    112.97
	FillingsUpdate:  mu: +1.218315407  nElectrons: 152.000000  magneticMoment: [ Abs: 0.00125  Tot: -0.00049 ]
LCAOMinimize: Iter:  15  F: -1608.7521279533075358  |grad|_K:  2.062e-03  alpha:  4.056e-02  linmin: -1.645e-01  cgtest:  9.263e-01  t[s]:    119.54
LCAOMinimize: 	Wrong curvature in test step, increasing alphaT to 1.216727e-01.
	FillingsUpdate:  mu: +1.173038549  nElectrons: 152.000000  magneticMoment: [ Abs: 0.00122  Tot: -0.00043 ]
LCAOMinimize: Iter:  16  F: -1609.1635285092825143  |grad|_K:  2.060e-03  alpha: -4.943e-01  linmin: -1.367e-01  cgtest:  9.196e-01  t[s]:    126.23
	FillingsUpdate:  mu: +1.107018907  nElectrons: 152.000000  magneticMoment: [ Abs: 0.00112  Tot: +0.00014 ]
LCAOMinimize: Iter:  17  F: -1609.7296320465470671  |grad|_K:  2.020e-03  alpha:  5.495e-02  linmin: -1.581e-01  cgtest:  8.975e-01  t[s]:    132.78
LCAOMinimize: 	Wrong curvature in test step, increasing alphaT to 1.648488e-01.
	FillingsUpdate:  mu: +1.054151060  nElectrons: 152.000000  magneticMoment: [ Abs: 0.00112  Tot: +0.00015 ]
LCAOMinimize: Iter:  18  F: -1610.2714405588908448  |grad|_K:  1.963e-03  alpha: -7.429e-01  linmin: -1.238e-01  cgtest:  8.932e-01  t[s]:    139.16
	FillingsUpdate:  mu: +1.021256218  nElectrons: 152.000000  magneticMoment: [ Abs: 0.00113  Tot: +0.00028 ]
LCAOMinimize: Iter:  19  F: -1610.6372991237387851  |grad|_K:  1.876e-03  alpha:  4.009e-02  linmin: -1.856e-01  cgtest:  9.402e-01  t[s]:    145.74
LCAOMinimize: 	Wrong curvature in test step, increasing alphaT to 1.202687e-01.
	FillingsUpdate:  mu: +0.993290511  nElectrons: 152.000000  magneticMoment: [ Abs: 0.00115  Tot: +0.00024 ]
LCAOMinimize: Iter:  20  F: -1610.9452183010771478  |grad|_K:  1.813e-03  alpha: -1.621e+00  linmin: -1.843e-01  cgtest:  9.377e-01  t[s]:    152.11
	FillingsUpdate:  mu: +0.968699438  nElectrons: 152.000000  magneticMoment: [ Abs: 0.00118  Tot: +0.00013 ]
LCAOMinimize: Iter:  21  F: -1611.1673709733634041  |grad|_K:  1.770e-03  alpha:  3.052e-02  linmin: -1.393e-01  cgtest:  9.488e-01  t[s]:    159.02
LCAOMinimize: 	Wrong curvature in test step, increasing alphaT to 9.154576e-02.
	FillingsUpdate:  mu: +0.942425212  nElectrons: 152.000000  magneticMoment: [ Abs: 0.00122  Tot: +0.00009 ]
LCAOMinimize: Iter:  22  F: -1611.3768851535799058  |grad|_K:  1.712e-03  alpha: -2.747e+00  linmin: -1.825e-01  cgtest:  9.564e-01  t[s]:    165.37
	FillingsUpdate:  mu: +0.917363654  nElectrons: 152.000000  magneticMoment: [ Abs: 0.00128  Tot: +0.00008 ]
LCAOMinimize: Iter:  23  F: -1611.5512393892536238  |grad|_K:  1.665e-03  alpha:  2.762e-02  linmin: -2.116e-01  cgtest:  9.598e-01  t[s]:    171.98
LCAOMinimize: 	Wrong curvature in test step, increasing alphaT to 8.284962e-02.
	FillingsUpdate:  mu: +0.887607168  nElectrons: 152.000000  magneticMoment: [ Abs: 0.00135  Tot: +0.00007 ]
LCAOMinimize: Iter:  24  F: -1611.7167555541404909  |grad|_K:  1.621e-03  alpha: -1.710e+00  linmin: -2.183e-01  cgtest:  9.572e-01  t[s]:    178.34
	FillingsUpdate:  mu: +0.855668751  nElectrons: 152.000000  magneticMoment: [ Abs: 0.00141  Tot: +0.00001 ]
LCAOMinimize: Iter:  25  F: -1611.8694376675045987  |grad|_K:  1.581e-03  alpha:  2.672e-02  linmin: -2.209e-01  cgtest:  9.564e-01  t[s]:    185.13
LCAOMinimize: 	Wrong curvature in test step, increasing alphaT to 8.016879e-02.
	FillingsUpdate:  mu: +0.823508031  nElectrons: 152.000000  magneticMoment: [ Abs: 0.00187  Tot: -0.00094 ]
LCAOMinimize: Iter:  26  F: -1612.0162122802366866  |grad|_K:  1.557e-03  alpha: -7.243e-01  linmin: -1.480e-01  cgtest:  9.436e-01  t[s]:    191.50
	FillingsUpdate:  mu: +0.790252581  nElectrons: 152.000000  magneticMoment: [ Abs: 0.00162  Tot: -0.00034 ]
LCAOMinimize: Iter:  27  F: -1612.1652692365203166  |grad|_K:  1.499e-03  alpha:  2.753e-02  linmin: -1.746e-01  cgtest:  9.578e-01  t[s]:    198.10
LCAOMinimize: 	Wrong curvature in test step, increasing alphaT to 8.259009e-02.
	FillingsUpdate:  mu: +0.760029714  nElectrons: 152.000000  magneticMoment: [ Abs: 0.00172  Tot: -0.00016 ]
LCAOMinimize: Iter:  28  F: -1612.2970002249046502  |grad|_K:  1.445e-03  alpha: -4.743e+01  linmin: -1.681e-01  cgtest:  9.581e-01  t[s]:    204.46
	FillingsUpdate:  mu: +0.733516215  nElectrons: 152.000000  magneticMoment: [ Abs: 0.00186  Tot: -0.00007 ]
LCAOMinimize: Iter:  29  F: -1612.4137712540612029  |grad|_K:  1.402e-03  alpha:  2.610e-02  linmin: -1.820e-01  cgtest:  9.537e-01  t[s]:    211.03
LCAOMinimize: 	Wrong curvature in test step, increasing alphaT to 7.830648e-02.
	FillingsUpdate:  mu: +0.710815094  nElectrons: 152.000000  magneticMoment: [ Abs: 0.00207  Tot: -0.00009 ]
LCAOMinimize: Iter:  30  F: -1612.5264896213625434  |grad|_K:  1.372e-03  alpha: -6.402e-01  linmin: -1.109e-01  cgtest:  9.421e-01  t[s]:    217.73
LCAOMinimize: None of the convergence criteria satisfied after 30 iterations.
----- createFluidSolver() ----- (Fluid-side solver setup)
   Initializing fluid molecule 'H2O'
     Initializing site 'O'
       Electron density: proportional to exp(-r/0.36935)*erfc((r-0.51523)/0.36823) with norm 6.826
       Charge density: gaussian nuclear width 0.478731 with net site charge 0.826
       Polarizability: cuspless exponential with width 0.32 and norm 3.73
       Hard sphere radius: 2.57003 bohrs
       Positions in reference frame:
         [ +0.000000 +0.000000 +0.000000 ]
     Initializing site 'H'
       Electron density: proportional to exp(-r/0.34641)*erfc((r-0)/0.390882) with norm 0.587
       Charge density: gaussian nuclear width 0.377945 with net site charge -0.413
       Polarizability: cuspless exponential with width 0.39 and norm 3.3
       Positions in reference frame:
         [ +0.000000 -1.441945 +1.122523 ]
         [ +0.000000 +1.441945 +1.122523 ]
     Net charge: 0   dipole magnitude: 0.927204
     Initializing spherical shell mfKernel with radius 2.61727 Bohr
     deltaS corrections:
       site 'O': -7.54299
       site 'H': -6.83917
   Initializing fluid molecule 'Na+'
     Initializing site 'Na'
       Electron density: proportional to exp(-r/0.19682)*erfc((r-0.71491)/0.41314) with norm 8.1383
       Charge density: gaussian nuclear width 0.365347 with net site charge -1
       Hard sphere radius: 1.86327 bohrs
       Positions in reference frame:
         [ +0.000000 +0.000000 +0.000000 ]
     Net charge: -1   dipole magnitude: 0
     Initializing gaussian mfKernel with width: 1.55004 Bohr
     deltaS corrections:
       site 'Na': -22.3555
   Initializing fluid molecule 'F-'
     Initializing site 'F'
       Electron density: proportional to exp(-r/0.38886)*erfc((r-0)/0.438782) with norm 8
       Charge density: gaussian nuclear width 0.374796 with net site charge 1
       Hard sphere radius: 2.39995 bohrs
       Positions in reference frame:
         [ +0.000000 +0.000000 +0.000000 ]
     Net charge: 1   dipole magnitude: 0
     Initializing gaussian mfKernel with width: 1.59012 Bohr
     deltaS corrections:
       site 'F': -9.04335

Correction to mu due to finite nuclear width = -0.0984681
   Cavity determined by nc: 0.00142 and sigma: 0.707107
   Nonlocal vdW cavity from gaussian model electron density with norm = 8 and sigma = 0.993594 bohr
   Charge asymmetry in cavity with sensitivity pCavity = 36.5 e-bohr/Eh
   Electrostatic cavity expanded by eta = 1.46 bohrs
   Weighted density cavitation model constrained by Nbulk: 0.0049383 bohr^-3, Pvap: 3.14029 kPa, Rvdw: 2.61727 bohr and sigmaBulk: 4.62e-05 Eh/bohr^2 at T: 298 K.
   Weighted density dispersion model using vdW pair potentials with single solvent site with sqrtC6eff: 0.77 SI.


---- Citations for features of the code used in this run ----

   Software package:
      R. Sundararaman, K. Letchworth-Weaver, K.A. Schwarz, D. Gunceler, Y. Ozhabes and T.A. Arias, 'JDFTx: software for joint density-functional theory', SoftwareX 6, 278 (2017)

   gga-PBE exchange-correlation functional:
      J.P. Perdew, K. Burke and M. Ernzerhof, Phys. Rev. Lett. 77, 3865 (1996)

   Pseudopotentials:
      KF Garrity, JW Bennett, KM Rabe and D Vanderbilt, Comput. Mater. Sci. 81, 446 (2014)

   DFT-D3 dispersion correction:
      S. Grimme, J. Antony, S. Ehrlich and H. Krieg, J. Chem. Phys. 132, 154104 (2010)

   DFT-D2 dispersion correction:
      S. Grimme, J. Comput. Chem. 27, 1787 (2006)

   Charge-asymmetric nonlocally-determined local-electric (CANDLE) solvation model:
      R. Sundararaman and W.A. Goddard III, J. Chem. Phys. 142, 064107 (2015)

   Total energy minimization with Auxiliary Hamiltonian:
      C. Freysoldt, S. Boeck, and J. Neugebauer, Phys. Rev. B 79, 241103(R) (2009)

   Linear-tetrahedron sampling for density of states:
      G. Lehmann and M. Taut, Phys. status solidi (b) 54, 469 (1972)

This list may not be complete. Please suggest additional citations or
report any other bugs at https://github.com/shankar1729/jdftx/issues

Initialization completed successfully at t[s]:    221.60


Computing DFT-D3 correction:
# coordination-number Cu 8.354 9.157 5.354 9.147 9.147 5.354 9.157 8.354
# diagonal-C6 Cu 175.00 175.00 175.00 175.00 175.00 175.00 175.00 175.00
EvdW_6 =   -0.045710
EvdW_8 =   -0.069700
Fluid solver invoked on fresh (random / LCAO) wavefunctions
Running a vacuum solve first:

-------- Initial electronic minimization -----------
	FillingsUpdate:  mu: +0.732095230  nElectrons: 152.000000  magneticMoment: [ Abs: 0.00207  Tot: -0.00009 ]
ElecMinimize: Iter:   0  F: -1612.526489621362771  |grad|_K:  4.117e-04  alpha:  1.000e+00
	FillingsUpdate:  mu: +0.277300187  nElectrons: 152.000000  magneticMoment: [ Abs: 0.00219  Tot: -0.00055 ]
	SubspaceRotationAdjust: set factor to 0.942
ElecMinimize: Iter:   1  F: -1614.102511948263100  |grad|_K:  1.376e-04  alpha:  9.486e-02  linmin:  2.507e-03  t[s]:    238.32
	FillingsUpdate:  mu: +0.329972345  nElectrons: 152.000000  magneticMoment: [ Abs: 0.00191  Tot: -0.00024 ]
	SubspaceRotationAdjust: set factor to 1.01
ElecMinimize: Iter:   2  F: -1614.426833373983300  |grad|_K:  1.035e-04  alpha:  1.761e-01  linmin: -3.692e-05  t[s]:    248.83
	FillingsUpdate:  mu: +0.199920043  nElectrons: 152.000000  magneticMoment: [ Abs: 0.00168  Tot: -0.00015 ]
	SubspaceRotationAdjust: set factor to 0.875
ElecMinimize: Iter:   3  F: -1614.656096924305757  |grad|_K:  7.951e-05  alpha:  1.811e-01  linmin:  8.529e-05  t[s]:    259.11
	FillingsUpdate:  mu: +0.143784420  nElectrons: 152.000000  magneticMoment: [ Abs: 0.00152  Tot: +0.00003 ]
	SubspaceRotationAdjust: set factor to 0.625
ElecMinimize: Iter:   4  F: -1614.714367517468645  |grad|_K:  5.424e-05  alpha:  8.542e-02  linmin: -7.421e-06  t[s]:    269.39
	FillingsUpdate:  mu: +0.159108371  nElectrons: 152.000000  magneticMoment: [ Abs: 0.00144  Tot: +0.00008 ]
	SubspaceRotationAdjust: set factor to 0.501
ElecMinimize: Iter:   5  F: -1614.736785456312646  |grad|_K:  4.129e-05  alpha:  6.442e-02  linmin:  4.631e-06  t[s]:    279.94
	FillingsUpdate:  mu: +0.187959191  nElectrons: 152.000000  magneticMoment: [ Abs: 0.00124  Tot: +0.00027 ]
	SubspaceRotationAdjust: set factor to 0.4
ElecMinimize: Iter:   6  F: -1614.758183692136527  |grad|_K:  3.510e-05  alpha:  1.085e-01  linmin: -4.050e-06  t[s]:    290.18
	FillingsUpdate:  mu: +0.157324928  nElectrons: 152.000000  magneticMoment: [ Abs: 0.00093  Tot: +0.00021 ]
	SubspaceRotationAdjust: set factor to 0.555
ElecMinimize: Iter:   7  F: -1614.780492670734930  |grad|_K:  2.760e-05  alpha:  1.546e-01  linmin:  2.838e-07  t[s]:    300.48
	FillingsUpdate:  mu: +0.141979804  nElectrons: 152.000000  magneticMoment: [ Abs: 0.00079  Tot: +0.00020 ]
	SubspaceRotationAdjust: set factor to 0.462
ElecMinimize: Iter:   8  F: -1614.790117164973253  |grad|_K:  1.733e-05  alpha:  1.093e-01  linmin: -1.506e-06  t[s]:    310.96
	FillingsUpdate:  mu: +0.144808537  nElectrons: 152.000000  magneticMoment: [ Abs: 0.00073  Tot: +0.00024 ]
	SubspaceRotationAdjust: set factor to 0.387
ElecMinimize: Iter:   9  F: -1614.793114377177972  |grad|_K:  1.151e-05  alpha:  8.579e-02  linmin: -2.075e-06  t[s]:    321.26
	FillingsUpdate:  mu: +0.151428880  nElectrons: 152.000000  magneticMoment: [ Abs: 0.00074  Tot: +0.00040 ]
	SubspaceRotationAdjust: set factor to 0.381
ElecMinimize: Iter:  10  F: -1614.795624093594597  |grad|_K:  9.990e-06  alpha:  1.621e-01  linmin: -2.179e-06  t[s]:    331.53
	FillingsUpdate:  mu: +0.152150396  nElectrons: 152.000000  magneticMoment: [ Abs: 0.00076  Tot: +0.00052 ]
	SubspaceRotationAdjust: set factor to 0.439
ElecMinimize: Iter:  11  F: -1614.797192656415291  |grad|_K:  6.701e-06  alpha:  1.345e-01  linmin:  8.437e-07  t[s]:    342.01
	FillingsUpdate:  mu: +0.153567478  nElectrons: 152.000000  magneticMoment: [ Abs: 0.00075  Tot: +0.00057 ]
	SubspaceRotationAdjust: set factor to 0.39
ElecMinimize: Iter:  12  F: -1614.797983220531250  |grad|_K:  6.431e-06  alpha:  1.514e-01  linmin: -9.476e-07  t[s]:    352.31
	FillingsUpdate:  mu: +0.152825298  nElectrons: 152.000000  magneticMoment: [ Abs: 0.00072  Tot: +0.00057 ]
	SubspaceRotationAdjust: set factor to 0.339
ElecMinimize: Iter:  13  F: -1614.798631912347901  |grad|_K:  4.403e-06  alpha:  1.347e-01  linmin: -1.916e-06  t[s]:    362.61
	FillingsUpdate:  mu: +0.151083061  nElectrons: 152.000000  magneticMoment: [ Abs: 0.00067  Tot: +0.00055 ]
	SubspaceRotationAdjust: set factor to 0.403
ElecMinimize: Iter:  14  F: -1614.798939739782782  |grad|_K:  3.338e-06  alpha:  1.361e-01  linmin:  4.412e-07  t[s]:    373.76
	FillingsUpdate:  mu: +0.152518791  nElectrons: 152.000000  magneticMoment: [ Abs: 0.00062  Tot: +0.00052 ]
	SubspaceRotationAdjust: set factor to 0.4
ElecMinimize: Iter:  15  F: -1614.799179435136466  |grad|_K:  3.041e-06  alpha:  1.850e-01  linmin:  6.045e-07  t[s]:    384.20
	FillingsUpdate:  mu: +0.153636484  nElectrons: 152.000000  magneticMoment: [ Abs: 0.00056  Tot: +0.00047 ]
	SubspaceRotationAdjust: set factor to 0.364
ElecMinimize: Iter:  16  F: -1614.799322221279454  |grad|_K:  2.354e-06  alpha:  1.328e-01  linmin: -8.073e-08  t[s]:    394.70
	FillingsUpdate:  mu: +0.151793373  nElectrons: 152.000000  magneticMoment: [ Abs: 0.00049  Tot: +0.00041 ]
	SubspaceRotationAdjust: set factor to 0.376
ElecMinimize: Iter:  17  F: -1614.799424430733325  |grad|_K:  1.892e-06  alpha:  1.585e-01  linmin:  1.377e-06  t[s]:    405.34
	FillingsUpdate:  mu: +0.150740040  nElectrons: 152.000000  magneticMoment: [ Abs: 0.00044  Tot: +0.00037 ]
	SubspaceRotationAdjust: set factor to 0.424
ElecMinimize: Iter:  18  F: -1614.799481843301237  |grad|_K:  1.331e-06  alpha:  1.379e-01  linmin:  8.768e-07  t[s]:    415.75
	FillingsUpdate:  mu: +0.151473821  nElectrons: 152.000000  magneticMoment: [ Abs: 0.00039  Tot: +0.00032 ]
	SubspaceRotationAdjust: set factor to 0.417
ElecMinimize: Iter:  19  F: -1614.799518984751785  |grad|_K:  1.346e-06  alpha:  1.801e-01  linmin:  1.576e-07  t[s]:    426.35
	FillingsUpdate:  mu: +0.151722224  nElectrons: 152.000000  magneticMoment: [ Abs: 0.00033  Tot: +0.00028 ]
	SubspaceRotationAdjust: set factor to 0.35
ElecMinimize: Iter:  20  F: -1614.799547504704151  |grad|_K:  9.345e-07  alpha:  1.352e-01  linmin:  4.646e-07  t[s]:    437.01
	FillingsUpdate:  mu: +0.151223546  nElectrons: 152.000000  magneticMoment: [ Abs: 0.00030  Tot: +0.00025 ]
	SubspaceRotationAdjust: set factor to 0.368
ElecMinimize: Iter:  21  F: -1614.799560232675731  |grad|_K:  6.953e-07  alpha:  1.252e-01  linmin:  1.740e-06  t[s]:    447.37
	FillingsUpdate:  mu: +0.150950392  nElectrons: 152.000000  magneticMoment: [ Abs: 0.00025  Tot: +0.00021 ]
	SubspaceRotationAdjust: set factor to 0.396
ElecMinimize: Iter:  22  F: -1614.799571781381246  |grad|_K:  6.584e-07  alpha:  2.055e-01  linmin:  3.516e-06  t[s]:    457.87
	FillingsUpdate:  mu: +0.150893684  nElectrons: 152.000000  magneticMoment: [ Abs: 0.00022  Tot: +0.00018 ]
	SubspaceRotationAdjust: set factor to 0.364
ElecMinimize: Iter:  23  F: -1614.799578506550461  |grad|_K:  4.794e-07  alpha:  1.334e-01  linmin: -2.460e-07  t[s]:    468.16
	FillingsUpdate:  mu: +0.150973344  nElectrons: 152.000000  magneticMoment: [ Abs: 0.00019  Tot: +0.00015 ]
	SubspaceRotationAdjust: set factor to 0.333
ElecMinimize: Iter:  24  F: -1614.799582345081035  |grad|_K:  3.837e-07  alpha:  1.435e-01  linmin:  9.270e-07  t[s]:    478.48
	FillingsUpdate:  mu: +0.151136519  nElectrons: 152.000000  magneticMoment: [ Abs: 0.00016  Tot: +0.00013 ]
	SubspaceRotationAdjust: set factor to 0.363
ElecMinimize: Iter:  25  F: -1614.799585060987056  |grad|_K:  3.055e-07  alpha:  1.586e-01  linmin:  6.420e-07  t[s]:    489.12
	FillingsUpdate:  mu: +0.151032956  nElectrons: 152.000000  magneticMoment: [ Abs: 0.00014  Tot: +0.00011 ]
	SubspaceRotationAdjust: set factor to 0.38
ElecMinimize: Iter:  26  F: -1614.799586885442523  |grad|_K:  2.634e-07  alpha:  1.681e-01  linmin:  7.374e-07  t[s]:    499.51
	FillingsUpdate:  mu: +0.150783724  nElectrons: 152.000000  magneticMoment: [ Abs: 0.00012  Tot: +0.00010 ]
	SubspaceRotationAdjust: set factor to 0.331
ElecMinimize: Iter:  27  F: -1614.799587985099151  |grad|_K:  1.836e-07  alpha:  1.362e-01  linmin:  4.430e-07  t[s]:    509.76
	FillingsUpdate:  mu: +0.150750457  nElectrons: 152.000000  magneticMoment: [ Abs: 0.00011  Tot: +0.00008 ]
	SubspaceRotationAdjust: set factor to 0.36
ElecMinimize: Iter:  28  F: -1614.799588597509228  |grad|_K:  1.670e-07  alpha:  1.562e-01  linmin:  3.330e-07  t[s]:    520.50
	FillingsUpdate:  mu: +0.150865186  nElectrons: 152.000000  magneticMoment: [ Abs: 0.00009  Tot: +0.00007 ]
	SubspaceRotationAdjust: set factor to 0.391
ElecMinimize: Iter:  29  F: -1614.799589238403087  |grad|_K:  1.417e-07  alpha:  1.976e-01  linmin:  5.245e-07  t[s]:    530.94
	FillingsUpdate:  mu: +0.150869049  nElectrons: 152.000000  magneticMoment: [ Abs: 0.00008  Tot: +0.00006 ]
	SubspaceRotationAdjust: set factor to 0.392
ElecMinimize: Iter:  30  F: -1614.799589542963531  |grad|_K:  1.062e-07  alpha:  1.304e-01  linmin: -6.631e-08  t[s]:    541.38
	FillingsUpdate:  mu: +0.150824353  nElectrons: 152.000000  magneticMoment: [ Abs: 0.00006  Tot: +0.00005 ]
	SubspaceRotationAdjust: set factor to 0.387
ElecMinimize: Iter:  31  F: -1614.799589781676332  |grad|_K:  1.050e-07  alpha:  1.819e-01  linmin:  1.006e-06  t[s]:    551.98
	FillingsUpdate:  mu: +0.150812612  nElectrons: 152.000000  magneticMoment: [ Abs: 0.00005  Tot: +0.00004 ]
	SubspaceRotationAdjust: set factor to 0.421
ElecMinimize: Iter:  32  F: -1614.799589975719073  |grad|_K:  7.609e-08  alpha:  1.516e-01  linmin:  1.469e-07  t[s]:    562.26
	FillingsUpdate:  mu: +0.150822175  nElectrons: 152.000000  magneticMoment: [ Abs: 0.00004  Tot: +0.00003 ]
	SubspaceRotationAdjust: set factor to 0.46
ElecMinimize: Iter:  33  F: -1614.799590092490462  |grad|_K:  7.139e-08  alpha:  1.735e-01  linmin:  4.873e-07  t[s]:    572.72
	FillingsUpdate:  mu: +0.150839618  nElectrons: 152.000000  magneticMoment: [ Abs: 0.00003  Tot: +0.00002 ]
	SubspaceRotationAdjust: set factor to 0.43
ElecMinimize: Iter:  34  F: -1614.799590183407645  |grad|_K:  5.733e-08  alpha:  1.536e-01  linmin:  4.325e-07  t[s]:    583.21
	FillingsUpdate:  mu: +0.150836694  nElectrons: 152.000000  magneticMoment: [ Abs: 0.00003  Tot: +0.00002 ]
	SubspaceRotationAdjust: set factor to 0.367
ElecMinimize: Iter:  35  F: -1614.799590231436468  |grad|_K:  4.681e-08  alpha:  1.257e-01  linmin: -9.848e-08  t[s]:    593.64
ElecMinimize: Converged (|Delta F|<1.000000e-07 for 2 iters).
Setting wave functions to eigenvectors of Hamiltonian
Converging empty states (this may take a while): |deigs|: 2.012e-02
Vacuum energy after initial minimize, F = -1614.799590231436468


-------- Electronic minimization -----------
	Linear fluid (dielectric constant: 78.4, screening length: 8.12261 Bohr) occupying 0.414695 of unit cell:	Completed after 21 iterations at t[s]:    631.83
	FillingsUpdate:  mu: -0.156314338  nElectrons: 152.000000  magneticMoment: [ Abs: 0.00001  Tot: +0.00001 ]
ElecMinimize: Iter:   0  F: -1614.799631591104344  |grad|_K:  7.590e-07  alpha:  1.000e+00
	Linear fluid (dielectric constant: 78.4, screening length: 8.12261 Bohr) occupying 0.416401 of unit cell:	Completed after 18 iterations at t[s]:    641.31
	Linear fluid (dielectric constant: 78.4, screening length: 8.12261 Bohr) occupying 0.415016 of unit cell:	Completed after 17 iterations at t[s]:    644.51
	FillingsUpdate:  mu: -0.154227004  nElectrons: 152.000000  magneticMoment: [ Abs: 0.00001  Tot: +0.00001 ]
	SubspaceRotationAdjust: set factor to 0.356
ElecMinimize: Iter:   1  F: -1614.799643786727302  |grad|_K:  7.218e-07  alpha:  1.839e-01  linmin:  1.443e-06  t[s]:    648.88
	Linear fluid (dielectric constant: 78.4, screening length: 8.12261 Bohr) occupying 0.415527 of unit cell:	Completed after 15 iterations at t[s]:    652.80
	Linear fluid (dielectric constant: 78.4, screening length: 8.12261 Bohr) occupying 0.415706 of unit cell:	Completed after 12 iterations at t[s]:    655.87
	FillingsUpdate:  mu: -0.152100506  nElectrons: 152.000000  magneticMoment: [ Abs: 0.00001  Tot: +0.00001 ]
	SubspaceRotationAdjust: set factor to 0.469
ElecMinimize: Iter:   2  F: -1614.799658798626979  |grad|_K:  8.406e-07  alpha:  2.494e-01  linmin: -3.149e-07  t[s]:    661.16
	Linear fluid (dielectric constant: 78.4, screening length: 8.12261 Bohr) occupying 0.416755 of unit cell:	Completed after 17 iterations at t[s]:    665.63
	Linear fluid (dielectric constant: 78.4, screening length: 8.12261 Bohr) occupying 0.416795 of unit cell:	Completed after 8 iterations at t[s]:    668.63
	FillingsUpdate:  mu: -0.150997982  nElectrons: 152.000000  magneticMoment: [ Abs: 0.00001  Tot: +0.00000 ]
	SubspaceRotationAdjust: set factor to 0.521
ElecMinimize: Iter:   3  F: -1614.799680265178495  |grad|_K:  4.591e-07  alpha:  2.592e-01  linmin: -5.150e-07  t[s]:    672.98
	Linear fluid (dielectric constant: 78.4, screening length: 8.12261 Bohr) occupying 0.417141 of unit cell:	Completed after 15 iterations at t[s]:    676.91
	Linear fluid (dielectric constant: 78.4, screening length: 8.12261 Bohr) occupying 0.417087 of unit cell:	Completed after 10 iterations at t[s]:    679.94
	FillingsUpdate:  mu: -0.151727459  nElectrons: 152.000000  magneticMoment: [ Abs: 0.00001  Tot: +0.00000 ]
	SubspaceRotationAdjust: set factor to 0.583
ElecMinimize: Iter:   4  F: -1614.799685663431319  |grad|_K:  4.024e-07  alpha:  2.186e-01  linmin:  2.255e-08  t[s]:    684.33
	Linear fluid (dielectric constant: 78.4, screening length: 8.12261 Bohr) occupying 0.417354 of unit cell:	Completed after 9 iterations at t[s]:    688.16
	Linear fluid (dielectric constant: 78.4, screening length: 8.12261 Bohr) occupying 0.417292 of unit cell:	Completed after 4 iterations at t[s]:    691.04
	FillingsUpdate:  mu: -0.151768282  nElectrons: 152.000000  magneticMoment: [ Abs: 0.00000  Tot: +0.00000 ]
	SubspaceRotationAdjust: set factor to 0.725
ElecMinimize: Iter:   5  F: -1614.799688819761968  |grad|_K:  2.954e-07  alpha:  1.676e-01  linmin: -2.781e-09  t[s]:    695.71
	Linear fluid (dielectric constant: 78.4, screening length: 8.12261 Bohr) occupying 0.417429 of unit cell:	Completed after 13 iterations at t[s]:    699.55
	Linear fluid (dielectric constant: 78.4, screening length: 8.12261 Bohr) occupying 0.417421 of unit cell:	Completed after 5 iterations at t[s]:    702.45
	FillingsUpdate:  mu: -0.151489088  nElectrons: 152.000000  magneticMoment: [ Abs: 0.00000  Tot: +0.00000 ]
	SubspaceRotationAdjust: set factor to 0.656
ElecMinimize: Iter:   6  F: -1614.799690415213490  |grad|_K:  2.126e-07  alpha:  1.571e-01  linmin: -3.406e-08  t[s]:    706.85
	Linear fluid (dielectric constant: 78.4, screening length: 8.12261 Bohr) occupying 0.417496 of unit cell:	Completed after 9 iterations at t[s]:    710.56
	Linear fluid (dielectric constant: 78.4, screening length: 8.12261 Bohr) occupying 0.417497 of unit cell:	Completed after 0 iterations at t[s]:    713.35
	FillingsUpdate:  mu: -0.151649772  nElectrons: 152.000000  magneticMoment: [ Abs: 0.00000  Tot: +0.00000 ]
	SubspaceRotationAdjust: set factor to 0.631
ElecMinimize: Iter:   7  F: -1614.799691251782178  |grad|_K:  1.578e-07  alpha:  1.589e-01  linmin: -1.879e-07  t[s]:    717.75
	Linear fluid (dielectric constant: 78.4, screening length: 8.12261 Bohr) occupying 0.417548 of unit cell:	Completed after 8 iterations at t[s]:    721.48
	Linear fluid (dielectric constant: 78.4, screening length: 8.12261 Bohr) occupying 0.417543 of unit cell:	Completed after 2 iterations at t[s]:    724.52
	FillingsUpdate:  mu: -0.151722777  nElectrons: 152.000000  magneticMoment: [ Abs: 0.00000  Tot: +0.00000 ]
	SubspaceRotationAdjust: set factor to 0.611
ElecMinimize: Iter:   8  F: -1614.799691672504196  |grad|_K:  1.226e-07  alpha:  1.445e-01  linmin:  9.933e-08  t[s]:    728.94
	Linear fluid (dielectric constant: 78.4, screening length: 8.12261 Bohr) occupying 0.417579 of unit cell:	Completed after 8 iterations at t[s]:    732.75
	Linear fluid (dielectric constant: 78.4, screening length: 8.12261 Bohr) occupying 0.417585 of unit cell:	Completed after 2 iterations at t[s]:    735.61
	FillingsUpdate:  mu: -0.151613472  nElectrons: 152.000000  magneticMoment: [ Abs: 0.00000  Tot: +0.00000 ]
	SubspaceRotationAdjust: set factor to 0.616
ElecMinimize: Iter:   9  F: -1614.799691970670210  |grad|_K:  7.620e-08  alpha:  1.709e-01  linmin: -1.061e-07  t[s]:    739.97
	Linear fluid (dielectric constant: 78.4, screening length: 8.12261 Bohr) occupying 0.417602 of unit cell:	Completed after 8 iterations at t[s]:    743.67
	Linear fluid (dielectric constant: 78.4, screening length: 8.12261 Bohr) occupying 0.417598 of unit cell:	Completed after 2 iterations at t[s]:    746.50
	FillingsUpdate:  mu: -0.151548401  nElectrons: 152.000000  magneticMoment: [ Abs: 0.00000  Tot: +0.00000 ]
	SubspaceRotationAdjust: set factor to 0.677
ElecMinimize: Iter:  10  F: -1614.799692058212941  |grad|_K:  5.668e-08  alpha:  1.295e-01  linmin:  4.175e-08  t[s]:    750.87
	Linear fluid (dielectric constant: 78.4, screening length: 8.12261 Bohr) occupying 0.417602 of unit cell:	Completed after 5 iterations at t[s]:    754.82
	Linear fluid (dielectric constant: 78.4, screening length: 8.12261 Bohr) occupying 0.417605 of unit cell:	Completed after 2 iterations at t[s]:    757.82
	FillingsUpdate:  mu: -0.151612624  nElectrons: 152.000000  magneticMoment: [ Abs: 0.00000  Tot: +0.00000 ]
	SubspaceRotationAdjust: set factor to 0.678
ElecMinimize: Iter:  11  F: -1614.799692146473717  |grad|_K:  4.436e-08  alpha:  2.341e-01  linmin: -8.380e-07  t[s]:    762.18
ElecMinimize: Converged (|Delta F|<1.000000e-07 for 2 iters).
Setting wave functions to eigenvectors of Hamiltonian
Converging empty states (this may take a while): |deigs|: 5.452e-05
Single-point solvation energy estimate, DeltaF = -0.000101915037249

Computing DFT-D3 correction:
# coordination-number Cu 8.354 9.157 5.354 9.147 9.147 5.354 9.157 8.354
# diagonal-C6 Cu 175.00 175.00 175.00 175.00 175.00 175.00 175.00 175.00
EvdW_6 =   -0.045710
EvdW_8 =   -0.069700

# Ionic positions in cartesian coordinates:
ion Cu   4.766623000000000   6.741023000000000  44.091266999999995 1
ion Cu   0.000000000000000   6.741023000000000  39.324643000000002 1
ion Cu   2.383311000000000   3.370512000000000  46.474578999999991 1
ion Cu   2.383311000000000   3.370512000000000  41.707954999999998 1
ion Cu   0.000000000000000   0.000000000000000  34.558019999999992 1
ion Cu   0.000000000000000   0.000000000000000  29.791396999999996 1
ion Cu   2.383311000000000   3.370512000000000  36.941332000000003 1
ion Cu   2.383311000000000   3.370512000000000  32.174708000000003 1

# Forces in Cartesian coordinates:
force Cu   0.000001492046565   0.000001969476104   0.006993781560338 1
force Cu  -0.000001916492291  -0.000003073164494   0.000261247318396 1
force Cu  -0.000006439489678  -0.000004237669216  -0.004953226340619 1
force Cu  -0.000000516532118   0.000000439047016  -0.002118995505074 1
force Cu  -0.000003378955664  -0.000001313109731   0.001930747559657 1
force Cu   0.000001610102704   0.000000896694554   0.004950197804861 1
force Cu   0.000004522866319   0.000002534610111  -0.000381164175008 1
force Cu  -0.000000177272264   0.000000437652383  -0.006896727191060 1

# Energy components:
   A_diel =       -0.0001619810796198
   Eewald =     5558.9646568299776845
       EH =     7045.0052499429175441
     Eloc =   -14521.9118260772629583
      Enl =      292.9922107361434200
     EvdW =       -0.1154101923946297
      Exc =     -155.2342213374299718
 Exc_core =        0.3757307890347127
       KE =      165.1243731046326957
-------------------------------------
     Etot =    -1614.7993981854615413
       TS =        0.0002939610122525
-------------------------------------
        F =    -1614.7996921464737170


Dumping 'jdft.fillings' ... done
Dumping 'jdft.wfns' ... done
Dumping 'jdft.fluidState' ... done
Dumping 'jdft.ionpos' ... done
Dumping 'jdft.lattice' ... done
Dumping 'jdft.eigenvals' ... done
Dumping 'jdft.eigStats' ... 
	eMin: -4.288562 at state 0 ( [ +0.000000 +0.000000 +0.000000 ] spin 1 )
	HOMO: -0.152165 at state 101 ( [ +0.000000 -0.375000 +0.000000 ] spin -1 )
	mu  : -0.151613
	LUMO: -0.151227 at state 90 ( [ -0.083333 +0.250000 +0.000000 ] spin 1 )
	eMax: +0.231628 at state 144 ( [ +0.500000 +0.000000 +0.000000 ] spin -1 )
	HOMO-LUMO gap: +0.000938
	Optical gap  : +0.002644 at state 101 ( [ +0.000000 -0.375000 +0.000000 ] spin -1 )
Dumping 'jdft.Ecomponents' ... done
IonicMinimize: Iter:   0  F: -1614.799692146473717  |grad|_K:  2.533e-03  t[s]:    785.95

#--- Lowdin population analysis ---
# oxidation-state Cu +0.012 +0.073 +0.191 +0.066 +0.066 +0.191 +0.073 +0.012
# magnetic-moments Cu +0.000 +0.000 +0.000 +0.000 +0.000 +0.000 +0.000 +0.000


Computing DFT-D3 correction:
# coordination-number Cu 8.352 9.155 5.372 9.141 9.142 5.372 9.155 8.353
# diagonal-C6 Cu 175.00 175.00 175.00 175.00 175.00 175.00 175.00 175.00
EvdW_6 =   -0.045710
EvdW_8 =   -0.069701

-------- Electronic minimization -----------
	Linear fluid (dielectric constant: 78.4, screening length: 8.12261 Bohr) occupying 0.417805 of unit cell:	Completed after 14 iterations at t[s]:    790.35
	FillingsUpdate:  mu: -0.151468540  nElectrons: 152.000000  magneticMoment: [ Abs: 0.00000  Tot: +0.00000 ]
ElecMinimize: Iter:   0  F: -1614.799790955277558  |grad|_K:  8.877e-07  alpha:  1.000e+00
	Linear fluid (dielectric constant: 78.4, screening length: 8.12261 Bohr) occupying 0.417725 of unit cell:	Completed after 16 iterations at t[s]:    799.58
	Linear fluid (dielectric constant: 78.4, screening length: 8.12261 Bohr) occupying 0.417793 of unit cell:	Completed after 15 iterations at t[s]:    802.70
	FillingsUpdate:  mu: -0.151801992  nElectrons: 152.000000  magneticMoment: [ Abs: 0.00000  Tot: +0.00000 ]
	SubspaceRotationAdjust: set factor to 0.832
ElecMinimize: Iter:   1  F: -1614.799804617907284  |grad|_K:  7.515e-07  alpha:  1.490e-01  linmin: -5.193e-06  t[s]:    807.10
	Linear fluid (dielectric constant: 78.4, screening length: 8.12261 Bohr) occupying 0.417784 of unit cell:	Completed after 10 iterations at t[s]:    810.88
	Linear fluid (dielectric constant: 78.4, screening length: 8.12261 Bohr) occupying 0.417776 of unit cell:	Completed after 10 iterations at t[s]:    814.07
	FillingsUpdate:  mu: -0.152189169  nElectrons: 152.000000  magneticMoment: [ Abs: 0.00000  Tot: +0.00000 ]
	SubspaceRotationAdjust: set factor to 0.938
ElecMinimize: Iter:   2  F: -1614.799823221750557  |grad|_K:  6.854e-07  alpha:  2.830e-01  linmin:  3.709e-06  t[s]:    818.63
	Linear fluid (dielectric constant: 78.4, screening length: 8.12261 Bohr) occupying 0.417807 of unit cell:	Completed after 15 iterations at t[s]:    822.57
	Linear fluid (dielectric constant: 78.4, screening length: 8.12261 Bohr) occupying 0.417791 of unit cell:	Completed after 14 iterations at t[s]:    825.69
	FillingsUpdate:  mu: -0.151481956  nElectrons: 152.000000  magneticMoment: [ Abs: 0.00000  Tot: +0.00000 ]
	SubspaceRotationAdjust: set factor to 0.87
ElecMinimize: Iter:   3  F: -1614.799830592710123  |grad|_K:  5.483e-07  alpha:  1.348e-01  linmin: -3.601e-07  t[s]:    830.06
	Linear fluid (dielectric constant: 78.4, screening length: 8.12261 Bohr) occupying 0.417786 of unit cell:	Completed after 15 iterations at t[s]:    833.94
	Linear fluid (dielectric constant: 78.4, screening length: 8.12261 Bohr) occupying 0.417786 of unit cell:	Completed after 7 iterations at t[s]:    836.88
	FillingsUpdate:  mu: -0.151902878  nElectrons: 152.000000  magneticMoment: [ Abs: 0.00000  Tot: +0.00000 ]
	SubspaceRotationAdjust: set factor to 0.689
ElecMinimize: Iter:   4  F: -1614.799834967234574  |grad|_K:  3.687e-07  alpha:  1.250e-01  linmin:  3.842e-06  t[s]:    841.28
	Linear fluid (dielectric constant: 78.4, screening length: 8.12261 Bohr) occupying 0.417796 of unit cell:	Completed after 9 iterations at t[s]:    845.29
	Linear fluid (dielectric constant: 78.4, screening length: 8.12261 Bohr) occupying 0.417794 of unit cell:	Completed after 7 iterations at t[s]:    848.28
	FillingsUpdate:  mu: -0.151799371  nElectrons: 152.000000  magneticMoment: [ Abs: 0.00000  Tot: +0.00000 ]
	SubspaceRotationAdjust: set factor to 0.527
ElecMinimize: Iter:   5  F: -1614.799836624455793  |grad|_K:  2.752e-07  alpha:  1.048e-01  linmin: -1.828e-07  t[s]:    852.68
	Linear fluid (dielectric constant: 78.4, screening length: 8.12261 Bohr) occupying 0.417804 of unit cell:	Completed after 9 iterations at t[s]:    856.47
	Linear fluid (dielectric constant: 78.4, screening length: 8.12261 Bohr) occupying 0.417814 of unit cell:	Completed after 10 iterations at t[s]:    859.61
	FillingsUpdate:  mu: -0.151466380  nElectrons: 152.000000  magneticMoment: [ Abs: 0.00000  Tot: +0.00000 ]
	SubspaceRotationAdjust: set factor to 0.555
ElecMinimize: Iter:   6  F: -1614.799838590960917  |grad|_K:  2.034e-07  alpha:  2.230e-01  linmin: -3.797e-06  t[s]:    864.04
	Linear fluid (dielectric constant: 78.4, screening length: 8.12261 Bohr) occupying 0.417813 of unit cell:	Completed after 13 iterations at t[s]:    867.92
	Linear fluid (dielectric constant: 78.4, screening length: 8.12261 Bohr) occupying 0.417814 of unit cell:	Completed after 9 iterations at t[s]:    870.97
	FillingsUpdate:  mu: -0.151661938  nElectrons: 152.000000  magneticMoment: [ Abs: 0.00000  Tot: +0.00000 ]
	SubspaceRotationAdjust: set factor to 0.525
ElecMinimize: Iter:   7  F: -1614.799839067282846  |grad|_K:  7.888e-08  alpha:  9.872e-02  linmin:  4.737e-07  t[s]:    875.58
	Linear fluid (dielectric constant: 78.4, screening length: 8.12261 Bohr) occupying 0.417813 of unit cell:	Completed after 2 iterations at t[s]:    879.18
	Linear fluid (dielectric constant: 78.4, screening length: 8.12261 Bohr) occupying 0.417812 of unit cell:	Completed after 2 iterations at t[s]:    882.04
	FillingsUpdate:  mu: -0.151677424  nElectrons: 152.000000  magneticMoment: [ Abs: 0.00000  Tot: +0.00000 ]
	SubspaceRotationAdjust: set factor to 0.525
ElecMinimize: Iter:   8  F: -1614.799839192465697  |grad|_K:  7.641e-08  alpha:  1.733e-01  linmin:  5.667e-05  t[s]:    886.41
	Linear fluid (dielectric constant: 78.4, screening length: 8.12261 Bohr) occupying 0.417810 of unit cell:	Completed after 7 iterations at t[s]:    890.25
	Linear fluid (dielectric constant: 78.4, screening length: 8.12261 Bohr) occupying 0.417810 of unit cell:	Completed after 0 iterations at t[s]:    893.08
	FillingsUpdate:  mu: -0.151759393  nElectrons: 152.000000  magneticMoment: [ Abs: 0.00000  Tot: +0.00000 ]
	SubspaceRotationAdjust: set factor to 0.52
ElecMinimize: Iter:   9  F: -1614.799839313647226  |grad|_K:  4.215e-08  alpha:  1.790e-01  linmin: -2.541e-04  t[s]:    897.46
	Linear fluid (dielectric constant: 78.4, screening length: 8.12261 Bohr) occupying 0.417811 of unit cell:	Completed after 5 iterations at t[s]:    901.17
	Linear fluid (dielectric constant: 78.4, screening length: 8.12261 Bohr) occupying 0.417811 of unit cell:	Completed after 2 iterations at t[s]:    904.16
	FillingsUpdate:  mu: -0.151722971  nElectrons: 152.000000  magneticMoment: [ Abs: 0.00000  Tot: +0.00000 ]
	SubspaceRotationAdjust: set factor to 0.544
ElecMinimize: Iter:  10  F: -1614.799839341829966  |grad|_K:  2.837e-08  alpha:  1.345e-01  linmin: -5.507e-05  t[s]:    908.68
	Linear fluid (dielectric constant: 78.4, screening length: 8.12261 Bohr) occupying 0.417812 of unit cell:	Completed after 2 iterations at t[s]:    912.24
	Linear fluid (dielectric constant: 78.4, screening length: 8.12261 Bohr) occupying 0.417812 of unit cell:	Completed after 2 iterations at t[s]:    915.10
	FillingsUpdate:  mu: -0.151684872  nElectrons: 152.000000  magneticMoment: [ Abs: 0.00000  Tot: +0.00000 ]
	SubspaceRotationAdjust: set factor to 0.535
ElecMinimize: Iter:  11  F: -1614.799839357861856  |grad|_K:  2.301e-08  alpha:  1.729e-01  linmin:  7.881e-04  t[s]:    919.45
ElecMinimize: Converged (|Delta F|<1.000000e-07 for 2 iters).
Setting wave functions to eigenvectors of Hamiltonian
Converging empty states (this may take a while): |deigs|: 6.169e-08

Computing DFT-D3 correction:
# coordination-number Cu 8.352 9.155 5.372 9.141 9.142 5.372 9.155 8.353
# diagonal-C6 Cu 175.00 175.00 175.00 175.00 175.00 175.00 175.00 175.00
EvdW_6 =   -0.045710
EvdW_8 =   -0.069701
IonicMinimize: 	Wolfe criterion not satisfied: alpha: 1  (E-E0)/|gdotd0|: -0.956275  gdotd/gdotd0: 0.909594 (taking cubic step)

Computing DFT-D3 correction:
# coordination-number Cu 8.349 9.152 5.408 9.129 9.130 5.408 9.153 8.350
# diagonal-C6 Cu 175.00 175.00 175.00 175.00 175.00 175.00 175.00 175.00
EvdW_6 =   -0.045709
EvdW_8 =   -0.069704

-------- Electronic minimization -----------
	Linear fluid (dielectric constant: 78.4, screening length: 8.12261 Bohr) occupying 0.418224 of unit cell:	Completed after 13 iterations at t[s]:    935.50
	FillingsUpdate:  mu: -0.152386812  nElectrons: 152.000000  magneticMoment: [ Abs: 0.00000  Tot: +0.00000 ]
ElecMinimize: Iter:   0  F: -1614.799903970932746  |grad|_K:  1.745e-06  alpha:  1.000e+00
	Linear fluid (dielectric constant: 78.4, screening length: 8.12261 Bohr) occupying 0.418368 of unit cell:	Completed after 17 iterations at t[s]:    944.82
	Linear fluid (dielectric constant: 78.4, screening length: 8.12261 Bohr) occupying 0.418245 of unit cell:	Completed after 17 iterations at t[s]:    947.99
	FillingsUpdate:  mu: -0.151313312  nElectrons: 152.000000  magneticMoment: [ Abs: 0.00000  Tot: +0.00000 ]
	SubspaceRotationAdjust: set factor to 0.633
ElecMinimize: Iter:   1  F: -1614.799954588402443  |grad|_K:  1.429e-06  alpha:  1.427e-01  linmin: -9.074e-06  t[s]:    952.36
	Linear fluid (dielectric constant: 78.4, screening length: 8.12261 Bohr) occupying 0.418234 of unit cell:	Completed after 10 iterations at t[s]:    956.16
	Linear fluid (dielectric constant: 78.4, screening length: 8.12261 Bohr) occupying 0.418222 of unit cell:	Completed after 10 iterations at t[s]:    960.25
	FillingsUpdate:  mu: -0.152062291  nElectrons: 152.000000  magneticMoment: [ Abs: 0.00000  Tot: +0.00000 ]
	SubspaceRotationAdjust: set factor to 0.73
ElecMinimize: Iter:   2  F: -1614.800022879204562  |grad|_K:  1.315e-06  alpha:  2.873e-01  linmin: -2.439e-06  t[s]:    965.46
	Linear fluid (dielectric constant: 78.4, screening length: 8.12261 Bohr) occupying 0.418206 of unit cell:	Completed after 12 iterations at t[s]:    969.30
	Linear fluid (dielectric constant: 78.4, screening length: 8.12261 Bohr) occupying 0.418213 of unit cell:	Completed after 10 iterations at t[s]:    972.33
	FillingsUpdate:  mu: -0.151748027  nElectrons: 152.000000  magneticMoment: [ Abs: 0.00000  Tot: +0.00000 ]
	SubspaceRotationAdjust: set factor to 0.814
ElecMinimize: Iter:   3  F: -1614.800055057392683  |grad|_K:  1.047e-06  alpha:  1.599e-01  linmin: -2.512e-07  t[s]:    976.71
	Linear fluid (dielectric constant: 78.4, screening length: 8.12261 Bohr) occupying 0.418199 of unit cell:	Completed after 12 iterations at t[s]:    980.54
	Linear fluid (dielectric constant: 78.4, screening length: 8.12261 Bohr) occupying 0.418199 of unit cell:	Completed after 0 iterations at t[s]:    983.30
	FillingsUpdate:  mu: -0.152711653  nElectrons: 152.000000  magneticMoment: [ Abs: 0.00000  Tot: +0.00000 ]
	SubspaceRotationAdjust: set factor to 0.889
ElecMinimize: Iter:   4  F: -1614.800075393953421  |grad|_K:  6.682e-07  alpha:  1.594e-01  linmin:  9.764e-06  t[s]:    987.77
	Linear fluid (dielectric constant: 78.4, screening length: 8.12261 Bohr) occupying 0.418250 of unit cell:	Completed after 15 iterations at t[s]:    991.76
	Linear fluid (dielectric constant: 78.4, screening length: 8.12261 Bohr) occupying 0.418268 of unit cell:	Completed after 9 iterations at t[s]:    995.11
	FillingsUpdate:  mu: -0.150626865  nElectrons: 152.000000  magneticMoment: [ Abs: 0.00000  Tot: +0.00000 ]
	SubspaceRotationAdjust: set factor to 0.745
ElecMinimize: Iter:   5  F: -1614.800086634895933  |grad|_K:  7.223e-07  alpha:  2.163e-01  linmin: -1.588e-05  t[s]:    999.53
	Linear fluid (dielectric constant: 78.4, screening length: 8.12261 Bohr) occupying 0.418247 of unit cell:	Completed after 15 iterations at t[s]:   1003.39
	Linear fluid (dielectric constant: 78.4, screening length: 8.12261 Bohr) occupying 0.418255 of unit cell:	Completed after 13 iterations at t[s]:   1006.58
	FillingsUpdate:  mu: -0.151878518  nElectrons: 152.000000  magneticMoment: [ Abs: 0.00000  Tot: +0.00000 ]
	SubspaceRotationAdjust: set factor to 0.521
ElecMinimize: Iter:   6  F: -1614.800094821401444  |grad|_K:  3.597e-07  alpha:  1.345e-01  linmin: -8.671e-07  t[s]:   1010.96
	Linear fluid (dielectric constant: 78.4, screening length: 8.12261 Bohr) occupying 0.418254 of unit cell:	Completed after 9 iterations at t[s]:   1014.71
	Linear fluid (dielectric constant: 78.4, screening length: 8.12261 Bohr) occupying 0.418254 of unit cell:	Completed after 7 iterations at t[s]:   1017.66
	FillingsUpdate:  mu: -0.151843592  nElectrons: 152.000000  magneticMoment: [ Abs: 0.00000  Tot: +0.00000 ]
	SubspaceRotationAdjust: set factor to 0.449
ElecMinimize: Iter:   7  F: -1614.800096262248644  |grad|_K:  1.825e-07  alpha:  9.559e-02  linmin:  1.339e-05  t[s]:   1022.25
	Linear fluid (dielectric constant: 78.4, screening length: 8.12261 Bohr) occupying 0.418254 of unit cell:	Completed after 7 iterations at t[s]:   1026.24
	Linear fluid (dielectric constant: 78.4, screening length: 8.12261 Bohr) occupying 0.418254 of unit cell:	Completed after 8 iterations at t[s]:   1029.27
	FillingsUpdate:  mu: -0.151798771  nElectrons: 152.000000  magneticMoment: [ Abs: 0.00000  Tot: +0.00000 ]
	SubspaceRotationAdjust: set factor to 0.416
ElecMinimize: Iter:   8  F: -1614.800097293898261  |grad|_K:  1.817e-07  alpha:  2.660e-01  linmin: -2.642e-05  t[s]:   1033.63
	Linear fluid (dielectric constant: 78.4, screening length: 8.12261 Bohr) occupying 0.418251 of unit cell:	Completed after 9 iterations at t[s]:   1037.35
	Linear fluid (dielectric constant: 78.4, screening length: 8.12261 Bohr) occupying 0.418253 of unit cell:	Completed after 8 iterations at t[s]:   1040.41
	FillingsUpdate:  mu: -0.151891306  nElectrons: 152.000000  magneticMoment: [ Abs: 0.00000  Tot: +0.00000 ]
	SubspaceRotationAdjust: set factor to 0.426
ElecMinimize: Iter:   9  F: -1614.800097740810315  |grad|_K:  8.385e-08  alpha:  1.160e-01  linmin:  5.752e-06  t[s]:   1044.79
	Linear fluid (dielectric constant: 78.4, screening length: 8.12261 Bohr) occupying 0.418253 of unit cell:	Completed after 2 iterations at t[s]:   1048.37
	Linear fluid (dielectric constant: 78.4, screening length: 8.12261 Bohr) occupying 0.418253 of unit cell:	Completed after 2 iterations at t[s]:   1051.24
	FillingsUpdate:  mu: -0.151900688  nElectrons: 152.000000  magneticMoment: [ Abs: 0.00000  Tot: +0.00000 ]
	SubspaceRotationAdjust: set factor to 0.454
ElecMinimize: Iter:  10  F: -1614.800097890604320  |grad|_K:  6.580e-08  alpha:  1.828e-01  linmin: -9.684e-05  t[s]:   1055.74
	Linear fluid (dielectric constant: 78.4, screening length: 8.12261 Bohr) occupying 0.418255 of unit cell:	Completed after 4 iterations at t[s]:   1059.37
	Linear fluid (dielectric constant: 78.4, screening length: 8.12261 Bohr) occupying 0.418255 of unit cell:	Completed after 2 iterations at t[s]:   1062.22
	FillingsUpdate:  mu: -0.151934022  nElectrons: 152.000000  magneticMoment: [ Abs: 0.00000  Tot: +0.00000 ]
	SubspaceRotationAdjust: set factor to 0.467
ElecMinimize: Iter:  11  F: -1614.800097964155384  |grad|_K:  4.683e-08  alpha:  1.460e-01  linmin: -8.122e-05  t[s]:   1066.62
	Linear fluid (dielectric constant: 78.4, screening length: 8.12261 Bohr) occupying 0.418258 of unit cell:	Completed after 5 iterations at t[s]:   1070.26
	Linear fluid (dielectric constant: 78.4, screening length: 8.12261 Bohr) occupying 0.418259 of unit cell:	Completed after 2 iterations at t[s]:   1073.14
	FillingsUpdate:  mu: -0.151877513  nElectrons: 152.000000  magneticMoment: [ Abs: 0.00000  Tot: +0.00000 ]
	SubspaceRotationAdjust: set factor to 0.49
ElecMinimize: Iter:  12  F: -1614.800098020700716  |grad|_K:  3.967e-08  alpha:  2.209e-01  linmin: -5.150e-05  t[s]:   1077.56
ElecMinimize: Converged (|Delta F|<1.000000e-07 for 2 iters).
Setting wave functions to eigenvectors of Hamiltonian
Converging empty states (this may take a while): |deigs|: 6.118e-07

Computing DFT-D3 correction:
# coordination-number Cu 8.349 9.152 5.408 9.129 9.130 5.408 9.153 8.350
# diagonal-C6 Cu 175.00 175.00 175.00 175.00 175.00 175.00 175.00 175.00
EvdW_6 =   -0.045709
EvdW_8 =   -0.069704

# Ionic positions in cartesian coordinates:
ion Cu   4.766629277537105   6.741029788352038  44.112328646794204 1
ion Cu  -0.000003948079463   6.741014660430246  39.325507044068381 1
ion Cu   2.383293482928376   3.370500166916080  46.459799623091328 1
ion Cu   2.383311251801056   3.370514197064775  41.701678315597967 1
ion Cu  -0.000008335469582  -0.000003059405467  34.563892544792161 1
ion Cu   0.000006631705523   0.000003570007390  29.806327895527772 1
ion Cu   2.383326369996366   3.370520483754062  36.940268809588169 1
ion Cu   2.383312269580619   3.370514192880877  32.154098120540013 1

# Forces in Cartesian coordinates:
force Cu  -0.000000566331814   0.000000560079498   0.005126764002461 1
force Cu  -0.000001874572081  -0.000002083085508   0.000707685673717 1
force Cu  -0.000002819441203  -0.000003161132546  -0.003967278147915 1
force Cu  -0.000000251970904  -0.000000256321632  -0.001495020442345 1
force Cu  -0.000002571682257   0.000000565243385   0.001416552457569 1
force Cu   0.000001151014016   0.000000997129709   0.003932926619350 1
force Cu   0.000004346468359   0.000001502651455  -0.000658797559350 1
force Cu  -0.000000707540371  -0.000000175650094  -0.005101749242503 1

# Energy components:
   A_diel =       -0.0001736185683157
   Eewald =     5559.9334641474069940
       EH =     7045.9467862845167474
     Eloc =   -14523.8202194233199407
      Enl =      292.9907059418735571
     EvdW =       -0.1154129499811822
      Exc =     -155.2348463502612503
 Exc_core =        0.3757297724933697
       KE =      165.1241693615532711
-------------------------------------
     Etot =    -1614.7997968342872355
       TS =        0.0003011864134682
-------------------------------------
        F =    -1614.8000980207007160


Dumping 'jdft.fillings' ... done
Dumping 'jdft.wfns' ... done
Dumping 'jdft.fluidState' ... done
Dumping 'jdft.ionpos' ... done
Dumping 'jdft.lattice' ... done
Dumping 'jdft.eigenvals' ... done
Dumping 'jdft.eigStats' ... 
	eMin: -4.288740 at state 0 ( [ +0.000000 +0.000000 +0.000000 ] spin 1 )
	HOMO: -0.152532 at state 132 ( [ +0.333333 +0.500000 +0.000000 ] spin -1 )
	mu  : -0.151878
	LUMO: -0.151339 at state 90 ( [ -0.083333 +0.250000 +0.000000 ] spin 1 )
	eMax: +0.231664 at state 144 ( [ +0.500000 +0.000000 +0.000000 ] spin -1 )
	HOMO-LUMO gap: +0.001193
	Optical gap  : +0.002285 at state 99 ( [ +0.000000 +0.375000 +0.000000 ] spin -1 )
Dumping 'jdft.Ecomponents' ... done
IonicMinimize: Iter:   1  F: -1614.800098020700716  |grad|_K:  1.922e-03  alpha:  3.000e+00  linmin: -9.970e-01  t[s]:   1091.57

#--- Lowdin population analysis ---
# oxidation-state Cu +0.012 +0.073 +0.189 +0.067 +0.066 +0.189 +0.073 +0.012
# magnetic-moments Cu +0.000 -0.000 +0.000 +0.000 +0.000 +0.000 +0.000 -0.000


Computing DFT-D3 correction:
# coordination-number Cu 8.358 9.108 5.590 9.100 9.087 5.588 9.101 8.350
# diagonal-C6 Cu 175.00 175.00 175.00 175.00 175.00 175.00 175.00 175.00
EvdW_6 =   -0.045701
EvdW_8 =   -0.069786

-------- Electronic minimization -----------
	Linear fluid (dielectric constant: 78.4, screening length: 8.12261 Bohr) occupying 0.418359 of unit cell:	Completed after 21 iterations at t[s]:   1095.64
	FillingsUpdate:  mu: -0.194638433  nElectrons: 152.000000  magneticMoment: [ Abs: 0.00000  Tot: +0.00000 ]
ElecMinimize: Iter:   0  F: -1614.306442062968472  |grad|_K:  1.127e-04  alpha:  1.000e+00
	Linear fluid (dielectric constant: 78.4, screening length: 8.12261 Bohr) occupying 0.421078 of unit cell:	Completed after 23 iterations at t[s]:   1104.99
	Linear fluid (dielectric constant: 78.4, screening length: 8.12261 Bohr) occupying 0.419951 of unit cell:	Completed after 22 iterations at t[s]:   1108.27
	FillingsUpdate:  mu: -0.177283087  nElectrons: 152.000000  magneticMoment: [ Abs: 0.00000  Tot: +0.00000 ]
	SubspaceRotationAdjust: set factor to 0.493
ElecMinimize: Iter:   1  F: -1614.529483414795095  |grad|_K:  1.060e-04  alpha:  1.722e-01  linmin:  2.042e-03  t[s]:   1112.68
	Linear fluid (dielectric constant: 78.4, screening length: 8.12261 Bohr) occupying 0.423167 of unit cell:	Completed after 21 iterations at t[s]:   1116.91
	Linear fluid (dielectric constant: 78.4, screening length: 8.12261 Bohr) occupying 0.423288 of unit cell:	Completed after 15 iterations at t[s]:   1120.06
	FillingsUpdate:  mu: -0.155862298  nElectrons: 152.000000  magneticMoment: [ Abs: 0.00000  Tot: +0.00000 ]
	SubspaceRotationAdjust: set factor to 0.528
ElecMinimize: Iter:   2  F: -1614.737427587077264  |grad|_K:  4.551e-05  alpha:  1.796e-01  linmin:  1.197e-04  t[s]:   1124.43
	Linear fluid (dielectric constant: 78.4, screening length: 8.12261 Bohr) occupying 0.424546 of unit cell:	Completed after 19 iterations at t[s]:   1128.48
	Linear fluid (dielectric constant: 78.4, screening length: 8.12261 Bohr) occupying 0.424051 of unit cell:	Completed after 18 iterations at t[s]:   1131.71
	FillingsUpdate:  mu: -0.135804680  nElectrons: 152.000000  magneticMoment: [ Abs: 0.00000  Tot: +0.00000 ]
	SubspaceRotationAdjust: set factor to 0.628
ElecMinimize: Iter:   3  F: -1614.762721890133207  |grad|_K:  2.633e-05  alpha:  1.056e-01  linmin:  8.264e-06  t[s]:   1136.10
	Linear fluid (dielectric constant: 78.4, screening length: 8.12261 Bohr) occupying 0.424034 of unit cell:	Completed after 18 iterations at t[s]:   1140.03
	Linear fluid (dielectric constant: 78.4, screening length: 8.12261 Bohr) occupying 0.423970 of unit cell:	Completed after 18 iterations at t[s]:   1143.43
	FillingsUpdate:  mu: -0.111970515  nElectrons: 152.000000  magneticMoment: [ Abs: 0.00000  Tot: +0.00000 ]
	SubspaceRotationAdjust: set factor to 0.735
ElecMinimize: Iter:   4  F: -1614.780646673478032  |grad|_K:  2.045e-05  alpha:  2.221e-01  linmin: -1.296e-05  t[s]:   1147.86
	Linear fluid (dielectric constant: 78.4, screening length: 8.12261 Bohr) occupying 0.421520 of unit cell:	Completed after 19 iterations at t[s]:   1151.78
	Linear fluid (dielectric constant: 78.4, screening length: 8.12261 Bohr) occupying 0.422274 of unit cell:	Completed after 18 iterations at t[s]:   1154.99
	FillingsUpdate:  mu: -0.155629738  nElectrons: 152.000000  magneticMoment: [ Abs: 0.00000  Tot: +0.00000 ]
	SubspaceRotationAdjust: set factor to 0.88
ElecMinimize: Iter:   5  F: -1614.788476470762589  |grad|_K:  1.613e-05  alpha:  1.598e-01  linmin:  3.479e-06  t[s]:   1159.36
	Linear fluid (dielectric constant: 78.4, screening length: 8.12261 Bohr) occupying 0.421072 of unit cell:	Completed after 17 iterations at t[s]:   1163.27
	Linear fluid (dielectric constant: 78.4, screening length: 8.12261 Bohr) occupying 0.421036 of unit cell:	Completed after 10 iterations at t[s]:   1166.29
	FillingsUpdate:  mu: -0.168451398  nElectrons: 152.000000  magneticMoment: [ Abs: 0.00000  Tot: -0.00000 ]
	SubspaceRotationAdjust: set factor to 0.913
ElecMinimize: Iter:   6  F: -1614.793443196924727  |grad|_K:  1.271e-05  alpha:  1.641e-01  linmin: -1.570e-05  t[s]:   1170.67
	Linear fluid (dielectric constant: 78.4, screening length: 8.12261 Bohr) occupying 0.421209 of unit cell:	Completed after 17 iterations at t[s]:   1174.90
	Linear fluid (dielectric constant: 78.4, screening length: 8.12261 Bohr) occupying 0.421197 of unit cell:	Completed after 12 iterations at t[s]:   1178.05
	FillingsUpdate:  mu: -0.136692178  nElectrons: 152.000000  magneticMoment: [ Abs: 0.00000  Tot: -0.00000 ]
	SubspaceRotationAdjust: set factor to 0.821
ElecMinimize: Iter:   7  F: -1614.796213945540558  |grad|_K:  1.164e-05  alpha:  1.467e-01  linmin:  8.677e-06  t[s]:   1182.42
	Linear fluid (dielectric constant: 78.4, screening length: 8.12261 Bohr) occupying 0.420494 of unit cell:	Completed after 17 iterations at t[s]:   1186.38
	Linear fluid (dielectric constant: 78.4, screening length: 8.12261 Bohr) occupying 0.420405 of unit cell:	Completed after 15 iterations at t[s]:   1189.53
	FillingsUpdate:  mu: -0.151845855  nElectrons: 152.000000  magneticMoment: [ Abs: 0.00000  Tot: -0.00000 ]
	SubspaceRotationAdjust: set factor to 0.878
ElecMinimize: Iter:   8  F: -1614.798790879657190  |grad|_K:  9.811e-06  alpha:  1.641e-01  linmin:  1.155e-06  t[s]:   1193.88
	Linear fluid (dielectric constant: 78.4, screening length: 8.12261 Bohr) occupying 0.419833 of unit cell:	Completed after 18 iterations at t[s]:   1197.88
	Linear fluid (dielectric constant: 78.4, screening length: 8.12261 Bohr) occupying 0.420024 of unit cell:	Completed after 16 iterations at t[s]:   1201.06
	FillingsUpdate:  mu: -0.157180259  nElectrons: 152.000000  magneticMoment: [ Abs: 0.00000  Tot: -0.00000 ]
	SubspaceRotationAdjust: set factor to 0.903
ElecMinimize: Iter:   9  F: -1614.800034840531453  |grad|_K:  4.207e-06  alpha:  1.112e-01  linmin: -3.541e-07  t[s]:   1205.66
	Linear fluid (dielectric constant: 78.4, screening length: 8.12261 Bohr) occupying 0.420185 of unit cell:	Completed after 16 iterations at t[s]:   1209.53
	Linear fluid (dielectric constant: 78.4, screening length: 8.12261 Bohr) occupying 0.420247 of unit cell:	Completed after 15 iterations at t[s]:   1212.65
	FillingsUpdate:  mu: -0.151829800  nElectrons: 152.000000  magneticMoment: [ Abs: 0.00000  Tot: -0.00000 ]
	SubspaceRotationAdjust: set factor to 0.874
ElecMinimize: Iter:  10  F: -1614.800352887605186  |grad|_K:  3.800e-06  alpha:  1.543e-01  linmin: -2.423e-06  t[s]:   1217.03
	Linear fluid (dielectric constant: 78.4, screening length: 8.12261 Bohr) occupying 0.420404 of unit cell:	Completed after 16 iterations at t[s]:   1220.89
	Linear fluid (dielectric constant: 78.4, screening length: 8.12261 Bohr) occupying 0.420369 of unit cell:	Completed after 15 iterations at t[s]:   1224.03
	FillingsUpdate:  mu: -0.155132567  nElectrons: 152.000000  magneticMoment: [ Abs: 0.00000  Tot: -0.00000 ]
	SubspaceRotationAdjust: set factor to 0.785
ElecMinimize: Iter:  11  F: -1614.800553162057895  |grad|_K:  2.109e-06  alpha:  1.191e-01  linmin: -5.372e-07  t[s]:   1228.42
	Linear fluid (dielectric constant: 78.4, screening length: 8.12261 Bohr) occupying 0.420526 of unit cell:	Completed after 15 iterations at t[s]:   1232.49
	Linear fluid (dielectric constant: 78.4, screening length: 8.12261 Bohr) occupying 0.420511 of unit cell:	Completed after 10 iterations at t[s]:   1235.68
	FillingsUpdate:  mu: -0.153563870  nElectrons: 152.000000  magneticMoment: [ Abs: 0.00000  Tot: -0.00000 ]
	SubspaceRotationAdjust: set factor to 0.858
ElecMinimize: Iter:  12  F: -1614.800608689437922  |grad|_K:  1.391e-06  alpha:  1.072e-01  linmin: -5.472e-07  t[s]:   1240.08
	Linear fluid (dielectric constant: 78.4, screening length: 8.12261 Bohr) occupying 0.420613 of unit cell:	Completed after 15 iterations at t[s]:   1244.02
	Linear fluid (dielectric constant: 78.4, screening length: 8.12261 Bohr) occupying 0.420684 of unit cell:	Completed after 12 iterations at t[s]:   1247.10
	FillingsUpdate:  mu: -0.152916814  nElectrons: 152.000000  magneticMoment: [ Abs: 0.00000  Tot: -0.00000 ]
	SubspaceRotationAdjust: set factor to 0.988
ElecMinimize: Iter:  13  F: -1614.800649600886118  |grad|_K:  1.158e-06  alpha:  1.818e-01  linmin: -1.017e-06  t[s]:   1251.46
	Linear fluid (dielectric constant: 78.4, screening length: 8.12261 Bohr) occupying 0.420828 of unit cell:	Completed after 11 iterations at t[s]:   1255.32
	Linear fluid (dielectric constant: 78.4, screening length: 8.12261 Bohr) occupying 0.420780 of unit cell:	Completed after 10 iterations at t[s]:   1258.34
	FillingsUpdate:  mu: -0.153500438  nElectrons: 152.000000  magneticMoment: [ Abs: 0.00000  Tot: -0.00000 ]
	SubspaceRotationAdjust: set factor to 1.08
ElecMinimize: Iter:  14  F: -1614.800668420454713  |grad|_K:  8.393e-07  alpha:  1.206e-01  linmin: -5.764e-07  t[s]:   1264.38
	Linear fluid (dielectric constant: 78.4, screening length: 8.12261 Bohr) occupying 0.420871 of unit cell:	Completed after 15 iterations at t[s]:   1268.31
	Linear fluid (dielectric constant: 78.4, screening length: 8.12261 Bohr) occupying 0.420880 of unit cell:	Completed after 9 iterations at t[s]:   1271.33
	FillingsUpdate:  mu: -0.152092147  nElectrons: 152.000000  magneticMoment: [ Abs: 0.00000  Tot: -0.00000 ]
	SubspaceRotationAdjust: set factor to 1.02
ElecMinimize: Iter:  15  F: -1614.800679322435599  |grad|_K:  7.639e-07  alpha:  1.330e-01  linmin:  7.527e-07  t[s]:   1275.71
	Linear fluid (dielectric constant: 78.4, screening length: 8.12261 Bohr) occupying 0.420920 of unit cell:	Completed after 15 iterations at t[s]:   1279.58
	Linear fluid (dielectric constant: 78.4, screening length: 8.12261 Bohr) occupying 0.420918 of unit cell:	Completed after 5 iterations at t[s]:   1282.48
	FillingsUpdate:  mu: -0.152729000  nElectrons: 152.000000  magneticMoment: [ Abs: 0.00000  Tot: -0.00000 ]
	SubspaceRotationAdjust: set factor to 1.1
ElecMinimize: Iter:  16  F: -1614.800687804452309  |grad|_K:  4.836e-07  alpha:  1.249e-01  linmin: -5.502e-07  t[s]:   1286.89
	Linear fluid (dielectric constant: 78.4, screening length: 8.12261 Bohr) occupying 0.420922 of unit cell:	Completed after 12 iterations at t[s]:   1290.68
	Linear fluid (dielectric constant: 78.4, screening length: 8.12261 Bohr) occupying 0.420923 of unit cell:	Completed after 7 iterations at t[s]:   1293.85
	FillingsUpdate:  mu: -0.153003326  nElectrons: 152.000000  magneticMoment: [ Abs: 0.00000  Tot: -0.00000 ]
	SubspaceRotationAdjust: set factor to 1.02
ElecMinimize: Iter:  17  F: -1614.800691533167083  |grad|_K:  4.674e-07  alpha:  1.370e-01  linmin: -2.554e-06  t[s]:   1298.31
	Linear fluid (dielectric constant: 78.4, screening length: 8.12261 Bohr) occupying 0.420931 of unit cell:	Completed after 15 iterations at t[s]:   1302.15
	Linear fluid (dielectric constant: 78.4, screening length: 8.12261 Bohr) occupying 0.420929 of unit cell:	Completed after 9 iterations at t[s]:   1305.20
	FillingsUpdate:  mu: -0.152700332  nElectrons: 152.000000  magneticMoment: [ Abs: 0.00000  Tot: -0.00000 ]
	SubspaceRotationAdjust: set factor to 0.726
ElecMinimize: Iter:  18  F: -1614.800694071490170  |grad|_K:  3.380e-07  alpha:  9.973e-02  linmin:  5.792e-08  t[s]:   1309.57
	Linear fluid (dielectric constant: 78.4, screening length: 8.12261 Bohr) occupying 0.420922 of unit cell:	Completed after 9 iterations at t[s]:   1313.38
	Linear fluid (dielectric constant: 78.4, screening length: 8.12261 Bohr) occupying 0.420922 of unit cell:	Completed after 0 iterations at t[s]:   1316.15
	FillingsUpdate:  mu: -0.152832827  nElectrons: 152.000000  magneticMoment: [ Abs: 0.00000  Tot: +0.00000 ]
	SubspaceRotationAdjust: set factor to 0.677
ElecMinimize: Iter:  19  F: -1614.800695404707994  |grad|_K:  1.941e-07  alpha:  1.003e-01  linmin: -4.384e-06  t[s]:   1320.59
	Linear fluid (dielectric constant: 78.4, screening length: 8.12261 Bohr) occupying 0.420918 of unit cell:	Completed after 8 iterations at t[s]:   1324.57
	Linear fluid (dielectric constant: 78.4, screening length: 8.12261 Bohr) occupying 0.420916 of unit cell:	Completed after 5 iterations at t[s]:   1327.55
	FillingsUpdate:  mu: -0.152936183  nElectrons: 152.000000  magneticMoment: [ Abs: 0.00000  Tot: +0.00000 ]
	SubspaceRotationAdjust: set factor to 0.68
ElecMinimize: Iter:  20  F: -1614.800696170339734  |grad|_K:  1.689e-07  alpha:  1.743e-01  linmin: -1.816e-06  t[s]:   1331.98
	Linear fluid (dielectric constant: 78.4, screening length: 8.12261 Bohr) occupying 0.420913 of unit cell:	Completed after 10 iterations at t[s]:   1335.88
	Linear fluid (dielectric constant: 78.4, screening length: 8.12261 Bohr) occupying 0.420914 of unit cell:	Completed after 6 iterations at t[s]:   1338.85
	FillingsUpdate:  mu: -0.152844817  nElectrons: 152.000000  magneticMoment: [ Abs: 0.00000  Tot: +0.00000 ]
	SubspaceRotationAdjust: set factor to 0.673
ElecMinimize: Iter:  21  F: -1614.800696555845434  |grad|_K:  8.988e-08  alpha:  1.160e-01  linmin:  3.510e-06  t[s]:   1343.24
	Linear fluid (dielectric constant: 78.4, screening length: 8.12261 Bohr) occupying 0.420911 of unit cell:	Completed after 7 iterations at t[s]:   1346.99
	Linear fluid (dielectric constant: 78.4, screening length: 8.12261 Bohr) occupying 0.420911 of unit cell:	Completed after 2 iterations at t[s]:   1349.90
	FillingsUpdate:  mu: -0.152837173  nElectrons: 152.000000  magneticMoment: [ Abs: 0.00000  Tot: +0.00000 ]
	SubspaceRotationAdjust: set factor to 0.711
ElecMinimize: Iter:  22  F: -1614.800696673299399  |grad|_K:  7.253e-08  alpha:  1.250e-01  linmin: -2.024e-05  t[s]:   1354.43
	Linear fluid (dielectric constant: 78.4, screening length: 8.12261 Bohr) occupying 0.420907 of unit cell:	Completed after 2 iterations at t[s]:   1358.07
	Linear fluid (dielectric constant: 78.4, screening length: 8.12261 Bohr) occupying 0.420905 of unit cell:	Completed after 2 iterations at t[s]:   1360.91
	FillingsUpdate:  mu: -0.152816124  nElectrons: 152.000000  magneticMoment: [ Abs: 0.00000  Tot: +0.00000 ]
	SubspaceRotationAdjust: set factor to 0.817
ElecMinimize: Iter:  23  F: -1614.800696777301482  |grad|_K:  5.810e-08  alpha:  1.697e-01  linmin:  1.014e-05  t[s]:   1365.37
	Linear fluid (dielectric constant: 78.4, screening length: 8.12261 Bohr) occupying 0.420898 of unit cell:	Completed after 2 iterations at t[s]:   1369.11
	Linear fluid (dielectric constant: 78.4, screening length: 8.12261 Bohr) occupying 0.420899 of unit cell:	Completed after 1 iterations at t[s]:   1371.95
	FillingsUpdate:  mu: -0.152812440  nElectrons: 152.000000  magneticMoment: [ Abs: 0.00000  Tot: +0.00000 ]
	SubspaceRotationAdjust: set factor to 0.962
ElecMinimize: Iter:  24  F: -1614.800696832423682  |grad|_K:  4.843e-08  alpha:  1.407e-01  linmin: -8.070e-06  t[s]:   1376.37
	Linear fluid (dielectric constant: 78.4, screening length: 8.12261 Bohr) occupying 0.420892 of unit cell:	Completed after 7 iterations at t[s]:   1380.06
	Linear fluid (dielectric constant: 78.4, screening length: 8.12261 Bohr) occupying 0.420892 of unit cell:	Completed after 0 iterations at t[s]:   1382.99
	FillingsUpdate:  mu: -0.152899053  nElectrons: 152.000000  magneticMoment: [ Abs: 0.00000  Tot: +0.00000 ]
	SubspaceRotationAdjust: set factor to 0.975
ElecMinimize: Iter:  25  F: -1614.800696874177902  |grad|_K:  4.201e-08  alpha:  1.525e-01  linmin: -5.835e-05  t[s]:   1387.57
ElecMinimize: Converged (|Delta F|<1.000000e-07 for 2 iters).
Setting wave functions to eigenvectors of Hamiltonian
Converging empty states (this may take a while): |deigs|: 1.163e-05

Computing DFT-D3 correction:
# coordination-number Cu 8.358 9.108 5.590 9.100 9.087 5.588 9.101 8.350
# diagonal-C6 Cu 175.00 175.00 175.00 175.00 175.00 175.00 175.00 175.00
EvdW_6 =   -0.045701
EvdW_8 =   -0.069786

# Ionic positions in cartesian coordinates:
ion Cu   4.766566975556975   6.741009534707066  44.173962196408539 1
ion Cu  -0.000039494689577   6.741000086597035  39.352084012016135 1
[...]

-------- Electronic minimization -----------
	Linear fluid (dielectric constant: 78.4, screening length: 8.12261 Bohr) occupying 0.420766 of unit cell:	Completed after 11 iterations at t[s]:   1414.16
	FillingsUpdate:  mu: -0.152377397  nElectrons: 152.000000  magneticMoment: [ Abs: 0.00000  Tot: +0.00000 ]
ElecMinimize: Iter:   0  F: -1614.800621034967207  |grad|_K:  1.226e-06  alpha:  1.000e+00
	Linear fluid (dielectric constant: 78.4, screening length: 8.12261 Bohr) occupying 0.420636 of unit cell:	Completed after 18 iterations at t[s]:   1423.42
	Linear fluid (dielectric constant: 78.4, screening length: 8.12261 Bohr) occupying 0.420746 of unit cell:	Completed after 18 iterations at t[s]:   1426.62
	FillingsUpdate:  mu: -0.154054545  nElectrons: 152.000000  magneticMoment: [ Abs: 0.00000  Tot: +0.00000 ]
	SubspaceRotationAdjust: set factor to 0.851
ElecMinimize: Iter:   1  F: -1614.800644854776237  |grad|_K:  1.187e-06  alpha:  1.363e-01  linmin:  1.781e-05  t[s]:   1430.98
	Linear fluid (dielectric constant: 78.4, screening length: 8.12261 Bohr) occupying 0.420801 of unit cell:	Completed after 16 iterations at t[s]:   1434.90
	Linear fluid (dielectric constant: 78.4, screening length: 8.12261 Bohr) occupying 0.420807 of unit cell:	Completed after 9 iterations at t[s]:   1437.92
	FillingsUpdate:  mu: -0.152639730  nElectrons: 152.000000  magneticMoment: [ Abs: 0.00000  Tot: +0.00000 ]
	SubspaceRotationAdjust: set factor to 0.692
ElecMinimize: Iter:   2  F: -1614.800669716783204  |grad|_K:  1.193e-06  alpha:  1.518e-01  linmin: -9.176e-07  t[s]:   1442.38
	Linear fluid (dielectric constant: 78.4, screening length: 8.12261 Bohr) occupying 0.420860 of unit cell:	Completed after 15 iterations at t[s]:   1446.49
	Linear fluid (dielectric constant: 78.4, screening length: 8.12261 Bohr) occupying 0.420850 of unit cell:	Completed after 9 iterations at t[s]:   1449.50
	FillingsUpdate:  mu: -0.152412103  nElectrons: 152.000000  magneticMoment: [ Abs: 0.00000  Tot: +0.00000 ]
	SubspaceRotationAdjust: set factor to 0.727
ElecMinimize: Iter:   3  F: -1614.800690064071205  |grad|_K:  6.491e-07  alpha:  1.228e-01  linmin: -1.922e-06  t[s]:   1453.87
	Linear fluid (dielectric constant: 78.4, screening length: 8.12261 Bohr) occupying 0.420847 of unit cell:	Completed after 12 iterations at t[s]:   1457.65
	Linear fluid (dielectric constant: 78.4, screening length: 8.12261 Bohr) occupying 0.420846 of unit cell:	Completed after 8 iterations at t[s]:   1460.67
	FillingsUpdate:  mu: -0.153487543  nElectrons: 152.000000  magneticMoment: [ Abs: 0.00000  Tot: +0.00000 ]
	SubspaceRotationAdjust: set factor to 0.625
ElecMinimize: Iter:   4  F: -1614.800697041495141  |grad|_K:  4.685e-07  alpha:  1.423e-01  linmin: -3.343e-07  t[s]:   1465.06
	Linear fluid (dielectric constant: 78.4, screening length: 8.12261 Bohr) occupying 0.420871 of unit cell:	Completed after 13 iterations at t[s]:   1468.88
	Linear fluid (dielectric constant: 78.4, screening length: 8.12261 Bohr) occupying 0.420865 of unit cell:	Completed after 9 iterations at t[s]:   1471.89
	FillingsUpdate:  mu: -0.152881781  nElectrons: 152.000000  magneticMoment: [ Abs: 0.00000  Tot: +0.00000 ]
	SubspaceRotationAdjust: set factor to 0.634
ElecMinimize: Iter:   5  F: -1614.800699767098877  |grad|_K:  2.628e-07  alpha:  1.067e-01  linmin:  2.731e-06  t[s]:   1476.52
	Linear fluid (dielectric constant: 78.4, screening length: 8.12261 Bohr) occupying 0.420870 of unit cell:	Completed after 10 iterations at t[s]:   1480.34
	Linear fluid (dielectric constant: 78.4, screening length: 8.12261 Bohr) occupying 0.420877 of unit cell:	Completed after 10 iterations at t[s]:   1483.36
	FillingsUpdate:  mu: -0.152619218  nElectrons: 152.000000  magneticMoment: [ Abs: 0.00000  Tot: +0.00000 ]
	SubspaceRotationAdjust: set factor to 0.634
ElecMinimize: Iter:   6  F: -1614.800701692490520  |grad|_K:  2.727e-07  alpha:  2.399e-01  linmin:  1.928e-05  t[s]:   1487.73
	Linear fluid (dielectric constant: 78.4, screening length: 8.12261 Bohr) occupying 0.420870 of unit cell:	Completed after 14 iterations at t[s]:   1491.62
	Linear fluid (dielectric constant: 78.4, screening length: 8.12261 Bohr) occupying 0.420874 of unit cell:	Completed after 10 iterations at t[s]:   1494.64
	FillingsUpdate:  mu: -0.152824585  nElectrons: 152.000000  magneticMoment: [ Abs: 0.00000  Tot: +0.00000 ]
	SubspaceRotationAdjust: set factor to 0.508
ElecMinimize: Iter:   7  F: -1614.800702671408771  |grad|_K:  1.308e-07  alpha:  1.134e-01  linmin:  3.481e-06  t[s]:   1499.07
	Linear fluid (dielectric constant: 78.4, screening length: 8.12261 Bohr) occupying 0.420870 of unit cell:	Completed after 7 iterations at t[s]:   1502.83
	Linear fluid (dielectric constant: 78.4, screening length: 8.12261 Bohr) occupying 0.420871 of unit cell:	Completed after 2 iterations at t[s]:   1505.91
	FillingsUpdate:  mu: -0.152857852  nElectrons: 152.000000  magneticMoment: [ Abs: 0.00000  Tot: +0.00000 ]
	SubspaceRotationAdjust: set factor to 0.493
ElecMinimize: Iter:   8  F: -1614.800702873602859  |grad|_K:  7.397e-08  alpha:  1.015e-01  linmin:  8.145e-05  t[s]:   1510.28
	Linear fluid (dielectric constant: 78.4, screening length: 8.12261 Bohr) occupying 0.420868 of unit cell:	Completed after 2 iterations at t[s]:   1513.86
	Linear fluid (dielectric constant: 78.4, screening length: 8.12261 Bohr) occupying 0.420864 of unit cell:	Completed after 7 iterations at t[s]:   1516.82
	FillingsUpdate:  mu: -0.152962754  nElectrons: 152.000000  magneticMoment: [ Abs: 0.00000  Tot: +0.00000 ]
	SubspaceRotationAdjust: set factor to 0.512
ElecMinimize: Iter:   9  F: -1614.800703058617501  |grad|_K:  7.525e-08  alpha:  2.948e-01  linmin:  1.076e-04  t[s]:   1521.17
	Linear fluid (dielectric constant: 78.4, screening length: 8.12261 Bohr) occupying 0.420861 of unit cell:	Completed after 9 iterations at t[s]:   1524.91
	Linear fluid (dielectric constant: 78.4, screening length: 8.12261 Bohr) occupying 0.420863 of unit cell:	Completed after 8 iterations at t[s]:   1527.88
	FillingsUpdate:  mu: -0.152941458  nElectrons: 152.000000  magneticMoment: [ Abs: 0.00000  Tot: +0.00000 ]
	SubspaceRotationAdjust: set factor to 0.456
ElecMinimize: Iter:  10  F: -1614.800703132068293  |grad|_K:  4.411e-08  alpha:  1.131e-01  linmin:  1.548e-05  t[s]:   1532.33
	Linear fluid (dielectric constant: 78.4, screening length: 8.12261 Bohr) occupying 0.420863 of unit cell:	Completed after 5 iterations at t[s]:   1536.23
	Linear fluid (dielectric constant: 78.4, screening length: 8.12261 Bohr) occupying 0.420863 of unit cell:	Completed after 2 iterations at t[s]:   1539.06
	FillingsUpdate:  mu: -0.152884806  nElectrons: 152.000000  magneticMoment: [ Abs: 0.00000  Tot: +0.00000 ]
	SubspaceRotationAdjust: set factor to 0.438
ElecMinimize: Iter:  11  F: -1614.800703172217027  |grad|_K:  3.529e-08  alpha:  1.771e-01  linmin: -2.374e-04  t[s]:   1543.42
ElecMinimize: Converged (|Delta F|<1.000000e-07 for 2 iters).
Setting wave functions to eigenvectors of Hamiltonian
Converging empty states (this may take a while): |deigs|: 1.135e-07

Computing DFT-D3 correction:
# coordination-number Cu 8.336 9.124 5.592 9.083 9.076 5.587 9.121 8.329
# diagonal-C6 Cu 175.00 175.00 175.00 175.00 175.00 175.00 175.00 175.00
EvdW_6 =   -0.045704
EvdW_8 =   -0.069779

# Ionic positions in cartesian coordinates:
ion Cu   4.766571242486272   6.740963427402262  44.179960701444884 1
ion Cu  -0.000023464299837   6.741016457682447  39.342323336756635 1
ion Cu   2.383335774252507   3.370490239633293  46.400262413983000 1
ion Cu   2.383286191601281   3.370478510925632  41.681093203568551 1
ion Cu   0.000033534393835   0.000011339002187  34.586211240045365 1
ion Cu  -0.000004999058594  -0.000006286910298  29.863272757489273 1
ion Cu   2.383404077705050   3.370582691677734  36.925581054425180 1
ion Cu   2.383264642919487   3.370557620586744  32.085196292287094 1

# Forces in Cartesian coordinates:
force Cu   0.000000904225628   0.000001975547350  -0.000377972180802 1
force Cu   0.000000727598762  -0.000000323552969   0.000162512550904 1
force Cu  -0.000001403376818  -0.000002787593080   0.000079783016050 1
force Cu  -0.000001740003635  -0.000000237550001   0.000001779297072 1
force Cu   0.000002274615349   0.000004615183209  -0.000138209359750 1
force Cu  -0.000002258329520   0.000001961858332   0.000041506027207 1
force Cu   0.000000619086614  -0.000003304967213  -0.000169673632248 1
force Cu  -0.000002746893516  -0.000005163176484   0.000405477006467 1

# Energy components:
   A_diel =       -0.0002193076883367
   Eewald =     5567.7153005504615066
       EH =     7053.6097648785844285
     Eloc =   -14539.2609180672443472
      Enl =      292.9860266807534117
     EvdW =       -0.1154834721789441
      Exc =     -155.2393777680520373
 Exc_core =        0.3757293669503500
       KE =      165.1287882040859358
-------------------------------------
     Etot =    -1614.8003889343267474
       TS =        0.0003142378903739
-------------------------------------
        F =    -1614.8007031722170268


Dumping 'jdft.fillings' ... done
Dumping 'jdft.wfns' ... done
Dumping 'jdft.fluidState' ... done
Dumping 'jdft.ionpos' ... done
Dumping 'jdft.lattice' ... done
Dumping 'jdft.eigenvals' ... done
Dumping 'jdft.eigStats' ... 
	eMin: -4.289348 at state 0 ( [ +0.000000 +0.000000 +0.000000 ] spin 1 )
	HOMO: -0.153491 at state 36 ( [ +0.333333 +0.500000 +0.000000 ] spin 1 )
	mu  : -0.152885
	LUMO: -0.152837 at state 5 ( [ +0.000000 -0.375000 +0.000000 ] spin 1 )
	eMax: +0.232241 at state 144 ( [ +0.500000 +0.000000 +0.000000 ] spin -1 )
	HOMO-LUMO gap: +0.000654
	Optical gap  : +0.001178 at state 3 ( [ +0.000000 +0.375000 +0.000000 ] spin 1 )
Dumping 'jdft.Ecomponents' ... done
IonicMinimize: Iter:   3  F: -1614.800703172217027  |grad|_K:  1.274e-04  alpha:  1.000e+00  linmin:  7.808e-01  t[s]:   1555.20

#--- Lowdin population analysis ---
# oxidation-state Cu +0.012 +0.074 +0.185 +0.068 +0.068 +0.185 +0.074 +0.012
# magnetic-moments Cu -0.000 -0.000 +0.000 +0.000 +0.000 +0.000 +0.000 -0.000


Computing DFT-D3 correction:
# coordination-number Cu 8.340 9.123 5.587 9.087 9.081 5.584 9.120 8.335
# diagonal-C6 Cu 175.00 175.00 175.00 175.00 175.00 175.00 175.00 175.00
EvdW_6 =   -0.045706
EvdW_8 =   -0.069785

-------- Electronic minimization -----------
	Linear fluid (dielectric constant: 78.4, screening length: 8.12261 Bohr) occupying 0.420837 of unit cell:	Completed after 12 iterations at t[s]:   1560.52
	FillingsUpdate:  mu: -0.153537921  nElectrons: 152.000000  magneticMoment: [ Abs: 0.00000  Tot: +0.00000 ]
ElecMinimize: Iter:   0  F: -1614.800696687806067  |grad|_K:  4.169e-07  alpha:  1.000e+00
	Linear fluid (dielectric constant: 78.4, screening length: 8.12261 Bohr) occupying 0.420956 of unit cell:	Completed after 16 iterations at t[s]:   1570.45
	Linear fluid (dielectric constant: 78.4, screening length: 8.12261 Bohr) occupying 0.420851 of unit cell:	Completed after 16 iterations at t[s]:   1573.62
	FillingsUpdate:  mu: -0.152756042  nElectrons: 152.000000  magneticMoment: [ Abs: 0.00000  Tot: +0.00000 ]
	SubspaceRotationAdjust: set factor to 0.474
ElecMinimize: Iter:   1  F: -1614.800699045726105  |grad|_K:  2.661e-07  alpha:  1.167e-01  linmin:  4.469e-05  t[s]:   1578.00
	Linear fluid (dielectric constant: 78.4, screening length: 8.12261 Bohr) occupying 0.420854 of unit cell:	Completed after 8 iterations at t[s]:   1581.77
	Linear fluid (dielectric constant: 78.4, screening length: 8.12261 Bohr) occupying 0.420857 of unit cell:	Completed after 9 iterations at t[s]:   1584.77
	FillingsUpdate:  mu: -0.152384391  nElectrons: 152.000000  magneticMoment: [ Abs: 0.00000  Tot: -0.00000 ]
	SubspaceRotationAdjust: set factor to 0.576
ElecMinimize: Iter:   2  F: -1614.800700969142554  |grad|_K:  2.585e-07  alpha:  2.335e-01  linmin: -5.116e-05  t[s]:   1589.20
	Linear fluid (dielectric constant: 78.4, screening length: 8.12261 Bohr) occupying 0.420839 of unit cell:	Completed after 10 iterations at t[s]:   1593.14
	Linear fluid (dielectric constant: 78.4, screening length: 8.12261 Bohr) occupying 0.420840 of unit cell:	Completed after 2 iterations at t[s]:   1596.18
	FillingsUpdate:  mu: -0.152810736  nElectrons: 152.000000  magneticMoment: [ Abs: 0.00000  Tot: -0.00000 ]
	SubspaceRotationAdjust: set factor to 0.717
ElecMinimize: Iter:   3  F: -1614.800702749195807  |grad|_K:  2.052e-07  alpha:  2.284e-01  linmin:  4.921e-06  t[s]:   1600.55
	Linear fluid (dielectric constant: 78.4, screening length: 8.12261 Bohr) occupying 0.420826 of unit cell:	Completed after 9 iterations at t[s]:   1604.41
	Linear fluid (dielectric constant: 78.4, screening length: 8.12261 Bohr) occupying 0.420830 of unit cell:	Completed after 8 iterations at t[s]:   1607.37
	FillingsUpdate:  mu: -0.153095387  nElectrons: 152.000000  magneticMoment: [ Abs: 0.00000  Tot: -0.00000 ]
	SubspaceRotationAdjust: set factor to 0.794
ElecMinimize: Iter:   4  F: -1614.800703498475286  |grad|_K:  1.522e-07  alpha:  1.528e-01  linmin:  9.546e-06  t[s]:   1611.73
	Linear fluid (dielectric constant: 78.4, screening length: 8.12261 Bohr) occupying 0.420835 of unit cell:	Completed after 10 iterations at t[s]:   1615.50
	Linear fluid (dielectric constant: 78.4, screening length: 8.12261 Bohr) occupying 0.420837 of unit cell:	Completed after 8 iterations at t[s]:   1618.54
	FillingsUpdate:  mu: -0.152669348  nElectrons: 152.000000  magneticMoment: [ Abs: 0.00000  Tot: -0.00000 ]
	SubspaceRotationAdjust: set factor to 0.692
ElecMinimize: Iter:   5  F: -1614.800704093226159  |grad|_K:  1.489e-07  alpha:  2.207e-01  linmin: -4.576e-07  t[s]:   1622.93
	Linear fluid (dielectric constant: 78.4, screening length: 8.12261 Bohr) occupying 0.420828 of unit cell:	Completed after 12 iterations at t[s]:   1626.94
	Linear fluid (dielectric constant: 78.4, screening length: 8.12261 Bohr) occupying 0.420831 of unit cell:	Completed after 8 iterations at t[s]:   1629.90
	FillingsUpdate:  mu: -0.152866904  nElectrons: 152.000000  magneticMoment: [ Abs: 0.00000  Tot: -0.00000 ]
	SubspaceRotationAdjust: set factor to 0.606
ElecMinimize: Iter:   6  F: -1614.800704506159263  |grad|_K:  1.086e-07  alpha:  1.601e-01  linmin:  2.141e-06  t[s]:   1634.27
	Linear fluid (dielectric constant: 78.4, screening length: 8.12261 Bohr) occupying 0.420827 of unit cell:	Completed after 9 iterations at t[s]:   1638.02
	Linear fluid (dielectric constant: 78.4, screening length: 8.12261 Bohr) occupying 0.420828 of unit cell:	Completed after 5 iterations at t[s]:   1640.91
	FillingsUpdate:  mu: -0.152917363  nElectrons: 152.000000  magneticMoment: [ Abs: 0.00000  Tot: -0.00000 ]
	SubspaceRotationAdjust: set factor to 0.493
ElecMinimize: Iter:   7  F: -1614.800704665820376  |grad|_K:  5.341e-08  alpha:  1.163e-01  linmin:  4.935e-06  t[s]:   1645.28
	Linear fluid (dielectric constant: 78.4, screening length: 8.12261 Bohr) occupying 0.420828 of unit cell:	Completed after 6 iterations at t[s]:   1649.06
	Linear fluid (dielectric constant: 78.4, screening length: 8.12261 Bohr) occupying 0.420829 of unit cell:	Completed after 2 iterations at t[s]:   1651.93
	FillingsUpdate:  mu: -0.152881460  nElectrons: 152.000000  magneticMoment: [ Abs: 0.00000  Tot: -0.00000 ]
	SubspaceRotationAdjust: set factor to 0.464
ElecMinimize: Iter:   8  F: -1614.800704712853985  |grad|_K:  4.119e-08  alpha:  1.416e-01  linmin: -5.079e-05  t[s]:   1656.52
	Linear fluid (dielectric constant: 78.4, screening length: 8.12261 Bohr) occupying 0.420829 of unit cell:	Completed after 2 iterations at t[s]:   1660.09
	Linear fluid (dielectric constant: 78.4, screening length: 8.12261 Bohr) occupying 0.420830 of unit cell:	Completed after 2 iterations at t[s]:   1662.92
	FillingsUpdate:  mu: -0.152847658  nElectrons: 152.000000  magneticMoment: [ Abs: 0.00000  Tot: -0.00000 ]
	SubspaceRotationAdjust: set factor to 0.455
ElecMinimize: Iter:   9  F: -1614.800704751669855  |grad|_K:  3.242e-08  alpha:  1.963e-01  linmin:  4.803e-05  t[s]:   1667.29
ElecMinimize: Converged (|Delta F|<1.000000e-07 for 2 iters).
Setting wave functions to eigenvectors of Hamiltonian
Converging empty states (this may take a while): |deigs|: 9.037e-09

Computing DFT-D3 correction:
# coordination-number Cu 8.340 9.123 5.587 9.087 9.081 5.584 9.120 8.335
# diagonal-C6 Cu 175.00 175.00 175.00 175.00 175.00 175.00 175.00 175.00
EvdW_6 =   -0.045706
EvdW_8 =   -0.069785

# Ionic positions in cartesian coordinates:
ion Cu   4.766581560607627   6.740982669764053  44.177009605728017 1
ion Cu  -0.000016647006860   6.741015548626192  39.343356032148705 1
ion Cu   2.383327169390275   3.370473749092778  46.401285383352338 1
ion Cu   2.383280370485543   3.370481502199052  41.681400343984727 1
ion Cu   0.000045244233170   0.000044099039891  34.584904896833962 1
ion Cu  -0.000014015626632   0.000010676560165  29.863080475645660 1
ion Cu   2.383410369869593   3.370561273989385  36.924531194021846 1
ion Cu   2.383252948047284   3.370524480728486  32.088333068284719 1

# Forces in Cartesian coordinates:
force Cu   0.000000521420686  -0.000000415547074  -0.000154488755120 1
force Cu   0.000001148805752  -0.000001322204098  -0.000077974036363 1
force Cu  -0.000001459350791  -0.000000973722093  -0.000084727592889 1
force Cu  -0.000001846697161   0.000000360083357  -0.000048002292366 1
force Cu   0.000003002582594  -0.000000451390237  -0.000001191725484 1
force Cu  -0.000002779694473  -0.000001335488450   0.000149077792459 1
force Cu   0.000000110737073   0.000000482155612  -0.000008286388314 1
force Cu  -0.000001707064587  -0.000000274090227   0.000192249785309 1

# Energy components:
   A_diel =       -0.0002180066336936
   Eewald =     5568.3870526920254633
       EH =     7054.2843027594190062
     Eloc =   -14540.6073260515913717
      Enl =      292.9857499122309150
     EvdW =       -0.1154906082482191
      Exc =     -155.2394166662204213
 Exc_core =        0.3757296314655151
       KE =      165.1292239886317077
-------------------------------------
     Etot =    -1614.8003923489222871
       TS =        0.0003124027476639
-------------------------------------
        F =    -1614.8007047516698549


Dumping 'jdft.fillings' ... done
Dumping 'jdft.wfns' ... done
Dumping 'jdft.fluidState' ... done
Dumping 'jdft.ionpos' ... done
Dumping 'jdft.lattice' ... done
Dumping 'jdft.eigenvals' ... done
Dumping 'jdft.eigStats' ... 
	eMin: -4.289351 at state 0 ( [ +0.000000 +0.000000 +0.000000 ] spin 1 )
	HOMO: -0.153472 at state 164 ( [ -0.333333 +0.500000 +0.000000 ] spin -1 )
	mu  : -0.152848
	LUMO: -0.152719 at state 3 ( [ +0.000000 +0.375000 +0.000000 ] spin 1 )
	eMax: +0.232234 at state 48 ( [ +0.500000 +0.000000 +0.000000 ] spin 1 )
	HOMO-LUMO gap: +0.000753
	Optical gap  : +0.001246 at state 5 ( [ +0.000000 -0.375000 +0.000000 ] spin 1 )
Dumping 'jdft.Ecomponents' ... done
IonicMinimize: Iter:   4  F: -1614.800704751669855  |grad|_K:  6.409e-05  alpha:  1.000e+00  linmin: -5.625e-01  t[s]:   1679.50
IonicMinimize: Converged (|grad|_K<1.000000e-04).

#--- Lowdin population analysis ---
# oxidation-state Cu +0.012 +0.073 +0.185 +0.068 +0.068 +0.185 +0.073 +0.012
# magnetic-moments Cu +0.000 +0.000 +0.000 -0.000 -0.000 +0.000 +0.000 +0.000


Dumping 'jdft.n_up' ... done
Dumping 'jdft.n_dn' ... done
Dumping 'jdft.tau_up' ... done
Dumping 'jdft.tau_dn' ... done
Dumping 'jdft.eigenvals' ... done
Dumping 'jdft.eigStats' ... 
	eMin: -4.289351 at state 0 ( [ +0.000000 +0.000000 +0.000000 ] spin 1 )
	HOMO: -0.153472 at state 164 ( [ -0.333333 +0.500000 +0.000000 ] spin -1 )
	mu  : -0.152848
	LUMO: -0.152719 at state 3 ( [ +0.000000 +0.375000 +0.000000 ] spin 1 )
	eMax: +0.232234 at state 48 ( [ +0.500000 +0.000000 +0.000000 ] spin 1 )
	HOMO-LUMO gap: +0.000753
	Optical gap  : +0.001246 at state 5 ( [ +0.000000 -0.375000 +0.000000 ] spin 1 )
Dumping 'jdft.kPts' ... done
Dumping 'jdft.dosUp' ... done.
Dumping 'jdft.dosDn' ... done.
End date and time: Mon Dec  6 15:54:06 2021  (Duration: 0-0:28:08.27)
Done!
