
*************** JDFTx 1.6.0  ***************

Start date and time: Sat Feb 19 22:49:06 2022
Executable /projects/musgravc/apps/jdftx-1.6.1/build/jdftx with command-line: -i in
Running on hosts (process indices):  shas0208.rc.int.colorado.edu (0-23)
Divided in process groups (process indices):  0 (0)  1 (1)  2 (2)  3 (3)  4 (4)  5 (5)  6 (6)  7 (7)  8 (8)  9 (9)  10 (10)  11 (11)  12 (12)  13 (13)  14 (14)  15 (15)  16 (16)  17 (17)  18 (18)  19 (19)  20 (20)  21 (21)  22 (22)  23 (23)
Resource initialization completed at t[s]:      0.00
Run totals: 24 processes, 24 threads, 0 GPUs


Input parsed successfully to the following command list (including defaults):

basis kpoint-dependent
converge-empty-states yes
coords-type Cartesian
core-overlap-check none
coulomb-interaction Periodic
davidson-band-ratio 1.1
density-of-states Etol 1.000000e-06 Esigma 1.000000e-03 \
		Complete \
	Total \
	OrthoOrbital Ag 1   s \
	OrthoOrbital Ag 1   p \
	OrthoOrbital Ag 1   px \
	OrthoOrbital Ag 1   py \
	OrthoOrbital Ag 1   pz \
	OrthoOrbital Ag 1   d \
	OrthoOrbital Ag 1   dxy \
	OrthoOrbital Ag 1   dyz \
	OrthoOrbital Ag 1   dz2 \
	OrthoOrbital Ag 1   dxz \
	OrthoOrbital Ag 1   dx2-y2 \
	OrthoOrbital Ag 2   s \
	OrthoOrbital Ag 2   p \
	OrthoOrbital Ag 2   px \
	OrthoOrbital Ag 2   py \
	OrthoOrbital Ag 2   pz \
	OrthoOrbital Ag 2   d \
	OrthoOrbital Ag 2   dxy \
	OrthoOrbital Ag 2   dyz \
	OrthoOrbital Ag 2   dz2 \
	OrthoOrbital Ag 2   dxz \
	OrthoOrbital Ag 2   dx2-y2 \
	OrthoOrbital Ag 3   s \
	OrthoOrbital Ag 3   p \
	OrthoOrbital Ag 3   px \
	OrthoOrbital Ag 3   py \
	OrthoOrbital Ag 3   pz \
	OrthoOrbital Ag 3   d \
	OrthoOrbital Ag 3   dxy \
	OrthoOrbital Ag 3   dyz \
	OrthoOrbital Ag 3   dz2 \
	OrthoOrbital Ag 3   dxz \
	OrthoOrbital Ag 3   dx2-y2 \
	OrthoOrbital Ag 4   s \
	OrthoOrbital Ag 4   p \
	OrthoOrbital Ag 4   px \
	OrthoOrbital Ag 4   py \
	OrthoOrbital Ag 4   pz \
	OrthoOrbital Ag 4   d \
	OrthoOrbital Ag 4   dxy \
	OrthoOrbital Ag 4   dyz \
	OrthoOrbital Ag 4   dz2 \
	OrthoOrbital Ag 4   dxz \
	OrthoOrbital Ag 4   dx2-y2 \
	OrthoOrbital Ag 5   s \
	OrthoOrbital Ag 5   p \
	OrthoOrbital Ag 5   px \
	OrthoOrbital Ag 5   py \
	OrthoOrbital Ag 5   pz \
	OrthoOrbital Ag 5   d \
	OrthoOrbital Ag 5   dxy \
	OrthoOrbital Ag 5   dyz \
	OrthoOrbital Ag 5   dz2 \
	OrthoOrbital Ag 5   dxz \
	OrthoOrbital Ag 5   dx2-y2 \
	OrthoOrbital Ag 6   s \
	OrthoOrbital Ag 6   p \
	OrthoOrbital Ag 6   px \
	OrthoOrbital Ag 6   py \
	OrthoOrbital Ag 6   pz \
	OrthoOrbital Ag 6   d \
	OrthoOrbital Ag 6   dxy \
	OrthoOrbital Ag 6   dyz \
	OrthoOrbital Ag 6   dz2 \
	OrthoOrbital Ag 6   dxz \
	OrthoOrbital Ag 6   dx2-y2 \
	OrthoOrbital Ag 7   s \
	OrthoOrbital Ag 7   p \
	OrthoOrbital Ag 7   px \
	OrthoOrbital Ag 7   py \
	OrthoOrbital Ag 7   pz \
	OrthoOrbital Ag 7   d \
	OrthoOrbital Ag 7   dxy \
	OrthoOrbital Ag 7   dyz \
	OrthoOrbital Ag 7   dz2 \
	OrthoOrbital Ag 7   dxz \
	OrthoOrbital Ag 7   dx2-y2 \
	OrthoOrbital Ag 8   s \
	OrthoOrbital Ag 8   p \
	OrthoOrbital Ag 8   px \
	OrthoOrbital Ag 8   py \
	OrthoOrbital Ag 8   pz \
	OrthoOrbital Ag 8   d \
	OrthoOrbital Ag 8   dxy \
	OrthoOrbital Ag 8   dyz \
	OrthoOrbital Ag 8   dz2 \
	OrthoOrbital Ag 8   dxz \
	OrthoOrbital Ag 8   dx2-y2 \
	OrthoOrbital Ag 9   s \
	OrthoOrbital Ag 9   p \
	OrthoOrbital Ag 9   px \
	OrthoOrbital Ag 9   py \
	OrthoOrbital Ag 9   pz \
	OrthoOrbital Ag 9   d \
	OrthoOrbital Ag 9   dxy \
	OrthoOrbital Ag 9   dyz \
	OrthoOrbital Ag 9   dz2 \
	OrthoOrbital Ag 9   dxz \
	OrthoOrbital Ag 9   dx2-y2 \
	OrthoOrbital Ag 10   s \
	OrthoOrbital Ag 10   p \
	OrthoOrbital Ag 10   px \
	OrthoOrbital Ag 10   py \
	OrthoOrbital Ag 10   pz \
	OrthoOrbital Ag 10   d \
	OrthoOrbital Ag 10   dxy \
	OrthoOrbital Ag 10   dyz \
	OrthoOrbital Ag 10   dz2 \
	OrthoOrbital Ag 10   dxz \
	OrthoOrbital Ag 10   dx2-y2 \
	OrthoOrbital Ag 11   s \
	OrthoOrbital Ag 11   p \
	OrthoOrbital Ag 11   px \
	OrthoOrbital Ag 11   py \
	OrthoOrbital Ag 11   pz \
	OrthoOrbital Ag 11   d \
	OrthoOrbital Ag 11   dxy \
	OrthoOrbital Ag 11   dyz \
	OrthoOrbital Ag 11   dz2 \
	OrthoOrbital Ag 11   dxz \
	OrthoOrbital Ag 11   dx2-y2 \
	OrthoOrbital Ag 12   s \
	OrthoOrbital Ag 12   p \
	OrthoOrbital Ag 12   px \
	OrthoOrbital Ag 12   py \
	OrthoOrbital Ag 12   pz \
	OrthoOrbital Ag 12   d \
	OrthoOrbital Ag 12   dxy \
	OrthoOrbital Ag 12   dyz \
	OrthoOrbital Ag 12   dz2 \
	OrthoOrbital Ag 12   dxz \
	OrthoOrbital Ag 12   dx2-y2 \
	OrthoOrbital Ag 13   s \
	OrthoOrbital Ag 13   p \
	OrthoOrbital Ag 13   px \
	OrthoOrbital Ag 13   py \
	OrthoOrbital Ag 13   pz \
	OrthoOrbital Ag 13   d \
	OrthoOrbital Ag 13   dxy \
	OrthoOrbital Ag 13   dyz \
	OrthoOrbital Ag 13   dz2 \
	OrthoOrbital Ag 13   dxz \
	OrthoOrbital Ag 13   dx2-y2 \
	OrthoOrbital Ag 14   s \
	OrthoOrbital Ag 14   p \
	OrthoOrbital Ag 14   px \
	OrthoOrbital Ag 14   py \
	OrthoOrbital Ag 14   pz \
	OrthoOrbital Ag 14   d \
	OrthoOrbital Ag 14   dxy \
	OrthoOrbital Ag 14   dyz \
	OrthoOrbital Ag 14   dz2 \
	OrthoOrbital Ag 14   dxz \
	OrthoOrbital Ag 14   dx2-y2 \
	OrthoOrbital Ag 15   s \
	OrthoOrbital Ag 15   p \
	OrthoOrbital Ag 15   px \
	OrthoOrbital Ag 15   py \
	OrthoOrbital Ag 15   pz \
	OrthoOrbital Ag 15   d \
	OrthoOrbital Ag 15   dxy \
	OrthoOrbital Ag 15   dyz \
	OrthoOrbital Ag 15   dz2 \
	OrthoOrbital Ag 15   dxz \
	OrthoOrbital Ag 15   dx2-y2 \
	OrthoOrbital Ag 16   s \
	OrthoOrbital Ag 16   p \
	OrthoOrbital Ag 16   px \
	OrthoOrbital Ag 16   py \
	OrthoOrbital Ag 16   pz \
	OrthoOrbital Ag 16   d \
	OrthoOrbital Ag 16   dxy \
	OrthoOrbital Ag 16   dyz \
	OrthoOrbital Ag 16   dz2 \
	OrthoOrbital Ag 16   dxz \
	OrthoOrbital Ag 16   dx2-y2 \
	OrthoOrbital Ag 17   s \
	OrthoOrbital Ag 17   p \
	OrthoOrbital Ag 17   px \
	OrthoOrbital Ag 17   py \
	OrthoOrbital Ag 17   pz \
	OrthoOrbital Ag 17   d \
	OrthoOrbital Ag 17   dxy \
	OrthoOrbital Ag 17   dyz \
	OrthoOrbital Ag 17   dz2 \
	OrthoOrbital Ag 17   dxz \
	OrthoOrbital Ag 17   dx2-y2 \
	OrthoOrbital Ag 18   s \
	OrthoOrbital Ag 18   p \
	OrthoOrbital Ag 18   px \
	OrthoOrbital Ag 18   py \
	OrthoOrbital Ag 18   pz \
	OrthoOrbital Ag 18   d \
	OrthoOrbital Ag 18   dxy \
	OrthoOrbital Ag 18   dyz \
	OrthoOrbital Ag 18   dz2 \
	OrthoOrbital Ag 18   dxz \
	OrthoOrbital Ag 18   dx2-y2 \
	OrthoOrbital Ag 19   s \
	OrthoOrbital Ag 19   p \
	OrthoOrbital Ag 19   px \
	OrthoOrbital Ag 19   py \
	OrthoOrbital Ag 19   pz \
	OrthoOrbital Ag 19   d \
	OrthoOrbital Ag 19   dxy \
	OrthoOrbital Ag 19   dyz \
	OrthoOrbital Ag 19   dz2 \
	OrthoOrbital Ag 19   dxz \
	OrthoOrbital Ag 19   dx2-y2 \
	OrthoOrbital Ag 20   s \
	OrthoOrbital Ag 20   p \
	OrthoOrbital Ag 20   px \
	OrthoOrbital Ag 20   py \
	OrthoOrbital Ag 20   pz \
	OrthoOrbital Ag 20   d \
	OrthoOrbital Ag 20   dxy \
	OrthoOrbital Ag 20   dyz \
	OrthoOrbital Ag 20   dz2 \
	OrthoOrbital Ag 20   dxz \
	OrthoOrbital Ag 20   dx2-y2 \
	OrthoOrbital Ag 21   s \
	OrthoOrbital Ag 21   p \
	OrthoOrbital Ag 21   px \
	OrthoOrbital Ag 21   py \
	OrthoOrbital Ag 21   pz \
	OrthoOrbital Ag 21   d \
	OrthoOrbital Ag 21   dxy \
	OrthoOrbital Ag 21   dyz \
	OrthoOrbital Ag 21   dz2 \
	OrthoOrbital Ag 21   dxz \
	OrthoOrbital Ag 21   dx2-y2 \
	OrthoOrbital Ag 22   s \
	OrthoOrbital Ag 22   p \
	OrthoOrbital Ag 22   px \
	OrthoOrbital Ag 22   py \
	OrthoOrbital Ag 22   pz \
	OrthoOrbital Ag 22   d \
	OrthoOrbital Ag 22   dxy \
	OrthoOrbital Ag 22   dyz \
	OrthoOrbital Ag 22   dz2 \
	OrthoOrbital Ag 22   dxz \
	OrthoOrbital Ag 22   dx2-y2 \
	OrthoOrbital Ag 23   s \
	OrthoOrbital Ag 23   p \
	OrthoOrbital Ag 23   px \
	OrthoOrbital Ag 23   py \
	OrthoOrbital Ag 23   pz \
	OrthoOrbital Ag 23   d \
	OrthoOrbital Ag 23   dxy \
	OrthoOrbital Ag 23   dyz \
	OrthoOrbital Ag 23   dz2 \
	OrthoOrbital Ag 23   dxz \
	OrthoOrbital Ag 23   dx2-y2 \
	OrthoOrbital Ag 24   s \
	OrthoOrbital Ag 24   p \
	OrthoOrbital Ag 24   px \
	OrthoOrbital Ag 24   py \
	OrthoOrbital Ag 24   pz \
	OrthoOrbital Ag 24   d \
	OrthoOrbital Ag 24   dxy \
	OrthoOrbital Ag 24   dyz \
	OrthoOrbital Ag 24   dz2 \
	OrthoOrbital Ag 24   dxz \
	OrthoOrbital Ag 24   dx2-y2 \
	OrthoOrbital Ag 25   s \
	OrthoOrbital Ag 25   p \
	OrthoOrbital Ag 25   px \
	OrthoOrbital Ag 25   py \
	OrthoOrbital Ag 25   pz \
	OrthoOrbital Ag 25   d \
	OrthoOrbital Ag 25   dxy \
	OrthoOrbital Ag 25   dyz \
	OrthoOrbital Ag 25   dz2 \
	OrthoOrbital Ag 25   dxz \
	OrthoOrbital Ag 25   dx2-y2 \
	OrthoOrbital Ag 26   s \
	OrthoOrbital Ag 26   p \
	OrthoOrbital Ag 26   px \
	OrthoOrbital Ag 26   py \
	OrthoOrbital Ag 26   pz \
	OrthoOrbital Ag 26   d \
	OrthoOrbital Ag 26   dxy \
	OrthoOrbital Ag 26   dyz \
	OrthoOrbital Ag 26   dz2 \
	OrthoOrbital Ag 26   dxz \
	OrthoOrbital Ag 26   dx2-y2 \
	OrthoOrbital Ag 27   s \
	OrthoOrbital Ag 27   p \
	OrthoOrbital Ag 27   px \
	OrthoOrbital Ag 27   py \
	OrthoOrbital Ag 27   pz \
	OrthoOrbital Ag 27   d \
	OrthoOrbital Ag 27   dxy \
	OrthoOrbital Ag 27   dyz \
	OrthoOrbital Ag 27   dz2 \
	OrthoOrbital Ag 27   dxz \
	OrthoOrbital Ag 27   dx2-y2 \
	OrthoOrbital Ag 28   s \
	OrthoOrbital Ag 28   p \
	OrthoOrbital Ag 28   px \
	OrthoOrbital Ag 28   py \
	OrthoOrbital Ag 28   pz \
	OrthoOrbital Ag 28   d \
	OrthoOrbital Ag 28   dxy \
	OrthoOrbital Ag 28   dyz \
	OrthoOrbital Ag 28   dz2 \
	OrthoOrbital Ag 28   dxz \
	OrthoOrbital Ag 28   dx2-y2 \
	OrthoOrbital Ag 29   s \
	OrthoOrbital Ag 29   p \
	OrthoOrbital Ag 29   px \
	OrthoOrbital Ag 29   py \
	OrthoOrbital Ag 29   pz \
	OrthoOrbital Ag 29   d \
	OrthoOrbital Ag 29   dxy \
	OrthoOrbital Ag 29   dyz \
	OrthoOrbital Ag 29   dz2 \
	OrthoOrbital Ag 29   dxz \
	OrthoOrbital Ag 29   dx2-y2 \
	OrthoOrbital Ag 30   s \
	OrthoOrbital Ag 30   p \
	OrthoOrbital Ag 30   px \
	OrthoOrbital Ag 30   py \
	OrthoOrbital Ag 30   pz \
	OrthoOrbital Ag 30   d \
	OrthoOrbital Ag 30   dxy \
	OrthoOrbital Ag 30   dyz \
	OrthoOrbital Ag 30   dz2 \
	OrthoOrbital Ag 30   dxz \
	OrthoOrbital Ag 30   dx2-y2 \
	OrthoOrbital Ag 31   s \
	OrthoOrbital Ag 31   p \
	OrthoOrbital Ag 31   px \
	OrthoOrbital Ag 31   py \
	OrthoOrbital Ag 31   pz \
	OrthoOrbital Ag 31   d \
	OrthoOrbital Ag 31   dxy \
	OrthoOrbital Ag 31   dyz \
	OrthoOrbital Ag 31   dz2 \
	OrthoOrbital Ag 31   dxz \
	OrthoOrbital Ag 31   dx2-y2 \
	OrthoOrbital Ag 32   s \
	OrthoOrbital Ag 32   p \
	OrthoOrbital Ag 32   px \
	OrthoOrbital Ag 32   py \
	OrthoOrbital Ag 32   pz \
	OrthoOrbital Ag 32   d \
	OrthoOrbital Ag 32   dxy \
	OrthoOrbital Ag 32   dyz \
	OrthoOrbital Ag 32   dz2 \
	OrthoOrbital Ag 32   dxz \
	OrthoOrbital Ag 32   dx2-y2 \
	OrthoOrbital Ag 33   s \
	OrthoOrbital Ag 33   p \
	OrthoOrbital Ag 33   px \
	OrthoOrbital Ag 33   py \
	OrthoOrbital Ag 33   pz \
	OrthoOrbital Ag 33   d \
	OrthoOrbital Ag 33   dxy \
	OrthoOrbital Ag 33   dyz \
	OrthoOrbital Ag 33   dz2 \
	OrthoOrbital Ag 33   dxz \
	OrthoOrbital Ag 33   dx2-y2 \
	OrthoOrbital Ag 34   s \
	OrthoOrbital Ag 34   p \
	OrthoOrbital Ag 34   px \
	OrthoOrbital Ag 34   py \
	OrthoOrbital Ag 34   pz \
	OrthoOrbital Ag 34   d \
	OrthoOrbital Ag 34   dxy \
	OrthoOrbital Ag 34   dyz \
	OrthoOrbital Ag 34   dz2 \
	OrthoOrbital Ag 34   dxz \
	OrthoOrbital Ag 34   dx2-y2 \
	OrthoOrbital Ag 35   s \
	OrthoOrbital Ag 35   p \
	OrthoOrbital Ag 35   px \
	OrthoOrbital Ag 35   py \
	OrthoOrbital Ag 35   pz \
	OrthoOrbital Ag 35   d \
	OrthoOrbital Ag 35   dxy \
	OrthoOrbital Ag 35   dyz \
	OrthoOrbital Ag 35   dz2 \
	OrthoOrbital Ag 35   dxz \
	OrthoOrbital Ag 35   dx2-y2 \
	OrthoOrbital Ag 36   s \
	OrthoOrbital Ag 36   p \
	OrthoOrbital Ag 36   px \
	OrthoOrbital Ag 36   py \
	OrthoOrbital Ag 36   pz \
	OrthoOrbital Ag 36   d \
	OrthoOrbital Ag 36   dxy \
	OrthoOrbital Ag 36   dyz \
	OrthoOrbital Ag 36   dz2 \
	OrthoOrbital Ag 36   dxz \
	OrthoOrbital Ag 36   dx2-y2 \
	OrthoOrbital Ag 37   s \
	OrthoOrbital Ag 37   p \
	OrthoOrbital Ag 37   px \
	OrthoOrbital Ag 37   py \
	OrthoOrbital Ag 37   pz \
	OrthoOrbital Ag 37   d \
	OrthoOrbital Ag 37   dxy \
	OrthoOrbital Ag 37   dyz \
	OrthoOrbital Ag 37   dz2 \
	OrthoOrbital Ag 37   dxz \
	OrthoOrbital Ag 37   dx2-y2 \
	OrthoOrbital Ag 38   s \
	OrthoOrbital Ag 38   p \
	OrthoOrbital Ag 38   px \
	OrthoOrbital Ag 38   py \
	OrthoOrbital Ag 38   pz \
	OrthoOrbital Ag 38   d \
	OrthoOrbital Ag 38   dxy \
	OrthoOrbital Ag 38   dyz \
	OrthoOrbital Ag 38   dz2 \
	OrthoOrbital Ag 38   dxz \
	OrthoOrbital Ag 38   dx2-y2 \
	OrthoOrbital Ag 39   s \
	OrthoOrbital Ag 39   p \
	OrthoOrbital Ag 39   px \
	OrthoOrbital Ag 39   py \
	OrthoOrbital Ag 39   pz \
	OrthoOrbital Ag 39   d \
	OrthoOrbital Ag 39   dxy \
	OrthoOrbital Ag 39   dyz \
	OrthoOrbital Ag 39   dz2 \
	OrthoOrbital Ag 39   dxz \
	OrthoOrbital Ag 39   dx2-y2 \
	OrthoOrbital Ag 40   s \
	OrthoOrbital Ag 40   p \
	OrthoOrbital Ag 40   px \
	OrthoOrbital Ag 40   py \
	OrthoOrbital Ag 40   pz \
	OrthoOrbital Ag 40   d \
	OrthoOrbital Ag 40   dxy \
	OrthoOrbital Ag 40   dyz \
	OrthoOrbital Ag 40   dz2 \
	OrthoOrbital Ag 40   dxz \
	OrthoOrbital Ag 40   dx2-y2 \
	OrthoOrbital C 1   s \
	OrthoOrbital C 1   p \
	OrthoOrbital C 1   px \
	OrthoOrbital C 1   py \
	OrthoOrbital C 1   pz \
	OrthoOrbital O 1   s \
	OrthoOrbital O 1   p \
	OrthoOrbital O 1   px \
	OrthoOrbital O 1   py \
	OrthoOrbital O 1   pz
dump End ElecDensity KEdensity BandEigs EigStats RhoAtom DOS Kpoints
dump Ionic State IonicPositions Lattice EigStats Ecomponents
dump 
dump 
dump 
dump 
dump 
dump 
dump 
dump 
dump-name jdft.$VAR
elec-cutoff 20
elec-eigen-algo Davidson
elec-ex-corr gga-PBE
elec-initial-magnetization 0.000000 no
elec-n-bands 462
elec-smearing Fermi 0.001
electronic-minimize  \
	dirUpdateScheme      FletcherReeves \
	linminMethod         DirUpdateRecommended \
	nIterations          100 \
	history              15 \
	knormThreshold       0 \
	energyDiffThreshold  1e-07 \
	nEnergyDiff          2 \
	alphaTstart          1 \
	alphaTmin            1e-10 \
	updateTestStepSize   yes \
	alphaTreduceFactor   0.1 \
	alphaTincreaseFactor 3 \
	nAlphaAdjustMax      3 \
	wolfeEnergy          0.0001 \
	wolfeGradient        0.9 \
	fdTest               no
exchange-regularization WignerSeitzTruncated
fluid LinearPCM 298.000000 1.013250
fluid-anion F- 0.5 MeanFieldLJ \
	epsBulk 1 \
	pMol 0 \
	epsInf 1 \
	Pvap 0 \
	sigmaBulk 0 \
	Rvdw 2.24877 \
	Res 0 \
	tauNuc 343133
fluid-cation Na+ 0.5 MeanFieldLJ \
	epsBulk 1 \
	pMol 0 \
	epsInf 1 \
	Pvap 0 \
	sigmaBulk 0 \
	Rvdw 2.19208 \
	Res 0 \
	tauNuc 343133
fluid-ex-corr lda-TF lda-PZ
fluid-gummel-loop 10 1.000000e-05
fluid-minimize  \
	dirUpdateScheme      PolakRibiere \
	linminMethod         DirUpdateRecommended \
	nIterations          400 \
	history              15 \
	knormThreshold       1e-11 \
	energyDiffThreshold  0 \
	nEnergyDiff          2 \
	alphaTstart          1 \
	alphaTmin            1e-10 \
	updateTestStepSize   yes \
	alphaTreduceFactor   0.1 \
	alphaTincreaseFactor 3 \
	nAlphaAdjustMax      6 \
	wolfeEnergy          0.0001 \
	wolfeGradient        0.9 \
	fdTest               no
fluid-solvent H2O 55.338 ScalarEOS \
	epsBulk 78.4 \
	pMol 0.92466 \
	epsInf 1.77 \
	Pvap 1.06736e-10 \
	sigmaBulk 4.62e-05 \
	Rvdw 2.61727 \
	Res 1.42 \
	tauNuc 343133 \
	poleEl 15 7 1
forces-output-coords Positions
initial-state jdft.$VAR
ion Ag   3.835417000000000   1.682334000000000  13.043153000000000 0
ion Ag   0.002582000000000  10.252812000000004  13.043153000000000 0
ion Ag  11.501085999999999   1.682334000000000  13.043153000000000 0
ion Ag   7.668250999999999  10.252812000000004  13.043153000000000 0
ion Ag  -0.000736000000000   3.395349000000000   9.424063000000000 0
ion Ag  -3.833556000000000  11.965828000000004   9.424063000000000 0
ion Ag   7.664932000000000   3.395349000000000   9.424063000000000 0
ion Ag   3.832112000000000  11.965828000000004   9.424063000000000 0
ion Ag   3.832742000000000   5.197413000000002   5.972663000000000 0
ion Ag  -0.000094000000000  13.767891000000004   5.972663000000000 0
ion Ag  11.498409999999998   5.197413000000002   5.972663000000000 0
ion Ag   7.665575000000000  13.767891000000004   5.972663000000000 0
ion Ag  -0.002722000000001   6.958834000000004   2.379593000000000 0
ion Ag  -3.835557000000001  15.529313000000005   2.379593000000000 0
ion Ag   7.662945999999998   6.958834000000004   2.379593000000000 0
ion Ag   3.830110999999998  15.529313000000005   2.379593000000000 0
ion Ag   7.669207999999997  17.005235000000006  16.291689999999999 0
ion Ag  11.502043000000000   8.434757000000003  16.291689999999999 0
ion Ag   0.003540000000000  17.005235000000006  16.291689999999999 0
ion Ag   3.836374999999999   8.434757000000003  16.291689999999999 0
ion Ag   3.833407999999999   6.801035000000001  11.168018000000000 0
ion Ag   0.000580999999999  15.371531000000003  11.168018000000000 0
ion Ag  11.499076999999998   6.801035000000001  11.168018000000000 0
ion Ag   7.666249000000001  15.371531000000003  11.168018000000000 0
ion Ag   3.833056000000000   0.031488000000000   7.715897999999999 0
ion Ag   0.000220999999998   8.601967000000004   7.715897999999999 0
ion Ag  11.498725000000000   0.031488000000000   7.715897999999999 0
ion Ag   7.665889999999998   8.601967000000004   7.715897999999999 0
ion Ag  -0.003434000000000   1.745429000000000   4.098042000000000 0
ion Ag  -3.836277000000000  10.315891000000004   4.098042000000000 0
ion Ag   7.662233999999997   1.745429000000000   4.098042000000000 0
ion Ag   3.829406000000001  10.315891000000004   4.098042000000000 0
ion Ag   3.830595000000000   3.565593000000000   0.850020000000000 0
ion Ag  -0.002240000000000  12.136072000000004   0.850020000000000 0
ion Ag  11.496263999999996   3.565593000000000   0.850020000000000 0
ion Ag   7.663429000000001  12.136072000000004   0.850020000000000 0
ion Ag   0.002330000000000   5.040161000000002  14.761654000000000 0
ion Ag  -3.830505000000002  13.610640000000005  14.761654000000000 0
ion Ag   7.667997999999999   5.040161000000002  14.761654000000000 0
ion Ag   3.835162999999998  13.610640000000005  14.761654000000000 0
ion C   6.390782000000001  11.885351000000004  18.570503638980298 1  Linear 0 0 1
ion O   6.450881000000000  11.885351000000004  20.760289059525366 1  Linear 0 0 1
ion-species /projects/musgravc/apps/jdftx-1.6.0/build/pseudopotentials/GBRV_v1.5/$ID_pbe_v1.uspp
ion-species /projects/musgravc/apps/jdftx-1.6.0/build/pseudopotentials/GBRV_v1.5/$ID_pbe_v1.2.uspp
ion-species /projects/musgravc/apps/jdftx-1.6.0/build/pseudopotentials/GBRV_v1.5/$ID_pbe_v1.4.uspp
ion-species /projects/musgravc/apps/jdftx-1.6.0/build/pseudopotentials/GBRV_v1.5/$ID_pbe_v1.5.uspp
ion-width Ecut
ionic-minimize  \
	dirUpdateScheme      L-BFGS \
	linminMethod         DirUpdateRecommended \
	nIterations          100 \
	history              15 \
	knormThreshold       0.0001 \
	energyDiffThreshold  1e-06 \
	nEnergyDiff          2 \
	alphaTstart          1 \
	alphaTmin            1e-10 \
	updateTestStepSize   yes \
	alphaTreduceFactor   0.1 \
	alphaTincreaseFactor 3 \
	nAlphaAdjustMax      3 \
	wolfeEnergy          0.0001 \
	wolfeGradient        0.9 \
	fdTest               no
kpoint   0.000000000000   0.000000000000   0.000000000000  1.00000000000000
kpoint-folding 4 3 1 
latt-move-scale 0 0 0
latt-scale 1 1 1 
lattice  \
	  15.331337000000000   -7.665670000000000    0.000000000000000  \
	   0.000000000000000   17.140957000000000    0.000000000000000  \
	   0.000000000000000    0.000000000000000   51.422865999999999 
lattice-minimize  \
	dirUpdateScheme      L-BFGS \
	linminMethod         DirUpdateRecommended \
	nIterations          0 \
	history              15 \
	knormThreshold       0 \
	energyDiffThreshold  1e-06 \
	nEnergyDiff          2 \
	alphaTstart          1 \
	alphaTmin            1e-10 \
	updateTestStepSize   yes \
	alphaTreduceFactor   0.1 \
	alphaTincreaseFactor 3 \
	nAlphaAdjustMax      3 \
	wolfeEnergy          0.0001 \
	wolfeGradient        0.9 \
	fdTest               no
lcao-params 30 1e-06 0.001
pcm-variant CANDLE
spintype z-spin
subspace-rotation-factor 1 yes
symmetries automatic
symmetry-threshold 0.0001
van-der-waals D3



---------- Setting up symmetries ----------

Found 8 point-group symmetries of the bravais lattice
Found 1 space-group symmetries with basis
Applied RMS atom displacement 0 bohrs to make symmetries exact.

---------- Initializing the Grid ----------
R = 
[      15.3313     -7.66567            0  ]
[            0       17.141            0  ]
[            0            0      51.4229  ]
unit cell volume = 13513.6
G =
[   0.409826    0.18328         -0  ]
[          0    0.36656          0  ]
[          0         -0   0.122187  ]
Minimum fftbox size, Smin = [  64  76  208  ]
Chosen fftbox size, S = [  64  80  210  ]

---------- Exchange Correlation functional ----------
Initalized PBE GGA exchange.
Initalized PBE GGA correlation.

---------- Setting up pseudopotentials ----------
Width of ionic core gaussian charges (only for fluid interactions / plotting) set to 0.397384

Reading pseudopotential file '/projects/musgravc/apps/jdftx-1.6.0/build/pseudopotentials/GBRV_v1.5/ag_pbe_v1.4.uspp':
  Title: Ag.  Created by USPP 7.3.6 on 1-4-15
  Reference state energy: -147.606242.  19 valence electrons in orbitals:
    |400>  occupation: 2  eigenvalue: -3.637437
    |410>  occupation: 6  eigenvalue: -2.297267
    |420>  occupation: 10  eigenvalue: -0.417763
    |500>  occupation: 0.5  eigenvalue: -0.283525
    |510>  occupation: 0  eigenvalue: -0.122889
  lMax: 2  lLocal: 0  QijEcut: 5.5
  6 projectors sampled on a log grid with 717 points:
    l: 0  eig: -0.283528  rCut: 1.5
    l: 0  eig: -3.637440  rCut: 1.5
    l: 1  eig: -0.122892  rCut: 1.5
    l: 1  eig: -2.297267  rCut: 1.5
    l: 2  eig: -0.417762  rCut: 1.7
    l: 2  eig: -1.000000  rCut: 1.7
  Partial core density with radius 1.2
  Transforming core density to a uniform radial grid of dG=0.02 with 1382 points.
  Transforming local potential to a uniform radial grid of dG=0.02 with 1382 points.
  Transforming nonlocal projectors to a uniform radial grid of dG=0.02 with 432 points.
  Transforming density augmentations to a uniform radial grid of dG=0.02 with 1382 points.
  Transforming atomic orbitals to a uniform radial grid of dG=0.02 with 432 points.
  Core radius for overlap checks: 1.70 bohrs.

Reading pseudopotential file '/projects/musgravc/apps/jdftx-1.6.0/build/pseudopotentials/GBRV_v1.5/c_pbe_v1.2.uspp':
  Title: C.  Created by USPP 7.3.6 on 3-2-2014
  Reference state energy: -5.406344.  4 valence electrons in orbitals:
    |200>  occupation: 2  eigenvalue: -0.504890
    |210>  occupation: 2  eigenvalue: -0.194356
  lMax: 1  lLocal: 2  QijEcut: 5
  4 projectors sampled on a log grid with 503 points:
    l: 0  eig: -0.504890  rCut: 1.3
    l: 0  eig: 0.000000  rCut: 1.3
    l: 1  eig: -0.194357  rCut: 1.3
    l: 1  eig: 0.000000  rCut: 1.3
  Partial core density with radius 1.1
  Transforming core density to a uniform radial grid of dG=0.02 with 1382 points.
  Transforming local potential to a uniform radial grid of dG=0.02 with 1382 points.
  Transforming nonlocal projectors to a uniform radial grid of dG=0.02 with 432 points.
  Transforming density augmentations to a uniform radial grid of dG=0.02 with 1382 points.
  Transforming atomic orbitals to a uniform radial grid of dG=0.02 with 432 points.
  Core radius for overlap checks: 1.30 bohrs.

Reading pseudopotential file '/projects/musgravc/apps/jdftx-1.6.0/build/pseudopotentials/GBRV_v1.5/o_pbe_v1.2.uspp':
  Title: O.  Created by USPP 7.3.6 on 3-2-2014
  Reference state energy: -15.894388.  6 valence electrons in orbitals:
    |200>  occupation: 2  eigenvalue: -0.878823
    |210>  occupation: 4  eigenvalue: -0.332131
  lMax: 2  lLocal: 2  QijEcut: 6
  5 projectors sampled on a log grid with 511 points:
    l: 0  eig: -0.878823  rCut: 1.25
    l: 0  eig: 0.000000  rCut: 1.25
    l: 1  eig: -0.332132  rCut: 1.25
    l: 1  eig: 0.000000  rCut: 1.25
    l: 2  eig: 1.000000  rCut: 1.25
  Partial core density with radius 0.7
  Transforming core density to a uniform radial grid of dG=0.02 with 1382 points.
  Transforming local potential to a uniform radial grid of dG=0.02 with 1382 points.
  Transforming nonlocal projectors to a uniform radial grid of dG=0.02 with 432 points.
  Transforming density augmentations to a uniform radial grid of dG=0.02 with 1382 points.
  Transforming atomic orbitals to a uniform radial grid of dG=0.02 with 432 points.
  Core radius for overlap checks: 1.25 bohrs.

Initialized 3 species with 42 total atoms.

Folded 1 k-points by 4x3x1 to 12 k-points.

---------- Setting up k-points, bands, fillings ----------
Adding inversion symmetry to k-mesh for non-inversion-symmetric unit cell.
Reduced to 7 k-points under symmetry. 
Computing the number of bands and number of electrons
Reading initial fillings from file jdft.fillings.
nElectrons: 770.000000   nBands: 462   nStates: 14

----- Setting up reduced wavefunction bases (one per k-point) -----
average nbasis = 57732.917 , ideal nbasis = 57731.171

----- Initializing Supercell corresponding to k-point mesh -----
Lattice vector linear combinations in supercell:
[   4   0   0  ]
[   0   3   0  ]
[   0   0   1  ]
Supercell lattice vectors:
[  61.3253  -22.997  0  ]
[  0  51.4229  0  ]
[  0  0  51.4229  ]

Initializing DFT-D3 calculator:
	Parameters set for gga-PBE functional
	s6:  1.000  s_r6:  1.217
	s8:  0.722  s_r8:  1.000
	Per-atom parameters loaded for:
	Ag:  sqrtQ[a0]:  5.443  Rcov[a0]:  2.173  CN: [ 0.00 0.97 ]
	 C:  sqrtQ[a0]:  3.105  Rcov[a0]:  1.417  CN: [ 0.00 0.99 2.00 3.00 3.98 ]
	 O:  sqrtQ[a0]:  2.594  Rcov[a0]:  1.191  CN: [ 0.00 0.99 1.99 ]

Initializing DFT-D2 calculator for fluid / solvation:
	Ag:  C6:  427.91 Eh-a0^6  R0: 3.097 a0
	 C:  C6:   30.35 Eh-a0^6  R0: 2.744 a0
	 O:  C6:   12.14 Eh-a0^6  R0: 2.536 a0

---------- Setting up ewald sum ----------
Optimum gaussian width for ewald sums = 5.096738 bohr.
Real space sum over 495 unit cells with max indices [  5  4  2  ]
Reciprocal space sum over 6825 terms with max indices [  6  7  17  ]

Computing DFT-D3 correction:
# coordination-number Ag 8.148 8.149 8.149 8.195 8.779 8.779 8.779 8.779 8.866 8.866 8.866 8.866 6.732 6.732 6.732 6.732 4.915 4.861 4.848 5.298 8.865 8.865 8.865 8.866 8.780 8.780 8.780 8.780 8.150 8.150 8.150 8.150 4.847 4.847 4.847 4.847 6.731 6.743 6.732 7.143
# coordination-number C 1.995
# coordination-number O 1.026
# diagonal-C6 Ag 268.61 268.61 268.61 268.61 268.61 268.61 268.61 268.61 268.61 268.61 268.61 268.61 268.61 268.61 268.61 268.61 268.61 268.61 268.61 268.61 268.61 268.61 268.61 268.61 268.61 268.61 268.61 268.61 268.61 268.61 268.61 268.61 268.61 268.61 268.61 268.61 268.61 268.61 268.61 268.61
# diagonal-C6 C 29.50
# diagonal-C6 O 12.79
EvdW_6 =   -0.222173
EvdW_8 =   -0.316733

---------- Allocating electronic variables ----------
Initializing wave functions:  reading from 'jdft.wfns'
----- createFluidSolver() ----- (Fluid-side solver setup)
   Initializing fluid molecule 'H2O'
     Initializing site 'O'
       Electron density: proportional to exp(-r/0.36935)*erfc((r-0.51523)/0.36823) with norm 6.826
       Charge density: gaussian nuclear width 0.478731 with net site charge 0.826
       Polarizability: cuspless exponential with width 0.32 and norm 3.73
       Hard sphere radius: 2.57003 bohrs
       Positions in reference frame:
         [ +0.000000 +0.000000 +0.000000 ]
     Initializing site 'H'
       Electron density: proportional to exp(-r/0.34641)*erfc((r-0)/0.390882) with norm 0.587
       Charge density: gaussian nuclear width 0.377945 with net site charge -0.413
       Polarizability: cuspless exponential with width 0.39 and norm 3.3
       Positions in reference frame:
         [ +0.000000 -1.441945 +1.122523 ]
         [ +0.000000 +1.441945 +1.122523 ]
     Net charge: 0   dipole magnitude: 0.927204
     Initializing spherical shell mfKernel with radius 2.61727 Bohr
     deltaS corrections:
       site 'O': -7.54299
       site 'H': -6.83917
   Initializing fluid molecule 'Na+'
     Initializing site 'Na'
       Electron density: proportional to exp(-r/0.19682)*erfc((r-0.71491)/0.41314) with norm 8.1383
       Charge density: gaussian nuclear width 0.365347 with net site charge -1
       Hard sphere radius: 1.86327 bohrs
       Positions in reference frame:
         [ +0.000000 +0.000000 +0.000000 ]
     Net charge: -1   dipole magnitude: 0
     Initializing gaussian mfKernel with width: 1.55004 Bohr
     deltaS corrections:
       site 'Na': -22.3555
   Initializing fluid molecule 'F-'
     Initializing site 'F'
       Electron density: proportional to exp(-r/0.38886)*erfc((r-0)/0.438782) with norm 8
       Charge density: gaussian nuclear width 0.374796 with net site charge 1
       Hard sphere radius: 2.39995 bohrs
       Positions in reference frame:
         [ +0.000000 +0.000000 +0.000000 ]
     Net charge: 1   dipole magnitude: 0
     Initializing gaussian mfKernel with width: 1.59012 Bohr
     deltaS corrections:
       site 'F': -9.04335

Correction to mu due to finite nuclear width = -0.0565352
   Cavity determined by nc: 0.00142 and sigma: 0.707107
   Nonlocal vdW cavity from gaussian model electron density with norm = 8 and sigma = 0.993594 bohr
   Charge asymmetry in cavity with sensitivity pCavity = 36.5 e-bohr/Eh
   Electrostatic cavity expanded by eta = 1.46 bohrs
   Weighted density cavitation model constrained by Nbulk: 0.0049383 bohr^-3, Pvap: 3.14029 kPa, Rvdw: 2.61727 bohr and sigmaBulk: 4.62e-05 Eh/bohr^2 at T: 298 K.
   Weighted density dispersion model using vdW pair potentials with single solvent site with sqrtC6eff: 0.77 SI.
Reading fluid state from 'jdft.fluidState'


---- Citations for features of the code used in this run ----

   Software package:
      R. Sundararaman, K. Letchworth-Weaver, K.A. Schwarz, D. Gunceler, Y. Ozhabes and T.A. Arias, 'JDFTx: software for joint density-functional theory', SoftwareX 6, 278 (2017)

   gga-PBE exchange-correlation functional:
      J.P. Perdew, K. Burke and M. Ernzerhof, Phys. Rev. Lett. 77, 3865 (1996)

   Pseudopotentials:
      KF Garrity, JW Bennett, KM Rabe and D Vanderbilt, Comput. Mater. Sci. 81, 446 (2014)

   DFT-D3 dispersion correction:
      S. Grimme, J. Antony, S. Ehrlich and H. Krieg, J. Chem. Phys. 132, 154104 (2010)

   DFT-D2 dispersion correction:
      S. Grimme, J. Comput. Chem. 27, 1787 (2006)

   Charge-asymmetric nonlocally-determined local-electric (CANDLE) solvation model:
      R. Sundararaman and W.A. Goddard III, J. Chem. Phys. 142, 064107 (2015)

   Total energy minimization with Auxiliary Hamiltonian:
      C. Freysoldt, S. Boeck, and J. Neugebauer, Phys. Rev. B 79, 241103(R) (2009)

   Linear-tetrahedron sampling for density of states:
      G. Lehmann and M. Taut, Phys. status solidi (b) 54, 469 (1972)

This list may not be complete. Please suggest additional citations or
report any other bugs at https://github.com/shankar1729/jdftx/issues

Initialization completed successfully at t[s]:     30.58


Computing DFT-D3 correction:
# coordination-number Ag 8.148 8.149 8.149 8.195 8.779 8.779 8.779 8.779 8.866 8.866 8.866 8.866 6.732 6.732 6.732 6.732 4.915 4.861 4.848 5.298 8.865 8.865 8.865 8.866 8.780 8.780 8.780 8.780 8.150 8.150 8.150 8.150 4.847 4.847 4.847 4.847 6.731 6.743 6.732 7.143
# coordination-number C 1.995
# coordination-number O 1.026
# diagonal-C6 Ag 268.61 268.61 268.61 268.61 268.61 268.61 268.61 268.61 268.61 268.61 268.61 268.61 268.61 268.61 268.61 268.61 268.61 268.61 268.61 268.61 268.61 268.61 268.61 268.61 268.61 268.61 268.61 268.61 268.61 268.61 268.61 268.61 268.61 268.61 268.61 268.61 268.61 268.61 268.61 268.61
# diagonal-C6 C 29.50
# diagonal-C6 O 12.79
EvdW_6 =   -0.222173
EvdW_8 =   -0.316733

-------- Electronic minimization -----------
	Linear fluid (dielectric constant: 78.4, screening length: 8.12261 Bohr) occupying 0.481781 of unit cell:	Completed after 1 iterations at t[s]:     46.33
	FillingsUpdate:  mu: -0.145755475  nElectrons: 770.000000  magneticMoment: [ Abs: 0.00000  Tot: -0.00000 ]
ElecMinimize: Iter:   0  F: -5926.060184027989635  |grad|_K:  2.392e-08  alpha:  1.000e+00
	Linear fluid (dielectric constant: 78.4, screening length: 8.12261 Bohr) occupying 0.481785 of unit cell:	Completed after 8 iterations at t[s]:    162.43
	Linear fluid (dielectric constant: 78.4, screening length: 8.12261 Bohr) occupying 0.481781 of unit cell:	Completed after 6 iterations at t[s]:    202.28
	FillingsUpdate:  mu: -0.145716080  nElectrons: 770.000000  magneticMoment: [ Abs: 0.00000  Tot: -0.00000 ]
	SubspaceRotationAdjust: set factor to 0.762
ElecMinimize: Iter:   1  F: -5926.060184069348907  |grad|_K:  6.993e-09  alpha:  1.499e-01  linmin: -1.397e-04  t[s]:    256.37
	Linear fluid (dielectric constant: 78.4, screening length: 8.12261 Bohr) occupying 0.481781 of unit cell:	Completed after 0 iterations at t[s]:    309.06
ElecMinimize: 	Predicted alpha/alphaT>3.000000, increasing alphaT to 4.496594e-01.
	Linear fluid (dielectric constant: 78.4, screening length: 8.12261 Bohr) occupying 0.481779 of unit cell:	Completed after 2 iterations at t[s]:    347.67
	Linear fluid (dielectric constant: 78.4, screening length: 8.12261 Bohr) occupying 0.481781 of unit cell:	Completed after 0 iterations at t[s]:    385.81
	FillingsUpdate:  mu: -0.145728052  nElectrons: 770.000000  magneticMoment: [ Abs: 0.00000  Tot: -0.00000 ]
	SubspaceRotationAdjust: set factor to 0.504
ElecMinimize: Iter:   2  F: -5926.060184069960997  |grad|_K:  7.504e-09  alpha:  1.659e-01  linmin:  1.665e-03  t[s]:    439.79
ElecMinimize: Converged (|Delta F|<1.000000e-07 for 2 iters).
Setting wave functions to eigenvectors of Hamiltonian
Converging empty states (this may take a while): |deigs|: 2.700e-09

Computing DFT-D3 correction:
# coordination-number Ag 8.148 8.149 8.149 8.195 8.779 8.779 8.779 8.779 8.866 8.866 8.866 8.866 6.732 6.732 6.732 6.732 4.915 4.861 4.848 5.298 8.865 8.865 8.865 8.866 8.780 8.780 8.780 8.780 8.150 8.150 8.150 8.150 4.847 4.847 4.847 4.847 6.731 6.743 6.732 7.143
# coordination-number C 1.995
# coordination-number O 1.026
# diagonal-C6 Ag 268.61 268.61 268.61 268.61 268.61 268.61 268.61 268.61 268.61 268.61 268.61 268.61 268.61 268.61 268.61 268.61 268.61 268.61 268.61 268.61 268.61 268.61 268.61 268.61 268.61 268.61 268.61 268.61 268.61 268.61 268.61 268.61 268.61 268.61 268.61 268.61 268.61 268.61 268.61 268.61
# diagonal-C6 C 29.50
# diagonal-C6 O 12.79
EvdW_6 =   -0.222173
EvdW_8 =   -0.316733

# Ionic positions in cartesian coordinates:
ion Ag   3.835417000000000   1.682334000000000  13.043153000000000 0
ion Ag   0.002582000000000  10.252812000000004  13.043153000000000 0
ion Ag  11.501085999999999   1.682334000000000  13.043153000000000 0
ion Ag   7.668250999999999  10.252812000000004  13.043153000000000 0
ion Ag  -0.000736000000000   3.395349000000000   9.424063000000000 0
ion Ag  -3.833556000000000  11.965828000000004   9.424063000000000 0
ion Ag   7.664932000000000   3.395349000000000   9.424063000000000 0
ion Ag   3.832112000000000  11.965828000000004   9.424063000000000 0
ion Ag   3.832742000000000   5.197413000000002   5.972663000000000 0
ion Ag  -0.000094000000000  13.767891000000004   5.972663000000000 0
ion Ag  11.498409999999998   5.197413000000002   5.972663000000000 0
ion Ag   7.665575000000000  13.767891000000004   5.972663000000000 0
ion Ag  -0.002722000000001   6.958834000000004   2.379593000000000 0
ion Ag  -3.835557000000001  15.529313000000005   2.379593000000000 0
ion Ag   7.662945999999998   6.958834000000004   2.379593000000000 0
ion Ag   3.830110999999998  15.529313000000005   2.379593000000000 0
ion Ag   7.669207999999997  17.005235000000006  16.291689999999999 0
ion Ag  11.502043000000000   8.434757000000003  16.291689999999999 0
ion Ag   0.003540000000000  17.005235000000006  16.291689999999999 0
ion Ag   3.836374999999999   8.434757000000003  16.291689999999999 0
ion Ag   3.833407999999999   6.801035000000001  11.168018000000000 0
ion Ag   0.000580999999999  15.371531000000003  11.168018000000000 0
ion Ag  11.499076999999998   6.801035000000001  11.168018000000000 0
ion Ag   7.666249000000001  15.371531000000003  11.168018000000000 0
ion Ag   3.833056000000000   0.031488000000000   7.715897999999999 0
ion Ag   0.000220999999998   8.601967000000004   7.715897999999999 0
ion Ag  11.498725000000000   0.031488000000000   7.715897999999999 0
ion Ag   7.665889999999998   8.601967000000004   7.715897999999999 0
ion Ag  -0.003434000000000   1.745429000000000   4.098042000000000 0
ion Ag  -3.836277000000000  10.315891000000004   4.098042000000000 0
ion Ag   7.662233999999997   1.745429000000000   4.098042000000000 0
ion Ag   3.829406000000001  10.315891000000004   4.098042000000000 0
ion Ag   3.830595000000000   3.565593000000000   0.850020000000000 0
ion Ag  -0.002240000000000  12.136072000000004   0.850020000000000 0
ion Ag  11.496263999999996   3.565593000000000   0.850020000000000 0
ion Ag   7.663429000000001  12.136072000000004   0.850020000000000 0
ion Ag   0.002330000000000   5.040161000000002  14.761654000000000 0
ion Ag  -3.830505000000002  13.610640000000005  14.761654000000000 0
ion Ag   7.667997999999999   5.040161000000002  14.761654000000000 0
ion Ag   3.835162999999998  13.610640000000005  14.761654000000000 0
ion C   6.390782000000001  11.885351000000004  18.570503638980298 1  Linear 0 0 1
ion O   6.450881000000000  11.885351000000004  20.760289059525366 1  Linear 0 0 1

# Forces in Cartesian coordinates:
force Ag  -0.000041374936239   0.000590845155371   0.000199587925973 0
force Ag  -0.000552603187035   0.000698486620894  -0.000441214036388 0
force Ag   0.000238494257715   0.000015235993329   0.000452387391884 0
force Ag   0.002296324031239  -0.002155142953647  -0.005583569085873 0
force Ag  -0.000102574422489   0.000649183564397   0.000424228864750 0
force Ag   0.000008053165666   0.000160385052414   0.000485793939108 0
force Ag  -0.000347836368361  -0.000651893931233  -0.000140733853771 0
force Ag   0.000344312869819   0.000120753809896   0.001758022639491 0
force Ag  -0.000094713677500   0.000377827303636   0.000266708258056 0
force Ag   0.000308635080859   0.000920042621910   0.000470429027066 0
force Ag  -0.000151859202472   0.000761306620128   0.000024911434023 0
force Ag   0.000176205181636   0.000329972691737  -0.000324351078630 0
force Ag   0.000018621827972   0.000028602611933   0.000284526073008 0
force Ag   0.000321735581329   0.000033159222017   0.000210957507414 0
force Ag   0.000081787788919  -0.000051029863904  -0.000349897153817 0
force Ag  -0.000449790365623  -0.000087279691676  -0.000050358603465 0
force Ag   0.000351488804816   0.000775955390602   0.000670886197542 0
force Ag   0.000615171680144  -0.000442283117728   0.000250039410096 0
force Ag   0.000046881929714  -0.000433313751584   0.000296829161413 0
force Ag   0.000646578658697  -0.000754873668756   0.001983203356396 0
force Ag   0.000266263796085  -0.000110038673832   0.000648036781714 0
force Ag   0.000702719024893  -0.000784282498701   0.000404688764682 0
force Ag   0.000498324406650  -0.000668952382521   0.000307856302740 0
force Ag   0.000139873037692  -0.000525439465801  -0.000758934321152 0
force Ag   0.000308628587212   0.000016474076197   0.000235996818007 0
force Ag  -0.000333915314995  -0.000195465953807  -0.000482719378357 0
force Ag  -0.000395432348189  -0.000027931955991  -0.000857413732260 0
force Ag   0.000043059278905  -0.000220209878951  -0.000501927634877 0
force Ag   0.000080662527110  -0.000157066639943   0.000213416978101 0
force Ag  -0.000221375506484  -0.000433710176935   0.000242982937227 0
force Ag   0.000082828197892  -0.000681790585353  -0.000283474658444 0
force Ag  -0.000202065923740  -0.000198178953552   0.000337444162603 0
force Ag   0.000340712673759   0.000126485708521  -0.000407569483063 0
force Ag   0.000040843452410   0.000220249577945  -0.000386340494526 0
force Ag  -0.000152505991339   0.000205072420555  -0.000516923043752 0
force Ag   0.000095974046140   0.000110962812642  -0.000385925083159 0
force Ag   0.000670718057004  -0.000020180539274   0.000152081155392 0
force Ag   0.001844703715339   0.000149691911375  -0.000469582568340 0
force Ag  -0.000103734072113  -0.000338710509730  -0.000287156811307 0
force Ag  -0.001141666173305   0.001869833773927   0.002355973653138 0
force C  -0.008733674270145   0.000419131878945  -0.001985593258042 1  Linear 0 0 1
force O   0.002392724602380   0.000490814245108   0.002025260034298 1  Linear 0 0 1

# Energy components:
   A_diel =       -0.0025305494646577
   Eewald =    21827.9548856160508876
       EH =    27181.9831408983191068
     Eloc =   -55871.8911089620887651
      Enl =      161.0139491562183593
     EvdW =       -0.5389058931225555
      Exc =     -584.7054240068961235
 Exc_core =        8.4255466021995886
       KE =     1351.7010081413220632
  MuShift =       -0.0000000000006620
-------------------------------------
     Etot =    -5926.0594389974621663
       TS =        0.0007450724984065
-------------------------------------
        F =    -5926.0601840699609966


Dumping 'jdft.fillings' ... done
Dumping 'jdft.wfns' ... done
Dumping 'jdft.fluidState' ... done
Dumping 'jdft.ionpos' ... done
Dumping 'jdft.lattice' ... done
Dumping 'jdft.eigenvals' ... done
Dumping 'jdft.eigStats' ... 
	eMin: -3.526859 at state 0 ( [ +0.000000 +0.000000 +0.000000 ] spin 1 )
	HOMO: -0.145811 at state 6 ( [ +0.500000 +0.333333 +0.000000 ] spin 1 )
	mu  : -0.145728
	LUMO: -0.143363 at state 8 ( [ +0.000000 +0.333333 +0.000000 ] spin -1 )
	eMax: +0.137468 at state 2 ( [ +0.250000 +0.000000 +0.000000 ] spin 1 )
	HOMO-LUMO gap: +0.002448
	Optical gap  : +0.002484 at state 6 ( [ +0.500000 +0.333333 +0.000000 ] spin 1 )
Dumping 'jdft.Ecomponents' ... done
IonicMinimize: Iter:   0  F: -5926.060184069960997  |grad|_K:  2.006e-03  t[s]:    595.31

#--- Lowdin population analysis ---
# oxidation-state Ag -0.067 -0.068 -0.066 -0.042 +0.002 +0.001 +0.002 -0.001 -0.029 -0.031 -0.030 -0.029 -0.031 -0.032 -0.027 -0.027 +0.111 +0.133 +0.155 +0.065 -0.031 -0.027 -0.031 -0.030 +0.001 +0.000 +0.004 +0.005 -0.062 -0.066 -0.071 -0.067 +0.154 +0.154 +0.154 +0.159 -0.031 -0.037 -0.030 -0.079
# magnetic-moments Ag -0.000 +0.000 +0.000 -0.000 -0.000 -0.000 +0.000 +0.000 +0.000 -0.000 -0.000 -0.000 -0.000 -0.000 -0.000 +0.000 -0.000 -0.000 +0.000 -0.000 +0.000 -0.000 -0.000 -0.000 -0.000 -0.000 -0.000 -0.000 +0.000 -0.000 -0.000 +0.000 +0.000 +0.000 -0.000 -0.000 +0.000 -0.000 +0.000 -0.000
# oxidation-state C +0.364
# magnetic-moments C +0.000
# oxidation-state O -0.106
# magnetic-moments O -0.000


Computing DFT-D3 correction:
# coordination-number Ag 8.148 8.149 8.149 8.195 8.779 8.779 8.779 8.779 8.866 8.866 8.866 8.866 6.732 6.732 6.732 6.732 4.915 4.861 4.848 5.299 8.865 8.865 8.865 8.866 8.780 8.780 8.780 8.780 8.150 8.150 8.150 8.150 4.847 4.847 4.847 4.847 6.731 6.743 6.732 7.145
# coordination-number C 1.997
# coordination-number O 1.026
# diagonal-C6 Ag 268.61 268.61 268.61 268.61 268.61 268.61 268.61 268.61 268.61 268.61 268.61 268.61 268.61 268.61 268.61 268.61 268.61 268.61 268.61 268.61 268.61 268.61 268.61 268.61 268.61 268.61 268.61 268.61 268.61 268.61 268.61 268.61 268.61 268.61 268.61 268.61 268.61 268.61 268.61 268.61
# diagonal-C6 C 29.50
# diagonal-C6 O 12.79
EvdW_6 =   -0.222173
EvdW_8 =   -0.316731

-------- Electronic minimization -----------
	Linear fluid (dielectric constant: 78.4, screening length: 8.12261 Bohr) occupying 0.481767 of unit cell:	Completed after 7 iterations at t[s]:    658.34
	FillingsUpdate:  mu: -0.145757980  nElectrons: 770.000000  magneticMoment: [ Abs: 0.00000  Tot: -0.00000 ]
ElecMinimize: Iter:   0  F: -5926.060178744435689  |grad|_K:  1.526e-07  alpha:  1.000e+00
	Linear fluid (dielectric constant: 78.4, screening length: 8.12261 Bohr) occupying 0.481773 of unit cell:	Completed after 9 iterations at t[s]:    775.41
	Linear fluid (dielectric constant: 78.4, screening length: 8.12261 Bohr) occupying 0.481769 of unit cell:	Completed after 8 iterations at t[s]:    815.99
	FillingsUpdate:  mu: -0.145822722  nElectrons: 770.000000  magneticMoment: [ Abs: 0.00000  Tot: -0.00000 ]
	SubspaceRotationAdjust: set factor to 0.428
ElecMinimize: Iter:   1  F: -5926.060182031179465  |grad|_K:  9.083e-08  alpha:  3.759e-01  linmin:  3.371e-05  t[s]:    870.16
	Linear fluid (dielectric constant: 78.4, screening length: 8.12261 Bohr) occupying 0.481773 of unit cell:	Completed after 7 iterations at t[s]:    925.97
	Linear fluid (dielectric constant: 78.4, screening length: 8.12261 Bohr) occupying 0.481772 of unit cell:	Completed after 0 iterations at t[s]:    963.91
	FillingsUpdate:  mu: -0.145794238  nElectrons: 770.000000  magneticMoment: [ Abs: 0.00000  Tot: -0.00000 ]
	SubspaceRotationAdjust: set factor to 0.398
ElecMinimize: Iter:   2  F: -5926.060183114466781  |grad|_K:  6.508e-08  alpha:  3.498e-01  linmin:  3.246e-04  t[s]:   1017.94
	Linear fluid (dielectric constant: 78.4, screening length: 8.12261 Bohr) occupying 0.481775 of unit cell:	Completed after 2 iterations at t[s]:   1071.83
	Linear fluid (dielectric constant: 78.4, screening length: 8.12261 Bohr) occupying 0.481776 of unit cell:	Completed after 2 iterations at t[s]:   1110.97
	FillingsUpdate:  mu: -0.145804116  nElectrons: 770.000000  magneticMoment: [ Abs: 0.00000  Tot: -0.00000 ]
	SubspaceRotationAdjust: set factor to 0.532
ElecMinimize: Iter:   3  F: -5926.060183817245161  |grad|_K:  3.962e-08  alpha:  4.549e-01  linmin: -1.987e-04  t[s]:   1164.66
	Linear fluid (dielectric constant: 78.4, screening length: 8.12261 Bohr) occupying 0.481779 of unit cell:	Completed after 2 iterations at t[s]:   1218.74
	Linear fluid (dielectric constant: 78.4, screening length: 8.12261 Bohr) occupying 0.481778 of unit cell:	Completed after 0 iterations at t[s]:   1256.74
	FillingsUpdate:  mu: -0.145802327  nElectrons: 770.000000  magneticMoment: [ Abs: 0.00000  Tot: -0.00000 ]
	SubspaceRotationAdjust: set factor to 0.606
ElecMinimize: Iter:   4  F: -5926.060184029265656  |grad|_K:  2.810e-08  alpha:  3.460e-01  linmin:  4.579e-04  t[s]:   1310.41
	Linear fluid (dielectric constant: 78.4, screening length: 8.12261 Bohr) occupying 0.481780 of unit cell:	Completed after 2 iterations at t[s]:   1364.35
	Linear fluid (dielectric constant: 78.4, screening length: 8.12261 Bohr) occupying 0.481779 of unit cell:	Completed after 0 iterations at t[s]:   1402.78
	FillingsUpdate:  mu: -0.145797006  nElectrons: 770.000000  magneticMoment: [ Abs: 0.00000  Tot: +0.00000 ]
	SubspaceRotationAdjust: set factor to 0.829
ElecMinimize: Iter:   5  F: -5926.060184104650943  |grad|_K:  1.618e-08  alpha:  2.893e-01  linmin: -6.403e-04  t[s]:   1456.87
	Linear fluid (dielectric constant: 78.4, screening length: 8.12261 Bohr) occupying 0.481780 of unit cell:	Completed after 0 iterations at t[s]:   1510.15
	Linear fluid (dielectric constant: 78.4, screening length: 8.12261 Bohr) occupying 0.481781 of unit cell:	Completed after 2 iterations at t[s]:   1549.33
	FillingsUpdate:  mu: -0.145794377  nElectrons: 770.000000  magneticMoment: [ Abs: 0.00000  Tot: +0.00000 ]
	SubspaceRotationAdjust: set factor to 0.852
ElecMinimize: Iter:   6  F: -5926.060184147107066  |grad|_K:  1.287e-08  alpha:  5.156e-01  linmin:  9.614e-04  t[s]:   1602.84
ElecMinimize: Converged (|Delta F|<1.000000e-07 for 2 iters).
Setting wave functions to eigenvectors of Hamiltonian
Converging empty states (this may take a while): |deigs|: 1.604e-09

Computing DFT-D3 correction:
# coordination-number Ag 8.148 8.149 8.149 8.195 8.779 8.779 8.779 8.779 8.866 8.866 8.866 8.866 6.732 6.732 6.732 6.732 4.915 4.861 4.848 5.299 8.865 8.865 8.865 8.866 8.780 8.780 8.780 8.780 8.150 8.150 8.150 8.150 4.847 4.847 4.847 4.847 6.731 6.743 6.732 7.145
# coordination-number C 1.997
# coordination-number O 1.026
# diagonal-C6 Ag 268.61 268.61 268.61 268.61 268.61 268.61 268.61 268.61 268.61 268.61 268.61 268.61 268.61 268.61 268.61 268.61 268.61 268.61 268.61 268.61 268.61 268.61 268.61 268.61 268.61 268.61 268.61 268.61 268.61 268.61 268.61 268.61 268.61 268.61 268.61 268.61 268.61 268.61 268.61 268.61
# diagonal-C6 C 29.50
# diagonal-C6 O 12.79
EvdW_6 =   -0.222173
EvdW_8 =   -0.316731

# Ionic positions in cartesian coordinates:
ion Ag   3.835417000000000   1.682334000000000  13.043153000000000 0
ion Ag   0.002582000000000  10.252812000000004  13.043153000000000 0
ion Ag  11.501085999999999   1.682334000000000  13.043153000000000 0
ion Ag   7.668250999999999  10.252812000000004  13.043153000000000 0
ion Ag  -0.000736000000000   3.395349000000000   9.424063000000000 0
ion Ag  -3.833556000000000  11.965828000000004   9.424063000000000 0
ion Ag   7.664932000000000   3.395349000000000   9.424063000000000 0
ion Ag   3.832112000000000  11.965828000000004   9.424063000000000 0
ion Ag   3.832742000000000   5.197413000000002   5.972663000000000 0
ion Ag  -0.000094000000000  13.767891000000004   5.972663000000000 0
ion Ag  11.498409999999998   5.197413000000002   5.972663000000000 0
ion Ag   7.665575000000000  13.767891000000004   5.972663000000000 0
ion Ag  -0.002722000000001   6.958834000000004   2.379593000000000 0
ion Ag  -3.835557000000001  15.529313000000005   2.379593000000000 0
ion Ag   7.662945999999998   6.958834000000004   2.379593000000000 0
ion Ag   3.830110999999998  15.529313000000005   2.379593000000000 0
ion Ag   7.669207999999997  17.005235000000006  16.291689999999999 0
ion Ag  11.502043000000000   8.434757000000003  16.291689999999999 0
ion Ag   0.003540000000000  17.005235000000006  16.291689999999999 0
ion Ag   3.836374999999999   8.434757000000003  16.291689999999999 0
ion Ag   3.833407999999999   6.801035000000001  11.168018000000000 0
ion Ag   0.000580999999999  15.371531000000003  11.168018000000000 0
ion Ag  11.499076999999998   6.801035000000001  11.168018000000000 0
ion Ag   7.666249000000001  15.371531000000003  11.168018000000000 0
ion Ag   3.833056000000000   0.031488000000000   7.715897999999999 0
ion Ag   0.000220999999998   8.601967000000004   7.715897999999999 0
ion Ag  11.498725000000000   0.031488000000000   7.715897999999999 0
ion Ag   7.665889999999998   8.601967000000004   7.715897999999999 0
ion Ag  -0.003434000000000   1.745429000000000   4.098042000000000 0
ion Ag  -3.836277000000000  10.315891000000004   4.098042000000000 0
ion Ag   7.662233999999997   1.745429000000000   4.098042000000000 0
ion Ag   3.829406000000001  10.315891000000004   4.098042000000000 0
ion Ag   3.830595000000000   3.565593000000000   0.850020000000000 0
ion Ag  -0.002240000000000  12.136072000000004   0.850020000000000 0
ion Ag  11.496263999999996   3.565593000000000   0.850020000000000 0
ion Ag   7.663429000000001  12.136072000000004   0.850020000000000 0
ion Ag   0.002330000000000   5.040161000000002  14.761654000000000 0
ion Ag  -3.830505000000002  13.610640000000005  14.761654000000000 0
ion Ag   7.667997999999999   5.040161000000002  14.761654000000000 0
ion Ag   3.835162999999998  13.610640000000005  14.761654000000000 0
ion C   6.390782000000001  11.885351000000004  18.568518045722257 1  Linear 0 0 1
ion O   6.450881000000000  11.885351000000004  20.762314319559664 1  Linear 0 0 1

# Forces in Cartesian coordinates:
force Ag  -0.000046904431103   0.000605202477398   0.000162242763980 0
force Ag  -0.000547758488013   0.000678294206021  -0.000462512745747 0
force Ag   0.000240949661306   0.000023659617694   0.000410292856827 0
force Ag   0.002299765535655  -0.002179737016770  -0.005625593603343 0
force Ag  -0.000100858110251   0.000647094996380   0.000344353456301 0
force Ag   0.000001167244593   0.000166360714840   0.000418885853869 0
force Ag  -0.000348692529074  -0.000648175260288  -0.000222863218064 0
force Ag   0.000352808032169   0.000125892566071   0.001690535807525 0
force Ag  -0.000094072014742   0.000352208593443   0.000196999414378 0
force Ag   0.000314290644956   0.000945983719428   0.000397898661980 0
force Ag  -0.000151967552417   0.000734453835044  -0.000047833088312 0
force Ag   0.000175090801077   0.000353123620186  -0.000394943533132 0
force Ag   0.000021727530064  -0.000008504908673   0.000315292156472 0
force Ag   0.000317508806938   0.000062294632404   0.000238290247182 0
force Ag   0.000078812655579  -0.000084254165739  -0.000320864499280 0
force Ag  -0.000444182717511  -0.000061783562958  -0.000022558850821 0
force Ag   0.000349195074882   0.000799569385396   0.000731524532054 0
force Ag   0.000624037454221  -0.000468477531450   0.000317143332314 0
force Ag   0.000047232032288  -0.000415079497834   0.000347381519259 0
force Ag   0.000650458779640  -0.000769515035726   0.002070617708493 0
force Ag   0.000268788659327  -0.000135452165257   0.000592766824147 0
force Ag   0.000706780262693  -0.000753256204296   0.000350032056888 0
force Ag   0.000496378013303  -0.000697959706483   0.000256523513427 0
force Ag   0.000136377952140  -0.000494916350459  -0.000821053609246 0
force Ag   0.000301778576437   0.000054636504489   0.000151610299790 0
force Ag  -0.000329180541261  -0.000229110599489  -0.000564273464755 0
force Ag  -0.000390659818249   0.000005587796373  -0.000940971215506 0
force Ag   0.000036989119043  -0.000246521243018  -0.000581240017505 0
force Ag   0.000081736582912  -0.000140636159767   0.000183635815304 0
force Ag  -0.000226782370875  -0.000454976157787   0.000197969518952 0
force Ag   0.000082236404248  -0.000660727581836  -0.000314989855197 0
force Ag  -0.000196037880034  -0.000218394198460   0.000296623594641 0
force Ag   0.000342234553122   0.000125342416698  -0.000321775818390 0
force Ag   0.000041038137422   0.000221522455769  -0.000321509064954 0
force Ag  -0.000154994172340   0.000200665996733  -0.000431050359779 0
force Ag   0.000089850819805   0.000112365006040  -0.000326546948717 0
force Ag   0.000676964370498  -0.000035966903303   0.000166312224872 0
force Ag   0.001849893311170   0.000160232349096  -0.000466662347576 0
force Ag  -0.000106014136501  -0.000352043119850  -0.000286497497078 0
force Ag  -0.001145257014825   0.001878480256695   0.002375227900558 0
force C  -0.008642401211121   0.000414157604602   0.001992817776122 1  Linear 0 0 1
force O   0.002259013501310   0.000481022488077  -0.001929212304381 1  Linear 0 0 1

# Energy components:
   A_diel =       -0.0025565640502729
   Eewald =    21827.9036983113146562
       EH =    27181.8869075551556307
     Eloc =   -55871.7394756123758270
      Enl =      161.0127841676293201
     EvdW =       -0.5389035978977958
      Exc =     -584.7039071351356370
 Exc_core =        8.4255460911916842
       KE =     1351.6964679163352230
  MuShift =       -0.0000000000006620
-------------------------------------
     Etot =    -5926.0594388678337054
       TS =        0.0007452792732762
-------------------------------------
        F =    -5926.0601841471070657


Dumping 'jdft.fillings' ... done
Dumping 'jdft.wfns' ... done
Dumping 'jdft.fluidState' ... done
Dumping 'jdft.ionpos' ... done
Dumping 'jdft.lattice' ... done
Dumping 'jdft.eigenvals' ... done
Dumping 'jdft.eigStats' ... 
	eMin: -3.526936 at state 7 ( [ +0.000000 +0.000000 +0.000000 ] spin -1 )
	HOMO: -0.145877 at state 13 ( [ +0.500000 +0.333333 +0.000000 ] spin -1 )
	mu  : -0.145794
	LUMO: -0.143427 at state 8 ( [ +0.000000 +0.333333 +0.000000 ] spin -1 )
	eMax: +0.137434 at state 9 ( [ +0.250000 +0.000000 +0.000000 ] spin -1 )
	HOMO-LUMO gap: +0.002450
	Optical gap  : +0.002479 at state 6 ( [ +0.500000 +0.333333 +0.000000 ] spin 1 )
Dumping 'jdft.Ecomponents' ... done
IonicMinimize: Iter:   1  F: -5926.060184147107066  |grad|_K:  1.961e-03  alpha:  1.000e+00  linmin:  2.139e-01  t[s]:   1757.38

#--- Lowdin population analysis ---
# oxidation-state Ag -0.067 -0.068 -0.066 -0.042 +0.002 +0.001 +0.002 -0.001 -0.029 -0.031 -0.030 -0.029 -0.031 -0.031 -0.027 -0.027 +0.111 +0.133 +0.155 +0.065 -0.031 -0.027 -0.031 -0.030 +0.001 +0.000 +0.004 +0.005 -0.062 -0.065 -0.070 -0.067 +0.155 +0.154 +0.154 +0.159 -0.031 -0.037 -0.030 -0.079
# magnetic-moments Ag +0.000 +0.000 +0.000 +0.000 -0.000 -0.000 -0.000 +0.000 -0.000 +0.000 +0.000 +0.000 +0.000 -0.000 -0.000 +0.000 +0.000 -0.000 +0.000 +0.000 -0.000 -0.000 -0.000 -0.000 -0.000 +0.000 +0.000 +0.000 -0.000 +0.000 -0.000 +0.000 +0.000 -0.000 +0.000 +0.000 -0.000 +0.000 -0.000 -0.000
# oxidation-state C +0.362
# magnetic-moments C -0.000
# oxidation-state O -0.108
# magnetic-moments O +0.000


Computing DFT-D3 correction:
# coordination-number Ag 8.148 8.149 8.149 8.195 8.779 8.779 8.779 8.779 8.866 8.866 8.866 8.866 6.732 6.732 6.732 6.732 4.915 4.861 4.848 5.298 8.865 8.865 8.865 8.866 8.780 8.780 8.780 8.780 8.150 8.150 8.150 8.150 4.847 4.847 4.847 4.847 6.731 6.743 6.732 7.144
# coordination-number C 1.996
# coordination-number O 1.026
# diagonal-C6 Ag 268.61 268.61 268.61 268.61 268.61 268.61 268.61 268.61 268.61 268.61 268.61 268.61 268.61 268.61 268.61 268.61 268.61 268.61 268.61 268.61 268.61 268.61 268.61 268.61 268.61 268.61 268.61 268.61 268.61 268.61 268.61 268.61 268.61 268.61 268.61 268.61 268.61 268.61 268.61 268.61
# diagonal-C6 C 29.50
# diagonal-C6 O 12.79
EvdW_6 =   -0.222173
EvdW_8 =   -0.316732

-------- Electronic minimization -----------
	Linear fluid (dielectric constant: 78.4, screening length: 8.12261 Bohr) occupying 0.481788 of unit cell:	Completed after 5 iterations at t[s]:   1819.85
	FillingsUpdate:  mu: -0.145792069  nElectrons: 770.000000  magneticMoment: [ Abs: 0.00000  Tot: -0.00000 ]
ElecMinimize: Iter:   0  F: -5926.060184604674760  |grad|_K:  9.807e-08  alpha:  1.000e+00
	Linear fluid (dielectric constant: 78.4, screening length: 8.12261 Bohr) occupying 0.481785 of unit cell:	Completed after 9 iterations at t[s]:   1937.13
	Linear fluid (dielectric constant: 78.4, screening length: 8.12261 Bohr) occupying 0.481787 of unit cell:	Completed after 9 iterations at t[s]:   1978.12
	FillingsUpdate:  mu: -0.145735389  nElectrons: 770.000000  magneticMoment: [ Abs: 0.00000  Tot: -0.00000 ]
	SubspaceRotationAdjust: set factor to 0.6
ElecMinimize: Iter:   1  F: -5926.060185358826857  |grad|_K:  6.480e-08  alpha:  1.993e-01  linmin: -2.423e-04  t[s]:   2032.12
	Linear fluid (dielectric constant: 78.4, screening length: 8.12261 Bohr) occupying 0.481785 of unit cell:	Completed after 3 iterations at t[s]:   2086.43
	Linear fluid (dielectric constant: 78.4, screening length: 8.12261 Bohr) occupying 0.481784 of unit cell:	Completed after 2 iterations at t[s]:   2125.66
	FillingsUpdate:  mu: -0.145758930  nElectrons: 770.000000  magneticMoment: [ Abs: 0.00000  Tot: -0.00000 ]
	SubspaceRotationAdjust: set factor to 0.812
ElecMinimize: Iter:   2  F: -5926.060185857884790  |grad|_K:  2.940e-08  alpha:  3.141e-01  linmin:  7.971e-05  t[s]:   2179.35
	Linear fluid (dielectric constant: 78.4, screening length: 8.12261 Bohr) occupying 0.481783 of unit cell:	Completed after 2 iterations at t[s]:   2233.11
	Linear fluid (dielectric constant: 78.4, screening length: 8.12261 Bohr) occupying 0.481783 of unit cell:	Completed after 0 iterations at t[s]:   2271.55
	FillingsUpdate:  mu: -0.145757128  nElectrons: 770.000000  magneticMoment: [ Abs: 0.00000  Tot: -0.00000 ]
	SubspaceRotationAdjust: set factor to 1.07
ElecMinimize: Iter:   3  F: -5926.060186017671185  |grad|_K:  1.645e-08  alpha:  4.696e-01  linmin: -1.098e-03  t[s]:   2325.83
	Linear fluid (dielectric constant: 78.4, screening length: 8.12261 Bohr) occupying 0.481781 of unit cell:	Completed after 2 iterations at t[s]:   2379.89
	Linear fluid (dielectric constant: 78.4, screening length: 8.12261 Bohr) occupying 0.481782 of unit cell:	Completed after 0 iterations at t[s]:   2418.20
	FillingsUpdate:  mu: -0.145756063  nElectrons: 770.000000  magneticMoment: [ Abs: 0.00000  Tot: -0.00000 ]
	SubspaceRotationAdjust: set factor to 0.927
ElecMinimize: Iter:   4  F: -5926.060186060917658  |grad|_K:  1.195e-08  alpha:  3.774e-01  linmin:  5.358e-04  t[s]:   2472.06
	Linear fluid (dielectric constant: 78.4, screening length: 8.12261 Bohr) occupying 0.481780 of unit cell:	Completed after 2 iterations at t[s]:   2526.04
	Linear fluid (dielectric constant: 78.4, screening length: 8.12261 Bohr) occupying 0.481781 of unit cell:	Completed after 0 iterations at t[s]:   2564.35
	FillingsUpdate:  mu: -0.145768876  nElectrons: 770.000000  magneticMoment: [ Abs: 0.00000  Tot: -0.00000 ]
	SubspaceRotationAdjust: set factor to 0.583
ElecMinimize: Iter:   5  F: -5926.060186072415490  |grad|_K:  1.265e-08  alpha:  1.937e-01  linmin:  1.633e-03  t[s]:   2617.96
ElecMinimize: Converged (|Delta F|<1.000000e-07 for 2 iters).
Setting wave functions to eigenvectors of Hamiltonian
Converging empty states (this may take a while): |deigs|: 5.274e-10

Computing DFT-D3 correction:
# coordination-number Ag 8.148 8.149 8.149 8.195 8.779 8.779 8.779 8.779 8.866 8.866 8.866 8.866 6.732 6.732 6.732 6.732 4.915 4.861 4.848 5.298 8.865 8.865 8.865 8.866 8.780 8.780 8.780 8.780 8.150 8.150 8.150 8.150 4.847 4.847 4.847 4.847 6.731 6.743 6.732 7.144
# coordination-number C 1.996
# coordination-number O 1.026
# diagonal-C6 Ag 268.61 268.61 268.61 268.61 268.61 268.61 268.61 268.61 268.61 268.61 268.61 268.61 268.61 268.61 268.61 268.61 268.61 268.61 268.61 268.61 268.61 268.61 268.61 268.61 268.61 268.61 268.61 268.61 268.61 268.61 268.61 268.61 268.61 268.61 268.61 268.61 268.61 268.61 268.61 268.61
# diagonal-C6 C 29.50
# diagonal-C6 O 12.79
EvdW_6 =   -0.222173
EvdW_8 =   -0.316732

# Ionic positions in cartesian coordinates:
ion Ag   3.835417000000000   1.682334000000000  13.043153000000000 0
ion Ag   0.002582000000000  10.252812000000004  13.043153000000000 0
ion Ag  11.501085999999999   1.682334000000000  13.043153000000000 0
ion Ag   7.668250999999999  10.252812000000004  13.043153000000000 0
ion Ag  -0.000736000000000   3.395349000000000   9.424063000000000 0
ion Ag  -3.833556000000000  11.965828000000004   9.424063000000000 0
ion Ag   7.664932000000000   3.395349000000000   9.424063000000000 0
ion Ag   3.832112000000000  11.965828000000004   9.424063000000000 0
ion Ag   3.832742000000000   5.197413000000002   5.972663000000000 0
ion Ag  -0.000094000000000  13.767891000000004   5.972663000000000 0
ion Ag  11.498409999999998   5.197413000000002   5.972663000000000 0
ion Ag   7.665575000000000  13.767891000000004   5.972663000000000 0
ion Ag  -0.002722000000001   6.958834000000004   2.379593000000000 0
ion Ag  -3.835557000000001  15.529313000000005   2.379593000000000 0
ion Ag   7.662945999999998   6.958834000000004   2.379593000000000 0
ion Ag   3.830110999999998  15.529313000000005   2.379593000000000 0
ion Ag   7.669207999999997  17.005235000000006  16.291689999999999 0
ion Ag  11.502043000000000   8.434757000000003  16.291689999999999 0
ion Ag   0.003540000000000  17.005235000000006  16.291689999999999 0
ion Ag   3.836374999999999   8.434757000000003  16.291689999999999 0
ion Ag   3.833407999999999   6.801035000000001  11.168018000000000 0
ion Ag   0.000580999999999  15.371531000000003  11.168018000000000 0
ion Ag  11.499076999999998   6.801035000000001  11.168018000000000 0
ion Ag   7.666249000000001  15.371531000000003  11.168018000000000 0
ion Ag   3.833056000000000   0.031488000000000   7.715897999999999 0
ion Ag   0.000220999999998   8.601967000000004   7.715897999999999 0
ion Ag  11.498725000000000   0.031488000000000   7.715897999999999 0
ion Ag   7.665889999999998   8.601967000000004   7.715897999999999 0
ion Ag  -0.003434000000000   1.745429000000000   4.098042000000000 0
ion Ag  -3.836277000000000  10.315891000000004   4.098042000000000 0
ion Ag   7.662233999999997   1.745429000000000   4.098042000000000 0
ion Ag   3.829406000000001  10.315891000000004   4.098042000000000 0
ion Ag   3.830595000000000   3.565593000000000   0.850020000000000 0
ion Ag  -0.002240000000000  12.136072000000004   0.850020000000000 0
ion Ag  11.496263999999996   3.565593000000000   0.850020000000000 0
ion Ag   7.663429000000001  12.136072000000004   0.850020000000000 0
ion Ag   0.002330000000000   5.040161000000002  14.761654000000000 0
ion Ag  -3.830505000000002  13.610640000000005  14.761654000000000 0
ion Ag   7.667997999999999   5.040161000000002  14.761654000000000 0
ion Ag   3.835162999999998  13.610640000000005  14.761654000000000 0
ion C   6.390782000000001  11.885351000000004  18.569512647515847 1  Linear 0 0 1
ion O   6.450881000000000  11.885351000000004  20.761326287014825 1  Linear 0 0 1

# Forces in Cartesian coordinates:
force Ag  -0.000048115496331   0.000609871934786   0.000206781227532 0
force Ag  -0.000552959815617   0.000681470132028  -0.000407463550509 0
force Ag   0.000244431674048   0.000029775785327   0.000452434716385 0
force Ag   0.002293858484129  -0.002165499001939  -0.005543169270792 0
force Ag  -0.000103146377355   0.000643620053210   0.000479963229223 0
force Ag   0.000003333617087   0.000157961559714   0.000554487303136 0
force Ag  -0.000347163504272  -0.000648240110966  -0.000090170586108 0
force Ag   0.000347982012818   0.000119716919024   0.001820396815305 0
force Ag  -0.000093296200228   0.000354102315301   0.000251559889988 0
force Ag   0.000311569809634   0.000944663244432   0.000451824205751 0
force Ag  -0.000150975538818   0.000733233916053   0.000011392477855 0
force Ag   0.000173520052511   0.000353810383426  -0.000344319139349 0
force Ag   0.000018630617725  -0.000005288471938   0.000220048680527 0
force Ag   0.000318111495890   0.000063264749953   0.000143003971513 0
force Ag   0.000081154207349  -0.000079324694500  -0.000411164938283 0
force Ag  -0.000444683631694  -0.000059344304244  -0.000115314150410 0
force Ag   0.000348774264431   0.000761612485598   0.000689211886109 0
force Ag   0.000614401617197  -0.000432374269466   0.000264161505653 0
force Ag   0.000045332215194  -0.000441489791227   0.000300282072082 0
force Ag   0.000652516179696  -0.000738369226387   0.002008677026553 0
force Ag   0.000263312627934  -0.000140786292590   0.000692728318849 0
force Ag   0.000702358426778  -0.000756055133445   0.000461317138320 0
force Ag   0.000500406077166  -0.000694789248749   0.000354740527859 0
force Ag   0.000140852666140  -0.000493052041018  -0.000709445385473 0
force Ag   0.000302464282193   0.000055118246974   0.000264574141283 0
force Ag  -0.000333032856825  -0.000235513250605  -0.000445522670394 0
force Ag  -0.000389586396298   0.000009986753547  -0.000828133062218 0
force Ag   0.000041162428247  -0.000256314776242  -0.000466686266498 0
force Ag   0.000079322190408  -0.000137943246953   0.000163971162351 0
force Ag  -0.000227048319806  -0.000453588668148   0.000174750006192 0
force Ag   0.000082837999533  -0.000656306158557  -0.000334174733482 0
force Ag  -0.000195487618312  -0.000217212987998   0.000272337769659 0
force Ag   0.000341555947266   0.000125602925754  -0.000429403662866 0
force Ag   0.000042256415375   0.000219777426593  -0.000445972460596 0
force Ag  -0.000151196708347   0.000205914846807  -0.000540496797822 0
force Ag   0.000094646596077   0.000108387012473  -0.000443965833062 0
force Ag   0.000675065732840  -0.000027069629543   0.000133820720788 0
force Ag   0.001838043066701   0.000154667312726  -0.000446197867950 0
force Ag  -0.000109386570024  -0.000340444775056  -0.000304540183767 0
force Ag  -0.001134719197205   0.001869040889631   0.002390280433684 0
force C  -0.008673740565858   0.000423435440811  -0.000112861707969 1  Linear 0 0 1
force O   0.002330455259047   0.000489819413846   0.000063317255540 1  Linear 0 0 1

# Energy components:
   A_diel =       -0.0025442325767451
   Eewald =    21827.9276967478617735
       EH =    27181.9286689222717541
     Eloc =   -55871.8072186047575087
      Enl =      161.0133132217262641
     EvdW =       -0.5389047114626673
      Exc =     -584.7046161240012907
 Exc_core =        8.4255463396841996
       KE =     1351.6986175354254556
  MuShift =       -0.0000000000006620
-------------------------------------
     Etot =    -5926.0594409058276142
       TS =        0.0007451665876846
-------------------------------------
        F =    -5926.0601860724154903


Dumping 'jdft.fillings' ... done
Dumping 'jdft.wfns' ... done
Dumping 'jdft.fluidState' ... done
Dumping 'jdft.ionpos' ... done
Dumping 'jdft.lattice' ... done
Dumping 'jdft.eigenvals' ... done
Dumping 'jdft.eigStats' ... 
	eMin: -3.526912 at state 7 ( [ +0.000000 +0.000000 +0.000000 ] spin -1 )
	HOMO: -0.145851 at state 6 ( [ +0.500000 +0.333333 +0.000000 ] spin 1 )
	mu  : -0.145769
	LUMO: -0.143405 at state 1 ( [ +0.000000 +0.333333 +0.000000 ] spin 1 )
	eMax: +0.137446 at state 9 ( [ +0.250000 +0.000000 +0.000000 ] spin -1 )
	HOMO-LUMO gap: +0.002446
	Optical gap  : +0.002482 at state 6 ( [ +0.500000 +0.333333 +0.000000 ] spin 1 )
Dumping 'jdft.Ecomponents' ... done
IonicMinimize: Iter:   2  F: -5926.060186072415490  |grad|_K:  9.151e-05  alpha:  1.000e+00  linmin:  9.846e-03  t[s]:   2772.12
IonicMinimize: Converged (|grad|_K<1.000000e-04).

#--- Lowdin population analysis ---
# oxidation-state Ag -0.067 -0.068 -0.066 -0.042 +0.002 +0.001 +0.002 -0.001 -0.029 -0.031 -0.030 -0.029 -0.031 -0.032 -0.027 -0.027 +0.112 +0.134 +0.155 +0.066 -0.031 -0.027 -0.031 -0.030 +0.001 +0.000 +0.004 +0.005 -0.062 -0.066 -0.071 -0.067 +0.154 +0.154 +0.154 +0.159 -0.031 -0.037 -0.030 -0.078
# magnetic-moments Ag -0.000 -0.000 +0.000 +0.000 +0.000 +0.000 +0.000 +0.000 -0.000 -0.000 +0.000 -0.000 -0.000 -0.000 +0.000 +0.000 -0.000 -0.000 -0.000 +0.000 +0.000 -0.000 -0.000 -0.000 -0.000 +0.000 -0.000 +0.000 -0.000 -0.000 +0.000 -0.000 +0.000 +0.000 +0.000 +0.000 -0.000 +0.000 +0.000 +0.000
# oxidation-state C +0.363
# magnetic-moments C -0.000
# oxidation-state O -0.107
# magnetic-moments O +0.000


Dumping 'jdft.n_up' ... done
Dumping 'jdft.n_dn' ... done
Dumping 'jdft.tau_up' ... done
Dumping 'jdft.tau_dn' ... done
Dumping 'jdft.eigenvals' ... done
Dumping 'jdft.eigStats' ... 
	eMin: -3.526912 at state 7 ( [ +0.000000 +0.000000 +0.000000 ] spin -1 )
	HOMO: -0.145851 at state 6 ( [ +0.500000 +0.333333 +0.000000 ] spin 1 )
	mu  : -0.145769
	LUMO: -0.143405 at state 1 ( [ +0.000000 +0.333333 +0.000000 ] spin 1 )
	eMax: +0.137446 at state 9 ( [ +0.250000 +0.000000 +0.000000 ] spin -1 )
	HOMO-LUMO gap: +0.002446
	Optical gap  : +0.002482 at state 6 ( [ +0.500000 +0.333333 +0.000000 ] spin 1 )
Dumping 'jdft.kPts' ... done
Dumping 'jdft.kMap' ... done
Dumping 'jdft.dosUp' ... done.
Dumping 'jdft.dosDn' ... done.
End date and time: Sat Feb 19 23:36:39 2022  (Duration: 0-0:47:32.71)
Done!
ipcrm: permission denied for id (7962626)
ipcrm: permission denied for id (8454147)
