
*************** JDFTx 1.6.0  ***************

Start date and time: Mon Dec  6 15:24:24 2021
Executable /projects/musgravc/apps/jdftx-1.6.1/build/jdftx with command-line: -i in
Running on hosts (process indices):  shas0645.rc.int.colorado.edu (0-23)
Divided in process groups (process indices):  0 (0)  1 (1)  2 (2)  3 (3)  4 (4)  5 (5)  6 (6)  7 (7)  8 (8)  9 (9)  10 (10)  11 (11)  12 (12)  13 (13)  14 (14)  15 (15)  16 (16)  17 (17)  18 (18)  19 (19)  20 (20)  21 (21)  22 (22)  23 (23)
Resource initialization completed at t[s]:      0.00
Run totals: 24 processes, 24 threads, 0 GPUs


Input parsed successfully to the following command list (including defaults):

basis kpoint-dependent
converge-empty-states yes
coords-type Cartesian
core-overlap-check none
coulomb-interaction Periodic
davidson-band-ratio 1.1
density-of-states Etol 1.000000e-06 Esigma 1.000000e-03 \
		Complete \
	Total \
	OrthoOrbital Cu 1   s \
	OrthoOrbital Cu 1   p \
	OrthoOrbital Cu 1   px \
	OrthoOrbital Cu 1   py \
	OrthoOrbital Cu 1   pz \
	OrthoOrbital Cu 1   d \
	OrthoOrbital Cu 1   dxy \
	OrthoOrbital Cu 1   dyz \
	OrthoOrbital Cu 1   dz2 \
	OrthoOrbital Cu 1   dxz \
	OrthoOrbital Cu 1   dx2-y2 \
	OrthoOrbital Cu 2   s \
	OrthoOrbital Cu 2   p \
	OrthoOrbital Cu 2   px \
	OrthoOrbital Cu 2   py \
	OrthoOrbital Cu 2   pz \
	OrthoOrbital Cu 2   d \
	OrthoOrbital Cu 2   dxy \
	OrthoOrbital Cu 2   dyz \
	OrthoOrbital Cu 2   dz2 \
	OrthoOrbital Cu 2   dxz \
	OrthoOrbital Cu 2   dx2-y2 \
	OrthoOrbital Cu 3   s \
	OrthoOrbital Cu 3   p \
	OrthoOrbital Cu 3   px \
	OrthoOrbital Cu 3   py \
	OrthoOrbital Cu 3   pz \
	OrthoOrbital Cu 3   d \
	OrthoOrbital Cu 3   dxy \
	OrthoOrbital Cu 3   dyz \
	OrthoOrbital Cu 3   dz2 \
	OrthoOrbital Cu 3   dxz \
	OrthoOrbital Cu 3   dx2-y2 \
	OrthoOrbital Cu 4   s \
	OrthoOrbital Cu 4   p \
	OrthoOrbital Cu 4   px \
	OrthoOrbital Cu 4   py \
	OrthoOrbital Cu 4   pz \
	OrthoOrbital Cu 4   d \
	OrthoOrbital Cu 4   dxy \
	OrthoOrbital Cu 4   dyz \
	OrthoOrbital Cu 4   dz2 \
	OrthoOrbital Cu 4   dxz \
	OrthoOrbital Cu 4   dx2-y2 \
	OrthoOrbital Cu 5   s \
	OrthoOrbital Cu 5   p \
	OrthoOrbital Cu 5   px \
	OrthoOrbital Cu 5   py \
	OrthoOrbital Cu 5   pz \
	OrthoOrbital Cu 5   d \
	OrthoOrbital Cu 5   dxy \
	OrthoOrbital Cu 5   dyz \
	OrthoOrbital Cu 5   dz2 \
	OrthoOrbital Cu 5   dxz \
	OrthoOrbital Cu 5   dx2-y2 \
	OrthoOrbital Cu 6   s \
	OrthoOrbital Cu 6   p \
	OrthoOrbital Cu 6   px \
	OrthoOrbital Cu 6   py \
	OrthoOrbital Cu 6   pz \
	OrthoOrbital Cu 6   d \
	OrthoOrbital Cu 6   dxy \
	OrthoOrbital Cu 6   dyz \
	OrthoOrbital Cu 6   dz2 \
	OrthoOrbital Cu 6   dxz \
	OrthoOrbital Cu 6   dx2-y2 \
	OrthoOrbital Cu 7   s \
	OrthoOrbital Cu 7   p \
	OrthoOrbital Cu 7   px \
	OrthoOrbital Cu 7   py \
	OrthoOrbital Cu 7   pz \
	OrthoOrbital Cu 7   d \
	OrthoOrbital Cu 7   dxy \
	OrthoOrbital Cu 7   dyz \
	OrthoOrbital Cu 7   dz2 \
	OrthoOrbital Cu 7   dxz \
	OrthoOrbital Cu 7   dx2-y2 \
	OrthoOrbital Cu 8   s \
	OrthoOrbital Cu 8   p \
	OrthoOrbital Cu 8   px \
	OrthoOrbital Cu 8   py \
	OrthoOrbital Cu 8   pz \
	OrthoOrbital Cu 8   d \
	OrthoOrbital Cu 8   dxy \
	OrthoOrbital Cu 8   dyz \
	OrthoOrbital Cu 8   dz2 \
	OrthoOrbital Cu 8   dxz \
	OrthoOrbital Cu 8   dx2-y2 \
	OrthoOrbital Cu 9   s \
	OrthoOrbital Cu 9   p \
	OrthoOrbital Cu 9   px \
	OrthoOrbital Cu 9   py \
	OrthoOrbital Cu 9   pz \
	OrthoOrbital Cu 9   d \
	OrthoOrbital Cu 9   dxy \
	OrthoOrbital Cu 9   dyz \
	OrthoOrbital Cu 9   dz2 \
	OrthoOrbital Cu 9   dxz \
	OrthoOrbital Cu 9   dx2-y2 \
	OrthoOrbital Cu 10   s \
	OrthoOrbital Cu 10   p \
	OrthoOrbital Cu 10   px \
	OrthoOrbital Cu 10   py \
	OrthoOrbital Cu 10   pz \
	OrthoOrbital Cu 10   d \
	OrthoOrbital Cu 10   dxy \
	OrthoOrbital Cu 10   dyz \
	OrthoOrbital Cu 10   dz2 \
	OrthoOrbital Cu 10   dxz \
	OrthoOrbital Cu 10   dx2-y2 \
	OrthoOrbital Cu 11   s \
	OrthoOrbital Cu 11   p \
	OrthoOrbital Cu 11   px \
	OrthoOrbital Cu 11   py \
	OrthoOrbital Cu 11   pz \
	OrthoOrbital Cu 11   d \
	OrthoOrbital Cu 11   dxy \
	OrthoOrbital Cu 11   dyz \
	OrthoOrbital Cu 11   dz2 \
	OrthoOrbital Cu 11   dxz \
	OrthoOrbital Cu 11   dx2-y2 \
	OrthoOrbital Cu 12   s \
	OrthoOrbital Cu 12   p \
	OrthoOrbital Cu 12   px \
	OrthoOrbital Cu 12   py \
	OrthoOrbital Cu 12   pz \
	OrthoOrbital Cu 12   d \
	OrthoOrbital Cu 12   dxy \
	OrthoOrbital Cu 12   dyz \
	OrthoOrbital Cu 12   dz2 \
	OrthoOrbital Cu 12   dxz \
	OrthoOrbital Cu 12   dx2-y2 \
	OrthoOrbital Cu 13   s \
	OrthoOrbital Cu 13   p \
	OrthoOrbital Cu 13   px \
	OrthoOrbital Cu 13   py \
	OrthoOrbital Cu 13   pz \
	OrthoOrbital Cu 13   d \
	OrthoOrbital Cu 13   dxy \
	OrthoOrbital Cu 13   dyz \
	OrthoOrbital Cu 13   dz2 \
	OrthoOrbital Cu 13   dxz \
	OrthoOrbital Cu 13   dx2-y2 \
	OrthoOrbital Cu 14   s \
	OrthoOrbital Cu 14   p \
	OrthoOrbital Cu 14   px \
	OrthoOrbital Cu 14   py \
	OrthoOrbital Cu 14   pz \
	OrthoOrbital Cu 14   d \
	OrthoOrbital Cu 14   dxy \
	OrthoOrbital Cu 14   dyz \
	OrthoOrbital Cu 14   dz2 \
	OrthoOrbital Cu 14   dxz \
	OrthoOrbital Cu 14   dx2-y2 \
	OrthoOrbital Cu 15   s \
	OrthoOrbital Cu 15   p \
	OrthoOrbital Cu 15   px \
	OrthoOrbital Cu 15   py \
	OrthoOrbital Cu 15   pz \
	OrthoOrbital Cu 15   d \
	OrthoOrbital Cu 15   dxy \
	OrthoOrbital Cu 15   dyz \
	OrthoOrbital Cu 15   dz2 \
	OrthoOrbital Cu 15   dxz \
	OrthoOrbital Cu 15   dx2-y2 \
	OrthoOrbital Cu 16   s \
	OrthoOrbital Cu 16   p \
	OrthoOrbital Cu 16   px \
	OrthoOrbital Cu 16   py \
	OrthoOrbital Cu 16   pz \
	OrthoOrbital Cu 16   d \
	OrthoOrbital Cu 16   dxy \
	OrthoOrbital Cu 16   dyz \
	OrthoOrbital Cu 16   dz2 \
	OrthoOrbital Cu 16   dxz \
	OrthoOrbital Cu 16   dx2-y2 \
	OrthoOrbital Cu 17   s \
	OrthoOrbital Cu 17   p \
	OrthoOrbital Cu 17   px \
	OrthoOrbital Cu 17   py \
	OrthoOrbital Cu 17   pz \
	OrthoOrbital Cu 17   d \
	OrthoOrbital Cu 17   dxy \
	OrthoOrbital Cu 17   dyz \
	OrthoOrbital Cu 17   dz2 \
	OrthoOrbital Cu 17   dxz \
	OrthoOrbital Cu 17   dx2-y2 \
	OrthoOrbital Cu 18   s \
	OrthoOrbital Cu 18   p \
	OrthoOrbital Cu 18   px \
	OrthoOrbital Cu 18   py \
	OrthoOrbital Cu 18   pz \
	OrthoOrbital Cu 18   d \
	OrthoOrbital Cu 18   dxy \
	OrthoOrbital Cu 18   dyz \
	OrthoOrbital Cu 18   dz2 \
	OrthoOrbital Cu 18   dxz \
	OrthoOrbital Cu 18   dx2-y2 \
	OrthoOrbital Cu 19   s \
	OrthoOrbital Cu 19   p \
	OrthoOrbital Cu 19   px \
	OrthoOrbital Cu 19   py \
	OrthoOrbital Cu 19   pz \
	OrthoOrbital Cu 19   d \
	OrthoOrbital Cu 19   dxy \
	OrthoOrbital Cu 19   dyz \
	OrthoOrbital Cu 19   dz2 \
	OrthoOrbital Cu 19   dxz \
	OrthoOrbital Cu 19   dx2-y2
dump End ElecDensity KEdensity BandEigs EigStats RhoAtom DOS Kpoints
dump Ionic State IonicPositions Lattice EigStats Ecomponents
dump 
dump 
dump 
dump 
dump 
dump 
dump 
dump 
dump-name jdft.$VAR
elec-cutoff 20
elec-eigen-algo Davidson
elec-ex-corr gga-PBE
elec-initial-magnetization 0.000000 no
elec-n-bands 217
elec-smearing Fermi 0.001
electronic-minimize  \
	dirUpdateScheme      FletcherReeves \
	linminMethod         DirUpdateRecommended \
	nIterations          100 \
	history              15 \
	knormThreshold       0 \
	energyDiffThreshold  1e-07 \
	nEnergyDiff          2 \
	alphaTstart          1 \
	alphaTmin            1e-10 \
	updateTestStepSize   yes \
	alphaTreduceFactor   0.1 \
	alphaTincreaseFactor 3 \
	nAlphaAdjustMax      3 \
	wolfeEnergy          0.0001 \
	wolfeGradient        0.9 \
	fdTest               no
exchange-regularization WignerSeitzTruncated
fluid LinearPCM 298.000000 1.013250
fluid-anion F- 0.5 MeanFieldLJ \
	epsBulk 1 \
	pMol 0 \
	epsInf 1 \
	Pvap 0 \
	sigmaBulk 0 \
	Rvdw 2.24877 \
	Res 0 \
	tauNuc 343133
fluid-cation Na+ 0.5 MeanFieldLJ \
	epsBulk 1 \
	pMol 0 \
	epsInf 1 \
	Pvap 0 \
	sigmaBulk 0 \
	Rvdw 2.19208 \
	Res 0 \
	tauNuc 343133
fluid-ex-corr lda-TF lda-PZ
fluid-gummel-loop 10 1.000000e-05
fluid-minimize  \
	dirUpdateScheme      PolakRibiere \
	linminMethod         DirUpdateRecommended \
	nIterations          400 \
	history              15 \
	knormThreshold       1e-11 \
	energyDiffThreshold  0 \
	nEnergyDiff          2 \
	alphaTstart          1 \
	alphaTmin            1e-10 \
	updateTestStepSize   yes \
	alphaTreduceFactor   0.1 \
	alphaTincreaseFactor 3 \
	nAlphaAdjustMax      6 \
	wolfeEnergy          0.0001 \
	wolfeGradient        0.9 \
	fdTest               no
fluid-solvent H2O 55.338 ScalarEOS \
	epsBulk 78.4 \
	pMol 0.92466 \
	epsInf 1.77 \
	Pvap 1.06736e-10 \
	sigmaBulk 4.62e-05 \
	Rvdw 2.61727 \
	Res 1.42 \
	tauNuc 343133 \
	poleEl 15 7 1
forces-output-coords Positions
ion Cu  -0.000002000000000   6.561230999999999  57.993625999999999 1
ion Cu   2.383311000000000   2.733847000000000  56.447116999999999 1
ion Cu   2.383309000000001   9.295077999999998  54.900666000000001 1
ion Cu   4.766623000000000   0.000000000000000  30.156694999999999 1
ion Cu  -0.000000000000000   5.467694000000000  53.354157000000001 1
ion Cu   2.383309000000001   1.640310000000000  51.807648000000000 1
ion Cu   2.383311000000001   8.201541000000001  50.261139000000000 1
ion Cu  -0.000002000000000   4.374157000000000  48.714629000000002 1
ion Cu   2.383311000000000   0.546774000000000  47.168179000000002 1
ion Cu   2.383309000000000   7.108003999999999  45.621670000000002 1
ion Cu   0.000002000000000   3.280610000000000  44.075161000000001 1
ion Cu   0.000000000000000   9.841840999999999  42.528651000000004 1
ion Cu   2.383314000000000   6.014457000000000  40.982142000000003 1
ion Cu   0.000000000000000   2.187072999999999  39.435692000000003 1
ion Cu   0.000002000000000   8.748303999999997  37.889181999999998 1
ion Cu   2.383311000000000   4.920919999999999  36.342672999999998 1
ion Cu   0.000002000000000   1.093537000000000  34.796163999999997 1
ion Cu   0.000000000000000   7.654766999999999  33.249654999999997 1
ion Cu   2.383314000000000   3.827383999999999  31.703203999999996 1
ion-species /projects/musgravc/apps/jdftx-1.6.0/build/pseudopotentials/GBRV_v1.5/$ID_pbe_v1.uspp
ion-species /projects/musgravc/apps/jdftx-1.6.0/build/pseudopotentials/GBRV_v1.5/$ID_pbe_v1.2.uspp
ion-species /projects/musgravc/apps/jdftx-1.6.0/build/pseudopotentials/GBRV_v1.5/$ID_pbe_v1.4.uspp
ion-species /projects/musgravc/apps/jdftx-1.6.0/build/pseudopotentials/GBRV_v1.5/$ID_pbe_v1.5.uspp
ion-width Ecut
ionic-minimize  \
	dirUpdateScheme      L-BFGS \
	linminMethod         DirUpdateRecommended \
	nIterations          100 \
	history              15 \
	knormThreshold       0.0001 \
	energyDiffThreshold  1e-06 \
	nEnergyDiff          2 \
	alphaTstart          1 \
	alphaTmin            1e-10 \
	updateTestStepSize   yes \
	alphaTreduceFactor   0.1 \
	alphaTincreaseFactor 3 \
	nAlphaAdjustMax      3 \
	wolfeEnergy          0.0001 \
	wolfeGradient        0.9 \
	fdTest               no
kpoint   0.000000000000   0.000000000000   0.000000000000  1.00000000000000
kpoint-folding 11 5 1 
latt-move-scale 0 0 0
latt-scale 1 1 1 
lattice  \
	   4.766623000000000   -2.383311000000000    0.000000000000000  \
	   0.000000000000000   10.388614000000000    0.000000000000000  \
	   0.000000000000000    0.000000000000000   58.766880999999998 
lattice-minimize  \
	dirUpdateScheme      L-BFGS \
	linminMethod         DirUpdateRecommended \
	nIterations          0 \
	history              15 \
	knormThreshold       0 \
	energyDiffThreshold  1e-06 \
	nEnergyDiff          2 \
	alphaTstart          1 \
	alphaTmin            1e-10 \
	updateTestStepSize   yes \
	alphaTreduceFactor   0.1 \
	alphaTincreaseFactor 3 \
	nAlphaAdjustMax      3 \
	wolfeEnergy          0.0001 \
	wolfeGradient        0.9 \
	fdTest               no
lcao-params 30 1e-06 0.001
pcm-variant CANDLE
spintype z-spin
subspace-rotation-factor 1 yes
symmetries none
symmetry-threshold 0.0001
van-der-waals D3


Applied RMS atom displacement 0 bohrs to make symmetries exact.

---------- Initializing the Grid ----------
R = 
[      4.76662     -2.38331            0  ]
[            0      10.3886            0  ]
[            0            0      58.7669  ]
unit cell volume = 2910.05
G =
[    1.31816   0.302407         -0  ]
[          0   0.604815          0  ]
[          0         -0   0.106917  ]
Minimum fftbox size, Smin = [  20  44  240  ]
Chosen fftbox size, S = [  20  48  240  ]

---------- Exchange Correlation functional ----------
Initalized PBE GGA exchange.
Initalized PBE GGA correlation.

---------- Setting up pseudopotentials ----------
Width of ionic core gaussian charges (only for fluid interactions / plotting) set to 0.397384

Reading pseudopotential file '/projects/musgravc/apps/jdftx-1.6.0/build/pseudopotentials/GBRV_v1.5/cu_pbe_v1.2.uspp':
  Title: Cu.  Created by USPP 7.3.6 on 3-2-2014
  Reference state energy: -201.059491.  19 valence electrons in orbitals:
    |300>  occupation: 2  eigenvalue: -5.020764
    |310>  occupation: 6  eigenvalue: -3.445588
    |320>  occupation: 8  eigenvalue: -0.925168
    |400>  occupation: 2  eigenvalue: -0.567638
    |410>  occupation: 0  eigenvalue: -0.326154
  lMax: 2  lLocal: 3  QijEcut: 6
  6 projectors sampled on a log grid with 613 points:
    l: 0  eig: -5.020767  rCut: 1.4
    l: 0  eig: -0.567640  rCut: 1.4
    l: 1  eig: -3.445589  rCut: 1.55
    l: 1  eig: -0.326157  rCut: 1.55
    l: 2  eig: -0.925170  rCut: 1.5
    l: 2  eig: 1.500000  rCut: 1.5
  Partial core density with radius 0.8
  Transforming core density to a uniform radial grid of dG=0.02 with 1276 points.
  Transforming local potential to a uniform radial grid of dG=0.02 with 1276 points.
  Transforming nonlocal projectors to a uniform radial grid of dG=0.02 with 432 points.
  Transforming density augmentations to a uniform radial grid of dG=0.02 with 1276 points.
  Transforming atomic orbitals to a uniform radial grid of dG=0.02 with 432 points.
  Core radius for overlap checks: 1.55 bohrs.

Initialized 1 species with 19 total atoms.

Folded 1 k-points by 11x5x1 to 55 k-points.

---------- Setting up k-points, bands, fillings ----------
No reducable k-points. 
Computing the number of bands and number of electrons
Calculating initial fillings.
nElectrons: 361.000000   nBands: 217   nStates: 110

----- Setting up reduced wavefunction bases (one per k-point) -----
average nbasis = 12434.636 , ideal nbasis = 12431.973

----- Initializing Supercell corresponding to k-point mesh -----
Lattice vector linear combinations in supercell:
[  11   0   0  ]
[   0   5   0  ]
[   0   0   1  ]
Supercell lattice vectors:
[  52.4329  -11.9166  0  ]
[  0  51.9431  0  ]
[  0  0  58.7669  ]

Initializing DFT-D3 calculator:
	Parameters set for gga-PBE functional
	s6:  1.000  s_r6:  1.217
	s8:  0.722  s_r8:  1.000
	Per-atom parameters loaded for:
	Cu:  sqrtQ[a0]:  5.226  Rcov[a0]:  1.909  CN: [ 0.00 0.96 ]

Initializing DFT-D2 calculator for fluid / solvation:
	Cu:  C6:  187.33 Eh-a0^6  R0: 2.952 a0

---------- Setting up ewald sum ----------
Optimum gaussian width for ewald sums = 3.486729 bohr.
Real space sum over 1045 unit cells with max indices [  9  5  2  ]
Reciprocal space sum over 6435 terms with max indices [  4  6  27  ]

Computing DFT-D3 correction:
# coordination-number Cu 5.332 6.855 8.358 5.332 9.145 9.154 9.159 9.160 9.161 9.161 9.161 9.161 9.161 9.160 9.159 9.154 9.145 8.358 6.855
# diagonal-C6 Cu 175.00 175.00 175.00 175.00 175.00 175.00 175.00 175.00 175.00 175.00 175.00 175.00 175.00 175.00 175.00 175.00 175.00 175.00 175.00
EvdW_6 =   -0.124731
EvdW_8 =   -0.180365

---------- Allocating electronic variables ----------
Initializing wave functions:  linear combination of atomic orbitals
Cu pseudo-atom occupations:   s ( 2 1 )  p ( 6 0 )  d ( 10 )
	FillingsUpdate:  mu: -2.950024493  nElectrons: 361.000000  magneticMoment: [ Abs: 0.17405  Tot: +0.00562 ]
LCAOMinimize: Iter:   0  F: -3742.6565224784690145  |grad|_K:  3.766e-02  alpha:  1.000e+00
LCAOMinimize: 	Step increased F by 1.845596e+03, reducing alpha to 3.966611e-02.
LCAOMinimize: 	Step increased F by 3.367525e+02, reducing alpha to 3.966611e-03.
	FillingsUpdate:  mu: -2.058346026  nElectrons: 361.000000  magneticMoment: [ Abs: 0.17727  Tot: -0.00072 ]
LCAOMinimize: Iter:   1  F: -3763.5774562807705479  |grad|_K:  1.056e-02  alpha:  3.967e-03  linmin: -5.462e-02  cgtest:  1.184e-01  t[s]:    128.98
LCAOMinimize: 	Predicted alpha/alphaT>3.000000, increasing alphaT to 1.189983e-02.
	FillingsUpdate:  mu: -1.324510769  nElectrons: 361.000000  magneticMoment: [ Abs: 0.19324  Tot: -0.00452 ]
LCAOMinimize: Iter:   2  F: -3773.0260315314435502  |grad|_K:  9.883e-03  alpha:  2.209e-02  linmin: -5.110e-02  cgtest:  3.572e-03  t[s]:    169.44
LCAOMinimize: 	Wrong curvature in test step, increasing alphaT to 6.628090e-02.
	FillingsUpdate:  mu: -0.266484696  nElectrons: 361.000000  magneticMoment: [ Abs: 0.06157  Tot: -0.00569 ]
LCAOMinimize: Iter:   3  F: -3793.0331705922030778  |grad|_K:  1.065e-02  alpha: -1.227e-01  linmin: -8.325e-02  cgtest:  7.475e-01  t[s]:    199.90
LCAOMinimize: 	Step increased F by 1.163917e+01, reducing alpha to 4.716228e-02.
LCAOMinimize: 	Step increased F by 2.967076e+01, reducing alpha to 4.716228e-03.
	FillingsUpdate:  mu: -0.535979450  nElectrons: 361.000000  magneticMoment: [ Abs: 0.04931  Tot: -0.00877 ]
LCAOMinimize: Iter:   4  F: -3796.9633940048488512  |grad|_K:  8.350e-03  alpha:  4.716e-03  linmin: -1.369e-01  cgtest:  6.342e-01  t[s]:    279.80
LCAOMinimize: 	Predicted alpha/alphaT>3.000000, increasing alphaT to 1.414869e-02.
	FillingsUpdate:  mu: -0.697025469  nElectrons: 361.000000  magneticMoment: [ Abs: 0.03866  Tot: -0.00701 ]
LCAOMinimize: Iter:   5  F: -3799.9343899283021528  |grad|_K:  1.469e-02  alpha:  1.002e-02  linmin:  3.120e-03  cgtest:  9.192e-03  t[s]:    320.36
	FillingsUpdate:  mu: -0.918231899  nElectrons: 361.000000  magneticMoment: [ Abs: 0.01995  Tot: -0.00183 ]
LCAOMinimize: Iter:   6  F: -3805.8948978828730105  |grad|_K:  1.081e-02  alpha:  8.898e-03  linmin: -4.202e-03  cgtest:  5.027e-02  t[s]:    352.66
LCAOMinimize: 	Predicted alpha/alphaT>3.000000, increasing alphaT to 2.669303e-02.
	FillingsUpdate:  mu: +1.667262852  nElectrons: 361.000000  magneticMoment: [ Abs: 0.00615  Tot: -0.00028 ]
LCAOMinimize: Iter:   7  F: -3820.0631164040983094  |grad|_K:  2.222e-02  alpha:  3.374e-02  linmin: -6.384e-04  cgtest: -1.938e-01  t[s]:    393.35
	FillingsUpdate:  mu: +2.404835245  nElectrons: 361.000000  magneticMoment: [ Abs: 0.00145  Tot: -0.00005 ]
LCAOMinimize: Iter:   8  F: -3824.2646712111591114  |grad|_K:  5.446e-03  alpha:  1.595e-02  linmin:  3.020e-02  cgtest: -2.139e-01  t[s]:    425.70
	FillingsUpdate:  mu: +1.994926748  nElectrons: 361.000000  magneticMoment: [ Abs: 0.00121  Tot: -0.00002 ]
LCAOMinimize: Iter:   9  F: -3825.2967536567898605  |grad|_K:  3.302e-03  alpha:  1.593e-02  linmin: -7.259e-03  cgtest:  9.089e-01  t[s]:    458.10
LCAOMinimize: Encountered beta<0, resetting CG.
LCAOMinimize: 	Predicted alpha/alphaT>3.000000, increasing alphaT to 4.780498e-02.
	FillingsUpdate:  mu: +0.889661375  nElectrons: 361.000000  magneticMoment: [ Abs: 0.00154  Tot: +0.00004 ]
LCAOMinimize: Iter:  10  F: -3827.5410328207003658  |grad|_K:  3.189e-03  alpha:  6.717e-02  linmin:  2.103e-02  cgtest: -2.613e-01  t[s]:    498.84
	FillingsUpdate:  mu: +0.903183683  nElectrons: 361.000000  magneticMoment: [ Abs: 0.00163  Tot: -0.00003 ]
LCAOMinimize: Iter:  11  F: -3827.8230882663292505  |grad|_K:  3.194e-03  alpha:  8.120e-03  linmin: -2.258e-02  cgtest:  9.314e-01  t[s]:    531.19
LCAOMinimize: 	Predicted alpha/alphaT>3.000000, increasing alphaT to 2.436134e-02.
	FillingsUpdate:  mu: +1.039425085  nElectrons: 361.000000  magneticMoment: [ Abs: 0.00169  Tot: -0.00001 ]
LCAOMinimize: Iter:  12  F: -3829.1098816992362117  |grad|_K:  2.225e-03  alpha:  3.529e-02  linmin: -9.862e-03  cgtest: -5.245e-02  t[s]:    572.06
	FillingsUpdate:  mu: +1.088671703  nElectrons: 361.000000  magneticMoment: [ Abs: 0.00195  Tot: +0.00001 ]
LCAOMinimize: Iter:  13  F: -3829.9038078101725660  |grad|_K:  2.148e-03  alpha:  4.319e-02  linmin:  2.509e-03  cgtest: -1.682e-01  t[s]:    604.36
	FillingsUpdate:  mu: +0.820626759  nElectrons: 361.000000  magneticMoment: [ Abs: 0.00312  Tot: +0.00002 ]
LCAOMinimize: Iter:  14  F: -3830.2301687130661776  |grad|_K:  5.391e-03  alpha:  6.795e-02  linmin:  2.742e-02  cgtest:  4.884e-01  t[s]:    636.56
LCAOMinimize: 	Bad step direction: g.d > 0.
LCAOMinimize: 	Undoing step.
LCAOMinimize: 	Step failed: resetting search direction.
	FillingsUpdate:  mu: +0.820626759  nElectrons: 361.000000  magneticMoment: [ Abs: 0.00312  Tot: +0.00002 ]
LCAOMinimize: Iter:  15  F: -3830.2301687130661776  |grad|_K:  5.391e-03  alpha:  0.000e+00
	FillingsUpdate:  mu: +0.811465759  nElectrons: 361.000000  magneticMoment: [ Abs: 0.00312  Tot: +0.00005 ]
LCAOMinimize: Iter:  16  F: -3830.6581755596539551  |grad|_K:  6.075e-03  alpha:  1.517e-02  linmin:  4.141e-02  cgtest: -6.135e-01  t[s]:    692.97
	FillingsUpdate:  mu: +0.692515682  nElectrons: 361.000000  magneticMoment: [ Abs: 0.00315  Tot: -0.00001 ]
LCAOMinimize: Iter:  17  F: -3830.9108626409934004  |grad|_K:  6.325e-03  alpha:  5.720e-03  linmin: -3.704e-03  cgtest:  9.608e-01  t[s]:    725.12
	FillingsUpdate:  mu: +0.410340497  nElectrons: 361.000000  magneticMoment: [ Abs: 0.00314  Tot: +0.00003 ]
LCAOMinimize: Iter:  18  F: -3831.9058105447197704  |grad|_K:  1.322e-03  alpha:  7.064e-03  linmin: -9.277e-02  cgtest:  6.613e-01  t[s]:    757.31
LCAOMinimize: Encountered beta<0, resetting CG.
LCAOMinimize: 	Predicted alpha/alphaT>3.000000, increasing alphaT to 2.119290e-02.
	FillingsUpdate:  mu: +0.516087132  nElectrons: 361.000000  magneticMoment: [ Abs: 0.00319  Tot: -0.00007 ]
LCAOMinimize: Iter:  19  F: -3832.0521179273237067  |grad|_K:  1.320e-03  alpha:  2.513e-02  linmin:  7.134e-03  cgtest: -1.368e-01  t[s]:    797.79
	FillingsUpdate:  mu: +0.583164174  nElectrons: 361.000000  magneticMoment: [ Abs: 0.00327  Tot: -0.00012 ]
LCAOMinimize: Iter:  20  F: -3832.1351078365669309  |grad|_K:  1.005e-03  alpha:  1.232e-02  linmin: -1.484e-02  cgtest:  6.865e-01  t[s]:    830.03
	FillingsUpdate:  mu: +0.480108652  nElectrons: 361.000000  magneticMoment: [ Abs: 0.00332  Tot: -0.00008 ]
LCAOMinimize: Iter:  21  F: -3832.1971964531849153  |grad|_K:  6.989e-04  alpha:  1.766e-02  linmin: -6.300e-03  cgtest: -7.973e-03  t[s]:    862.21
	FillingsUpdate:  mu: +0.440736249  nElectrons: 361.000000  magneticMoment: [ Abs: 0.00339  Tot: -0.00004 ]
LCAOMinimize: Iter:  22  F: -3832.2339381363367465  |grad|_K:  6.149e-04  alpha:  2.148e-02  linmin: -2.837e-04  cgtest: -7.670e-02  t[s]:    894.57
LCAOMinimize: 	Predicted alpha/alphaT>3.000000, increasing alphaT to 6.444914e-02.
	FillingsUpdate:  mu: +0.427869872  nElectrons: 361.000000  magneticMoment: [ Abs: 0.00365  Tot: -0.00012 ]
LCAOMinimize: Iter:  23  F: -3832.2974026518777464  |grad|_K:  4.761e-04  alpha:  3.549e-02  linmin: -2.526e-02  cgtest:  5.291e-01  t[s]:    935.17
	FillingsUpdate:  mu: +0.410256184  nElectrons: 361.000000  magneticMoment: [ Abs: 0.00369  Tot: -0.00016 ]
LCAOMinimize: Iter:  24  F: -3832.3097612368419504  |grad|_K:  4.237e-04  alpha:  1.406e-02  linmin: -7.793e-03  cgtest:  2.074e-03  t[s]:    967.25
LCAOMinimize: 	Predicted alpha/alphaT>3.000000, increasing alphaT to 4.219208e-02.
	FillingsUpdate:  mu: +0.331539821  nElectrons: 361.000000  magneticMoment: [ Abs: 0.00383  Tot: -0.00027 ]
LCAOMinimize: Iter:  25  F: -3832.3387225956366819  |grad|_K:  2.200e-04  alpha:  4.534e-02  linmin:  1.153e-02  cgtest: -2.914e-02  t[s]:   1007.80
	FillingsUpdate:  mu: +0.338637113  nElectrons: 361.000000  magneticMoment: [ Abs: 0.00394  Tot: -0.00033 ]
LCAOMinimize: Iter:  26  F: -3832.3460098010718866  |grad|_K:  3.949e-04  alpha:  4.667e-02  linmin:  1.797e-03  cgtest:  5.847e-02  t[s]:   1039.90
	FillingsUpdate:  mu: +0.292399169  nElectrons: 361.000000  magneticMoment: [ Abs: 0.00403  Tot: -0.00038 ]
LCAOMinimize: Iter:  27  F: -3832.3518292213407221  |grad|_K:  9.840e-05  alpha:  9.561e-03  linmin: -3.740e-02  cgtest:  7.695e-01  t[s]:   1072.81
LCAOMinimize: Encountered beta<0, resetting CG.
	FillingsUpdate:  mu: +0.291192437  nElectrons: 361.000000  magneticMoment: [ Abs: 0.00404  Tot: -0.00039 ]
LCAOMinimize: Iter:  28  F: -3832.3521508400353923  |grad|_K:  6.954e-05  alpha:  9.821e-03  linmin:  5.412e-04  cgtest: -2.394e-03  t[s]:   1105.03
LCAOMinimize: 	Predicted alpha/alphaT>3.000000, increasing alphaT to 2.946404e-02.
	FillingsUpdate:  mu: +0.295843095  nElectrons: 361.000000  magneticMoment: [ Abs: 0.00405  Tot: -0.00039 ]
LCAOMinimize: Iter:  29  F: -3832.3527435358710136  |grad|_K:  7.625e-05  alpha:  3.636e-02  linmin:  2.879e-04  cgtest:  6.562e-03  t[s]:   1145.56
	FillingsUpdate:  mu: +0.288028834  nElectrons: 361.000000  magneticMoment: [ Abs: 0.00406  Tot: -0.00039 ]
LCAOMinimize: Iter:  30  F: -3832.3534054567085150  |grad|_K:  5.394e-05  alpha:  3.374e-02  linmin:  1.110e-04  cgtest: -2.655e-03  t[s]:   1177.81
LCAOMinimize: None of the convergence criteria satisfied after 30 iterations.
----- createFluidSolver() ----- (Fluid-side solver setup)
   Initializing fluid molecule 'H2O'
     Initializing site 'O'
       Electron density: proportional to exp(-r/0.36935)*erfc((r-0.51523)/0.36823) with norm 6.826
       Charge density: gaussian nuclear width 0.478731 with net site charge 0.826
       Polarizability: cuspless exponential with width 0.32 and norm 3.73
       Hard sphere radius: 2.57003 bohrs
       Positions in reference frame:
         [ +0.000000 +0.000000 +0.000000 ]
     Initializing site 'H'
       Electron density: proportional to exp(-r/0.34641)*erfc((r-0)/0.390882) with norm 0.587
       Charge density: gaussian nuclear width 0.377945 with net site charge -0.413
       Polarizability: cuspless exponential with width 0.39 and norm 3.3
       Positions in reference frame:
         [ +0.000000 -1.441945 +1.122523 ]
         [ +0.000000 +1.441945 +1.122523 ]
     Net charge: 0   dipole magnitude: 0.927204
     Initializing spherical shell mfKernel with radius 2.61727 Bohr
     deltaS corrections:
       site 'O': -7.54299
       site 'H': -6.83917
   Initializing fluid molecule 'Na+'
     Initializing site 'Na'
       Electron density: proportional to exp(-r/0.19682)*erfc((r-0.71491)/0.41314) with norm 8.1383
       Charge density: gaussian nuclear width 0.365347 with net site charge -1
       Hard sphere radius: 1.86327 bohrs
       Positions in reference frame:
         [ +0.000000 +0.000000 +0.000000 ]
     Net charge: -1   dipole magnitude: 0
     Initializing gaussian mfKernel with width: 1.55004 Bohr
     deltaS corrections:
       site 'Na': -22.3555
   Initializing fluid molecule 'F-'
     Initializing site 'F'
       Electron density: proportional to exp(-r/0.38886)*erfc((r-0)/0.438782) with norm 8
       Charge density: gaussian nuclear width 0.374796 with net site charge 1
       Hard sphere radius: 2.39995 bohrs
       Positions in reference frame:
         [ +0.000000 +0.000000 +0.000000 ]
     Net charge: 1   dipole magnitude: 0
     Initializing gaussian mfKernel with width: 1.59012 Bohr
     deltaS corrections:
       site 'F': -9.04335

Correction to mu due to finite nuclear width = -0.123085
   Cavity determined by nc: 0.00142 and sigma: 0.707107
   Nonlocal vdW cavity from gaussian model electron density with norm = 8 and sigma = 0.993594 bohr
   Charge asymmetry in cavity with sensitivity pCavity = 36.5 e-bohr/Eh
   Electrostatic cavity expanded by eta = 1.46 bohrs
   Weighted density cavitation model constrained by Nbulk: 0.0049383 bohr^-3, Pvap: 3.14029 kPa, Rvdw: 2.61727 bohr and sigmaBulk: 4.62e-05 Eh/bohr^2 at T: 298 K.
   Weighted density dispersion model using vdW pair potentials with single solvent site with sqrtC6eff: 0.77 SI.


---- Citations for features of the code used in this run ----

   Software package:
      R. Sundararaman, K. Letchworth-Weaver, K.A. Schwarz, D. Gunceler, Y. Ozhabes and T.A. Arias, 'JDFTx: software for joint density-functional theory', SoftwareX 6, 278 (2017)

   gga-PBE exchange-correlation functional:
      J.P. Perdew, K. Burke and M. Ernzerhof, Phys. Rev. Lett. 77, 3865 (1996)

   Pseudopotentials:
      KF Garrity, JW Bennett, KM Rabe and D Vanderbilt, Comput. Mater. Sci. 81, 446 (2014)

   DFT-D3 dispersion correction:
      S. Grimme, J. Antony, S. Ehrlich and H. Krieg, J. Chem. Phys. 132, 154104 (2010)

   DFT-D2 dispersion correction:
      S. Grimme, J. Comput. Chem. 27, 1787 (2006)

   Charge-asymmetric nonlocally-determined local-electric (CANDLE) solvation model:
      R. Sundararaman and W.A. Goddard III, J. Chem. Phys. 142, 064107 (2015)

   Total energy minimization with Auxiliary Hamiltonian:
      C. Freysoldt, S. Boeck, and J. Neugebauer, Phys. Rev. B 79, 241103(R) (2009)

   Linear-tetrahedron sampling for density of states:
      G. Lehmann and M. Taut, Phys. status solidi (b) 54, 469 (1972)

This list may not be complete. Please suggest additional citations or
report any other bugs at https://github.com/shankar1729/jdftx/issues

Initialization completed successfully at t[s]:   1187.65


Computing DFT-D3 correction:
# coordination-number Cu 5.332 6.855 8.358 5.332 9.145 9.154 9.159 9.160 9.161 9.161 9.161 9.161 9.161 9.160 9.159 9.154 9.145 8.358 6.855
# diagonal-C6 Cu 175.00 175.00 175.00 175.00 175.00 175.00 175.00 175.00 175.00 175.00 175.00 175.00 175.00 175.00 175.00 175.00 175.00 175.00 175.00
EvdW_6 =   -0.124731
EvdW_8 =   -0.180365
Fluid solver invoked on fresh (random / LCAO) wavefunctions
Running a vacuum solve first:

-------- Initial electronic minimization -----------
	FillingsUpdate:  mu: +0.288032040  nElectrons: 361.000000  magneticMoment: [ Abs: 0.00406  Tot: -0.00039 ]
ElecMinimize: Iter:   0  F: -3832.353405456701239  |grad|_K:  2.070e-04  alpha:  1.000e+00
	FillingsUpdate:  mu: +0.184526124  nElectrons: 361.000000  magneticMoment: [ Abs: 0.00388  Tot: -0.00040 ]
	SubspaceRotationAdjust: set factor to 0.992
ElecMinimize: Iter:   1  F: -3833.581117979656028  |grad|_K:  1.017e-04  alpha:  9.980e-02  linmin:  3.747e-04  t[s]:   1270.46
	FillingsUpdate:  mu: +0.314056570  nElectrons: 361.000000  magneticMoment: [ Abs: 0.00277  Tot: -0.00006 ]
	SubspaceRotationAdjust: set factor to 0.682
ElecMinimize: Iter:   2  F: -3834.610533357127224  |grad|_K:  1.250e-04  alpha:  2.974e-01  linmin: -3.681e-04  t[s]:   1322.84
	FillingsUpdate:  mu: +0.602821138  nElectrons: 361.000000  magneticMoment: [ Abs: 0.00250  Tot: +0.00004 ]
	SubspaceRotationAdjust: set factor to 0.383
ElecMinimize: Iter:   3  F: -3834.745171644143738  |grad|_K:  1.549e-04  alpha:  5.104e-02  linmin:  9.252e-04  t[s]:   1375.22
	FillingsUpdate:  mu: +0.686685271  nElectrons: 361.000000  magneticMoment: [ Abs: 0.00228  Tot: +0.00003 ]
	SubspaceRotationAdjust: set factor to 0.237
ElecMinimize: Iter:   4  F: -3834.813227513277980  |grad|_K:  1.150e-04  alpha:  2.558e-02  linmin:  2.853e-05  t[s]:   1427.52
	FillingsUpdate:  mu: +0.522194927  nElectrons: 361.000000  magneticMoment: [ Abs: 0.00215  Tot: +0.00004 ]
	SubspaceRotationAdjust: set factor to 0.173
ElecMinimize: Iter:   5  F: -3835.009206548253587  |grad|_K:  7.236e-05  alpha:  4.750e-02  linmin: -2.142e-04  t[s]:   1479.89
	FillingsUpdate:  mu: +0.313043613  nElectrons: 361.000000  magneticMoment: [ Abs: 0.00204  Tot: +0.00006 ]
	SubspaceRotationAdjust: set factor to 0.273
ElecMinimize: Iter:   6  F: -3835.144323319213072  |grad|_K:  3.388e-05  alpha:  7.516e-02  linmin: -1.516e-04  t[s]:   1532.16
	FillingsUpdate:  mu: +0.277087726  nElectrons: 361.000000  magneticMoment: [ Abs: 0.00182  Tot: +0.00006 ]
	SubspaceRotationAdjust: set factor to 0.247
ElecMinimize: Iter:   7  F: -3835.178786937825862  |grad|_K:  2.376e-05  alpha:  9.409e-02  linmin: -3.213e-05  t[s]:   1584.35
	FillingsUpdate:  mu: +0.254529545  nElectrons: 361.000000  magneticMoment: [ Abs: 0.00164  Tot: +0.00007 ]
	SubspaceRotationAdjust: set factor to 0.271
ElecMinimize: Iter:   8  F: -3835.201871585612935  |grad|_K:  1.936e-05  alpha:  1.354e-01  linmin: -7.648e-06  t[s]:   1636.83
	FillingsUpdate:  mu: +0.257955246  nElectrons: 361.000000  magneticMoment: [ Abs: 0.00162  Tot: +0.00009 ]
	SubspaceRotationAdjust: set factor to 0.271
ElecMinimize: Iter:   9  F: -3835.214093226805289  |grad|_K:  1.316e-05  alpha:  1.085e-01  linmin:  1.351e-06  t[s]:   1689.37
	FillingsUpdate:  mu: +0.244863673  nElectrons: 361.000000  magneticMoment: [ Abs: 0.00157  Tot: +0.00009 ]
	SubspaceRotationAdjust: set factor to 0.26
ElecMinimize: Iter:  10  F: -3835.219936563284591  |grad|_K:  1.180e-05  alpha:  1.127e-01  linmin: -1.049e-06  t[s]:   1741.70
	FillingsUpdate:  mu: +0.229744288  nElectrons: 361.000000  magneticMoment: [ Abs: 0.00143  Tot: +0.00010 ]
	SubspaceRotationAdjust: set factor to 0.31
ElecMinimize: Iter:  11  F: -3835.226404946060939  |grad|_K:  9.143e-06  alpha:  1.553e-01  linmin:  3.364e-06  t[s]:   1794.14
	FillingsUpdate:  mu: +0.231559337  nElectrons: 361.000000  magneticMoment: [ Abs: 0.00135  Tot: +0.00010 ]
	SubspaceRotationAdjust: set factor to 0.317
ElecMinimize: Iter:  12  F: -3835.229104839010688  |grad|_K:  7.747e-06  alpha:  1.080e-01  linmin:  1.504e-07  t[s]:   1846.83
	FillingsUpdate:  mu: +0.238460310  nElectrons: 361.000000  magneticMoment: [ Abs: 0.00128  Tot: +0.00010 ]
	SubspaceRotationAdjust: set factor to 0.3
ElecMinimize: Iter:  13  F: -3835.231285463761196  |grad|_K:  6.392e-06  alpha:  1.214e-01  linmin:  1.874e-06  t[s]:   1899.62
	FillingsUpdate:  mu: +0.237554364  nElectrons: 361.000000  magneticMoment: [ Abs: 0.00119  Tot: +0.00010 ]
	SubspaceRotationAdjust: set factor to 0.389
ElecMinimize: Iter:  14  F: -3835.232948627568931  |grad|_K:  5.540e-06  alpha:  1.361e-01  linmin:  1.030e-06  t[s]:   1952.00
	FillingsUpdate:  mu: +0.231234510  nElectrons: 361.000000  magneticMoment: [ Abs: 0.00107  Tot: +0.00010 ]
	SubspaceRotationAdjust: set factor to 0.371
ElecMinimize: Iter:  15  F: -3835.234310532885047  |grad|_K:  5.866e-06  alpha:  1.483e-01  linmin:  1.324e-06  t[s]:   2004.67
	FillingsUpdate:  mu: +0.228031054  nElectrons: 361.000000  magneticMoment: [ Abs: 0.00094  Tot: +0.00009 ]
	SubspaceRotationAdjust: set factor to 0.31
ElecMinimize: Iter:  16  F: -3835.235273434051123  |grad|_K:  4.920e-06  alpha:  9.344e-02  linmin: -2.316e-07  t[s]:   2057.17
	FillingsUpdate:  mu: +0.229891266  nElectrons: 361.000000  magneticMoment: [ Abs: 0.00080  Tot: +0.00009 ]
	SubspaceRotationAdjust: set factor to 0.339
ElecMinimize: Iter:  17  F: -3835.236260891220809  |grad|_K:  4.195e-06  alpha:  1.363e-01  linmin:  1.277e-06  t[s]:   2110.06
	FillingsUpdate:  mu: +0.232428114  nElectrons: 361.000000  magneticMoment: [ Abs: 0.00067  Tot: +0.00008 ]
	SubspaceRotationAdjust: set factor to 0.347
ElecMinimize: Iter:  18  F: -3835.236985541703689  |grad|_K:  3.445e-06  alpha:  1.378e-01  linmin:  1.422e-08  t[s]:   2162.55
	FillingsUpdate:  mu: +0.231324786  nElectrons: 361.000000  magneticMoment: [ Abs: 0.00057  Tot: +0.00007 ]
	SubspaceRotationAdjust: set factor to 0.306
ElecMinimize: Iter:  19  F: -3835.237392271332737  |grad|_K:  3.053e-06  alpha:  1.144e-01  linmin:  2.073e-07  t[s]:   2215.06
	FillingsUpdate:  mu: +0.229048953  nElectrons: 361.000000  magneticMoment: [ Abs: 0.00050  Tot: +0.00007 ]
	SubspaceRotationAdjust: set factor to 0.258
ElecMinimize: Iter:  20  F: -3835.237665304831808  |grad|_K:  2.146e-06  alpha:  9.784e-02  linmin:  1.836e-07  t[s]:   2267.36
	FillingsUpdate:  mu: +0.228424431  nElectrons: 361.000000  magneticMoment: [ Abs: 0.00042  Tot: +0.00006 ]
	SubspaceRotationAdjust: set factor to 0.295
ElecMinimize: Iter:  21  F: -3835.237859568960630  |grad|_K:  1.884e-06  alpha:  1.410e-01  linmin:  8.499e-08  t[s]:   2319.73
	FillingsUpdate:  mu: +0.229958824  nElectrons: 361.000000  magneticMoment: [ Abs: 0.00034  Tot: +0.00005 ]
	SubspaceRotationAdjust: set factor to 0.288
ElecMinimize: Iter:  22  F: -3835.238010640402536  |grad|_K:  1.590e-06  alpha:  1.422e-01  linmin: -2.311e-07  t[s]:   2372.14
	FillingsUpdate:  mu: +0.231167127  nElectrons: 361.000000  magneticMoment: [ Abs: 0.00029  Tot: +0.00005 ]
	SubspaceRotationAdjust: set factor to 0.243
ElecMinimize: Iter:  23  F: -3835.238086878808645  |grad|_K:  1.095e-06  alpha:  1.006e-01  linmin: -5.214e-08  t[s]:   2424.52
	FillingsUpdate:  mu: +0.230947403  nElectrons: 361.000000  magneticMoment: [ Abs: 0.00024  Tot: +0.00004 ]
	SubspaceRotationAdjust: set factor to 0.281
ElecMinimize: Iter:  24  F: -3835.238135052292364  |grad|_K:  9.193e-07  alpha:  1.341e-01  linmin: -9.481e-08  t[s]:   2476.86
	FillingsUpdate:  mu: +0.230309469  nElectrons: 361.000000  magneticMoment: [ Abs: 0.00019  Tot: +0.00004 ]
	SubspaceRotationAdjust: set factor to 0.277
ElecMinimize: Iter:  25  F: -3835.238176086254498  |grad|_K:  8.362e-07  alpha:  1.621e-01  linmin: -1.323e-06  t[s]:   2529.57
	FillingsUpdate:  mu: +0.230533941  nElectrons: 361.000000  magneticMoment: [ Abs: 0.00016  Tot: +0.00003 ]
	SubspaceRotationAdjust: set factor to 0.263
ElecMinimize: Iter:  26  F: -3835.238198108211236  |grad|_K:  5.674e-07  alpha:  1.051e-01  linmin: -1.605e-09  t[s]:   2581.92
	FillingsUpdate:  mu: +0.231169806  nElectrons: 361.000000  magneticMoment: [ Abs: 0.00014  Tot: +0.00003 ]
	SubspaceRotationAdjust: set factor to 0.267
ElecMinimize: Iter:  27  F: -3835.238211020185645  |grad|_K:  4.773e-07  alpha:  1.339e-01  linmin:  2.913e-07  t[s]:   2634.34
	FillingsUpdate:  mu: +0.231390259  nElectrons: 361.000000  magneticMoment: [ Abs: 0.00012  Tot: +0.00003 ]
	SubspaceRotationAdjust: set factor to 0.305
ElecMinimize: Iter:  28  F: -3835.238221764260743  |grad|_K:  4.395e-07  alpha:  1.576e-01  linmin: -8.617e-08  t[s]:   2686.88
	FillingsUpdate:  mu: +0.231197842  nElectrons: 361.000000  magneticMoment: [ Abs: 0.00010  Tot: +0.00002 ]
	SubspaceRotationAdjust: set factor to 0.271
ElecMinimize: Iter:  29  F: -3835.238229716456772  |grad|_K:  3.803e-07  alpha:  1.375e-01  linmin: -1.893e-07  t[s]:   2739.72
	FillingsUpdate:  mu: +0.231129740  nElectrons: 361.000000  magneticMoment: [ Abs: 0.00009  Tot: +0.00002 ]
	SubspaceRotationAdjust: set factor to 0.279
ElecMinimize: Iter:  30  F: -3835.238234670263864  |grad|_K:  2.706e-07  alpha:  1.144e-01  linmin: -5.699e-08  t[s]:   2792.20
	FillingsUpdate:  mu: +0.231296755  nElectrons: 361.000000  magneticMoment: [ Abs: 0.00008  Tot: +0.00002 ]
	SubspaceRotationAdjust: set factor to 0.312
ElecMinimize: Iter:  31  F: -3835.238238238739541  |grad|_K:  2.494e-07  alpha:  1.628e-01  linmin: -8.833e-08  t[s]:   2844.48
	FillingsUpdate:  mu: +0.231432326  nElectrons: 361.000000  magneticMoment: [ Abs: 0.00007  Tot: +0.00002 ]
	SubspaceRotationAdjust: set factor to 0.317
ElecMinimize: Iter:  32  F: -3835.238240874022722  |grad|_K:  2.112e-07  alpha:  1.415e-01  linmin:  1.273e-08  t[s]:   2897.01
	FillingsUpdate:  mu: +0.231398901  nElectrons: 361.000000  magneticMoment: [ Abs: 0.00006  Tot: +0.00001 ]
	SubspaceRotationAdjust: set factor to 0.298
ElecMinimize: Iter:  33  F: -3835.238242586384331  |grad|_K:  1.896e-07  alpha:  1.282e-01  linmin:  5.080e-09  t[s]:   2949.45
	FillingsUpdate:  mu: +0.231282304  nElectrons: 361.000000  magneticMoment: [ Abs: 0.00005  Tot: +0.00001 ]
	SubspaceRotationAdjust: set factor to 0.292
ElecMinimize: Iter:  34  F: -3835.238244037279856  |grad|_K:  1.565e-07  alpha:  1.348e-01  linmin:  9.097e-08  t[s]:   3002.06
	FillingsUpdate:  mu: +0.231244565  nElectrons: 361.000000  magneticMoment: [ Abs: 0.00004  Tot: +0.00001 ]
	SubspaceRotationAdjust: set factor to 0.328
ElecMinimize: Iter:  35  F: -3835.238245137864396  |grad|_K:  1.312e-07  alpha:  1.500e-01  linmin: -2.387e-08  t[s]:   3054.44
	FillingsUpdate:  mu: +0.231339525  nElectrons: 361.000000  magneticMoment: [ Abs: 0.00004  Tot: +0.00001 ]
	SubspaceRotationAdjust: set factor to 0.338
ElecMinimize: Iter:  36  F: -3835.238245893820931  |grad|_K:  1.148e-07  alpha:  1.467e-01  linmin:  1.532e-07  t[s]:   3106.99
	FillingsUpdate:  mu: +0.231400645  nElectrons: 361.000000  magneticMoment: [ Abs: 0.00003  Tot: +0.00001 ]
	SubspaceRotationAdjust: set factor to 0.295
ElecMinimize: Iter:  37  F: -3835.238246367960983  |grad|_K:  9.809e-08  alpha:  1.201e-01  linmin:  2.237e-07  t[s]:   3159.58
	FillingsUpdate:  mu: +0.231355499  nElectrons: 361.000000  magneticMoment: [ Abs: 0.00003  Tot: +0.00001 ]
	SubspaceRotationAdjust: set factor to 0.278
ElecMinimize: Iter:  38  F: -3835.238246719086419  |grad|_K:  8.303e-08  alpha:  1.220e-01  linmin:  8.145e-08  t[s]:   3212.09
	FillingsUpdate:  mu: +0.231277504  nElectrons: 361.000000  magneticMoment: [ Abs: 0.00002  Tot: +0.00000 ]
	SubspaceRotationAdjust: set factor to 0.292
ElecMinimize: Iter:  39  F: -3835.238247040229453  |grad|_K:  6.988e-08  alpha:  1.556e-01  linmin:  2.060e-07  t[s]:   3264.66
	FillingsUpdate:  mu: +0.231304734  nElectrons: 361.000000  magneticMoment: [ Abs: 0.00002  Tot: +0.00000 ]
	SubspaceRotationAdjust: set factor to 0.327
ElecMinimize: Iter:  40  F: -3835.238247244804370  |grad|_K:  5.796e-08  alpha:  1.400e-01  linmin: -4.582e-07  t[s]:   3317.11
	FillingsUpdate:  mu: +0.231352320  nElectrons: 361.000000  magneticMoment: [ Abs: 0.00001  Tot: +0.00000 ]
	SubspaceRotationAdjust: set factor to 0.285
ElecMinimize: Iter:  41  F: -3835.238247373310060  |grad|_K:  4.954e-08  alpha:  1.275e-01  linmin:  2.905e-07  t[s]:   3369.50
	FillingsUpdate:  mu: +0.231342107  nElectrons: 361.000000  magneticMoment: [ Abs: 0.00001  Tot: +0.00000 ]
	SubspaceRotationAdjust: set factor to 0.294
ElecMinimize: Iter:  42  F: -3835.238247468425925  |grad|_K:  4.113e-08  alpha:  1.295e-01  linmin: -6.043e-07  t[s]:   3421.84
	FillingsUpdate:  mu: +0.231299878  nElectrons: 361.000000  magneticMoment: [ Abs: 0.00001  Tot: +0.00000 ]
	SubspaceRotationAdjust: set factor to 0.299
ElecMinimize: Iter:  43  F: -3835.238247542363752  |grad|_K:  3.260e-08  alpha:  1.454e-01  linmin:  5.466e-07  t[s]:   3474.85
ElecMinimize: Converged (|Delta F|<1.000000e-07 for 2 iters).
Setting wave functions to eigenvectors of Hamiltonian
Converging empty states (this may take a while): |deigs|: 1.245e-02
Vacuum energy after initial minimize, F = -3835.238247542363752


-------- Electronic minimization -----------
	Linear fluid (dielectric constant: 78.4, screening length: 8.12261 Bohr) occupying 0.349204 of unit cell:	Completed after 21 iterations at t[s]:   3670.95
	FillingsUpdate:  mu: -0.156905689  nElectrons: 361.000000  magneticMoment: [ Abs: 0.00000  Tot: +0.00000 ]
ElecMinimize: Iter:   0  F: -3835.238528582588970  |grad|_K:  5.561e-07  alpha:  1.000e+00
	Linear fluid (dielectric constant: 78.4, screening length: 8.12261 Bohr) occupying 0.350344 of unit cell:	Completed after 20 iterations at t[s]:   3714.64
	Linear fluid (dielectric constant: 78.4, screening length: 8.12261 Bohr) occupying 0.350022 of unit cell:	Completed after 16 iterations at t[s]:   3729.32
	FillingsUpdate:  mu: -0.155258000  nElectrons: 361.000000  magneticMoment: [ Abs: 0.00000  Tot: +0.00000 ]
	SubspaceRotationAdjust: set factor to 0.314
ElecMinimize: Iter:   1  F: -3835.238594277929224  |grad|_K:  9.585e-07  alpha:  7.121e-01  linmin: -3.181e-08  t[s]:   3750.52
	Linear fluid (dielectric constant: 78.4, screening length: 8.12261 Bohr) occupying 0.352731 of unit cell:	Completed after 22 iterations at t[s]:   3770.11
	Linear fluid (dielectric constant: 78.4, screening length: 8.12261 Bohr) occupying 0.350582 of unit cell:	Completed after 22 iterations at t[s]:   3785.00
	FillingsUpdate:  mu: -0.152086075  nElectrons: 361.000000  magneticMoment: [ Abs: 0.00000  Tot: +0.00000 ]
	SubspaceRotationAdjust: set factor to 0.37
ElecMinimize: Iter:   2  F: -3835.238631705974512  |grad|_K:  6.256e-07  alpha:  1.393e-01  linmin:  8.886e-07  t[s]:   3806.16
	Linear fluid (dielectric constant: 78.4, screening length: 8.12261 Bohr) occupying 0.350850 of unit cell:	Completed after 12 iterations at t[s]:   3825.16
	Linear fluid (dielectric constant: 78.4, screening length: 8.12261 Bohr) occupying 0.351084 of unit cell:	Completed after 12 iterations at t[s]:   3839.57
	FillingsUpdate:  mu: -0.151035249  nElectrons: 361.000000  magneticMoment: [ Abs: 0.00000  Tot: +0.00000 ]
	SubspaceRotationAdjust: set factor to 0.461
ElecMinimize: Iter:   3  F: -3835.238662038893381  |grad|_K:  5.333e-07  alpha:  2.639e-01  linmin: -1.632e-07  t[s]:   3860.80
	Linear fluid (dielectric constant: 78.4, screening length: 8.12261 Bohr) occupying 0.351449 of unit cell:	Completed after 17 iterations at t[s]:   3880.04
	Linear fluid (dielectric constant: 78.4, screening length: 8.12261 Bohr) occupying 0.351354 of unit cell:	Completed after 13 iterations at t[s]:   3894.51
	FillingsUpdate:  mu: -0.153071626  nElectrons: 361.000000  magneticMoment: [ Abs: 0.00000  Tot: +0.00000 ]
	SubspaceRotationAdjust: set factor to 0.456
ElecMinimize: Iter:   4  F: -3835.238678658894969  |grad|_K:  4.311e-07  alpha:  1.943e-01  linmin: -9.136e-09  t[s]:   3915.71
	Linear fluid (dielectric constant: 78.4, screening length: 8.12261 Bohr) occupying 0.351576 of unit cell:	Completed after 15 iterations at t[s]:   3934.82
	Linear fluid (dielectric constant: 78.4, screening length: 8.12261 Bohr) occupying 0.351582 of unit cell:	Completed after 1 iterations at t[s]:   3948.62
	FillingsUpdate:  mu: -0.152437865  nElectrons: 361.000000  magneticMoment: [ Abs: 0.00000  Tot: +0.00000 ]
	SubspaceRotationAdjust: set factor to 0.498
ElecMinimize: Iter:   5  F: -3835.238689774792874  |grad|_K:  3.022e-07  alpha:  1.997e-01  linmin: -3.874e-08  t[s]:   3969.80
	Linear fluid (dielectric constant: 78.4, screening length: 8.12261 Bohr) occupying 0.351706 of unit cell:	Completed after 12 iterations at t[s]:   3988.75
	Linear fluid (dielectric constant: 78.4, screening length: 8.12261 Bohr) occupying 0.351673 of unit cell:	Completed after 6 iterations at t[s]:   4002.94
	FillingsUpdate:  mu: -0.152328542  nElectrons: 361.000000  magneticMoment: [ Abs: 0.00000  Tot: +0.00000 ]
	SubspaceRotationAdjust: set factor to 0.56
ElecMinimize: Iter:   6  F: -3835.238693760345086  |grad|_K:  2.498e-07  alpha:  1.457e-01  linmin:  3.057e-09  t[s]:   4024.05
	Linear fluid (dielectric constant: 78.4, screening length: 8.12261 Bohr) occupying 0.351739 of unit cell:	Completed after 10 iterations at t[s]:   4043.07
	Linear fluid (dielectric constant: 78.4, screening length: 8.12261 Bohr) occupying 0.351770 of unit cell:	Completed after 9 iterations at t[s]:   4057.50
	FillingsUpdate:  mu: -0.152021711  nElectrons: 361.000000  magneticMoment: [ Abs: 0.00000  Tot: +0.00000 ]
	SubspaceRotationAdjust: set factor to 0.59
ElecMinimize: Iter:   7  F: -3835.238697763510118  |grad|_K:  1.831e-07  alpha:  2.141e-01  linmin: -6.363e-08  t[s]:   4078.81
	Linear fluid (dielectric constant: 78.4, screening length: 8.12261 Bohr) occupying 0.351811 of unit cell:	Completed after 12 iterations at t[s]:   4097.84
	Linear fluid (dielectric constant: 78.4, screening length: 8.12261 Bohr) occupying 0.351799 of unit cell:	Completed after 7 iterations at t[s]:   4111.97
	FillingsUpdate:  mu: -0.152323746  nElectrons: 361.000000  magneticMoment: [ Abs: 0.00000  Tot: +0.00000 ]
	SubspaceRotationAdjust: set factor to 0.676
ElecMinimize: Iter:   8  F: -3835.238699288493081  |grad|_K:  1.579e-07  alpha:  1.517e-01  linmin:  2.286e-08  t[s]:   4133.09
	Linear fluid (dielectric constant: 78.4, screening length: 8.12261 Bohr) occupying 0.351820 of unit cell:	Completed after 12 iterations at t[s]:   4151.93
	Linear fluid (dielectric constant: 78.4, screening length: 8.12261 Bohr) occupying 0.351821 of unit cell:	Completed after 2 iterations at t[s]:   4165.76
	FillingsUpdate:  mu: -0.152115028  nElectrons: 361.000000  magneticMoment: [ Abs: 0.00000  Tot: +0.00000 ]
	SubspaceRotationAdjust: set factor to 0.508
ElecMinimize: Iter:   9  F: -3835.238700501274707  |grad|_K:  1.342e-07  alpha:  1.625e-01  linmin: -1.744e-07  t[s]:   4186.96
	Linear fluid (dielectric constant: 78.4, screening length: 8.12261 Bohr) occupying 0.351829 of unit cell:	Completed after 15 iterations at t[s]:   4206.12
	Linear fluid (dielectric constant: 78.4, screening length: 8.12261 Bohr) occupying 0.351825 of unit cell:	Completed after 10 iterations at t[s]:   4220.43
	FillingsUpdate:  mu: -0.152383335  nElectrons: 361.000000  magneticMoment: [ Abs: 0.00000  Tot: +0.00000 ]
	SubspaceRotationAdjust: set factor to 0.34
ElecMinimize: Iter:  10  F: -3835.238700985028117  |grad|_K:  8.233e-08  alpha:  8.838e-02  linmin:  1.359e-07  t[s]:   4241.86
	Linear fluid (dielectric constant: 78.4, screening length: 8.12261 Bohr) occupying 0.351826 of unit cell:	Completed after 7 iterations at t[s]:   4260.50
	Linear fluid (dielectric constant: 78.4, screening length: 8.12261 Bohr) occupying 0.351827 of unit cell:	Completed after 6 iterations at t[s]:   4274.60
	FillingsUpdate:  mu: -0.152408992  nElectrons: 361.000000  magneticMoment: [ Abs: 0.00000  Tot: +0.00000 ]
	SubspaceRotationAdjust: set factor to 0.365
ElecMinimize: Iter:  11  F: -3835.238701339088948  |grad|_K:  7.076e-08  alpha:  1.740e-01  linmin: -3.007e-07  t[s]:   4295.81
	Linear fluid (dielectric constant: 78.4, screening length: 8.12261 Bohr) occupying 0.351826 of unit cell:	Completed after 10 iterations at t[s]:   4314.83
	Linear fluid (dielectric constant: 78.4, screening length: 8.12261 Bohr) occupying 0.351826 of unit cell:	Completed after 2 iterations at t[s]:   4328.75
	FillingsUpdate:  mu: -0.152247619  nElectrons: 361.000000  magneticMoment: [ Abs: 0.00000  Tot: +0.00000 ]
	SubspaceRotationAdjust: set factor to 0.385
ElecMinimize: Iter:  12  F: -3835.238701576134645  |grad|_K:  4.731e-08  alpha:  1.573e-01  linmin:  2.470e-07  t[s]:   4349.95
	Linear fluid (dielectric constant: 78.4, screening length: 8.12261 Bohr) occupying 0.351822 of unit cell:	Completed after 7 iterations at t[s]:   4368.71
	Linear fluid (dielectric constant: 78.4, screening length: 8.12261 Bohr) occupying 0.351822 of unit cell:	Completed after 0 iterations at t[s]:   4382.42
	FillingsUpdate:  mu: -0.152262520  nElectrons: 361.000000  magneticMoment: [ Abs: 0.00000  Tot: +0.00000 ]
	SubspaceRotationAdjust: set factor to 0.345
ElecMinimize: Iter:  13  F: -3835.238701676630171  |grad|_K:  3.506e-08  alpha:  1.505e-01  linmin:  1.364e-06  t[s]:   4403.55
	Linear fluid (dielectric constant: 78.4, screening length: 8.12261 Bohr) occupying 0.351816 of unit cell:	Completed after 7 iterations at t[s]:   4422.34
	Linear fluid (dielectric constant: 78.4, screening length: 8.12261 Bohr) occupying 0.351817 of unit cell:	Completed after 0 iterations at t[s]:   4436.06
	FillingsUpdate:  mu: -0.152301803  nElectrons: 361.000000  magneticMoment: [ Abs: 0.00000  Tot: +0.00000 ]
	SubspaceRotationAdjust: set factor to 0.325
ElecMinimize: Iter:  14  F: -3835.238701726875206  |grad|_K:  2.547e-08  alpha:  1.375e-01  linmin:  4.605e-05  t[s]:   4457.19
	Linear fluid (dielectric constant: 78.4, screening length: 8.12261 Bohr) occupying 0.351812 of unit cell:	Completed after 2 iterations at t[s]:   4475.58
	Linear fluid (dielectric constant: 78.4, screening length: 8.12261 Bohr) occupying 0.351811 of unit cell:	Completed after 1 iterations at t[s]:   4489.49
	FillingsUpdate:  mu: -0.152307452  nElectrons: 361.000000  magneticMoment: [ Abs: 0.00000  Tot: +0.00000 ]
	SubspaceRotationAdjust: set factor to 0.339
ElecMinimize: Iter:  15  F: -3835.238701761667016  |grad|_K:  2.269e-08  alpha:  1.817e-01  linmin: -4.125e-06  t[s]:   4510.67
ElecMinimize: Converged (|Delta F|<1.000000e-07 for 2 iters).
Setting wave functions to eigenvectors of Hamiltonian
Converging empty states (this may take a while): |deigs|: 7.461e-05
Single-point solvation energy estimate, DeltaF = -0.000454219303265

Computing DFT-D3 correction:
# coordination-number Cu 5.332 6.855 8.358 5.332 9.145 9.154 9.159 9.160 9.161 9.161 9.161 9.161 9.161 9.160 9.159 9.154 9.145 8.358 6.855
# diagonal-C6 Cu 175.00 175.00 175.00 175.00 175.00 175.00 175.00 175.00 175.00 175.00 175.00 175.00 175.00 175.00 175.00 175.00 175.00 175.00 175.00
EvdW_6 =   -0.124731
EvdW_8 =   -0.180365

# Ionic positions in cartesian coordinates:
ion Cu  -0.000002000000000   6.561230999999999  57.993625999999999 1
ion Cu   2.383311000000000   2.733847000000000  56.447116999999999 1
ion Cu   2.383309000000001   9.295077999999998  54.900666000000001 1
ion Cu   4.766623000000000   0.000000000000000  30.156694999999999 1
ion Cu  -0.000000000000000   5.467694000000000  53.354157000000001 1
ion Cu   2.383309000000001   1.640310000000000  51.807648000000000 1
ion Cu   2.383311000000001   8.201541000000001  50.261139000000000 1
ion Cu  -0.000002000000000   4.374157000000000  48.714629000000002 1
ion Cu   2.383311000000000   0.546774000000000  47.168179000000002 1
ion Cu   2.383309000000000   7.108003999999999  45.621670000000002 1
ion Cu   0.000002000000000   3.280610000000000  44.075161000000001 1
ion Cu   0.000000000000000   9.841840999999999  42.528651000000004 1
ion Cu   2.383314000000000   6.014457000000000  40.982142000000003 1
ion Cu   0.000000000000000   2.187072999999999  39.435692000000003 1
ion Cu   0.000002000000000   8.748303999999997  37.889181999999998 1
ion Cu   2.383311000000000   4.920919999999999  36.342672999999998 1
ion Cu   0.000002000000000   1.093537000000000  34.796163999999997 1
ion Cu   0.000000000000000   7.654766999999999  33.249654999999997 1
ion Cu   2.383314000000000   3.827383999999999  31.703203999999996 1

# Forces in Cartesian coordinates:
force Cu  -0.000035184924068  -0.000389606925913  -0.005888713033040 1
force Cu   0.000031185755487  -0.001627953137648   0.003446456638926 1
force Cu   0.000035423185179   0.002845191767797   0.006503526746073 1
force Cu   0.000010756947847   0.000415355869611   0.005895772294204 1
force Cu   0.000043703613292   0.000187995233236  -0.000893662327983 1
force Cu  -0.000056460217994  -0.000634105924102  -0.001270363445328 1
force Cu   0.000029943971593  -0.000436824783245  -0.000624885392923 1
force Cu  -0.000015930110636   0.000042774555908   0.000194185218010 1
force Cu   0.000012900285658  -0.000086294812492  -0.000410605832980 1
force Cu   0.000074616184968  -0.000179950682678   0.000027810648733 1
force Cu  -0.000019030982021   0.000023960045844   0.000009394267920 1
force Cu  -0.000051139937396   0.000160388695991  -0.000006798262995 1
force Cu   0.000027870854011   0.000059573881067   0.000429345948048 1
force Cu  -0.000024020558526   0.000003901214441  -0.000188165791742 1
force Cu  -0.000027606956340   0.000430976831102   0.000635303031905 1
force Cu   0.000110359026837   0.000602506204647   0.001261921025969 1
force Cu  -0.000076130832867  -0.000149373916009   0.000886558875429 1
force Cu  -0.000047961718105  -0.002837951057159  -0.006506645628435 1
force Cu   0.000031614886868   0.001599867306637  -0.003461026058948 1

# Energy components:
   A_diel =       -0.0006655065414293
   Eewald =    18004.8716718412724731
       EH =    21561.1136315677504172
     Eloc =   -44121.0455123878928134
      Enl =      695.8287266509087203
     EvdW =       -0.3050962463648348
      Exc =     -368.7755306643354629
 Exc_core =        0.8924590522463312
       KE =      392.1819982741722583
-------------------------------------
     Etot =    -3835.2383174187839359
       TS =        0.0003843428831769
-------------------------------------
        F =    -3835.2387017616670164


Dumping 'jdft.fillings' ... done
Dumping 'jdft.wfns' ... done
Dumping 'jdft.fluidState' ... done
Dumping 'jdft.ionpos' ... done
Dumping 'jdft.lattice' ... done
Dumping 'jdft.eigenvals' ... done
Dumping 'jdft.eigStats' ... 
	eMin: -4.294603 at state 55 ( [ +0.000000 +0.000000 +0.000000 ] spin -1 )
	HOMO: -0.153878 at state 45 ( [ -0.181818 +0.000000 +0.000000 ] spin 1 )
	mu  : -0.152307
	LUMO: -0.152191 at state 4 ( [ +0.000000 -0.200000 +0.000000 ] spin 1 )
	eMax: +0.261120 at state 0 ( [ +0.000000 +0.000000 +0.000000 ] spin 1 )
	HOMO-LUMO gap: +0.001687
	Optical gap  : +0.008411 at state 45 ( [ -0.181818 +0.000000 +0.000000 ] spin 1 )
Dumping 'jdft.Ecomponents' ... done
IonicMinimize: Iter:   0  F: -3835.238701761667016  |grad|_K:  1.905e-03  t[s]:   4648.79

#--- Lowdin population analysis ---
# oxidation-state Cu +0.193 +0.089 +0.027 +0.193 +0.058 +0.072 +0.074 +0.078 +0.076 +0.076 +0.077 +0.076 +0.076 +0.078 +0.074 +0.072 +0.058 +0.027 +0.089
# magnetic-moments Cu +0.000 +0.000 +0.000 +0.000 +0.000 +0.000 +0.000 +0.000 +0.000 +0.000 +0.000 +0.000 +0.000 +0.000 +0.000 +0.000 +0.000 +0.000 +0.000


Computing DFT-D3 correction:
# coordination-number Cu 5.346 6.855 8.356 5.347 9.138 9.147 9.156 9.162 9.162 9.162 9.162 9.162 9.162 9.162 9.156 9.147 9.138 8.356 6.855
# diagonal-C6 Cu 175.00 175.00 175.00 175.00 175.00 175.00 175.00 175.00 175.00 175.00 175.00 175.00 175.00 175.00 175.00 175.00 175.00 175.00 175.00
EvdW_6 =   -0.124729
EvdW_8 =   -0.180363

-------- Electronic minimization -----------
	Linear fluid (dielectric constant: 78.4, screening length: 8.12261 Bohr) occupying 0.351920 of unit cell:	Completed after 13 iterations at t[s]:   4669.97
	FillingsUpdate:  mu: -0.152116534  nElectrons: 361.000000  magneticMoment: [ Abs: 0.00000  Tot: +0.00000 ]
ElecMinimize: Iter:   0  F: -3835.238830859455447  |grad|_K:  6.111e-07  alpha:  1.000e+00
	Linear fluid (dielectric constant: 78.4, screening length: 8.12261 Bohr) occupying 0.351910 of unit cell:	Completed after 20 iterations at t[s]:   4713.28
	Linear fluid (dielectric constant: 78.4, screening length: 8.12261 Bohr) occupying 0.351918 of unit cell:	Completed after 20 iterations at t[s]:   4728.23
	FillingsUpdate:  mu: -0.152513250  nElectrons: 361.000000  magneticMoment: [ Abs: 0.00000  Tot: +0.00000 ]
	SubspaceRotationAdjust: set factor to 0.398
ElecMinimize: Iter:   1  F: -3835.238846466808809  |grad|_K:  4.799e-07  alpha:  1.396e-01  linmin:  6.641e-07  t[s]:   4749.52
	Linear fluid (dielectric constant: 78.4, screening length: 8.12261 Bohr) occupying 0.351919 of unit cell:	Completed after 9 iterations at t[s]:   4768.27
	Linear fluid (dielectric constant: 78.4, screening length: 8.12261 Bohr) occupying 0.351919 of unit cell:	Completed after 9 iterations at t[s]:   4782.53
	FillingsUpdate:  mu: -0.152510421  nElectrons: 361.000000  magneticMoment: [ Abs: 0.00000  Tot: +0.00000 ]
	SubspaceRotationAdjust: set factor to 0.473
ElecMinimize: Iter:   2  F: -3835.238867773744005  |grad|_K:  4.281e-07  alpha:  3.090e-01  linmin:  2.269e-06  t[s]:   4803.71
	Linear fluid (dielectric constant: 78.4, screening length: 8.12261 Bohr) occupying 0.351923 of unit cell:	Completed after 15 iterations at t[s]:   4822.90
	Linear fluid (dielectric constant: 78.4, screening length: 8.12261 Bohr) occupying 0.351922 of unit cell:	Completed after 10 iterations at t[s]:   4837.33
	FillingsUpdate:  mu: -0.152171930  nElectrons: 361.000000  magneticMoment: [ Abs: 0.00000  Tot: +0.00000 ]
	SubspaceRotationAdjust: set factor to 0.541
ElecMinimize: Iter:   3  F: -3835.238878155174916  |grad|_K:  3.814e-07  alpha:  1.892e-01  linmin:  5.337e-07  t[s]:   4858.42
	Linear fluid (dielectric constant: 78.4, screening length: 8.12261 Bohr) occupying 0.351917 of unit cell:	Completed after 13 iterations at t[s]:   4877.57
	Linear fluid (dielectric constant: 78.4, screening length: 8.12261 Bohr) occupying 0.351917 of unit cell:	Completed after 7 iterations at t[s]:   4891.71
	FillingsUpdate:  mu: -0.152437637  nElectrons: 361.000000  magneticMoment: [ Abs: 0.00000  Tot: +0.00000 ]
	SubspaceRotationAdjust: set factor to 0.62
ElecMinimize: Iter:   4  F: -3835.238885522209785  |grad|_K:  2.951e-07  alpha:  1.692e-01  linmin:  8.731e-07  t[s]:   4912.78
	Linear fluid (dielectric constant: 78.4, screening length: 8.12261 Bohr) occupying 0.351918 of unit cell:	Completed after 10 iterations at t[s]:   4931.60
	Linear fluid (dielectric constant: 78.4, screening length: 8.12261 Bohr) occupying 0.351918 of unit cell:	Completed after 9 iterations at t[s]:   4945.80
	FillingsUpdate:  mu: -0.152300501  nElectrons: 361.000000  magneticMoment: [ Abs: 0.00000  Tot: +0.00000 ]
	SubspaceRotationAdjust: set factor to 0.524
ElecMinimize: Iter:   5  F: -3835.238891760827755  |grad|_K:  4.063e-07  alpha:  2.394e-01  linmin: -3.998e-08  t[s]:   4966.84
	Linear fluid (dielectric constant: 78.4, screening length: 8.12261 Bohr) occupying 0.351920 of unit cell:	Completed after 13 iterations at t[s]:   4985.78
	Linear fluid (dielectric constant: 78.4, screening length: 8.12261 Bohr) occupying 0.351918 of unit cell:	Completed after 11 iterations at t[s]:   5000.24
	FillingsUpdate:  mu: -0.152347990  nElectrons: 361.000000  magneticMoment: [ Abs: 0.00000  Tot: +0.00000 ]
	SubspaceRotationAdjust: set factor to 0.309
ElecMinimize: Iter:   6  F: -3835.238896987654698  |grad|_K:  2.037e-07  alpha:  1.058e-01  linmin:  2.032e-07  t[s]:   5021.33
	Linear fluid (dielectric constant: 78.4, screening length: 8.12261 Bohr) occupying 0.351918 of unit cell:	Completed after 9 iterations at t[s]:   5040.12
	Linear fluid (dielectric constant: 78.4, screening length: 8.12261 Bohr) occupying 0.351918 of unit cell:	Completed after 2 iterations at t[s]:   5054.15
	FillingsUpdate:  mu: -0.152351190  nElectrons: 361.000000  magneticMoment: [ Abs: 0.00000  Tot: +0.00000 ]
	SubspaceRotationAdjust: set factor to 0.299
ElecMinimize: Iter:   7  F: -3835.238898352210072  |grad|_K:  1.147e-07  alpha:  1.098e-01  linmin: -1.498e-05  t[s]:   5075.24
	Linear fluid (dielectric constant: 78.4, screening length: 8.12261 Bohr) occupying 0.351918 of unit cell:	Completed after 7 iterations at t[s]:   5094.10
	Linear fluid (dielectric constant: 78.4, screening length: 8.12261 Bohr) occupying 0.351918 of unit cell:	Completed after 6 iterations at t[s]:   5108.20
	FillingsUpdate:  mu: -0.152283809  nElectrons: 361.000000  magneticMoment: [ Abs: 0.00000  Tot: +0.00000 ]
	SubspaceRotationAdjust: set factor to 0.303
ElecMinimize: Iter:   8  F: -3835.238899434365976  |grad|_K:  1.252e-07  alpha:  2.740e-01  linmin: -1.797e-05  t[s]:   5129.48
	Linear fluid (dielectric constant: 78.4, screening length: 8.12261 Bohr) occupying 0.351914 of unit cell:	Completed after 12 iterations at t[s]:   5148.38
	Linear fluid (dielectric constant: 78.4, screening length: 8.12261 Bohr) occupying 0.351916 of unit cell:	Completed after 9 iterations at t[s]:   5162.61
	FillingsUpdate:  mu: -0.152396990  nElectrons: 361.000000  magneticMoment: [ Abs: 0.00000  Tot: +0.00000 ]
	SubspaceRotationAdjust: set factor to 0.318
ElecMinimize: Iter:   9  F: -3835.238900026270130  |grad|_K:  5.895e-08  alpha:  1.258e-01  linmin:  3.753e-06  t[s]:   5183.63
	Linear fluid (dielectric constant: 78.4, screening length: 8.12261 Bohr) occupying 0.351915 of unit cell:	Completed after 6 iterations at t[s]:   5202.26
	Linear fluid (dielectric constant: 78.4, screening length: 8.12261 Bohr) occupying 0.351915 of unit cell:	Completed after 2 iterations at t[s]:   5216.12
	FillingsUpdate:  mu: -0.152414866  nElectrons: 361.000000  magneticMoment: [ Abs: 0.00000  Tot: +0.00000 ]
	SubspaceRotationAdjust: set factor to 0.316
ElecMinimize: Iter:  10  F: -3835.238900207965798  |grad|_K:  4.727e-08  alpha:  1.750e-01  linmin: -5.220e-05  t[s]:   5237.18
	Linear fluid (dielectric constant: 78.4, screening length: 8.12261 Bohr) occupying 0.351915 of unit cell:	Completed after 4 iterations at t[s]:   5255.69
	Linear fluid (dielectric constant: 78.4, screening length: 8.12261 Bohr) occupying 0.351915 of unit cell:	Completed after 0 iterations at t[s]:   5269.90
	FillingsUpdate:  mu: -0.152387985  nElectrons: 361.000000  magneticMoment: [ Abs: 0.00000  Tot: +0.00000 ]
	SubspaceRotationAdjust: set factor to 0.333
ElecMinimize: Iter:  11  F: -3835.238900318356173  |grad|_K:  3.697e-08  alpha:  1.644e-01  linmin:  1.786e-04  t[s]:   5291.27
	Linear fluid (dielectric constant: 78.4, screening length: 8.12261 Bohr) occupying 0.351915 of unit cell:	Completed after 6 iterations at t[s]:   5309.86
	Linear fluid (dielectric constant: 78.4, screening length: 8.12261 Bohr) occupying 0.351915 of unit cell:	Completed after 0 iterations at t[s]:   5323.70
	FillingsUpdate:  mu: -0.152362894  nElectrons: 361.000000  magneticMoment: [ Abs: 0.00000  Tot: +0.00000 ]
	SubspaceRotationAdjust: set factor to 0.31
ElecMinimize: Iter:  12  F: -3835.238900391562311  |grad|_K:  2.881e-08  alpha:  1.801e-01  linmin: -6.719e-04  t[s]:   5344.83
	Linear fluid (dielectric constant: 78.4, screening length: 8.12261 Bohr) occupying 0.351915 of unit cell:	Completed after 4 iterations at t[s]:   5363.48
	Linear fluid (dielectric constant: 78.4, screening length: 8.12261 Bohr) occupying 0.351915 of unit cell:	Completed after 0 iterations at t[s]:   5377.29
	FillingsUpdate:  mu: -0.152377648  nElectrons: 361.000000  magneticMoment: [ Abs: 0.00000  Tot: +0.00000 ]
	SubspaceRotationAdjust: set factor to 0.349
ElecMinimize: Iter:  13  F: -3835.238900433307208  |grad|_K:  1.719e-08  alpha:  1.629e-01  linmin:  5.016e-04  t[s]:   5398.38
ElecMinimize: Converged (|Delta F|<1.000000e-07 for 2 iters).
Setting wave functions to eigenvectors of Hamiltonian
Converging empty states (this may take a while): |deigs|: 3.256e-08

Computing DFT-D3 correction:
# coordination-number Cu 5.346 6.855 8.356 5.347 9.138 9.147 9.156 9.162 9.162 9.162 9.162 9.162 9.162 9.162 9.156 9.147 9.138 8.356 6.855
# diagonal-C6 Cu 175.00 175.00 175.00 175.00 175.00 175.00 175.00 175.00 175.00 175.00 175.00 175.00 175.00 175.00 175.00 175.00 175.00 175.00 175.00
EvdW_6 =   -0.124729
EvdW_8 =   -0.180363
IonicMinimize: 	Wolfe criterion not satisfied: alpha: 1  (E-E0)/|gdotd0|: -0.960074  gdotd/gdotd0: 0.930888 (taking cubic step)

Computing DFT-D3 correction:
# coordination-number Cu 5.376 6.856 8.352 5.376 9.123 9.134 9.150 9.166 9.164 9.164 9.163 9.163 9.164 9.166 9.149 9.135 9.123 8.352 6.856
# diagonal-C6 Cu 175.00 175.00 175.00 175.00 175.00 175.00 175.00 175.00 175.00 175.00 175.00 175.00 175.00 175.00 175.00 175.00 175.00 175.00 175.00
EvdW_6 =   -0.124725
EvdW_8 =   -0.180359

-------- Electronic minimization -----------
	Linear fluid (dielectric constant: 78.4, screening length: 8.12261 Bohr) occupying 0.352187 of unit cell:	Completed after 15 iterations at t[s]:   5474.33
	FillingsUpdate:  mu: -0.152162238  nElectrons: 361.000000  magneticMoment: [ Abs: 0.00000  Tot: +0.00000 ]
ElecMinimize: Iter:   0  F: -3835.238977385615271  |grad|_K:  1.227e-06  alpha:  1.000e+00
	Linear fluid (dielectric constant: 78.4, screening length: 8.12261 Bohr) occupying 0.352192 of unit cell:	Completed after 21 iterations at t[s]:   5517.76
	Linear fluid (dielectric constant: 78.4, screening length: 8.12261 Bohr) occupying 0.352187 of unit cell:	Completed after 21 iterations at t[s]:   5532.67
	FillingsUpdate:  mu: -0.152642875  nElectrons: 361.000000  magneticMoment: [ Abs: 0.00000  Tot: +0.00000 ]
	SubspaceRotationAdjust: set factor to 0.416
ElecMinimize: Iter:   1  F: -3835.239040273986575  |grad|_K:  9.663e-07  alpha:  1.395e-01  linmin: -7.497e-06  t[s]:   5553.97
	Linear fluid (dielectric constant: 78.4, screening length: 8.12261 Bohr) occupying 0.352189 of unit cell:	Completed after 7 iterations at t[s]:   5573.02
	Linear fluid (dielectric constant: 78.4, screening length: 8.12261 Bohr) occupying 0.352191 of unit cell:	Completed after 9 iterations at t[s]:   5587.34
	FillingsUpdate:  mu: -0.152620676  nElectrons: 361.000000  magneticMoment: [ Abs: 0.00000  Tot: +0.00000 ]
	SubspaceRotationAdjust: set factor to 0.498
ElecMinimize: Iter:   2  F: -3835.239126649377795  |grad|_K:  8.594e-07  alpha:  3.089e-01  linmin: -3.105e-07  t[s]:   5608.50
	Linear fluid (dielectric constant: 78.4, screening length: 8.12261 Bohr) occupying 0.352196 of unit cell:	Completed after 15 iterations at t[s]:   5627.72
	Linear fluid (dielectric constant: 78.4, screening length: 8.12261 Bohr) occupying 0.352194 of unit cell:	Completed after 12 iterations at t[s]:   5642.11
	FillingsUpdate:  mu: -0.152063755  nElectrons: 361.000000  magneticMoment: [ Abs: 0.00000  Tot: +0.00000 ]
	SubspaceRotationAdjust: set factor to 0.58
ElecMinimize: Iter:   3  F: -3835.239169179574674  |grad|_K:  7.627e-07  alpha:  1.923e-01  linmin: -2.154e-08  t[s]:   5663.35
	Linear fluid (dielectric constant: 78.4, screening length: 8.12261 Bohr) occupying 0.352182 of unit cell:	Completed after 17 iterations at t[s]:   5682.43
	Linear fluid (dielectric constant: 78.4, screening length: 8.12261 Bohr) occupying 0.352183 of unit cell:	Completed after 7 iterations at t[s]:   5696.49
	FillingsUpdate:  mu: -0.152723549  nElectrons: 361.000000  magneticMoment: [ Abs: 0.00000  Tot: +0.00000 ]
	SubspaceRotationAdjust: set factor to 0.704
ElecMinimize: Iter:   4  F: -3835.239199153598747  |grad|_K:  5.748e-07  alpha:  1.721e-01  linmin:  1.190e-06  t[s]:   5717.65
	Linear fluid (dielectric constant: 78.4, screening length: 8.12261 Bohr) occupying 0.352189 of unit cell:	Completed after 17 iterations at t[s]:   5737.01
	Linear fluid (dielectric constant: 78.4, screening length: 8.12261 Bohr) occupying 0.352193 of unit cell:	Completed after 15 iterations at t[s]:   5751.51
	FillingsUpdate:  mu: -0.151580735  nElectrons: 361.000000  magneticMoment: [ Abs: 0.00000  Tot: +0.00000 ]
	SubspaceRotationAdjust: set factor to 0.652
ElecMinimize: Iter:   5  F: -3835.239227972601384  |grad|_K:  7.924e-07  alpha:  2.914e-01  linmin: -4.589e-07  t[s]:   5772.68
	Linear fluid (dielectric constant: 78.4, screening length: 8.12261 Bohr) occupying 0.352169 of unit cell:	Completed after 22 iterations at t[s]:   5792.04
	Linear fluid (dielectric constant: 78.4, screening length: 8.12261 Bohr) occupying 0.352183 of unit cell:	Completed after 22 iterations at t[s]:   5807.25
	FillingsUpdate:  mu: -0.152672422  nElectrons: 361.000000  magneticMoment: [ Abs: 0.00000  Tot: +0.00000 ]
	SubspaceRotationAdjust: set factor to 0.371
ElecMinimize: Iter:   6  F: -3835.239242879278663  |grad|_K:  4.313e-07  alpha:  7.927e-02  linmin: -9.807e-07  t[s]:   5828.64
	Linear fluid (dielectric constant: 78.4, screening length: 8.12261 Bohr) occupying 0.352184 of unit cell:	Completed after 11 iterations at t[s]:   5847.48
	Linear fluid (dielectric constant: 78.4, screening length: 8.12261 Bohr) occupying 0.352184 of unit cell:	Completed after 8 iterations at t[s]:   5861.78
	FillingsUpdate:  mu: -0.152492687  nElectrons: 361.000000  magneticMoment: [ Abs: 0.00000  Tot: +0.00000 ]
	SubspaceRotationAdjust: set factor to 0.329
ElecMinimize: Iter:   7  F: -3835.239248161803062  |grad|_K:  2.240e-07  alpha:  9.482e-02  linmin: -5.090e-07  t[s]:   5882.96
	Linear fluid (dielectric constant: 78.4, screening length: 8.12261 Bohr) occupying 0.352185 of unit cell:	Completed after 10 iterations at t[s]:   5901.90
	Linear fluid (dielectric constant: 78.4, screening length: 8.12261 Bohr) occupying 0.352187 of unit cell:	Completed after 12 iterations at t[s]:   5916.42
	FillingsUpdate:  mu: -0.152048516  nElectrons: 361.000000  magneticMoment: [ Abs: 0.00000  Tot: +0.00000 ]
	SubspaceRotationAdjust: set factor to 0.326
ElecMinimize: Iter:   8  F: -3835.239251797537690  |grad|_K:  2.547e-07  alpha:  2.420e-01  linmin:  5.490e-07  t[s]:   5937.58
	Linear fluid (dielectric constant: 78.4, screening length: 8.12261 Bohr) occupying 0.352179 of unit cell:	Completed after 15 iterations at t[s]:   5956.82
	Linear fluid (dielectric constant: 78.4, screening length: 8.12261 Bohr) occupying 0.352182 of unit cell:	Completed after 12 iterations at t[s]:   5971.18
	FillingsUpdate:  mu: -0.152410438  nElectrons: 361.000000  magneticMoment: [ Abs: 0.00000  Tot: +0.00000 ]
	SubspaceRotationAdjust: set factor to 0.346
ElecMinimize: Iter:   9  F: -3835.239254378614987  |grad|_K:  1.156e-07  alpha:  1.330e-01  linmin:  1.818e-06  t[s]:   5992.19
	Linear fluid (dielectric constant: 78.4, screening length: 8.12261 Bohr) occupying 0.352180 of unit cell:	Completed after 10 iterations at t[s]:   6011.13
	Linear fluid (dielectric constant: 78.4, screening length: 8.12261 Bohr) occupying 0.352179 of unit cell:	Completed after 2 iterations at t[s]:   6024.97
	FillingsUpdate:  mu: -0.152589670  nElectrons: 361.000000  magneticMoment: [ Abs: 0.00000  Tot: +0.00000 ]
	SubspaceRotationAdjust: set factor to 0.328
ElecMinimize: Iter:  10  F: -3835.239255056209458  |grad|_K:  9.354e-08  alpha:  1.692e-01  linmin: -6.476e-05  t[s]:   6046.10
	Linear fluid (dielectric constant: 78.4, screening length: 8.12261 Bohr) occupying 0.352180 of unit cell:	Completed after 6 iterations at t[s]:   6064.69
	Linear fluid (dielectric constant: 78.4, screening length: 8.12261 Bohr) occupying 0.352180 of unit cell:	Completed after 2 iterations at t[s]:   6078.72
	FillingsUpdate:  mu: -0.152505251  nElectrons: 361.000000  magneticMoment: [ Abs: 0.00000  Tot: +0.00000 ]
	SubspaceRotationAdjust: set factor to 0.342
ElecMinimize: Iter:  11  F: -3835.239255471959495  |grad|_K:  6.961e-08  alpha:  1.584e-01  linmin:  7.867e-06  t[s]:   6100.04
	Linear fluid (dielectric constant: 78.4, screening length: 8.12261 Bohr) occupying 0.352180 of unit cell:	Completed after 10 iterations at t[s]:   6118.87
	Linear fluid (dielectric constant: 78.4, screening length: 8.12261 Bohr) occupying 0.352180 of unit cell:	Completed after 2 iterations at t[s]:   6132.83
	FillingsUpdate:  mu: -0.152393402  nElectrons: 361.000000  magneticMoment: [ Abs: 0.00000  Tot: +0.00000 ]
	SubspaceRotationAdjust: set factor to 0.351
ElecMinimize: Iter:  12  F: -3835.239255757222509  |grad|_K:  5.976e-08  alpha:  1.969e-01  linmin:  1.502e-06  t[s]:   6154.46
	Linear fluid (dielectric constant: 78.4, screening length: 8.12261 Bohr) occupying 0.352179 of unit cell:	Completed after 5 iterations at t[s]:   6173.05
	Linear fluid (dielectric constant: 78.4, screening length: 8.12261 Bohr) occupying 0.352179 of unit cell:	Completed after 2 iterations at t[s]:   6187.06
	FillingsUpdate:  mu: -0.152438258  nElectrons: 361.000000  magneticMoment: [ Abs: 0.00000  Tot: +0.00000 ]
	SubspaceRotationAdjust: set factor to 0.411
ElecMinimize: Iter:  13  F: -3835.239255922457687  |grad|_K:  3.567e-08  alpha:  1.546e-01  linmin:  1.247e-04  t[s]:   6208.19
	Linear fluid (dielectric constant: 78.4, screening length: 8.12261 Bohr) occupying 0.352178 of unit cell:	Completed after 5 iterations at t[s]:   6226.93
	Linear fluid (dielectric constant: 78.4, screening length: 8.12261 Bohr) occupying 0.352178 of unit cell:	Completed after 0 iterations at t[s]:   6240.67
	FillingsUpdate:  mu: -0.152485105  nElectrons: 361.000000  magneticMoment: [ Abs: 0.00000  Tot: +0.00000 ]
	SubspaceRotationAdjust: set factor to 0.442
ElecMinimize: Iter:  14  F: -3835.239255983062776  |grad|_K:  3.244e-08  alpha:  1.599e-01  linmin:  5.098e-05  t[s]:   6261.77
	Linear fluid (dielectric constant: 78.4, screening length: 8.12261 Bohr) occupying 0.352177 of unit cell:	Completed after 2 iterations at t[s]:   6280.31
	Linear fluid (dielectric constant: 78.4, screening length: 8.12261 Bohr) occupying 0.352177 of unit cell:	Completed after 2 iterations at t[s]:   6294.20
	FillingsUpdate:  mu: -0.152476850  nElectrons: 361.000000  magneticMoment: [ Abs: 0.00000  Tot: +0.00000 ]
	SubspaceRotationAdjust: set factor to 0.532
ElecMinimize: Iter:  15  F: -3835.239256047012532  |grad|_K:  2.372e-08  alpha:  2.026e-01  linmin: -5.559e-05  t[s]:   6315.20
ElecMinimize: Converged (|Delta F|<1.000000e-07 for 2 iters).
Setting wave functions to eigenvectors of Hamiltonian
Converging empty states (this may take a while): |deigs|: 1.121e-07

Computing DFT-D3 correction:
# coordination-number Cu 5.376 6.856 8.352 5.376 9.123 9.134 9.150 9.166 9.164 9.164 9.163 9.163 9.164 9.166 9.149 9.135 9.123 8.352 6.856
# diagonal-C6 Cu 175.00 175.00 175.00 175.00 175.00 175.00 175.00 175.00 175.00 175.00 175.00 175.00 175.00 175.00 175.00 175.00 175.00 175.00 175.00
EvdW_6 =   -0.124725
EvdW_8 =   -0.180359

# Ionic positions in cartesian coordinates:
ion Cu  -0.000116224531223   6.560057374427466  57.975953638439691 1
ion Cu   2.383395887507442   2.728958335792260  56.457450147455596 1
ion Cu   2.383406599796519   9.303608770508593  54.920170357777025 1
ion Cu   4.766646601084523   0.001241262814039  30.174376094421422 1
ion Cu   0.000122441080857   5.468253180904911  53.351469790554866 1
ion Cu   2.383130949586998   1.638402877432899  51.803830687202826 1
ion Cu   2.383392162155760   8.200225720855469  50.259258121360048 1
ion Cu  -0.000058460090928   4.374280518872928  48.715205333192849 1
ion Cu   2.383341031097955   0.546510310767730  47.166940960039874 1
ion Cu   2.383524178795887   7.107459343157170  45.621747209485015 1
ion Cu  -0.000063762705081   3.280677075342736  44.075182960342580 1
ion Cu  -0.000162089571207   9.842317361293176  42.528624382749832 1
ion Cu   2.383388942803013   6.014630916848405  40.983423815382956 1
ion Cu  -0.000080731434598   2.187079898848529  39.435121280163592 1
ion Cu  -0.000089490628040   8.749592125698509  37.891081686634529 1
ion Cu   2.383633407321494   4.922722713819146  36.346452540616717 1
ion Cu  -0.000235062257619   1.093084073457178  34.798817454165103 1
ion Cu  -0.000152554913335   7.646248342033727  33.230128840653506 1
ion Cu   2.383400174901585   3.832178797125116  31.692814699361968 1

# Forces in Cartesian coordinates:
force Cu  -0.000035605950515  -0.000495156325344  -0.004949208447660 1
force Cu   0.000029819375324  -0.001213310252723   0.002824660266572 1
force Cu   0.000031436313704   0.002538814034510   0.004942727230410 1
force Cu   0.000011613693163   0.000510798376935   0.004861799788485 1
force Cu   0.000038696230362   0.000177883667153  -0.000600534044967 1
force Cu  -0.000046172103568  -0.000733127537878  -0.000545906152465 1
force Cu   0.000023987667694  -0.000215550363735  -0.000045396272383 1
force Cu  -0.000014004886520  -0.000034778736295   0.000094629708133 1
force Cu   0.000015148429855  -0.000080271114271  -0.000412539599128 1
force Cu   0.000064347840327  -0.000157639277582  -0.000028553517415 1
force Cu  -0.000014856261705   0.000013929486966   0.000010966338880 1
force Cu  -0.000044707545916   0.000144216400555   0.000053445745255 1
force Cu   0.000019367190852   0.000065176286582   0.000459487831993 1
force Cu  -0.000017643441937   0.000064697638324  -0.000022331293717 1
force Cu  -0.000021360035788   0.000212033340205   0.000131134259021 1
force Cu   0.000089699120790   0.000714665936396   0.000620146385019 1
force Cu  -0.000064821832961  -0.000155846676100   0.000664944537604 1
force Cu  -0.000045460351024  -0.002526072661555  -0.004936650185407 1
force Cu   0.000024037014262   0.001194971258470  -0.002883361035796 1

# Energy components:
   A_diel =       -0.0006696160723682
   Eewald =    18002.2100133360690961
       EH =    21558.4089356149452215
     Eloc =   -44115.6771812888982822
      Enl =      695.8280279742429002
     EvdW =       -0.3050832895007711
      Exc =     -368.7753723016611502
 Exc_core =        0.8924657275751779
       KE =      392.1799968327419492
-------------------------------------
     Etot =    -3835.2388670105569872
       TS =        0.0003890364555725
-------------------------------------
        F =    -3835.2392560470125318


Dumping 'jdft.fillings' ... done
Dumping 'jdft.wfns' ... done
Dumping 'jdft.fluidState' ... done
Dumping 'jdft.ionpos' ... done
Dumping 'jdft.lattice' ... done
Dumping 'jdft.eigenvals' ... done
Dumping 'jdft.eigStats' ... 
	eMin: -4.294785 at state 0 ( [ +0.000000 +0.000000 +0.000000 ] spin 1 )
	HOMO: -0.154036 at state 100 ( [ -0.181818 +0.000000 +0.000000 ] spin -1 )
	mu  : -0.152477
	LUMO: -0.152466 at state 1 ( [ +0.000000 +0.200000 +0.000000 ] spin 1 )
	eMax: +0.260742 at state 55 ( [ +0.000000 +0.000000 +0.000000 ] spin -1 )
	HOMO-LUMO gap: +0.001570
	Optical gap  : +0.008331 at state 45 ( [ -0.181818 +0.000000 +0.000000 ] spin 1 )
Dumping 'jdft.Ecomponents' ... done
IonicMinimize: Iter:   1  F: -3835.239256047012532  |grad|_K:  1.525e-03  alpha:  3.000e+00  linmin: -9.948e-01  t[s]:   6375.12

#--- Lowdin population analysis ---
# oxidation-state Cu +0.192 +0.090 +0.027 +0.192 +0.059 +0.072 +0.074 +0.077 +0.076 +0.076 +0.077 +0.076 +0.076 +0.077 +0.074 +0.072 +0.059 +0.027 +0.089
[...]
ElecMinimize: Iter:  11  F: -3835.240458350169320  |grad|_K:  5.957e-08  alpha:  1.677e-01  linmin:  6.090e-05  t[s]:   9779.07
	Linear fluid (dielectric constant: 78.4, screening length: 8.12261 Bohr) occupying 0.354156 of unit cell:	Completed after 8 iterations at t[s]:   9798.05
	Linear fluid (dielectric constant: 78.4, screening length: 8.12261 Bohr) occupying 0.354156 of unit cell:	Completed after 1 iterations at t[s]:   9811.89
	FillingsUpdate:  mu: -0.153421514  nElectrons: 361.000000  magneticMoment: [ Abs: 0.00000  Tot: +0.00000 ]
	SubspaceRotationAdjust: set factor to 0.26
ElecMinimize: Iter:  12  F: -3835.240458539726660  |grad|_K:  4.698e-08  alpha:  1.792e-01  linmin: -1.097e-04  t[s]:   9833.08
	Linear fluid (dielectric constant: 78.4, screening length: 8.12261 Bohr) occupying 0.354157 of unit cell:	Completed after 7 iterations at t[s]:   9851.90
	Linear fluid (dielectric constant: 78.4, screening length: 8.12261 Bohr) occupying 0.354157 of unit cell:	Completed after 2 iterations at t[s]:   9865.78
	FillingsUpdate:  mu: -0.153424048  nElectrons: 361.000000  magneticMoment: [ Abs: 0.00000  Tot: +0.00000 ]
	SubspaceRotationAdjust: set factor to 0.292
ElecMinimize: Iter:  13  F: -3835.240458636174935  |grad|_K:  2.671e-08  alpha:  1.450e-01  linmin:  1.340e-04  t[s]:   9887.04
	Linear fluid (dielectric constant: 78.4, screening length: 8.12261 Bohr) occupying 0.354157 of unit cell:	Completed after 4 iterations at t[s]:   9905.62
	Linear fluid (dielectric constant: 78.4, screening length: 8.12261 Bohr) occupying 0.354158 of unit cell:	Completed after 4 iterations at t[s]:   9919.83
	FillingsUpdate:  mu: -0.153390249  nElectrons: 361.000000  magneticMoment: [ Abs: 0.00000  Tot: +0.00000 ]
	SubspaceRotationAdjust: set factor to 0.28
ElecMinimize: Iter:  14  F: -3835.240458676525577  |grad|_K:  2.346e-08  alpha:  1.928e-01  linmin:  3.688e-04  t[s]:   9941.24
ElecMinimize: Converged (|Delta F|<1.000000e-07 for 2 iters).
Setting wave functions to eigenvectors of Hamiltonian
Converging empty states (this may take a while): |deigs|: 4.292e-08

Computing DFT-D3 correction:
# coordination-number Cu 5.586 6.866 8.339 5.584 9.021 9.082 9.109 9.152 9.149 9.149 9.157 9.147 9.148 9.148 9.103 9.078 9.018 8.335 6.865
# diagonal-C6 Cu 175.00 175.00 175.00 175.00 175.00 175.00 175.00 175.00 175.00 175.00 175.00 175.00 175.00 175.00 175.00 175.00 175.00 175.00 175.00
EvdW_6 =   -0.124648
EvdW_8 =   -0.180325

# Ionic positions in cartesian coordinates:
ion Cu  -0.001191918211618   6.542533925389170  57.878855565901702 1
ion Cu   2.384324269876165   2.714805134198121  56.523736145820116 1
ion Cu   2.383901154953791   9.359199995226756  54.994280564306038 1
ion Cu   4.766792725388460   0.018766705692508  30.268940617585010 1
ion Cu   0.001170861085098   5.469412503985444  53.337720289205159 1
ion Cu   2.382361612561120   1.625276419143755  51.812235403196063 1
ion Cu   2.383822285495146   8.200239993244113  50.273171004506757 1
ion Cu  -0.000312372120531   4.367878412109189  48.720046630082223 1
ion Cu   2.384061216946579   0.540888712802061  47.165116142105326 1
ion Cu   2.385016072353455   7.104260992790254  45.627476053572209 1
ion Cu  -0.000257912913743   3.280642812226370  44.076125707905412 1
ion Cu  -0.001254496014596   9.845076040012783  42.524552999996587 1
ion Cu   2.383333561134752   6.019958195554014  40.986578099866314 1
ion Cu  -0.000281203017007   2.193776017358198  39.431332043664021 1
ion Cu  -0.000447174741468   8.749706840285493  37.877931458326863 1
ion Cu   2.385065503328209   4.935904782930217  36.337788466869910 1
ion Cu  -0.001771728742440   1.092134831048025  34.811770710246407 1
ion Cu  -0.001232475098276   7.591329088687262  33.155066596599987 1
ion Cu   2.383324017736905   3.845737597316255  31.625325500243889 1

# Forces in Cartesian coordinates:
force Cu  -0.000001449810119   0.000171869668350   0.000152373213051 1
force Cu   0.000002973298139  -0.000085200972290   0.000236711006512 1
force Cu  -0.000002317413627   0.000076656558149  -0.000129192673450 1
force Cu  -0.000009307424671  -0.000162215268306  -0.000023584486450 1
force Cu   0.000007889201439   0.000039147183205   0.000289225889470 1
force Cu   0.000007052037029  -0.000098852370727   0.000285203075949 1
force Cu   0.000005146253935   0.000067334012087   0.000156388289566 1
force Cu   0.000008216218203  -0.000033255121222  -0.000188396990087 1
force Cu   0.000009076710121   0.000060590685367  -0.000182981618368 1
force Cu   0.000006629309244  -0.000017556225535  -0.000265345196809 1
force Cu   0.000003434205773   0.000006914496120  -0.000110054653558 1
force Cu  -0.000001571854174   0.000039802834584   0.000080227998154 1
force Cu  -0.000007544109966  -0.000049227282999   0.000026348457721 1
force Cu  -0.000004746120212   0.000034693270460   0.000068107688930 1
force Cu  -0.000002907899649  -0.000074689779434  -0.000197358393536 1
force Cu  -0.000006482695117   0.000109688737192  -0.000250013269453 1
force Cu  -0.000007157986248  -0.000044450112869  -0.000174735792556 1
force Cu  -0.000003976293693  -0.000097057305164   0.000215511605791 1
force Cu  -0.000016726042897   0.000136829155795  -0.000121223798906 1

# Energy components:
   A_diel =       -0.0006888561894002
   Eewald =    17976.1644546700408682
       EH =    21532.1162279547643266
     Eloc =   -44063.3311013498314423
      Enl =      695.8213492554668846
     EvdW =       -0.3049729768236029
      Exc =     -368.7769506464194365
 Exc_core =        0.8924689966216706
       KE =      392.1791627309813180
-------------------------------------
     Etot =    -3835.2400502213904474
       TS =        0.0004084551349626
-------------------------------------
        F =    -3835.2404586765255772


Dumping 'jdft.fillings' ... done
Dumping 'jdft.wfns' ... done
Dumping 'jdft.fluidState' ... done
Dumping 'jdft.ionpos' ... done
Dumping 'jdft.lattice' ... done
Dumping 'jdft.eigenvals' ... done
Dumping 'jdft.eigStats' ... 
	eMin: -4.295440 at state 55 ( [ +0.000000 +0.000000 +0.000000 ] spin -1 )
	HOMO: -0.153891 at state 56 ( [ +0.000000 +0.200000 +0.000000 ] spin -1 )
	mu  : -0.153390
	LUMO: -0.152698 at state 5 ( [ +0.090909 +0.000000 +0.000000 ] spin 1 )
	eMax: +0.259307 at state 0 ( [ +0.000000 +0.000000 +0.000000 ] spin 1 )
	HOMO-LUMO gap: +0.001193
	Optical gap  : +0.004723 at state 1 ( [ +0.000000 +0.200000 +0.000000 ] spin 1 )
Dumping 'jdft.Ecomponents' ... done
IonicMinimize: Iter:   4  F: -3835.240458676525577  |grad|_K:  1.173e-04  alpha:  1.000e+00  linmin: -6.996e-01  t[s]:   9996.54

#--- Lowdin population analysis ---
# oxidation-state Cu +0.185 +0.091 +0.025 +0.185 +0.062 +0.073 +0.074 +0.077 +0.076 +0.076 +0.077 +0.076 +0.077 +0.078 +0.074 +0.073 +0.063 +0.026 +0.091
# magnetic-moments Cu +0.000 -0.000 -0.000 +0.000 +0.000 -0.000 +0.000 +0.000 -0.000 +0.000 -0.000 +0.000 -0.000 +0.000 +0.000 -0.000 -0.000 +0.000 -0.000


Computing DFT-D3 correction:
# coordination-number Cu 5.582 6.864 8.345 5.581 9.017 9.079 9.102 9.143 9.147 9.150 9.163 9.150 9.148 9.144 9.102 9.080 9.016 8.343 6.863
# diagonal-C6 Cu 175.00 175.00 175.00 175.00 175.00 175.00 175.00 175.00 175.00 175.00 175.00 175.00 175.00 175.00 175.00 175.00 175.00 175.00 175.00
EvdW_6 =   -0.124642
EvdW_8 =   -0.180305

-------- Electronic minimization -----------
	Linear fluid (dielectric constant: 78.4, screening length: 8.12261 Bohr) occupying 0.354132 of unit cell:	Completed after 16 iterations at t[s]:  10017.92
	FillingsUpdate:  mu: -0.153735422  nElectrons: 361.000000  magneticMoment: [ Abs: 0.00000  Tot: +0.00000 ]
ElecMinimize: Iter:   0  F: -3835.240440498184398  |grad|_K:  4.751e-07  alpha:  1.000e+00
	Linear fluid (dielectric constant: 78.4, screening length: 8.12261 Bohr) occupying 0.354218 of unit cell:	Completed after 21 iterations at t[s]:  10061.50
	Linear fluid (dielectric constant: 78.4, screening length: 8.12261 Bohr) occupying 0.354134 of unit cell:	Completed after 22 iterations at t[s]:  10076.41
	FillingsUpdate:  mu: -0.153319052  nElectrons: 361.000000  magneticMoment: [ Abs: 0.00000  Tot: +0.00000 ]
	SubspaceRotationAdjust: set factor to 0.232
ElecMinimize: Iter:   1  F: -3835.240447547723306  |grad|_K:  2.245e-07  alpha:  1.042e-01  linmin: -1.782e-05  t[s]:  10097.62
	Linear fluid (dielectric constant: 78.4, screening length: 8.12261 Bohr) occupying 0.354134 of unit cell:	Completed after 7 iterations at t[s]:  10116.45
	Linear fluid (dielectric constant: 78.4, screening length: 8.12261 Bohr) occupying 0.354133 of unit cell:	Completed after 9 iterations at t[s]:  10130.71
	FillingsUpdate:  mu: -0.153169579  nElectrons: 361.000000  magneticMoment: [ Abs: 0.00000  Tot: +0.00000 ]
	SubspaceRotationAdjust: set factor to 0.279
ElecMinimize: Iter:   2  F: -3835.240451233793465  |grad|_K:  2.373e-07  alpha:  2.444e-01  linmin:  2.458e-05  t[s]:  10152.15
	Linear fluid (dielectric constant: 78.4, screening length: 8.12261 Bohr) occupying 0.354128 of unit cell:	Completed after 10 iterations at t[s]:  10171.05
	Linear fluid (dielectric constant: 78.4, screening length: 8.12261 Bohr) occupying 0.354129 of unit cell:	Completed after 7 iterations at t[s]:  10185.41
	FillingsUpdate:  mu: -0.153321831  nElectrons: 361.000000  magneticMoment: [ Abs: 0.00000  Tot: +0.00000 ]
	SubspaceRotationAdjust: set factor to 0.351
ElecMinimize: Iter:   3  F: -3835.240454640013468  |grad|_K:  1.593e-07  alpha:  2.023e-01  linmin:  2.152e-06  t[s]:  10206.61
	Linear fluid (dielectric constant: 78.4, screening length: 8.12261 Bohr) occupying 0.354126 of unit cell:	Completed after 9 iterations at t[s]:  10225.58
	Linear fluid (dielectric constant: 78.4, screening length: 8.12261 Bohr) occupying 0.354126 of unit cell:	Completed after 2 iterations at t[s]:  10239.62
	FillingsUpdate:  mu: -0.153501450  nElectrons: 361.000000  magneticMoment: [ Abs: 0.00000  Tot: +0.00000 ]
	SubspaceRotationAdjust: set factor to 0.386
ElecMinimize: Iter:   4  F: -3835.240456084282869  |grad|_K:  1.446e-07  alpha:  1.902e-01  linmin:  1.484e-05  t[s]:  10260.87
	Linear fluid (dielectric constant: 78.4, screening length: 8.12261 Bohr) occupying 0.354126 of unit cell:	Completed after 9 iterations at t[s]:  10279.68
	Linear fluid (dielectric constant: 78.4, screening length: 8.12261 Bohr) occupying 0.354126 of unit cell:	Completed after 6 iterations at t[s]:  10293.80
	FillingsUpdate:  mu: -0.153319546  nElectrons: 361.000000  magneticMoment: [ Abs: 0.00000  Tot: +0.00000 ]
	SubspaceRotationAdjust: set factor to 0.377
ElecMinimize: Iter:   5  F: -3835.240457527447688  |grad|_K:  1.469e-07  alpha:  2.307e-01  linmin: -3.017e-05  t[s]:  10315.02
	Linear fluid (dielectric constant: 78.4, screening length: 8.12261 Bohr) occupying 0.354122 of unit cell:	Completed after 9 iterations at t[s]:  10333.92
	Linear fluid (dielectric constant: 78.4, screening length: 8.12261 Bohr) occupying 0.354121 of unit cell:	Completed after 7 iterations at t[s]:  10348.05
	FillingsUpdate:  mu: -0.153288265  nElectrons: 361.000000  magneticMoment: [ Abs: 0.00000  Tot: +0.00000 ]
	SubspaceRotationAdjust: set factor to 0.358
ElecMinimize: Iter:   6  F: -3835.240459386861403  |grad|_K:  1.289e-07  alpha:  2.867e-01  linmin: -4.443e-06  t[s]:  10369.09
	Linear fluid (dielectric constant: 78.4, screening length: 8.12261 Bohr) occupying 0.354114 of unit cell:	Completed after 10 iterations at t[s]:  10387.99
	Linear fluid (dielectric constant: 78.4, screening length: 8.12261 Bohr) occupying 0.354118 of unit cell:	Completed after 10 iterations at t[s]:  10402.39
	FillingsUpdate:  mu: -0.153376789  nElectrons: 361.000000  magneticMoment: [ Abs: 0.00000  Tot: -0.00000 ]
	SubspaceRotationAdjust: set factor to 0.421
ElecMinimize: Iter:   7  F: -3835.240460014025757  |grad|_K:  7.387e-08  alpha:  1.258e-01  linmin:  3.441e-06  t[s]:  10423.62
	Linear fluid (dielectric constant: 78.4, screening length: 8.12261 Bohr) occupying 0.354117 of unit cell:	Completed after 4 iterations at t[s]:  10442.18
	Linear fluid (dielectric constant: 78.4, screening length: 8.12261 Bohr) occupying 0.354115 of unit cell:	Completed after 7 iterations at t[s]:  10456.37
	FillingsUpdate:  mu: -0.153388830  nElectrons: 361.000000  magneticMoment: [ Abs: 0.00000  Tot: +0.00000 ]
	SubspaceRotationAdjust: set factor to 0.43
ElecMinimize: Iter:   8  F: -3835.240460451951549  |grad|_K:  8.583e-08  alpha:  2.679e-01  linmin: -1.048e-05  t[s]:  10477.65
	Linear fluid (dielectric constant: 78.4, screening length: 8.12261 Bohr) occupying 0.354112 of unit cell:	Completed after 9 iterations at t[s]:  10496.43
	Linear fluid (dielectric constant: 78.4, screening length: 8.12261 Bohr) occupying 0.354114 of unit cell:	Completed after 7 iterations at t[s]:  10510.61
	FillingsUpdate:  mu: -0.153386114  nElectrons: 361.000000  magneticMoment: [ Abs: 0.00000  Tot: +0.00000 ]
	SubspaceRotationAdjust: set factor to 0.41
ElecMinimize: Iter:   9  F: -3835.240460775810334  |grad|_K:  4.574e-08  alpha:  1.466e-01  linmin:  1.182e-05  t[s]:  10531.94
	Linear fluid (dielectric constant: 78.4, screening length: 8.12261 Bohr) occupying 0.354113 of unit cell:	Completed after 2 iterations at t[s]:  10550.46
	Linear fluid (dielectric constant: 78.4, screening length: 8.12261 Bohr) occupying 0.354113 of unit cell:	Completed after 0 iterations at t[s]:  10564.18
	FillingsUpdate:  mu: -0.153386207  nElectrons: 361.000000  magneticMoment: [ Abs: 0.00000  Tot: +0.00000 ]
	SubspaceRotationAdjust: set factor to 0.427
ElecMinimize: Iter:  10  F: -3835.240460869946219  |grad|_K:  3.622e-08  alpha:  1.507e-01  linmin: -1.521e-05  t[s]:  10585.26
	Linear fluid (dielectric constant: 78.4, screening length: 8.12261 Bohr) occupying 0.354114 of unit cell:	Completed after 5 iterations at t[s]:  10603.99
	Linear fluid (dielectric constant: 78.4, screening length: 8.12261 Bohr) occupying 0.354114 of unit cell:	Completed after 2 iterations at t[s]:  10617.90
	FillingsUpdate:  mu: -0.153391432  nElectrons: 361.000000  magneticMoment: [ Abs: 0.00000  Tot: +0.00000 ]
	SubspaceRotationAdjust: set factor to 0.413
ElecMinimize: Iter:  11  F: -3835.240460940533922  |grad|_K:  2.551e-08  alpha:  1.790e-01  linmin: -4.094e-04  t[s]:  10639.19
ElecMinimize: Converged (|Delta F|<1.000000e-07 for 2 iters).
Setting wave functions to eigenvectors of Hamiltonian
Converging empty states (this may take a while): |deigs|: 1.012e-08

Computing DFT-D3 correction:
# coordination-number Cu 5.582 6.864 8.345 5.581 9.017 9.079 9.102 9.143 9.147 9.150 9.163 9.150 9.148 9.144 9.102 9.080 9.016 8.343 6.863
# diagonal-C6 Cu 175.00 175.00 175.00 175.00 175.00 175.00 175.00 175.00 175.00 175.00 175.00 175.00 175.00 175.00 175.00 175.00 175.00 175.00 175.00
EvdW_6 =   -0.124642
EvdW_8 =   -0.180305

# Ionic positions in cartesian coordinates:
ion Cu  -0.001189571937994   6.544259221904301  57.880693125142230 1
ion Cu   2.384347389499177   2.713917167818438  56.525471286267937 1
ion Cu   2.383887227398184   9.359585958742874  54.993385549850885 1
ion Cu   4.766714897309844   0.017059499325861  30.268474366687549 1
ion Cu   0.001239924732508   5.469625106865179  53.340480483168989 1
ion Cu   2.382432881611063   1.624510788575254  51.814530775226764 1
ion Cu   2.383874535081328   8.200612857096450  50.274224005658297 1
ion Cu  -0.000229659887109   4.367759409755700  48.718383439296495 1
ion Cu   2.384140132095066   0.541421757583788  47.163299641011058 1
ion Cu   2.385074808662646   7.104149527116202  45.624942550535913 1
ion Cu  -0.000221664410228   3.280673214174615  44.075079347753082 1
ion Cu  -0.001255218091929   9.845324899971098  42.525340863688072 1
ion Cu   2.383279134156621   6.019453883868943  40.986943943326381 1
ion Cu  -0.000323776832839   2.193836447718212  39.431964941947847 1
ion Cu  -0.000467990029081   8.749151972737545  37.876629824119952 1
ion Cu   2.385012775012609   4.936714353410778  36.336035344640820 1
ion Cu  -0.001820585250203   1.091769652923767  34.810314003264310 1
ion Cu  -0.001258653226670   7.590671526286636  33.157025520590196 1
ion Cu   2.383187414107011   3.847031754124345  31.624830987823199 1

# Forces in Cartesian coordinates:
force Cu  -0.000002161094412   0.000067540705999   0.000045750130941 1
force Cu   0.000003313478799   0.000050226941527   0.000297565695420 1
force Cu  -0.000000441788968  -0.000005630696527   0.000064462054740 1
force Cu  -0.000007966976737  -0.000045072944683   0.000056859421518 1
force Cu   0.000007027902191  -0.000057231112964   0.000042776697426 1
force Cu   0.000005675816862   0.000171179479448   0.000019707909164 1
force Cu   0.000005326787030  -0.000034721311684  -0.000025595283713 1
force Cu   0.000007304003396   0.000001017045001   0.000200223501459 1
force Cu   0.000007770976122  -0.000076319188865   0.000182664551292 1
force Cu   0.000006055691988   0.000012024547770   0.000145447122979 1
force Cu   0.000002431343467   0.000004015424259   0.000008117946684 1
force Cu  -0.000001928329638  -0.000009892134018  -0.000145505373149 1
force Cu  -0.000004872625769   0.000082268420308  -0.000206579950342 1
force Cu  -0.000004392963350   0.000004247949868  -0.000250517078401 1
force Cu  -0.000003989386620   0.000037986035698  -0.000076358253192 1
force Cu  -0.000005685643367  -0.000164264877470  -0.000127044364142 1
force Cu  -0.000007175793184   0.000070098480989  -0.000140825890338 1
force Cu  -0.000005694627918   0.000032088349724  -0.000081099537191 1
force Cu  -0.000014278205658  -0.000061099119691  -0.000245652079553 1

# Energy components:
   A_diel =       -0.0006876089761192
   Eewald =    17973.4991420041224046
       EH =    21529.4520603944984032
     Eloc =   -44058.0014647154384875
      Enl =      695.8214098154047633
     EvdW =       -0.3049474639394175
      Exc =     -368.7765856114252188
 Exc_core =        0.8924686907945463
       KE =      392.1785522250504528
-------------------------------------
     Etot =    -3835.2400522699117573
       TS =        0.0004086706222729
-------------------------------------
        F =    -3835.2404609405339215


Dumping 'jdft.fillings' ... done
Dumping 'jdft.wfns' ... done
Dumping 'jdft.fluidState' ... done
Dumping 'jdft.ionpos' ... done
Dumping 'jdft.lattice' ... done
Dumping 'jdft.eigenvals' ... done
Dumping 'jdft.eigStats' ... 
	eMin: -4.295488 at state 55 ( [ +0.000000 +0.000000 +0.000000 ] spin -1 )
	HOMO: -0.153902 at state 59 ( [ +0.000000 -0.200000 +0.000000 ] spin -1 )
	mu  : -0.153391
	LUMO: -0.152690 at state 105 ( [ -0.090909 +0.000000 +0.000000 ] spin -1 )
	eMax: +0.259306 at state 0 ( [ +0.000000 +0.000000 +0.000000 ] spin 1 )
	HOMO-LUMO gap: +0.001211
	Optical gap  : +0.004756 at state 59 ( [ +0.000000 -0.200000 +0.000000 ] spin -1 )
Dumping 'jdft.Ecomponents' ... done
IonicMinimize: Iter:   5  F: -3835.240460940533922  |grad|_K:  9.572e-05  alpha:  1.000e+00  linmin:  1.111e-01  t[s]:  10694.51
IonicMinimize: Converged (|grad|_K<1.000000e-04).

#--- Lowdin population analysis ---
# oxidation-state Cu +0.185 +0.091 +0.026 +0.186 +0.062 +0.073 +0.074 +0.078 +0.076 +0.076 +0.077 +0.076 +0.076 +0.078 +0.074 +0.073 +0.062 +0.026 +0.092
# magnetic-moments Cu +0.000 -0.000 +0.000 +0.000 +0.000 +0.000 -0.000 -0.000 -0.000 +0.000 +0.000 -0.000 +0.000 +0.000 -0.000 -0.000 +0.000 -0.000 +0.000


Dumping 'jdft.n_up' ... done
Dumping 'jdft.n_dn' ... done
Dumping 'jdft.tau_up' ... done
Dumping 'jdft.tau_dn' ... done
Dumping 'jdft.eigenvals' ... done
Dumping 'jdft.eigStats' ... 
	eMin: -4.295488 at state 55 ( [ +0.000000 +0.000000 +0.000000 ] spin -1 )
	HOMO: -0.153902 at state 59 ( [ +0.000000 -0.200000 +0.000000 ] spin -1 )
	mu  : -0.153391
	LUMO: -0.152690 at state 105 ( [ -0.090909 +0.000000 +0.000000 ] spin -1 )
	eMax: +0.259306 at state 0 ( [ +0.000000 +0.000000 +0.000000 ] spin 1 )
	HOMO-LUMO gap: +0.001211
	Optical gap  : +0.004756 at state 59 ( [ +0.000000 -0.200000 +0.000000 ] spin -1 )
Dumping 'jdft.kPts' ... done
Dumping 'jdft.dosUp' ... done.
Dumping 'jdft.dosDn' ... done.
End date and time: Mon Dec  6 18:23:14 2021  (Duration: 0-2:58:50.51)
Done!
