
*************** JDFTx 1.6.0  ***************

Start date and time: Thu Feb 17 03:49:17 2022
Executable /projects/musgravc/apps/jdftx-1.6.1/build/jdftx with command-line: -i in
Running on hosts (process indices):  shas0649.rc.int.colorado.edu (0-23)
Divided in process groups (process indices):  0 (0)  1 (1)  2 (2)  3 (3)  4 (4)  5 (5)  6 (6)  7 (7)  8 (8)  9 (9)  10 (10)  11 (11)  12 (12)  13 (13)  14 (14)  15 (15)  16 (16)  17 (17)  18 (18)  19 (19)  20 (20)  21 (21)  22 (22)  23 (23)
Resource initialization completed at t[s]:      0.00
Run totals: 24 processes, 24 threads, 0 GPUs


Input parsed successfully to the following command list (including defaults):

basis kpoint-dependent
converge-empty-states yes
coords-type Cartesian
core-overlap-check none
coulomb-interaction Periodic
davidson-band-ratio 1.1
density-of-states Etol 1.000000e-06 Esigma 1.000000e-03 \
		Complete \
	Total \
	OrthoOrbital Pt 1   s \
	OrthoOrbital Pt 1   p \
	OrthoOrbital Pt 1   px \
	OrthoOrbital Pt 1   py \
	OrthoOrbital Pt 1   pz \
	OrthoOrbital Pt 1   d \
	OrthoOrbital Pt 1   dxy \
	OrthoOrbital Pt 1   dyz \
	OrthoOrbital Pt 1   dz2 \
	OrthoOrbital Pt 1   dxz \
	OrthoOrbital Pt 1   dx2-y2 \
	OrthoOrbital Pt 2   s \
	OrthoOrbital Pt 2   p \
	OrthoOrbital Pt 2   px \
	OrthoOrbital Pt 2   py \
	OrthoOrbital Pt 2   pz \
	OrthoOrbital Pt 2   d \
	OrthoOrbital Pt 2   dxy \
	OrthoOrbital Pt 2   dyz \
	OrthoOrbital Pt 2   dz2 \
	OrthoOrbital Pt 2   dxz \
	OrthoOrbital Pt 2   dx2-y2 \
	OrthoOrbital Pt 3   s \
	OrthoOrbital Pt 3   p \
	OrthoOrbital Pt 3   px \
	OrthoOrbital Pt 3   py \
	OrthoOrbital Pt 3   pz \
	OrthoOrbital Pt 3   d \
	OrthoOrbital Pt 3   dxy \
	OrthoOrbital Pt 3   dyz \
	OrthoOrbital Pt 3   dz2 \
	OrthoOrbital Pt 3   dxz \
	OrthoOrbital Pt 3   dx2-y2 \
	OrthoOrbital Pt 4   s \
	OrthoOrbital Pt 4   p \
	OrthoOrbital Pt 4   px \
	OrthoOrbital Pt 4   py \
	OrthoOrbital Pt 4   pz \
	OrthoOrbital Pt 4   d \
	OrthoOrbital Pt 4   dxy \
	OrthoOrbital Pt 4   dyz \
	OrthoOrbital Pt 4   dz2 \
	OrthoOrbital Pt 4   dxz \
	OrthoOrbital Pt 4   dx2-y2 \
	OrthoOrbital Pt 5   s \
	OrthoOrbital Pt 5   p \
	OrthoOrbital Pt 5   px \
	OrthoOrbital Pt 5   py \
	OrthoOrbital Pt 5   pz \
	OrthoOrbital Pt 5   d \
	OrthoOrbital Pt 5   dxy \
	OrthoOrbital Pt 5   dyz \
	OrthoOrbital Pt 5   dz2 \
	OrthoOrbital Pt 5   dxz \
	OrthoOrbital Pt 5   dx2-y2 \
	OrthoOrbital Pt 6   s \
	OrthoOrbital Pt 6   p \
	OrthoOrbital Pt 6   px \
	OrthoOrbital Pt 6   py \
	OrthoOrbital Pt 6   pz \
	OrthoOrbital Pt 6   d \
	OrthoOrbital Pt 6   dxy \
	OrthoOrbital Pt 6   dyz \
	OrthoOrbital Pt 6   dz2 \
	OrthoOrbital Pt 6   dxz \
	OrthoOrbital Pt 6   dx2-y2 \
	OrthoOrbital Pt 7   s \
	OrthoOrbital Pt 7   p \
	OrthoOrbital Pt 7   px \
	OrthoOrbital Pt 7   py \
	OrthoOrbital Pt 7   pz \
	OrthoOrbital Pt 7   d \
	OrthoOrbital Pt 7   dxy \
	OrthoOrbital Pt 7   dyz \
	OrthoOrbital Pt 7   dz2 \
	OrthoOrbital Pt 7   dxz \
	OrthoOrbital Pt 7   dx2-y2 \
	OrthoOrbital Pt 8   s \
	OrthoOrbital Pt 8   p \
	OrthoOrbital Pt 8   px \
	OrthoOrbital Pt 8   py \
	OrthoOrbital Pt 8   pz \
	OrthoOrbital Pt 8   d \
	OrthoOrbital Pt 8   dxy \
	OrthoOrbital Pt 8   dyz \
	OrthoOrbital Pt 8   dz2 \
	OrthoOrbital Pt 8   dxz \
	OrthoOrbital Pt 8   dx2-y2 \
	OrthoOrbital Pt 9   s \
	OrthoOrbital Pt 9   p \
	OrthoOrbital Pt 9   px \
	OrthoOrbital Pt 9   py \
	OrthoOrbital Pt 9   pz \
	OrthoOrbital Pt 9   d \
	OrthoOrbital Pt 9   dxy \
	OrthoOrbital Pt 9   dyz \
	OrthoOrbital Pt 9   dz2 \
	OrthoOrbital Pt 9   dxz \
	OrthoOrbital Pt 9   dx2-y2 \
	OrthoOrbital Pt 10   s \
	OrthoOrbital Pt 10   p \
	OrthoOrbital Pt 10   px \
	OrthoOrbital Pt 10   py \
	OrthoOrbital Pt 10   pz \
	OrthoOrbital Pt 10   d \
	OrthoOrbital Pt 10   dxy \
	OrthoOrbital Pt 10   dyz \
	OrthoOrbital Pt 10   dz2 \
	OrthoOrbital Pt 10   dxz \
	OrthoOrbital Pt 10   dx2-y2 \
	OrthoOrbital Pt 11   s \
	OrthoOrbital Pt 11   p \
	OrthoOrbital Pt 11   px \
	OrthoOrbital Pt 11   py \
	OrthoOrbital Pt 11   pz \
	OrthoOrbital Pt 11   d \
	OrthoOrbital Pt 11   dxy \
	OrthoOrbital Pt 11   dyz \
	OrthoOrbital Pt 11   dz2 \
	OrthoOrbital Pt 11   dxz \
	OrthoOrbital Pt 11   dx2-y2 \
	OrthoOrbital Pt 12   s \
	OrthoOrbital Pt 12   p \
	OrthoOrbital Pt 12   px \
	OrthoOrbital Pt 12   py \
	OrthoOrbital Pt 12   pz \
	OrthoOrbital Pt 12   d \
	OrthoOrbital Pt 12   dxy \
	OrthoOrbital Pt 12   dyz \
	OrthoOrbital Pt 12   dz2 \
	OrthoOrbital Pt 12   dxz \
	OrthoOrbital Pt 12   dx2-y2 \
	OrthoOrbital Pt 13   s \
	OrthoOrbital Pt 13   p \
	OrthoOrbital Pt 13   px \
	OrthoOrbital Pt 13   py \
	OrthoOrbital Pt 13   pz \
	OrthoOrbital Pt 13   d \
	OrthoOrbital Pt 13   dxy \
	OrthoOrbital Pt 13   dyz \
	OrthoOrbital Pt 13   dz2 \
	OrthoOrbital Pt 13   dxz \
	OrthoOrbital Pt 13   dx2-y2 \
	OrthoOrbital Pt 14   s \
	OrthoOrbital Pt 14   p \
	OrthoOrbital Pt 14   px \
	OrthoOrbital Pt 14   py \
	OrthoOrbital Pt 14   pz \
	OrthoOrbital Pt 14   d \
	OrthoOrbital Pt 14   dxy \
	OrthoOrbital Pt 14   dyz \
	OrthoOrbital Pt 14   dz2 \
	OrthoOrbital Pt 14   dxz \
	OrthoOrbital Pt 14   dx2-y2 \
	OrthoOrbital Pt 15   s \
	OrthoOrbital Pt 15   p \
	OrthoOrbital Pt 15   px \
	OrthoOrbital Pt 15   py \
	OrthoOrbital Pt 15   pz \
	OrthoOrbital Pt 15   d \
	OrthoOrbital Pt 15   dxy \
	OrthoOrbital Pt 15   dyz \
	OrthoOrbital Pt 15   dz2 \
	OrthoOrbital Pt 15   dxz \
	OrthoOrbital Pt 15   dx2-y2 \
	OrthoOrbital Pt 16   s \
	OrthoOrbital Pt 16   p \
	OrthoOrbital Pt 16   px \
	OrthoOrbital Pt 16   py \
	OrthoOrbital Pt 16   pz \
	OrthoOrbital Pt 16   d \
	OrthoOrbital Pt 16   dxy \
	OrthoOrbital Pt 16   dyz \
	OrthoOrbital Pt 16   dz2 \
	OrthoOrbital Pt 16   dxz \
	OrthoOrbital Pt 16   dx2-y2 \
	OrthoOrbital Pt 17   s \
	OrthoOrbital Pt 17   p \
	OrthoOrbital Pt 17   px \
	OrthoOrbital Pt 17   py \
	OrthoOrbital Pt 17   pz \
	OrthoOrbital Pt 17   d \
	OrthoOrbital Pt 17   dxy \
	OrthoOrbital Pt 17   dyz \
	OrthoOrbital Pt 17   dz2 \
	OrthoOrbital Pt 17   dxz \
	OrthoOrbital Pt 17   dx2-y2 \
	OrthoOrbital Pt 18   s \
	OrthoOrbital Pt 18   p \
	OrthoOrbital Pt 18   px \
	OrthoOrbital Pt 18   py \
	OrthoOrbital Pt 18   pz \
	OrthoOrbital Pt 18   d \
	OrthoOrbital Pt 18   dxy \
	OrthoOrbital Pt 18   dyz \
	OrthoOrbital Pt 18   dz2 \
	OrthoOrbital Pt 18   dxz \
	OrthoOrbital Pt 18   dx2-y2 \
	OrthoOrbital Pt 19   s \
	OrthoOrbital Pt 19   p \
	OrthoOrbital Pt 19   px \
	OrthoOrbital Pt 19   py \
	OrthoOrbital Pt 19   pz \
	OrthoOrbital Pt 19   d \
	OrthoOrbital Pt 19   dxy \
	OrthoOrbital Pt 19   dyz \
	OrthoOrbital Pt 19   dz2 \
	OrthoOrbital Pt 19   dxz \
	OrthoOrbital Pt 19   dx2-y2 \
	OrthoOrbital Pt 20   s \
	OrthoOrbital Pt 20   p \
	OrthoOrbital Pt 20   px \
	OrthoOrbital Pt 20   py \
	OrthoOrbital Pt 20   pz \
	OrthoOrbital Pt 20   d \
	OrthoOrbital Pt 20   dxy \
	OrthoOrbital Pt 20   dyz \
	OrthoOrbital Pt 20   dz2 \
	OrthoOrbital Pt 20   dxz \
	OrthoOrbital Pt 20   dx2-y2 \
	OrthoOrbital Pt 21   s \
	OrthoOrbital Pt 21   p \
	OrthoOrbital Pt 21   px \
	OrthoOrbital Pt 21   py \
	OrthoOrbital Pt 21   pz \
	OrthoOrbital Pt 21   d \
	OrthoOrbital Pt 21   dxy \
	OrthoOrbital Pt 21   dyz \
	OrthoOrbital Pt 21   dz2 \
	OrthoOrbital Pt 21   dxz \
	OrthoOrbital Pt 21   dx2-y2 \
	OrthoOrbital Pt 22   s \
	OrthoOrbital Pt 22   p \
	OrthoOrbital Pt 22   px \
	OrthoOrbital Pt 22   py \
	OrthoOrbital Pt 22   pz \
	OrthoOrbital Pt 22   d \
	OrthoOrbital Pt 22   dxy \
	OrthoOrbital Pt 22   dyz \
	OrthoOrbital Pt 22   dz2 \
	OrthoOrbital Pt 22   dxz \
	OrthoOrbital Pt 22   dx2-y2 \
	OrthoOrbital Pt 23   s \
	OrthoOrbital Pt 23   p \
	OrthoOrbital Pt 23   px \
	OrthoOrbital Pt 23   py \
	OrthoOrbital Pt 23   pz \
	OrthoOrbital Pt 23   d \
	OrthoOrbital Pt 23   dxy \
	OrthoOrbital Pt 23   dyz \
	OrthoOrbital Pt 23   dz2 \
	OrthoOrbital Pt 23   dxz \
	OrthoOrbital Pt 23   dx2-y2 \
	OrthoOrbital Pt 24   s \
	OrthoOrbital Pt 24   p \
	OrthoOrbital Pt 24   px \
	OrthoOrbital Pt 24   py \
	OrthoOrbital Pt 24   pz \
	OrthoOrbital Pt 24   d \
	OrthoOrbital Pt 24   dxy \
	OrthoOrbital Pt 24   dyz \
	OrthoOrbital Pt 24   dz2 \
	OrthoOrbital Pt 24   dxz \
	OrthoOrbital Pt 24   dx2-y2 \
	OrthoOrbital Pt 25   s \
	OrthoOrbital Pt 25   p \
	OrthoOrbital Pt 25   px \
	OrthoOrbital Pt 25   py \
	OrthoOrbital Pt 25   pz \
	OrthoOrbital Pt 25   d \
	OrthoOrbital Pt 25   dxy \
	OrthoOrbital Pt 25   dyz \
	OrthoOrbital Pt 25   dz2 \
	OrthoOrbital Pt 25   dxz \
	OrthoOrbital Pt 25   dx2-y2 \
	OrthoOrbital Pt 26   s \
	OrthoOrbital Pt 26   p \
	OrthoOrbital Pt 26   px \
	OrthoOrbital Pt 26   py \
	OrthoOrbital Pt 26   pz \
	OrthoOrbital Pt 26   d \
	OrthoOrbital Pt 26   dxy \
	OrthoOrbital Pt 26   dyz \
	OrthoOrbital Pt 26   dz2 \
	OrthoOrbital Pt 26   dxz \
	OrthoOrbital Pt 26   dx2-y2 \
	OrthoOrbital Pt 27   s \
	OrthoOrbital Pt 27   p \
	OrthoOrbital Pt 27   px \
	OrthoOrbital Pt 27   py \
	OrthoOrbital Pt 27   pz \
	OrthoOrbital Pt 27   d \
	OrthoOrbital Pt 27   dxy \
	OrthoOrbital Pt 27   dyz \
	OrthoOrbital Pt 27   dz2 \
	OrthoOrbital Pt 27   dxz \
	OrthoOrbital Pt 27   dx2-y2 \
	OrthoOrbital Pt 28   s \
	OrthoOrbital Pt 28   p \
	OrthoOrbital Pt 28   px \
	OrthoOrbital Pt 28   py \
	OrthoOrbital Pt 28   pz \
	OrthoOrbital Pt 28   d \
	OrthoOrbital Pt 28   dxy \
	OrthoOrbital Pt 28   dyz \
	OrthoOrbital Pt 28   dz2 \
	OrthoOrbital Pt 28   dxz \
	OrthoOrbital Pt 28   dx2-y2 \
	OrthoOrbital Pt 29   s \
	OrthoOrbital Pt 29   p \
	OrthoOrbital Pt 29   px \
	OrthoOrbital Pt 29   py \
	OrthoOrbital Pt 29   pz \
	OrthoOrbital Pt 29   d \
	OrthoOrbital Pt 29   dxy \
	OrthoOrbital Pt 29   dyz \
	OrthoOrbital Pt 29   dz2 \
	OrthoOrbital Pt 29   dxz \
	OrthoOrbital Pt 29   dx2-y2 \
	OrthoOrbital Pt 30   s \
	OrthoOrbital Pt 30   p \
	OrthoOrbital Pt 30   px \
	OrthoOrbital Pt 30   py \
	OrthoOrbital Pt 30   pz \
	OrthoOrbital Pt 30   d \
	OrthoOrbital Pt 30   dxy \
	OrthoOrbital Pt 30   dyz \
	OrthoOrbital Pt 30   dz2 \
	OrthoOrbital Pt 30   dxz \
	OrthoOrbital Pt 30   dx2-y2 \
	OrthoOrbital Pt 31   s \
	OrthoOrbital Pt 31   p \
	OrthoOrbital Pt 31   px \
	OrthoOrbital Pt 31   py \
	OrthoOrbital Pt 31   pz \
	OrthoOrbital Pt 31   d \
	OrthoOrbital Pt 31   dxy \
	OrthoOrbital Pt 31   dyz \
	OrthoOrbital Pt 31   dz2 \
	OrthoOrbital Pt 31   dxz \
	OrthoOrbital Pt 31   dx2-y2 \
	OrthoOrbital Pt 32   s \
	OrthoOrbital Pt 32   p \
	OrthoOrbital Pt 32   px \
	OrthoOrbital Pt 32   py \
	OrthoOrbital Pt 32   pz \
	OrthoOrbital Pt 32   d \
	OrthoOrbital Pt 32   dxy \
	OrthoOrbital Pt 32   dyz \
	OrthoOrbital Pt 32   dz2 \
	OrthoOrbital Pt 32   dxz \
	OrthoOrbital Pt 32   dx2-y2 \
	OrthoOrbital Pt 33   s \
	OrthoOrbital Pt 33   p \
	OrthoOrbital Pt 33   px \
	OrthoOrbital Pt 33   py \
	OrthoOrbital Pt 33   pz \
	OrthoOrbital Pt 33   d \
	OrthoOrbital Pt 33   dxy \
	OrthoOrbital Pt 33   dyz \
	OrthoOrbital Pt 33   dz2 \
	OrthoOrbital Pt 33   dxz \
	OrthoOrbital Pt 33   dx2-y2 \
	OrthoOrbital Pt 34   s \
	OrthoOrbital Pt 34   p \
	OrthoOrbital Pt 34   px \
	OrthoOrbital Pt 34   py \
	OrthoOrbital Pt 34   pz \
	OrthoOrbital Pt 34   d \
	OrthoOrbital Pt 34   dxy \
	OrthoOrbital Pt 34   dyz \
	OrthoOrbital Pt 34   dz2 \
	OrthoOrbital Pt 34   dxz \
	OrthoOrbital Pt 34   dx2-y2 \
	OrthoOrbital Pt 35   s \
	OrthoOrbital Pt 35   p \
	OrthoOrbital Pt 35   px \
	OrthoOrbital Pt 35   py \
	OrthoOrbital Pt 35   pz \
	OrthoOrbital Pt 35   d \
	OrthoOrbital Pt 35   dxy \
	OrthoOrbital Pt 35   dyz \
	OrthoOrbital Pt 35   dz2 \
	OrthoOrbital Pt 35   dxz \
	OrthoOrbital Pt 35   dx2-y2 \
	OrthoOrbital Pt 36   s \
	OrthoOrbital Pt 36   p \
	OrthoOrbital Pt 36   px \
	OrthoOrbital Pt 36   py \
	OrthoOrbital Pt 36   pz \
	OrthoOrbital Pt 36   d \
	OrthoOrbital Pt 36   dxy \
	OrthoOrbital Pt 36   dyz \
	OrthoOrbital Pt 36   dz2 \
	OrthoOrbital Pt 36   dxz \
	OrthoOrbital Pt 36   dx2-y2 \
	OrthoOrbital Pt 37   s \
	OrthoOrbital Pt 37   p \
	OrthoOrbital Pt 37   px \
	OrthoOrbital Pt 37   py \
	OrthoOrbital Pt 37   pz \
	OrthoOrbital Pt 37   d \
	OrthoOrbital Pt 37   dxy \
	OrthoOrbital Pt 37   dyz \
	OrthoOrbital Pt 37   dz2 \
	OrthoOrbital Pt 37   dxz \
	OrthoOrbital Pt 37   dx2-y2 \
	OrthoOrbital Pt 38   s \
	OrthoOrbital Pt 38   p \
	OrthoOrbital Pt 38   px \
	OrthoOrbital Pt 38   py \
	OrthoOrbital Pt 38   pz \
	OrthoOrbital Pt 38   d \
	OrthoOrbital Pt 38   dxy \
	OrthoOrbital Pt 38   dyz \
	OrthoOrbital Pt 38   dz2 \
	OrthoOrbital Pt 38   dxz \
	OrthoOrbital Pt 38   dx2-y2 \
	OrthoOrbital Pt 39   s \
	OrthoOrbital Pt 39   p \
	OrthoOrbital Pt 39   px \
	OrthoOrbital Pt 39   py \
	OrthoOrbital Pt 39   pz \
	OrthoOrbital Pt 39   d \
	OrthoOrbital Pt 39   dxy \
	OrthoOrbital Pt 39   dyz \
	OrthoOrbital Pt 39   dz2 \
	OrthoOrbital Pt 39   dxz \
	OrthoOrbital Pt 39   dx2-y2 \
	OrthoOrbital Pt 40   s \
	OrthoOrbital Pt 40   p \
	OrthoOrbital Pt 40   px \
	OrthoOrbital Pt 40   py \
	OrthoOrbital Pt 40   pz \
	OrthoOrbital Pt 40   d \
	OrthoOrbital Pt 40   dxy \
	OrthoOrbital Pt 40   dyz \
	OrthoOrbital Pt 40   dz2 \
	OrthoOrbital Pt 40   dxz \
	OrthoOrbital Pt 40   dx2-y2 \
	OrthoOrbital C 1   s \
	OrthoOrbital C 1   p \
	OrthoOrbital C 1   px \
	OrthoOrbital C 1   py \
	OrthoOrbital C 1   pz \
	OrthoOrbital O 1   s \
	OrthoOrbital O 1   p \
	OrthoOrbital O 1   px \
	OrthoOrbital O 1   py \
	OrthoOrbital O 1   pz
dump End ElecDensity KEdensity BandEigs EigStats RhoAtom DOS Kpoints
dump Ionic State IonicPositions Lattice EigStats Ecomponents
dump 
dump 
dump 
dump 
dump 
dump 
dump 
dump 
dump-name jdft.$VAR
elec-cutoff 20
elec-eigen-algo Davidson
elec-ex-corr gga-PBE
elec-initial-magnetization 0.000000 no
elec-n-bands 390
elec-smearing Fermi 0.001
electronic-minimize  \
	dirUpdateScheme      FletcherReeves \
	linminMethod         DirUpdateRecommended \
	nIterations          100 \
	history              15 \
	knormThreshold       0 \
	energyDiffThreshold  1e-07 \
	nEnergyDiff          2 \
	alphaTstart          1 \
	alphaTmin            1e-10 \
	updateTestStepSize   yes \
	alphaTreduceFactor   0.1 \
	alphaTincreaseFactor 3 \
	nAlphaAdjustMax      3 \
	wolfeEnergy          0.0001 \
	wolfeGradient        0.9 \
	fdTest               no
exchange-regularization WignerSeitzTruncated
fluid LinearPCM 298.000000 1.013250
fluid-anion F- 0.5 MeanFieldLJ \
	epsBulk 1 \
	pMol 0 \
	epsInf 1 \
	Pvap 0 \
	sigmaBulk 0 \
	Rvdw 2.24877 \
	Res 0 \
	tauNuc 343133
fluid-cation Na+ 0.5 MeanFieldLJ \
	epsBulk 1 \
	pMol 0 \
	epsInf 1 \
	Pvap 0 \
	sigmaBulk 0 \
	Rvdw 2.19208 \
	Res 0 \
	tauNuc 343133
fluid-ex-corr lda-TF lda-PZ
fluid-gummel-loop 10 1.000000e-05
fluid-minimize  \
	dirUpdateScheme      PolakRibiere \
	linminMethod         DirUpdateRecommended \
	nIterations          400 \
	history              15 \
	knormThreshold       1e-11 \
	energyDiffThreshold  0 \
	nEnergyDiff          2 \
	alphaTstart          1 \
	alphaTmin            1e-10 \
	updateTestStepSize   yes \
	alphaTreduceFactor   0.1 \
	alphaTincreaseFactor 3 \
	nAlphaAdjustMax      6 \
	wolfeEnergy          0.0001 \
	wolfeGradient        0.9 \
	fdTest               no
fluid-solvent H2O 55.338 ScalarEOS \
	epsBulk 78.4 \
	pMol 0.92466 \
	epsInf 1.77 \
	Pvap 1.06736e-10 \
	sigmaBulk 4.62e-05 \
	Rvdw 2.61727 \
	Res 1.42 \
	tauNuc 343133 \
	poleEl 15 7 1
forces-output-coords Positions
ion Pt   3.704685000000000   1.822566000000000  12.573157000000000 0
ion Pt   0.005105000000001  10.095076999999998  12.573157000000000 0
ion Pt  11.103842999999998   1.822566000000000  12.573157000000000 0
ion Pt   7.404264000000001  10.095076999999998  12.573157000000000 0
ion Pt  -0.001050999999999   3.273664000000000   9.137368000000000 0
ion Pt  -3.700629999999999  11.546173999999999   9.137368000000000 0
ion Pt   7.398107999999999   3.273664000000000   9.137368000000000 0
ion Pt   3.698529000000002  11.546173999999999   9.137368000000000 0
ion Pt   3.697034000000000   4.963307999999999   5.876891000000000 0
ion Pt  -0.002545000000000  13.235818000000000   5.876891000000000 0
ion Pt  11.096191999999999   4.963307999999999   5.876891000000000 0
ion Pt   7.396613000000001  13.235818000000000   5.876891000000000 0
ion Pt  -0.005535000000000   6.538525999999999   2.275817000000000 0
ion Pt  -3.705113999999998  14.811036999999999   2.275817000000000 0
ion Pt   7.393623999999998   6.538525999999999   2.275817000000000 0
ion Pt   3.694045000000000  14.811036999999999   2.275817000000000 0
ion Pt  -3.696790000000000   8.273420000000000  15.437099999999996 0
ion Pt   0.002789000000000   0.000910000000000  15.437099999999996 0
ion Pt   3.702368999999999   8.273420000000000  15.437099999999996 0
ion Pt   7.401947999999999   0.000910000000000  15.437099999999996 0
ion Pt   3.702198000000001   6.619000999999999  10.667418999999999 0
ion Pt   0.002612000000002  14.891494999999999  10.667418999999999 0
ion Pt  11.101342000000001   6.619000999999999  10.667418999999999 0
ion Pt   7.401770000000000  14.891494999999999  10.667418999999999 0
ion Pt   3.700711000000000   0.034761000000000   7.409074999999999 0
ion Pt   0.001132000000001   8.307271999999999   7.409074999999999 0
ion Pt  11.099869999999996   0.034761000000000   7.409074999999999 0
ion Pt   7.400290000000000   8.307271999999999   7.409074999999999 0
ion Pt  -0.004987000000000   1.486173000000000   3.972789999999999 0
ion Pt  -3.704565999999998   9.758682999999998   3.972789999999999 0
ion Pt   7.394171000000000   1.486173000000000   3.972789999999999 0
ion Pt   3.694592000000002   9.758682999999998   3.972789999999999 0
ion Pt   3.696723000000000   3.307713999999999   1.109493000000000 0
ion Pt  -0.002870999999999  11.580223999999999   1.109493000000000 0
ion Pt  11.095866999999998   3.307713999999999   1.109493000000000 0
ion Pt   7.396302000000000  11.580223999999999   1.109493000000000 0
ion Pt   0.005350000000000   5.043435000000000  14.266009999999996 0
ion Pt  -3.694243999999999  13.315945999999999  14.266009999999996 0
ion Pt   7.404493000000000   5.043435000000000  14.266009999999996 0
ion Pt   3.704914000000001  13.315945999999999  14.266009999999996 0
ion C   5.554704000000000   9.179690000000001  18.045472000000000 1  Linear 0 0 1
ion O   5.614800000000000   9.179690000000001  20.200824999999995 1  Linear 0 0 1
ion-species /projects/musgravc/apps/jdftx-1.6.0/build/pseudopotentials/GBRV_v1.5/$ID_pbe_v1.uspp
ion-species /projects/musgravc/apps/jdftx-1.6.0/build/pseudopotentials/GBRV_v1.5/$ID_pbe_v1.2.uspp
ion-species /projects/musgravc/apps/jdftx-1.6.0/build/pseudopotentials/GBRV_v1.5/$ID_pbe_v1.4.uspp
ion-species /projects/musgravc/apps/jdftx-1.6.0/build/pseudopotentials/GBRV_v1.5/$ID_pbe_v1.5.uspp
ion-width Ecut
ionic-minimize  \
	dirUpdateScheme      L-BFGS \
	linminMethod         DirUpdateRecommended \
	nIterations          100 \
	history              15 \
	knormThreshold       0.0001 \
	energyDiffThreshold  1e-06 \
	nEnergyDiff          2 \
	alphaTstart          1 \
	alphaTmin            1e-10 \
	updateTestStepSize   yes \
	alphaTreduceFactor   0.1 \
	alphaTincreaseFactor 3 \
	nAlphaAdjustMax      3 \
	wolfeEnergy          0.0001 \
	wolfeGradient        0.9 \
	fdTest               no
kpoint   0.000000000000   0.000000000000   0.000000000000  1.00000000000000
kpoint-folding 4 3 1 
latt-move-scale 0 0 0
latt-scale 1 1 1 
lattice  \
	  14.798317000000001   -7.399158000000000    0.000000000000000  \
	   0.000000000000000   16.545020999999998    0.000000000000000  \
	   0.000000000000000    0.000000000000000   49.635063000000002 
lattice-minimize  \
	dirUpdateScheme      L-BFGS \
	linminMethod         DirUpdateRecommended \
	nIterations          0 \
	history              15 \
	knormThreshold       0 \
	energyDiffThreshold  1e-06 \
	nEnergyDiff          2 \
	alphaTstart          1 \
	alphaTmin            1e-10 \
	updateTestStepSize   yes \
	alphaTreduceFactor   0.1 \
	alphaTincreaseFactor 3 \
	nAlphaAdjustMax      3 \
	wolfeEnergy          0.0001 \
	wolfeGradient        0.9 \
	fdTest               no
lcao-params 30 1e-06 0.001
pcm-variant CANDLE
spintype z-spin
subspace-rotation-factor 1 yes
symmetries automatic
symmetry-threshold 0.0001
van-der-waals D3



---------- Setting up symmetries ----------

Found 8 point-group symmetries of the bravais lattice
Found 1 space-group symmetries with basis
Applied RMS atom displacement 0 bohrs to make symmetries exact.

---------- Initializing the Grid ----------
R = 
[      14.7983     -7.39916            0  ]
[            0       16.545            0  ]
[            0            0      49.6351  ]
unit cell volume = 12152.6
G =
[   0.424588   0.189881         -0  ]
[          0   0.379763          0  ]
[          0         -0   0.126588  ]
Minimum fftbox size, Smin = [  60  76  200  ]
Chosen fftbox size, S = [  60  80  200  ]

---------- Exchange Correlation functional ----------
Initalized PBE GGA exchange.
Initalized PBE GGA correlation.

---------- Setting up pseudopotentials ----------
Width of ionic core gaussian charges (only for fluid interactions / plotting) set to 0.397384

Reading pseudopotential file '/projects/musgravc/apps/jdftx-1.6.0/build/pseudopotentials/GBRV_v1.5/pt_pbe_v1.4.uspp':
  Title: Pt.  Created by USPP 7.3.6 on 31-3-15
  Reference state energy: -105.002503.  16 valence electrons in orbitals:
    |510>  occupation: 6  eigenvalue: -2.158104
    |520>  occupation: 9.5  eigenvalue: -0.335376
    |600>  occupation: 0  eigenvalue: -0.319640
    |610>  occupation: 0  eigenvalue: -0.122947
  lMax: 2  lLocal: 3  QijEcut: 5.5
  6 projectors sampled on a log grid with 745 points:
    l: 0  eig: -0.319640  rCut: 2.45
    l: 0  eig: 1.500000  rCut: 2.45
    l: 1  eig: -2.158104  rCut: 1.6
    l: 1  eig: -0.122947  rCut: 1.6
    l: 2  eig: -0.500000  rCut: 1.6
    l: 2  eig: -0.335375  rCut: 1.6
  Partial core density with radius 1.1
  Transforming core density to a uniform radial grid of dG=0.02 with 1383 points.
  Transforming local potential to a uniform radial grid of dG=0.02 with 1383 points.
  Transforming nonlocal projectors to a uniform radial grid of dG=0.02 with 432 points.
  Transforming density augmentations to a uniform radial grid of dG=0.02 with 1383 points.
  Transforming atomic orbitals to a uniform radial grid of dG=0.02 with 432 points.
  Core radius for overlap checks: 2.45 bohrs.

Reading pseudopotential file '/projects/musgravc/apps/jdftx-1.6.0/build/pseudopotentials/GBRV_v1.5/c_pbe_v1.2.uspp':
  Title: C.  Created by USPP 7.3.6 on 3-2-2014
  Reference state energy: -5.406344.  4 valence electrons in orbitals:
    |200>  occupation: 2  eigenvalue: -0.504890
    |210>  occupation: 2  eigenvalue: -0.194356
  lMax: 1  lLocal: 2  QijEcut: 5
  4 projectors sampled on a log grid with 503 points:
    l: 0  eig: -0.504890  rCut: 1.3
    l: 0  eig: 0.000000  rCut: 1.3
    l: 1  eig: -0.194357  rCut: 1.3
    l: 1  eig: 0.000000  rCut: 1.3
  Partial core density with radius 1.1
  Transforming core density to a uniform radial grid of dG=0.02 with 1383 points.
  Transforming local potential to a uniform radial grid of dG=0.02 with 1383 points.
  Transforming nonlocal projectors to a uniform radial grid of dG=0.02 with 432 points.
  Transforming density augmentations to a uniform radial grid of dG=0.02 with 1383 points.
  Transforming atomic orbitals to a uniform radial grid of dG=0.02 with 432 points.
  Core radius for overlap checks: 1.30 bohrs.

Reading pseudopotential file '/projects/musgravc/apps/jdftx-1.6.0/build/pseudopotentials/GBRV_v1.5/o_pbe_v1.2.uspp':
  Title: O.  Created by USPP 7.3.6 on 3-2-2014
  Reference state energy: -15.894388.  6 valence electrons in orbitals:
    |200>  occupation: 2  eigenvalue: -0.878823
    |210>  occupation: 4  eigenvalue: -0.332131
  lMax: 2  lLocal: 2  QijEcut: 6
  5 projectors sampled on a log grid with 511 points:
    l: 0  eig: -0.878823  rCut: 1.25
    l: 0  eig: 0.000000  rCut: 1.25
    l: 1  eig: -0.332132  rCut: 1.25
    l: 1  eig: 0.000000  rCut: 1.25
    l: 2  eig: 1.000000  rCut: 1.25
  Partial core density with radius 0.7
  Transforming core density to a uniform radial grid of dG=0.02 with 1383 points.
  Transforming local potential to a uniform radial grid of dG=0.02 with 1383 points.
  Transforming nonlocal projectors to a uniform radial grid of dG=0.02 with 432 points.
  Transforming density augmentations to a uniform radial grid of dG=0.02 with 1383 points.
  Transforming atomic orbitals to a uniform radial grid of dG=0.02 with 432 points.
  Core radius for overlap checks: 1.25 bohrs.

Initialized 3 species with 42 total atoms.

Folded 1 k-points by 4x3x1 to 12 k-points.

---------- Setting up k-points, bands, fillings ----------
Adding inversion symmetry to k-mesh for non-inversion-symmetric unit cell.
Reduced to 7 k-points under symmetry. 
Computing the number of bands and number of electrons
Calculating initial fillings.
nElectrons: 650.000000   nBands: 390   nStates: 14

----- Setting up reduced wavefunction bases (one per k-point) -----
average nbasis = 51909.083 , ideal nbasis = 51916.717

----- Initializing Supercell corresponding to k-point mesh -----
Lattice vector linear combinations in supercell:
[   4   0   0  ]
[   0   3   0  ]
[   0   0   1  ]
Supercell lattice vectors:
[  59.1933  -22.1975  0  ]
[  0  49.6351  0  ]
[  0  0  49.6351  ]

Initializing DFT-D3 calculator:
	Parameters set for gga-PBE functional
	s6:  1.000  s_r6:  1.217
	s8:  0.722  s_r8:  1.000
	Per-atom parameters loaded for:
	Pt:  sqrtQ[a0]:  5.888  Rcov[a0]:  2.116  CN: [ 0.00 1.92 6.67 ]
	 C:  sqrtQ[a0]:  3.105  Rcov[a0]:  1.417  CN: [ 0.00 0.99 2.00 3.00 3.98 ]
	 O:  sqrtQ[a0]:  2.594  Rcov[a0]:  1.191  CN: [ 0.00 0.99 1.99 ]

Initializing DFT-D2 calculator for fluid / solvation:
	Pt:  C6:  815.23 Eh-a0^6  R0: 3.326 a0 (WARNING: beyond Grimme's data set)
	 C:  C6:   30.35 Eh-a0^6  R0: 2.744 a0
	 O:  C6:   12.14 Eh-a0^6  R0: 2.536 a0

---------- Setting up ewald sum ----------
Optimum gaussian width for ewald sums = 4.919541 bohr.
Real space sum over 495 unit cells with max indices [  5  4  2  ]
Reciprocal space sum over 6825 terms with max indices [  6  7  17  ]

Computing DFT-D3 correction:
# coordination-number Pt 8.553 8.554 8.552 8.596 9.301 9.301 9.301 9.301 9.357 9.357 9.357 9.357 7.000 7.000 7.000 7.000 5.368 5.346 6.422 5.345 9.362 9.360 9.361 9.361 9.299 9.299 9.299 9.299 8.550 8.550 8.550 8.550 5.347 5.347 5.347 5.347 7.008 7.008 7.045 7.045
# coordination-number C 2.153
# coordination-number O 1.088
# diagonal-C6 Pt 336.87 336.87 336.87 336.87 336.87 336.87 336.87 336.87 336.87 336.87 336.87 336.87 336.87 336.87 336.87 336.87 336.87 336.87 336.87 336.87 336.87 336.87 336.87 336.87 336.87 336.87 336.87 336.87 336.87 336.87 336.87 336.87 336.87 336.87 336.87 336.87 336.87 336.87 336.87 336.87
# diagonal-C6 C 29.20
# diagonal-C6 O 12.74
EvdW_6 =   -0.304598
EvdW_8 =   -0.518939

---------- Allocating electronic variables ----------
Initializing wave functions:  linear combination of atomic orbitals
Pt pseudo-atom occupations:   s ( 0 )  p ( 6 0 )  d ( 10 )
C pseudo-atom occupations:   s ( 2 )  p ( 2 )
O pseudo-atom occupations:   s ( 2 )  p ( 4 )
	FillingsUpdate:  mu: -0.914415121  nElectrons: 650.000000  magneticMoment: [ Abs: 0.00560  Tot: -0.00009 ]
LCAOMinimize: Iter:   0  F: -3557.6120026178582521  |grad|_K:  1.620e-02  alpha:  1.000e+00
LCAOMinimize: 	Step increased F by 2.092647e+02, reducing alpha to 2.321766e-02.
	FillingsUpdate:  mu: -0.329679320  nElectrons: 650.000000  magneticMoment: [ Abs: 0.00455  Tot: -0.00012 ]
LCAOMinimize: Iter:   1  F: -3572.0650935534449673  |grad|_K:  7.627e-03  alpha:  2.322e-02  linmin: -1.227e-01  cgtest:  5.482e-01  t[s]:    202.15
LCAOMinimize: Encountered beta<0, resetting CG.
	FillingsUpdate:  mu: -0.142490562  nElectrons: 650.000000  magneticMoment: [ Abs: 0.00416  Tot: -0.00004 ]
LCAOMinimize: Iter:   2  F: -3574.1545389253437861  |grad|_K:  6.795e-03  alpha:  2.106e-02  linmin:  1.429e-02  cgtest: -3.924e-02  t[s]:    261.85
	FillingsUpdate:  mu: +0.181326603  nElectrons: 650.000000  magneticMoment: [ Abs: 0.00366  Tot: -0.00002 ]
LCAOMinimize: Iter:   3  F: -3576.1679822488808895  |grad|_K:  4.734e-03  alpha:  2.819e-02  linmin: -2.505e-03  cgtest:  3.352e-01  t[s]:    321.41
	FillingsUpdate:  mu: +0.091285539  nElectrons: 650.000000  magneticMoment: [ Abs: 0.00345  Tot: -0.00003 ]
LCAOMinimize: Iter:   4  F: -3577.6385233981359306  |grad|_K:  4.653e-03  alpha:  3.889e-02  linmin: -1.613e-03  cgtest: -6.034e-02  t[s]:    381.01
	FillingsUpdate:  mu: -0.003158699  nElectrons: 650.000000  magneticMoment: [ Abs: 0.00331  Tot: -0.00012 ]
LCAOMinimize: Iter:   5  F: -3578.1696161724235026  |grad|_K:  2.388e-03  alpha:  1.705e-02  linmin:  1.902e-02  cgtest: -1.907e-01  t[s]:    440.69
LCAOMinimize: 	Predicted alpha/alphaT>3.000000, increasing alphaT to 5.115413e-02.
	FillingsUpdate:  mu: +0.183951206  nElectrons: 650.000000  magneticMoment: [ Abs: 0.00294  Tot: -0.00004 ]
LCAOMinimize: Iter:   6  F: -3578.9189843515646317  |grad|_K:  2.107e-03  alpha:  8.338e-02  linmin: -1.296e-02  cgtest:  4.225e-01  t[s]:    516.15
	FillingsUpdate:  mu: +0.140670888  nElectrons: 650.000000  magneticMoment: [ Abs: 0.00291  Tot: -0.00003 ]
LCAOMinimize: Iter:   7  F: -3579.0217104007165290  |grad|_K:  8.860e-04  alpha:  1.312e-02  linmin:  2.329e-03  cgtest: -1.961e-01  t[s]:    576.00
LCAOMinimize: 	Predicted alpha/alphaT>3.000000, increasing alphaT to 3.936090e-02.
LCAOMinimize: 	Predicted alpha/alphaT>3.000000, increasing alphaT to 1.180827e-01.
	FillingsUpdate:  mu: +0.127410405  nElectrons: 650.000000  magneticMoment: [ Abs: 0.00262  Tot: -0.00008 ]
LCAOMinimize: Iter:   8  F: -3579.3298367750567195  |grad|_K:  8.445e-04  alpha:  2.288e-01  linmin: -6.736e-03  cgtest:  2.442e-01  t[s]:    667.53
	FillingsUpdate:  mu: +0.132713177  nElectrons: 650.000000  magneticMoment: [ Abs: 0.00259  Tot: -0.00008 ]
LCAOMinimize: Iter:   9  F: -3579.3619312462187736  |grad|_K:  7.217e-04  alpha:  2.192e-02  linmin: -1.855e-02  cgtest:  1.635e-01  t[s]:    727.18
	FillingsUpdate:  mu: +0.154530318  nElectrons: 650.000000  magneticMoment: [ Abs: 0.00255  Tot: -0.00010 ]
LCAOMinimize: Iter:  10  F: -3579.3994223413410509  |grad|_K:  6.220e-04  alpha:  3.843e-02  linmin:  3.741e-03  cgtest: -2.973e-01  t[s]:    786.96
	FillingsUpdate:  mu: +0.163189204  nElectrons: 650.000000  magneticMoment: [ Abs: 0.00251  Tot: -0.00010 ]
LCAOMinimize: Iter:  11  F: -3579.4237584024203898  |grad|_K:  5.933e-04  alpha:  3.961e-02  linmin:  1.330e-03  cgtest:  3.281e-01  t[s]:    846.64
	FillingsUpdate:  mu: +0.139561711  nElectrons: 650.000000  magneticMoment: [ Abs: 0.00249  Tot: -0.00010 ]
LCAOMinimize: Iter:  12  F: -3579.4438307853993138  |grad|_K:  3.173e-04  alpha:  3.457e-02  linmin: -4.779e-04  cgtest: -2.137e-02  t[s]:    906.42
	FillingsUpdate:  mu: +0.133886719  nElectrons: 650.000000  magneticMoment: [ Abs: 0.00248  Tot: -0.00009 ]
LCAOMinimize: Iter:  13  F: -3579.4474428087555680  |grad|_K:  2.618e-04  alpha:  2.144e-02  linmin:  8.804e-05  cgtest: -6.739e-03  t[s]:    966.04
	FillingsUpdate:  mu: +0.129779418  nElectrons: 650.000000  magneticMoment: [ Abs: 0.00247  Tot: -0.00010 ]
LCAOMinimize: Iter:  14  F: -3579.4538804922622148  |grad|_K:  1.914e-04  alpha:  5.628e-02  linmin:  4.664e-04  cgtest: -1.686e-02  t[s]:   1025.73
	FillingsUpdate:  mu: +0.133511524  nElectrons: 650.000000  magneticMoment: [ Abs: 0.00246  Tot: -0.00011 ]
LCAOMinimize: Iter:  15  F: -3579.4564515791498707  |grad|_K:  1.917e-04  alpha:  4.206e-02  linmin:  3.799e-05  cgtest:  4.205e-03  t[s]:   1085.38
	FillingsUpdate:  mu: +0.134002468  nElectrons: 650.000000  magneticMoment: [ Abs: 0.00246  Tot: -0.00011 ]
LCAOMinimize: Iter:  16  F: -3579.4578918832262389  |grad|_K:  1.343e-04  alpha:  2.331e-02  linmin: -2.175e-04  cgtest: -2.632e-03  t[s]:   1145.02
	FillingsUpdate:  mu: +0.129551715  nElectrons: 650.000000  magneticMoment: [ Abs: 0.00246  Tot: -0.00011 ]
LCAOMinimize: Iter:  17  F: -3579.4591976292826985  |grad|_K:  7.306e-05  alpha:  4.308e-02  linmin: -6.952e-04  cgtest:  1.239e-02  t[s]:   1204.57
	FillingsUpdate:  mu: +0.128434148  nElectrons: 650.000000  magneticMoment: [ Abs: 0.00246  Tot: -0.00012 ]
LCAOMinimize: Iter:  18  F: -3579.4595086598374110  |grad|_K:  7.627e-05  alpha:  3.465e-02  linmin:  3.081e-05  cgtest: -2.933e-03  t[s]:   1264.18
	FillingsUpdate:  mu: +0.128016655  nElectrons: 650.000000  magneticMoment: [ Abs: 0.00246  Tot: -0.00012 ]
LCAOMinimize: Iter:  19  F: -3579.4597535554235037  |grad|_K:  4.285e-05  alpha:  2.516e-02  linmin:  8.264e-06  cgtest:  8.765e-03  t[s]:   1323.97
	FillingsUpdate:  mu: +0.129735205  nElectrons: 650.000000  magneticMoment: [ Abs: 0.00246  Tot: -0.00012 ]
LCAOMinimize: Iter:  20  F: -3579.4599008513864646  |grad|_K:  3.087e-05  alpha:  4.798e-02  linmin:  3.130e-04  cgtest:  2.571e-07  t[s]:   1383.57
	FillingsUpdate:  mu: +0.129914020  nElectrons: 650.000000  magneticMoment: [ Abs: 0.00246  Tot: -0.00012 ]
LCAOMinimize: Iter:  21  F: -3579.4599491009626036  |grad|_K:  3.155e-05  alpha:  3.030e-02  linmin: -7.529e-06  cgtest:  4.613e-03  t[s]:   1443.80
	FillingsUpdate:  mu: +0.129659974  nElectrons: 650.000000  magneticMoment: [ Abs: 0.00246  Tot: -0.00012 ]
LCAOMinimize: Iter:  22  F: -3579.4600002823949580  |grad|_K:  1.874e-05  alpha:  3.071e-02  linmin:  3.707e-05  cgtest: -5.845e-03  t[s]:   1503.63
	FillingsUpdate:  mu: +0.129313537  nElectrons: 650.000000  magneticMoment: [ Abs: 0.00247  Tot: -0.00013 ]
LCAOMinimize: Iter:  23  F: -3579.4600381331456447  |grad|_K:  1.901e-05  alpha:  6.438e-02  linmin:  9.803e-07  cgtest:  2.580e-04  t[s]:   1563.33
	FillingsUpdate:  mu: +0.129459471  nElectrons: 650.000000  magneticMoment: [ Abs: 0.00247  Tot: -0.00013 ]
LCAOMinimize: Iter:  24  F: -3579.4600516593413886  |grad|_K:  1.494e-05  alpha:  2.234e-02  linmin: -5.413e-05  cgtest:  6.064e-04  t[s]:   1622.95
	FillingsUpdate:  mu: +0.129905648  nElectrons: 650.000000  magneticMoment: [ Abs: 0.00247  Tot: -0.00013 ]
LCAOMinimize: Iter:  25  F: -3579.4600678371471076  |grad|_K:  1.205e-05  alpha:  4.327e-02  linmin:  2.956e-05  cgtest: -1.939e-03  t[s]:   1682.59
	FillingsUpdate:  mu: +0.129763754  nElectrons: 650.000000  magneticMoment: [ Abs: 0.00248  Tot: -0.00014 ]
LCAOMinimize: Iter:  26  F: -3579.4600826942764797  |grad|_K:  1.183e-05  alpha:  6.114e-02  linmin:  1.113e-05  cgtest:  1.332e-03  t[s]:   1742.22
	FillingsUpdate:  mu: +0.129610044  nElectrons: 650.000000  magneticMoment: [ Abs: 0.00248  Tot: -0.00014 ]
LCAOMinimize: Iter:  27  F: -3579.4600864355370504  |grad|_K:  5.249e-06  alpha:  1.597e-02  linmin: -2.688e-05  cgtest:  6.686e-04  t[s]:   1801.87
LCAOMinimize: 	Predicted alpha/alphaT>3.000000, increasing alphaT to 4.791646e-02.
	FillingsUpdate:  mu: +0.129421841  nElectrons: 650.000000  magneticMoment: [ Abs: 0.00248  Tot: -0.00014 ]
LCAOMinimize: Iter:  28  F: -3579.4600886632779293  |grad|_K:  4.451e-06  alpha:  4.830e-02  linmin:  1.143e-05  cgtest: -6.360e-04  t[s]:   1877.20
	FillingsUpdate:  mu: +0.129496230  nElectrons: 650.000000  magneticMoment: [ Abs: 0.00248  Tot: -0.00014 ]
LCAOMinimize: Iter:  29  F: -3579.4600902222045988  |grad|_K:  5.220e-06  alpha:  4.701e-02  linmin:  4.987e-06  cgtest:  3.048e-04  t[s]:   1936.83
	FillingsUpdate:  mu: +0.129610245  nElectrons: 650.000000  magneticMoment: [ Abs: 0.00248  Tot: -0.00014 ]
LCAOMinimize: Iter:  30  F: -3579.4600912186620008  |grad|_K:  2.859e-06  alpha:  2.185e-02  linmin: -1.750e-05  cgtest:  4.003e-04  t[s]:   1996.32
LCAOMinimize: None of the convergence criteria satisfied after 30 iterations.
----- createFluidSolver() ----- (Fluid-side solver setup)
   Initializing fluid molecule 'H2O'
     Initializing site 'O'
       Electron density: proportional to exp(-r/0.36935)*erfc((r-0.51523)/0.36823) with norm 6.826
       Charge density: gaussian nuclear width 0.478731 with net site charge 0.826
       Polarizability: cuspless exponential with width 0.32 and norm 3.73
       Hard sphere radius: 2.57003 bohrs
       Positions in reference frame:
         [ +0.000000 +0.000000 +0.000000 ]
     Initializing site 'H'
       Electron density: proportional to exp(-r/0.34641)*erfc((r-0)/0.390882) with norm 0.587
       Charge density: gaussian nuclear width 0.377945 with net site charge -0.413
       Polarizability: cuspless exponential with width 0.39 and norm 3.3
       Positions in reference frame:
         [ +0.000000 -1.441945 +1.122523 ]
         [ +0.000000 +1.441945 +1.122523 ]
     Net charge: 0   dipole magnitude: 0.927204
     Initializing spherical shell mfKernel with radius 2.61727 Bohr
     deltaS corrections:
       site 'O': -7.54299
       site 'H': -6.83917
   Initializing fluid molecule 'Na+'
     Initializing site 'Na'
       Electron density: proportional to exp(-r/0.19682)*erfc((r-0.71491)/0.41314) with norm 8.1383
       Charge density: gaussian nuclear width 0.365347 with net site charge -1
       Hard sphere radius: 1.86327 bohrs
       Positions in reference frame:
         [ +0.000000 +0.000000 +0.000000 ]
     Net charge: -1   dipole magnitude: 0
     Initializing gaussian mfKernel with width: 1.55004 Bohr
     deltaS corrections:
       site 'Na': -22.3555
   Initializing fluid molecule 'F-'
     Initializing site 'F'
       Electron density: proportional to exp(-r/0.38886)*erfc((r-0)/0.438782) with norm 8
       Charge density: gaussian nuclear width 0.374796 with net site charge 1
       Hard sphere radius: 2.39995 bohrs
       Positions in reference frame:
         [ +0.000000 +0.000000 +0.000000 ]
     Net charge: 1   dipole magnitude: 0
     Initializing gaussian mfKernel with width: 1.59012 Bohr
     deltaS corrections:
       site 'F': -9.04335

Correction to mu due to finite nuclear width = -0.0530695
   Cavity determined by nc: 0.00142 and sigma: 0.707107
   Nonlocal vdW cavity from gaussian model electron density with norm = 8 and sigma = 0.993594 bohr
   Charge asymmetry in cavity with sensitivity pCavity = 36.5 e-bohr/Eh
   Electrostatic cavity expanded by eta = 1.46 bohrs
   Weighted density cavitation model constrained by Nbulk: 0.0049383 bohr^-3, Pvap: 3.14029 kPa, Rvdw: 2.61727 bohr and sigmaBulk: 4.62e-05 Eh/bohr^2 at T: 298 K.
   Weighted density dispersion model using vdW pair potentials with single solvent site with sqrtC6eff: 0.77 SI.


---- Citations for features of the code used in this run ----

   Software package:
      R. Sundararaman, K. Letchworth-Weaver, K.A. Schwarz, D. Gunceler, Y. Ozhabes and T.A. Arias, 'JDFTx: software for joint density-functional theory', SoftwareX 6, 278 (2017)

   gga-PBE exchange-correlation functional:
      J.P. Perdew, K. Burke and M. Ernzerhof, Phys. Rev. Lett. 77, 3865 (1996)

   Pseudopotentials:
      KF Garrity, JW Bennett, KM Rabe and D Vanderbilt, Comput. Mater. Sci. 81, 446 (2014)

   DFT-D3 dispersion correction:
      S. Grimme, J. Antony, S. Ehrlich and H. Krieg, J. Chem. Phys. 132, 154104 (2010)

   DFT-D2 dispersion correction:
      S. Grimme, J. Comput. Chem. 27, 1787 (2006)

   Charge-asymmetric nonlocally-determined local-electric (CANDLE) solvation model:
      R. Sundararaman and W.A. Goddard III, J. Chem. Phys. 142, 064107 (2015)

   Total energy minimization with Auxiliary Hamiltonian:
      C. Freysoldt, S. Boeck, and J. Neugebauer, Phys. Rev. B 79, 241103(R) (2009)

   Linear-tetrahedron sampling for density of states:
      G. Lehmann and M. Taut, Phys. status solidi (b) 54, 469 (1972)

This list may not be complete. Please suggest additional citations or
report any other bugs at https://github.com/shankar1729/jdftx/issues

Initialization completed successfully at t[s]:   2015.75


Computing DFT-D3 correction:
# coordination-number Pt 8.553 8.554 8.552 8.596 9.301 9.301 9.301 9.301 9.357 9.357 9.357 9.357 7.000 7.000 7.000 7.000 5.368 5.346 6.422 5.345 9.362 9.360 9.361 9.361 9.299 9.299 9.299 9.299 8.550 8.550 8.550 8.550 5.347 5.347 5.347 5.347 7.008 7.008 7.045 7.045
# coordination-number C 2.153
# coordination-number O 1.088
# diagonal-C6 Pt 336.87 336.87 336.87 336.87 336.87 336.87 336.87 336.87 336.87 336.87 336.87 336.87 336.87 336.87 336.87 336.87 336.87 336.87 336.87 336.87 336.87 336.87 336.87 336.87 336.87 336.87 336.87 336.87 336.87 336.87 336.87 336.87 336.87 336.87 336.87 336.87 336.87 336.87 336.87 336.87
# diagonal-C6 C 29.20
# diagonal-C6 O 12.74
EvdW_6 =   -0.304598
EvdW_8 =   -0.518939
Fluid solver invoked on fresh (random / LCAO) wavefunctions
Running a vacuum solve first:

-------- Initial electronic minimization -----------
	FillingsUpdate:  mu: +0.129610248  nElectrons: 650.000000  magneticMoment: [ Abs: 0.00248  Tot: -0.00014 ]
ElecMinimize: Iter:   0  F: -3579.460091218662910  |grad|_K:  6.970e-05  alpha:  1.000e+00
	FillingsUpdate:  mu: +0.164299974  nElectrons: 650.000000  magneticMoment: [ Abs: 0.00190  Tot: -0.00015 ]
	SubspaceRotationAdjust: set factor to 0.999
ElecMinimize: Iter:   1  F: -3580.054264495399821  |grad|_K:  3.714e-05  alpha:  4.349e-01  linmin:  4.441e-05  t[s]:   2173.75
	FillingsUpdate:  mu: +0.170478186  nElectrons: 650.000000  magneticMoment: [ Abs: 0.00171  Tot: -0.00013 ]
	SubspaceRotationAdjust: set factor to 0.535
ElecMinimize: Iter:   2  F: -3580.107313992277795  |grad|_K:  9.848e-05  alpha:  1.431e-01  linmin:  8.697e-05  t[s]:   2276.24
	FillingsUpdate:  mu: +0.128844034  nElectrons: 650.000000  magneticMoment: [ Abs: 0.00147  Tot: -0.00010 ]
	SubspaceRotationAdjust: set factor to 0.338
ElecMinimize: Iter:   3  F: -3580.171222129926718  |grad|_K:  4.202e-05  alpha:  2.541e-02  linmin:  1.551e-04  t[s]:   2378.79
	FillingsUpdate:  mu: +0.145021162  nElectrons: 650.000000  magneticMoment: [ Abs: 0.00129  Tot: -0.00010 ]
	SubspaceRotationAdjust: set factor to 0.356
ElecMinimize: Iter:   4  F: -3580.205707242297649  |grad|_K:  1.900e-05  alpha:  7.224e-02  linmin:  1.335e-05  t[s]:   2481.57
	FillingsUpdate:  mu: +0.156802861  nElectrons: 650.000000  magneticMoment: [ Abs: 0.00118  Tot: -0.00010 ]
	SubspaceRotationAdjust: set factor to 0.232
ElecMinimize: Iter:   5  F: -3580.216553111956728  |grad|_K:  2.673e-05  alpha:  1.064e-01  linmin:  1.814e-05  t[s]:   2584.10
	FillingsUpdate:  mu: +0.154451194  nElectrons: 650.000000  magneticMoment: [ Abs: 0.00095  Tot: -0.00009 ]
	SubspaceRotationAdjust: set factor to 0.25
ElecMinimize: Iter:   6  F: -3580.235255224901721  |grad|_K:  1.132e-05  alpha:  9.259e-02  linmin: -2.740e-06  t[s]:   2686.72
	FillingsUpdate:  mu: +0.143506796  nElectrons: 650.000000  magneticMoment: [ Abs: 0.00083  Tot: -0.00009 ]
	SubspaceRotationAdjust: set factor to 0.219
ElecMinimize: Iter:   7  F: -3580.241259171154525  |grad|_K:  9.793e-06  alpha:  1.643e-01  linmin: -1.139e-05  t[s]:   2789.39
	FillingsUpdate:  mu: +0.142545130  nElectrons: 650.000000  magneticMoment: [ Abs: 0.00076  Tot: -0.00009 ]
	SubspaceRotationAdjust: set factor to 0.17
ElecMinimize: Iter:   8  F: -3580.244000887686980  |grad|_K:  9.355e-06  alpha:  1.004e-01  linmin:  1.419e-06  t[s]:   2891.86
	FillingsUpdate:  mu: +0.146178768  nElectrons: 650.000000  magneticMoment: [ Abs: 0.00064  Tot: -0.00008 ]
	SubspaceRotationAdjust: set factor to 0.265
ElecMinimize: Iter:   9  F: -3580.247683590499037  |grad|_K:  4.717e-06  alpha:  1.480e-01  linmin:  4.562e-07  t[s]:   2994.90
	FillingsUpdate:  mu: +0.148926120  nElectrons: 650.000000  magneticMoment: [ Abs: 0.00057  Tot: -0.00008 ]
	SubspaceRotationAdjust: set factor to 0.172
ElecMinimize: Iter:  10  F: -3580.248966994580769  |grad|_K:  6.625e-06  alpha:  2.028e-01  linmin:  5.735e-06  t[s]:   3097.40
	FillingsUpdate:  mu: +0.149049604  nElectrons: 650.000000  magneticMoment: [ Abs: 0.00051  Tot: -0.00008 ]
	SubspaceRotationAdjust: set factor to 0.141
ElecMinimize: Iter:  11  F: -3580.249976550505835  |grad|_K:  3.397e-06  alpha:  8.088e-02  linmin: -3.002e-06  t[s]:   3199.90
	FillingsUpdate:  mu: +0.145912321  nElectrons: 650.000000  magneticMoment: [ Abs: 0.00046  Tot: -0.00007 ]
	SubspaceRotationAdjust: set factor to 0.155
ElecMinimize: Iter:  12  F: -3580.250725203296497  |grad|_K:  2.456e-06  alpha:  2.281e-01  linmin:  6.037e-06  t[s]:   3302.30
	FillingsUpdate:  mu: +0.146131221  nElectrons: 650.000000  magneticMoment: [ Abs: 0.00042  Tot: -0.00007 ]
	SubspaceRotationAdjust: set factor to 0.12
	SubspaceRotationAdjust: resetting CG because factor has changed by 0.119851
ElecMinimize: 	State modified externally: resetting search direction.
ElecMinimize: Iter:  13  F: -3580.251059783347500  |grad|_K:  2.456e-06  alpha:  1.950e-01
	FillingsUpdate:  mu: +0.146992774  nElectrons: 650.000000  magneticMoment: [ Abs: 0.00041  Tot: -0.00007 ]
	SubspaceRotationAdjust: set factor to 0.112
ElecMinimize: Iter:  14  F: -3580.251269593222332  |grad|_K:  1.517e-06  alpha:  1.222e-01  linmin: -5.159e-06  t[s]:   3556.35
	FillingsUpdate:  mu: +0.148298996  nElectrons: 650.000000  magneticMoment: [ Abs: 0.00039  Tot: -0.00007 ]
	SubspaceRotationAdjust: set factor to 0.0987
ElecMinimize: Iter:  15  F: -3580.251448422290196  |grad|_K:  1.119e-06  alpha:  2.733e-01  linmin:  8.711e-06  t[s]:   3658.86
	FillingsUpdate:  mu: +0.147003031  nElectrons: 650.000000  magneticMoment: [ Abs: 0.00035  Tot: -0.00007 ]
	SubspaceRotationAdjust: set factor to 0.101
ElecMinimize: Iter:  16  F: -3580.251654100814449  |grad|_K:  9.218e-07  alpha:  5.783e-01  linmin:  3.495e-05  t[s]:   3761.27
	FillingsUpdate:  mu: +0.147819289  nElectrons: 650.000000  magneticMoment: [ Abs: 0.00031  Tot: -0.00006 ]
	SubspaceRotationAdjust: set factor to 0.112
ElecMinimize: Iter:  17  F: -3580.251799053190553  |grad|_K:  7.976e-07  alpha:  6.006e-01  linmin:  4.459e-06  t[s]:   3863.85
	FillingsUpdate:  mu: +0.147791101  nElectrons: 650.000000  magneticMoment: [ Abs: 0.00029  Tot: -0.00006 ]
	SubspaceRotationAdjust: set factor to 0.0772
ElecMinimize: Iter:  18  F: -3580.251874918760222  |grad|_K:  1.003e-06  alpha:  4.190e-01  linmin:  1.374e-06  t[s]:   3966.20
	FillingsUpdate:  mu: +0.147692071  nElectrons: 650.000000  magneticMoment: [ Abs: 0.00026  Tot: -0.00006 ]
	SubspaceRotationAdjust: set factor to 0.0548
ElecMinimize: Iter:  19  F: -3580.251927199331021  |grad|_K:  6.219e-07  alpha:  1.826e-01  linmin: -6.319e-06  t[s]:   4068.72
	FillingsUpdate:  mu: +0.147871717  nElectrons: 650.000000  magneticMoment: [ Abs: 0.00023  Tot: -0.00005 ]
	SubspaceRotationAdjust: set factor to 0.072
ElecMinimize: Iter:  20  F: -3580.251982398740893  |grad|_K:  4.938e-07  alpha:  5.018e-01  linmin:  1.651e-05  t[s]:   4171.23
	FillingsUpdate:  mu: +0.148013982  nElectrons: 650.000000  magneticMoment: [ Abs: 0.00021  Tot: -0.00005 ]
	SubspaceRotationAdjust: set factor to 0.0613
ElecMinimize: Iter:  21  F: -3580.252010950178374  |grad|_K:  4.891e-07  alpha:  4.123e-01  linmin:  1.854e-06  t[s]:   4273.67
	FillingsUpdate:  mu: +0.148065675  nElectrons: 650.000000  magneticMoment: [ Abs: 0.00020  Tot: -0.00005 ]
	SubspaceRotationAdjust: set factor to 0.0483
ElecMinimize: Iter:  22  F: -3580.252031280260326  |grad|_K:  3.658e-07  alpha:  2.987e-01  linmin:  1.767e-07  t[s]:   4376.20
	FillingsUpdate:  mu: +0.147983042  nElectrons: 650.000000  magneticMoment: [ Abs: 0.00017  Tot: -0.00005 ]
	SubspaceRotationAdjust: set factor to 0.0585
ElecMinimize: Iter:  23  F: -3580.252054164908714  |grad|_K:  2.802e-07  alpha:  6.009e-01  linmin: -4.866e-06  t[s]:   4478.78
	FillingsUpdate:  mu: +0.148014628  nElectrons: 650.000000  magneticMoment: [ Abs: 0.00016  Tot: -0.00005 ]
	SubspaceRotationAdjust: set factor to 0.0538
ElecMinimize: Iter:  24  F: -3580.252066381101940  |grad|_K:  3.051e-07  alpha:  5.464e-01  linmin: -3.141e-06  t[s]:   4581.51
	FillingsUpdate:  mu: +0.148003477  nElectrons: 650.000000  magneticMoment: [ Abs: 0.00014  Tot: -0.00004 ]
	SubspaceRotationAdjust: set factor to 0.04
ElecMinimize: Iter:  25  F: -3580.252076601436784  |grad|_K:  2.432e-07  alpha:  3.858e-01  linmin: -1.163e-06  t[s]:   4684.02
	FillingsUpdate:  mu: +0.147936402  nElectrons: 650.000000  magneticMoment: [ Abs: 0.00013  Tot: -0.00004 ]
	SubspaceRotationAdjust: set factor to 0.0444
ElecMinimize: Iter:  26  F: -3580.252083468874389  |grad|_K:  1.432e-07  alpha:  4.081e-01  linmin: -3.255e-06  t[s]:   4786.84
	FillingsUpdate:  mu: +0.147981498  nElectrons: 650.000000  magneticMoment: [ Abs: 0.00012  Tot: -0.00004 ]
	SubspaceRotationAdjust: set factor to 0.047
ElecMinimize: Iter:  27  F: -3580.252086185004828  |grad|_K:  1.075e-07  alpha:  4.655e-01  linmin: -1.534e-06  t[s]:   4889.43
	FillingsUpdate:  mu: +0.148013400  nElectrons: 650.000000  magneticMoment: [ Abs: 0.00012  Tot: -0.00004 ]
	SubspaceRotationAdjust: set factor to 0.043
ElecMinimize: Iter:  28  F: -3580.252087639805268  |grad|_K:  9.163e-08  alpha:  4.425e-01  linmin:  1.027e-06  t[s]:   4991.80
	FillingsUpdate:  mu: +0.148021434  nElectrons: 650.000000  magneticMoment: [ Abs: 0.00011  Tot: -0.00004 ]
	SubspaceRotationAdjust: set factor to 0.0429
ElecMinimize: Iter:  29  F: -3580.252088848452786  |grad|_K:  7.758e-08  alpha:  5.062e-01  linmin:  1.324e-06  t[s]:   5094.35
	FillingsUpdate:  mu: +0.148040316  nElectrons: 650.000000  magneticMoment: [ Abs: 0.00010  Tot: -0.00004 ]
	SubspaceRotationAdjust: set factor to 0.049
ElecMinimize: Iter:  30  F: -3580.252089818077366  |grad|_K:  6.790e-08  alpha:  5.670e-01  linmin:  2.056e-06  t[s]:   5196.73
	FillingsUpdate:  mu: +0.148036292  nElectrons: 650.000000  magneticMoment: [ Abs: 0.00010  Tot: -0.00004 ]
	SubspaceRotationAdjust: set factor to 0.0531
ElecMinimize: Iter:  31  F: -3580.252090524527375  |grad|_K:  6.264e-08  alpha:  5.392e-01  linmin:  6.091e-08  t[s]:   5299.31
	FillingsUpdate:  mu: +0.148028395  nElectrons: 650.000000  magneticMoment: [ Abs: 0.00009  Tot: -0.00003 ]
	SubspaceRotationAdjust: set factor to 0.0515
ElecMinimize: Iter:  32  F: -3580.252091025708069  |grad|_K:  5.343e-08  alpha:  4.493e-01  linmin:  6.419e-07  t[s]:   5401.81
	FillingsUpdate:  mu: +0.148039802  nElectrons: 650.000000  magneticMoment: [ Abs: 0.00009  Tot: -0.00003 ]
	SubspaceRotationAdjust: set factor to 0.0491
ElecMinimize: Iter:  33  F: -3580.252091465181820  |grad|_K:  5.121e-08  alpha:  5.414e-01  linmin:  6.438e-08  t[s]:   5504.31
	FillingsUpdate:  mu: +0.148042097  nElectrons: 650.000000  magneticMoment: [ Abs: 0.00008  Tot: -0.00003 ]
	SubspaceRotationAdjust: set factor to 0.0497
ElecMinimize: Iter:  34  F: -3580.252091840056437  |grad|_K:  4.513e-08  alpha:  5.027e-01  linmin:  1.213e-06  t[s]:   5606.85
	FillingsUpdate:  mu: +0.148036083  nElectrons: 650.000000  magneticMoment: [ Abs: 0.00007  Tot: -0.00003 ]
	SubspaceRotationAdjust: set factor to 0.0538
ElecMinimize: Iter:  35  F: -3580.252092134096074  |grad|_K:  3.869e-08  alpha:  5.086e-01  linmin:  1.772e-06  t[s]:   5710.46
	FillingsUpdate:  mu: +0.148039106  nElectrons: 650.000000  magneticMoment: [ Abs: 0.00007  Tot: -0.00003 ]
	SubspaceRotationAdjust: set factor to 0.0537
ElecMinimize: Iter:  36  F: -3580.252092385882861  |grad|_K:  3.402e-08  alpha:  5.933e-01  linmin:  2.129e-06  t[s]:   5812.83
	FillingsUpdate:  mu: +0.148034434  nElectrons: 650.000000  magneticMoment: [ Abs: 0.00006  Tot: -0.00003 ]
	SubspaceRotationAdjust: set factor to 0.0437
ElecMinimize: Iter:  37  F: -3580.252092520152473  |grad|_K:  2.816e-08  alpha:  4.088e-01  linmin: -7.921e-07  t[s]:   5915.23
	FillingsUpdate:  mu: +0.148031211  nElectrons: 650.000000  magneticMoment: [ Abs: 0.00006  Tot: -0.00003 ]
	SubspaceRotationAdjust: set factor to 0.0393
ElecMinimize: Iter:  38  F: -3580.252092604352583  |grad|_K:  1.873e-08  alpha:  3.728e-01  linmin: -4.778e-06  t[s]:   6018.22
	FillingsUpdate:  mu: +0.148032944  nElectrons: 650.000000  magneticMoment: [ Abs: 0.00006  Tot: -0.00003 ]
	SubspaceRotationAdjust: set factor to 0.0461
ElecMinimize: Iter:  39  F: -3580.252092657480716  |grad|_K:  1.449e-08  alpha:  5.299e-01  linmin:  8.082e-06  t[s]:   6120.72
ElecMinimize: Converged (|Delta F|<1.000000e-07 for 2 iters).
Setting wave functions to eigenvectors of Hamiltonian
Converging empty states (this may take a while): |deigs|: 2.530e-03
Vacuum energy after initial minimize, F = -3580.252092657480716


-------- Electronic minimization -----------
	Linear fluid (dielectric constant: 78.4, screening length: 8.12261 Bohr) occupying 0.474827 of unit cell:	Completed after 26 iterations at t[s]:   6665.71
	FillingsUpdate:  mu: -0.193221641  nElectrons: 650.000000  magneticMoment: [ Abs: 0.00003  Tot: -0.00002 ]
ElecMinimize: Iter:   0  F: -3580.262138047612098  |grad|_K:  9.812e-07  alpha:  1.000e+00
	Linear fluid (dielectric constant: 78.4, screening length: 8.12261 Bohr) occupying 0.475552 of unit cell:	Completed after 17 iterations at t[s]:   6754.37
	Linear fluid (dielectric constant: 78.4, screening length: 8.12261 Bohr) occupying 0.475597 of unit cell:	Completed after 8 iterations at t[s]:   6784.87
	FillingsUpdate:  mu: -0.190805447  nElectrons: 650.000000  magneticMoment: [ Abs: 0.00003  Tot: -0.00002 ]
	SubspaceRotationAdjust: set factor to 0.0483
ElecMinimize: Iter:   1  F: -3580.262429136055289  |grad|_K:  9.865e-07  alpha:  1.063e+00  linmin: -5.721e-07  t[s]:   6824.52
	Linear fluid (dielectric constant: 78.4, screening length: 8.12261 Bohr) occupying 0.476677 of unit cell:	Completed after 17 iterations at t[s]:   6867.60
	Linear fluid (dielectric constant: 78.4, screening length: 8.12261 Bohr) occupying 0.476110 of unit cell:	Completed after 14 iterations at t[s]:   6899.56
	FillingsUpdate:  mu: -0.190856402  nElectrons: 650.000000  magneticMoment: [ Abs: 0.00003  Tot: -0.00002 ]
	SubspaceRotationAdjust: set factor to 0.0515
ElecMinimize: Iter:   2  F: -3580.262567723779739  |grad|_K:  6.448e-07  alpha:  5.010e-01  linmin:  2.802e-07  t[s]:   6939.28
	Linear fluid (dielectric constant: 78.4, screening length: 8.12261 Bohr) occupying 0.476358 of unit cell:	Completed after 11 iterations at t[s]:   6980.98
	Linear fluid (dielectric constant: 78.4, screening length: 8.12261 Bohr) occupying 0.476416 of unit cell:	Completed after 4 iterations at t[s]:   7010.43
	FillingsUpdate:  mu: -0.190678814  nElectrons: 650.000000  magneticMoment: [ Abs: 0.00003  Tot: -0.00002 ]
	SubspaceRotationAdjust: set factor to 0.0638
ElecMinimize: Iter:   3  F: -3580.262640751043818  |grad|_K:  5.374e-07  alpha:  6.178e-01  linmin: -7.574e-08  t[s]:   7050.38
	Linear fluid (dielectric constant: 78.4, screening length: 8.12261 Bohr) occupying 0.476613 of unit cell:	Completed after 11 iterations at t[s]:   7092.09
	Linear fluid (dielectric constant: 78.4, screening length: 8.12261 Bohr) occupying 0.476646 of unit cell:	Completed after 4 iterations at t[s]:   7121.67
	FillingsUpdate:  mu: -0.189995090  nElectrons: 650.000000  magneticMoment: [ Abs: 0.00002  Tot: -0.00001 ]
	SubspaceRotationAdjust: set factor to 0.0779
ElecMinimize: Iter:   4  F: -3580.262700161293196  |grad|_K:  5.172e-07  alpha:  7.220e-01  linmin: -6.123e-07  t[s]:   7161.51
	Linear fluid (dielectric constant: 78.4, screening length: 8.12261 Bohr) occupying 0.476832 of unit cell:	Completed after 11 iterations at t[s]:   7203.07
	Linear fluid (dielectric constant: 78.4, screening length: 8.12261 Bohr) occupying 0.476853 of unit cell:	Completed after 2 iterations at t[s]:   7232.14
	FillingsUpdate:  mu: -0.189753400  nElectrons: 650.000000  magneticMoment: [ Abs: 0.00002  Tot: -0.00001 ]
	SubspaceRotationAdjust: set factor to 0.0903
ElecMinimize: Iter:   5  F: -3580.262761561646585  |grad|_K:  5.288e-07  alpha:  8.016e-01  linmin: -3.416e-07  t[s]:   7271.84
	Linear fluid (dielectric constant: 78.4, screening length: 8.12261 Bohr) occupying 0.477030 of unit cell:	Completed after 11 iterations at t[s]:   7313.54
	Linear fluid (dielectric constant: 78.4, screening length: 8.12261 Bohr) occupying 0.477020 of unit cell:	Completed after 2 iterations at t[s]:   7342.66
	FillingsUpdate:  mu: -0.189272624  nElectrons: 650.000000  magneticMoment: [ Abs: 0.00002  Tot: -0.00001 ]
	SubspaceRotationAdjust: set factor to 0.0967
ElecMinimize: Iter:   6  F: -3580.262821976300529  |grad|_K:  5.098e-07  alpha:  7.559e-01  linmin: -9.368e-08  t[s]:   7382.27
	Linear fluid (dielectric constant: 78.4, screening length: 8.12261 Bohr) occupying 0.477157 of unit cell:	Completed after 11 iterations at t[s]:   7424.07
	Linear fluid (dielectric constant: 78.4, screening length: 8.12261 Bohr) occupying 0.477131 of unit cell:	Completed after 8 iterations at t[s]:   7454.38
	FillingsUpdate:  mu: -0.189155307  nElectrons: 650.000000  magneticMoment: [ Abs: 0.00002  Tot: -0.00001 ]
	SubspaceRotationAdjust: set factor to 0.0914
ElecMinimize: Iter:   7  F: -3580.262866679362105  |grad|_K:  4.807e-07  alpha:  6.044e-01  linmin: -8.138e-08  t[s]:   7494.12
	Linear fluid (dielectric constant: 78.4, screening length: 8.12261 Bohr) occupying 0.477208 of unit cell:	Completed after 11 iterations at t[s]:   7535.78
	Linear fluid (dielectric constant: 78.4, screening length: 8.12261 Bohr) occupying 0.477188 of unit cell:	Completed after 8 iterations at t[s]:   7566.20
	FillingsUpdate:  mu: -0.189143439  nElectrons: 650.000000  magneticMoment: [ Abs: 0.00002  Tot: -0.00001 ]
	SubspaceRotationAdjust: set factor to 0.0773
ElecMinimize: Iter:   8  F: -3580.262895888776256  |grad|_K:  3.769e-07  alpha:  4.438e-01  linmin:  2.078e-09  t[s]:   7606.02
	Linear fluid (dielectric constant: 78.4, screening length: 8.12261 Bohr) occupying 0.477220 of unit cell:	Completed after 9 iterations at t[s]:   7647.28
	Linear fluid (dielectric constant: 78.4, screening length: 8.12261 Bohr) occupying 0.477226 of unit cell:	Completed after 2 iterations at t[s]:   7676.08
	FillingsUpdate:  mu: -0.188983030  nElectrons: 650.000000  magneticMoment: [ Abs: 0.00002  Tot: -0.00001 ]
	SubspaceRotationAdjust: set factor to 0.0755
ElecMinimize: Iter:   9  F: -3580.262916791117277  |grad|_K:  2.701e-07  alpha:  5.168e-01  linmin: -3.120e-07  t[s]:   7715.93
	Linear fluid (dielectric constant: 78.4, screening length: 8.12261 Bohr) occupying 0.477238 of unit cell:	Completed after 5 iterations at t[s]:   7756.23
	Linear fluid (dielectric constant: 78.4, screening length: 8.12261 Bohr) occupying 0.477239 of unit cell:	Completed after 2 iterations at t[s]:   7785.30
	FillingsUpdate:  mu: -0.189041060  nElectrons: 650.000000  magneticMoment: [ Abs: 0.00001  Tot: -0.00001 ]
	SubspaceRotationAdjust: set factor to 0.0841
ElecMinimize: Iter:  10  F: -3580.262928867147366  |grad|_K:  2.040e-07  alpha:  5.787e-01  linmin: -3.225e-08  t[s]:   7825.02
	Linear fluid (dielectric constant: 78.4, screening length: 8.12261 Bohr) occupying 0.477243 of unit cell:	Completed after 6 iterations at t[s]:   7865.57
	Linear fluid (dielectric constant: 78.4, screening length: 8.12261 Bohr) occupying 0.477243 of unit cell:	Completed after 1 iterations at t[s]:   7894.19
	FillingsUpdate:  mu: -0.188947441  nElectrons: 650.000000  magneticMoment: [ Abs: 0.00001  Tot: -0.00001 ]
	SubspaceRotationAdjust: set factor to 0.096
ElecMinimize: Iter:  11  F: -3580.262934902323195  |grad|_K:  1.666e-07  alpha:  5.096e-01  linmin:  3.303e-08  t[s]:   7934.05
	Linear fluid (dielectric constant: 78.4, screening length: 8.12261 Bohr) occupying 0.477244 of unit cell:	Completed after 7 iterations at t[s]:   7974.82
	Linear fluid (dielectric constant: 78.4, screening length: 8.12261 Bohr) occupying 0.477244 of unit cell:	Completed after 0 iterations at t[s]:   8002.95
	FillingsUpdate:  mu: -0.188971722  nElectrons: 650.000000  magneticMoment: [ Abs: 0.00001  Tot: -0.00001 ]
	SubspaceRotationAdjust: set factor to 0.104
ElecMinimize: Iter:  12  F: -3580.262938594004936  |grad|_K:  1.349e-07  alpha:  4.671e-01  linmin:  8.257e-07  t[s]:   8042.80
	Linear fluid (dielectric constant: 78.4, screening length: 8.12261 Bohr) occupying 0.477243 of unit cell:	Completed after 7 iterations at t[s]:   8084.55
	Linear fluid (dielectric constant: 78.4, screening length: 8.12261 Bohr) occupying 0.477243 of unit cell:	Completed after 0 iterations at t[s]:   8112.64
	FillingsUpdate:  mu: -0.189001599  nElectrons: 650.000000  magneticMoment: [ Abs: 0.00001  Tot: -0.00001 ]
	SubspaceRotationAdjust: set factor to 0.103
ElecMinimize: Iter:  13  F: -3580.262940969391366  |grad|_K:  1.133e-07  alpha:  4.633e-01  linmin: -1.184e-06  t[s]:   8152.47
	Linear fluid (dielectric constant: 78.4, screening length: 8.12261 Bohr) occupying 0.477245 of unit cell:	Completed after 8 iterations at t[s]:   8193.35
	Linear fluid (dielectric constant: 78.4, screening length: 8.12261 Bohr) occupying 0.477245 of unit cell:	Completed after 0 iterations at t[s]:   8221.76
	FillingsUpdate:  mu: -0.188957291  nElectrons: 650.000000  magneticMoment: [ Abs: 0.00001  Tot: -0.00001 ]
	SubspaceRotationAdjust: set factor to 0.0977
ElecMinimize: Iter:  14  F: -3580.262942607856530  |grad|_K:  9.535e-08  alpha:  4.425e-01  linmin:  9.614e-07  t[s]:   8261.45
	Linear fluid (dielectric constant: 78.4, screening length: 8.12261 Bohr) occupying 0.477246 of unit cell:	Completed after 6 iterations at t[s]:   8301.93
	Linear fluid (dielectric constant: 78.4, screening length: 8.12261 Bohr) occupying 0.477246 of unit cell:	Completed after 0 iterations at t[s]:   8330.09
	FillingsUpdate:  mu: -0.189014921  nElectrons: 650.000000  magneticMoment: [ Abs: 0.00001  Tot: -0.00001 ]
	SubspaceRotationAdjust: set factor to 0.106
ElecMinimize: Iter:  15  F: -3580.262943765065756  |grad|_K:  7.207e-08  alpha:  4.523e-01  linmin: -1.151e-06  t[s]:   8369.80
	Linear fluid (dielectric constant: 78.4, screening length: 8.12261 Bohr) occupying 0.477248 of unit cell:	Completed after 2 iterations at t[s]:   8409.30
	Linear fluid (dielectric constant: 78.4, screening length: 8.12261 Bohr) occupying 0.477249 of unit cell:	Completed after 0 iterations at t[s]:   8437.48
	FillingsUpdate:  mu: -0.189004282  nElectrons: 650.000000  magneticMoment: [ Abs: 0.00001  Tot: -0.00001 ]
	SubspaceRotationAdjust: set factor to 0.126
ElecMinimize: Iter:  16  F: -3580.262944610192790  |grad|_K:  5.689e-08  alpha:  5.630e-01  linmin: -1.927e-06  t[s]:   8477.13
	Linear fluid (dielectric constant: 78.4, screening length: 8.12261 Bohr) occupying 0.477252 of unit cell:	Completed after 2 iterations at t[s]:   8516.63
	Linear fluid (dielectric constant: 78.4, screening length: 8.12261 Bohr) occupying 0.477252 of unit cell:	Completed after 0 iterations at t[s]:   8544.85
	FillingsUpdate:  mu: -0.188983118  nElectrons: 650.000000  magneticMoment: [ Abs: 0.00001  Tot: -0.00001 ]
	SubspaceRotationAdjust: set factor to 0.134
ElecMinimize: Iter:  17  F: -3580.262945111444878  |grad|_K:  5.014e-08  alpha:  5.368e-01  linmin: -2.371e-06  t[s]:   8584.52
	Linear fluid (dielectric constant: 78.4, screening length: 8.12261 Bohr) occupying 0.477254 of unit cell:	Completed after 5 iterations at t[s]:   8624.91
	Linear fluid (dielectric constant: 78.4, screening length: 8.12261 Bohr) occupying 0.477253 of unit cell:	Completed after 2 iterations at t[s]:   8654.07
	FillingsUpdate:  mu: -0.189027805  nElectrons: 650.000000  magneticMoment: [ Abs: 0.00001  Tot: -0.00001 ]
	SubspaceRotationAdjust: set factor to 0.114
ElecMinimize: Iter:  18  F: -3580.262945391356425  |grad|_K:  4.676e-08  alpha:  3.872e-01  linmin:  5.280e-06  t[s]:   8693.61
	Linear fluid (dielectric constant: 78.4, screening length: 8.12261 Bohr) occupying 0.477256 of unit cell:	Completed after 4 iterations at t[s]:   8733.61
	Linear fluid (dielectric constant: 78.4, screening length: 8.12261 Bohr) occupying 0.477255 of unit cell:	Completed after 0 iterations at t[s]:   8762.04
	FillingsUpdate:  mu: -0.189010146  nElectrons: 650.000000  magneticMoment: [ Abs: 0.00001  Tot: -0.00001 ]
	SubspaceRotationAdjust: set factor to 0.0974
ElecMinimize: Iter:  19  F: -3580.262945601686170  |grad|_K:  3.287e-08  alpha:  3.501e-01  linmin:  3.677e-06  t[s]:   8801.72
	Linear fluid (dielectric constant: 78.4, screening length: 8.12261 Bohr) occupying 0.477256 of unit cell:	Completed after 2 iterations at t[s]:   8841.20
	Linear fluid (dielectric constant: 78.4, screening length: 8.12261 Bohr) occupying 0.477257 of unit cell:	Completed after 0 iterations at t[s]:   8869.49
	FillingsUpdate:  mu: -0.189002836  nElectrons: 650.000000  magneticMoment: [ Abs: 0.00001  Tot: -0.00001 ]
	SubspaceRotationAdjust: set factor to 0.117
ElecMinimize: Iter:  20  F: -3580.262945752866017  |grad|_K:  2.279e-08  alpha:  4.835e-01  linmin: -3.985e-05  t[s]:   8909.18
	Linear fluid (dielectric constant: 78.4, screening length: 8.12261 Bohr) occupying 0.477257 of unit cell:	Completed after 2 iterations at t[s]:   8949.15
	Linear fluid (dielectric constant: 78.4, screening length: 8.12261 Bohr) occupying 0.477257 of unit cell:	Completed after 0 iterations at t[s]:   8977.32
	FillingsUpdate:  mu: -0.189007712  nElectrons: 650.000000  magneticMoment: [ Abs: 0.00001  Tot: -0.00000 ]
	SubspaceRotationAdjust: set factor to 0.128
ElecMinimize: Iter:  21  F: -3580.262945836279869  |grad|_K:  2.109e-08  alpha:  5.208e-01  linmin: -2.177e-04  t[s]:   9016.92
	Linear fluid (dielectric constant: 78.4, screening length: 8.12261 Bohr) occupying 0.477257 of unit cell:	Completed after 2 iterations at t[s]:   9056.37
	Linear fluid (dielectric constant: 78.4, screening length: 8.12261 Bohr) occupying 0.477257 of unit cell:	Completed after 0 iterations at t[s]:   9084.64
	FillingsUpdate:  mu: -0.189023577  nElectrons: 650.000000  magneticMoment: [ Abs: 0.00001  Tot: -0.00000 ]
	SubspaceRotationAdjust: set factor to 0.109
ElecMinimize: Iter:  22  F: -3580.262945888486684  |grad|_K:  2.206e-08  alpha:  3.687e-01  linmin:  9.719e-05  t[s]:   9124.35
ElecMinimize: Converged (|Delta F|<1.000000e-07 for 2 iters).
Setting wave functions to eigenvectors of Hamiltonian
Converging empty states (this may take a while): |deigs|: 1.097e-04
Single-point solvation energy estimate, DeltaF = -0.010853231005967

Computing DFT-D3 correction:
# coordination-number Pt 8.553 8.554 8.552 8.596 9.301 9.301 9.301 9.301 9.357 9.357 9.357 9.357 7.000 7.000 7.000 7.000 5.368 5.346 6.422 5.345 9.362 9.360 9.361 9.361 9.299 9.299 9.299 9.299 8.550 8.550 8.550 8.550 5.347 5.347 5.347 5.347 7.008 7.008 7.045 7.045
# coordination-number C 2.153
# coordination-number O 1.088
# diagonal-C6 Pt 336.87 336.87 336.87 336.87 336.87 336.87 336.87 336.87 336.87 336.87 336.87 336.87 336.87 336.87 336.87 336.87 336.87 336.87 336.87 336.87 336.87 336.87 336.87 336.87 336.87 336.87 336.87 336.87 336.87 336.87 336.87 336.87 336.87 336.87 336.87 336.87 336.87 336.87 336.87 336.87
# diagonal-C6 C 29.20
# diagonal-C6 O 12.74
EvdW_6 =   -0.304598
EvdW_8 =   -0.518939

# Ionic positions in cartesian coordinates:
ion Pt   3.704685000000000   1.822566000000000  12.573157000000000 0
ion Pt   0.005105000000001  10.095076999999998  12.573157000000000 0
ion Pt  11.103842999999998   1.822566000000000  12.573157000000000 0
ion Pt   7.404264000000001  10.095076999999998  12.573157000000000 0
ion Pt  -0.001050999999999   3.273664000000000   9.137368000000000 0
ion Pt  -3.700629999999999  11.546173999999999   9.137368000000000 0
ion Pt   7.398107999999999   3.273664000000000   9.137368000000000 0
ion Pt   3.698529000000002  11.546173999999999   9.137368000000000 0
ion Pt   3.697034000000000   4.963307999999999   5.876891000000000 0
ion Pt  -0.002545000000000  13.235818000000000   5.876891000000000 0
ion Pt  11.096191999999999   4.963307999999999   5.876891000000000 0
ion Pt   7.396613000000001  13.235818000000000   5.876891000000000 0
ion Pt  -0.005535000000000   6.538525999999999   2.275817000000000 0
ion Pt  -3.705113999999998  14.811036999999999   2.275817000000000 0
ion Pt   7.393623999999998   6.538525999999999   2.275817000000000 0
ion Pt   3.694045000000000  14.811036999999999   2.275817000000000 0
ion Pt  -3.696790000000000   8.273420000000000  15.437099999999996 0
ion Pt   0.002789000000000   0.000910000000000  15.437099999999996 0
ion Pt   3.702368999999999   8.273420000000000  15.437099999999996 0
ion Pt   7.401947999999999   0.000910000000000  15.437099999999996 0
ion Pt   3.702198000000001   6.619000999999999  10.667418999999999 0
ion Pt   0.002612000000002  14.891494999999999  10.667418999999999 0
ion Pt  11.101342000000001   6.619000999999999  10.667418999999999 0
ion Pt   7.401770000000000  14.891494999999999  10.667418999999999 0
ion Pt   3.700711000000000   0.034761000000000   7.409074999999999 0
ion Pt   0.001132000000001   8.307271999999999   7.409074999999999 0
ion Pt  11.099869999999996   0.034761000000000   7.409074999999999 0
ion Pt   7.400290000000000   8.307271999999999   7.409074999999999 0
ion Pt  -0.004987000000000   1.486173000000000   3.972789999999999 0
ion Pt  -3.704565999999998   9.758682999999998   3.972789999999999 0
ion Pt   7.394171000000000   1.486173000000000   3.972789999999999 0
ion Pt   3.694592000000002   9.758682999999998   3.972789999999999 0
ion Pt   3.696723000000000   3.307713999999999   1.109493000000000 0
ion Pt  -0.002870999999999  11.580223999999999   1.109493000000000 0
ion Pt  11.095866999999998   3.307713999999999   1.109493000000000 0
ion Pt   7.396302000000000  11.580223999999999   1.109493000000000 0
ion Pt   0.005350000000000   5.043435000000000  14.266009999999996 0
ion Pt  -3.694243999999999  13.315945999999999  14.266009999999996 0
ion Pt   7.404493000000000   5.043435000000000  14.266009999999996 0
ion Pt   3.704914000000001  13.315945999999999  14.266009999999996 0
ion C   5.554704000000000   9.179690000000001  18.045472000000000 1  Linear 0 0 1
ion O   5.614800000000000   9.179690000000001  20.200824999999995 1  Linear 0 0 1

# Forces in Cartesian coordinates:
force Pt  -0.000706583512929  -0.000407251621045   0.001766548755782 0
force Pt  -0.002048233701993  -0.002041177762091  -0.001098818297248 0
force Pt  -0.002747854206769  -0.000827071224489  -0.000518591368727 0
force Pt   0.006345818026302   0.002804015858471  -0.010248826771670 0
force Pt   0.001817731239081   0.000784063309693  -0.000485711684379 0
force Pt  -0.001197662224580   0.001699453937111  -0.001121368203667 0
force Pt   0.000086848972376   0.000740500119155  -0.001188519476047 0
force Pt   0.001885409345425   0.001276543880034  -0.000525337034697 0
force Pt   0.000981984949131  -0.002590342678234  -0.006931872104466 0
force Pt  -0.000510885035272  -0.000963992622215   0.000491984050913 0
force Pt   0.000694347712320  -0.001017333088745  -0.000215818790301 0
force Pt  -0.000358995432656  -0.000047558511124  -0.000337205534138 0
force Pt  -0.000187059232273   0.000342213669398   0.000757183117613 0
force Pt  -0.000280426290776   0.000332532697233   0.000124367152078 0
force Pt  -0.000361298155356   0.000470140602437   0.000868705220240 0
force Pt  -0.000196649183054  -0.000548008886527   0.000495880617305 0
force Pt   0.000079047228268   0.000123347915948   0.000836481630381 0
force Pt   0.000770448870426  -0.000378783437771   0.000785153681791 0
force Pt  -0.030682855314307  -0.010303902055420  -0.046828883848975 0
force Pt  -0.000259228898929  -0.000048400092133   0.000698728130567 0
force Pt  -0.003793457755994  -0.002772937575571  -0.005287661244402 0
force Pt  -0.000406932814466  -0.001294353621762   0.000101067633860 0
force Pt  -0.000136257502020   0.000273448068211   0.000057339702510 0
force Pt  -0.000295050087893   0.000390204018173  -0.000295979791901 0
force Pt  -0.000341894072389   0.000051246588566   0.000462219004088 0
force Pt  -0.000288690930757  -0.000571873550830   0.001226508410929 0
force Pt  -0.001231937601265  -0.000348598715210   0.001176223984432 0
force Pt  -0.002008931724357  -0.000818038048280   0.001048401753768 0
force Pt   0.000718370067118   0.000268588334214   0.000150315801426 0
force Pt   0.000572479326500  -0.000384705817507   0.000364920206150 0
force Pt   0.000157088858721  -0.000122827027206  -0.000071538554627 0
force Pt   0.000705695008806  -0.000656413855956   0.000006047980639 0
force Pt   0.000266709802797  -0.000953850123489  -0.001941507784362 0
force Pt  -0.000210454543494   0.000658293712156  -0.000901450400847 0
force Pt  -0.000102434074166   0.000158915370953  -0.000473945437119 0
force Pt   0.000092105702296   0.000325551633423  -0.000964684645191 0
force Pt   0.002039544278098   0.002495117183990  -0.002095727966835 0
force Pt   0.000533272498766   0.000856179441542   0.000809716244847 0
force Pt   0.005907311276078  -0.006648537409750  -0.002702443084066 0
force Pt  -0.001748730649576   0.009842282448827  -0.003361789328592 0
force C  -0.000064515157884  -0.004717575651931   0.015649971917862 1  Linear 0 0 1
force O   0.026548766379920   0.014679317076172   0.061572770676689 1  Linear 0 0 1

# Energy components:
   A_diel =       -0.0118604069885327
   Eewald =    16395.4907089211665152
       EH =    19647.0467672341364960
     Eloc =   -40248.6298736851604190
      Enl =      -38.8238329831825695
     EvdW =       -0.8235370719404682
      Exc =    -1143.0068899992450042
 Exc_core =      655.7540505061100475
       KE =     1152.7468948177306629
-------------------------------------
     Etot =    -3580.2575726673790086
       TS =        0.0053732211077679
-------------------------------------
        F =    -3580.2629458884866835


Dumping 'jdft.fillings' ... done
Dumping 'jdft.wfns' ... done
Dumping 'jdft.fluidState' ... done
Dumping 'jdft.ionpos' ... done
Dumping 'jdft.lattice' ... done
Dumping 'jdft.eigenvals' ... done
Dumping 'jdft.eigStats' ... 
	eMin: -2.164547 at state 9 ( [ +0.250000 +0.000000 +0.000000 ] spin -1 )
	HOMO: -0.189274 at state 0 ( [ +0.000000 +0.000000 +0.000000 ] spin 1 )
	mu  : -0.189024
	LUMO: -0.188844 at state 11 ( [ +0.250000 -0.333333 +0.000000 ] spin -1 )
	eMax: +0.090014 at state 1 ( [ +0.000000 +0.333333 +0.000000 ] spin 1 )
	HOMO-LUMO gap: +0.000431
	Optical gap  : +0.000660 at state 2 ( [ +0.250000 +0.000000 +0.000000 ] spin 1 )
Dumping 'jdft.Ecomponents' ... done
IonicMinimize: Iter:   0  F: -3580.262945888486684  |grad|_K:  4.492e-02  t[s]:   9732.91

#--- Lowdin population analysis ---
# oxidation-state Pt -0.036 -0.058 -0.039 -0.044 +0.010 +0.008 +0.010 +0.008 -0.009 -0.004 -0.003 -0.004 -0.019 -0.021 -0.020 -0.021 +0.076 +0.110 -0.031 +0.118 -0.037 -0.001 -0.003 -0.001 +0.009 +0.009 +0.009 +0.009 -0.039 -0.038 -0.039 -0.038 +0.115 +0.114 +0.115 +0.115 -0.036 -0.025 -0.034 -0.042
# magnetic-moments Pt -0.000 -0.000 -0.000 -0.000 -0.000 -0.000 -0.000 -0.000 -0.000 -0.000 -0.000 -0.000 -0.000 -0.000 -0.000 -0.000 -0.000 -0.000 -0.000 -0.000 -0.000 -0.000 -0.000 -0.000 -0.000 -0.000 -0.000 -0.000 -0.000 -0.000 -0.000 -0.000 +0.000 -0.000 -0.000 -0.000 -0.000 -0.000 -0.000 -0.000
# oxidation-state C +0.486
# magnetic-moments C -0.000
# oxidation-state O -0.113
# magnetic-moments O +0.000


Computing DFT-D3 correction:
# coordination-number Pt 8.553 8.554 8.552 8.594 9.301 9.301 9.301 9.301 9.357 9.357 9.357 9.357 7.000 7.000 7.000 7.000 5.367 5.346 6.412 5.345 9.362 9.360 9.361 9.361 9.299 9.299 9.299 9.299 8.550 8.550 8.550 8.550 5.347 5.347 5.347 5.347 7.008 7.008 7.045 7.044
# coordination-number C 2.150
# coordination-number O 1.078
# diagonal-C6 Pt 336.87 336.87 336.87 336.87 336.87 336.87 336.87 336.87 336.87 336.87 336.87 336.87 336.87 336.87 336.87 336.87 336.87 336.87 336.87 336.87 336.87 336.87 336.87 336.87 336.87 336.87 336.87 336.87 336.87 336.87 336.87 336.87 336.87 336.87 336.87 336.87 336.87 336.87 336.87 336.87
# diagonal-C6 C 29.20
# diagonal-C6 O 12.75
EvdW_6 =   -0.304570
EvdW_8 =   -0.518920

-------- Electronic minimization -----------
	Linear fluid (dielectric constant: 78.4, screening length: 8.12261 Bohr) occupying 0.477175 of unit cell:	Completed after 18 iterations at t[s]:   9778.26
	FillingsUpdate:  mu: -0.184875305  nElectrons: 650.000000  magneticMoment: [ Abs: 0.00000  Tot: -0.00000 ]
ElecMinimize: Iter:   0  F: -3580.236044272185154  |grad|_K:  1.553e-05  alpha:  1.000e+00
	Linear fluid (dielectric constant: 78.4, screening length: 8.12261 Bohr) occupying 0.477197 of unit cell:	Completed after 22 iterations at t[s]:   9868.21
	Linear fluid (dielectric constant: 78.4, screening length: 8.12261 Bohr) occupying 0.477144 of unit cell:	Completed after 22 iterations at t[s]:   9902.45
	FillingsUpdate:  mu: -0.187892455  nElectrons: 650.000000  magneticMoment: [ Abs: 0.00000  Tot: -0.00000 ]
	SubspaceRotationAdjust: set factor to 0.111
ElecMinimize: Iter:   1  F: -3580.262731419319607  |grad|_K:  4.237e-06  alpha:  3.901e-01  linmin:  1.205e-03  t[s]:   9942.06
	Linear fluid (dielectric constant: 78.4, screening length: 8.12261 Bohr) occupying 0.477087 of unit cell:	Completed after 13 iterations at t[s]:   9984.58
	Linear fluid (dielectric constant: 78.4, screening length: 8.12261 Bohr) occupying 0.477092 of unit cell:	Completed after 9 iterations at t[s]:  10015.53
	FillingsUpdate:  mu: -0.187296754  nElectrons: 650.000000  magneticMoment: [ Abs: 0.00000  Tot: -0.00000 ]
	SubspaceRotationAdjust: set factor to 0.108
ElecMinimize: Iter:   2  F: -3580.264495836425340  |grad|_K:  2.187e-06  alpha:  3.467e-01  linmin: -4.703e-05  t[s]:  10055.18
	Linear fluid (dielectric constant: 78.4, screening length: 8.12261 Bohr) occupying 0.477039 of unit cell:	Completed after 17 iterations at t[s]:  10098.79
	Linear fluid (dielectric constant: 78.4, screening length: 8.12261 Bohr) occupying 0.477031 of unit cell:	Completed after 10 iterations at t[s]:  10129.92
	FillingsUpdate:  mu: -0.188922423  nElectrons: 650.000000  magneticMoment: [ Abs: 0.00000  Tot: -0.00000 ]
	SubspaceRotationAdjust: set factor to 0.0946
ElecMinimize: Iter:   3  F: -3580.265041767400817  |grad|_K:  1.518e-06  alpha:  4.011e-01  linmin: -1.046e-06  t[s]:  10169.55
	Linear fluid (dielectric constant: 78.4, screening length: 8.12261 Bohr) occupying 0.476974 of unit cell:	Completed after 13 iterations at t[s]:  10211.87
	Linear fluid (dielectric constant: 78.4, screening length: 8.12261 Bohr) occupying 0.476982 of unit cell:	Completed after 9 iterations at t[s]:  10242.92
	FillingsUpdate:  mu: -0.188924399  nElectrons: 650.000000  magneticMoment: [ Abs: 0.00000  Tot: -0.00000 ]
	SubspaceRotationAdjust: set factor to 0.0776
ElecMinimize: Iter:   4  F: -3580.265260822337950  |grad|_K:  1.017e-06  alpha:  3.341e-01  linmin: -4.264e-06  t[s]:  10282.68
	Linear fluid (dielectric constant: 78.4, screening length: 8.12261 Bohr) occupying 0.476930 of unit cell:	Completed after 11 iterations at t[s]:  10324.48
	Linear fluid (dielectric constant: 78.4, screening length: 8.12261 Bohr) occupying 0.476907 of unit cell:	Completed after 9 iterations at t[s]:  10355.59
	FillingsUpdate:  mu: -0.189107043  nElectrons: 650.000000  magneticMoment: [ Abs: 0.00000  Tot: -0.00000 ]
	SubspaceRotationAdjust: set factor to 0.0962
ElecMinimize: Iter:   5  F: -3580.265401227708026  |grad|_K:  7.451e-07  alpha:  4.775e-01  linmin:  1.118e-05  t[s]:  10395.13
	Linear fluid (dielectric constant: 78.4, screening length: 8.12261 Bohr) occupying 0.476862 of unit cell:	Completed after 11 iterations at t[s]:  10437.11
	Linear fluid (dielectric constant: 78.4, screening length: 8.12261 Bohr) occupying 0.476847 of unit cell:	Completed after 7 iterations at t[s]:  10467.60
	FillingsUpdate:  mu: -0.189762820  nElectrons: 650.000000  magneticMoment: [ Abs: 0.00000  Tot: -0.00000 ]
	SubspaceRotationAdjust: set factor to 0.118
ElecMinimize: Iter:   6  F: -3580.265501435337683  |grad|_K:  6.346e-07  alpha:  6.350e-01  linmin:  2.399e-05  t[s]:  10507.35
	Linear fluid (dielectric constant: 78.4, screening length: 8.12261 Bohr) occupying 0.476830 of unit cell:	Completed after 11 iterations at t[s]:  10549.45
	Linear fluid (dielectric constant: 78.4, screening length: 8.12261 Bohr) occupying 0.476832 of unit cell:	Completed after 6 iterations at t[s]:  10579.57
	FillingsUpdate:  mu: -0.189362166  nElectrons: 650.000000  magneticMoment: [ Abs: 0.00000  Tot: -0.00000 ]
	SubspaceRotationAdjust: set factor to 0.109
ElecMinimize: Iter:   7  F: -3580.265566237164876  |grad|_K:  7.393e-07  alpha:  5.663e-01  linmin:  1.213e-05  t[s]:  10619.16
	Linear fluid (dielectric constant: 78.4, screening length: 8.12261 Bohr) occupying 0.476816 of unit cell:	Completed after 13 iterations at t[s]:  10661.60
	Linear fluid (dielectric constant: 78.4, screening length: 8.12261 Bohr) occupying 0.476822 of unit cell:	Completed after 11 iterations at t[s]:  10693.09
	FillingsUpdate:  mu: -0.189667957  nElectrons: 650.000000  magneticMoment: [ Abs: 0.00000  Tot: -0.00000 ]
	SubspaceRotationAdjust: set factor to 0.0904
[...]
ion Pt   0.002789000000000   0.000910000000000  15.437099999999996 0
ion Pt   3.702368999999999   8.273420000000000  15.437099999999996 0
ion Pt   7.401947999999999   0.000910000000000  15.437099999999996 0
ion Pt   3.702198000000001   6.619000999999999  10.667418999999999 0
ion Pt   0.002612000000002  14.891494999999999  10.667418999999999 0
ion Pt  11.101342000000001   6.619000999999999  10.667418999999999 0
ion Pt   7.401770000000000  14.891494999999999  10.667418999999999 0
ion Pt   3.700711000000000   0.034761000000000   7.409074999999999 0
ion Pt   0.001132000000001   8.307271999999999   7.409074999999999 0
ion Pt  11.099869999999996   0.034761000000000   7.409074999999999 0
ion Pt   7.400290000000000   8.307271999999999   7.409074999999999 0
ion Pt  -0.004987000000000   1.486173000000000   3.972789999999999 0
ion Pt  -3.704565999999998   9.758682999999998   3.972789999999999 0
ion Pt   7.394171000000000   1.486173000000000   3.972789999999999 0
ion Pt   3.694592000000002   9.758682999999998   3.972789999999999 0
ion Pt   3.696723000000000   3.307713999999999   1.109493000000000 0
ion Pt  -0.002870999999999  11.580223999999999   1.109493000000000 0
ion Pt  11.095866999999998   3.307713999999999   1.109493000000000 0
ion Pt   7.396302000000000  11.580223999999999   1.109493000000000 0
ion Pt   0.005350000000000   5.043435000000000  14.266009999999996 0
ion Pt  -3.694243999999999  13.315945999999999  14.266009999999996 0
ion Pt   7.404493000000000   5.043435000000000  14.266009999999996 0
ion Pt   3.704914000000001  13.315945999999999  14.266009999999996 0
ion C   5.554704000000000   9.179690000000001  18.438731590226176 1  Linear 0 0 1
ion O   5.614800000000000   9.179690000000001  20.629649186290759 1  Linear 0 0 1

# Forces in Cartesian coordinates:
force Pt  -0.000682303012246  -0.000245926281017   0.001583317807659 0
force Pt  -0.000268910855110  -0.002620272602519  -0.000456480847819 0
force Pt  -0.002257950675244  -0.000530122926232  -0.000121399436888 0
force Pt   0.005095045531609   0.002300978443892  -0.008491762532966 0
force Pt   0.001789770820905   0.000812384541415  -0.000544769973430 0
force Pt  -0.000596893165645   0.001203686349100  -0.001295365044966 0
force Pt  -0.000028722002610   0.000789557245549  -0.001576892231744 0
force Pt   0.001994634529590   0.001106704483429  -0.000640853883804 0
force Pt   0.001253026336918  -0.002264434845311  -0.006248460785843 0
force Pt  -0.000351363227030  -0.000869861539192   0.000269569347785 0
force Pt   0.000716587044650  -0.000910323438047  -0.000294452592667 0
force Pt  -0.000236507048444  -0.000130551788341  -0.000205867305802 0
force Pt  -0.000000717586740   0.000178832252965   0.000938543460344 0
force Pt  -0.000242505905756   0.000412135713494   0.000213842206681 0
force Pt  -0.000574419441396   0.000189127908035   0.001063260639211 0
force Pt  -0.000160857962414  -0.000455430740501   0.000551181104476 0
force Pt  -0.000611460983778   0.000242477829992   0.001320813210870 0
force Pt   0.000714530671085  -0.000351539902963   0.000729373065205 0
force Pt   0.011995819810780   0.010472117618729   0.022261359904128 0
force Pt  -0.000106596569711  -0.000004091010464   0.000501414943899 0
force Pt  -0.004718265581586  -0.001077556634744  -0.001001579712962 0
force Pt  -0.000362279512312  -0.000878059220357  -0.000060020934114 0
force Pt  -0.000545300121746   0.000161104545841   0.000012075389663 0
force Pt  -0.000423654844124   0.000233253167512  -0.000299354881222 0
force Pt  -0.000287786642491   0.000128496839253   0.000666895505548 0
force Pt  -0.000360990171744  -0.000583244354456   0.001255614767560 0
force Pt  -0.001228917797003  -0.000368482215246   0.001041079438026 0
force Pt  -0.001960829049223  -0.000910800861518   0.000855783482275 0
force Pt   0.000912168806385   0.000318979627954   0.000265647808837 0
force Pt   0.000576077423885  -0.000351990659930   0.000383490186268 0
force Pt  -0.000014302307959   0.000034057925506   0.000068552464789 0
force Pt   0.000645761551068  -0.000671215319271   0.000070986159183 0
force Pt   0.000225845194339  -0.001167066077790  -0.002672250699476 0
force Pt  -0.000155434153464   0.000644272134903  -0.000652543958989 0
force Pt  -0.000011360986668   0.000139092757805  -0.000402969369766 0
force Pt   0.000124586869237   0.000320783221093  -0.000778588265956 0
force Pt   0.001958918329815   0.001972503648030  -0.002375222777898 0
force Pt   0.000289932922719   0.000470326426272   0.000505180070355 0
force Pt   0.005042993510664  -0.005096879825113  -0.002145347261399 0
force Pt  -0.001216672333320   0.008028233832744  -0.002978308317790 0
force C  -0.031225262294041  -0.019780250045436   0.000184856601475 1  Linear 0 0 1
force O   0.015355792912668   0.009201291255565  -0.000215738548081 1  Linear 0 0 1

# Energy components:
   A_diel =       -0.0111401254560723
   Eewald =    16357.9950757268270536
       EH =    19610.2293021744044381
     Eloc =   -40174.1223646397775155
      Enl =      -38.8831657526730794
     EvdW =       -0.8230646822023457
      Exc =    -1142.9043072288188796
 Exc_core =      655.7540237061134576
       KE =     1152.4937354906887776
-------------------------------------
     Etot =    -3580.2719053308956063
       TS =        0.0054136578247697
-------------------------------------
        F =    -3580.2773189887202534


Dumping 'jdft.fillings' ... done
Dumping 'jdft.wfns' ... done
Dumping 'jdft.fluidState' ... done
Dumping 'jdft.ionpos' ... done
Dumping 'jdft.lattice' ... done
Dumping 'jdft.eigenvals' ... done
Dumping 'jdft.eigStats' ... 
	eMin: -2.148690 at state 7 ( [ +0.000000 +0.000000 +0.000000 ] spin -1 )
	HOMO: -0.188653 at state 2 ( [ +0.250000 +0.000000 +0.000000 ] spin 1 )
	mu  : -0.188474
	LUMO: -0.188193 at state 11 ( [ +0.250000 -0.333333 +0.000000 ] spin -1 )
	eMax: +0.089571 at state 1 ( [ +0.000000 +0.333333 +0.000000 ] spin 1 )
	HOMO-LUMO gap: +0.000460
	Optical gap  : +0.000533 at state 2 ( [ +0.250000 +0.000000 +0.000000 ] spin 1 )
Dumping 'jdft.Ecomponents' ... done
IonicMinimize: Iter:   8  F: -3580.277318988720253  |grad|_K:  2.009e-04  alpha:  1.000e+00  linmin: -9.353e-05  t[s]:  30096.20

#--- Lowdin population analysis ---
# oxidation-state Pt -0.037 -0.048 -0.038 -0.037 +0.011 +0.008 +0.010 +0.008 -0.011 -0.004 -0.002 -0.004 -0.019 -0.021 -0.020 -0.021 +0.076 +0.108 -0.079 +0.115 -0.030 -0.002 -0.004 -0.002 +0.009 +0.010 +0.010 +0.009 -0.039 -0.038 -0.039 -0.038 +0.111 +0.113 +0.114 +0.113 -0.026 -0.025 -0.029 -0.037
# magnetic-moments Pt -0.000 -0.000 -0.000 -0.000 -0.000 -0.000 -0.000 -0.000 -0.000 -0.000 -0.000 -0.000 -0.000 -0.000 -0.000 -0.000 -0.000 -0.000 -0.000 -0.000 -0.000 -0.000 -0.000 -0.000 -0.000 -0.000 -0.000 -0.000 -0.000 -0.000 -0.000 -0.000 -0.000 -0.000 -0.000 -0.000 -0.000 -0.000 -0.000 -0.000
# oxidation-state C +0.482
# magnetic-moments C +0.000
# oxidation-state O -0.099
# magnetic-moments O +0.000


Computing DFT-D3 correction:
# coordination-number Pt 8.553 8.554 8.552 8.573 9.301 9.301 9.301 9.301 9.357 9.357 9.357 9.357 7.000 7.000 7.000 7.000 5.361 5.346 6.367 5.345 9.361 9.360 9.361 9.361 9.299 9.299 9.299 9.299 8.550 8.550 8.550 8.550 5.347 5.347 5.347 5.347 7.007 7.007 7.029 7.029
# coordination-number C 2.084
# coordination-number O 1.039
# diagonal-C6 Pt 336.87 336.87 336.87 336.87 336.87 336.87 336.87 336.87 336.87 336.87 336.87 336.87 336.87 336.87 336.87 336.87 336.87 336.87 336.87 336.87 336.87 336.87 336.87 336.87 336.87 336.87 336.87 336.87 336.87 336.87 336.87 336.87 336.87 336.87 336.87 336.87 336.87 336.87 336.87 336.87
# diagonal-C6 C 29.33
# diagonal-C6 O 12.78
EvdW_6 =   -0.304262
EvdW_8 =   -0.518803

-------- Electronic minimization -----------
	Linear fluid (dielectric constant: 78.4, screening length: 8.12261 Bohr) occupying 0.474290 of unit cell:	Completed after 7 iterations at t[s]:  30144.08
	FillingsUpdate:  mu: -0.188420427  nElectrons: 650.000000  magneticMoment: [ Abs: 0.00000  Tot: -0.00000 ]
ElecMinimize: Iter:   0  F: -3580.277317980737735  |grad|_K:  1.357e-07  alpha:  1.000e+00
	Linear fluid (dielectric constant: 78.4, screening length: 8.12261 Bohr) occupying 0.474291 of unit cell:	Completed after 11 iterations at t[s]:  30231.27
	Linear fluid (dielectric constant: 78.4, screening length: 8.12261 Bohr) occupying 0.474290 of unit cell:	Completed after 11 iterations at t[s]:  30262.97
	FillingsUpdate:  mu: -0.188469562  nElectrons: 650.000000  magneticMoment: [ Abs: 0.00000  Tot: -0.00000 ]
	SubspaceRotationAdjust: set factor to 0.189
ElecMinimize: Iter:   1  F: -3580.277318974166064  |grad|_K:  2.119e-08  alpha:  1.884e-01  linmin: -6.875e-04  t[s]:  30302.50
	Linear fluid (dielectric constant: 78.4, screening length: 8.12261 Bohr) occupying 0.474290 of unit cell:	Completed after 0 iterations at t[s]:  30341.46
ElecMinimize: 	Predicted alpha/alphaT>3.000000, increasing alphaT to 5.651489e-01.
	Linear fluid (dielectric constant: 78.4, screening length: 8.12261 Bohr) occupying 0.474290 of unit cell:	Completed after 2 iterations at t[s]:  30370.75
	Linear fluid (dielectric constant: 78.4, screening length: 8.12261 Bohr) occupying 0.474290 of unit cell:	Completed after 0 iterations at t[s]:  30399.42
	FillingsUpdate:  mu: -0.188482823  nElectrons: 650.000000  magneticMoment: [ Abs: 0.00000  Tot: -0.00000 ]
	SubspaceRotationAdjust: set factor to 0.185
ElecMinimize: Iter:   2  F: -3580.277319025791257  |grad|_K:  1.316e-08  alpha:  3.694e-01  linmin:  2.408e-02  t[s]:  30439.03
	Linear fluid (dielectric constant: 78.4, screening length: 8.12261 Bohr) occupying 0.474290 of unit cell:	Completed after 2 iterations at t[s]:  30478.80
	Linear fluid (dielectric constant: 78.4, screening length: 8.12261 Bohr) occupying 0.474290 of unit cell:	Completed after 0 iterations at t[s]:  30507.17
	FillingsUpdate:  mu: -0.188462244  nElectrons: 650.000000  magneticMoment: [ Abs: 0.00000  Tot: -0.00000 ]
	SubspaceRotationAdjust: set factor to 0.134
ElecMinimize: Iter:   3  F: -3580.277319030220042  |grad|_K:  1.383e-08  alpha:  1.919e-01  linmin:  3.524e-03  t[s]:  30547.03
ElecMinimize: Converged (|Delta F|<1.000000e-07 for 2 iters).
Setting wave functions to eigenvectors of Hamiltonian
Converging empty states (this may take a while): |deigs|: 7.220e-10

Computing DFT-D3 correction:
# coordination-number Pt 8.553 8.554 8.552 8.573 9.301 9.301 9.301 9.301 9.357 9.357 9.357 9.357 7.000 7.000 7.000 7.000 5.361 5.346 6.367 5.345 9.361 9.360 9.361 9.361 9.299 9.299 9.299 9.299 8.550 8.550 8.550 8.550 5.347 5.347 5.347 5.347 7.007 7.007 7.029 7.029
# coordination-number C 2.084
# coordination-number O 1.039
# diagonal-C6 Pt 336.87 336.87 336.87 336.87 336.87 336.87 336.87 336.87 336.87 336.87 336.87 336.87 336.87 336.87 336.87 336.87 336.87 336.87 336.87 336.87 336.87 336.87 336.87 336.87 336.87 336.87 336.87 336.87 336.87 336.87 336.87 336.87 336.87 336.87 336.87 336.87 336.87 336.87 336.87 336.87
# diagonal-C6 C 29.33
# diagonal-C6 O 12.78
EvdW_6 =   -0.304262
EvdW_8 =   -0.518803

# Ionic positions in cartesian coordinates:
ion Pt   3.704685000000000   1.822566000000000  12.573157000000000 0
ion Pt   0.005105000000001  10.095076999999998  12.573157000000000 0
ion Pt  11.103842999999998   1.822566000000000  12.573157000000000 0
ion Pt   7.404264000000001  10.095076999999998  12.573157000000000 0
ion Pt  -0.001050999999999   3.273664000000000   9.137368000000000 0
ion Pt  -3.700629999999999  11.546173999999999   9.137368000000000 0
ion Pt   7.398107999999999   3.273664000000000   9.137368000000000 0
ion Pt   3.698529000000002  11.546173999999999   9.137368000000000 0
ion Pt   3.697034000000000   4.963307999999999   5.876891000000000 0
ion Pt  -0.002545000000000  13.235818000000000   5.876891000000000 0
ion Pt  11.096191999999999   4.963307999999999   5.876891000000000 0
ion Pt   7.396613000000001  13.235818000000000   5.876891000000000 0
ion Pt  -0.005535000000000   6.538525999999999   2.275817000000000 0
ion Pt  -3.705113999999998  14.811036999999999   2.275817000000000 0
ion Pt   7.393623999999998   6.538525999999999   2.275817000000000 0
ion Pt   3.694045000000000  14.811036999999999   2.275817000000000 0
ion Pt  -3.696790000000000   8.273420000000000  15.437099999999996 0
ion Pt   0.002789000000000   0.000910000000000  15.437099999999996 0
ion Pt   3.702368999999999   8.273420000000000  15.437099999999996 0
ion Pt   7.401947999999999   0.000910000000000  15.437099999999996 0
ion Pt   3.702198000000001   6.619000999999999  10.667418999999999 0
ion Pt   0.002612000000002  14.891494999999999  10.667418999999999 0
ion Pt  11.101342000000001   6.619000999999999  10.667418999999999 0
ion Pt   7.401770000000000  14.891494999999999  10.667418999999999 0
ion Pt   3.700711000000000   0.034761000000000   7.409074999999999 0
ion Pt   0.001132000000001   8.307271999999999   7.409074999999999 0
ion Pt  11.099869999999996   0.034761000000000   7.409074999999999 0
ion Pt   7.400290000000000   8.307271999999999   7.409074999999999 0
ion Pt  -0.004987000000000   1.486173000000000   3.972789999999999 0
ion Pt  -3.704565999999998   9.758682999999998   3.972789999999999 0
ion Pt   7.394171000000000   1.486173000000000   3.972789999999999 0
ion Pt   3.694592000000002   9.758682999999998   3.972789999999999 0
ion Pt   3.696723000000000   3.307713999999999   1.109493000000000 0
ion Pt  -0.002870999999999  11.580223999999999   1.109493000000000 0
ion Pt  11.095866999999998   3.307713999999999   1.109493000000000 0
ion Pt   7.396302000000000  11.580223999999999   1.109493000000000 0
ion Pt   0.005350000000000   5.043435000000000  14.266009999999996 0
ion Pt  -3.694243999999999  13.315945999999999  14.266009999999996 0
ion Pt   7.404493000000000   5.043435000000000  14.266009999999996 0
ion Pt   3.704914000000001  13.315945999999999  14.266009999999996 0
ion C   5.554704000000000   9.179690000000001  18.438530205596280 1  Linear 0 0 1
ion O   5.614800000000000   9.179690000000001  20.629256363304201 1  Linear 0 0 1

# Forces in Cartesian coordinates:
force Pt  -0.000678912946691  -0.000226411289632   0.001487877903176 0
force Pt  -0.000252029154724  -0.002628483308953  -0.000543825172926 0
force Pt  -0.002262660592592  -0.000524137389131  -0.000211029715244 0
force Pt   0.005080259767151   0.002293336021150  -0.008606473978195 0
force Pt   0.001796656420642   0.000827952293762  -0.000550069307787 0
force Pt  -0.000596535243111   0.001199196696838  -0.001300512411638 0
force Pt  -0.000036959909836   0.000803938634477  -0.001582307559249 0
force Pt   0.001992378932875   0.001093792674457  -0.000636570596544 0
force Pt   0.001255329914781  -0.002255760901162  -0.006166886256883 0
force Pt  -0.000353014323389  -0.000873858621141   0.000346519995496 0
force Pt   0.000713668730487  -0.000901876863603  -0.000220972508664 0
force Pt  -0.000233726106168  -0.000137969043598  -0.000128697437193 0
force Pt   0.000004553345722   0.000183981495584   0.000984727828045 0
force Pt  -0.000241932141926   0.000419559822277   0.000257718380167 0
force Pt  -0.000579445316295   0.000192534624183   0.001109713107035 0
force Pt  -0.000160844829455  -0.000452634518245   0.000598226323132 0
force Pt  -0.000584609074664   0.000243170388795   0.001289396939045 0
force Pt   0.000712143053956  -0.000350632679094   0.000709910520819 0
force Pt   0.011882270019578   0.010423313061674   0.022047596818221 0
force Pt  -0.000103137799006  -0.000012943962398   0.000500453138593 0
force Pt  -0.004719959184057  -0.001054956280958  -0.001043048127263 0
force Pt  -0.000359438970289  -0.000891346335563  -0.000126153490173 0
force Pt  -0.000545377809731   0.000176586424466  -0.000049796703855 0
force Pt  -0.000427167194011   0.000218651284741  -0.000371760864839 0
force Pt  -0.000284872401094   0.000123716326523   0.000712158277918 0
force Pt  -0.000354254336497  -0.000577827001524   0.001317738145468 0
force Pt  -0.001230668921647  -0.000379260327946   0.001090361777374 0
force Pt  -0.001966940640481  -0.000907972212862   0.000916598695888 0
force Pt   0.000919476488033   0.000311874988907   0.000319661920739 0
force Pt   0.000575051758178  -0.000352853653187   0.000446705767965 0
force Pt  -0.000020051778857   0.000028294887263   0.000123635082465 0
force Pt   0.000647893243909  -0.000678485998969   0.000137006277757 0
force Pt   0.000226632255758  -0.001173679602990  -0.002632890785786 0
force Pt  -0.000156538230299   0.000643843751204  -0.000598507642814 0
force Pt  -0.000011527541361   0.000136839411180  -0.000349312755812 0
force Pt   0.000127939857575   0.000318659214254  -0.000721995417817 0
force Pt   0.001968734151949   0.001992496158440  -0.002424302013756 0
force Pt   0.000304457235477   0.000457072994881   0.000452496911626 0
force Pt   0.005034976377321  -0.005101984936085  -0.002214999102842 0
force Pt  -0.001233385812277   0.008011786565514  -0.003040774035234 0
force C  -0.031185433364918  -0.019741702572166  -0.000047660069947 1  Linear 0 0 1
force O   0.015395609102978   0.009225981798564   0.000051887212980 1  Linear 0 0 1

# Energy components:
   A_diel =       -0.0111402971818435
   Eewald =    16358.0234441524262365
       EH =    19610.2604956326504180
     Eloc =   -40174.1822065380983986
      Enl =      -38.8831204443295775
     EvdW =       -0.8230650695948104
      Exc =    -1142.9044433919948460
 Exc_core =      655.7540236428990283
       KE =     1152.4941069582987438
-------------------------------------
     Etot =    -3580.2719053549240016
       TS =        0.0054136752962204
-------------------------------------
        F =    -3580.2773190302200419


Dumping 'jdft.fillings' ... done
Dumping 'jdft.wfns' ... done
Dumping 'jdft.fluidState' ... done
Dumping 'jdft.ionpos' ... done
Dumping 'jdft.lattice' ... done
Dumping 'jdft.eigenvals' ... done
Dumping 'jdft.eigStats' ... 
	eMin: -2.148675 at state 0 ( [ +0.000000 +0.000000 +0.000000 ] spin 1 )
	HOMO: -0.188637 at state 2 ( [ +0.250000 +0.000000 +0.000000 ] spin 1 )
	mu  : -0.188462
	LUMO: -0.188183 at state 11 ( [ +0.250000 -0.333333 +0.000000 ] spin -1 )
	eMax: +0.089575 at state 1 ( [ +0.000000 +0.333333 +0.000000 ] spin 1 )
	HOMO-LUMO gap: +0.000454
	Optical gap  : +0.000529 at state 9 ( [ +0.250000 +0.000000 +0.000000 ] spin -1 )
Dumping 'jdft.Ecomponents' ... done
IonicMinimize: Iter:   9  F: -3580.277319030220042  |grad|_K:  4.982e-05  alpha:  1.000e+00  linmin:  4.611e-04  t[s]:  30660.25
IonicMinimize: Converged (|grad|_K<1.000000e-04).

#--- Lowdin population analysis ---
# oxidation-state Pt -0.037 -0.048 -0.039 -0.037 +0.011 +0.009 +0.011 +0.009 -0.010 -0.003 -0.002 -0.003 -0.019 -0.021 -0.021 -0.021 +0.075 +0.107 -0.079 +0.115 -0.029 -0.001 -0.003 -0.002 +0.010 +0.011 +0.010 +0.010 -0.039 -0.038 -0.039 -0.038 +0.110 +0.112 +0.113 +0.112 -0.027 -0.026 -0.030 -0.037
# magnetic-moments Pt -0.000 -0.000 -0.000 -0.000 -0.000 -0.000 -0.000 -0.000 -0.000 -0.000 -0.000 -0.000 -0.000 -0.000 -0.000 -0.000 +0.000 +0.000 -0.000 -0.000 -0.000 -0.000 -0.000 -0.000 -0.000 -0.000 -0.000 -0.000 -0.000 -0.000 -0.000 -0.000 -0.000 -0.000 -0.000 -0.000 -0.000 -0.000 -0.000 -0.000
# oxidation-state C +0.481
# magnetic-moments C -0.000
# oxidation-state O -0.099
# magnetic-moments O -0.000


Dumping 'jdft.n_up' ... done
Dumping 'jdft.n_dn' ... done
Dumping 'jdft.tau_up' ... done
Dumping 'jdft.tau_dn' ... done
Dumping 'jdft.eigenvals' ... done
Dumping 'jdft.eigStats' ... 
	eMin: -2.148675 at state 0 ( [ +0.000000 +0.000000 +0.000000 ] spin 1 )
	HOMO: -0.188637 at state 2 ( [ +0.250000 +0.000000 +0.000000 ] spin 1 )
	mu  : -0.188462
	LUMO: -0.188183 at state 11 ( [ +0.250000 -0.333333 +0.000000 ] spin -1 )
	eMax: +0.089575 at state 1 ( [ +0.000000 +0.333333 +0.000000 ] spin 1 )
	HOMO-LUMO gap: +0.000454
	Optical gap  : +0.000529 at state 9 ( [ +0.250000 +0.000000 +0.000000 ] spin -1 )
Dumping 'jdft.kPts' ... done
Dumping 'jdft.kMap' ... done
Dumping 'jdft.dosUp' ... done.
Dumping 'jdft.dosDn' ... done.
End date and time: Thu Feb 17 12:21:18 2022  (Duration: 0-8:32:01.37)
Done!
