
*************** JDFTx 1.7.0 (git hash 5f12716a) ***************

Start date and time: Sat Sep 10 11:45:53 2022
Executable /home/nisi6161/jdftx_alpine/build/jdftx with command-line: -i in
Running on hosts (process indices):  c3cpu-a2-u11-1.rc.int.colorado.edu (0-23)
Divided in process groups (process indices):  0 (0)  1 (1)  2 (2)  3 (3)  4 (4)  5 (5)  6 (6)  7 (7)  8 (8)  9 (9)  10 (10)  11 (11)  12 (12)  13 (13)  14 (14)  15 (15)  16 (16)  17 (17)  18 (18)  19 (19)  20 (20)  21 (21)  22 (22)  23 (23)
Resource initialization completed at t[s]:      0.01
Run totals: 24 processes, 64 threads, 0 GPUs


Input parsed successfully to the following command list (including defaults):

basis kpoint-dependent
converge-empty-states yes
coords-type Cartesian
core-overlap-check none
coulomb-interaction Periodic
davidson-band-ratio 1.1
density-of-states Etol 1.000000e-06 Esigma 1.000000e-03 \
		Complete \
	Total \
	OrthoOrbital Cu 1   s \
	OrthoOrbital Cu 1   p \
	OrthoOrbital Cu 1   px \
	OrthoOrbital Cu 1   py \
	OrthoOrbital Cu 1   pz \
	OrthoOrbital Cu 1   d \
	OrthoOrbital Cu 1   dxy \
	OrthoOrbital Cu 1   dyz \
	OrthoOrbital Cu 1   dz2 \
	OrthoOrbital Cu 1   dxz \
	OrthoOrbital Cu 1   dx2-y2 \
	OrthoOrbital Cu 2   s \
	OrthoOrbital Cu 2   p \
	OrthoOrbital Cu 2   px \
	OrthoOrbital Cu 2   py \
	OrthoOrbital Cu 2   pz \
	OrthoOrbital Cu 2   d \
	OrthoOrbital Cu 2   dxy \
	OrthoOrbital Cu 2   dyz \
	OrthoOrbital Cu 2   dz2 \
	OrthoOrbital Cu 2   dxz \
	OrthoOrbital Cu 2   dx2-y2 \
	OrthoOrbital Cu 3   s \
	OrthoOrbital Cu 3   p \
	OrthoOrbital Cu 3   px \
	OrthoOrbital Cu 3   py \
	OrthoOrbital Cu 3   pz \
	OrthoOrbital Cu 3   d \
	OrthoOrbital Cu 3   dxy \
	OrthoOrbital Cu 3   dyz \
	OrthoOrbital Cu 3   dz2 \
	OrthoOrbital Cu 3   dxz \
	OrthoOrbital Cu 3   dx2-y2 \
	OrthoOrbital Cu 4   s \
	OrthoOrbital Cu 4   p \
	OrthoOrbital Cu 4   px \
	OrthoOrbital Cu 4   py \
	OrthoOrbital Cu 4   pz \
	OrthoOrbital Cu 4   d \
	OrthoOrbital Cu 4   dxy \
	OrthoOrbital Cu 4   dyz \
	OrthoOrbital Cu 4   dz2 \
	OrthoOrbital Cu 4   dxz \
	OrthoOrbital Cu 4   dx2-y2 \
	OrthoOrbital Cu 5   s \
	OrthoOrbital Cu 5   p \
	OrthoOrbital Cu 5   px \
	OrthoOrbital Cu 5   py \
	OrthoOrbital Cu 5   pz \
	OrthoOrbital Cu 5   d \
	OrthoOrbital Cu 5   dxy \
	OrthoOrbital Cu 5   dyz \
	OrthoOrbital Cu 5   dz2 \
	OrthoOrbital Cu 5   dxz \
	OrthoOrbital Cu 5   dx2-y2 \
	OrthoOrbital Cu 6   s \
	OrthoOrbital Cu 6   p \
	OrthoOrbital Cu 6   px \
	OrthoOrbital Cu 6   py \
	OrthoOrbital Cu 6   pz \
	OrthoOrbital Cu 6   d \
	OrthoOrbital Cu 6   dxy \
	OrthoOrbital Cu 6   dyz \
	OrthoOrbital Cu 6   dz2 \
	OrthoOrbital Cu 6   dxz \
	OrthoOrbital Cu 6   dx2-y2 \
	OrthoOrbital Cu 7   s \
	OrthoOrbital Cu 7   p \
	OrthoOrbital Cu 7   px \
	OrthoOrbital Cu 7   py \
	OrthoOrbital Cu 7   pz \
	OrthoOrbital Cu 7   d \
	OrthoOrbital Cu 7   dxy \
	OrthoOrbital Cu 7   dyz \
	OrthoOrbital Cu 7   dz2 \
	OrthoOrbital Cu 7   dxz \
	OrthoOrbital Cu 7   dx2-y2 \
	OrthoOrbital Cu 8   s \
	OrthoOrbital Cu 8   p \
	OrthoOrbital Cu 8   px \
	OrthoOrbital Cu 8   py \
	OrthoOrbital Cu 8   pz \
	OrthoOrbital Cu 8   d \
	OrthoOrbital Cu 8   dxy \
	OrthoOrbital Cu 8   dyz \
	OrthoOrbital Cu 8   dz2 \
	OrthoOrbital Cu 8   dxz \
	OrthoOrbital Cu 8   dx2-y2 \
	OrthoOrbital Cu 9   s \
	OrthoOrbital Cu 9   p \
	OrthoOrbital Cu 9   px \
	OrthoOrbital Cu 9   py \
	OrthoOrbital Cu 9   pz \
	OrthoOrbital Cu 9   d \
	OrthoOrbital Cu 9   dxy \
	OrthoOrbital Cu 9   dyz \
	OrthoOrbital Cu 9   dz2 \
	OrthoOrbital Cu 9   dxz \
	OrthoOrbital Cu 9   dx2-y2 \
	OrthoOrbital Cu 10   s \
	OrthoOrbital Cu 10   p \
	OrthoOrbital Cu 10   px \
	OrthoOrbital Cu 10   py \
	OrthoOrbital Cu 10   pz \
	OrthoOrbital Cu 10   d \
	OrthoOrbital Cu 10   dxy \
	OrthoOrbital Cu 10   dyz \
	OrthoOrbital Cu 10   dz2 \
	OrthoOrbital Cu 10   dxz \
	OrthoOrbital Cu 10   dx2-y2 \
	OrthoOrbital Cu 11   s \
	OrthoOrbital Cu 11   p \
	OrthoOrbital Cu 11   px \
	OrthoOrbital Cu 11   py \
	OrthoOrbital Cu 11   pz \
	OrthoOrbital Cu 11   d \
	OrthoOrbital Cu 11   dxy \
	OrthoOrbital Cu 11   dyz \
	OrthoOrbital Cu 11   dz2 \
	OrthoOrbital Cu 11   dxz \
	OrthoOrbital Cu 11   dx2-y2 \
	OrthoOrbital Cu 12   s \
	OrthoOrbital Cu 12   p \
	OrthoOrbital Cu 12   px \
	OrthoOrbital Cu 12   py \
	OrthoOrbital Cu 12   pz \
	OrthoOrbital Cu 12   d \
	OrthoOrbital Cu 12   dxy \
	OrthoOrbital Cu 12   dyz \
	OrthoOrbital Cu 12   dz2 \
	OrthoOrbital Cu 12   dxz \
	OrthoOrbital Cu 12   dx2-y2 \
	OrthoOrbital Cu 13   s \
	OrthoOrbital Cu 13   p \
	OrthoOrbital Cu 13   px \
	OrthoOrbital Cu 13   py \
	OrthoOrbital Cu 13   pz \
	OrthoOrbital Cu 13   d \
	OrthoOrbital Cu 13   dxy \
	OrthoOrbital Cu 13   dyz \
	OrthoOrbital Cu 13   dz2 \
	OrthoOrbital Cu 13   dxz \
	OrthoOrbital Cu 13   dx2-y2 \
	OrthoOrbital Cu 14   s \
	OrthoOrbital Cu 14   p \
	OrthoOrbital Cu 14   px \
	OrthoOrbital Cu 14   py \
	OrthoOrbital Cu 14   pz \
	OrthoOrbital Cu 14   d \
	OrthoOrbital Cu 14   dxy \
	OrthoOrbital Cu 14   dyz \
	OrthoOrbital Cu 14   dz2 \
	OrthoOrbital Cu 14   dxz \
	OrthoOrbital Cu 14   dx2-y2 \
	OrthoOrbital Cu 15   s \
	OrthoOrbital Cu 15   p \
	OrthoOrbital Cu 15   px \
	OrthoOrbital Cu 15   py \
	OrthoOrbital Cu 15   pz \
	OrthoOrbital Cu 15   d \
	OrthoOrbital Cu 15   dxy \
	OrthoOrbital Cu 15   dyz \
	OrthoOrbital Cu 15   dz2 \
	OrthoOrbital Cu 15   dxz \
	OrthoOrbital Cu 15   dx2-y2 \
	OrthoOrbital Cu 16   s \
	OrthoOrbital Cu 16   p \
	OrthoOrbital Cu 16   px \
	OrthoOrbital Cu 16   py \
	OrthoOrbital Cu 16   pz \
	OrthoOrbital Cu 16   d \
	OrthoOrbital Cu 16   dxy \
	OrthoOrbital Cu 16   dyz \
	OrthoOrbital Cu 16   dz2 \
	OrthoOrbital Cu 16   dxz \
	OrthoOrbital Cu 16   dx2-y2 \
	OrthoOrbital Cu 17   s \
	OrthoOrbital Cu 17   p \
	OrthoOrbital Cu 17   px \
	OrthoOrbital Cu 17   py \
	OrthoOrbital Cu 17   pz \
	OrthoOrbital Cu 17   d \
	OrthoOrbital Cu 17   dxy \
	OrthoOrbital Cu 17   dyz \
	OrthoOrbital Cu 17   dz2 \
	OrthoOrbital Cu 17   dxz \
	OrthoOrbital Cu 17   dx2-y2 \
	OrthoOrbital Cu 18   s \
	OrthoOrbital Cu 18   p \
	OrthoOrbital Cu 18   px \
	OrthoOrbital Cu 18   py \
	OrthoOrbital Cu 18   pz \
	OrthoOrbital Cu 18   d \
	OrthoOrbital Cu 18   dxy \
	OrthoOrbital Cu 18   dyz \
	OrthoOrbital Cu 18   dz2 \
	OrthoOrbital Cu 18   dxz \
	OrthoOrbital Cu 18   dx2-y2 \
	OrthoOrbital Cu 19   s \
	OrthoOrbital Cu 19   p \
	OrthoOrbital Cu 19   px \
	OrthoOrbital Cu 19   py \
	OrthoOrbital Cu 19   pz \
	OrthoOrbital Cu 19   d \
	OrthoOrbital Cu 19   dxy \
	OrthoOrbital Cu 19   dyz \
	OrthoOrbital Cu 19   dz2 \
	OrthoOrbital Cu 19   dxz \
	OrthoOrbital Cu 19   dx2-y2
dump End ElecDensity KEdensity BandEigs EigStats RhoAtom DOS Kpoints
dump Ionic State IonicPositions Lattice EigStats Ecomponents
dump 
dump 
dump 
dump 
dump 
dump 
dump 
dump 
dump-name jdft.$VAR
elec-cutoff 20
elec-eigen-algo Davidson
elec-ex-corr gga-PBE
elec-initial-magnetization 0.000000 no
elec-n-bands 217
elec-smearing Fermi 0.001
electronic-minimize  \
	dirUpdateScheme      FletcherReeves \
	linminMethod         DirUpdateRecommended \
	nIterations          100 \
	history              15 \
	knormThreshold       0 \
	energyDiffThreshold  1e-07 \
	nEnergyDiff          2 \
	alphaTstart          1 \
	alphaTmin            1e-10 \
	updateTestStepSize   yes \
	alphaTreduceFactor   0.1 \
	alphaTincreaseFactor 3 \
	nAlphaAdjustMax      3 \
	wolfeEnergy          0.0001 \
	wolfeGradient        0.9 \
	fdTest               no
exchange-regularization WignerSeitzTruncated
fluid LinearPCM 298.000000 1.013250
fluid-anion F- 0.5 MeanFieldLJ \
	epsBulk 1 \
	pMol 0 \
	epsInf 1 \
	Pvap 0 \
	sigmaBulk 0 \
	Rvdw 2.24877 \
	Res 0 \
	tauNuc 343133
fluid-cation Na+ 0.5 MeanFieldLJ \
	epsBulk 1 \
	pMol 0 \
	epsInf 1 \
	Pvap 0 \
	sigmaBulk 0 \
	Rvdw 2.19208 \
	Res 0 \
	tauNuc 343133
fluid-ex-corr lda-TF lda-PZ
fluid-gummel-loop 10 1.000000e-05
fluid-minimize  \
	dirUpdateScheme      PolakRibiere \
	linminMethod         DirUpdateRecommended \
	nIterations          400 \
	history              15 \
	knormThreshold       1e-11 \
	energyDiffThreshold  0 \
	nEnergyDiff          2 \
	alphaTstart          1 \
	alphaTmin            1e-10 \
	updateTestStepSize   yes \
	alphaTreduceFactor   0.1 \
	alphaTincreaseFactor 3 \
	nAlphaAdjustMax      6 \
	wolfeEnergy          0.0001 \
	wolfeGradient        0.9 \
	fdTest               no
fluid-solvent H2O 55.338 ScalarEOS \
	epsBulk 78.4 \
	pMol 0.92466 \
	epsInf 1.77 \
	Pvap 1.06736e-10 \
	sigmaBulk 4.62e-05 \
	Rvdw 2.61727 \
	Res 1.42 \
	tauNuc 343133 \
	poleEl 15 7 1
forces-output-coords Positions
initial-state jdft.$VAR
ion Cu  -0.001192000000000   6.551329999999999  57.875622000000000 1
ion Cu   2.384365000000000   2.713236000000000  56.511113999999999 1
ion Cu   2.383933000000000   9.358260999999999  54.979354999999998 1
ion Cu   4.766687000000001   0.010170000000000  30.269175000000001 1
ion Cu   0.001227000000000   5.468847000000000  53.342286000000001 1
ion Cu   2.382413000000000   1.623938000000000  51.806179000000000 1
ion Cu   2.383783000000001   8.198257999999999  50.270775999999998 1
ion Cu  -0.000141000000000   4.368402000000000  48.719977000000000 1
ion Cu   2.383995000000000   0.540572000000000  47.161772999999997 1
ion Cu   2.385032000000001   7.104253999999999  45.627488000000000 1
ion Cu  -0.000224000000000   3.280808000000000  44.077629000000002 1
ion Cu  -0.001230000000000   9.845476999999999  42.527593000000003 1
ion Cu   2.383421000000000   6.020554999999999  40.992544000000002 1
ion Cu  -0.000391000000000   2.193390000000000  39.433047000000002 1
ion Cu  -0.000362000000000   8.751514000000000  37.881014000000000 1
ion Cu   2.385018000000001   4.937354999999999  36.343730999999998 1
ion Cu  -0.001792000000000   1.092134000000000  34.806272000000000 1
ion Cu  -0.001313000000000   7.591946999999999  33.167262999999998 1
ion Cu   2.383185000000001   3.847100999999999  31.635328000000001 1
ion-species /projects/musgravc/apps/jdftx-1.6.0/build/pseudopotentials/GBRV_v1.5/$ID_pbe_v1.uspp
ion-species /projects/musgravc/apps/jdftx-1.6.0/build/pseudopotentials/GBRV_v1.5/$ID_pbe_v1.2.uspp
ion-species /projects/musgravc/apps/jdftx-1.6.0/build/pseudopotentials/GBRV_v1.5/$ID_pbe_v1.4.uspp
ion-species /projects/musgravc/apps/jdftx-1.6.0/build/pseudopotentials/GBRV_v1.5/$ID_pbe_v1.5.uspp
ion-width Ecut
ionic-minimize  \
	dirUpdateScheme      L-BFGS \
	linminMethod         DirUpdateRecommended \
	nIterations          100 \
	history              15 \
	knormThreshold       0.0001 \
	energyDiffThreshold  0.0001 \
	nEnergyDiff          2 \
	alphaTstart          1 \
	alphaTmin            1e-10 \
	updateTestStepSize   yes \
	alphaTreduceFactor   0.1 \
	alphaTincreaseFactor 3 \
	nAlphaAdjustMax      3 \
	wolfeEnergy          0.0001 \
	wolfeGradient        0.9 \
	fdTest               no
kpoint   0.000000000000   0.000000000000   0.000000000000  1.00000000000000
kpoint-folding 11 5 1 
latt-move-scale 0 0 0
latt-scale 1 1 1 
lattice  \
	   4.766623000000000   -2.383311000000000    0.000000000000000  \
	   0.000000000000000   10.388614000000000    0.000000000000000  \
	   0.000000000000000    0.000000000000000   58.766880999999998 
lattice-minimize  \
	dirUpdateScheme      L-BFGS \
	linminMethod         DirUpdateRecommended \
	nIterations          0 \
	history              15 \
	knormThreshold       0 \
	energyDiffThreshold  1e-06 \
	nEnergyDiff          2 \
	alphaTstart          1 \
	alphaTmin            1e-10 \
	updateTestStepSize   yes \
	alphaTreduceFactor   0.1 \
	alphaTincreaseFactor 3 \
	nAlphaAdjustMax      3 \
	wolfeEnergy          0.0001 \
	wolfeGradient        0.9 \
	fdTest               no
lcao-params 30 1e-06 0.001
pcm-variant CANDLE
spintype z-spin
subspace-rotation-factor 1 yes
symmetries automatic
symmetry-threshold 0.0001
target-mu -0.208 no

van-der-waals D3



---------- Setting up symmetries ----------

Found 8 point-group symmetries of the bravais lattice
Found 1 space-group symmetries with basis
Applied RMS atom displacement 0 bohrs to make symmetries exact.

---------- Initializing the Grid ----------
R = 
[      4.76662     -2.38331            0  ]
[            0      10.3886            0  ]
[            0            0      58.7669  ]
unit cell volume = 2910.05
G =
[    1.31816   0.302407         -0  ]
[          0   0.604815          0  ]
[          0         -0   0.106917  ]
Minimum fftbox size, Smin = [  20  44  240  ]
Chosen fftbox size, S = [  20  48  240  ]

---------- Exchange Correlation functional ----------
Initalized PBE GGA exchange.
Initalized PBE GGA correlation.

---------- Setting up pseudopotentials ----------
Width of ionic core gaussian charges (only for fluid interactions / plotting) set to 0.397384

Reading pseudopotential file '/projects/musgravc/apps/jdftx-1.6.0/build/pseudopotentials/GBRV_v1.5/cu_pbe_v1.2.uspp':
  Title: Cu.  Created by USPP 7.3.6 on 3-2-2014
  Reference state energy: -201.059491.  19 valence electrons in orbitals:
    |300>  occupation: 2  eigenvalue: -5.020764
    |310>  occupation: 6  eigenvalue: -3.445588
    |320>  occupation: 8  eigenvalue: -0.925168
    |400>  occupation: 2  eigenvalue: -0.567638
    |410>  occupation: 0  eigenvalue: -0.326154
  lMax: 2  lLocal: 3  QijEcut: 6
  6 projectors sampled on a log grid with 613 points:
    l: 0  eig: -5.020767  rCut: 1.4
    l: 0  eig: -0.567640  rCut: 1.4
    l: 1  eig: -3.445589  rCut: 1.55
    l: 1  eig: -0.326157  rCut: 1.55
    l: 2  eig: -0.925170  rCut: 1.5
    l: 2  eig: 1.500000  rCut: 1.5
  Partial core density with radius 0.8
  Transforming core density to a uniform radial grid of dG=0.02 with 1276 points.
  Transforming local potential to a uniform radial grid of dG=0.02 with 1276 points.
  Transforming nonlocal projectors to a uniform radial grid of dG=0.02 with 432 points.
  Transforming density augmentations to a uniform radial grid of dG=0.02 with 1276 points.
  Transforming atomic orbitals to a uniform radial grid of dG=0.02 with 432 points.
  Core radius for overlap checks: 1.55 bohrs.

Initialized 1 species with 19 total atoms.

Folded 1 k-points by 11x5x1 to 55 k-points.

---------- Setting up k-points, bands, fillings ----------
Adding inversion symmetry to k-mesh for non-inversion-symmetric unit cell.
Reduced to 28 k-points under symmetry. 
Computing the number of bands and number of electrons
Reading initial fillings from file jdft.fillings.
nElectrons: 360.350620   nBands: 217   nStates: 56

----- Setting up reduced wavefunction bases (one per k-point) -----
average nbasis = 12434.636 , ideal nbasis = 12431.973

----- Initializing Supercell corresponding to k-point mesh -----
Lattice vector linear combinations in supercell:
[  11   0   0  ]
[   0   5   0  ]
[   0   0   1  ]
Supercell lattice vectors:
[  52.4329  -11.9166  0  ]
[  0  51.9431  0  ]
[  0  0  58.7669  ]

Initializing DFT-D3 calculator:
	Parameters set for gga-PBE functional
	s6:  1.000  s_r6:  1.217
	s8:  0.722  s_r8:  1.000
	Per-atom parameters loaded for:
	Cu:  sqrtQ[a0]:  5.226  Rcov[a0]:  1.909  CN: [ 0.00 0.96 ]

Initializing DFT-D2 calculator for fluid / solvation:
	Cu:  C6:  187.33 Eh-a0^6  R0: 2.952 a0

---------- Setting up ewald sum ----------
Optimum gaussian width for ewald sums = 3.486729 bohr.
Real space sum over 1045 unit cells with max indices [  9  5  2  ]
Reciprocal space sum over 6435 terms with max indices [  4  6  27  ]

Computing DFT-D3 correction:
# coordination-number Cu 5.574 6.873 8.366 5.571 9.037 9.097 9.118 9.156 9.157 9.161 9.167 9.156 9.151 9.145 9.105 9.084 9.026 8.356 6.868
# diagonal-C6 Cu 175.00 175.00 175.00 175.00 175.00 175.00 175.00 175.00 175.00 175.00 175.00 175.00 175.00 175.00 175.00 175.00 175.00 175.00 175.00
EvdW_6 =   -0.124688
EvdW_8 =   -0.180418

---------- Allocating electronic variables ----------
Initializing wave functions:  reading from 'jdft.wfns'
----- createFluidSolver() ----- (Fluid-side solver setup)
   Initializing fluid molecule 'H2O'
     Initializing site 'O'
       Electron density: proportional to exp(-r/0.36935)*erfc((r-0.51523)/0.36823) with norm 6.826
       Charge density: gaussian nuclear width 0.478731 with net site charge 0.826
       Polarizability: cuspless exponential with width 0.32 and norm 3.73
       Hard sphere radius: 2.57003 bohrs
       Positions in reference frame:
         [ +0.000000 +0.000000 +0.000000 ]
     Initializing site 'H'
       Electron density: proportional to exp(-r/0.34641)*erfc((r-0)/0.390882) with norm 0.587
       Charge density: gaussian nuclear width 0.377945 with net site charge -0.413
       Polarizability: cuspless exponential with width 0.39 and norm 3.3
       Positions in reference frame:
         [ +0.000000 -1.441945 +1.122523 ]
         [ +0.000000 +1.441945 +1.122523 ]
     Net charge: 0   dipole magnitude: 0.927204
     Initializing spherical shell mfKernel with radius 2.61727 Bohr
     deltaS corrections:
       site 'O': -7.54299
       site 'H': -6.83917
   Initializing fluid molecule 'Na+'
     Initializing site 'Na'
       Electron density: proportional to exp(-r/0.19682)*erfc((r-0.71491)/0.41314) with norm 8.1383
       Charge density: gaussian nuclear width 0.365347 with net site charge -1
       Hard sphere radius: 1.86327 bohrs
       Positions in reference frame:
         [ +0.000000 +0.000000 +0.000000 ]
     Net charge: -1   dipole magnitude: 0
     Initializing gaussian mfKernel with width: 1.55004 Bohr
     deltaS corrections:
       site 'Na': -22.3555
   Initializing fluid molecule 'F-'
     Initializing site 'F'
       Electron density: proportional to exp(-r/0.38886)*erfc((r-0)/0.438782) with norm 8
       Charge density: gaussian nuclear width 0.374796 with net site charge 1
       Hard sphere radius: 2.39995 bohrs
       Positions in reference frame:
         [ +0.000000 +0.000000 +0.000000 ]
     Net charge: 1   dipole magnitude: 0
     Initializing gaussian mfKernel with width: 1.59012 Bohr
     deltaS corrections:
       site 'F': -9.04335

Correction to mu due to finite nuclear width = -0.123085
   Cavity determined by nc: 0.00142 and sigma: 0.707107
   Nonlocal vdW cavity from gaussian model electron density with norm = 8 and sigma = 0.993594 bohr
   Charge asymmetry in cavity with sensitivity pCavity = 36.5 e-bohr/Eh
   Electrostatic cavity expanded by eta = 1.46 bohrs
   Weighted density cavitation model constrained by Nbulk: 0.0049383 bohr^-3, Pvap: 3.14029 kPa, Rvdw: 2.61727 bohr and sigmaBulk: 4.62e-05 Eh/bohr^2 at T: 298 K.
   Weighted density dispersion model using vdW pair potentials with single solvent site with sqrtC6eff: 0.77 SI.
Reading fluid state from 'jdft.fluidState'


---- Citations for features of the code used in this run ----

   Software package:
      R. Sundararaman, K. Letchworth-Weaver, K.A. Schwarz, D. Gunceler, Y. Ozhabes and T.A. Arias, 'JDFTx: software for joint density-functional theory', SoftwareX 6, 278 (2017)

   gga-PBE exchange-correlation functional:
      J.P. Perdew, K. Burke and M. Ernzerhof, Phys. Rev. Lett. 77, 3865 (1996)

   Pseudopotentials:
      KF Garrity, JW Bennett, KM Rabe and D Vanderbilt, Comput. Mater. Sci. 81, 446 (2014)

   DFT-D3 dispersion correction:
      S. Grimme, J. Antony, S. Ehrlich and H. Krieg, J. Chem. Phys. 132, 154104 (2010)

   DFT-D2 dispersion correction:
      S. Grimme, J. Comput. Chem. 27, 1787 (2006)

   Charge-asymmetric nonlocally-determined local-electric (CANDLE) solvation model:
      R. Sundararaman and W.A. Goddard III, J. Chem. Phys. 142, 064107 (2015)

   Total energy minimization with Auxiliary Hamiltonian:
      C. Freysoldt, S. Boeck, and J. Neugebauer, Phys. Rev. B 79, 241103(R) (2009)

   Grand-canonical (fixed-potential) DFT:
      R. Sundararaman, W. A. Goddard III and T. A. Arias, J. Chem. Phys. 146, 114104 (2017)

   Linear-tetrahedron sampling for density of states:
      G. Lehmann and M. Taut, Phys. status solidi (b) 54, 469 (1972)

This list may not be complete. Please suggest additional citations or
report any other bugs at https://github.com/shankar1729/jdftx/issues

Initialization completed successfully at t[s]:     13.84


Computing DFT-D3 correction:
# coordination-number Cu 5.574 6.873 8.366 5.571 9.037 9.097 9.118 9.156 9.157 9.161 9.167 9.156 9.151 9.145 9.105 9.084 9.026 8.356 6.868
# diagonal-C6 Cu 175.00 175.00 175.00 175.00 175.00 175.00 175.00 175.00 175.00 175.00 175.00 175.00 175.00 175.00 175.00 175.00 175.00 175.00 175.00
EvdW_6 =   -0.124688
EvdW_8 =   -0.180418
Shifting auxilliary hamiltonian by 0.036688 to set nElectrons=360.350620

-------- Electronic minimization -----------
	Linear fluid (dielectric constant: 78.4, screening length: 8.12261 Bohr) occupying 0.376965 of unit cell:	Completed after 27 iterations at t[s]:     25.11
	FillingsUpdate:  mu: -0.208000000  nElectrons: 360.350620  magneticMoment: [ Abs: 0.00002  Tot: +0.00000 ]
ElecMinimize: Iter:   0  G: -3759.296954404370808  |grad|_K:  1.515e-04  alpha:  1.000e+00
	Linear fluid (dielectric constant: 78.4, screening length: 8.12261 Bohr) occupying 0.429771 of unit cell:	Completed after 35 iterations at t[s]:     77.86
	Linear fluid (dielectric constant: 78.4, screening length: 8.12261 Bohr) occupying 0.377114 of unit cell:	Completed after 33 iterations at t[s]:     96.49
	FillingsUpdate:  mu: -0.208000000  nElectrons: 360.725684  magneticMoment: [ Abs: 0.00002  Tot: +0.00000 ]
	SubspaceRotationAdjust: set factor to 0.694
ElecMinimize: Iter:   1  G: -3759.449679240530713  |grad|_K:  1.819e-04  alpha:  4.105e-02  linmin: -2.247e-03  t[s]:    121.57
	Linear fluid (dielectric constant: 78.4, screening length: 8.12261 Bohr) occupying 0.376459 of unit cell:	Completed after 26 iterations at t[s]:    143.54
	Linear fluid (dielectric constant: 78.4, screening length: 8.12261 Bohr) occupying 0.376428 of unit cell:	Completed after 22 iterations at t[s]:    160.57
	FillingsUpdate:  mu: -0.208000000  nElectrons: 360.394982  magneticMoment: [ Abs: 0.00002  Tot: +0.00000 ]
	SubspaceRotationAdjust: set factor to 0.333
ElecMinimize: Iter:   2  G: -3759.708414119678764  |grad|_K:  1.425e-04  alpha:  4.344e-02  linmin:  3.731e-04  t[s]:    185.96
	Linear fluid (dielectric constant: 78.4, screening length: 8.12261 Bohr) occupying 0.376268 of unit cell:	Completed after 24 iterations at t[s]:    208.66
	Linear fluid (dielectric constant: 78.4, screening length: 8.12261 Bohr) occupying 0.376161 of unit cell:	Completed after 24 iterations at t[s]:    226.49
	FillingsUpdate:  mu: -0.208000000  nElectrons: 360.746048  magneticMoment: [ Abs: 0.00001  Tot: +0.00000 ]
	SubspaceRotationAdjust: set factor to 0.19
ElecMinimize: Iter:   3  G: -3759.898720418490939  |grad|_K:  1.060e-04  alpha:  6.115e-02  linmin: -4.530e-04  t[s]:    252.11
	Linear fluid (dielectric constant: 78.4, screening length: 8.12261 Bohr) occupying 0.375718 of unit cell:	Completed after 25 iterations at t[s]:    275.48
	Linear fluid (dielectric constant: 78.4, screening length: 8.12261 Bohr) occupying 0.375374 of unit cell:	Completed after 24 iterations at t[s]:    293.40
	FillingsUpdate:  mu: -0.208000000  nElectrons: 360.615093  magneticMoment: [ Abs: 0.00001  Tot: +0.00000 ]
	SubspaceRotationAdjust: set factor to 0.225
ElecMinimize: Iter:   4  G: -3760.097436295707212  |grad|_K:  3.549e-05  alpha:  1.078e-01  linmin:  1.738e-04  t[s]:    319.90
	Linear fluid (dielectric constant: 78.4, screening length: 8.12261 Bohr) occupying 0.375167 of unit cell:	Completed after 22 iterations at t[s]:    341.88
	Linear fluid (dielectric constant: 78.4, screening length: 8.12261 Bohr) occupying 0.375118 of unit cell:	Completed after 22 iterations at t[s]:    358.73
	FillingsUpdate:  mu: -0.208000000  nElectrons: 360.573428  magneticMoment: [ Abs: 0.00001  Tot: +0.00000 ]
	SubspaceRotationAdjust: set factor to 0.229
ElecMinimize: Iter:   5  G: -3760.122522674731044  |grad|_K:  2.591e-05  alpha:  1.321e-01  linmin: -3.935e-05  t[s]:    384.51
	Linear fluid (dielectric constant: 78.4, screening length: 8.12261 Bohr) occupying 0.374875 of unit cell:	Completed after 24 iterations at t[s]:    407.11
	Linear fluid (dielectric constant: 78.4, screening length: 8.12261 Bohr) occupying 0.374806 of unit cell:	Completed after 21 iterations at t[s]:    424.96
	FillingsUpdate:  mu: -0.208000000  nElectrons: 360.633450  magneticMoment: [ Abs: 0.00001  Tot: +0.00000 ]
	SubspaceRotationAdjust: set factor to 0.185
ElecMinimize: Iter:   6  G: -3760.139736588738742  |grad|_K:  2.118e-05  alpha:  1.682e-01  linmin:  1.225e-04  t[s]:    451.18
	Linear fluid (dielectric constant: 78.4, screening length: 8.12261 Bohr) occupying 0.374339 of unit cell:	Completed after 24 iterations at t[s]:    474.19
	Linear fluid (dielectric constant: 78.4, screening length: 8.12261 Bohr) occupying 0.374566 of unit cell:	Completed after 22 iterations at t[s]:    491.99
	FillingsUpdate:  mu: -0.208000000  nElectrons: 360.561014  magneticMoment: [ Abs: 0.00001  Tot: +0.00000 ]
	SubspaceRotationAdjust: set factor to 0.132
	SubspaceRotationAdjust: resetting CG because factor has changed by 0.131729
	Linear fluid (dielectric constant: 78.4, screening length: 8.12261 Bohr) occupying 0.374566 of unit cell:	Completed after 0 iterations at t[s]:    526.79
ElecMinimize: 	State modified externally: resetting search direction.
ElecMinimize: Iter:   7  G: -3760.145627342830721  |grad|_K:  1.214e-05  alpha:  8.873e-02
	Linear fluid (dielectric constant: 78.4, screening length: 8.12261 Bohr) occupying 0.374549 of unit cell:	Completed after 22 iterations at t[s]:    574.04
	Linear fluid (dielectric constant: 78.4, screening length: 8.12261 Bohr) occupying 0.374542 of unit cell:	Completed after 19 iterations at t[s]:    591.07
	FillingsUpdate:  mu: -0.208000000  nElectrons: 360.587991  magneticMoment: [ Abs: 0.00001  Tot: +0.00000 ]
	SubspaceRotationAdjust: set factor to 0.191
ElecMinimize: Iter:   8  G: -3760.148312026897202  |grad|_K:  7.519e-06  alpha:  1.196e-01  linmin:  1.069e-04  t[s]:    616.75
	Linear fluid (dielectric constant: 78.4, screening length: 8.12261 Bohr) occupying 0.374449 of unit cell:	Completed after 22 iterations at t[s]:    639.91
	Linear fluid (dielectric constant: 78.4, screening length: 8.12261 Bohr) occupying 0.374377 of unit cell:	Completed after 21 iterations at t[s]:    657.53
	FillingsUpdate:  mu: -0.208000000  nElectrons: 360.575668  magneticMoment: [ Abs: 0.00001  Tot: +0.00000 ]
	SubspaceRotationAdjust: set factor to 0.246
ElecMinimize: Iter:   9  G: -3760.150119812799858  |grad|_K:  6.597e-06  alpha:  2.105e-01  linmin:  3.889e-07  t[s]:    683.29
	Linear fluid (dielectric constant: 78.4, screening length: 8.12261 Bohr) occupying 0.374105 of unit cell:	Completed after 19 iterations at t[s]:    706.22
	Linear fluid (dielectric constant: 78.4, screening length: 8.12261 Bohr) occupying 0.373853 of unit cell:	Completed after 18 iterations at t[s]:    723.97
	FillingsUpdate:  mu: -0.208000000  nElectrons: 360.553986  magneticMoment: [ Abs: 0.00001  Tot: +0.00000 ]
	SubspaceRotationAdjust: set factor to 0.278
ElecMinimize: Iter:  10  G: -3760.152774086905083  |grad|_K:  9.828e-06  alpha:  4.002e-01  linmin:  2.409e-07  t[s]:    749.48
	Linear fluid (dielectric constant: 78.4, screening length: 8.12261 Bohr) occupying 0.372425 of unit cell:	Completed after 24 iterations at t[s]:    771.64
	Linear fluid (dielectric constant: 78.4, screening length: 8.12261 Bohr) occupying 0.373413 of unit cell:	Completed after 24 iterations at t[s]:    789.14
	FillingsUpdate:  mu: -0.208000000  nElectrons: 360.579619  magneticMoment: [ Abs: 0.00001  Tot: +0.00000 ]
	SubspaceRotationAdjust: set factor to 0.233
ElecMinimize: Iter:  11  G: -3760.154704167213367  |grad|_K:  8.498e-06  alpha:  1.308e-01  linmin: -6.374e-07  t[s]:    814.60
	Linear fluid (dielectric constant: 78.4, screening length: 8.12261 Bohr) occupying 0.372957 of unit cell:	Completed after 22 iterations at t[s]:    837.69
	Linear fluid (dielectric constant: 78.4, screening length: 8.12261 Bohr) occupying 0.373035 of unit cell:	Completed after 15 iterations at t[s]:    854.92
	FillingsUpdate:  mu: -0.208000000  nElectrons: 360.552298  magneticMoment: [ Abs: 0.00000  Tot: +0.00000 ]
	SubspaceRotationAdjust: set factor to 0.187
ElecMinimize: Iter:  12  G: -3760.155905697219168  |grad|_K:  8.322e-06  alpha:  1.089e-01  linmin:  8.381e-06  t[s]:    880.48
	Linear fluid (dielectric constant: 78.4, screening length: 8.12261 Bohr) occupying 0.372647 of unit cell:	Completed after 16 iterations at t[s]:    903.11
	Linear fluid (dielectric constant: 78.4, screening length: 8.12261 Bohr) occupying 0.372065 of unit cell:	Completed after 19 iterations at t[s]:    920.81
	FillingsUpdate:  mu: -0.208000000  nElectrons: 360.569067  magneticMoment: [ Abs: 0.00000  Tot: +0.00000 ]
	SubspaceRotationAdjust: set factor to 0.221
ElecMinimize: Iter:  13  G: -3760.158670497731237  |grad|_K:  7.026e-06  alpha:  2.628e-01  linmin: -2.923e-07  t[s]:    946.97
	Linear fluid (dielectric constant: 78.4, screening length: 8.12261 Bohr) occupying 0.371274 of unit cell:	Completed after 21 iterations at t[s]:    968.71
	Linear fluid (dielectric constant: 78.4, screening length: 8.12261 Bohr) occupying 0.371702 of unit cell:	Completed after 16 iterations at t[s]:    985.41
	FillingsUpdate:  mu: -0.208000000  nElectrons: 360.584653  magneticMoment: [ Abs: 0.00000  Tot: +0.00000 ]
	SubspaceRotationAdjust: set factor to 0.228
ElecMinimize: Iter:  14  G: -3760.159605687759267  |grad|_K:  5.771e-06  alpha:  1.242e-01  linmin: -1.045e-06  t[s]:   1011.04
	Linear fluid (dielectric constant: 78.4, screening length: 8.12261 Bohr) occupying 0.371415 of unit cell:	Completed after 19 iterations at t[s]:   1033.59
	Linear fluid (dielectric constant: 78.4, screening length: 8.12261 Bohr) occupying 0.371295 of unit cell:	Completed after 15 iterations at t[s]:   1050.75
	FillingsUpdate:  mu: -0.208000000  nElectrons: 360.576580  magneticMoment: [ Abs: 0.00000  Tot: +0.00000 ]
	SubspaceRotationAdjust: set factor to 0.189
ElecMinimize: Iter:  15  G: -3760.160491660407388  |grad|_K:  6.011e-06  alpha:  1.748e-01  linmin:  1.312e-05  t[s]:   1076.60
	Linear fluid (dielectric constant: 78.4, screening length: 8.12261 Bohr) occupying 0.370831 of unit cell:	Completed after 22 iterations at t[s]:   1099.80
	Linear fluid (dielectric constant: 78.4, screening length: 8.12261 Bohr) occupying 0.371046 of unit cell:	Completed after 18 iterations at t[s]:   1117.24
	FillingsUpdate:  mu: -0.208000000  nElectrons: 360.602714  magneticMoment: [ Abs: 0.00000  Tot: +0.00000 ]
	SubspaceRotationAdjust: set factor to 0.142
ElecMinimize: Iter:  16  G: -3760.161019201119416  |grad|_K:  3.936e-06  alpha:  9.561e-02  linmin: -7.243e-06  t[s]:   1142.83
	Linear fluid (dielectric constant: 78.4, screening length: 8.12261 Bohr) occupying 0.370924 of unit cell:	Completed after 14 iterations at t[s]:   1165.43
	Linear fluid (dielectric constant: 78.4, screening length: 8.12261 Bohr) occupying 0.370759 of unit cell:	Completed after 15 iterations at t[s]:   1182.90
	FillingsUpdate:  mu: -0.208000000  nElectrons: 360.613196  magneticMoment: [ Abs: 0.00000  Tot: +0.00000 ]
	SubspaceRotationAdjust: set factor to 0.159
ElecMinimize: Iter:  17  G: -3760.161543932314089  |grad|_K:  3.881e-06  alpha:  2.218e-01  linmin:  1.993e-06  t[s]:   1208.95
	Linear fluid (dielectric constant: 78.4, screening length: 8.12261 Bohr) occupying 0.370448 of unit cell:	Completed after 19 iterations at t[s]:   1230.51
	Linear fluid (dielectric constant: 78.4, screening length: 8.12261 Bohr) occupying 0.370574 of unit cell:	Completed after 15 iterations at t[s]:   1247.17
	FillingsUpdate:  mu: -0.208000000  nElectrons: 360.612933  magneticMoment: [ Abs: 0.00000  Tot: +0.00000 ]
	SubspaceRotationAdjust: set factor to 0.141
ElecMinimize: Iter:  18  G: -3760.161849207599971  |grad|_K:  2.483e-06  alpha:  1.330e-01  linmin: -4.519e-07  t[s]:   1272.78
	Linear fluid (dielectric constant: 78.4, screening length: 8.12261 Bohr) occupying 0.370490 of unit cell:	Completed after 16 iterations at t[s]:   1295.13
	Linear fluid (dielectric constant: 78.4, screening length: 8.12261 Bohr) occupying 0.370472 of unit cell:	Completed after 13 iterations at t[s]:   1312.17
	FillingsUpdate:  mu: -0.208000000  nElectrons: 360.622703  magneticMoment: [ Abs: 0.00000  Tot: +0.00000 ]
	SubspaceRotationAdjust: set factor to 0.121
ElecMinimize: Iter:  19  G: -3760.162000778930633  |grad|_K:  2.070e-06  alpha:  1.612e-01  linmin:  4.690e-07  t[s]:   1337.89
	Linear fluid (dielectric constant: 78.4, screening length: 8.12261 Bohr) occupying 0.370382 of unit cell:	Completed after 14 iterations at t[s]:   1360.63
	Linear fluid (dielectric constant: 78.4, screening length: 8.12261 Bohr) occupying 0.370390 of unit cell:	Completed after 10 iterations at t[s]:   1377.61
	FillingsUpdate:  mu: -0.208000000  nElectrons: 360.622054  magneticMoment: [ Abs: 0.00000  Tot: +0.00000 ]
	SubspaceRotationAdjust: set factor to 0.138
ElecMinimize: Iter:  20  G: -3760.162097169178196  |grad|_K:  1.306e-06  alpha:  1.476e-01  linmin:  9.781e-07  t[s]:   1404.17
	Linear fluid (dielectric constant: 78.4, screening length: 8.12261 Bohr) occupying 0.370344 of unit cell:	Completed after 13 iterations at t[s]:   1425.64
	Linear fluid (dielectric constant: 78.4, screening length: 8.12261 Bohr) occupying 0.370336 of unit cell:	Completed after 11 iterations at t[s]:   1441.68
	FillingsUpdate:  mu: -0.208000000  nElectrons: 360.620362  magneticMoment: [ Abs: 0.00000  Tot: +0.00000 ]
	SubspaceRotationAdjust: set factor to 0.141
ElecMinimize: Iter:  21  G: -3760.162142463360397  |grad|_K:  1.321e-06  alpha:  1.743e-01  linmin:  1.528e-07  t[s]:   1467.42
	Linear fluid (dielectric constant: 78.4, screening length: 8.12261 Bohr) occupying 0.370269 of unit cell:	Completed after 15 iterations at t[s]:   1489.45
	Linear fluid (dielectric constant: 78.4, screening length: 8.12261 Bohr) occupying 0.370270 of unit cell:	Completed after 1 iterations at t[s]:   1505.78
	FillingsUpdate:  mu: -0.208000000  nElectrons: 360.622198  magneticMoment: [ Abs: 0.00000  Tot: -0.00000 ]
	SubspaceRotationAdjust: set factor to 0.153
ElecMinimize: Iter:  22  G: -3760.162188348066593  |grad|_K:  8.642e-07  alpha:  1.724e-01  linmin:  7.857e-06  t[s]:   1531.97
	Linear fluid (dielectric constant: 78.4, screening length: 8.12261 Bohr) occupying 0.370231 of unit cell:	Completed after 12 iterations at t[s]:   1553.99
	Linear fluid (dielectric constant: 78.4, screening length: 8.12261 Bohr) occupying 0.370234 of unit cell:	Completed after 2 iterations at t[s]:   1570.11
	FillingsUpdate:  mu: -0.208000000  nElectrons: 360.621969  magneticMoment: [ Abs: 0.00000  Tot: -0.00000 ]
	SubspaceRotationAdjust: set factor to 0.177
ElecMinimize: Iter:  23  G: -3760.162206462872291  |grad|_K:  8.024e-07  alpha:  1.592e-01  linmin:  5.900e-06  t[s]:   1596.55
	Linear fluid (dielectric constant: 78.4, screening length: 8.12261 Bohr) occupying 0.370193 of unit cell:	Completed after 12 iterations at t[s]:   1618.40
	Linear fluid (dielectric constant: 78.4, screening length: 8.12261 Bohr) occupying 0.370174 of unit cell:	Completed after 9 iterations at t[s]:   1634.28
	FillingsUpdate:  mu: -0.208000000  nElectrons: 360.622459  magneticMoment: [ Abs: 0.00000  Tot: -0.00000 ]
	SubspaceRotationAdjust: set factor to 0.206
ElecMinimize: Iter:  24  G: -3760.162228949119253  |grad|_K:  7.550e-07  alpha:  2.293e-01  linmin:  8.153e-06  t[s]:   1659.67
	Linear fluid (dielectric constant: 78.4, screening length: 8.12261 Bohr) occupying 0.370106 of unit cell:	Completed after 14 iterations at t[s]:   1681.64
	Linear fluid (dielectric constant: 78.4, screening length: 8.12261 Bohr) occupying 0.370129 of unit cell:	Completed after 12 iterations at t[s]:   1698.23
	FillingsUpdate:  mu: -0.208000000  nElectrons: 360.624083  magneticMoment: [ Abs: 0.00000  Tot: -0.00000 ]
	SubspaceRotationAdjust: set factor to 0.236
ElecMinimize: Iter:  25  G: -3760.162242105843688  |grad|_K:  6.821e-07  alpha:  1.515e-01  linmin:  7.499e-07  t[s]:   1724.42
	Linear fluid (dielectric constant: 78.4, screening length: 8.12261 Bohr) occupying 0.370081 of unit cell:	Completed after 14 iterations at t[s]:   1746.35
	Linear fluid (dielectric constant: 78.4, screening length: 8.12261 Bohr) occupying 0.370064 of unit cell:	Completed after 12 iterations at t[s]:   1763.50
	FillingsUpdate:  mu: -0.208000000  nElectrons: 360.624534  magneticMoment: [ Abs: 0.00000  Tot: -0.00000 ]
	SubspaceRotationAdjust: set factor to 0.253
ElecMinimize: Iter:  26  G: -3760.162256445300955  |grad|_K:  6.595e-07  alpha:  2.023e-01  linmin:  4.528e-06  t[s]:   1789.73
	Linear fluid (dielectric constant: 78.4, screening length: 8.12261 Bohr) occupying 0.369990 of unit cell:	Completed after 14 iterations at t[s]:   1812.54
	Linear fluid (dielectric constant: 78.4, screening length: 8.12261 Bohr) occupying 0.370018 of unit cell:	Completed after 13 iterations at t[s]:   1828.76
	FillingsUpdate:  mu: -0.208000000  nElectrons: 360.627561  magneticMoment: [ Abs: 0.00000  Tot: -0.00000 ]
	SubspaceRotationAdjust: set factor to 0.235
ElecMinimize: Iter:  27  G: -3760.162264768125169  |grad|_K:  6.099e-07  alpha:  1.257e-01  linmin:  7.512e-07  t[s]:   1853.73
	Linear fluid (dielectric constant: 78.4, screening length: 8.12261 Bohr) occupying 0.369968 of unit cell:	Completed after 13 iterations at t[s]:   1875.61
	Linear fluid (dielectric constant: 78.4, screening length: 8.12261 Bohr) occupying 0.369960 of unit cell:	Completed after 10 iterations at t[s]:   1891.96
	FillingsUpdate:  mu: -0.208000000  nElectrons: 360.626963  magneticMoment: [ Abs: 0.00000  Tot: -0.00000 ]
	SubspaceRotationAdjust: set factor to 0.201
ElecMinimize: Iter:  28  G: -3760.162273037194609  |grad|_K:  6.485e-07  alpha:  1.459e-01  linmin:  1.455e-06  t[s]:   1918.11
	Linear fluid (dielectric constant: 78.4, screening length: 8.12261 Bohr) occupying 0.369887 of unit cell:	Completed after 14 iterations at t[s]:   1940.47
	Linear fluid (dielectric constant: 78.4, screening length: 8.12261 Bohr) occupying 0.369886 of unit cell:	Completed after 2 iterations at t[s]:   1956.32
	FillingsUpdate:  mu: -0.208000000  nElectrons: 360.629840  magneticMoment: [ Abs: 0.00000  Tot: -0.00000 ]
	SubspaceRotationAdjust: set factor to 0.197
ElecMinimize: Iter:  29  G: -3760.162282566275735  |grad|_K:  5.086e-07  alpha:  1.487e-01  linmin: -4.142e-06  t[s]:   1982.46
	Linear fluid (dielectric constant: 78.4, screening length: 8.12261 Bohr) occupying 0.369832 of unit cell:	Completed after 11 iterations at t[s]:   2005.17
	Linear fluid (dielectric constant: 78.4, screening length: 8.12261 Bohr) occupying 0.369826 of unit cell:	Completed after 2 iterations at t[s]:   2021.29
	FillingsUpdate:  mu: -0.208000000  nElectrons: 360.630721  magneticMoment: [ Abs: 0.00000  Tot: -0.00000 ]
	SubspaceRotationAdjust: set factor to 0.211
ElecMinimize: Iter:  30  G: -3760.162289145386239  |grad|_K:  5.046e-07  alpha:  1.666e-01  linmin:  4.239e-07  t[s]:   2046.15
	Linear fluid (dielectric constant: 78.4, screening length: 8.12261 Bohr) occupying 0.369758 of unit cell:	Completed after 12 iterations at t[s]:   2067.99
	Linear fluid (dielectric constant: 78.4, screening length: 8.12261 Bohr) occupying 0.369750 of unit cell:	Completed after 6 iterations at t[s]:   2084.11
	FillingsUpdate:  mu: -0.208000000  nElectrons: 360.631577  magneticMoment: [ Abs: 0.00000  Tot: -0.00000 ]
	SubspaceRotationAdjust: set factor to 0.226
ElecMinimize: Iter:  31  G: -3760.162296413774129  |grad|_K:  3.859e-07  alpha:  1.873e-01  linmin: -3.554e-06  t[s]:   2109.60
	Linear fluid (dielectric constant: 78.4, screening length: 8.12261 Bohr) occupying 0.369701 of unit cell:	Completed after 13 iterations at t[s]:   2132.01
	Linear fluid (dielectric constant: 78.4, screening length: 8.12261 Bohr) occupying 0.369721 of unit cell:	Completed after 12 iterations at t[s]:   2148.66
	FillingsUpdate:  mu: -0.208000000  nElectrons: 360.632792  magneticMoment: [ Abs: 0.00000  Tot: -0.00000 ]
	SubspaceRotationAdjust: set factor to 0.207
ElecMinimize: Iter:  32  G: -3760.162298886345980  |grad|_K:  3.061e-07  alpha:  1.087e-01  linmin:  7.981e-07  t[s]:   2174.76
	Linear fluid (dielectric constant: 78.4, screening length: 8.12261 Bohr) occupying 0.369700 of unit cell:	Completed after 12 iterations at t[s]:   2197.31
	Linear fluid (dielectric constant: 78.4, screening length: 8.12261 Bohr) occupying 0.369691 of unit cell:	Completed after 10 iterations at t[s]:   2214.36
	FillingsUpdate:  mu: -0.208000000  nElectrons: 360.632126  magneticMoment: [ Abs: 0.00000  Tot: -0.00000 ]
	SubspaceRotationAdjust: set factor to 0.181
ElecMinimize: Iter:  33  G: -3760.162301124647456  |grad|_K:  3.307e-07  alpha:  1.568e-01  linmin:  1.640e-06  t[s]:   2239.61
	Linear fluid (dielectric constant: 78.4, screening length: 8.12261 Bohr) occupying 0.369653 of unit cell:	Completed after 12 iterations at t[s]:   2260.87
	Linear fluid (dielectric constant: 78.4, screening length: 8.12261 Bohr) occupying 0.369653 of unit cell:	Completed after 0 iterations at t[s]:   2276.61
	FillingsUpdate:  mu: -0.208000000  nElectrons: 360.633029  magneticMoment: [ Abs: 0.00000  Tot: -0.00000 ]
	SubspaceRotationAdjust: set factor to 0.19
ElecMinimize: Iter:  34  G: -3760.162303739875370  |grad|_K:  2.442e-07  alpha:  1.570e-01  linmin: -2.068e-06  t[s]:   2302.13
	Linear fluid (dielectric constant: 78.4, screening length: 8.12261 Bohr) occupying 0.369631 of unit cell:	Completed after 9 iterations at t[s]:   2324.36
	Linear fluid (dielectric constant: 78.4, screening length: 8.12261 Bohr) occupying 0.369632 of unit cell:	Completed after 1 iterations at t[s]:   2340.44
	FillingsUpdate:  mu: -0.208000000  nElectrons: 360.633370  magneticMoment: [ Abs: 0.00000  Tot: -0.00000 ]
	SubspaceRotationAdjust: set factor to 0.206
ElecMinimize: Iter:  35  G: -3760.162305110155103  |grad|_K:  2.154e-07  alpha:  1.507e-01  linmin:  3.688e-06  t[s]:   2365.97
	Linear fluid (dielectric constant: 78.4, screening length: 8.12261 Bohr) occupying 0.369615 of unit cell:	Completed after 11 iterations at t[s]:   2388.28
	Linear fluid (dielectric constant: 78.4, screening length: 8.12261 Bohr) occupying 0.369616 of unit cell:	Completed after 0 iterations at t[s]:   2404.58
	FillingsUpdate:  mu: -0.208000000  nElectrons: 360.632996  magneticMoment: [ Abs: 0.00000  Tot: -0.00000 ]
	SubspaceRotationAdjust: set factor to 0.188
ElecMinimize: Iter:  36  G: -3760.162306145437924  |grad|_K:  1.753e-07  alpha:  1.465e-01  linmin:  2.308e-05  t[s]:   2430.71
	Linear fluid (dielectric constant: 78.4, screening length: 8.12261 Bohr) occupying 0.369606 of unit cell:	Completed after 11 iterations at t[s]:   2451.73
	Linear fluid (dielectric constant: 78.4, screening length: 8.12261 Bohr) occupying 0.369608 of unit cell:	Completed after 9 iterations at t[s]:   2467.96
	FillingsUpdate:  mu: -0.208000000  nElectrons: 360.633528  magneticMoment: [ Abs: 0.00000  Tot: -0.00000 ]
	SubspaceRotationAdjust: set factor to 0.165
ElecMinimize: Iter:  37  G: -3760.162306651229301  |grad|_K:  1.376e-07  alpha:  1.089e-01  linmin: -2.679e-05  t[s]:   2493.59
	Linear fluid (dielectric constant: 78.4, screening length: 8.12261 Bohr) occupying 0.369604 of unit cell:	Completed after 7 iterations at t[s]:   2515.10
	Linear fluid (dielectric constant: 78.4, screening length: 8.12261 Bohr) occupying 0.369601 of unit cell:	Completed after 7 iterations at t[s]:   2531.73
	FillingsUpdate:  mu: -0.208000000  nElectrons: 360.633425  magneticMoment: [ Abs: 0.00000  Tot: -0.00000 ]
	SubspaceRotationAdjust: set factor to 0.187
ElecMinimize: Iter:  38  G: -3760.162307179178697  |grad|_K:  1.269e-07  alpha:  1.819e-01  linmin: -6.038e-06  t[s]:   2557.64
	Linear fluid (dielectric constant: 78.4, screening length: 8.12261 Bohr) occupying 0.369597 of unit cell:	Completed after 10 iterations at t[s]:   2579.99
	Linear fluid (dielectric constant: 78.4, screening length: 8.12261 Bohr) occupying 0.369598 of unit cell:	Completed after 2 iterations at t[s]:   2596.23
	FillingsUpdate:  mu: -0.208000000  nElectrons: 360.633297  magneticMoment: [ Abs: 0.00000  Tot: -0.00000 ]
	SubspaceRotationAdjust: set factor to 0.21
ElecMinimize: Iter:  39  G: -3760.162307515620341  |grad|_K:  9.880e-08  alpha:  1.368e-01  linmin:  5.494e-05  t[s]:   2622.80
	Linear fluid (dielectric constant: 78.4, screening length: 8.12261 Bohr) occupying 0.369597 of unit cell:	Completed after 10 iterations at t[s]:   2644.10
	Linear fluid (dielectric constant: 78.4, screening length: 8.12261 Bohr) occupying 0.369597 of unit cell:	Completed after 1 iterations at t[s]:   2659.32
	FillingsUpdate:  mu: -0.208000000  nElectrons: 360.633595  magneticMoment: [ Abs: 0.00000  Tot: -0.00000 ]
	SubspaceRotationAdjust: set factor to 0.196
ElecMinimize: Iter:  40  G: -3760.162307734570732  |grad|_K:  1.073e-07  alpha:  1.471e-01  linmin: -3.291e-04  t[s]:   2684.84
	Linear fluid (dielectric constant: 78.4, screening length: 8.12261 Bohr) occupying 0.369597 of unit cell:	Completed after 10 iterations at t[s]:   2706.45
	Linear fluid (dielectric constant: 78.4, screening length: 8.12261 Bohr) occupying 0.369597 of unit cell:	Completed after 0 iterations at t[s]:   2722.50
	FillingsUpdate:  mu: -0.208000000  nElectrons: 360.633351  magneticMoment: [ Abs: 0.00000  Tot: -0.00000 ]
	SubspaceRotationAdjust: set factor to 0.206
ElecMinimize: Iter:  41  G: -3760.162308008052150  |grad|_K:  8.424e-08  alpha:  1.488e-01  linmin:  3.774e-05  t[s]:   2748.54
	Linear fluid (dielectric constant: 78.4, screening length: 8.12261 Bohr) occupying 0.369598 of unit cell:	Completed after 2 iterations at t[s]:   2769.70
	Linear fluid (dielectric constant: 78.4, screening length: 8.12261 Bohr) occupying 0.369598 of unit cell:	Completed after 0 iterations at t[s]:   2785.81
	FillingsUpdate:  mu: -0.208000000  nElectrons: 360.633315  magneticMoment: [ Abs: 0.00000  Tot: -0.00000 ]
	SubspaceRotationAdjust: set factor to 0.246
ElecMinimize: Iter:  42  G: -3760.162308162145109  |grad|_K:  7.351e-08  alpha:  1.431e-01  linmin:  5.298e-06  t[s]:   2812.10
	Linear fluid (dielectric constant: 78.4, screening length: 8.12261 Bohr) occupying 0.369599 of unit cell:	Completed after 9 iterations at t[s]:   2834.30
	Linear fluid (dielectric constant: 78.4, screening length: 8.12261 Bohr) occupying 0.369600 of unit cell:	Completed after 2 iterations at t[s]:   2849.58
	FillingsUpdate:  mu: -0.208000000  nElectrons: 360.633417  magneticMoment: [ Abs: 0.00000  Tot: -0.00000 ]
	SubspaceRotationAdjust: set factor to 0.248
ElecMinimize: Iter:  43  G: -3760.162308312125333  |grad|_K:  7.729e-08  alpha:  1.821e-01  linmin: -5.805e-05  t[s]:   2874.58
	Linear fluid (dielectric constant: 78.4, screening length: 8.12261 Bohr) occupying 0.369603 of unit cell:	Completed after 11 iterations at t[s]:   2896.28
	Linear fluid (dielectric constant: 78.4, screening length: 8.12261 Bohr) occupying 0.369602 of unit cell:	Completed after 10 iterations at t[s]:   2912.48
	FillingsUpdate:  mu: -0.208000000  nElectrons: 360.633116  magneticMoment: [ Abs: 0.00000  Tot: -0.00000 ]
	SubspaceRotationAdjust: set factor to 0.218
ElecMinimize: Iter:  44  G: -3760.162308416679025  |grad|_K:  6.091e-08  alpha:  1.112e-01  linmin:  3.695e-05  t[s]:   2938.76
	Linear fluid (dielectric constant: 78.4, screening length: 8.12261 Bohr) occupying 0.369604 of unit cell:	Completed after 7 iterations at t[s]:   2960.61
	Linear fluid (dielectric constant: 78.4, screening length: 8.12261 Bohr) occupying 0.369605 of unit cell:	Completed after 6 iterations at t[s]:   2976.90
	FillingsUpdate:  mu: -0.208000000  nElectrons: 360.633156  magneticMoment: [ Abs: 0.00000  Tot: -0.00000 ]
	SubspaceRotationAdjust: set factor to 0.212
ElecMinimize: Iter:  45  G: -3760.162308508263322  |grad|_K:  6.146e-08  alpha:  1.648e-01  linmin:  4.765e-05  t[s]:   3002.96
	Linear fluid (dielectric constant: 78.4, screening length: 8.12261 Bohr) occupying 0.369609 of unit cell:	Completed after 7 iterations at t[s]:   3025.34
	Linear fluid (dielectric constant: 78.4, screening length: 8.12261 Bohr) occupying 0.369609 of unit cell:	Completed after 0 iterations at t[s]:   3041.07
	FillingsUpdate:  mu: -0.208000000  nElectrons: 360.632984  magneticMoment: [ Abs: 0.00000  Tot: -0.00000 ]
	SubspaceRotationAdjust: set factor to 0.238
ElecMinimize: Iter:  46  G: -3760.162308607029900  |grad|_K:  4.621e-08  alpha:  1.738e-01  linmin: -1.489e-05  t[s]:   3065.89
ElecMinimize: Converged (|Delta G|<1.000000e-07 for 2 iters).
Setting wave functions to eigenvectors of Hamiltonian
Converging empty states (this may take a while): |deigs|: 7.404e-04

Computing DFT-D3 correction:
# coordination-number Cu 5.574 6.873 8.366 5.571 9.037 9.097 9.118 9.156 9.157 9.161 9.167 9.156 9.151 9.145 9.105 9.084 9.026 8.356 6.868
# diagonal-C6 Cu 175.00 175.00 175.00 175.00 175.00 175.00 175.00 175.00 175.00 175.00 175.00 175.00 175.00 175.00 175.00 175.00 175.00 175.00 175.00
EvdW_6 =   -0.124688
EvdW_8 =   -0.180418

# Ionic positions in cartesian coordinates:
ion Cu  -0.001192000000000   6.551329999999999  57.875622000000000 1
ion Cu   2.384365000000000   2.713236000000000  56.511113999999999 1
ion Cu   2.383933000000000   9.358260999999999  54.979354999999998 1
ion Cu   4.766687000000001   0.010170000000000  30.269175000000001 1
ion Cu   0.001227000000000   5.468847000000000  53.342286000000001 1
ion Cu   2.382413000000000   1.623938000000000  51.806179000000000 1
ion Cu   2.383783000000001   8.198257999999999  50.270775999999998 1
ion Cu  -0.000141000000000   4.368402000000000  48.719977000000000 1
ion Cu   2.383995000000000   0.540572000000000  47.161772999999997 1
ion Cu   2.385032000000001   7.104253999999999  45.627488000000000 1
ion Cu  -0.000224000000000   3.280808000000000  44.077629000000002 1
ion Cu  -0.001230000000000   9.845476999999999  42.527593000000003 1
ion Cu   2.383421000000000   6.020554999999999  40.992544000000002 1
ion Cu  -0.000391000000000   2.193390000000000  39.433047000000002 1
ion Cu  -0.000362000000000   8.751514000000000  37.881014000000000 1
ion Cu   2.385018000000001   4.937354999999999  36.343730999999998 1
ion Cu  -0.001792000000000   1.092134000000000  34.806272000000000 1
ion Cu  -0.001313000000000   7.591946999999999  33.167262999999998 1
ion Cu   2.383185000000001   3.847100999999999  31.635328000000001 1

# Forces in Cartesian coordinates:
force Cu  -0.000001603725544   0.000485849918394   0.000929873305140 1
force Cu  -0.000005923121184   0.000003942927849  -0.000634528032361 1
force Cu   0.000005029091390  -0.000361627922591  -0.000613731674432 1
force Cu  -0.000006648901323  -0.000487370651471  -0.000695761314258 1
force Cu  -0.000001293810557   0.000190883283868   0.001532403461853 1
force Cu   0.000011310416879   0.000040812307704   0.000117283574025 1
force Cu  -0.000011251236425  -0.000164332989310  -0.000454553566787 1
force Cu   0.000023115018966   0.000037995895845   0.000445117546334 1
force Cu  -0.000014349022505  -0.000072994851453   0.000219490473120 1
force Cu   0.000002908238762   0.000018246706091  -0.000301881466050 1
force Cu   0.000002930659954   0.000006099169785  -0.000142672600611 1
force Cu   0.000004208010717  -0.000002588340407   0.000040221187538 1
force Cu   0.000019598895653   0.000085540142193  -0.000437129628182 1
force Cu  -0.000019881529830  -0.000033799504000  -0.000600847374799 1
force Cu   0.000014029545268   0.000169393143097   0.000403368021478 1
force Cu  -0.000010661825113  -0.000045713782242  -0.000111687200625 1
force Cu   0.000000072365340  -0.000172436259224  -0.001419829515234 1
force Cu  -0.000010965867604   0.000355060845348   0.000783652158303 1
force Cu  -0.000000636235217   0.000018526907002   0.000844928422354 1

# Energy components:
   A_diel =        0.0831328228920634
   Eewald =    17996.7185941191673919
       EH =    21561.2961324733514630
     Eloc =   -44113.2207028860575520
      Enl =      695.8526635441543249
     EvdW =       -0.3051069722720106
      Exc =     -368.7162484741585899
 Exc_core =        0.8924714971304871
       KE =      392.1802640407191234
  MuShift =        0.0451742280390789
-------------------------------------
     Etot =    -3835.1736256070294075
       TS =        0.0003436720830828
-------------------------------------
        F =    -3835.1739692791124980
      muN =      -75.0116606720824848
-------------------------------------
        G =    -3760.1623086070298996


Dumping 'jdft.fillings' ... done
Dumping 'jdft.wfns' ... done
Dumping 'jdft.fluidState' ... done
Dumping 'jdft.ionpos' ... done
Dumping 'jdft.lattice' ... done
Dumping 'jdft.eigenvals' ... done
Dumping 'jdft.eigStats' ... 
	eMin: -4.349074 at state 28 ( [ +0.000000 +0.000000 +0.000000 ] spin -1 )
	HOMO: -0.208115 at state 8 ( [ +0.181818 +0.000000 +0.000000 ] spin 1 )
	mu  : -0.208000
	LUMO: -0.207678 at state 45 ( [ +0.272727 -0.200000 +0.000000 ] spin -1 )
	eMax: +0.250072 at state 28 ( [ +0.000000 +0.000000 +0.000000 ] spin -1 )
	HOMO-LUMO gap: +0.000437
	Optical gap  : +0.008558 at state 20 ( [ +0.363636 +0.400000 +0.000000 ] spin 1 )
Dumping 'jdft.Ecomponents' ... done
IonicMinimize: Iter:   0  G: -3760.162308607029900  |grad|_K:  4.189e-04  t[s]:   3215.49

#--- Lowdin population analysis ---
# oxidation-state Cu +0.303 +0.146 +0.031 +0.303 +0.062 +0.073 +0.073 +0.077 +0.076 +0.076 +0.077 +0.076 +0.076 +0.077 +0.074 +0.074 +0.063 +0.031 +0.146
# magnetic-moments Cu -0.000 -0.000 -0.000 -0.000 +0.000 -0.000 -0.000 -0.000 -0.000 -0.000 -0.000 -0.000 -0.000 -0.000 -0.000 -0.000 +0.000 -0.000 -0.000


Computing DFT-D3 correction:
# coordination-number Cu 5.573 6.874 8.367 5.570 9.038 9.097 9.118 9.155 9.157 9.161 9.166 9.156 9.151 9.145 9.105 9.085 9.027 8.357 6.870
# diagonal-C6 Cu 175.00 175.00 175.00 175.00 175.00 175.00 175.00 175.00 175.00 175.00 175.00 175.00 175.00 175.00 175.00 175.00 175.00 175.00 175.00
EvdW_6 =   -0.124688
EvdW_8 =   -0.180413
Shifting auxilliary hamiltonian by -0.000004 to set nElectrons=360.632984

-------- Electronic minimization -----------
	Linear fluid (dielectric constant: 78.4, screening length: 8.12261 Bohr) occupying 0.369615 of unit cell:	Completed after 12 iterations at t[s]:   3240.71
	FillingsUpdate:  mu: -0.208000000  nElectrons: 360.632984  magneticMoment: [ Abs: 0.00000  Tot: -0.00000 ]
ElecMinimize: Iter:   0  G: -3760.162313969765819  |grad|_K:  3.606e-07  alpha:  1.000e+00
	Linear fluid (dielectric constant: 78.4, screening length: 8.12261 Bohr) occupying 0.369615 of unit cell:	Completed after 21 iterations at t[s]:   3291.06
	Linear fluid (dielectric constant: 78.4, screening length: 8.12261 Bohr) occupying 0.369615 of unit cell:	Completed after 22 iterations at t[s]:   3308.35
	FillingsUpdate:  mu: -0.208000000  nElectrons: 360.632476  magneticMoment: [ Abs: 0.00000  Tot: -0.00000 ]
	SubspaceRotationAdjust: set factor to 0.239
ElecMinimize: Iter:   1  G: -3760.162316011288567  |grad|_K:  1.684e-07  alpha:  1.028e-01  linmin: -1.393e-05  t[s]:   3334.05
	Linear fluid (dielectric constant: 78.4, screening length: 8.12261 Bohr) occupying 0.369615 of unit cell:	Completed after 13 iterations at t[s]:   3356.38
	Linear fluid (dielectric constant: 78.4, screening length: 8.12261 Bohr) occupying 0.369615 of unit cell:	Completed after 10 iterations at t[s]:   3372.65
	FillingsUpdate:  mu: -0.208000000  nElectrons: 360.633026  magneticMoment: [ Abs: 0.00000  Tot: -0.00000 ]
	SubspaceRotationAdjust: set factor to 0.15
ElecMinimize: Iter:   2  G: -3760.162316384352835  |grad|_K:  1.269e-07  alpha:  8.633e-02  linmin:  2.419e-05  t[s]:   3398.91
	Linear fluid (dielectric constant: 78.4, screening length: 8.12261 Bohr) occupying 0.369615 of unit cell:	Completed after 10 iterations at t[s]:   3421.47
	Linear fluid (dielectric constant: 78.4, screening length: 8.12261 Bohr) occupying 0.369615 of unit cell:	Completed after 9 iterations at t[s]:   3438.36
	FillingsUpdate:  mu: -0.208000000  nElectrons: 360.632609  magneticMoment: [ Abs: 0.00000  Tot: -0.00000 ]
	SubspaceRotationAdjust: set factor to 0.131
ElecMinimize: Iter:   3  G: -3760.162316715171983  |grad|_K:  1.083e-07  alpha:  1.347e-01  linmin: -2.326e-05  t[s]:   3463.22
	Linear fluid (dielectric constant: 78.4, screening length: 8.12261 Bohr) occupying 0.369616 of unit cell:	Completed after 7 iterations at t[s]:   3484.47
	Linear fluid (dielectric constant: 78.4, screening length: 8.12261 Bohr) occupying 0.369616 of unit cell:	Completed after 2 iterations at t[s]:   3500.26
	FillingsUpdate:  mu: -0.208000000  nElectrons: 360.632542  magneticMoment: [ Abs: 0.00000  Tot: -0.00000 ]
	SubspaceRotationAdjust: set factor to 0.19
ElecMinimize: Iter:   4  G: -3760.162317059274756  |grad|_K:  6.810e-08  alpha:  1.915e-01  linmin: -6.087e-06  t[s]:   3525.83
	Linear fluid (dielectric constant: 78.4, screening length: 8.12261 Bohr) occupying 0.369617 of unit cell:	Completed after 11 iterations at t[s]:   3548.20
	Linear fluid (dielectric constant: 78.4, screening length: 8.12261 Bohr) occupying 0.369617 of unit cell:	Completed after 9 iterations at t[s]:   3564.84
	FillingsUpdate:  mu: -0.208000000  nElectrons: 360.632747  magneticMoment: [ Abs: 0.00000  Tot: -0.00000 ]
	SubspaceRotationAdjust: set factor to 0.149
ElecMinimize: Iter:   5  G: -3760.162317148045076  |grad|_K:  4.659e-08  alpha:  1.260e-01  linmin:  1.869e-05  t[s]:   3590.76
	Linear fluid (dielectric constant: 78.4, screening length: 8.12261 Bohr) occupying 0.369617 of unit cell:	Completed after 10 iterations at t[s]:   3613.18
	Linear fluid (dielectric constant: 78.4, screening length: 8.12261 Bohr) occupying 0.369617 of unit cell:	Completed after 6 iterations at t[s]:   3629.98
	FillingsUpdate:  mu: -0.208000000  nElectrons: 360.632543  magneticMoment: [ Abs: 0.00000  Tot: +0.00000 ]
	SubspaceRotationAdjust: set factor to 0.12
ElecMinimize: Iter:   6  G: -3760.162317207836622  |grad|_K:  4.434e-08  alpha:  1.803e-01  linmin: -3.199e-05  t[s]:   3655.35
ElecMinimize: Converged (|Delta G|<1.000000e-07 for 2 iters).
Setting wave functions to eigenvectors of Hamiltonian
Converging empty states (this may take a while): |deigs|: 5.297e-08

Computing DFT-D3 correction:
# coordination-number Cu 5.573 6.874 8.367 5.570 9.038 9.097 9.118 9.155 9.157 9.161 9.166 9.156 9.151 9.145 9.105 9.085 9.027 8.357 6.870
# diagonal-C6 Cu 175.00 175.00 175.00 175.00 175.00 175.00 175.00 175.00 175.00 175.00 175.00 175.00 175.00 175.00 175.00 175.00 175.00 175.00 175.00
EvdW_6 =   -0.124688
EvdW_8 =   -0.180413

# Ionic positions in cartesian coordinates:
ion Cu  -0.001193603039629   6.551812087447527  57.876556940895838 1
ion Cu   2.384359077564731   2.713236180456982  56.510484539558334 1
ion Cu   2.383938029777304   9.357895609606540  54.978746335916263 1
ion Cu   4.766680351784591   0.009678866877662  30.268484306276438 1
ion Cu   0.001225706875358   5.469034120813000  53.343823471052552 1
ion Cu   2.382424311102794   1.623975049836837  51.806301351164720 1
ion Cu   2.383771749449489   8.198089904539822  50.270326514023907 1
ion Cu  -0.000117884295120   4.368436233424978  48.720427185137034 1
ion Cu   2.383980651663409   0.540495242677680  47.161997558063810 1
ion Cu   2.385034908924677   7.104268484235223  45.627191186124648 1
ion Cu  -0.000221068654132   3.280810336698917  44.077491394990091 1
ion Cu  -0.001225791303368   9.845470649188725  42.527638288778235 1
ion Cu   2.383440599581567   6.020636777671324  40.992111937962513 1
ion Cu  -0.000410880843916   2.193352438025133  39.432451220215896 1
ion Cu  -0.000347969768818   8.751679630672228  37.881422435612173 1
ion Cu   2.385007338860802   4.937305523746890  36.343624380390075 1
ion Cu  -0.001791926948745   1.091957801269908  34.804857238075456 1
ion Cu  -0.001323965181690   7.592298298374480  33.168051719748995 1
ion Cu   2.383184364450698   3.847115764436134  31.636177996013050 1

# Forces in Cartesian coordinates:
force Cu  -0.000001407621201   0.000384301176616   0.000752954300354 1
force Cu  -0.000004983491651   0.000011735259032  -0.000408399129129 1
force Cu   0.000006158532916  -0.000294105676872  -0.000420378522155 1
force Cu  -0.000005845332868  -0.000379035021493  -0.000839734042679 1
force Cu  -0.000000087334893   0.000166534765343   0.001227656486497 1
force Cu   0.000009776861830   0.000025043541735   0.000194810531701 1
force Cu  -0.000008800957270  -0.000114160826673  -0.000229262851139 1
force Cu   0.000016714374485   0.000033416637440   0.000508762087267 1
force Cu  -0.000010987719791  -0.000081446061654   0.000344486875552 1
force Cu   0.000001997034045   0.000036419343938  -0.000069920316254 1
force Cu   0.000001503260303   0.000004275132615   0.000068685037244 1
force Cu   0.000002039612986  -0.000033933338786   0.000195210582689 1
force Cu   0.000014764018883   0.000091693725012  -0.000233322453287 1
force Cu  -0.000014506313009  -0.000028085166951  -0.000427932355109 1
force Cu   0.000010914933885   0.000123315703938   0.000291201176381 1
force Cu  -0.000008458854875  -0.000023360852462  -0.000161516833081 1
force Cu  -0.000000198849811  -0.000145559114093  -0.001194322249695 1
force Cu  -0.000009596163934   0.000294347220196   0.000386822263251 1
force Cu  -0.000000729133753   0.000004364392199   0.000360948424025 1

# Energy components:
   A_diel =        0.0832251977652473
   Eewald =    17996.1925485008032410
       EH =    21560.7721205250782077
     Eloc =   -44112.1698551696463255
      Enl =      695.8511260789653079
     EvdW =       -0.3051002507427191
      Exc =     -368.7158280726604289
 Exc_core =        0.8924713908578757
       KE =      392.1805206625404026
  MuShift =        0.0452284511951974
-------------------------------------
     Etot =    -3835.1735426858390383
       TS =        0.0003435630888216
-------------------------------------
        F =    -3835.1738862489278290
      muN =      -75.0115690410911924
-------------------------------------
        G =    -3760.1623172078366224


Dumping 'jdft.fillings' ... done
Dumping 'jdft.wfns' ... done
Dumping 'jdft.fluidState' ... done
Dumping 'jdft.ionpos' ... done
Dumping 'jdft.lattice' ... done
Dumping 'jdft.eigenvals' ... done
Dumping 'jdft.eigStats' ... 
	eMin: -4.349228 at state 0 ( [ +0.000000 +0.000000 +0.000000 ] spin 1 )
	HOMO: -0.208237 at state 8 ( [ +0.181818 +0.000000 +0.000000 ] spin 1 )
	mu  : -0.208000
	LUMO: -0.207782 at state 17 ( [ +0.272727 -0.200000 +0.000000 ] spin 1 )
	eMax: +0.250067 at state 28 ( [ +0.000000 +0.000000 +0.000000 ] spin -1 )
	HOMO-LUMO gap: +0.000455
	Optical gap  : +0.008557 at state 48 ( [ +0.363636 +0.400000 +0.000000 ] spin -1 )
Dumping 'jdft.Ecomponents' ... done
IonicMinimize: Iter:   1  G: -3760.162317207836622  |grad|_K:  3.311e-04  alpha:  1.000e+00  linmin: -9.646e-01  t[s]:   3717.39

#--- Lowdin population analysis ---
# oxidation-state Cu +0.304 +0.147 +0.031 +0.303 +0.063 +0.074 +0.074 +0.077 +0.076 +0.076 +0.077 +0.076 +0.076 +0.077 +0.073 +0.073 +0.062 +0.031 +0.146
# magnetic-moments Cu +0.000 +0.000 +0.000 +0.000 +0.000 -0.000 +0.000 -0.000 +0.000 +0.000 +0.000 -0.000 -0.000 -0.000 -0.000 -0.000 -0.000 -0.000 -0.000


Computing DFT-D3 correction:
# coordination-number Cu 5.566 6.879 8.375 5.562 9.044 9.099 9.118 9.150 9.157 9.159 9.157 9.153 9.148 9.136 9.101 9.082 9.029 8.362 6.872
# diagonal-C6 Cu 175.00 175.00 175.00 175.00 175.00 175.00 175.00 175.00 175.00 175.00 175.00 175.00 175.00 175.00 175.00 175.00 175.00 175.00 175.00
EvdW_6 =   -0.124673
EvdW_8 =   -0.180356
Shifting auxilliary hamiltonian by 0.000093 to set nElectrons=360.632543

-------- Electronic minimization -----------
	Linear fluid (dielectric constant: 78.4, screening length: 8.12261 Bohr) occupying 0.369538 of unit cell:	Completed after 22 iterations at t[s]:   3743.44
	FillingsUpdate:  mu: -0.208000000  nElectrons: 360.632543  magneticMoment: [ Abs: 0.00000  Tot: -0.00000 ]
ElecMinimize: Iter:   0  G: -3760.162290044374913  |grad|_K:  1.275e-06  alpha:  1.000e+00
	Linear fluid (dielectric constant: 78.4, screening length: 8.12261 Bohr) occupying 0.369514 of unit cell:	Completed after 22 iterations at t[s]:   3795.73
	Linear fluid (dielectric constant: 78.4, screening length: 8.12261 Bohr) occupying 0.369536 of unit cell:	Completed after 21 iterations at t[s]:   3813.46
	FillingsUpdate:  mu: -0.208000000  nElectrons: 360.628778  magneticMoment: [ Abs: 0.00000  Tot: -0.00000 ]
	SubspaceRotationAdjust: set factor to 0.0872
ElecMinimize: Iter:   1  G: -3760.162315746087188  |grad|_K:  6.584e-07  alpha:  1.035e-01  linmin: -7.995e-05  t[s]:   3840.03
	Linear fluid (dielectric constant: 78.4, screening length: 8.12261 Bohr) occupying 0.369536 of unit cell:	Completed after 17 iterations at t[s]:   3861.62
	Linear fluid (dielectric constant: 78.4, screening length: 8.12261 Bohr) occupying 0.369536 of unit cell:	Completed after 17 iterations at t[s]:   3878.18
	FillingsUpdate:  mu: -0.208000000  nElectrons: 360.630788  magneticMoment: [ Abs: 0.00000  Tot: -0.00000 ]
	SubspaceRotationAdjust: set factor to 0.0841
ElecMinimize: Iter:   2  G: -3760.162333316332479  |grad|_K:  4.909e-07  alpha:  2.654e-01  linmin: -2.284e-05  t[s]:   3903.90
	Linear fluid (dielectric constant: 78.4, screening length: 8.12261 Bohr) occupying 0.369536 of unit cell:	Completed after 13 iterations at t[s]:   3925.78
	Linear fluid (dielectric constant: 78.4, screening length: 8.12261 Bohr) occupying 0.369536 of unit cell:	Completed after 10 iterations at t[s]:   3942.67
	FillingsUpdate:  mu: -0.208000000  nElectrons: 360.631496  magneticMoment: [ Abs: 0.00000  Tot: -0.00000 ]
	SubspaceRotationAdjust: set factor to 0.0942
ElecMinimize: Iter:   3  G: -3760.162339360806072  |grad|_K:  3.654e-07  alpha:  1.645e-01  linmin:  1.028e-06  t[s]:   3968.83
	Linear fluid (dielectric constant: 78.4, screening length: 8.12261 Bohr) occupying 0.369535 of unit cell:	Completed after 11 iterations at t[s]:   3990.80
	Linear fluid (dielectric constant: 78.4, screening length: 8.12261 Bohr) occupying 0.369535 of unit cell:	Completed after 2 iterations at t[s]:   4006.97
	FillingsUpdate:  mu: -0.208000000  nElectrons: 360.631608  magneticMoment: [ Abs: 0.00000  Tot: -0.00000 ]
	SubspaceRotationAdjust: set factor to 0.119
ElecMinimize: Iter:   4  G: -3760.162342912480199  |grad|_K:  2.091e-07  alpha:  1.745e-01  linmin: -3.971e-05  t[s]:   4033.47
	Linear fluid (dielectric constant: 78.4, screening length: 8.12261 Bohr) occupying 0.369534 of unit cell:	Completed after 12 iterations at t[s]:   4055.35
	Linear fluid (dielectric constant: 78.4, screening length: 8.12261 Bohr) occupying 0.369534 of unit cell:	Completed after 9 iterations at t[s]:   4071.23
	FillingsUpdate:  mu: -0.208000000  nElectrons: 360.631322  magneticMoment: [ Abs: 0.00000  Tot: -0.00000 ]
	SubspaceRotationAdjust: set factor to 0.125
ElecMinimize: Iter:   5  G: -3760.162344639415096  |grad|_K:  2.222e-07  alpha:  2.584e-01  linmin: -2.124e-04  t[s]:   4096.58
	Linear fluid (dielectric constant: 78.4, screening length: 8.12261 Bohr) occupying 0.369532 of unit cell:	Completed after 13 iterations at t[s]:   4118.37
	Linear fluid (dielectric constant: 78.4, screening length: 8.12261 Bohr) occupying 0.369533 of unit cell:	Completed after 10 iterations at t[s]:   4134.87
	FillingsUpdate:  mu: -0.208000000  nElectrons: 360.631570  magneticMoment: [ Abs: 0.00000  Tot: -0.00000 ]
	SubspaceRotationAdjust: set factor to 0.162
ElecMinimize: Iter:   6  G: -3760.162345871366597  |grad|_K:  1.533e-07  alpha:  1.624e-01  linmin:  3.295e-05  t[s]:   4160.97
	Linear fluid (dielectric constant: 78.4, screening length: 8.12261 Bohr) occupying 0.369532 of unit cell:	Completed after 9 iterations at t[s]:   4182.52
	Linear fluid (dielectric constant: 78.4, screening length: 8.12261 Bohr) occupying 0.369532 of unit cell:	Completed after 7 iterations at t[s]:   4199.29
	FillingsUpdate:  mu: -0.208000000  nElectrons: 360.631688  magneticMoment: [ Abs: 0.00000  Tot: -0.00000 ]
	SubspaceRotationAdjust: set factor to 0.19
ElecMinimize: Iter:   7  G: -3760.162346756335410  |grad|_K:  1.870e-07  alpha:  2.472e-01  linmin:  9.361e-06  t[s]:   4225.53
	Linear fluid (dielectric constant: 78.4, screening length: 8.12261 Bohr) occupying 0.369530 of unit cell:	Completed after 14 iterations at t[s]:   4248.30
	Linear fluid (dielectric constant: 78.4, screening length: 8.12261 Bohr) occupying 0.369530 of unit cell:	Completed after 9 iterations at t[s]:   4264.22
	FillingsUpdate:  mu: -0.208000000  nElectrons: 360.631320  magneticMoment: [ Abs: 0.00000  Tot: +0.00000 ]
	SubspaceRotationAdjust: set factor to 0.18
ElecMinimize: Iter:   8  G: -3760.162347716497607  |grad|_K:  1.511e-07  alpha:  1.800e-01  linmin:  4.245e-05  t[s]:   4289.29
	Linear fluid (dielectric constant: 78.4, screening length: 8.12261 Bohr) occupying 0.369531 of unit cell:	Completed after 12 iterations at t[s]:   4311.15
	Linear fluid (dielectric constant: 78.4, screening length: 8.12261 Bohr) occupying 0.369531 of unit cell:	Completed after 10 iterations at t[s]:   4327.43
	FillingsUpdate:  mu: -0.208000000  nElectrons: 360.631921  magneticMoment: [ Abs: 0.00000  Tot: +0.00000 ]
	SubspaceRotationAdjust: set factor to 0.181
ElecMinimize: Iter:   9  G: -3760.162348574153384  |grad|_K:  2.022e-07  alpha:  2.466e-01  linmin: -5.344e-05  t[s]:   4353.72
	Linear fluid (dielectric constant: 78.4, screening length: 8.12261 Bohr) occupying 0.369531 of unit cell:	Completed after 17 iterations at t[s]:   4376.31
	Linear fluid (dielectric constant: 78.4, screening length: 8.12261 Bohr) occupying 0.369531 of unit cell:	Completed after 11 iterations at t[s]:   4393.01
	FillingsUpdate:  mu: -0.208000000  nElectrons: 360.631370  magneticMoment: [ Abs: 0.00000  Tot: +0.00000 ]
	SubspaceRotationAdjust: set factor to 0.147
ElecMinimize: Iter:  10  G: -3760.162349680640546  |grad|_K:  1.619e-07  alpha:  1.767e-01  linmin:  3.857e-06  t[s]:   4419.14
	Linear fluid (dielectric constant: 78.4, screening length: 8.12261 Bohr) occupying 0.369533 of unit cell:	Completed after 11 iterations at t[s]:   4441.80
	Linear fluid (dielectric constant: 78.4, screening length: 8.12261 Bohr) occupying 0.369533 of unit cell:	Completed after 0 iterations at t[s]:   4457.45
	FillingsUpdate:  mu: -0.208000000  nElectrons: 360.631617  magneticMoment: [ Abs: 0.00004  Tot: -0.00000 ]
	SubspaceRotationAdjust: set factor to 0.157
ElecMinimize: Iter:  11  G: -3760.162350354075897  |grad|_K:  1.514e-07  alpha:  1.685e-01  linmin:  7.078e-05  t[s]:   4482.49
	Linear fluid (dielectric constant: 78.4, screening length: 8.12261 Bohr) occupying 0.369536 of unit cell:	Completed after 9 iterations at t[s]:   4504.06
	Linear fluid (dielectric constant: 78.4, screening length: 8.12261 Bohr) occupying 0.369537 of unit cell:	Completed after 7 iterations at t[s]:   4520.39
	FillingsUpdate:  mu: -0.208000000  nElectrons: 360.631347  magneticMoment: [ Abs: 0.00021  Tot: -0.00001 ]
	SubspaceRotationAdjust: set factor to 0.157
ElecMinimize: Iter:  12  G: -3760.162351166542066  |grad|_K:  1.397e-07  alpha:  2.336e-01  linmin: -7.091e-05  t[s]:   4545.93
	Linear fluid (dielectric constant: 78.4, screening length: 8.12261 Bohr) occupying 0.369541 of unit cell:	Completed after 9 iterations at t[s]:   4567.98
	Linear fluid (dielectric constant: 78.4, screening length: 8.12261 Bohr) occupying 0.369540 of unit cell:	Completed after 6 iterations at t[s]:   4583.92
	FillingsUpdate:  mu: -0.208000000  nElectrons: 360.631127  magneticMoment: [ Abs: 0.00016  Tot: -0.00001 ]
	SubspaceRotationAdjust: set factor to 0.163
ElecMinimize: Iter:  13  G: -3760.162351685776230  |grad|_K:  1.176e-07  alpha:  1.731e-01  linmin:  2.995e-05  t[s]:   4610.17
	Linear fluid (dielectric constant: 78.4, screening length: 8.12261 Bohr) occupying 0.369544 of unit cell:	Completed after 10 iterations at t[s]:   4632.65
	Linear fluid (dielectric constant: 78.4, screening length: 8.12261 Bohr) occupying 0.369544 of unit cell:	Completed after 0 iterations at t[s]:   4648.80
	FillingsUpdate:  mu: -0.208000000  nElectrons: 360.631223  magneticMoment: [ Abs: 0.00010  Tot: -0.00001 ]
	SubspaceRotationAdjust: set factor to 0.152
ElecMinimize: Iter:  14  G: -3760.162352039370035  |grad|_K:  7.990e-08  alpha:  1.684e-01  linmin: -2.814e-05  t[s]:   4673.81
	Linear fluid (dielectric constant: 78.4, screening length: 8.12261 Bohr) occupying 0.369546 of unit cell:	Completed after 10 iterations at t[s]:   4695.26
	Linear fluid (dielectric constant: 78.4, screening length: 8.12261 Bohr) occupying 0.369546 of unit cell:	Completed after 2 iterations at t[s]:   4711.02
	FillingsUpdate:  mu: -0.208000000  nElectrons: 360.631012  magneticMoment: [ Abs: 0.00008  Tot: -0.00002 ]
	SubspaceRotationAdjust: set factor to 0.126
ElecMinimize: Iter:  15  G: -3760.162352179015670  |grad|_K:  6.731e-08  alpha:  1.436e-01  linmin:  1.877e-04  t[s]:   4736.67
	Linear fluid (dielectric constant: 78.4, screening length: 8.12261 Bohr) occupying 0.369548 of unit cell:	Completed after 9 iterations at t[s]:   4758.91
	Linear fluid (dielectric constant: 78.4, screening length: 8.12261 Bohr) occupying 0.369548 of unit cell:	Completed after 3 iterations at t[s]:   4775.30
	FillingsUpdate:  mu: -0.208000000  nElectrons: 360.631157  magneticMoment: [ Abs: 0.00005  Tot: -0.00002 ]
	SubspaceRotationAdjust: set factor to 0.112
ElecMinimize: Iter:  16  G: -3760.162352313436259  |grad|_K:  4.949e-08  alpha:  1.950e-01  linmin: -5.842e-04  t[s]:   4800.90
	Linear fluid (dielectric constant: 78.4, screening length: 8.12261 Bohr) occupying 0.369550 of unit cell:	Completed after 2 iterations at t[s]:   4822.58
	Linear fluid (dielectric constant: 78.4, screening length: 8.12261 Bohr) occupying 0.369550 of unit cell:	Completed after 2 iterations at t[s]:   4839.10
	FillingsUpdate:  mu: -0.208000000  nElectrons: 360.631119  magneticMoment: [ Abs: 0.00008  Tot: -0.00002 ]
	SubspaceRotationAdjust: set factor to 0.123
ElecMinimize: Iter:  17  G: -3760.162352366965479  |grad|_K:  3.887e-08  alpha:  1.399e-01  linmin:  1.124e-04  t[s]:   4864.83
	Linear fluid (dielectric constant: 78.4, screening length: 8.12261 Bohr) occupying 0.369551 of unit cell:	Completed after 7 iterations at t[s]:   4885.58
	Linear fluid (dielectric constant: 78.4, screening length: 8.12261 Bohr) occupying 0.369551 of unit cell:	Completed after 2 iterations at t[s]:   4901.45
	FillingsUpdate:  mu: -0.208000000  nElectrons: 360.630999  magneticMoment: [ Abs: 0.00012  Tot: -0.00002 ]
	SubspaceRotationAdjust: set factor to 0.118
ElecMinimize: Iter:  18  G: -3760.162352410868152  |grad|_K:  3.066e-08  alpha:  1.935e-01  linmin: -4.484e-05  t[s]:   4926.96
ElecMinimize: Converged (|Delta G|<1.000000e-07 for 2 iters).
Setting wave functions to eigenvectors of Hamiltonian
Converging empty states (this may take a while): |deigs|: 1.675e-08

Computing DFT-D3 correction:
# coordination-number Cu 5.566 6.879 8.375 5.562 9.044 9.099 9.118 9.150 9.157 9.159 9.157 9.153 9.148 9.136 9.101 9.082 9.029 8.362 6.872
# diagonal-C6 Cu 175.00 175.00 175.00 175.00 175.00 175.00 175.00 175.00 175.00 175.00 175.00 175.00 175.00 175.00 175.00 175.00 175.00 175.00 175.00
EvdW_6 =   -0.124673
EvdW_8 =   -0.180356

# Ionic positions in cartesian coordinates:
ion Cu  -0.001202632078027   6.554370103500285  57.881488953614472 1
ion Cu   2.384325428628409   2.713313970096348  56.507850947265041 1
ion Cu   2.383987769716474   9.355857392850281  54.975936336567145 1
ion Cu   4.766639929396679   0.007117579494630  30.261656372224749 1
ion Cu   0.001229190203271   5.470177829851409  53.351946243945378 1
ion Cu   2.382493874473459   1.624089084715798  51.807759131641539 1
ion Cu   2.383713726590075   8.197344052079124  50.269023248882831 1
ion Cu  -0.000009677102699   4.368642356173567  48.724183415219080 1
ion Cu   2.383908788321006   0.539836611846796  47.164695181239686 1
ion Cu   2.385048257248534   7.104557540768099  45.627091004780290 1
ion Cu  -0.000212768246086   3.280807019755730  44.078367396388188 1
ion Cu  -0.001215474642181   9.845104481013346  42.529305358067482 1
ion Cu   2.383538468716590   6.021304997997950  40.990721255127198 1
ion Cu  -0.000503554465245   2.193128476824583  39.429530594608885 1
ion Cu  -0.000274151478073   8.752443968950002  37.883092018014324 1
ion Cu   2.384951202153054   4.937161020904566  36.342092310964361 1
ion Cu  -0.001793208829727   1.090916339332291  34.796375662441527 1
ion Cu  -0.001390781424387   7.594295924582364  33.169674439061424 1
ion Cu   2.383179612818877   3.847080249262819  31.637376129946421 1

# Forces in Cartesian coordinates:
force Cu  -0.000001757757279   0.000307134847529   0.000698468698127 1
force Cu  -0.000003635707518  -0.000038296503485  -0.000188214606118 1
force Cu   0.000004550000634  -0.000147277855230  -0.000222171184506 1
force Cu  -0.000006532541089  -0.000305826664933  -0.000532186937666 1
force Cu   0.000000532047452   0.000127311450956   0.000807870864676 1
force Cu   0.000008175384144   0.000094574368394   0.000162010432647 1
force Cu  -0.000006620438778  -0.000248319218630   0.000001902304194 1
force Cu   0.000013417033190   0.000029886285942   0.000423265933480 1
force Cu  -0.000008031241438   0.000094665788313   0.000196012923826 1
force Cu   0.000002954199212  -0.000132438564982  -0.000081334308933 1
force Cu   0.000002485960603   0.000004562066146  -0.000079040548172 1
force Cu   0.000003624898566   0.000151572472183  -0.000054455155092 1
force Cu   0.000011964999258  -0.000088511954682  -0.000301625156098 1
force Cu  -0.000010257035004  -0.000019886662537  -0.000477757885708 1
force Cu   0.000009920229498   0.000249021566206  -0.000012351567666 1
force Cu  -0.000007556859282  -0.000086008658999  -0.000151288046749 1
force Cu  -0.000001672023740  -0.000125881012852  -0.000769637357267 1
force Cu  -0.000009915278664   0.000157956235447   0.000324309663564 1
force Cu  -0.000003173254295   0.000041206259325   0.000318260503608 1

# Energy components:
   A_diel =        0.0834823792712176
   Eewald =    17988.5852230874297675
       EH =    21553.2660127331473632
     Eloc =   -44097.0580183373240288
      Enl =      695.8531837168694665
     EvdW =       -0.3050293605905091
      Exc =     -368.7153279797574896
 Exc_core =        0.8924705480397699
       KE =      392.1793261104822932
  MuShift =        0.0454185188832191
-------------------------------------
     Etot =    -3835.1732585835520695
       TS =        0.0003416755456486
-------------------------------------
        F =    -3835.1736002590978387
      muN =      -75.0112478482298712
-------------------------------------
        G =    -3760.1623524108681522


Dumping 'jdft.fillings' ... done
Dumping 'jdft.wfns' ... done
Dumping 'jdft.fluidState' ... done
Dumping 'jdft.ionpos' ... done
Dumping 'jdft.lattice' ... done
Dumping 'jdft.eigenvals' ... done
Dumping 'jdft.eigStats' ... 
	eMin: -4.349144 at state 0 ( [ +0.000000 +0.000000 +0.000000 ] spin 1 )
	HOMO: -0.208166 at state 8 ( [ +0.181818 +0.000000 +0.000000 ] spin 1 )
	mu  : -0.208000
	LUMO: -0.207744 at state 45 ( [ +0.272727 -0.200000 +0.000000 ] spin -1 )
	eMax: +0.250115 at state 0 ( [ +0.000000 +0.000000 +0.000000 ] spin 1 )
	HOMO-LUMO gap: +0.000422
	Optical gap  : +0.008552 at state 48 ( [ +0.363636 +0.400000 +0.000000 ] spin -1 )
Dumping 'jdft.Ecomponents' ... done
IonicMinimize: Iter:   2  G: -3760.162352410868152  |grad|_K:  2.434e-04  alpha:  1.000e+00  linmin: -9.162e-01  t[s]:   4990.48
IonicMinimize: Converged (|Delta G|<1.000000e-04 for 2 iters).

#--- Lowdin population analysis ---
# oxidation-state Cu +0.304 +0.147 +0.031 +0.304 +0.062 +0.073 +0.074 +0.077 +0.076 +0.076 +0.077 +0.076 +0.076 +0.077 +0.074 +0.073 +0.062 +0.031 +0.146
# magnetic-moments Cu -0.000 -0.000 -0.000 -0.000 -0.000 -0.000 -0.000 -0.000 -0.000 -0.000 -0.000 -0.000 -0.000 -0.000 -0.000 -0.000 -0.000 -0.000 -0.000


Dumping 'jdft.n_up' ... done
Dumping 'jdft.n_dn' ... done
Dumping 'jdft.tau_up' ... done
Dumping 'jdft.tau_dn' ... done
Dumping 'jdft.eigenvals' ... done
Dumping 'jdft.eigStats' ... 
	eMin: -4.349144 at state 0 ( [ +0.000000 +0.000000 +0.000000 ] spin 1 )
	HOMO: -0.208166 at state 8 ( [ +0.181818 +0.000000 +0.000000 ] spin 1 )
	mu  : -0.208000
	LUMO: -0.207744 at state 45 ( [ +0.272727 -0.200000 +0.000000 ] spin -1 )
	eMax: +0.250115 at state 0 ( [ +0.000000 +0.000000 +0.000000 ] spin 1 )
	HOMO-LUMO gap: +0.000422
	Optical gap  : +0.008552 at state 48 ( [ +0.363636 +0.400000 +0.000000 ] spin -1 )
Dumping 'jdft.kPts' ... done
Dumping 'jdft.kMap' ... done
Dumping 'jdft.dosUp' ... done.
Dumping 'jdft.dosDn' ... done.
End date and time: Sat Sep 10 13:09:44 2022  (Duration: 0-1:23:51.78)
Done!

PROFILER:             augmentDensityGrid     2.759693 +/-     0.085249 s,  144 calls,    397.395740 s total
PROFILER:         augmentDensityGridGrad     0.190329 +/-     0.047601 s,   77 calls,     14.655360 s total
PROFILER:        augmentDensitySpherical     0.002462 +/-     0.000145 s,  288 calls,      0.709144 s total
PROFILER:    augmentDensitySphericalGrad     0.002769 +/-     0.000516 s,  176 calls,      0.487377 s total
PROFILER:                 augmentOverlap     1.189813 +/-     0.126460 s,  620 calls,    737.683912 s total
PROFILER:                     diagouterI     2.555424 +/-     0.092274 s,  294 calls,    751.294708 s total
PROFILER:              EdensityAndVscloc     1.716475 +/-     0.577785 s,  144 calls,    247.172358 s total
PROFILER:                     EnlAndGrad     0.009940 +/-     0.001711 s,  316 calls,      3.141105 s total
PROFILER:            ExCorrCommunication     0.014408 +/-     0.095120 s,  899 calls,     12.952519 s total
PROFILER:               ExCorrFunctional     0.003610 +/-     0.000587 s,  154 calls,      0.555999 s total
PROFILER:                    ExCorrTotal     0.120463 +/-     0.234144 s,  154 calls,     18.551333 s total
PROFILER:                   Idag_DiagV_I     4.786350 +/-     1.042911 s,  170 calls,    813.679503 s total
PROFILER:                    initWeights     2.017583 +/-     0.000000 s,    1 calls,      2.017583 s total
PROFILER:                    inv(matrix)     0.006972 +/-     0.000446 s,  284 calls,      1.979980 s total
PROFILER:            matrix::diagonalize     0.020712 +/-     0.010844 s,  458 calls,      9.486258 s total
PROFILER:                    matrix::set     0.000011 +/-     0.000018 s, 9500 calls,      0.102398 s total
PROFILER:            orthoMatrix(matrix)     0.003538 +/-     0.002282 s,  302 calls,      1.068616 s total
PROFILER:     RadialFunctionR::transform     0.041041 +/-     0.291592 s,   57 calls,      2.339321 s total
PROFILER:                    reduceKmesh     0.001230 +/-     0.000000 s,    1 calls,      0.001230 s total
PROFILER:   VanDerWaalsD3::energyAndGrad     0.015942 +/-     0.000500 s,    7 calls,      0.111591 s total
PROFILER:               WavefunctionDrag    11.738281 +/-     2.982605 s,    3 calls,     35.214842 s total
PROFILER:                            Y*M     0.404874 +/-     0.106014 s, 2021 calls,    818.249344 s total
PROFILER:                          Y1^Y2     0.424348 +/-     0.124453 s, 1306 calls,    554.197874 s total

MEMUSAGE:                   ColumnBundle     0.425066 GB
MEMUSAGE:        complexScalarFieldTilde     0.006866 GB
MEMUSAGE:                    IndexArrays     0.010376 GB
MEMUSAGE:                         matrix     0.035489 GB
MEMUSAGE:                           misc     0.006912 GB
MEMUSAGE:                    ScalarField     0.049782 GB
MEMUSAGE:               ScalarFieldTilde     0.036349 GB
MEMUSAGE:                          Total     0.491078 GB
