
*************** JDFTx 1.6.0  ***************

Start date and time: Thu Feb 17 16:55:39 2022
Executable /projects/musgravc/apps/jdftx-1.6.1/build/jdftx with command-line: -i in
Running on hosts (process indices):  shas0626.rc.int.colorado.edu (0-23)
Divided in process groups (process indices):  0 (0)  1 (1)  2 (2)  3 (3)  4 (4)  5 (5)  6 (6)  7 (7)  8 (8)  9 (9)  10 (10)  11 (11)  12 (12)  13 (13)  14 (14)  15 (15)  16 (16)  17 (17)  18 (18)  19 (19)  20 (20)  21 (21)  22 (22)  23 (23)
Resource initialization completed at t[s]:      0.00
Run totals: 24 processes, 24 threads, 0 GPUs


Input parsed successfully to the following command list (including defaults):

basis kpoint-dependent
converge-empty-states yes
coords-type Cartesian
core-overlap-check none
coulomb-interaction Periodic
davidson-band-ratio 1.1
density-of-states Etol 1.000000e-06 Esigma 1.000000e-03 \
		Complete \
	Total \
	OrthoOrbital Ag 1   s \
	OrthoOrbital Ag 1   p \
	OrthoOrbital Ag 1   px \
	OrthoOrbital Ag 1   py \
	OrthoOrbital Ag 1   pz \
	OrthoOrbital Ag 1   d \
	OrthoOrbital Ag 1   dxy \
	OrthoOrbital Ag 1   dyz \
	OrthoOrbital Ag 1   dz2 \
	OrthoOrbital Ag 1   dxz \
	OrthoOrbital Ag 1   dx2-y2 \
	OrthoOrbital Ag 2   s \
	OrthoOrbital Ag 2   p \
	OrthoOrbital Ag 2   px \
	OrthoOrbital Ag 2   py \
	OrthoOrbital Ag 2   pz \
	OrthoOrbital Ag 2   d \
	OrthoOrbital Ag 2   dxy \
	OrthoOrbital Ag 2   dyz \
	OrthoOrbital Ag 2   dz2 \
	OrthoOrbital Ag 2   dxz \
	OrthoOrbital Ag 2   dx2-y2 \
	OrthoOrbital Ag 3   s \
	OrthoOrbital Ag 3   p \
	OrthoOrbital Ag 3   px \
	OrthoOrbital Ag 3   py \
	OrthoOrbital Ag 3   pz \
	OrthoOrbital Ag 3   d \
	OrthoOrbital Ag 3   dxy \
	OrthoOrbital Ag 3   dyz \
	OrthoOrbital Ag 3   dz2 \
	OrthoOrbital Ag 3   dxz \
	OrthoOrbital Ag 3   dx2-y2 \
	OrthoOrbital Ag 4   s \
	OrthoOrbital Ag 4   p \
	OrthoOrbital Ag 4   px \
	OrthoOrbital Ag 4   py \
	OrthoOrbital Ag 4   pz \
	OrthoOrbital Ag 4   d \
	OrthoOrbital Ag 4   dxy \
	OrthoOrbital Ag 4   dyz \
	OrthoOrbital Ag 4   dz2 \
	OrthoOrbital Ag 4   dxz \
	OrthoOrbital Ag 4   dx2-y2 \
	OrthoOrbital Ag 5   s \
	OrthoOrbital Ag 5   p \
	OrthoOrbital Ag 5   px \
	OrthoOrbital Ag 5   py \
	OrthoOrbital Ag 5   pz \
	OrthoOrbital Ag 5   d \
	OrthoOrbital Ag 5   dxy \
	OrthoOrbital Ag 5   dyz \
	OrthoOrbital Ag 5   dz2 \
	OrthoOrbital Ag 5   dxz \
	OrthoOrbital Ag 5   dx2-y2 \
	OrthoOrbital Ag 6   s \
	OrthoOrbital Ag 6   p \
	OrthoOrbital Ag 6   px \
	OrthoOrbital Ag 6   py \
	OrthoOrbital Ag 6   pz \
	OrthoOrbital Ag 6   d \
	OrthoOrbital Ag 6   dxy \
	OrthoOrbital Ag 6   dyz \
	OrthoOrbital Ag 6   dz2 \
	OrthoOrbital Ag 6   dxz \
	OrthoOrbital Ag 6   dx2-y2 \
	OrthoOrbital Ag 7   s \
	OrthoOrbital Ag 7   p \
	OrthoOrbital Ag 7   px \
	OrthoOrbital Ag 7   py \
	OrthoOrbital Ag 7   pz \
	OrthoOrbital Ag 7   d \
	OrthoOrbital Ag 7   dxy \
	OrthoOrbital Ag 7   dyz \
	OrthoOrbital Ag 7   dz2 \
	OrthoOrbital Ag 7   dxz \
	OrthoOrbital Ag 7   dx2-y2 \
	OrthoOrbital Ag 8   s \
	OrthoOrbital Ag 8   p \
	OrthoOrbital Ag 8   px \
	OrthoOrbital Ag 8   py \
	OrthoOrbital Ag 8   pz \
	OrthoOrbital Ag 8   d \
	OrthoOrbital Ag 8   dxy \
	OrthoOrbital Ag 8   dyz \
	OrthoOrbital Ag 8   dz2 \
	OrthoOrbital Ag 8   dxz \
	OrthoOrbital Ag 8   dx2-y2 \
	OrthoOrbital Ag 9   s \
	OrthoOrbital Ag 9   p \
	OrthoOrbital Ag 9   px \
	OrthoOrbital Ag 9   py \
	OrthoOrbital Ag 9   pz \
	OrthoOrbital Ag 9   d \
	OrthoOrbital Ag 9   dxy \
	OrthoOrbital Ag 9   dyz \
	OrthoOrbital Ag 9   dz2 \
	OrthoOrbital Ag 9   dxz \
	OrthoOrbital Ag 9   dx2-y2 \
	OrthoOrbital Ag 10   s \
	OrthoOrbital Ag 10   p \
	OrthoOrbital Ag 10   px \
	OrthoOrbital Ag 10   py \
	OrthoOrbital Ag 10   pz \
	OrthoOrbital Ag 10   d \
	OrthoOrbital Ag 10   dxy \
	OrthoOrbital Ag 10   dyz \
	OrthoOrbital Ag 10   dz2 \
	OrthoOrbital Ag 10   dxz \
	OrthoOrbital Ag 10   dx2-y2 \
	OrthoOrbital Ag 11   s \
	OrthoOrbital Ag 11   p \
	OrthoOrbital Ag 11   px \
	OrthoOrbital Ag 11   py \
	OrthoOrbital Ag 11   pz \
	OrthoOrbital Ag 11   d \
	OrthoOrbital Ag 11   dxy \
	OrthoOrbital Ag 11   dyz \
	OrthoOrbital Ag 11   dz2 \
	OrthoOrbital Ag 11   dxz \
	OrthoOrbital Ag 11   dx2-y2 \
	OrthoOrbital Ag 12   s \
	OrthoOrbital Ag 12   p \
	OrthoOrbital Ag 12   px \
	OrthoOrbital Ag 12   py \
	OrthoOrbital Ag 12   pz \
	OrthoOrbital Ag 12   d \
	OrthoOrbital Ag 12   dxy \
	OrthoOrbital Ag 12   dyz \
	OrthoOrbital Ag 12   dz2 \
	OrthoOrbital Ag 12   dxz \
	OrthoOrbital Ag 12   dx2-y2 \
	OrthoOrbital Ag 13   s \
	OrthoOrbital Ag 13   p \
	OrthoOrbital Ag 13   px \
	OrthoOrbital Ag 13   py \
	OrthoOrbital Ag 13   pz \
	OrthoOrbital Ag 13   d \
	OrthoOrbital Ag 13   dxy \
	OrthoOrbital Ag 13   dyz \
	OrthoOrbital Ag 13   dz2 \
	OrthoOrbital Ag 13   dxz \
	OrthoOrbital Ag 13   dx2-y2 \
	OrthoOrbital Ag 14   s \
	OrthoOrbital Ag 14   p \
	OrthoOrbital Ag 14   px \
	OrthoOrbital Ag 14   py \
	OrthoOrbital Ag 14   pz \
	OrthoOrbital Ag 14   d \
	OrthoOrbital Ag 14   dxy \
	OrthoOrbital Ag 14   dyz \
	OrthoOrbital Ag 14   dz2 \
	OrthoOrbital Ag 14   dxz \
	OrthoOrbital Ag 14   dx2-y2 \
	OrthoOrbital Ag 15   s \
	OrthoOrbital Ag 15   p \
	OrthoOrbital Ag 15   px \
	OrthoOrbital Ag 15   py \
	OrthoOrbital Ag 15   pz \
	OrthoOrbital Ag 15   d \
	OrthoOrbital Ag 15   dxy \
	OrthoOrbital Ag 15   dyz \
	OrthoOrbital Ag 15   dz2 \
	OrthoOrbital Ag 15   dxz \
	OrthoOrbital Ag 15   dx2-y2 \
	OrthoOrbital Ag 16   s \
	OrthoOrbital Ag 16   p \
	OrthoOrbital Ag 16   px \
	OrthoOrbital Ag 16   py \
	OrthoOrbital Ag 16   pz \
	OrthoOrbital Ag 16   d \
	OrthoOrbital Ag 16   dxy \
	OrthoOrbital Ag 16   dyz \
	OrthoOrbital Ag 16   dz2 \
	OrthoOrbital Ag 16   dxz \
	OrthoOrbital Ag 16   dx2-y2 \
	OrthoOrbital C 1   s \
	OrthoOrbital C 1   p \
	OrthoOrbital C 1   px \
	OrthoOrbital C 1   py \
	OrthoOrbital C 1   pz \
	OrthoOrbital O 1   s \
	OrthoOrbital O 1   p \
	OrthoOrbital O 1   px \
	OrthoOrbital O 1   py \
	OrthoOrbital O 1   pz
dump End ElecDensity KEdensity BandEigs EigStats RhoAtom DOS Kpoints
dump Ionic State IonicPositions Lattice EigStats Ecomponents
dump 
dump 
dump 
dump 
dump 
dump 
dump 
dump 
dump-name jdft.$VAR
elec-cutoff 20
elec-eigen-algo Davidson
elec-ex-corr gga-PBE
elec-initial-magnetization 0.000000 no
elec-n-bands 189
elec-smearing Fermi 0.001
electronic-minimize  \
	dirUpdateScheme      FletcherReeves \
	linminMethod         DirUpdateRecommended \
	nIterations          100 \
	history              15 \
	knormThreshold       0 \
	energyDiffThreshold  1e-07 \
	nEnergyDiff          2 \
	alphaTstart          1 \
	alphaTmin            1e-10 \
	updateTestStepSize   yes \
	alphaTreduceFactor   0.1 \
	alphaTincreaseFactor 3 \
	nAlphaAdjustMax      3 \
	wolfeEnergy          0.0001 \
	wolfeGradient        0.9 \
	fdTest               no
exchange-regularization WignerSeitzTruncated
fluid LinearPCM 298.000000 1.013250
fluid-anion F- 0.5 MeanFieldLJ \
	epsBulk 1 \
	pMol 0 \
	epsInf 1 \
	Pvap 0 \
	sigmaBulk 0 \
	Rvdw 2.24877 \
	Res 0 \
	tauNuc 343133
fluid-cation Na+ 0.5 MeanFieldLJ \
	epsBulk 1 \
	pMol 0 \
	epsInf 1 \
	Pvap 0 \
	sigmaBulk 0 \
	Rvdw 2.19208 \
	Res 0 \
	tauNuc 343133
fluid-ex-corr lda-TF lda-PZ
fluid-gummel-loop 10 1.000000e-05
fluid-minimize  \
	dirUpdateScheme      PolakRibiere \
	linminMethod         DirUpdateRecommended \
	nIterations          400 \
	history              15 \
	knormThreshold       1e-11 \
	energyDiffThreshold  0 \
	nEnergyDiff          2 \
	alphaTstart          1 \
	alphaTmin            1e-10 \
	updateTestStepSize   yes \
	alphaTreduceFactor   0.1 \
	alphaTincreaseFactor 3 \
	nAlphaAdjustMax      6 \
	wolfeEnergy          0.0001 \
	wolfeGradient        0.9 \
	fdTest               no
fluid-solvent H2O 55.338 ScalarEOS \
	epsBulk 78.4 \
	pMol 0.92466 \
	epsInf 1.77 \
	Pvap 1.06736e-10 \
	sigmaBulk 4.62e-05 \
	Rvdw 2.61727 \
	Res 1.42 \
	tauNuc 343133 \
	poleEl 15 7 1
forces-output-coords Positions
ion Ag   0.000108000000000   0.000108000000000  40.278104999999996 0
ion Ag   0.000108000000000   5.420555000000000  40.278104999999996 0
ion Ag   5.420555000000000   0.000108000000000  40.278104999999996 0
ion Ag   5.420555000000000   5.420555000000000  40.278104999999996 0
ion Ag   2.712153000000000   2.712153000000000  44.189481000000001 0
ion Ag   2.712153000000000   8.132600000000000  44.189481000000001 0
ion Ag   8.132600000000000   2.712153000000000  44.189481000000001 0
ion Ag   8.132600000000000   8.132600000000000  44.189481000000001 0
ion Ag  10.837566000000001   5.417118999999999  32.464458000000000 0
ion Ag  10.837566000000001  10.837566000000001  32.464458000000000 0
ion Ag   5.417118999999999   5.417118999999999  32.464458000000000 0
ion Ag   5.417118999999999  10.837566000000001  32.464458000000000 0
ion Ag   2.711514000000000   2.711514000000000  36.381307999999997 0
ion Ag   2.711514000000000   8.131959999999999  36.381307999999997 0
ion Ag   8.131959999999999   2.711514000000000  36.381307999999997 0
ion Ag   8.131959999999999   8.131959999999999  36.381307999999997 0
ion C   2.712153000000000   2.712153000000000   1.974937000000000 1  Linear 0 0 1
ion O   2.772244000000000   2.712153000000000   4.130262000000000 1  Linear 0 0 1
ion-species /projects/musgravc/apps/jdftx-1.6.0/build/pseudopotentials/GBRV_v1.5/$ID_pbe_v1.uspp
ion-species /projects/musgravc/apps/jdftx-1.6.0/build/pseudopotentials/GBRV_v1.5/$ID_pbe_v1.2.uspp
ion-species /projects/musgravc/apps/jdftx-1.6.0/build/pseudopotentials/GBRV_v1.5/$ID_pbe_v1.4.uspp
ion-species /projects/musgravc/apps/jdftx-1.6.0/build/pseudopotentials/GBRV_v1.5/$ID_pbe_v1.5.uspp
ion-width Ecut
ionic-minimize  \
	dirUpdateScheme      L-BFGS \
	linminMethod         DirUpdateRecommended \
	nIterations          100 \
	history              15 \
	knormThreshold       0.0001 \
	energyDiffThreshold  1e-06 \
	nEnergyDiff          2 \
	alphaTstart          1 \
	alphaTmin            1e-10 \
	updateTestStepSize   yes \
	alphaTreduceFactor   0.1 \
	alphaTincreaseFactor 3 \
	nAlphaAdjustMax      3 \
	wolfeEnergy          0.0001 \
	wolfeGradient        0.9 \
	fdTest               no
kpoint   0.000000000000   0.000000000000   0.000000000000  1.00000000000000
kpoint-folding 6 6 1 
latt-move-scale 0 0 0
latt-scale 1 1 1 
lattice  \
	  10.840894000000000    0.000000000000000    0.000000000000000  \
	   0.000000000000000   10.840894000000000    0.000000000000000  \
	   0.000000000000000    0.000000000000000   45.994010000000003 
lattice-minimize  \
	dirUpdateScheme      L-BFGS \
	linminMethod         DirUpdateRecommended \
	nIterations          0 \
	history              15 \
	knormThreshold       0 \
	energyDiffThreshold  1e-06 \
	nEnergyDiff          2 \
	alphaTstart          1 \
	alphaTmin            1e-10 \
	updateTestStepSize   yes \
	alphaTreduceFactor   0.1 \
	alphaTincreaseFactor 3 \
	nAlphaAdjustMax      3 \
	wolfeEnergy          0.0001 \
	wolfeGradient        0.9 \
	fdTest               no
lcao-params 30 1e-06 0.001
pcm-variant CANDLE
spintype z-spin
subspace-rotation-factor 1 yes
symmetries automatic
symmetry-threshold 0.0001
van-der-waals D3



---------- Setting up symmetries ----------

Found 16 point-group symmetries of the bravais lattice
Found 1 space-group symmetries with basis
Applied RMS atom displacement 0 bohrs to make symmetries exact.

---------- Initializing the Grid ----------
R = 
[      10.8409            0            0  ]
[            0      10.8409            0  ]
[            0            0       45.994  ]
unit cell volume = 5405.45
G =
[   0.579582          0          0  ]
[          0   0.579582          0  ]
[          0          0   0.136609  ]
Minimum fftbox size, Smin = [  44  44  188  ]
Chosen fftbox size, S = [  48  48  192  ]

---------- Exchange Correlation functional ----------
Initalized PBE GGA exchange.
Initalized PBE GGA correlation.

---------- Setting up pseudopotentials ----------
Width of ionic core gaussian charges (only for fluid interactions / plotting) set to 0.397384

Reading pseudopotential file '/projects/musgravc/apps/jdftx-1.6.0/build/pseudopotentials/GBRV_v1.5/ag_pbe_v1.4.uspp':
  Title: Ag.  Created by USPP 7.3.6 on 1-4-15
  Reference state energy: -147.606242.  19 valence electrons in orbitals:
    |400>  occupation: 2  eigenvalue: -3.637437
    |410>  occupation: 6  eigenvalue: -2.297267
    |420>  occupation: 10  eigenvalue: -0.417763
    |500>  occupation: 0.5  eigenvalue: -0.283525
    |510>  occupation: 0  eigenvalue: -0.122889
  lMax: 2  lLocal: 0  QijEcut: 5.5
  6 projectors sampled on a log grid with 717 points:
    l: 0  eig: -0.283528  rCut: 1.5
    l: 0  eig: -3.637440  rCut: 1.5
    l: 1  eig: -0.122892  rCut: 1.5
    l: 1  eig: -2.297267  rCut: 1.5
    l: 2  eig: -0.417762  rCut: 1.7
    l: 2  eig: -1.000000  rCut: 1.7
  Partial core density with radius 1.2
  Transforming core density to a uniform radial grid of dG=0.02 with 1188 points.
  Transforming local potential to a uniform radial grid of dG=0.02 with 1188 points.
  Transforming nonlocal projectors to a uniform radial grid of dG=0.02 with 432 points.
  Transforming density augmentations to a uniform radial grid of dG=0.02 with 1188 points.
  Transforming atomic orbitals to a uniform radial grid of dG=0.02 with 432 points.
  Core radius for overlap checks: 1.70 bohrs.

Reading pseudopotential file '/projects/musgravc/apps/jdftx-1.6.0/build/pseudopotentials/GBRV_v1.5/c_pbe_v1.2.uspp':
  Title: C.  Created by USPP 7.3.6 on 3-2-2014
  Reference state energy: -5.406344.  4 valence electrons in orbitals:
    |200>  occupation: 2  eigenvalue: -0.504890
    |210>  occupation: 2  eigenvalue: -0.194356
  lMax: 1  lLocal: 2  QijEcut: 5
  4 projectors sampled on a log grid with 503 points:
    l: 0  eig: -0.504890  rCut: 1.3
    l: 0  eig: 0.000000  rCut: 1.3
    l: 1  eig: -0.194357  rCut: 1.3
    l: 1  eig: 0.000000  rCut: 1.3
  Partial core density with radius 1.1
  Transforming core density to a uniform radial grid of dG=0.02 with 1188 points.
  Transforming local potential to a uniform radial grid of dG=0.02 with 1188 points.
  Transforming nonlocal projectors to a uniform radial grid of dG=0.02 with 432 points.
  Transforming density augmentations to a uniform radial grid of dG=0.02 with 1188 points.
  Transforming atomic orbitals to a uniform radial grid of dG=0.02 with 432 points.
  Core radius for overlap checks: 1.30 bohrs.

Reading pseudopotential file '/projects/musgravc/apps/jdftx-1.6.0/build/pseudopotentials/GBRV_v1.5/o_pbe_v1.2.uspp':
  Title: O.  Created by USPP 7.3.6 on 3-2-2014
  Reference state energy: -15.894388.  6 valence electrons in orbitals:
    |200>  occupation: 2  eigenvalue: -0.878823
    |210>  occupation: 4  eigenvalue: -0.332131
  lMax: 2  lLocal: 2  QijEcut: 6
  5 projectors sampled on a log grid with 511 points:
    l: 0  eig: -0.878823  rCut: 1.25
    l: 0  eig: 0.000000  rCut: 1.25
    l: 1  eig: -0.332132  rCut: 1.25
    l: 1  eig: 0.000000  rCut: 1.25
    l: 2  eig: 1.000000  rCut: 1.25
  Partial core density with radius 0.7
  Transforming core density to a uniform radial grid of dG=0.02 with 1188 points.
  Transforming local potential to a uniform radial grid of dG=0.02 with 1188 points.
  Transforming nonlocal projectors to a uniform radial grid of dG=0.02 with 432 points.
  Transforming density augmentations to a uniform radial grid of dG=0.02 with 1188 points.
  Transforming atomic orbitals to a uniform radial grid of dG=0.02 with 432 points.
  Core radius for overlap checks: 1.25 bohrs.

Initialized 3 species with 18 total atoms.

Folded 1 k-points by 6x6x1 to 36 k-points.

---------- Setting up k-points, bands, fillings ----------
Adding inversion symmetry to k-mesh for non-inversion-symmetric unit cell.
Reduced to 20 k-points under symmetry. 
Computing the number of bands and number of electrons
Calculating initial fillings.
nElectrons: 314.000000   nBands: 189   nStates: 40

----- Setting up reduced wavefunction bases (one per k-point) -----
average nbasis = 23096.250 , ideal nbasis = 23092.474

----- Initializing Supercell corresponding to k-point mesh -----
Lattice vector linear combinations in supercell:
[   6   0   0  ]
[   0   6   0  ]
[   0   0   1  ]
Supercell lattice vectors:
[  65.0454  0  0  ]
[  0  65.0454  0  ]
[  0  0  45.994  ]

Initializing DFT-D3 calculator:
	Parameters set for gga-PBE functional
	s6:  1.000  s_r6:  1.217
	s8:  0.722  s_r8:  1.000
	Per-atom parameters loaded for:
	Ag:  sqrtQ[a0]:  5.443  Rcov[a0]:  2.173  CN: [ 0.00 0.97 ]
	 C:  sqrtQ[a0]:  3.105  Rcov[a0]:  1.417  CN: [ 0.00 0.99 2.00 3.00 3.98 ]
	 O:  sqrtQ[a0]:  2.594  Rcov[a0]:  1.191  CN: [ 0.00 0.99 1.99 ]

Initializing DFT-D2 calculator for fluid / solvation:
	Ag:  C6:  427.91 Eh-a0^6  R0: 3.097 a0
	 C:  C6:   30.35 Eh-a0^6  R0: 2.744 a0
	 O:  C6:   12.14 Eh-a0^6  R0: 2.536 a0

---------- Setting up ewald sum ----------
Optimum gaussian width for ewald sums = 4.324891 bohr.
Real space sum over 605 unit cells with max indices [  5  5  2  ]
Reciprocal space sum over 4477 terms with max indices [  5  5  18  ]

Computing DFT-D3 correction:
# coordination-number Ag 8.923 8.923 8.923 8.923 7.016 6.035 6.035 6.014 5.999 5.999 5.999 5.999 8.912 8.912 8.912 8.912
# coordination-number C 2.045
# coordination-number O 1.027
# diagonal-C6 Ag 268.61 268.61 268.61 268.61 268.61 268.61 268.61 268.61 268.61 268.61 268.61 268.61 268.61 268.61 268.61 268.61
# diagonal-C6 C 29.40
# diagonal-C6 O 12.79
EvdW_6 =   -0.086620
EvdW_8 =   -0.127281

---------- Allocating electronic variables ----------
Initializing wave functions:  linear combination of atomic orbitals
Ag pseudo-atom occupations:   s ( 2 1 )  p ( 6 0 )  d ( 10 )
C pseudo-atom occupations:   s ( 2 )  p ( 2 )
O pseudo-atom occupations:   s ( 2 )  p ( 4 )
	FillingsUpdate:  mu: -0.080307556  nElectrons: 314.000000  magneticMoment: [ Abs: 0.00261  Tot: +0.00023 ]
LCAOMinimize: Iter:   0  F: -2382.3591756201903991  |grad|_K:  3.828e-03  alpha:  1.000e+00
	FillingsUpdate:  mu: +0.353890637  nElectrons: 314.000000  magneticMoment: [ Abs: 0.00225  Tot: -0.00024 ]
LCAOMinimize: Iter:   1  F: -2382.5261104980709206  |grad|_K:  3.185e-03  alpha:  1.279e-01  linmin:  5.204e-02  cgtest: -9.843e-01  t[s]:     55.20
	FillingsUpdate:  mu: +0.330708808  nElectrons: 314.000000  magneticMoment: [ Abs: 0.00199  Tot: +0.00014 ]
LCAOMinimize: Iter:   2  F: -2382.7789821312562708  |grad|_K:  1.777e-03  alpha:  7.016e-02  linmin:  1.696e-03  cgtest:  8.079e-01  t[s]:     77.65
LCAOMinimize: Encountered beta<0, resetting CG.
	FillingsUpdate:  mu: +0.178164330  nElectrons: 314.000000  magneticMoment: [ Abs: 0.00202  Tot: +0.00009 ]
LCAOMinimize: Iter:   3  F: -2383.0715314453846077  |grad|_K:  1.293e-03  alpha:  1.193e-01  linmin:  4.722e-02  cgtest: -4.951e-01  t[s]:    100.08
	FillingsUpdate:  mu: +0.168695723  nElectrons: 314.000000  magneticMoment: [ Abs: 0.00203  Tot: +0.00010 ]
LCAOMinimize: Iter:   4  F: -2383.0797844926896687  |grad|_K:  1.279e-03  alpha:  1.008e-02  linmin: -1.337e-02  cgtest:  9.893e-01  t[s]:    122.53
LCAOMinimize: Encountered beta<0, resetting CG.
LCAOMinimize: 	Predicted alpha/alphaT>3.000000, increasing alphaT to 3.024557e-02.
	FillingsUpdate:  mu: +0.108439541  nElectrons: 314.000000  magneticMoment: [ Abs: 0.00201  Tot: +0.00007 ]
LCAOMinimize: Iter:   5  F: -2383.1670568908029963  |grad|_K:  3.292e-04  alpha:  5.087e-02  linmin: -1.141e-01  cgtest:  7.592e-01  t[s]:    150.81
LCAOMinimize: Encountered beta<0, resetting CG.
	FillingsUpdate:  mu: +0.089960637  nElectrons: 314.000000  magneticMoment: [ Abs: 0.00202  Tot: +0.00021 ]
LCAOMinimize: Iter:   6  F: -2383.1789782587170521  |grad|_K:  3.627e-04  alpha:  1.257e-01  linmin:  9.597e-03  cgtest: -6.625e-02  t[s]:    173.17
	FillingsUpdate:  mu: +0.094671121  nElectrons: 314.000000  magneticMoment: [ Abs: 0.00200  Tot: +0.00023 ]
LCAOMinimize: Iter:   7  F: -2383.1908236540743928  |grad|_K:  1.756e-04  alpha:  1.009e-01  linmin:  2.283e-02  cgtest:  5.645e-01  t[s]:    195.61
LCAOMinimize: Encountered beta<0, resetting CG.
	FillingsUpdate:  mu: +0.106915995  nElectrons: 314.000000  magneticMoment: [ Abs: 0.00198  Tot: +0.00022 ]
LCAOMinimize: Iter:   8  F: -2383.1940846912862071  |grad|_K:  1.114e-04  alpha:  1.118e-01  linmin: -4.200e-03  cgtest:  2.824e-02  t[s]:    218.09
	FillingsUpdate:  mu: +0.109857643  nElectrons: 314.000000  magneticMoment: [ Abs: 0.00198  Tot: +0.00025 ]
LCAOMinimize: Iter:   9  F: -2383.1953467774997080  |grad|_K:  6.870e-05  alpha:  1.052e-01  linmin:  7.173e-05  cgtest: -7.169e-02  t[s]:    240.51
	FillingsUpdate:  mu: +0.108559428  nElectrons: 314.000000  magneticMoment: [ Abs: 0.00198  Tot: +0.00030 ]
LCAOMinimize: Iter:  10  F: -2383.1964753488127826  |grad|_K:  3.411e-05  alpha:  2.546e-01  linmin:  1.418e-03  cgtest:  1.186e-02  t[s]:    262.93
	FillingsUpdate:  mu: +0.107334488  nElectrons: 314.000000  magneticMoment: [ Abs: 0.00199  Tot: +0.00033 ]
LCAOMinimize: Iter:  11  F: -2383.1966709985440502  |grad|_K:  2.604e-05  alpha:  1.795e-01  linmin: -1.300e-05  cgtest:  1.249e-02  t[s]:    285.32
	FillingsUpdate:  mu: +0.108136289  nElectrons: 314.000000  magneticMoment: [ Abs: 0.00200  Tot: +0.00034 ]
LCAOMinimize: Iter:  12  F: -2383.1967193257423787  |grad|_K:  7.934e-06  alpha:  7.543e-02  linmin: -7.754e-04  cgtest:  1.385e-02  t[s]:    307.77
	FillingsUpdate:  mu: +0.108581275  nElectrons: 314.000000  magneticMoment: [ Abs: 0.00200  Tot: +0.00035 ]
LCAOMinimize: Iter:  13  F: -2383.1967281074430502  |grad|_K:  4.337e-06  alpha:  1.477e-01  linmin: -3.799e-04  cgtest: -5.738e-03  t[s]:    330.15
	FillingsUpdate:  mu: +0.108745826  nElectrons: 314.000000  magneticMoment: [ Abs: 0.00202  Tot: +0.00037 ]
LCAOMinimize: Iter:  14  F: -2383.1967335985577847  |grad|_K:  5.830e-06  alpha:  3.097e-01  linmin:  6.547e-05  cgtest: -2.012e-03  t[s]:    352.47
	FillingsUpdate:  mu: +0.108477396  nElectrons: 314.000000  magneticMoment: [ Abs: 0.00203  Tot: +0.00038 ]
LCAOMinimize: Iter:  15  F: -2383.1967364638726394  |grad|_K:  1.663e-06  alpha:  8.935e-02  linmin: -4.869e-04  cgtest:  2.091e-02  t[s]:    374.82
	FillingsUpdate:  mu: +0.108391614  nElectrons: 314.000000  magneticMoment: [ Abs: 0.00204  Tot: +0.00039 ]
LCAOMinimize: Iter:  16  F: -2383.1967370719262362  |grad|_K:  1.190e-06  alpha:  2.331e-01  linmin:  8.105e-05  cgtest: -4.076e-03  t[s]:    397.14
	FillingsUpdate:  mu: +0.108393127  nElectrons: 314.000000  magneticMoment: [ Abs: 0.00204  Tot: +0.00040 ]
LCAOMinimize: Iter:  17  F: -2383.1967372326657824  |grad|_K:  7.398e-07  alpha:  1.206e-01  linmin:  4.654e-05  cgtest:  1.607e-03  t[s]:    419.49
LCAOMinimize: Converged (|Delta F|<1.000000e-06 for 2 iters).
----- createFluidSolver() ----- (Fluid-side solver setup)
   Initializing fluid molecule 'H2O'
     Initializing site 'O'
       Electron density: proportional to exp(-r/0.36935)*erfc((r-0.51523)/0.36823) with norm 6.826
       Charge density: gaussian nuclear width 0.478731 with net site charge 0.826
       Polarizability: cuspless exponential with width 0.32 and norm 3.73
       Hard sphere radius: 2.57003 bohrs
       Positions in reference frame:
         [ +0.000000 +0.000000 +0.000000 ]
     Initializing site 'H'
       Electron density: proportional to exp(-r/0.34641)*erfc((r-0)/0.390882) with norm 0.587
       Charge density: gaussian nuclear width 0.377945 with net site charge -0.413
       Polarizability: cuspless exponential with width 0.39 and norm 3.3
       Positions in reference frame:
         [ +0.000000 -1.441945 +1.122523 ]
         [ +0.000000 +1.441945 +1.122523 ]
     Net charge: 0   dipole magnitude: 0.927204
     Initializing spherical shell mfKernel with radius 2.61727 Bohr
     deltaS corrections:
       site 'O': -7.54299
       site 'H': -6.83917
   Initializing fluid molecule 'Na+'
     Initializing site 'Na'
       Electron density: proportional to exp(-r/0.19682)*erfc((r-0.71491)/0.41314) with norm 8.1383
       Charge density: gaussian nuclear width 0.365347 with net site charge -1
       Hard sphere radius: 1.86327 bohrs
       Positions in reference frame:
         [ +0.000000 +0.000000 +0.000000 ]
     Net charge: -1   dipole magnitude: 0
     Initializing gaussian mfKernel with width: 1.55004 Bohr
     deltaS corrections:
       site 'Na': -22.3555
   Initializing fluid molecule 'F-'
     Initializing site 'F'
       Electron density: proportional to exp(-r/0.38886)*erfc((r-0)/0.438782) with norm 8
       Charge density: gaussian nuclear width 0.374796 with net site charge 1
       Hard sphere radius: 2.39995 bohrs
       Positions in reference frame:
         [ +0.000000 +0.000000 +0.000000 ]
     Net charge: 1   dipole magnitude: 0
     Initializing gaussian mfKernel with width: 1.59012 Bohr
     deltaS corrections:
       site 'F': -9.04335

Correction to mu due to finite nuclear width = -0.0576365
   Cavity determined by nc: 0.00142 and sigma: 0.707107
   Nonlocal vdW cavity from gaussian model electron density with norm = 8 and sigma = 0.993594 bohr
   Charge asymmetry in cavity with sensitivity pCavity = 36.5 e-bohr/Eh
   Electrostatic cavity expanded by eta = 1.46 bohrs
   Weighted density cavitation model constrained by Nbulk: 0.0049383 bohr^-3, Pvap: 3.14029 kPa, Rvdw: 2.61727 bohr and sigmaBulk: 4.62e-05 Eh/bohr^2 at T: 298 K.
   Weighted density dispersion model using vdW pair potentials with single solvent site with sqrtC6eff: 0.77 SI.


---- Citations for features of the code used in this run ----

   Software package:
      R. Sundararaman, K. Letchworth-Weaver, K.A. Schwarz, D. Gunceler, Y. Ozhabes and T.A. Arias, 'JDFTx: software for joint density-functional theory', SoftwareX 6, 278 (2017)

   gga-PBE exchange-correlation functional:
      J.P. Perdew, K. Burke and M. Ernzerhof, Phys. Rev. Lett. 77, 3865 (1996)

   Pseudopotentials:
      KF Garrity, JW Bennett, KM Rabe and D Vanderbilt, Comput. Mater. Sci. 81, 446 (2014)

   DFT-D3 dispersion correction:
      S. Grimme, J. Antony, S. Ehrlich and H. Krieg, J. Chem. Phys. 132, 154104 (2010)

   DFT-D2 dispersion correction:
      S. Grimme, J. Comput. Chem. 27, 1787 (2006)

   Charge-asymmetric nonlocally-determined local-electric (CANDLE) solvation model:
      R. Sundararaman and W.A. Goddard III, J. Chem. Phys. 142, 064107 (2015)

   Total energy minimization with Auxiliary Hamiltonian:
      C. Freysoldt, S. Boeck, and J. Neugebauer, Phys. Rev. B 79, 241103(R) (2009)

   Linear-tetrahedron sampling for density of states:
      G. Lehmann and M. Taut, Phys. status solidi (b) 54, 469 (1972)

This list may not be complete. Please suggest additional citations or
report any other bugs at https://github.com/shankar1729/jdftx/issues

Initialization completed successfully at t[s]:    426.13


Computing DFT-D3 correction:
# coordination-number Ag 8.923 8.923 8.923 8.923 7.016 6.035 6.035 6.014 5.999 5.999 5.999 5.999 8.912 8.912 8.912 8.912
# coordination-number C 2.045
# coordination-number O 1.027
# diagonal-C6 Ag 268.61 268.61 268.61 268.61 268.61 268.61 268.61 268.61 268.61 268.61 268.61 268.61 268.61 268.61 268.61 268.61
# diagonal-C6 C 29.40
# diagonal-C6 O 12.79
EvdW_6 =   -0.086620
EvdW_8 =   -0.127281
Fluid solver invoked on fresh (random / LCAO) wavefunctions
Running a vacuum solve first:

-------- Initial electronic minimization -----------
	FillingsUpdate:  mu: +0.108393127  nElectrons: 314.000000  magneticMoment: [ Abs: 0.00204  Tot: +0.00040 ]
ElecMinimize: Iter:   0  F: -2383.196737232665782  |grad|_K:  5.350e-05  alpha:  1.000e+00
	FillingsUpdate:  mu: +0.123872585  nElectrons: 314.000000  magneticMoment: [ Abs: 0.00157  Tot: +0.00041 ]
	SubspaceRotationAdjust: set factor to 1
ElecMinimize: Iter:   1  F: -2383.404650279598172  |grad|_K:  2.969e-05  alpha:  4.252e-01  linmin:  1.056e-03  t[s]:    480.87
	FillingsUpdate:  mu: +0.124943062  nElectrons: 314.000000  magneticMoment: [ Abs: 0.00121  Tot: +0.00024 ]
	SubspaceRotationAdjust: set factor to 0.645
ElecMinimize: Iter:   2  F: -2383.442311805859845  |grad|_K:  3.003e-05  alpha:  2.613e-01  linmin:  1.422e-04  t[s]:    515.08
	FillingsUpdate:  mu: +0.126753009  nElectrons: 314.000000  magneticMoment: [ Abs: 0.00107  Tot: +0.00024 ]
	SubspaceRotationAdjust: set factor to 0.342
ElecMinimize: Iter:   3  F: -2383.453793432699058  |grad|_K:  1.554e-05  alpha:  8.125e-02  linmin:  1.173e-03  t[s]:    549.30
ElecMinimize: 	Predicted alpha/alphaT>3.000000, increasing alphaT to 2.437457e-01.
	FillingsUpdate:  mu: +0.124913705  nElectrons: 314.000000  magneticMoment: [ Abs: 0.00076  Tot: +0.00020 ]
	SubspaceRotationAdjust: set factor to 0.544
ElecMinimize: Iter:   4  F: -2383.466047469850309  |grad|_K:  9.091e-06  alpha:  3.122e-01  linmin:  5.481e-06  t[s]:    592.55
	FillingsUpdate:  mu: +0.124264673  nElectrons: 314.000000  magneticMoment: [ Abs: 0.00060  Tot: +0.00016 ]
	SubspaceRotationAdjust: set factor to 0.405
ElecMinimize: Iter:   5  F: -2383.469840061751256  |grad|_K:  7.257e-06  alpha:  2.612e-01  linmin:  1.048e-04  t[s]:    626.76
	FillingsUpdate:  mu: +0.126660325  nElectrons: 314.000000  magneticMoment: [ Abs: 0.00049  Tot: +0.00016 ]
	SubspaceRotationAdjust: set factor to 0.277
ElecMinimize: Iter:   6  F: -2383.471726491563459  |grad|_K:  4.142e-06  alpha:  2.055e-01  linmin: -3.883e-05  t[s]:    660.92
	FillingsUpdate:  mu: +0.127294605  nElectrons: 314.000000  magneticMoment: [ Abs: 0.00034  Tot: +0.00012 ]
	SubspaceRotationAdjust: set factor to 0.308
ElecMinimize: Iter:   7  F: -2383.473102717298843  |grad|_K:  2.483e-06  alpha:  4.572e-01  linmin:  3.642e-05  t[s]:    695.30
	FillingsUpdate:  mu: +0.126639510  nElectrons: 314.000000  magneticMoment: [ Abs: 0.00026  Tot: +0.00010 ]
	SubspaceRotationAdjust: set factor to 0.337
ElecMinimize: Iter:   8  F: -2383.473610961224040  |grad|_K:  1.691e-06  alpha:  4.711e-01  linmin:  2.459e-05  t[s]:    729.55
	FillingsUpdate:  mu: +0.127278149  nElectrons: 314.000000  magneticMoment: [ Abs: 0.00020  Tot: +0.00008 ]
	SubspaceRotationAdjust: set factor to 0.349
ElecMinimize: Iter:   9  F: -2383.473834419112336  |grad|_K:  1.341e-06  alpha:  4.463e-01  linmin:  1.169e-05  t[s]:    764.30
	FillingsUpdate:  mu: +0.127286906  nElectrons: 314.000000  magneticMoment: [ Abs: 0.00016  Tot: +0.00006 ]
	SubspaceRotationAdjust: set factor to 0.316
ElecMinimize: Iter:  10  F: -2383.473960781810092  |grad|_K:  9.475e-07  alpha:  4.013e-01  linmin:  7.050e-06  t[s]:    798.68
	FillingsUpdate:  mu: +0.127612346  nElectrons: 314.000000  magneticMoment: [ Abs: 0.00012  Tot: +0.00005 ]
	SubspaceRotationAdjust: set factor to 0.254
ElecMinimize: Iter:  11  F: -2383.474022051032989  |grad|_K:  7.774e-07  alpha:  3.896e-01  linmin:  1.102e-05  t[s]:    832.94
	FillingsUpdate:  mu: +0.127382379  nElectrons: 314.000000  magneticMoment: [ Abs: 0.00010  Tot: +0.00004 ]
	SubspaceRotationAdjust: set factor to 0.232
ElecMinimize: Iter:  12  F: -2383.474057475996233  |grad|_K:  4.982e-07  alpha:  3.349e-01  linmin:  4.732e-06  t[s]:    867.18
	FillingsUpdate:  mu: +0.127535557  nElectrons: 314.000000  magneticMoment: [ Abs: 0.00007  Tot: +0.00003 ]
	SubspaceRotationAdjust: set factor to 0.271
ElecMinimize: Iter:  13  F: -2383.474077120846687  |grad|_K:  3.467e-07  alpha:  4.523e-01  linmin:  5.036e-06  t[s]:    901.32
	FillingsUpdate:  mu: +0.127651712  nElectrons: 314.000000  magneticMoment: [ Abs: 0.00006  Tot: +0.00002 ]
	SubspaceRotationAdjust: set factor to 0.262
ElecMinimize: Iter:  14  F: -2383.474085892220046  |grad|_K:  2.632e-07  alpha:  4.168e-01  linmin:  2.396e-06  t[s]:    935.60
	FillingsUpdate:  mu: +0.127561546  nElectrons: 314.000000  magneticMoment: [ Abs: 0.00004  Tot: +0.00002 ]
	SubspaceRotationAdjust: set factor to 0.256
ElecMinimize: Iter:  15  F: -2383.474090312509816  |grad|_K:  1.855e-07  alpha:  3.643e-01  linmin:  7.590e-07  t[s]:    969.71
	FillingsUpdate:  mu: +0.127573239  nElectrons: 314.000000  magneticMoment: [ Abs: 0.00003  Tot: +0.00001 ]
	SubspaceRotationAdjust: set factor to 0.297
ElecMinimize: Iter:  16  F: -2383.474092860754354  |grad|_K:  1.341e-07  alpha:  4.227e-01  linmin:  1.370e-06  t[s]:   1004.08
	FillingsUpdate:  mu: +0.127602475  nElectrons: 314.000000  magneticMoment: [ Abs: 0.00003  Tot: +0.00001 ]
	SubspaceRotationAdjust: set factor to 0.322
ElecMinimize: Iter:  17  F: -2383.474094127556327  |grad|_K:  1.026e-07  alpha:  4.019e-01  linmin:  5.739e-07  t[s]:   1038.37
	FillingsUpdate:  mu: +0.127579246  nElectrons: 314.000000  magneticMoment: [ Abs: 0.00002  Tot: +0.00001 ]
	SubspaceRotationAdjust: set factor to 0.315
ElecMinimize: Iter:  18  F: -2383.474094909171527  |grad|_K:  7.606e-08  alpha:  4.235e-01  linmin:  4.297e-07  t[s]:   1072.51
	FillingsUpdate:  mu: +0.127594184  nElectrons: 314.000000  magneticMoment: [ Abs: 0.00001  Tot: +0.00001 ]
	SubspaceRotationAdjust: set factor to 0.292
ElecMinimize: Iter:  19  F: -2383.474095290365767  |grad|_K:  6.074e-08  alpha:  3.759e-01  linmin:  3.431e-07  t[s]:   1106.76
	FillingsUpdate:  mu: +0.127579522  nElectrons: 314.000000  magneticMoment: [ Abs: 0.00001  Tot: +0.00000 ]
	SubspaceRotationAdjust: set factor to 0.314
ElecMinimize: Iter:  20  F: -2383.474095528101316  |grad|_K:  3.962e-08  alpha:  3.677e-01  linmin:  2.259e-07  t[s]:   1140.98
	FillingsUpdate:  mu: +0.127593979  nElectrons: 314.000000  magneticMoment: [ Abs: 0.00001  Tot: +0.00000 ]
	SubspaceRotationAdjust: set factor to 0.361
ElecMinimize: Iter:  21  F: -2383.474095651105017  |grad|_K:  2.883e-08  alpha:  4.471e-01  linmin:  2.500e-07  t[s]:   1175.29
	FillingsUpdate:  mu: +0.127596348  nElectrons: 314.000000  magneticMoment: [ Abs: 0.00001  Tot: +0.00000 ]
	SubspaceRotationAdjust: set factor to 0.384
ElecMinimize: Iter:  22  F: -2383.474095708754703  |grad|_K:  2.302e-08  alpha:  3.960e-01  linmin: -1.196e-07  t[s]:   1209.49
	FillingsUpdate:  mu: +0.127585803  nElectrons: 314.000000  magneticMoment: [ Abs: 0.00000  Tot: +0.00000 ]
	SubspaceRotationAdjust: set factor to 0.342
ElecMinimize: Iter:  23  F: -2383.474095740217308  |grad|_K:  1.729e-08  alpha:  3.388e-01  linmin: -6.815e-07  t[s]:   1243.72
ElecMinimize: Converged (|Delta F|<1.000000e-07 for 2 iters).
Setting wave functions to eigenvectors of Hamiltonian
Converging empty states (this may take a while): |deigs|: 9.778e-03
Vacuum energy after initial minimize, F = -2383.474095740217308


-------- Electronic minimization -----------
	Linear fluid (dielectric constant: 78.4, screening length: 8.12261 Bohr) occupying 0.438598 of unit cell:	Completed after 24 iterations at t[s]:   1368.13
	FillingsUpdate:  mu: -0.143421075  nElectrons: 314.000000  magneticMoment: [ Abs: 0.00000  Tot: +0.00000 ]
ElecMinimize: Iter:   0  F: -2383.473377252747468  |grad|_K:  9.250e-07  alpha:  1.000e+00
	Linear fluid (dielectric constant: 78.4, screening length: 8.12261 Bohr) occupying 0.439273 of unit cell:	Completed after 18 iterations at t[s]:   1398.04
	Linear fluid (dielectric constant: 78.4, screening length: 8.12261 Bohr) occupying 0.438893 of unit cell:	Completed after 18 iterations at t[s]:   1409.60
	FillingsUpdate:  mu: -0.143401750  nElectrons: 314.000000  magneticMoment: [ Abs: 0.00000  Tot: +0.00000 ]
	SubspaceRotationAdjust: set factor to 0.309
ElecMinimize: Iter:   1  F: -2383.473442281817825  |grad|_K:  6.577e-07  alpha:  4.332e-01  linmin: -4.315e-08  t[s]:   1423.98
	Linear fluid (dielectric constant: 78.4, screening length: 8.12261 Bohr) occupying 0.439276 of unit cell:	Completed after 11 iterations at t[s]:   1437.27
	Linear fluid (dielectric constant: 78.4, screening length: 8.12261 Bohr) occupying 0.439441 of unit cell:	Completed after 10 iterations at t[s]:   1448.07
	FillingsUpdate:  mu: -0.143022085  nElectrons: 314.000000  magneticMoment: [ Abs: 0.00000  Tot: +0.00000 ]
	SubspaceRotationAdjust: set factor to 0.398
ElecMinimize: Iter:   2  F: -2383.473489602490645  |grad|_K:  5.178e-07  alpha:  6.230e-01  linmin: -2.788e-07  t[s]:   1462.24
	Linear fluid (dielectric constant: 78.4, screening length: 8.12261 Bohr) occupying 0.439920 of unit cell:	Completed after 13 iterations at t[s]:   1475.80
	Linear fluid (dielectric constant: 78.4, screening length: 8.12261 Bohr) occupying 0.439748 of unit cell:	Completed after 10 iterations at t[s]:   1486.61
	FillingsUpdate:  mu: -0.142605199  nElectrons: 314.000000  magneticMoment: [ Abs: 0.00000  Tot: +0.00000 ]
	SubspaceRotationAdjust: set factor to 0.469
ElecMinimize: Iter:   3  F: -2383.473508256774494  |grad|_K:  3.701e-07  alpha:  3.960e-01  linmin:  2.624e-08  t[s]:   1500.85
	Linear fluid (dielectric constant: 78.4, screening length: 8.12261 Bohr) occupying 0.439954 of unit cell:	Completed after 11 iterations at t[s]:   1514.10
	Linear fluid (dielectric constant: 78.4, screening length: 8.12261 Bohr) occupying 0.439956 of unit cell:	Completed after 0 iterations at t[s]:   1523.87
	FillingsUpdate:  mu: -0.142288335  nElectrons: 314.000000  magneticMoment: [ Abs: 0.00000  Tot: +0.00000 ]
	SubspaceRotationAdjust: set factor to 0.558
ElecMinimize: Iter:   4  F: -2383.473517872017510  |grad|_K:  2.144e-07  alpha:  4.005e-01  linmin: -3.256e-07  t[s]:   1538.11
	Linear fluid (dielectric constant: 78.4, screening length: 8.12261 Bohr) occupying 0.440040 of unit cell:	Completed after 8 iterations at t[s]:   1551.30
	Linear fluid (dielectric constant: 78.4, screening length: 8.12261 Bohr) occupying 0.440060 of unit cell:	Completed after 2 iterations at t[s]:   1561.25
	FillingsUpdate:  mu: -0.142263236  nElectrons: 314.000000  magneticMoment: [ Abs: 0.00000  Tot: +0.00000 ]
	SubspaceRotationAdjust: set factor to 0.629
ElecMinimize: Iter:   5  F: -2383.473521915553647  |grad|_K:  1.350e-07  alpha:  4.990e-01  linmin: -2.007e-07  t[s]:   1575.44
	Linear fluid (dielectric constant: 78.4, screening length: 8.12261 Bohr) occupying 0.440111 of unit cell:	Completed after 8 iterations at t[s]:   1588.53
	Linear fluid (dielectric constant: 78.4, screening length: 8.12261 Bohr) occupying 0.440102 of unit cell:	Completed after 2 iterations at t[s]:   1598.54
	FillingsUpdate:  mu: -0.142176766  nElectrons: 314.000000  magneticMoment: [ Abs: 0.00000  Tot: +0.00000 ]
	SubspaceRotationAdjust: set factor to 0.64
ElecMinimize: Iter:   6  F: -2383.473523240777922  |grad|_K:  8.155e-08  alpha:  4.134e-01  linmin:  1.760e-08  t[s]:   1612.75
	Linear fluid (dielectric constant: 78.4, screening length: 8.12261 Bohr) occupying 0.440115 of unit cell:	Completed after 6 iterations at t[s]:   1625.64
	Linear fluid (dielectric constant: 78.4, screening length: 8.12261 Bohr) occupying 0.440114 of unit cell:	Completed after 0 iterations at t[s]:   1635.33
	FillingsUpdate:  mu: -0.142204406  nElectrons: 314.000000  magneticMoment: [ Abs: 0.00000  Tot: +0.00000 ]
	SubspaceRotationAdjust: set factor to 0.548
ElecMinimize: Iter:   7  F: -2383.473523698792633  |grad|_K:  5.141e-08  alpha:  3.930e-01  linmin:  2.300e-07  t[s]:   1649.60
	Linear fluid (dielectric constant: 78.4, screening length: 8.12261 Bohr) occupying 0.440117 of unit cell:	Completed after 6 iterations at t[s]:   1662.46
	Linear fluid (dielectric constant: 78.4, screening length: 8.12261 Bohr) occupying 0.440116 of unit cell:	Completed after 2 iterations at t[s]:   1673.18
	FillingsUpdate:  mu: -0.142187053  nElectrons: 314.000000  magneticMoment: [ Abs: 0.00000  Tot: +0.00000 ]
	SubspaceRotationAdjust: set factor to 0.392
ElecMinimize: Iter:   8  F: -2383.473523843920702  |grad|_K:  3.328e-08  alpha:  3.158e-01  linmin:  4.484e-07  t[s]:   1687.43
	Linear fluid (dielectric constant: 78.4, screening length: 8.12261 Bohr) occupying 0.440115 of unit cell:	Completed after 2 iterations at t[s]:   1699.85
	Linear fluid (dielectric constant: 78.4, screening length: 8.12261 Bohr) occupying 0.440115 of unit cell:	Completed after 0 iterations at t[s]:   1709.51
	FillingsUpdate:  mu: -0.142196825  nElectrons: 314.000000  magneticMoment: [ Abs: 0.00000  Tot: +0.00000 ]
	SubspaceRotationAdjust: set factor to 0.445
ElecMinimize: Iter:   9  F: -2383.473523911430675  |grad|_K:  1.835e-08  alpha:  3.478e-01  linmin: -4.812e-06  t[s]:   1723.75
	Linear fluid (dielectric constant: 78.4, screening length: 8.12261 Bohr) occupying 0.440112 of unit cell:	Completed after 2 iterations at t[s]:   1736.20
	Linear fluid (dielectric constant: 78.4, screening length: 8.12261 Bohr) occupying 0.440112 of unit cell:	Completed after 0 iterations at t[s]:   1745.89
	FillingsUpdate:  mu: -0.142205420  nElectrons: 314.000000  magneticMoment: [ Abs: 0.00000  Tot: +0.00000 ]
	SubspaceRotationAdjust: set factor to 0.447
ElecMinimize: Iter:  10  F: -2383.473523932783337  |grad|_K:  1.270e-08  alpha:  3.504e-01  linmin: -3.847e-05  t[s]:   1760.13
ElecMinimize: Converged (|Delta F|<1.000000e-07 for 2 iters).
Setting wave functions to eigenvectors of Hamiltonian
Converging empty states (this may take a while): |deigs|: 9.925e-05
Single-point solvation energy estimate, DeltaF = +0.000571807433971

Computing DFT-D3 correction:
# coordination-number Ag 8.923 8.923 8.923 8.923 7.016 6.035 6.035 6.014 5.999 5.999 5.999 5.999 8.912 8.912 8.912 8.912
# coordination-number C 2.045
# coordination-number O 1.027
# diagonal-C6 Ag 268.61 268.61 268.61 268.61 268.61 268.61 268.61 268.61 268.61 268.61 268.61 268.61 268.61 268.61 268.61 268.61
# diagonal-C6 C 29.40
# diagonal-C6 O 12.79
EvdW_6 =   -0.086620
EvdW_8 =   -0.127281

# Ionic positions in cartesian coordinates:
ion Ag   0.000108000000000   0.000108000000000  40.278104999999996 0
ion Ag   0.000108000000000   5.420555000000000  40.278104999999996 0
ion Ag   5.420555000000000   0.000108000000000  40.278104999999996 0
ion Ag   5.420555000000000   5.420555000000000  40.278104999999996 0
ion Ag   2.712153000000000   2.712153000000000  44.189481000000001 0
ion Ag   2.712153000000000   8.132600000000000  44.189481000000001 0
ion Ag   8.132600000000000   2.712153000000000  44.189481000000001 0
ion Ag   8.132600000000000   8.132600000000000  44.189481000000001 0
ion Ag  10.837566000000001   5.417118999999999  32.464458000000000 0
ion Ag  10.837566000000001  10.837566000000001  32.464458000000000 0
ion Ag   5.417118999999999   5.417118999999999  32.464458000000000 0
ion Ag   5.417118999999999  10.837566000000001  32.464458000000000 0
ion Ag   2.711514000000000   2.711514000000000  36.381307999999997 0
ion Ag   2.711514000000000   8.131959999999999  36.381307999999997 0
ion Ag   8.131959999999999   2.711514000000000  36.381307999999997 0
ion Ag   8.131959999999999   8.131959999999999  36.381307999999997 0
ion C   2.712153000000000   2.712153000000000   1.974937000000000 1  Linear 0 0 1
ion O   2.772244000000000   2.712153000000000   4.130262000000000 1  Linear 0 0 1

# Forces in Cartesian coordinates:
force Ag   0.001002477740599   0.000993054877588  -0.000119610900785 0
force Ag   0.001002791224716  -0.000937235923358  -0.000119350723061 0
force Ag  -0.000963394079450   0.001028741154447  -0.000074774086057 0
force Ag  -0.000963458756795  -0.000973272657877  -0.000074532361166 0
force Ag  -0.000034116150214  -0.000029559465646  -0.012791318801772 0
force Ag   0.000006641276961  -0.000037125493095  -0.002041831394984 0
force Ag  -0.000160542866659  -0.000024378740310  -0.002047855029909 0
force Ag  -0.000046912540059  -0.000023231440628  -0.001783725776014 0
force Ag   0.000298278114789  -0.000192535434776  -0.000022594109388 0
force Ag   0.000298405792146   0.000295901420381  -0.000023869603044 0
force Ag  -0.000195226031649  -0.000197841070378  -0.000033541917010 0
force Ag  -0.000195384718073   0.000300788974204  -0.000035014126335 0
force Ag  -0.000082587863673  -0.000079998603923  -0.000197721373500 0
force Ag  -0.000070130965858  -0.000079401756699  -0.001112003562631 0
force Ag  -0.000075242172971  -0.000064171873632  -0.001111416357543 0
force Ag  -0.000063586794708  -0.000065659038701   0.000788267786280 0
force C  -0.000399778756906  -0.000004814252298  -0.005423911441176 1  Linear 0 0 1
force O   0.000545916379318   0.000002196387627   0.025120253846851 1  Linear 0 0 1

# Energy components:
   A_diel =        0.0003884663255663
   Eewald =     6790.2291880722941642
       EH =     8945.2357864334626356
     Eloc =   -18498.2363011415945948
      Enl =       66.2915651864986302
     EvdW =       -0.2139008170218548
      Exc =     -237.0754874443400979
 Exc_core =        3.4294631597765761
       KE =      546.8662425468892252
-------------------------------------
     Etot =    -2383.4730555377104793
       TS =        0.0004683950728201
-------------------------------------
        F =    -2383.4735239327833369


Dumping 'jdft.fillings' ... done
Dumping 'jdft.wfns' ... done
Dumping 'jdft.fluidState' ... done
Dumping 'jdft.ionpos' ... done
Dumping 'jdft.lattice' ... done
Dumping 'jdft.eigenvals' ... done
Dumping 'jdft.eigStats' ... 
	eMin: -3.546794 at state 20 ( [ +0.000000 +0.000000 +0.000000 ] spin -1 )
	HOMO: -0.145677 at state 33 ( [ +0.333333 +0.500000 +0.000000 ] spin -1 )
	mu  : -0.142205
	LUMO: -0.141730 at state 19 ( [ +0.500000 +0.500000 +0.000000 ] spin 1 )
	eMax: +0.143680 at state 37 ( [ +0.500000 +0.166667 +0.000000 ] spin -1 )
	HOMO-LUMO gap: +0.003947
	Optical gap  : +0.010171 at state 4 ( [ +0.166667 +0.000000 +0.000000 ] spin 1 )
Dumping 'jdft.Ecomponents' ... done
IonicMinimize: Iter:   0  F: -2383.473523932783337  |grad|_K:  1.817e-02  t[s]:   1866.11

#--- Lowdin population analysis ---
# oxidation-state Ag -0.039 -0.039 -0.039 -0.039 -0.193 +0.048 +0.048 +0.060 +0.049 +0.049 +0.049 +0.049 -0.035 -0.039 -0.039 -0.043
# magnetic-moments Ag +0.000 +0.000 +0.000 +0.000 +0.000 +0.000 +0.000 +0.000 +0.000 +0.000 +0.000 +0.000 +0.000 +0.000 +0.000 +0.000
# oxidation-state C +0.442
# magnetic-moments C +0.000
# oxidation-state O -0.086
# magnetic-moments O -0.000


Computing DFT-D3 correction:
# coordination-number Ag 8.923 8.923 8.923 8.923 7.015 6.035 6.035 6.014 5.999 5.999 5.999 5.999 8.912 8.912 8.912 8.912
# coordination-number C 2.046
# coordination-number O 1.026
# diagonal-C6 Ag 268.61 268.61 268.61 268.61 268.61 268.61 268.61 268.61 268.61 268.61 268.61 268.61 268.61 268.61 268.61 268.61
# diagonal-C6 C 29.40
# diagonal-C6 O 12.79
EvdW_6 =   -0.086610
EvdW_8 =   -0.127271

-------- Electronic minimization -----------
	Linear fluid (dielectric constant: 78.4, screening length: 8.12261 Bohr) occupying 0.440089 of unit cell:	Completed after 19 iterations at t[s]:   1880.22
	FillingsUpdate:  mu: -0.140417265  nElectrons: 314.000000  magneticMoment: [ Abs: 0.00000  Tot: +0.00000 ]
ElecMinimize: Iter:   0  F: -2383.468022911634307  |grad|_K:  8.742e-06  alpha:  1.000e+00
	Linear fluid (dielectric constant: 78.4, screening length: 8.12261 Bohr) occupying 0.439700 of unit cell:	Completed after 21 iterations at t[s]:   1910.53
	Linear fluid (dielectric constant: 78.4, screening length: 8.12261 Bohr) occupying 0.439936 of unit cell:	Completed after 20 iterations at t[s]:   1922.34
	FillingsUpdate:  mu: -0.142737982  nElectrons: 314.000000  magneticMoment: [ Abs: 0.00000  Tot: +0.00000 ]
	SubspaceRotationAdjust: set factor to 0.43
ElecMinimize: Iter:   1  F: -2383.473198360045899  |grad|_K:  2.261e-06  alpha:  3.857e-01  linmin: -1.294e-04  t[s]:   1936.67
	Linear fluid (dielectric constant: 78.4, screening length: 8.12261 Bohr) occupying 0.439880 of unit cell:	Completed after 15 iterations at t[s]:   1950.34
	Linear fluid (dielectric constant: 78.4, screening length: 8.12261 Bohr) occupying 0.439885 of unit cell:	Completed after 8 iterations at t[s]:   1961.00
	FillingsUpdate:  mu: -0.142989869  nElectrons: 314.000000  magneticMoment: [ Abs: 0.00000  Tot: +0.00000 ]
	SubspaceRotationAdjust: set factor to 0.419
ElecMinimize: Iter:   2  F: -2383.473513551306496  |grad|_K:  1.078e-06  alpha:  3.512e-01  linmin: -9.281e-06  t[s]:   1975.16
	Linear fluid (dielectric constant: 78.4, screening length: 8.12261 Bohr) occupying 0.439841 of unit cell:	Completed after 11 iterations at t[s]:   1988.70
	Linear fluid (dielectric constant: 78.4, screening length: 8.12261 Bohr) occupying 0.439829 of unit cell:	Completed after 8 iterations at t[s]:   1999.30
	FillingsUpdate:  mu: -0.143414493  nElectrons: 314.000000  magneticMoment: [ Abs: 0.00000  Tot: +0.00000 ]
	SubspaceRotationAdjust: set factor to 0.447
ElecMinimize: Iter:   3  F: -2383.473603967059262  |grad|_K:  6.816e-07  alpha:  4.434e-01  linmin:  1.178e-05  t[s]:   2013.59
	Linear fluid (dielectric constant: 78.4, screening length: 8.12261 Bohr) occupying 0.439783 of unit cell:	Completed after 13 iterations at t[s]:   2027.09
	Linear fluid (dielectric constant: 78.4, screening length: 8.12261 Bohr) occupying 0.439787 of unit cell:	Completed after 6 iterations at t[s]:   2037.62
	FillingsUpdate:  mu: -0.143562207  nElectrons: 314.000000  magneticMoment: [ Abs: 0.00000  Tot: +0.00000 ]
	SubspaceRotationAdjust: set factor to 0.524
ElecMinimize: Iter:   4  F: -2383.473636787839496  |grad|_K:  4.490e-07  alpha:  4.031e-01  linmin:  1.588e-05  t[s]:   2051.83
	Linear fluid (dielectric constant: 78.4, screening length: 8.12261 Bohr) occupying 0.439763 of unit cell:	Completed after 7 iterations at t[s]:   2064.83
	Linear fluid (dielectric constant: 78.4, screening length: 8.12261 Bohr) occupying 0.439764 of unit cell:	Completed after 2 iterations at t[s]:   2074.90
	FillingsUpdate:  mu: -0.143586762  nElectrons: 314.000000  magneticMoment: [ Abs: 0.00000  Tot: +0.00000 ]
	SubspaceRotationAdjust: set factor to 0.651
ElecMinimize: Iter:   5  F: -2383.473650340811673  |grad|_K:  2.993e-07  alpha:  3.840e-01  linmin:  6.003e-06  t[s]:   2089.04
	Linear fluid (dielectric constant: 78.4, screening length: 8.12261 Bohr) occupying 0.439761 of unit cell:	Completed after 7 iterations at t[s]:   2102.07
	Linear fluid (dielectric constant: 78.4, screening length: 8.12261 Bohr) occupying 0.439760 of unit cell:	Completed after 3 iterations at t[s]:   2112.26
	FillingsUpdate:  mu: -0.143541858  nElectrons: 314.000000  magneticMoment: [ Abs: 0.00000  Tot: +0.00000 ]
	SubspaceRotationAdjust: set factor to 0.815
ElecMinimize: Iter:   6  F: -2383.473657310084036  |grad|_K:  1.647e-07  alpha:  4.441e-01  linmin:  6.395e-06  t[s]:   2126.54
	Linear fluid (dielectric constant: 78.4, screening length: 8.12261 Bohr) occupying 0.439772 of unit cell:	Completed after 8 iterations at t[s]:   2139.66
	Linear fluid (dielectric constant: 78.4, screening length: 8.12261 Bohr) occupying 0.439773 of unit cell:	Completed after 2 iterations at t[s]:   2149.72
	FillingsUpdate:  mu: -0.143433825  nElectrons: 314.000000  magneticMoment: [ Abs: 0.00000  Tot: +0.00000 ]
	SubspaceRotationAdjust: set factor to 0.885
ElecMinimize: Iter:   7  F: -2383.473659633985335  |grad|_K:  1.132e-07  alpha:  4.891e-01  linmin: -5.449e-06  t[s]:   2164.01
	Linear fluid (dielectric constant: 78.4, screening length: 8.12261 Bohr) occupying 0.439785 of unit cell:	Completed after 7 iterations at t[s]:   2177.06
	Linear fluid (dielectric constant: 78.4, screening length: 8.12261 Bohr) occupying 0.439780 of unit cell:	Completed after 7 iterations at t[s]:   2187.57
	FillingsUpdate:  mu: -0.143449013  nElectrons: 314.000000  magneticMoment: [ Abs: 0.00000  Tot: +0.00000 ]
	SubspaceRotationAdjust: set factor to 0.675
ElecMinimize: Iter:   8  F: -2383.473660318770271  |grad|_K:  7.390e-08  alpha:  3.042e-01  linmin:  1.351e-05  t[s]:   2201.82
	Linear fluid (dielectric constant: 78.4, screening length: 8.12261 Bohr) occupying 0.439790 of unit cell:	Completed after 8 iterations at t[s]:   2214.92
	Linear fluid (dielectric constant: 78.4, screening length: 8.12261 Bohr) occupying 0.439787 of unit cell:	Completed after 3 iterations at t[s]:   2225.13
	FillingsUpdate:  mu: -0.143429022  nElectrons: 314.000000  magneticMoment: [ Abs: 0.00000  Tot: +0.00000 ]
	SubspaceRotationAdjust: set factor to 0.42
ElecMinimize: Iter:   9  F: -2383.473660534730698  |grad|_K:  4.375e-08  alpha:  2.259e-01  linmin:  1.009e-04  t[s]:   2239.30
	Linear fluid (dielectric constant: 78.4, screening length: 8.12261 Bohr) occupying 0.439792 of unit cell:	Completed after 2 iterations at t[s]:   2251.76
	Linear fluid (dielectric constant: 78.4, screening length: 8.12261 Bohr) occupying 0.439794 of unit cell:	Completed after 2 iterations at t[s]:   2261.84
	FillingsUpdate:  mu: -0.143416834  nElectrons: 314.000000  magneticMoment: [ Abs: 0.00000  Tot: +0.00000 ]
	SubspaceRotationAdjust: set factor to 0.451
ElecMinimize: Iter:  10  F: -2383.473660661192753  |grad|_K:  2.375e-08  alpha:  3.806e-01  linmin: -2.125e-04  t[s]:   2276.00
	Linear fluid (dielectric constant: 78.4, screening length: 8.12261 Bohr) occupying 0.439798 of unit cell:	Completed after 3 iterations at t[s]:   2288.60
	Linear fluid (dielectric constant: 78.4, screening length: 8.12261 Bohr) occupying 0.439798 of unit cell:	Completed after 0 iterations at t[s]:   2298.34
	FillingsUpdate:  mu: -0.143423740  nElectrons: 314.000000  magneticMoment: [ Abs: 0.00000  Tot: +0.00000 ]
	SubspaceRotationAdjust: set factor to 0.457
ElecMinimize: Iter:  11  F: -2383.473660694884984  |grad|_K:  1.749e-08  alpha:  3.374e-01  linmin: -6.440e-05  t[s]:   2312.59
	Linear fluid (dielectric constant: 78.4, screening length: 8.12261 Bohr) occupying 0.439801 of unit cell:	Completed after 1 iterations at t[s]:   2324.92
	Linear fluid (dielectric constant: 78.4, screening length: 8.12261 Bohr) occupying 0.439801 of unit cell:	Completed after 0 iterations at t[s]:   2334.70
	FillingsUpdate:  mu: -0.143420862  nElectrons: 314.000000  magneticMoment: [ Abs: 0.00000  Tot: +0.00000 ]
	SubspaceRotationAdjust: set factor to 0.517
ElecMinimize: Iter:  12  F: -2383.473660712119454  |grad|_K:  1.082e-08  alpha:  3.191e-01  linmin: -2.963e-04  t[s]:   2348.92
ElecMinimize: Converged (|Delta F|<1.000000e-07 for 2 iters).
Setting wave functions to eigenvectors of Hamiltonian
Converging empty states (this may take a while): |deigs|: 4.111e-07

Computing DFT-D3 correction:
# coordination-number Ag 8.923 8.923 8.923 8.923 7.015 6.035 6.035 6.014 5.999 5.999 5.999 5.999 8.912 8.912 8.912 8.912
# coordination-number C 2.046
# coordination-number O 1.026
# diagonal-C6 Ag 268.61 268.61 268.61 268.61 268.61 268.61 268.61 268.61 268.61 268.61 268.61 268.61 268.61 268.61 268.61 268.61
# diagonal-C6 C 29.40
# diagonal-C6 O 12.79
EvdW_6 =   -0.086610
EvdW_8 =   -0.127271

# Ionic positions in cartesian coordinates:
ion Ag   0.000108000000000   0.000108000000000  40.278104999999996 0
ion Ag   0.000108000000000   5.420555000000000  40.278104999999996 0
ion Ag   5.420555000000000   0.000108000000000  40.278104999999996 0
ion Ag   5.420555000000000   5.420555000000000  40.278104999999996 0
ion Ag   2.712153000000000   2.712153000000000  44.189481000000001 0
ion Ag   2.712153000000000   8.132600000000000  44.189481000000001 0
ion Ag   8.132600000000000   2.712153000000000  44.189481000000001 0
ion Ag   8.132600000000000   8.132600000000000  44.189481000000001 0
ion Ag  10.837566000000001   5.417118999999999  32.464458000000000 0
ion Ag  10.837566000000001  10.837566000000001  32.464458000000000 0
ion Ag   5.417118999999999   5.417118999999999  32.464458000000000 0
ion Ag   5.417118999999999  10.837566000000001  32.464458000000000 0
ion Ag   2.711514000000000   2.711514000000000  36.381307999999997 0
ion Ag   2.711514000000000   8.131959999999999  36.381307999999997 0
ion Ag   8.131959999999999   2.711514000000000  36.381307999999997 0
ion Ag   8.131959999999999   8.131959999999999  36.381307999999997 0
ion C   2.712153000000000   2.712153000000000   1.969513088558823 1  Linear 0 0 1
ion O   2.772244000000000   2.712153000000000   4.155382253846851 1  Linear 0 0 1

# Forces in Cartesian coordinates:
force Ag   0.001000351576969   0.000991440704466   0.000020081203973 0
force Ag   0.001000667338312  -0.000935353266835   0.000020427617137 0
force Ag  -0.000960756985997   0.001025893898110   0.000064154863290 0
force Ag  -0.000960860141543  -0.000970168874286   0.000064206172401 0
force Ag  -0.000022768585802  -0.000029496892477  -0.012744564627606 0
force Ag   0.000004810568773  -0.000036803516872  -0.001966975798739 0
force Ag  -0.000161493579421  -0.000024526335127  -0.001970414823921 0
force Ag  -0.000045190411787  -0.000023001896683  -0.001817235168743 0
force Ag   0.000288949618175  -0.000183447661815  -0.000053975812521 0
force Ag   0.000289030581374   0.000286799317574  -0.000055247626496 0
force Ag  -0.000185904993466  -0.000188267556238  -0.000065130963582 0
force Ag  -0.000186032239135   0.000291312087178  -0.000066645768711 0
force Ag  -0.000083683755598  -0.000080549286944  -0.000152872934661 0
force Ag  -0.000070392250418  -0.000079629083014  -0.001054968787969 0
force Ag  -0.000074704015531  -0.000063903615121  -0.001053792110584 0
force Ag  -0.000063357196369  -0.000065558420998   0.000843625177059 0
force C   0.000513264363100  -0.000004875560444   0.027913290396592 1  Linear 0 0 1
force O  -0.000374326696871   0.000002105565781  -0.008478660155157 1  Linear 0 0 1

# Energy components:
   A_diel =        0.0003877804966869
   Eewald =     6789.0821964042761465
       EH =     8943.7317783759244776
     Eloc =   -18495.5503595198824769
      Enl =       66.2808299349173922
     EvdW =       -0.2138808731176416
      Exc =     -237.0623290155349139
 Exc_core =        3.4294664697763224
       KE =      546.8287234004322954
-------------------------------------
     Etot =    -2383.4731870427117428
       TS =        0.0004736694077233
-------------------------------------
        F =    -2383.4736607121194538


Dumping 'jdft.fillings' ... done
Dumping 'jdft.wfns' ... done
Dumping 'jdft.fluidState' ... done
Dumping 'jdft.ionpos' ... done
Dumping 'jdft.lattice' ... done
Dumping 'jdft.eigenvals' ... done
Dumping 'jdft.eigStats' ... 
	eMin: -3.548133 at state 20 ( [ +0.000000 +0.000000 +0.000000 ] spin -1 )
	HOMO: -0.146647 at state 13 ( [ +0.333333 +0.500000 +0.000000 ] spin 1 )
	mu  : -0.143421
	LUMO: -0.142868 at state 19 ( [ +0.500000 +0.500000 +0.000000 ] spin 1 )
	eMax: +0.143504 at state 17 ( [ +0.500000 +0.166667 +0.000000 ] spin 1 )
	HOMO-LUMO gap: +0.003779
	Optical gap  : +0.009874 at state 4 ( [ +0.166667 +0.000000 +0.000000 ] spin 1 )
Dumping 'jdft.Ecomponents' ... done
IonicMinimize: Iter:   1  F: -2383.473660712119454  |grad|_K:  2.063e-02  alpha:  1.000e+00  linmin:  4.405e-01  t[s]:   2407.56

#--- Lowdin population analysis ---
# oxidation-state Ag -0.039 -0.039 -0.039 -0.039 -0.192 +0.050 +0.050 +0.062 +0.051 +0.051 +0.051 +0.051 -0.035 -0.039 -0.039 -0.043
# magnetic-moments Ag -0.000 -0.000 +0.000 +0.000 +0.000 +0.000 -0.000 +0.000 +0.000 -0.000 +0.000 +0.000 +0.000 +0.000 -0.000 -0.000
# oxidation-state C +0.435
# magnetic-moments C -0.000
# oxidation-state O -0.099
# magnetic-moments O -0.000


Computing DFT-D3 correction:
# coordination-number Ag 8.923 8.923 8.923 8.923 7.015 6.035 6.035 6.014 5.999 5.999 5.999 5.999 8.912 8.912 8.912 8.912
# coordination-number C 2.045
# coordination-number O 1.026
# diagonal-C6 Ag 268.61 268.61 268.61 268.61 268.61 268.61 268.61 268.61 268.61 268.61 268.61 268.61 268.61 268.61 268.61 268.61
# diagonal-C6 C 29.40
# diagonal-C6 O 12.79
EvdW_6 =   -0.086609
EvdW_8 =   -0.127268

-------- Electronic minimization -----------
	Linear fluid (dielectric constant: 78.4, screening length: 8.12261 Bohr) occupying 0.439843 of unit cell:	Completed after 7 iterations at t[s]:   2421.78
	FillingsUpdate:  mu: -0.143213221  nElectrons: 314.000000  magneticMoment: [ Abs: 0.00000  Tot: +0.00000 ]
ElecMinimize: Iter:   0  F: -2383.473801386750893  |grad|_K:  6.489e-07  alpha:  1.000e+00
	Linear fluid (dielectric constant: 78.4, screening length: 8.12261 Bohr) occupying 0.439862 of unit cell:	Completed after 14 iterations at t[s]:   2451.53
	Linear fluid (dielectric constant: 78.4, screening length: 8.12261 Bohr) occupying 0.439851 of unit cell:	Completed after 12 iterations at t[s]:   2462.57
	FillingsUpdate:  mu: -0.142817475  nElectrons: 314.000000  magneticMoment: [ Abs: 0.00000  Tot: +0.00000 ]
	SubspaceRotationAdjust: set factor to 0.747
ElecMinimize: Iter:   1  F: -2383.473833287760044  |grad|_K:  3.333e-07  alpha:  4.325e-01  linmin:  1.008e-05  t[s]:   2476.71
	Linear fluid (dielectric constant: 78.4, screening length: 8.12261 Bohr) occupying 0.439838 of unit cell:	Completed after 10 iterations at t[s]:   2489.97
	Linear fluid (dielectric constant: 78.4, screening length: 8.12261 Bohr) occupying 0.439836 of unit cell:	Completed after 3 iterations at t[s]:   2500.12
	FillingsUpdate:  mu: -0.142975351  nElectrons: 314.000000  magneticMoment: [ Abs: 0.00000  Tot: +0.00000 ]
	SubspaceRotationAdjust: set factor to 0.94
ElecMinimize: Iter:   2  F: -2383.473843230528018  |grad|_K:  2.693e-07  alpha:  5.104e-01  linmin: -1.692e-05  t[s]:   2514.41
	Linear fluid (dielectric constant: 78.4, screening length: 8.12261 Bohr) occupying 0.439829 of unit cell:	Completed after 11 iterations at t[s]:   2527.87
	Linear fluid (dielectric constant: 78.4, screening length: 8.12261 Bohr) occupying 0.439831 of unit cell:	Completed after 6 iterations at t[s]:   2538.29
	FillingsUpdate:  mu: -0.142785158  nElectrons: 314.000000  magneticMoment: [ Abs: 0.00000  Tot: +0.00000 ]
	SubspaceRotationAdjust: set factor to 1.05
ElecMinimize: Iter:   3  F: -2383.473848068499137  |grad|_K:  1.627e-07  alpha:  3.800e-01  linmin:  3.679e-06  t[s]:   2552.62
	Linear fluid (dielectric constant: 78.4, screening length: 8.12261 Bohr) occupying 0.439816 of unit cell:	Completed after 9 iterations at t[s]:   2565.86
	Linear fluid (dielectric constant: 78.4, screening length: 8.12261 Bohr) occupying 0.439819 of unit cell:	Completed after 2 iterations at t[s]:   2575.93
	FillingsUpdate:  mu: -0.142973099  nElectrons: 314.000000  magneticMoment: [ Abs: 0.00000  Tot: +0.00000 ]
	SubspaceRotationAdjust: set factor to 1.08
ElecMinimize: Iter:   4  F: -2383.473849500651340  |grad|_K:  9.015e-08  alpha:  3.086e-01  linmin:  1.594e-05  t[s]:   2590.21
	Linear fluid (dielectric constant: 78.4, screening length: 8.12261 Bohr) occupying 0.439820 of unit cell:	Completed after 8 iterations at t[s]:   2603.33
	Linear fluid (dielectric constant: 78.4, screening length: 8.12261 Bohr) occupying 0.439820 of unit cell:	Completed after 0 iterations at t[s]:   2613.05
	FillingsUpdate:  mu: -0.142843112  nElectrons: 314.000000  magneticMoment: [ Abs: 0.00000  Tot: +0.00000 ]
	SubspaceRotationAdjust: set factor to 0.801
ElecMinimize: Iter:   5  F: -2383.473849922929276  |grad|_K:  6.433e-08  alpha:  2.973e-01  linmin:  3.312e-06  t[s]:   2627.29
	Linear fluid (dielectric constant: 78.4, screening length: 8.12261 Bohr) occupying 0.439812 of unit cell:	Completed after 9 iterations at t[s]:   2640.49
	Linear fluid (dielectric constant: 78.4, screening length: 8.12261 Bohr) occupying 0.439815 of unit cell:	Completed after 2 iterations at t[s]:   2650.59
	FillingsUpdate:  mu: -0.142961695  nElectrons: 314.000000  magneticMoment: [ Abs: 0.00000  Tot: -0.00000 ]
	SubspaceRotationAdjust: set factor to 0.502
ElecMinimize: Iter:   6  F: -2383.473850067821331  |grad|_K:  3.310e-08  alpha:  2.018e-01  linmin:  6.678e-05  t[s]:   2664.88
	Linear fluid (dielectric constant: 78.4, screening length: 8.12261 Bohr) occupying 0.439815 of unit cell:	Completed after 3 iterations at t[s]:   2677.47
	Linear fluid (dielectric constant: 78.4, screening length: 8.12261 Bohr) occupying 0.439814 of unit cell:	Completed after 2 iterations at t[s]:   2687.49
	FillingsUpdate:  mu: -0.142940936  nElectrons: 314.000000  magneticMoment: [ Abs: 0.00000  Tot: -0.00000 ]
	SubspaceRotationAdjust: set factor to 0.565
ElecMinimize: Iter:   7  F: -2383.473850131275412  |grad|_K:  1.713e-08  alpha:  3.245e-01  linmin: -8.715e-04  t[s]:   2701.81
	Linear fluid (dielectric constant: 78.4, screening length: 8.12261 Bohr) occupying 0.439814 of unit cell:	Completed after 2 iterations at t[s]:   2714.33
	Linear fluid (dielectric constant: 78.4, screening length: 8.12261 Bohr) occupying 0.439814 of unit cell:	Completed after 0 iterations at t[s]:   2724.05
	FillingsUpdate:  mu: -0.142928911  nElectrons: 314.000000  magneticMoment: [ Abs: 0.00000  Tot: -0.00000 ]
	SubspaceRotationAdjust: set factor to 0.646
ElecMinimize: Iter:   8  F: -2383.473850152101022  |grad|_K:  1.120e-08  alpha:  3.837e-01  linmin: -4.819e-04  t[s]:   2738.33
ElecMinimize: Converged (|Delta F|<1.000000e-07 for 2 iters).
Setting wave functions to eigenvectors of Hamiltonian
Converging empty states (this may take a while): |deigs|: 5.136e-08

Computing DFT-D3 correction:
# coordination-number Ag 8.923 8.923 8.923 8.923 7.015 6.035 6.035 6.014 5.999 5.999 5.999 5.999 8.912 8.912 8.912 8.912
# coordination-number C 2.045
# coordination-number O 1.026
# diagonal-C6 Ag 268.61 268.61 268.61 268.61 268.61 268.61 268.61 268.61 268.61 268.61 268.61 268.61 268.61 268.61 268.61 268.61
# diagonal-C6 C 29.40
# diagonal-C6 O 12.79
EvdW_6 =   -0.086609
EvdW_8 =   -0.127268

# Ionic positions in cartesian coordinates:
ion Ag   0.000108000000000   0.000108000000000  40.278104999999996 0
ion Ag   0.000108000000000   5.420555000000000  40.278104999999996 0
ion Ag   5.420555000000000   0.000108000000000  40.278104999999996 0
ion Ag   5.420555000000000   5.420555000000000  40.278104999999996 0
ion Ag   2.712153000000000   2.712153000000000  44.189481000000001 0
ion Ag   2.712153000000000   8.132600000000000  44.189481000000001 0
ion Ag   8.132600000000000   2.712153000000000  44.189481000000001 0
ion Ag   8.132600000000000   8.132600000000000  44.189481000000001 0
ion Ag  10.837566000000001   5.417118999999999  32.464458000000000 0
ion Ag  10.837566000000001  10.837566000000001  32.464458000000000 0
ion Ag   5.417118999999999   5.417118999999999  32.464458000000000 0
ion Ag   5.417118999999999  10.837566000000001  32.464458000000000 0
ion Ag   2.711514000000000   2.711514000000000  36.381307999999997 0
ion Ag   2.711514000000000   8.131959999999999  36.381307999999997 0
ion Ag   8.131959999999999   2.711514000000000  36.381307999999997 0
ion Ag   8.131959999999999   8.131959999999999  36.381307999999997 0
ion C   2.712153000000000   2.712153000000000   1.977774272051733 1  Linear 0 0 1
ion O   2.772244000000000   2.712153000000000   4.152733937029398 1  Linear 0 0 1

# Forces in Cartesian coordinates:
force Ag   0.000998455035253   0.000989491979621  -0.000007118942712 0
force Ag   0.000998756561370  -0.000933500239567  -0.000007104042318 0
force Ag  -0.000958954201437   0.001024093708617   0.000036463502654 0
force Ag  -0.000959052204124  -0.000968479966364   0.000036898412001 0
force Ag  -0.000024941537862  -0.000029478803891  -0.012156081654213 0
force Ag   0.000005741537315  -0.000036926070156  -0.002026685368335 0
force Ag  -0.000161155980569  -0.000024474736198  -0.002030274639073 0
force Ag  -0.000045932588547  -0.000023092889168  -0.001829494607873 0
force Ag   0.000291869640885  -0.000186184875668  -0.000018031748784 0
force Ag   0.000292010064379   0.000289606312351  -0.000019363050588 0
force Ag  -0.000188858819586  -0.000191269582261  -0.000029209416294 0
force Ag  -0.000188958824121   0.000294289406055  -0.000030618637709 0
force Ag  -0.000083580268762  -0.000080464284569  -0.000106260771664 0
force Ag  -0.000070372685955  -0.000079592540999  -0.001009404197825 0
force Ag  -0.000074888377718  -0.000063934772265  -0.001008412703865 0
force Ag  -0.000063282081062  -0.000065553070684   0.000891112052774 0
force C   0.000206584803801  -0.000004842195266   0.016047167694241 1  Linear 0 0 1
force O  -0.000063822132764   0.000002217797211   0.002773570369150 1  Linear 0 0 1

# Energy components:
   A_diel =        0.0004027988094796
   Eewald =     6788.9457278703566772
       EH =     8943.7463890005619760
     Eloc =   -18495.4403678797643806
      Enl =       66.2846624770051420
     EvdW =       -0.2138771449112161
      Exc =     -237.0664965217545159
 Exc_core =        3.4294662437800150
       KE =      546.8407120486787107
-------------------------------------
     Etot =    -2383.4733811072383105
       TS =        0.0004690448627586
-------------------------------------
        F =    -2383.4738501521010221


Dumping 'jdft.fillings' ... done
Dumping 'jdft.wfns' ... done
Dumping 'jdft.fluidState' ... done
Dumping 'jdft.ionpos' ... done
Dumping 'jdft.lattice' ... done
Dumping 'jdft.eigenvals' ... done
Dumping 'jdft.eigStats' ... 
	eMin: -3.547334 at state 0 ( [ +0.000000 +0.000000 +0.000000 ] spin 1 )
	HOMO: -0.146320 at state 33 ( [ +0.333333 +0.500000 +0.000000 ] spin -1 )
	mu  : -0.142929
	LUMO: -0.142418 at state 39 ( [ +0.500000 +0.500000 +0.000000 ] spin -1 )
	eMax: +0.143543 at state 37 ( [ +0.500000 +0.166667 +0.000000 ] spin -1 )
	HOMO-LUMO gap: +0.003903
	Optical gap  : +0.010008 at state 24 ( [ +0.166667 +0.000000 +0.000000 ] spin -1 )
Dumping 'jdft.Ecomponents' ... done
IonicMinimize: Iter:   2  F: -2383.473850152101022  |grad|_K:  1.152e-02  alpha:  1.000e+00  linmin: -6.915e-01  t[s]:   2780.01

#--- Lowdin population analysis ---
# oxidation-state Ag -0.039 -0.039 -0.039 -0.039 -0.192 +0.049 +0.049 +0.061 +0.050 +0.051 +0.051 +0.051 -0.035 -0.039 -0.039 -0.043
# magnetic-moments Ag +0.000 +0.000 +0.000 -0.000 -0.000 -0.000 +0.000 -0.000 -0.000 +0.000 +0.000 +0.000 -0.000 -0.000 -0.000 +0.000
# oxidation-state C +0.438
# magnetic-moments C +0.000
# oxidation-state O -0.094
# magnetic-moments O -0.000


Computing DFT-D3 correction:
# coordination-number Ag 8.923 8.923 8.923 8.923 7.013 6.035 6.035 6.014 5.999 5.999 5.999 5.999 8.912 8.912 8.912 8.912
# coordination-number C 2.043
# coordination-number O 1.025
# diagonal-C6 Ag 268.61 268.61 268.61 268.61 268.61 268.61 268.61 268.61 268.61 268.61 268.61 268.61 268.61 268.61 268.61 268.61
# diagonal-C6 C 29.41
# diagonal-C6 O 12.79
EvdW_6 =   -0.086600
EvdW_8 =   -0.127253

-------- Electronic minimization -----------
	Linear fluid (dielectric constant: 78.4, screening length: 8.12261 Bohr) occupying 0.439658 of unit cell:	Completed after 9 iterations at t[s]:   2794.23
	FillingsUpdate:  mu: -0.142599280  nElectrons: 314.000000  magneticMoment: [ Abs: 0.00000  Tot: -0.00000 ]
ElecMinimize: Iter:   0  F: -2383.473994322187082  |grad|_K:  1.160e-06  alpha:  1.000e+00
	Linear fluid (dielectric constant: 78.4, screening length: 8.12261 Bohr) occupying 0.439685 of unit cell:	Completed after 16 iterations at t[s]:   2824.00
	Linear fluid (dielectric constant: 78.4, screening length: 8.12261 Bohr) occupying 0.439667 of unit cell:	Completed after 15 iterations at t[s]:   2835.35
	FillingsUpdate:  mu: -0.142335390  nElectrons: 314.000000  magneticMoment: [ Abs: 0.00000  Tot: -0.00000 ]
	SubspaceRotationAdjust: set factor to 0.805
ElecMinimize: Iter:   1  F: -2383.474076423141014  |grad|_K:  5.826e-07  alpha:  3.488e-01  linmin:  3.850e-05  t[s]:   2849.57
	Linear fluid (dielectric constant: 78.4, screening length: 8.12261 Bohr) occupying 0.439657 of unit cell:	Completed after 10 iterations at t[s]:   2862.85
	Linear fluid (dielectric constant: 78.4, screening length: 8.12261 Bohr) occupying 0.439655 of unit cell:	Completed after 3 iterations at t[s]:   2873.74
	FillingsUpdate:  mu: -0.142393990  nElectrons: 314.000000  magneticMoment: [ Abs: 0.00000  Tot: -0.00000 ]
	SubspaceRotationAdjust: set factor to 1.05
ElecMinimize: Iter:   2  F: -2383.474100482673293  |grad|_K:  3.851e-07  alpha:  4.047e-01  linmin: -1.521e-05  t[s]:   2887.96
	Linear fluid (dielectric constant: 78.4, screening length: 8.12261 Bohr) occupying 0.439649 of unit cell:	Completed after 10 iterations at t[s]:   2901.43
	Linear fluid (dielectric constant: 78.4, screening length: 8.12261 Bohr) occupying 0.439648 of unit cell:	Completed after 0 iterations at t[s]:   2911.14
	FillingsUpdate:  mu: -0.142324221  nElectrons: 314.000000  magneticMoment: [ Abs: 0.00000  Tot: -0.00000 ]
	SubspaceRotationAdjust: set factor to 0.878
ElecMinimize: Iter:   3  F: -2383.474111188987536  |grad|_K:  3.132e-07  alpha:  4.113e-01  linmin: -2.237e-05  t[s]:   2925.35
	Linear fluid (dielectric constant: 78.4, screening length: 8.12261 Bohr) occupying 0.439638 of unit cell:	Completed after 11 iterations at t[s]:   2938.72
	Linear fluid (dielectric constant: 78.4, screening length: 8.12261 Bohr) occupying 0.439644 of unit cell:	Completed after 10 iterations at t[s]:   2949.65
	FillingsUpdate:  mu: -0.142351858  nElectrons: 314.000000  magneticMoment: [ Abs: 0.00000  Tot: -0.00000 ]
	SubspaceRotationAdjust: set factor to 0.529
ElecMinimize: Iter:   4  F: -2383.474114381003346  |grad|_K:  1.564e-07  alpha:  1.833e-01  linmin: -3.400e-06  t[s]:   2963.94
	Linear fluid (dielectric constant: 78.4, screening length: 8.12261 Bohr) occupying 0.439640 of unit cell:	Completed after 6 iterations at t[s]:   2976.79
	Linear fluid (dielectric constant: 78.4, screening length: 8.12261 Bohr) occupying 0.439638 of unit cell:	Completed after 6 iterations at t[s]:   2987.29
	FillingsUpdate:  mu: -0.142399273  nElectrons: 314.000000  magneticMoment: [ Abs: 0.00000  Tot: -0.00000 ]
	SubspaceRotationAdjust: set factor to 0.475
ElecMinimize: Iter:   5  F: -2383.474115659073505  |grad|_K:  8.703e-08  alpha:  2.984e-01  linmin:  1.919e-05  t[s]:   3001.44
	Linear fluid (dielectric constant: 78.4, screening length: 8.12261 Bohr) occupying 0.439637 of unit cell:	Completed after 2 iterations at t[s]:   3013.92
	Linear fluid (dielectric constant: 78.4, screening length: 8.12261 Bohr) occupying 0.439637 of unit cell:	Completed after 0 iterations at t[s]:   3023.68
	FillingsUpdate:  mu: -0.142390500  nElectrons: 314.000000  magneticMoment: [ Abs: 0.00000  Tot: -0.00000 ]
	SubspaceRotationAdjust: set factor to 0.496
ElecMinimize: Iter:   6  F: -2383.474116074116864  |grad|_K:  4.394e-08  alpha:  3.131e-01  linmin: -2.249e-04  t[s]:   3037.89
	Linear fluid (dielectric constant: 78.4, screening length: 8.12261 Bohr) occupying 0.439636 of unit cell:	Completed after 3 iterations at t[s]:   3050.53
	Linear fluid (dielectric constant: 78.4, screening length: 8.12261 Bohr) occupying 0.439636 of unit cell:	Completed after 0 iterations at t[s]:   3060.42
	FillingsUpdate:  mu: -0.142387839  nElectrons: 314.000000  magneticMoment: [ Abs: 0.00000  Tot: -0.00000 ]
	SubspaceRotationAdjust: set factor to 0.51
ElecMinimize: Iter:   7  F: -2383.474116202333789  |grad|_K:  2.366e-08  alpha:  3.744e-01  linmin: -3.978e-04  t[s]:   3074.73
	Linear fluid (dielectric constant: 78.4, screening length: 8.12261 Bohr) occupying 0.439635 of unit cell:	Completed after 2 iterations at t[s]:   3087.26
	Linear fluid (dielectric constant: 78.4, screening length: 8.12261 Bohr) occupying 0.439635 of unit cell:	Completed after 0 iterations at t[s]:   3097.01
	FillingsUpdate:  mu: -0.142396735  nElectrons: 314.000000  magneticMoment: [ Abs: 0.00000  Tot: -0.00000 ]
	SubspaceRotationAdjust: set factor to 0.568
ElecMinimize: Iter:   8  F: -2383.474116240191961  |grad|_K:  1.828e-08  alpha:  3.810e-01  linmin: -6.827e-04  t[s]:   3111.29
	Linear fluid (dielectric constant: 78.4, screening length: 8.12261 Bohr) occupying 0.439634 of unit cell:	Completed after 1 iterations at t[s]:   3123.69
	Linear fluid (dielectric constant: 78.4, screening length: 8.12261 Bohr) occupying 0.439634 of unit cell:	Completed after 0 iterations at t[s]:   3133.40
	FillingsUpdate:  mu: -0.142399288  nElectrons: 314.000000  magneticMoment: [ Abs: 0.00000  Tot: -0.00000 ]
	SubspaceRotationAdjust: set factor to 0.619
ElecMinimize: Iter:   9  F: -2383.474116261868403  |grad|_K:  1.419e-08  alpha:  3.597e-01  linmin:  2.473e-05  t[s]:   3147.55
ElecMinimize: Converged (|Delta F|<1.000000e-07 for 2 iters).
Setting wave functions to eigenvectors of Hamiltonian
Converging empty states (this may take a while): |deigs|: 1.602e-07

Computing DFT-D3 correction:
# coordination-number Ag 8.923 8.923 8.923 8.923 7.013 6.035 6.035 6.014 5.999 5.999 5.999 5.999 8.912 8.912 8.912 8.912
# coordination-number C 2.043
# coordination-number O 1.025
# diagonal-C6 Ag 268.61 268.61 268.61 268.61 268.61 268.61 268.61 268.61 268.61 268.61 268.61 268.61 268.61 268.61 268.61 268.61
# diagonal-C6 C 29.41
# diagonal-C6 O 12.79
EvdW_6 =   -0.086600
EvdW_8 =   -0.127253

# Ionic positions in cartesian coordinates:
ion Ag   0.000108000000000   0.000108000000000  40.278104999999996 0
ion Ag   0.000108000000000   5.420555000000000  40.278104999999996 0
ion Ag   5.420555000000000   0.000108000000000  40.278104999999996 0
ion Ag   5.420555000000000   5.420555000000000  40.278104999999996 0
ion Ag   2.712153000000000   2.712153000000000  44.189481000000001 0
ion Ag   2.712153000000000   8.132600000000000  44.189481000000001 0
ion Ag   8.132600000000000   2.712153000000000  44.189481000000001 0
ion Ag   8.132600000000000   8.132600000000000  44.189481000000001 0
ion Ag  10.837566000000001   5.417118999999999  32.464458000000000 0
ion Ag  10.837566000000001  10.837566000000001  32.464458000000000 0
ion Ag   5.417118999999999   5.417118999999999  32.464458000000000 0
ion Ag   5.417118999999999  10.837566000000001  32.464458000000000 0
ion Ag   2.711514000000000   2.711514000000000  36.381307999999997 0
ion Ag   2.711514000000000   8.131959999999999  36.381307999999997 0
ion Ag   8.131959999999999   2.711514000000000  36.381307999999997 0
ion Ag   8.131959999999999   8.131959999999999  36.381307999999997 0
ion C   2.712153000000000   2.712153000000000   1.997086371041576 1  Linear 0 0 1
ion O   2.772244000000000   2.712153000000000   4.161970899622575 1  Linear 0 0 1

# Forces in Cartesian coordinates:
force Ag   0.000998553483458   0.000989659212013  -0.000050624400117 0
force Ag   0.000998843236439  -0.000933792872214  -0.000050553956478 0
force Ag  -0.000958948802644   0.001023864589327  -0.000008131313894 0
force Ag  -0.000959047981316  -0.000968399585949  -0.000007646314034 0
force Ag  -0.000024747077493  -0.000029260963213  -0.010400350372308 0
force Ag   0.000006308151298  -0.000037039737399  -0.001957035813627 0
force Ag  -0.000160264332149  -0.000024512058533  -0.001959378312527 0
force Ag  -0.000046349845831  -0.000023062503293  -0.001715545451686 0
force Ag   0.000296080907929  -0.000190276082169  -0.000017457012961 0
force Ag   0.000296288604363   0.000293717832917  -0.000018761223983 0
force Ag  -0.000193050695695  -0.000195660786612  -0.000028520731376 0
force Ag  -0.000193189231369   0.000298704817902  -0.000029914016203 0
force Ag  -0.000083410656890  -0.000080681409603  -0.000165321193645 0
force Ag  -0.000070498706489  -0.000079578957831  -0.001065929686889 0
force Ag  -0.000074917378901  -0.000063876284693  -0.001064792738001 0
force Ag  -0.000063100755778  -0.000065521833512   0.000838195040370 0
force C  -0.000094180259512  -0.000004640376343   0.003760070685860 1  Linear 0 0 1
force O   0.000232059165723   0.000001876564420   0.013432686945044 1  Linear 0 0 1

# Energy components:
   A_diel =        0.0004123232976379
   Eewald =     6787.8141412866889368
       EH =     8942.7778779384570953
     Eloc =   -18493.3510751756111858
      Enl =       66.2892818603623510
     EvdW =       -0.2138533417946678
      Exc =     -237.0696238691945155
 Exc_core =        3.4294674025449021
       KE =      546.8497160908010528
-------------------------------------
     Etot =    -2383.4736554844475904
       TS =        0.0004607774206870
-------------------------------------
        F =    -2383.4741162618684029


Dumping 'jdft.fillings' ... done
Dumping 'jdft.wfns' ... done
Dumping 'jdft.fluidState' ... done
Dumping 'jdft.ionpos' ... done
Dumping 'jdft.lattice' ... done
Dumping 'jdft.eigenvals' ... done
Dumping 'jdft.eigStats' ... 
	eMin: -3.545969 at state 0 ( [ +0.000000 +0.000000 +0.000000 ] spin 1 )
	HOMO: -0.146085 at state 33 ( [ +0.333333 +0.500000 +0.000000 ] spin -1 )
	mu  : -0.142399
	LUMO: -0.141948 at state 39 ( [ +0.500000 +0.500000 +0.000000 ] spin -1 )
	eMax: +0.143523 at state 37 ( [ +0.500000 +0.166667 +0.000000 ] spin -1 )
	HOMO-LUMO gap: +0.004137
	Optical gap  : +0.010200 at state 24 ( [ +0.166667 +0.000000 +0.000000 ] spin -1 )
Dumping 'jdft.Ecomponents' ... done
IonicMinimize: Iter:   3  F: -2383.474116261868403  |grad|_K:  9.863e-03  alpha:  1.000e+00  linmin: -5.099e-01  t[s]:   3203.66

#--- Lowdin population analysis ---
[...]
# magnetic-moments Ag +0.000 -0.000 -0.000 +0.000 -0.000 -0.000 +0.000 -0.000 -0.000 +0.000 +0.000 -0.000 -0.000 -0.000 +0.000 -0.000
# oxidation-state C +0.441
# magnetic-moments C -0.000
# oxidation-state O -0.085
# magnetic-moments O -0.000


Computing DFT-D3 correction:
# coordination-number Ag 8.923 8.923 8.923 8.923 6.973 6.030 6.030 6.013 5.999 5.999 5.999 5.999 8.912 8.912 8.912 8.912
# coordination-number C 1.999
# coordination-number O 1.018
# diagonal-C6 Ag 268.61 268.61 268.61 268.61 268.61 268.61 268.61 268.61 268.61 268.61 268.61 268.61 268.61 268.61 268.61 268.61
# diagonal-C6 C 29.49
# diagonal-C6 O 12.80
EvdW_6 =   -0.086436
EvdW_8 =   -0.126971

-------- Electronic minimization -----------
	Linear fluid (dielectric constant: 78.4, screening length: 8.12261 Bohr) occupying 0.435801 of unit cell:	Completed after 11 iterations at t[s]:   5562.51
	FillingsUpdate:  mu: -0.141013371  nElectrons: 314.000000  magneticMoment: [ Abs: 0.00000  Tot: -0.00000 ]
ElecMinimize: Iter:   0  F: -2383.475911695818013  |grad|_K:  7.816e-07  alpha:  1.000e+00
	Linear fluid (dielectric constant: 78.4, screening length: 8.12261 Bohr) occupying 0.435822 of unit cell:	Completed after 11 iterations at t[s]:   5592.71
	Linear fluid (dielectric constant: 78.4, screening length: 8.12261 Bohr) occupying 0.435808 of unit cell:	Completed after 11 iterations at t[s]:   5603.68
	FillingsUpdate:  mu: -0.141024437  nElectrons: 314.000000  magneticMoment: [ Abs: 0.00000  Tot: -0.00000 ]
	SubspaceRotationAdjust: set factor to 0.61
ElecMinimize: Iter:   1  F: -2383.475945038101145  |grad|_K:  3.407e-07  alpha:  3.116e-01  linmin:  6.179e-05  t[s]:   5617.96
	Linear fluid (dielectric constant: 78.4, screening length: 8.12261 Bohr) occupying 0.435808 of unit cell:	Completed after 6 iterations at t[s]:   5630.82
	Linear fluid (dielectric constant: 78.4, screening length: 8.12261 Bohr) occupying 0.435808 of unit cell:	Completed after 3 iterations at t[s]:   5640.99
	FillingsUpdate:  mu: -0.141029250  nElectrons: 314.000000  magneticMoment: [ Abs: 0.00000  Tot: -0.00000 ]
	SubspaceRotationAdjust: set factor to 0.786
ElecMinimize: Iter:   2  F: -2383.475953342857792  |grad|_K:  1.989e-07  alpha:  4.084e-01  linmin: -1.120e-05  t[s]:   5655.25
	Linear fluid (dielectric constant: 78.4, screening length: 8.12261 Bohr) occupying 0.435808 of unit cell:	Completed after 6 iterations at t[s]:   5668.20
	Linear fluid (dielectric constant: 78.4, screening length: 8.12261 Bohr) occupying 0.435807 of unit cell:	Completed after 6 iterations at t[s]:   5678.69
	FillingsUpdate:  mu: -0.141058046  nElectrons: 314.000000  magneticMoment: [ Abs: 0.00000  Tot: -0.00000 ]
	SubspaceRotationAdjust: set factor to 0.974
ElecMinimize: Iter:   3  F: -2383.475957409060356  |grad|_K:  1.442e-07  alpha:  5.869e-01  linmin:  4.890e-05  t[s]:   5692.96
	Linear fluid (dielectric constant: 78.4, screening length: 8.12261 Bohr) occupying 0.435808 of unit cell:	Completed after 9 iterations at t[s]:   5706.25
	Linear fluid (dielectric constant: 78.4, screening length: 8.12261 Bohr) occupying 0.435808 of unit cell:	Completed after 8 iterations at t[s]:   5716.91
	FillingsUpdate:  mu: -0.141023794  nElectrons: 314.000000  magneticMoment: [ Abs: 0.00000  Tot: -0.00000 ]
	SubspaceRotationAdjust: set factor to 0.827
ElecMinimize: Iter:   4  F: -2383.475958525327314  |grad|_K:  1.064e-07  alpha:  3.067e-01  linmin:  7.273e-06  t[s]:   5731.28
	Linear fluid (dielectric constant: 78.4, screening length: 8.12261 Bohr) occupying 0.435804 of unit cell:	Completed after 8 iterations at t[s]:   5744.34
	Linear fluid (dielectric constant: 78.4, screening length: 8.12261 Bohr) occupying 0.435805 of unit cell:	Completed after 3 iterations at t[s]:   5754.50
	FillingsUpdate:  mu: -0.141039101  nElectrons: 314.000000  magneticMoment: [ Abs: 0.00000  Tot: -0.00000 ]
	SubspaceRotationAdjust: set factor to 0.498
ElecMinimize: Iter:   5  F: -2383.475959008237623  |grad|_K:  6.140e-08  alpha:  2.436e-01  linmin:  7.438e-05  t[s]:   5768.79
	Linear fluid (dielectric constant: 78.4, screening length: 8.12261 Bohr) occupying 0.435804 of unit cell:	Completed after 5 iterations at t[s]:   5781.75
	Linear fluid (dielectric constant: 78.4, screening length: 8.12261 Bohr) occupying 0.435804 of unit cell:	Completed after 0 iterations at t[s]:   5791.61
	FillingsUpdate:  mu: -0.141044748  nElectrons: 314.000000  magneticMoment: [ Abs: 0.00000  Tot: -0.00000 ]
	SubspaceRotationAdjust: set factor to 0.402
ElecMinimize: Iter:   6  F: -2383.475959183463146  |grad|_K:  2.742e-08  alpha:  2.663e-01  linmin: -7.969e-04  t[s]:   5805.88
	Linear fluid (dielectric constant: 78.4, screening length: 8.12261 Bohr) occupying 0.435803 of unit cell:	Completed after 2 iterations at t[s]:   5818.41
	Linear fluid (dielectric constant: 78.4, screening length: 8.12261 Bohr) occupying 0.435803 of unit cell:	Completed after 0 iterations at t[s]:   5828.17
	FillingsUpdate:  mu: -0.141044176  nElectrons: 314.000000  magneticMoment: [ Abs: 0.00000  Tot: -0.00000 ]
	SubspaceRotationAdjust: set factor to 0.476
ElecMinimize: Iter:   7  F: -2383.475959229735963  |grad|_K:  1.468e-08  alpha:  3.346e-01  linmin: -1.634e-03  t[s]:   5842.44
	Linear fluid (dielectric constant: 78.4, screening length: 8.12261 Bohr) occupying 0.435803 of unit cell:	Completed after 2 iterations at t[s]:   5854.93
	Linear fluid (dielectric constant: 78.4, screening length: 8.12261 Bohr) occupying 0.435803 of unit cell:	Completed after 0 iterations at t[s]:   5866.03
	FillingsUpdate:  mu: -0.141043783  nElectrons: 314.000000  magneticMoment: [ Abs: 0.00000  Tot: -0.00000 ]
	SubspaceRotationAdjust: set factor to 0.533
ElecMinimize: Iter:   8  F: -2383.475959244212390  |grad|_K:  9.268e-09  alpha:  3.661e-01  linmin: -2.074e-03  t[s]:   5880.22
ElecMinimize: Converged (|Delta F|<1.000000e-07 for 2 iters).
Setting wave functions to eigenvectors of Hamiltonian
Converging empty states (this may take a while): |deigs|: 1.081e-07

Computing DFT-D3 correction:
# coordination-number Ag 8.923 8.923 8.923 8.923 6.973 6.030 6.030 6.013 5.999 5.999 5.999 5.999 8.912 8.912 8.912 8.912
# coordination-number C 1.999
# coordination-number O 1.018
# diagonal-C6 Ag 268.61 268.61 268.61 268.61 268.61 268.61 268.61 268.61 268.61 268.61 268.61 268.61 268.61 268.61 268.61 268.61
# diagonal-C6 C 29.49
# diagonal-C6 O 12.80
EvdW_6 =   -0.086436
EvdW_8 =   -0.126971

# Ionic positions in cartesian coordinates:
ion Ag   0.000108000000000   0.000108000000000  40.278104999999996 0
ion Ag   0.000108000000000   5.420555000000000  40.278104999999996 0
ion Ag   5.420555000000000   0.000108000000000  40.278104999999996 0
ion Ag   5.420555000000000   5.420555000000000  40.278104999999996 0
ion Ag   2.712153000000000   2.712153000000000  44.189481000000001 0
ion Ag   2.712153000000000   8.132600000000000  44.189481000000001 0
ion Ag   8.132600000000000   2.712153000000000  44.189481000000001 0
ion Ag   8.132600000000000   8.132600000000000  44.189481000000001 0
ion Ag  10.837566000000001   5.417118999999999  32.464458000000000 0
ion Ag  10.837566000000001  10.837566000000001  32.464458000000000 0
ion Ag   5.417118999999999   5.417118999999999  32.464458000000000 0
ion Ag   5.417118999999999  10.837566000000001  32.464458000000000 0
ion Ag   2.711514000000000   2.711514000000000  36.381307999999997 0
ion Ag   2.711514000000000   8.131959999999999  36.381307999999997 0
ion Ag   8.131959999999999   2.711514000000000  36.381307999999997 0
ion Ag   8.131959999999999   8.131959999999999  36.381307999999997 0
ion C   2.712153000000000   2.712153000000000   2.230196913919390 1  Linear 0 0 1
ion O   2.772244000000000   2.712153000000000   4.402107444780525 1  Linear 0 0 1

# Forces in Cartesian coordinates:
force Ag   0.000968635195023   0.000962809809357   0.000096697872868 0
force Ag   0.000968922332045  -0.000907153604204   0.000097404308879 0
force Ag  -0.000925547494001   0.000987146654824   0.000123570493211 0
force Ag  -0.000925666154719  -0.000931850405111   0.000124608318259 0
force Ag   0.000004993829229  -0.000029936336981   0.004874092567808 0
force Ag   0.000008896346106  -0.000037707820594  -0.001790035399087 0
force Ag  -0.000151150824159  -0.000023679957552  -0.001792437344995 0
force Ag  -0.000046075776195  -0.000022902010979  -0.001430786949029 0
force Ag   0.000298705154628  -0.000192132476865   0.000086818331325 0
force Ag   0.000299272903771   0.000296449670552   0.000085610075458 0
force Ag  -0.000194560952225  -0.000197730346367   0.000076983449463 0
force Ag  -0.000195170373818   0.000301572273783   0.000075630725230 0
force Ag  -0.000080224079691  -0.000081821977167  -0.000145705917388 0
force Ag  -0.000071837534544  -0.000079448059765  -0.000957715200553 0
force Ag  -0.000079608017241  -0.000064034127573  -0.000957643177469 0
force Ag  -0.000059981646887  -0.000065228539181   0.000906833868358 0
force C   0.000140588485961  -0.000005088696333   0.000302644157690 1  Linear 0 0 1
force O  -0.000050195464136  -0.000002136264647  -0.000374087863154 1  Linear 0 0 1

# Energy components:
   A_diel =        0.0005226491721136
   Eewald =     6767.6061139358134824
       EH =     8923.0861381430404435
     Eloc =   -18453.4325775270226586
      Enl =       66.2954850989961244
     EvdW =       -0.2134071007015851
      Exc =     -237.0519782328631209
 Exc_core =        3.4294674483176082
       KE =      546.8046912295294533
-------------------------------------
     Etot =    -2383.4755443557182844
       TS =        0.0004148884942258
-------------------------------------
        F =    -2383.4759592442123903


Dumping 'jdft.fillings' ... done
Dumping 'jdft.wfns' ... done
Dumping 'jdft.fluidState' ... done
Dumping 'jdft.ionpos' ... done
Dumping 'jdft.lattice' ... done
Dumping 'jdft.eigenvals' ... done
Dumping 'jdft.eigStats' ... 
	eMin: -3.535930 at state 20 ( [ +0.000000 +0.000000 +0.000000 ] spin -1 )
	HOMO: -0.147443 at state 31 ( [ +0.333333 +0.166667 +0.000000 ] spin -1 )
	mu  : -0.141044
	LUMO: -0.140951 at state 39 ( [ +0.500000 +0.500000 +0.000000 ] spin -1 )
	eMax: +0.142087 at state 37 ( [ +0.500000 +0.166667 +0.000000 ] spin -1 )
	HOMO-LUMO gap: +0.006491
	Optical gap  : +0.008876 at state 20 ( [ +0.000000 +0.000000 +0.000000 ] spin -1 )
Dumping 'jdft.Ecomponents' ... done
IonicMinimize: Iter:   8  F: -2383.475959244212390  |grad|_K:  3.402e-04  alpha:  1.000e+00  linmin:  7.019e-03  t[s]:   5925.12

#--- Lowdin population analysis ---
# oxidation-state Ag -0.038 -0.038 -0.038 -0.038 -0.182 +0.045 +0.045 +0.055 +0.049 +0.049 +0.049 +0.049 -0.036 -0.040 -0.040 -0.042
# magnetic-moments Ag +0.000 -0.000 -0.000 +0.000 +0.000 -0.000 +0.000 +0.000 +0.000 -0.000 -0.000 +0.000 +0.000 -0.000 +0.000 -0.000
# oxidation-state C +0.442
# magnetic-moments C -0.000
# oxidation-state O -0.085
# magnetic-moments O +0.000


Computing DFT-D3 correction:
# coordination-number Ag 8.923 8.923 8.923 8.923 6.974 6.030 6.030 6.013 5.999 5.999 5.999 5.999 8.912 8.912 8.912 8.912
# coordination-number C 2.000
# coordination-number O 1.018
# diagonal-C6 Ag 268.61 268.61 268.61 268.61 268.61 268.61 268.61 268.61 268.61 268.61 268.61 268.61 268.61 268.61 268.61 268.61
# diagonal-C6 C 29.49
# diagonal-C6 O 12.80
EvdW_6 =   -0.086438
EvdW_8 =   -0.126973

-------- Electronic minimization -----------
	Linear fluid (dielectric constant: 78.4, screening length: 8.12261 Bohr) occupying 0.435830 of unit cell:	Completed after 5 iterations at t[s]:   5938.96
	FillingsUpdate:  mu: -0.141070500  nElectrons: 314.000000  magneticMoment: [ Abs: 0.00000  Tot: -0.00000 ]
ElecMinimize: Iter:   0  F: -2383.475958582352177  |grad|_K:  9.430e-08  alpha:  1.000e+00
	Linear fluid (dielectric constant: 78.4, screening length: 8.12261 Bohr) occupying 0.435832 of unit cell:	Completed after 8 iterations at t[s]:   5967.99
	Linear fluid (dielectric constant: 78.4, screening length: 8.12261 Bohr) occupying 0.435831 of unit cell:	Completed after 6 iterations at t[s]:   5978.44
	FillingsUpdate:  mu: -0.141020721  nElectrons: 314.000000  magneticMoment: [ Abs: 0.00000  Tot: -0.00000 ]
	SubspaceRotationAdjust: set factor to 0.624
ElecMinimize: Iter:   1  F: -2383.475959064851395  |grad|_K:  4.114e-08  alpha:  3.086e-01  linmin:  6.448e-05  t[s]:   5992.59
	Linear fluid (dielectric constant: 78.4, screening length: 8.12261 Bohr) occupying 0.435830 of unit cell:	Completed after 2 iterations at t[s]:   6005.00
	Linear fluid (dielectric constant: 78.4, screening length: 8.12261 Bohr) occupying 0.435829 of unit cell:	Completed after 0 iterations at t[s]:   6014.78
	FillingsUpdate:  mu: -0.141034345  nElectrons: 314.000000  magneticMoment: [ Abs: 0.00000  Tot: -0.00000 ]
	SubspaceRotationAdjust: set factor to 0.763
ElecMinimize: Iter:   2  F: -2383.475959183658233  |grad|_K:  2.307e-08  alpha:  3.961e-01  linmin: -1.212e-03  t[s]:   6029.01
	Linear fluid (dielectric constant: 78.4, screening length: 8.12261 Bohr) occupying 0.435829 of unit cell:	Completed after 2 iterations at t[s]:   6041.48
	Linear fluid (dielectric constant: 78.4, screening length: 8.12261 Bohr) occupying 0.435828 of unit cell:	Completed after 0 iterations at t[s]:   6051.36
	FillingsUpdate:  mu: -0.141044763  nElectrons: 314.000000  magneticMoment: [ Abs: 0.00000  Tot: -0.00000 ]
	SubspaceRotationAdjust: set factor to 1.08
ElecMinimize: Iter:   3  F: -2383.475959239677650  |grad|_K:  1.625e-08  alpha:  5.625e-01  linmin: -1.011e-03  t[s]:   6065.61
	Linear fluid (dielectric constant: 78.4, screening length: 8.12261 Bohr) occupying 0.435829 of unit cell:	Completed after 2 iterations at t[s]:   6078.08
	Linear fluid (dielectric constant: 78.4, screening length: 8.12261 Bohr) occupying 0.435829 of unit cell:	Completed after 1 iterations at t[s]:   6088.06
	FillingsUpdate:  mu: -0.141035335  nElectrons: 314.000000  magneticMoment: [ Abs: 0.00000  Tot: +0.00000 ]
	SubspaceRotationAdjust: set factor to 1.11
ElecMinimize: Iter:   4  F: -2383.475959257631985  |grad|_K:  1.181e-08  alpha:  3.566e-01  linmin:  3.764e-04  t[s]:   6102.38
ElecMinimize: Converged (|Delta F|<1.000000e-07 for 2 iters).
Setting wave functions to eigenvectors of Hamiltonian
Converging empty states (this may take a while): |deigs|: 4.384e-09

Computing DFT-D3 correction:
# coordination-number Ag 8.923 8.923 8.923 8.923 6.974 6.030 6.030 6.013 5.999 5.999 5.999 5.999 8.912 8.912 8.912 8.912
# coordination-number C 2.000
# coordination-number O 1.018
# diagonal-C6 Ag 268.61 268.61 268.61 268.61 268.61 268.61 268.61 268.61 268.61 268.61 268.61 268.61 268.61 268.61 268.61 268.61
# diagonal-C6 C 29.49
# diagonal-C6 O 12.80
EvdW_6 =   -0.086438
EvdW_8 =   -0.126973

# Ionic positions in cartesian coordinates:
ion Ag   0.000108000000000   0.000108000000000  40.278104999999996 0
ion Ag   0.000108000000000   5.420555000000000  40.278104999999996 0
ion Ag   5.420555000000000   0.000108000000000  40.278104999999996 0
ion Ag   5.420555000000000   5.420555000000000  40.278104999999996 0
ion Ag   2.712153000000000   2.712153000000000  44.189481000000001 0
ion Ag   2.712153000000000   8.132600000000000  44.189481000000001 0
ion Ag   8.132600000000000   2.712153000000000  44.189481000000001 0
ion Ag   8.132600000000000   8.132600000000000  44.189481000000001 0
ion Ag  10.837566000000001   5.417118999999999  32.464458000000000 0
ion Ag  10.837566000000001  10.837566000000001  32.464458000000000 0
ion Ag   5.417118999999999   5.417118999999999  32.464458000000000 0
ion Ag   5.417118999999999  10.837566000000001  32.464458000000000 0
ion Ag   2.711514000000000   2.711514000000000  36.381307999999997 0
ion Ag   2.711514000000000   8.131959999999999  36.381307999999997 0
ion Ag   8.131959999999999   2.711514000000000  36.381307999999997 0
ion Ag   8.131959999999999   8.131959999999999  36.381307999999997 0
ion C   2.712153000000000   2.712153000000000   2.228783523487393 1  Linear 0 0 1
ion O   2.772244000000000   2.712153000000000   4.400401210328813 1  Linear 0 0 1

# Forces in Cartesian coordinates:
force Ag   0.000981268936851   0.000975437639333   0.000140196830643 0
force Ag   0.000981565957959  -0.000919795820105   0.000140931041241 0
force Ag  -0.000938237134011   0.000999880180612   0.000167095870946 0
force Ag  -0.000938355538443  -0.000944581688529   0.000168106395836 0
force Ag   0.000003387901552  -0.000029887323262   0.004759764208861 0
force Ag   0.000008707767762  -0.000037802072029  -0.001867902014789 0
force Ag  -0.000150831501081  -0.000023658235012  -0.001870049207081 0
force Ag  -0.000045890363606  -0.000022889798004  -0.001498037551407 0
force Ag   0.000299099812161  -0.000192463596022   0.000069320957572 0
force Ag   0.000299660931076   0.000296787185498   0.000068114459403 0
force Ag  -0.000194954423575  -0.000198141477149   0.000059382600645 0
force Ag  -0.000195559645155   0.000301989528720   0.000058018616878 0
force Ag  -0.000080416156922  -0.000081854721067  -0.000090193878279 0
force Ag  -0.000071852848587  -0.000079442877474  -0.000904067469497 0
force Ag  -0.000079430491802  -0.000064047214556  -0.000903923006630 0
force Ag  -0.000059986517213  -0.000065237176527   0.000956216196451 0
force C   0.000134481056062  -0.000005089804837   0.000088819778020 1  Linear 0 0 1
force O  -0.000041070187095  -0.000002048032176   0.000008817898160 1  Linear 0 0 1

# Energy components:
   A_diel =        0.0005216550700504
   Eewald =     6767.7402141346183271
       EH =     8923.2206998099336488
     Eloc =   -18453.7016244262522378
      Enl =       66.2955610282649559
     EvdW =       -0.2134102395436455
      Exc =     -237.0521726949810670
 Exc_core =        3.4294672832351756
       KE =      546.8051992541393247
-------------------------------------
     Etot =    -2383.4755441955148854
       TS =        0.0004150621172329
-------------------------------------
        F =    -2383.4759592576319847


Dumping 'jdft.fillings' ... done
Dumping 'jdft.wfns' ... done
Dumping 'jdft.fluidState' ... done
Dumping 'jdft.ionpos' ... done
Dumping 'jdft.lattice' ... done
Dumping 'jdft.eigenvals' ... done
Dumping 'jdft.eigStats' ... 
	eMin: -3.535959 at state 0 ( [ +0.000000 +0.000000 +0.000000 ] spin 1 )
	HOMO: -0.147428 at state 11 ( [ +0.333333 +0.166667 +0.000000 ] spin 1 )
	mu  : -0.141035
	LUMO: -0.140942 at state 19 ( [ +0.500000 +0.500000 +0.000000 ] spin 1 )
	eMax: +0.142103 at state 37 ( [ +0.500000 +0.166667 +0.000000 ] spin -1 )
	HOMO-LUMO gap: +0.006486
	Optical gap  : +0.008890 at state 0 ( [ +0.000000 +0.000000 +0.000000 ] spin 1 )
Dumping 'jdft.Ecomponents' ... done
IonicMinimize: Iter:   9  F: -2383.475959257631985  |grad|_K:  6.311e-05  alpha:  1.000e+00  linmin:  9.728e-03  t[s]:   6138.50
IonicMinimize: Converged (|grad|_K<1.000000e-04).

#--- Lowdin population analysis ---
# oxidation-state Ag -0.038 -0.038 -0.038 -0.038 -0.182 +0.045 +0.045 +0.055 +0.049 +0.049 +0.049 +0.049 -0.036 -0.040 -0.039 -0.042
# magnetic-moments Ag -0.000 -0.000 +0.000 +0.000 +0.000 +0.000 -0.000 +0.000 +0.000 -0.000 +0.000 -0.000 +0.000 +0.000 -0.000 +0.000
# oxidation-state C +0.442
# magnetic-moments C +0.000
# oxidation-state O -0.085
# magnetic-moments O -0.000


Dumping 'jdft.n_up' ... done
Dumping 'jdft.n_dn' ... done
Dumping 'jdft.tau_up' ... done
Dumping 'jdft.tau_dn' ... done
Dumping 'jdft.eigenvals' ... done
Dumping 'jdft.eigStats' ... 
	eMin: -3.535959 at state 0 ( [ +0.000000 +0.000000 +0.000000 ] spin 1 )
	HOMO: -0.147428 at state 11 ( [ +0.333333 +0.166667 +0.000000 ] spin 1 )
	mu  : -0.141035
	LUMO: -0.140942 at state 19 ( [ +0.500000 +0.500000 +0.000000 ] spin 1 )
	eMax: +0.142103 at state 37 ( [ +0.500000 +0.166667 +0.000000 ] spin -1 )
	HOMO-LUMO gap: +0.006486
	Optical gap  : +0.008890 at state 0 ( [ +0.000000 +0.000000 +0.000000 ] spin 1 )
Dumping 'jdft.kPts' ... done
Dumping 'jdft.kMap' ... done
Dumping 'jdft.dosUp' ... done.
Dumping 'jdft.dosDn' ... done.
End date and time: Thu Feb 17 18:38:20 2022  (Duration: 0-1:42:41.61)
Done!
