
*************** JDFTx 1.6.0  ***************

Start date and time: Mon Dec  6 17:09:58 2021
Executable /projects/musgravc/apps/jdftx-1.6.1/build/jdftx with command-line: -i in
Running on hosts (process indices):  shas0134.rc.int.colorado.edu (0-23)
Divided in process groups (process indices):  0 (0)  1 (1)  2 (2)  3 (3)  4 (4)  5 (5)  6 (6)  7 (7)  8 (8)  9 (9)  10 (10)  11 (11)  12 (12)  13 (13)  14 (14)  15 (15)  16 (16)  17 (17)  18 (18)  19 (19)  20 (20)  21 (21)  22 (22)  23 (23)
Resource initialization completed at t[s]:      0.00
Run totals: 24 processes, 24 threads, 0 GPUs


Input parsed successfully to the following command list (including defaults):

basis kpoint-dependent
converge-empty-states yes
coords-type Cartesian
core-overlap-check none
coulomb-interaction Periodic
davidson-band-ratio 1.1
density-of-states Etol 1.000000e-06 Esigma 1.000000e-03 \
		Complete \
	Total \
	OrthoOrbital Ag 1   s \
	OrthoOrbital Ag 1   p \
	OrthoOrbital Ag 1   px \
	OrthoOrbital Ag 1   py \
	OrthoOrbital Ag 1   pz \
	OrthoOrbital Ag 1   d \
	OrthoOrbital Ag 1   dxy \
	OrthoOrbital Ag 1   dyz \
	OrthoOrbital Ag 1   dz2 \
	OrthoOrbital Ag 1   dxz \
	OrthoOrbital Ag 1   dx2-y2 \
	OrthoOrbital Ag 2   s \
	OrthoOrbital Ag 2   p \
	OrthoOrbital Ag 2   px \
	OrthoOrbital Ag 2   py \
	OrthoOrbital Ag 2   pz \
	OrthoOrbital Ag 2   d \
	OrthoOrbital Ag 2   dxy \
	OrthoOrbital Ag 2   dyz \
	OrthoOrbital Ag 2   dz2 \
	OrthoOrbital Ag 2   dxz \
	OrthoOrbital Ag 2   dx2-y2 \
	OrthoOrbital Ag 3   s \
	OrthoOrbital Ag 3   p \
	OrthoOrbital Ag 3   px \
	OrthoOrbital Ag 3   py \
	OrthoOrbital Ag 3   pz \
	OrthoOrbital Ag 3   d \
	OrthoOrbital Ag 3   dxy \
	OrthoOrbital Ag 3   dyz \
	OrthoOrbital Ag 3   dz2 \
	OrthoOrbital Ag 3   dxz \
	OrthoOrbital Ag 3   dx2-y2 \
	OrthoOrbital Ag 4   s \
	OrthoOrbital Ag 4   p \
	OrthoOrbital Ag 4   px \
	OrthoOrbital Ag 4   py \
	OrthoOrbital Ag 4   pz \
	OrthoOrbital Ag 4   d \
	OrthoOrbital Ag 4   dxy \
	OrthoOrbital Ag 4   dyz \
	OrthoOrbital Ag 4   dz2 \
	OrthoOrbital Ag 4   dxz \
	OrthoOrbital Ag 4   dx2-y2 \
	OrthoOrbital Ag 5   s \
	OrthoOrbital Ag 5   p \
	OrthoOrbital Ag 5   px \
	OrthoOrbital Ag 5   py \
	OrthoOrbital Ag 5   pz \
	OrthoOrbital Ag 5   d \
	OrthoOrbital Ag 5   dxy \
	OrthoOrbital Ag 5   dyz \
	OrthoOrbital Ag 5   dz2 \
	OrthoOrbital Ag 5   dxz \
	OrthoOrbital Ag 5   dx2-y2 \
	OrthoOrbital Ag 6   s \
	OrthoOrbital Ag 6   p \
	OrthoOrbital Ag 6   px \
	OrthoOrbital Ag 6   py \
	OrthoOrbital Ag 6   pz \
	OrthoOrbital Ag 6   d \
	OrthoOrbital Ag 6   dxy \
	OrthoOrbital Ag 6   dyz \
	OrthoOrbital Ag 6   dz2 \
	OrthoOrbital Ag 6   dxz \
	OrthoOrbital Ag 6   dx2-y2 \
	OrthoOrbital Ag 7   s \
	OrthoOrbital Ag 7   p \
	OrthoOrbital Ag 7   px \
	OrthoOrbital Ag 7   py \
	OrthoOrbital Ag 7   pz \
	OrthoOrbital Ag 7   d \
	OrthoOrbital Ag 7   dxy \
	OrthoOrbital Ag 7   dyz \
	OrthoOrbital Ag 7   dz2 \
	OrthoOrbital Ag 7   dxz \
	OrthoOrbital Ag 7   dx2-y2 \
	OrthoOrbital Ag 8   s \
	OrthoOrbital Ag 8   p \
	OrthoOrbital Ag 8   px \
	OrthoOrbital Ag 8   py \
	OrthoOrbital Ag 8   pz \
	OrthoOrbital Ag 8   d \
	OrthoOrbital Ag 8   dxy \
	OrthoOrbital Ag 8   dyz \
	OrthoOrbital Ag 8   dz2 \
	OrthoOrbital Ag 8   dxz \
	OrthoOrbital Ag 8   dx2-y2 \
	OrthoOrbital Ag 9   s \
	OrthoOrbital Ag 9   p \
	OrthoOrbital Ag 9   px \
	OrthoOrbital Ag 9   py \
	OrthoOrbital Ag 9   pz \
	OrthoOrbital Ag 9   d \
	OrthoOrbital Ag 9   dxy \
	OrthoOrbital Ag 9   dyz \
	OrthoOrbital Ag 9   dz2 \
	OrthoOrbital Ag 9   dxz \
	OrthoOrbital Ag 9   dx2-y2 \
	OrthoOrbital Ag 10   s \
	OrthoOrbital Ag 10   p \
	OrthoOrbital Ag 10   px \
	OrthoOrbital Ag 10   py \
	OrthoOrbital Ag 10   pz \
	OrthoOrbital Ag 10   d \
	OrthoOrbital Ag 10   dxy \
	OrthoOrbital Ag 10   dyz \
	OrthoOrbital Ag 10   dz2 \
	OrthoOrbital Ag 10   dxz \
	OrthoOrbital Ag 10   dx2-y2 \
	OrthoOrbital Ag 11   s \
	OrthoOrbital Ag 11   p \
	OrthoOrbital Ag 11   px \
	OrthoOrbital Ag 11   py \
	OrthoOrbital Ag 11   pz \
	OrthoOrbital Ag 11   d \
	OrthoOrbital Ag 11   dxy \
	OrthoOrbital Ag 11   dyz \
	OrthoOrbital Ag 11   dz2 \
	OrthoOrbital Ag 11   dxz \
	OrthoOrbital Ag 11   dx2-y2 \
	OrthoOrbital Ag 12   s \
	OrthoOrbital Ag 12   p \
	OrthoOrbital Ag 12   px \
	OrthoOrbital Ag 12   py \
	OrthoOrbital Ag 12   pz \
	OrthoOrbital Ag 12   d \
	OrthoOrbital Ag 12   dxy \
	OrthoOrbital Ag 12   dyz \
	OrthoOrbital Ag 12   dz2 \
	OrthoOrbital Ag 12   dxz \
	OrthoOrbital Ag 12   dx2-y2 \
	OrthoOrbital Ag 13   s \
	OrthoOrbital Ag 13   p \
	OrthoOrbital Ag 13   px \
	OrthoOrbital Ag 13   py \
	OrthoOrbital Ag 13   pz \
	OrthoOrbital Ag 13   d \
	OrthoOrbital Ag 13   dxy \
	OrthoOrbital Ag 13   dyz \
	OrthoOrbital Ag 13   dz2 \
	OrthoOrbital Ag 13   dxz \
	OrthoOrbital Ag 13   dx2-y2 \
	OrthoOrbital Ag 14   s \
	OrthoOrbital Ag 14   p \
	OrthoOrbital Ag 14   px \
	OrthoOrbital Ag 14   py \
	OrthoOrbital Ag 14   pz \
	OrthoOrbital Ag 14   d \
	OrthoOrbital Ag 14   dxy \
	OrthoOrbital Ag 14   dyz \
	OrthoOrbital Ag 14   dz2 \
	OrthoOrbital Ag 14   dxz \
	OrthoOrbital Ag 14   dx2-y2 \
	OrthoOrbital Ag 15   s \
	OrthoOrbital Ag 15   p \
	OrthoOrbital Ag 15   px \
	OrthoOrbital Ag 15   py \
	OrthoOrbital Ag 15   pz \
	OrthoOrbital Ag 15   d \
	OrthoOrbital Ag 15   dxy \
	OrthoOrbital Ag 15   dyz \
	OrthoOrbital Ag 15   dz2 \
	OrthoOrbital Ag 15   dxz \
	OrthoOrbital Ag 15   dx2-y2 \
	OrthoOrbital Ag 16   s \
	OrthoOrbital Ag 16   p \
	OrthoOrbital Ag 16   px \
	OrthoOrbital Ag 16   py \
	OrthoOrbital Ag 16   pz \
	OrthoOrbital Ag 16   d \
	OrthoOrbital Ag 16   dxy \
	OrthoOrbital Ag 16   dyz \
	OrthoOrbital Ag 16   dz2 \
	OrthoOrbital Ag 16   dxz \
	OrthoOrbital Ag 16   dx2-y2 \
	OrthoOrbital Ag 17   s \
	OrthoOrbital Ag 17   p \
	OrthoOrbital Ag 17   px \
	OrthoOrbital Ag 17   py \
	OrthoOrbital Ag 17   pz \
	OrthoOrbital Ag 17   d \
	OrthoOrbital Ag 17   dxy \
	OrthoOrbital Ag 17   dyz \
	OrthoOrbital Ag 17   dz2 \
	OrthoOrbital Ag 17   dxz \
	OrthoOrbital Ag 17   dx2-y2 \
	OrthoOrbital Ag 18   s \
	OrthoOrbital Ag 18   p \
	OrthoOrbital Ag 18   px \
	OrthoOrbital Ag 18   py \
	OrthoOrbital Ag 18   pz \
	OrthoOrbital Ag 18   d \
	OrthoOrbital Ag 18   dxy \
	OrthoOrbital Ag 18   dyz \
	OrthoOrbital Ag 18   dz2 \
	OrthoOrbital Ag 18   dxz \
	OrthoOrbital Ag 18   dx2-y2
dump End ElecDensity KEdensity BandEigs EigStats RhoAtom DOS Kpoints
dump Ionic State IonicPositions Lattice EigStats Ecomponents
dump 
dump 
dump 
dump 
dump 
dump 
dump 
dump 
dump-name jdft.$VAR
elec-cutoff 20
elec-eigen-algo Davidson
elec-ex-corr gga-PBE
elec-initial-magnetization 0.000000 no
elec-n-bands 206
elec-smearing Fermi 0.001
electronic-minimize  \
	dirUpdateScheme      FletcherReeves \
	linminMethod         DirUpdateRecommended \
	nIterations          100 \
	history              15 \
	knormThreshold       0 \
	energyDiffThreshold  1e-07 \
	nEnergyDiff          2 \
	alphaTstart          1 \
	alphaTmin            1e-10 \
	updateTestStepSize   yes \
	alphaTreduceFactor   0.1 \
	alphaTincreaseFactor 3 \
	nAlphaAdjustMax      3 \
	wolfeEnergy          0.0001 \
	wolfeGradient        0.9 \
	fdTest               no
exchange-regularization WignerSeitzTruncated
fluid LinearPCM 298.000000 1.013250
fluid-anion F- 0.5 MeanFieldLJ \
	epsBulk 1 \
	pMol 0 \
	epsInf 1 \
	Pvap 0 \
	sigmaBulk 0 \
	Rvdw 2.24877 \
	Res 0 \
	tauNuc 343133
fluid-cation Na+ 0.5 MeanFieldLJ \
	epsBulk 1 \
	pMol 0 \
	epsInf 1 \
	Pvap 0 \
	sigmaBulk 0 \
	Rvdw 2.19208 \
	Res 0 \
	tauNuc 343133
fluid-ex-corr lda-TF lda-PZ
fluid-gummel-loop 10 1.000000e-05
fluid-minimize  \
	dirUpdateScheme      PolakRibiere \
	linminMethod         DirUpdateRecommended \
	nIterations          400 \
	history              15 \
	knormThreshold       1e-11 \
	energyDiffThreshold  0 \
	nEnergyDiff          2 \
	alphaTstart          1 \
	alphaTmin            1e-10 \
	updateTestStepSize   yes \
	alphaTreduceFactor   0.1 \
	alphaTincreaseFactor 3 \
	nAlphaAdjustMax      6 \
	wolfeEnergy          0.0001 \
	wolfeGradient        0.9 \
	fdTest               no
fluid-solvent H2O 55.338 ScalarEOS \
	epsBulk 78.4 \
	pMol 0.92466 \
	epsInf 1.77 \
	Pvap 1.06736e-10 \
	sigmaBulk 4.62e-05 \
	Rvdw 2.61727 \
	Res 1.42 \
	tauNuc 343133 \
	poleEl 15 7 1
forces-output-coords Positions
ion Ag   0.000000000000000   7.227255000000000  67.074583000000004 1
ion Ag   0.000000000000000  14.454525000000000  64.519362999999998 1
ion Ag   5.420447000000000   0.000000000000000  46.632821000000000 1
ion Ag   0.000000000000000   5.420441000000000  61.964142000000002 1
ion Ag   0.000000000000000  12.647711999999999  59.408921999999997 1
ion Ag   5.420447000000000   3.613627000000000  56.853701999999998 1
ion Ag   5.420447000000000  10.840897999999997  54.298482000000007 1
ion Ag   5.420447000000000   1.806814000000000  51.743260999999997 1
ion Ag   5.420447000000000   9.034084000000000  49.188041000000005 1
ion Ag   2.710223000000000   9.937482999999999  63.241787000000002 1
ion Ag   2.710223000000000   0.903415000000000  60.686566999999997 1
ion Ag   2.710223000000000   2.710229000000000  65.797006999999994 1
ion Ag   2.710223000000000   8.130668999999999  58.131346999999998 1
ion Ag   2.710223000000000  15.357924000000001  55.576126000000002 1
ion Ag   2.710223000000000   6.323855999999999  53.020905999999997 1
ion Ag   2.710223000000000  13.551110000000000  50.465617000000002 1
ion Ag   2.710223000000000   4.517042000000000  47.910397000000003 1
ion Ag   2.710223000000000  11.744297000000000  68.352226999999999 1
ion-species /projects/musgravc/apps/jdftx-1.6.0/build/pseudopotentials/GBRV_v1.5/$ID_pbe_v1.uspp
ion-species /projects/musgravc/apps/jdftx-1.6.0/build/pseudopotentials/GBRV_v1.5/$ID_pbe_v1.2.uspp
ion-species /projects/musgravc/apps/jdftx-1.6.0/build/pseudopotentials/GBRV_v1.5/$ID_pbe_v1.4.uspp
ion-species /projects/musgravc/apps/jdftx-1.6.0/build/pseudopotentials/GBRV_v1.5/$ID_pbe_v1.5.uspp
ion-width Ecut
ionic-minimize  \
	dirUpdateScheme      L-BFGS \
	linminMethod         DirUpdateRecommended \
	nIterations          100 \
	history              15 \
	knormThreshold       0.0001 \
	energyDiffThreshold  1e-06 \
	nEnergyDiff          2 \
	alphaTstart          1 \
	alphaTmin            1e-10 \
	updateTestStepSize   yes \
	alphaTreduceFactor   0.1 \
	alphaTincreaseFactor 3 \
	nAlphaAdjustMax      3 \
	wolfeEnergy          0.0001 \
	wolfeGradient        0.9 \
	fdTest               no
kpoint   0.000000000000   0.000000000000   0.000000000000  1.00000000000000
kpoint-folding 12 4 1 
latt-move-scale 0 0 0
latt-scale 1 1 1 
lattice  \
	   5.420447000000000    0.000000000000000    0.000000000000000  \
	   0.000000000000000   16.261339000000000    0.000000000000000  \
	  -0.000000000000000    0.000000000000000   68.991015000000004 
lattice-minimize  \
	dirUpdateScheme      L-BFGS \
	linminMethod         DirUpdateRecommended \
	nIterations          0 \
	history              15 \
	knormThreshold       0 \
	energyDiffThreshold  1e-06 \
	nEnergyDiff          2 \
	alphaTstart          1 \
	alphaTmin            1e-10 \
	updateTestStepSize   yes \
	alphaTreduceFactor   0.1 \
	alphaTincreaseFactor 3 \
	nAlphaAdjustMax      3 \
	wolfeEnergy          0.0001 \
	wolfeGradient        0.9 \
	fdTest               no
lcao-params 30 1e-06 0.001
pcm-variant CANDLE
spintype z-spin
subspace-rotation-factor 1 yes
symmetries none
symmetry-threshold 0.0001
van-der-waals D3


Applied RMS atom displacement 0 bohrs to make symmetries exact.

---------- Initializing the Grid ----------
R = 
[      5.42045            0            0  ]
[            0      16.2613            0  ]
[            0            0       68.991  ]
unit cell volume = 6081.13
G =
[    1.15916          0          0  ]
[         -0   0.386388          0  ]
[          0         -0  0.0910725  ]
Minimum fftbox size, Smin = [  24  68  280  ]
Chosen fftbox size, S = [  24  70  280  ]

---------- Exchange Correlation functional ----------
Initalized PBE GGA exchange.
Initalized PBE GGA correlation.

---------- Setting up pseudopotentials ----------
Width of ionic core gaussian charges (only for fluid interactions / plotting) set to 0.397384

Reading pseudopotential file '/projects/musgravc/apps/jdftx-1.6.0/build/pseudopotentials/GBRV_v1.5/ag_pbe_v1.4.uspp':
  Title: Ag.  Created by USPP 7.3.6 on 1-4-15
  Reference state energy: -147.606242.  19 valence electrons in orbitals:
    |400>  occupation: 2  eigenvalue: -3.637437
    |410>  occupation: 6  eigenvalue: -2.297267
    |420>  occupation: 10  eigenvalue: -0.417763
    |500>  occupation: 0.5  eigenvalue: -0.283525
    |510>  occupation: 0  eigenvalue: -0.122889
  lMax: 2  lLocal: 0  QijEcut: 5.5
  6 projectors sampled on a log grid with 717 points:
    l: 0  eig: -0.283528  rCut: 1.5
    l: 0  eig: -3.637440  rCut: 1.5
    l: 1  eig: -0.122892  rCut: 1.5
    l: 1  eig: -2.297267  rCut: 1.5
    l: 2  eig: -0.417762  rCut: 1.7
    l: 2  eig: -1.000000  rCut: 1.7
  Partial core density with radius 1.2
  Transforming core density to a uniform radial grid of dG=0.02 with 1166 points.
  Transforming local potential to a uniform radial grid of dG=0.02 with 1166 points.
  Transforming nonlocal projectors to a uniform radial grid of dG=0.02 with 432 points.
  Transforming density augmentations to a uniform radial grid of dG=0.02 with 1166 points.
  Transforming atomic orbitals to a uniform radial grid of dG=0.02 with 432 points.
  Core radius for overlap checks: 1.70 bohrs.

Initialized 1 species with 18 total atoms.

Folded 1 k-points by 12x4x1 to 48 k-points.

---------- Setting up k-points, bands, fillings ----------
No reducable k-points. 
Computing the number of bands and number of electrons
Calculating initial fillings.
nElectrons: 342.000000   nBands: 206   nStates: 96

----- Setting up reduced wavefunction bases (one per k-point) -----
average nbasis = 25983.646 , ideal nbasis = 25979.030

----- Initializing Supercell corresponding to k-point mesh -----
Lattice vector linear combinations in supercell:
[  12   0   0  ]
[   0   4   0  ]
[   0   0   1  ]
Supercell lattice vectors:
[  65.0454  0  0  ]
[  0  65.0454  0  ]
[  0  0  68.991  ]

Initializing DFT-D3 calculator:
	Parameters set for gga-PBE functional
	s6:  1.000  s_r6:  1.217
	s8:  0.722  s_r8:  1.000
	Per-atom parameters loaded for:
	Ag:  sqrtQ[a0]:  5.443  Rcov[a0]:  2.173  CN: [ 0.00 0.97 ]

Initializing DFT-D2 calculator for fluid / solvation:
	Ag:  C6:  427.91 Eh-a0^6  R0: 3.097 a0

---------- Setting up ewald sum ----------
Optimum gaussian width for ewald sums = 4.498067 bohr.
Real space sum over 855 unit cells with max indices [  9  4  2  ]
Reciprocal space sum over 5355 terms with max indices [  3  7  25  ]

Computing DFT-D3 correction:
# coordination-number Ag 6.867 8.403 5.359 9.200 9.208 9.209 9.203 9.194 6.895 9.194 9.204 6.895 9.209 9.208 9.200 8.403 6.867 5.359
# diagonal-C6 Ag 268.61 268.61 268.61 268.61 268.61 268.61 268.61 268.61 268.61 268.61 268.61 268.61 268.61 268.61 268.61 268.61 268.61 268.61
EvdW_6 =   -0.111205
EvdW_8 =   -0.152109

---------- Allocating electronic variables ----------
Initializing wave functions:  linear combination of atomic orbitals
Ag pseudo-atom occupations:   s ( 2 1 )  p ( 6 0 )  d ( 10 )
	FillingsUpdate:  mu: -0.031023861  nElectrons: 342.000000  magneticMoment: [ Abs: 0.00095  Tot: +0.00003 ]
LCAOMinimize: Iter:   0  F: -2656.6419099457416451  |grad|_K:  6.650e-04  alpha:  1.000e+00
	FillingsUpdate:  mu: +0.313476863  nElectrons: 342.000000  magneticMoment: [ Abs: 0.00077  Tot: -0.00001 ]
LCAOMinimize: Iter:   1  F: -2656.6524954776477898  |grad|_K:  9.357e-04  alpha:  1.920e-01  linmin:  8.193e-02  cgtest: -6.604e-01  t[s]:    146.71
LCAOMinimize: 	Bad step direction: g.d > 0.
LCAOMinimize: 	Undoing step.
LCAOMinimize: 	Step failed: resetting search direction.
	FillingsUpdate:  mu: +0.313476863  nElectrons: 342.000000  magneticMoment: [ Abs: 0.00077  Tot: -0.00001 ]
LCAOMinimize: Iter:   2  F: -2656.6524954776477898  |grad|_K:  9.357e-04  alpha:  0.000e+00
	FillingsUpdate:  mu: +0.111307099  nElectrons: 342.000000  magneticMoment: [ Abs: 0.00077  Tot: -0.00002 ]
LCAOMinimize: Iter:   3  F: -2656.8273564412952510  |grad|_K:  2.180e-04  alpha:  6.209e-02  linmin: -1.274e-01  cgtest:  6.092e-01  t[s]:    248.48
LCAOMinimize: Encountered beta<0, resetting CG.
LCAOMinimize: 	Predicted alpha/alphaT>3.000000, increasing alphaT to 1.862692e-01.
	FillingsUpdate:  mu: +0.059220660  nElectrons: 342.000000  magneticMoment: [ Abs: 0.00071  Tot: -0.00004 ]
LCAOMinimize: Iter:   4  F: -2656.8584753571863075  |grad|_K:  2.708e-04  alpha:  2.464e-01  linmin: -4.645e-04  cgtest:  2.489e-02  t[s]:    321.72
	FillingsUpdate:  mu: +0.110135144  nElectrons: 342.000000  magneticMoment: [ Abs: 0.00063  Tot: -0.00004 ]
LCAOMinimize: Iter:   5  F: -2656.8856952808187089  |grad|_K:  5.083e-05  alpha:  1.490e-01  linmin:  6.080e-03  cgtest: -2.852e-01  t[s]:    380.08
	FillingsUpdate:  mu: +0.110057352  nElectrons: 342.000000  magneticMoment: [ Abs: 0.00063  Tot: -0.00004 ]
LCAOMinimize: Iter:   6  F: -2656.8859033279650248  |grad|_K:  2.517e-05  alpha:  3.189e-02  linmin:  6.363e-04  cgtest:  7.774e-02  t[s]:    438.72
LCAOMinimize: 	Predicted alpha/alphaT>3.000000, increasing alphaT to 9.567135e-02.
	FillingsUpdate:  mu: +0.105258003  nElectrons: 342.000000  magneticMoment: [ Abs: 0.00063  Tot: -0.00004 ]
LCAOMinimize: Iter:   7  F: -2656.8861125581197484  |grad|_K:  1.750e-05  alpha:  1.250e-01  linmin:  1.326e-04  cgtest: -3.443e-02  t[s]:    512.54
	FillingsUpdate:  mu: +0.108382033  nElectrons: 342.000000  magneticMoment: [ Abs: 0.00063  Tot: -0.00004 ]
LCAOMinimize: Iter:   8  F: -2656.8862276685522374  |grad|_K:  6.353e-06  alpha:  1.418e-01  linmin: -3.416e-04  cgtest:  3.051e-03  t[s]:    571.35
	FillingsUpdate:  mu: +0.107918751  nElectrons: 342.000000  magneticMoment: [ Abs: 0.00063  Tot: -0.00003 ]
LCAOMinimize: Iter:   9  F: -2656.8862372629205311  |grad|_K:  8.407e-06  alpha:  8.957e-02  linmin:  2.369e-06  cgtest: -1.150e-03  t[s]:    630.16
	FillingsUpdate:  mu: +0.106866782  nElectrons: 342.000000  magneticMoment: [ Abs: 0.00063  Tot: -0.00003 ]
LCAOMinimize: Iter:  10  F: -2656.8862519703002363  |grad|_K:  2.093e-06  alpha:  7.851e-02  linmin:  3.326e-05  cgtest:  1.032e-02  t[s]:    688.85
	FillingsUpdate:  mu: +0.107314922  nElectrons: 342.000000  magneticMoment: [ Abs: 0.00063  Tot: -0.00003 ]
LCAOMinimize: Iter:  11  F: -2656.8862535941234455  |grad|_K:  1.773e-06  alpha:  1.399e-01  linmin:  7.618e-05  cgtest: -1.259e-03  t[s]:    747.97
	FillingsUpdate:  mu: +0.107098430  nElectrons: 342.000000  magneticMoment: [ Abs: 0.00063  Tot: -0.00003 ]
LCAOMinimize: Iter:  12  F: -2656.8862548862803123  |grad|_K:  2.104e-06  alpha:  1.552e-01  linmin: -4.700e-06  cgtest:  1.161e-03  t[s]:    806.58
	FillingsUpdate:  mu: +0.107000879  nElectrons: 342.000000  magneticMoment: [ Abs: 0.00064  Tot: -0.00003 ]
LCAOMinimize: Iter:  13  F: -2656.8862553291742188  |grad|_K:  7.536e-07  alpha:  3.772e-02  linmin: -1.009e-04  cgtest:  9.093e-04  t[s]:    865.07
LCAOMinimize: 	Predicted alpha/alphaT>3.000000, increasing alphaT to 1.131692e-01.
	FillingsUpdate:  mu: +0.107156129  nElectrons: 342.000000  magneticMoment: [ Abs: 0.00064  Tot: -0.00003 ]
LCAOMinimize: Iter:  14  F: -2656.8862557492011547  |grad|_K:  4.020e-07  alpha:  2.802e-01  linmin:  7.600e-04  cgtest: -1.065e-02  t[s]:    939.01
LCAOMinimize: Converged (|Delta F|<1.000000e-06 for 2 iters).
----- createFluidSolver() ----- (Fluid-side solver setup)
   Initializing fluid molecule 'H2O'
     Initializing site 'O'
       Electron density: proportional to exp(-r/0.36935)*erfc((r-0.51523)/0.36823) with norm 6.826
       Charge density: gaussian nuclear width 0.478731 with net site charge 0.826
       Polarizability: cuspless exponential with width 0.32 and norm 3.73
       Hard sphere radius: 2.57003 bohrs
       Positions in reference frame:
         [ +0.000000 +0.000000 +0.000000 ]
     Initializing site 'H'
       Electron density: proportional to exp(-r/0.34641)*erfc((r-0)/0.390882) with norm 0.587
       Charge density: gaussian nuclear width 0.377945 with net site charge -0.413
       Polarizability: cuspless exponential with width 0.39 and norm 3.3
       Positions in reference frame:
         [ +0.000000 -1.441945 +1.122523 ]
         [ +0.000000 +1.441945 +1.122523 ]
     Net charge: 0   dipole magnitude: 0.927204
     Initializing spherical shell mfKernel with radius 2.61727 Bohr
     deltaS corrections:
       site 'O': -7.54299
       site 'H': -6.83917
   Initializing fluid molecule 'Na+'
     Initializing site 'Na'
       Electron density: proportional to exp(-r/0.19682)*erfc((r-0.71491)/0.41314) with norm 8.1383
       Charge density: gaussian nuclear width 0.365347 with net site charge -1
       Hard sphere radius: 1.86327 bohrs
       Positions in reference frame:
         [ +0.000000 +0.000000 +0.000000 ]
     Net charge: -1   dipole magnitude: 0
     Initializing gaussian mfKernel with width: 1.55004 Bohr
     deltaS corrections:
       site 'Na': -22.3555
   Initializing fluid molecule 'F-'
     Initializing site 'F'
       Electron density: proportional to exp(-r/0.38886)*erfc((r-0)/0.438782) with norm 8
       Charge density: gaussian nuclear width 0.374796 with net site charge 1
       Hard sphere radius: 2.39995 bohrs
       Positions in reference frame:
         [ +0.000000 +0.000000 +0.000000 ]
     Net charge: 1   dipole magnitude: 0
     Initializing gaussian mfKernel with width: 1.59012 Bohr
     deltaS corrections:
       site 'F': -9.04335

Correction to mu due to finite nuclear width = -0.055801
   Cavity determined by nc: 0.00142 and sigma: 0.707107
   Nonlocal vdW cavity from gaussian model electron density with norm = 8 and sigma = 0.993594 bohr
   Charge asymmetry in cavity with sensitivity pCavity = 36.5 e-bohr/Eh
   Electrostatic cavity expanded by eta = 1.46 bohrs
   Weighted density cavitation model constrained by Nbulk: 0.0049383 bohr^-3, Pvap: 3.14029 kPa, Rvdw: 2.61727 bohr and sigmaBulk: 4.62e-05 Eh/bohr^2 at T: 298 K.
   Weighted density dispersion model using vdW pair potentials with single solvent site with sqrtC6eff: 0.77 SI.


---- Citations for features of the code used in this run ----

   Software package:
      R. Sundararaman, K. Letchworth-Weaver, K.A. Schwarz, D. Gunceler, Y. Ozhabes and T.A. Arias, 'JDFTx: software for joint density-functional theory', SoftwareX 6, 278 (2017)

   gga-PBE exchange-correlation functional:
      J.P. Perdew, K. Burke and M. Ernzerhof, Phys. Rev. Lett. 77, 3865 (1996)

   Pseudopotentials:
      KF Garrity, JW Bennett, KM Rabe and D Vanderbilt, Comput. Mater. Sci. 81, 446 (2014)

   DFT-D3 dispersion correction:
      S. Grimme, J. Antony, S. Ehrlich and H. Krieg, J. Chem. Phys. 132, 154104 (2010)

   DFT-D2 dispersion correction:
      S. Grimme, J. Comput. Chem. 27, 1787 (2006)

   Charge-asymmetric nonlocally-determined local-electric (CANDLE) solvation model:
      R. Sundararaman and W.A. Goddard III, J. Chem. Phys. 142, 064107 (2015)

   Total energy minimization with Auxiliary Hamiltonian:
      C. Freysoldt, S. Boeck, and J. Neugebauer, Phys. Rev. B 79, 241103(R) (2009)

   Linear-tetrahedron sampling for density of states:
      G. Lehmann and M. Taut, Phys. status solidi (b) 54, 469 (1972)

This list may not be complete. Please suggest additional citations or
report any other bugs at https://github.com/shankar1729/jdftx/issues

Initialization completed successfully at t[s]:    951.75


Computing DFT-D3 correction:
# coordination-number Ag 6.867 8.403 5.359 9.200 9.208 9.209 9.203 9.194 6.895 9.194 9.204 6.895 9.209 9.208 9.200 8.403 6.867 5.359
# diagonal-C6 Ag 268.61 268.61 268.61 268.61 268.61 268.61 268.61 268.61 268.61 268.61 268.61 268.61 268.61 268.61 268.61 268.61 268.61 268.61
EvdW_6 =   -0.111205
EvdW_8 =   -0.152109
Fluid solver invoked on fresh (random / LCAO) wavefunctions
Running a vacuum solve first:

-------- Initial electronic minimization -----------
	FillingsUpdate:  mu: +0.107156129  nElectrons: 342.000000  magneticMoment: [ Abs: 0.00064  Tot: -0.00003 ]
ElecMinimize: Iter:   0  F: -2656.886255749201155  |grad|_K:  1.846e-05  alpha:  1.000e+00
	FillingsUpdate:  mu: +0.115457887  nElectrons: 342.000000  magneticMoment: [ Abs: 0.00049  Tot: -0.00003 ]
	SubspaceRotationAdjust: set factor to 1
ElecMinimize: Iter:   1  F: -2656.963081220873391  |grad|_K:  1.281e-05  alpha:  4.382e-01  linmin:  1.870e-05  t[s]:   1094.25
	FillingsUpdate:  mu: +0.102468361  nElectrons: 342.000000  magneticMoment: [ Abs: 0.00038  Tot: -0.00003 ]
	SubspaceRotationAdjust: set factor to 0.917
ElecMinimize: Iter:   2  F: -2656.986593773942332  |grad|_K:  6.536e-06  alpha:  2.772e-01  linmin: -9.722e-06  t[s]:   1182.43
	FillingsUpdate:  mu: +0.120248560  nElectrons: 342.000000  magneticMoment: [ Abs: 0.00032  Tot: -0.00001 ]
	SubspaceRotationAdjust: set factor to 0.579
ElecMinimize: Iter:   3  F: -2656.990470101372466  |grad|_K:  8.784e-06  alpha:  1.771e-01  linmin:  3.224e-06  t[s]:   1270.91
	FillingsUpdate:  mu: +0.122779022  nElectrons: 342.000000  magneticMoment: [ Abs: 0.00028  Tot: -0.00001 ]
	SubspaceRotationAdjust: set factor to 0.377
ElecMinimize: Iter:   4  F: -2656.993142571192948  |grad|_K:  6.076e-06  alpha:  6.737e-02  linmin:  1.949e-05  t[s]:   1359.77
	FillingsUpdate:  mu: +0.109938655  nElectrons: 342.000000  magneticMoment: [ Abs: 0.00023  Tot: -0.00000 ]
	SubspaceRotationAdjust: set factor to 0.358
ElecMinimize: Iter:   5  F: -2656.995542032454978  |grad|_K:  2.770e-06  alpha:  1.269e-01  linmin:  1.016e-04  t[s]:   1447.92
	FillingsUpdate:  mu: +0.107048932  nElectrons: 342.000000  magneticMoment: [ Abs: 0.00018  Tot: -0.00000 ]
	SubspaceRotationAdjust: set factor to 0.232
ElecMinimize: Iter:   6  F: -2656.996749362423998  |grad|_K:  3.252e-06  alpha:  3.088e-01  linmin:  3.889e-05  t[s]:   1536.67
	FillingsUpdate:  mu: +0.110231088  nElectrons: 342.000000  magneticMoment: [ Abs: 0.00015  Tot: +0.00000 ]
	SubspaceRotationAdjust: set factor to 0.2
ElecMinimize: Iter:   7  F: -2656.997391993449583  |grad|_K:  1.726e-06  alpha:  1.185e-01  linmin:  1.955e-05  t[s]:   1625.49
	FillingsUpdate:  mu: +0.115956828  nElectrons: 342.000000  magneticMoment: [ Abs: 0.00012  Tot: +0.00001 ]
	SubspaceRotationAdjust: set factor to 0.204
ElecMinimize: Iter:   8  F: -2656.997858193253705  |grad|_K:  1.372e-06  alpha:  3.038e-01  linmin: -2.672e-05  t[s]:   1714.04
	FillingsUpdate:  mu: +0.116083393  nElectrons: 342.000000  magneticMoment: [ Abs: 0.00011  Tot: +0.00001 ]
	SubspaceRotationAdjust: set factor to 0.173
ElecMinimize: Iter:   9  F: -2656.998051169491646  |grad|_K:  1.003e-06  alpha:  1.982e-01  linmin: -2.151e-06  t[s]:   1802.54
	FillingsUpdate:  mu: +0.113268122  nElectrons: 342.000000  magneticMoment: [ Abs: 0.00010  Tot: +0.00001 ]
	SubspaceRotationAdjust: set factor to 0.212
ElecMinimize: Iter:  10  F: -2656.998195665401454  |grad|_K:  7.016e-07  alpha:  2.788e-01  linmin:  3.940e-05  t[s]:   1891.35
	FillingsUpdate:  mu: +0.113158401  nElectrons: 342.000000  magneticMoment: [ Abs: 0.00009  Tot: +0.00001 ]
	SubspaceRotationAdjust: set factor to 0.193
ElecMinimize: Iter:  11  F: -2656.998265834312406  |grad|_K:  6.611e-07  alpha:  2.774e-01  linmin:  6.413e-06  t[s]:   1980.51
	FillingsUpdate:  mu: +0.114602786  nElectrons: 342.000000  magneticMoment: [ Abs: 0.00009  Tot: +0.00001 ]
	SubspaceRotationAdjust: set factor to 0.229
ElecMinimize: Iter:  12  F: -2656.998319418513802  |grad|_K:  4.125e-07  alpha:  2.378e-01  linmin:  1.209e-06  t[s]:   2069.04
	FillingsUpdate:  mu: +0.115284228  nElectrons: 342.000000  magneticMoment: [ Abs: 0.00008  Tot: +0.00001 ]
	SubspaceRotationAdjust: set factor to 0.189
ElecMinimize: Iter:  13  F: -2656.998351067506519  |grad|_K:  4.260e-07  alpha:  3.608e-01  linmin:  7.052e-06  t[s]:   2157.80
	FillingsUpdate:  mu: +0.115118609  nElectrons: 342.000000  magneticMoment: [ Abs: 0.00007  Tot: +0.00001 ]
	SubspaceRotationAdjust: set factor to 0.169
ElecMinimize: Iter:  14  F: -2656.998369709275266  |grad|_K:  3.070e-07  alpha:  1.990e-01  linmin: -2.402e-06  t[s]:   2246.38
	FillingsUpdate:  mu: +0.114463069  nElectrons: 342.000000  magneticMoment: [ Abs: 0.00007  Tot: +0.00001 ]
	SubspaceRotationAdjust: set factor to 0.214
ElecMinimize: Iter:  15  F: -2656.998387589700542  |grad|_K:  2.731e-07  alpha:  3.687e-01  linmin:  1.459e-05  t[s]:   2334.75
	FillingsUpdate:  mu: +0.114611732  nElectrons: 342.000000  magneticMoment: [ Abs: 0.00006  Tot: +0.00001 ]
	SubspaceRotationAdjust: set factor to 0.192
ElecMinimize: Iter:  16  F: -2656.998397591293724  |grad|_K:  2.412e-07  alpha:  2.615e-01  linmin:  4.059e-07  t[s]:   2423.32
	FillingsUpdate:  mu: +0.115283572  nElectrons: 342.000000  magneticMoment: [ Abs: 0.00005  Tot: +0.00001 ]
	SubspaceRotationAdjust: set factor to 0.214
ElecMinimize: Iter:  17  F: -2656.998406322800292  |grad|_K:  1.763e-07  alpha:  2.909e-01  linmin:  8.798e-07  t[s]:   2511.64
	FillingsUpdate:  mu: +0.115384547  nElectrons: 342.000000  magneticMoment: [ Abs: 0.00005  Tot: +0.00001 ]
	SubspaceRotationAdjust: set factor to 0.219
ElecMinimize: Iter:  18  F: -2656.998411731702163  |grad|_K:  1.659e-07  alpha:  3.378e-01  linmin:  2.725e-06  t[s]:   2600.79
	FillingsUpdate:  mu: +0.115193966  nElectrons: 342.000000  magneticMoment: [ Abs: 0.00004  Tot: +0.00000 ]
	SubspaceRotationAdjust: set factor to 0.182
ElecMinimize: Iter:  19  F: -2656.998414722952020  |grad|_K:  1.140e-07  alpha:  2.107e-01  linmin: -2.732e-07  t[s]:   2689.37
	FillingsUpdate:  mu: +0.115022512  nElectrons: 342.000000  magneticMoment: [ Abs: 0.00003  Tot: +0.00000 ]
	SubspaceRotationAdjust: set factor to 0.211
ElecMinimize: Iter:  20  F: -2656.998416862494196  |grad|_K:  8.590e-08  alpha:  3.190e-01  linmin:  1.554e-06  t[s]:   2778.08
	FillingsUpdate:  mu: +0.115151812  nElectrons: 342.000000  magneticMoment: [ Abs: 0.00003  Tot: +0.00000 ]
	SubspaceRotationAdjust: set factor to 0.192
ElecMinimize: Iter:  21  F: -2656.998417975956272  |grad|_K:  7.374e-08  alpha:  2.929e-01  linmin: -2.928e-07  t[s]:   2867.08
	FillingsUpdate:  mu: +0.115286179  nElectrons: 342.000000  magneticMoment: [ Abs: 0.00002  Tot: +0.00000 ]
	SubspaceRotationAdjust: set factor to 0.168
ElecMinimize: Iter:  22  F: -2656.998418637622763  |grad|_K:  4.966e-08  alpha:  2.359e-01  linmin: -2.336e-07  t[s]:   2955.74
	FillingsUpdate:  mu: +0.115252537  nElectrons: 342.000000  magneticMoment: [ Abs: 0.00002  Tot: +0.00000 ]
	SubspaceRotationAdjust: set factor to 0.204
ElecMinimize: Iter:  23  F: -2656.998419093912162  |grad|_K:  3.905e-08  alpha:  3.586e-01  linmin:  1.875e-07  t[s]:   3043.85
	FillingsUpdate:  mu: +0.115191838  nElectrons: 342.000000  magneticMoment: [ Abs: 0.00001  Tot: +0.00000 ]
	SubspaceRotationAdjust: set factor to 0.176
ElecMinimize: Iter:  24  F: -2656.998419312802525  |grad|_K:  3.128e-08  alpha:  2.777e-01  linmin: -1.095e-07  t[s]:   3132.58
	FillingsUpdate:  mu: +0.115182632  nElectrons: 342.000000  magneticMoment: [ Abs: 0.00001  Tot: +0.00000 ]
	SubspaceRotationAdjust: set factor to 0.188
ElecMinimize: Iter:  25  F: -2656.998419460611331  |grad|_K:  2.229e-08  alpha:  2.933e-01  linmin: -1.925e-07  t[s]:   3221.17
	FillingsUpdate:  mu: +0.115223490  nElectrons: 342.000000  magneticMoment: [ Abs: 0.00001  Tot: +0.00000 ]
	SubspaceRotationAdjust: set factor to 0.22
ElecMinimize: Iter:  26  F: -2656.998419554607608  |grad|_K:  1.806e-08  alpha:  3.671e-01  linmin:  5.749e-07  t[s]:   3309.45
	FillingsUpdate:  mu: +0.115221625  nElectrons: 342.000000  magneticMoment: [ Abs: 0.00001  Tot: +0.00000 ]
	SubspaceRotationAdjust: set factor to 0.223
ElecMinimize: Iter:  27  F: -2656.998419609894427  |grad|_K:  1.660e-08  alpha:  3.292e-01  linmin:  5.146e-07  t[s]:   3398.08
ElecMinimize: Converged (|Delta F|<1.000000e-07 for 2 iters).
Setting wave functions to eigenvectors of Hamiltonian
Converging empty states (this may take a while): |deigs|: 1.630e-02
Vacuum energy after initial minimize, F = -2656.998419609894427


-------- Electronic minimization -----------
	Linear fluid (dielectric constant: 78.4, screening length: 8.12261 Bohr) occupying 0.545440 of unit cell:	Completed after 22 iterations at t[s]:   3747.67
	FillingsUpdate:  mu: -0.151848135  nElectrons: 342.000000  magneticMoment: [ Abs: 0.00000  Tot: +0.00000 ]
ElecMinimize: Iter:   0  F: -2656.999416467258470  |grad|_K:  5.610e-07  alpha:  1.000e+00
	Linear fluid (dielectric constant: 78.4, screening length: 8.12261 Bohr) occupying 0.546391 of unit cell:	Completed after 20 iterations at t[s]:   3821.67
	Linear fluid (dielectric constant: 78.4, screening length: 8.12261 Bohr) occupying 0.546011 of unit cell:	Completed after 17 iterations at t[s]:   3846.91
	FillingsUpdate:  mu: -0.146112494  nElectrons: 342.000000  magneticMoment: [ Abs: 0.00000  Tot: +0.00000 ]
	SubspaceRotationAdjust: set factor to 0.198
ElecMinimize: Iter:   1  F: -2656.999511760448058  |grad|_K:  5.967e-07  alpha:  5.942e-01  linmin:  6.840e-07  t[s]:   3884.06
	Linear fluid (dielectric constant: 78.4, screening length: 8.12261 Bohr) occupying 0.546865 of unit cell:	Completed after 18 iterations at t[s]:   3916.27
	Linear fluid (dielectric constant: 78.4, screening length: 8.12261 Bohr) occupying 0.546856 of unit cell:	Completed after 2 iterations at t[s]:   3939.82
	FillingsUpdate:  mu: -0.146778843  nElectrons: 342.000000  magneticMoment: [ Abs: 0.00000  Tot: +0.00000 ]
	SubspaceRotationAdjust: set factor to 0.217
ElecMinimize: Iter:   2  F: -2656.999619351709953  |grad|_K:  4.301e-07  alpha:  5.874e-01  linmin: -1.522e-07  t[s]:   3976.68
	Linear fluid (dielectric constant: 78.4, screening length: 8.12261 Bohr) occupying 0.547380 of unit cell:	Completed after 12 iterations at t[s]:   4008.25
	Linear fluid (dielectric constant: 78.4, screening length: 8.12261 Bohr) occupying 0.547292 of unit cell:	Completed after 6 iterations at t[s]:   4032.66
	FillingsUpdate:  mu: -0.146407700  nElectrons: 342.000000  magneticMoment: [ Abs: 0.00000  Tot: +0.00000 ]
	SubspaceRotationAdjust: set factor to 0.25
ElecMinimize: Iter:   3  F: -2656.999665903083951  |grad|_K:  3.354e-07  alpha:  4.876e-01  linmin: -7.018e-08  t[s]:   4069.52
	Linear fluid (dielectric constant: 78.4, screening length: 8.12261 Bohr) occupying 0.547578 of unit cell:	Completed after 12 iterations at t[s]:   4101.26
	Linear fluid (dielectric constant: 78.4, screening length: 8.12261 Bohr) occupying 0.547519 of unit cell:	Completed after 6 iterations at t[s]:   4125.39
	FillingsUpdate:  mu: -0.146064328  nElectrons: 342.000000  magneticMoment: [ Abs: 0.00000  Tot: +0.00000 ]
	SubspaceRotationAdjust: set factor to 0.297
ElecMinimize: Iter:   4  F: -2656.999688287441131  |grad|_K:  2.307e-07  alpha:  3.856e-01  linmin:  1.776e-08  t[s]:   4162.03
	Linear fluid (dielectric constant: 78.4, screening length: 8.12261 Bohr) occupying 0.547626 of unit cell:	Completed after 6 iterations at t[s]:   4192.99
	Linear fluid (dielectric constant: 78.4, screening length: 8.12261 Bohr) occupying 0.547671 of unit cell:	Completed after 3 iterations at t[s]:   4216.94
	FillingsUpdate:  mu: -0.146250464  nElectrons: 342.000000  magneticMoment: [ Abs: 0.00000  Tot: +0.00000 ]
	SubspaceRotationAdjust: set factor to 0.355
ElecMinimize: Iter:   5  F: -2656.999703473143200  |grad|_K:  1.613e-07  alpha:  5.528e-01  linmin: -1.236e-07  t[s]:   4253.87
	Linear fluid (dielectric constant: 78.4, screening length: 8.12261 Bohr) occupying 0.547746 of unit cell:	Completed after 10 iterations at t[s]:   4285.29
	Linear fluid (dielectric constant: 78.4, screening length: 8.12261 Bohr) occupying 0.547743 of unit cell:	Completed after 0 iterations at t[s]:   4308.69
	FillingsUpdate:  mu: -0.145963424  nElectrons: 342.000000  magneticMoment: [ Abs: 0.00000  Tot: +0.00000 ]
	SubspaceRotationAdjust: set factor to 0.409
ElecMinimize: Iter:   6  F: -2656.999710603092808  |grad|_K:  1.237e-07  alpha:  5.303e-01  linmin:  1.169e-07  t[s]:   4345.73
	Linear fluid (dielectric constant: 78.4, screening length: 8.12261 Bohr) occupying 0.547772 of unit cell:	Completed after 10 iterations at t[s]:   4377.31
	Linear fluid (dielectric constant: 78.4, screening length: 8.12261 Bohr) occupying 0.547767 of unit cell:	Completed after 3 iterations at t[s]:   4401.08
	FillingsUpdate:  mu: -0.146261817  nElectrons: 342.000000  magneticMoment: [ Abs: 0.00000  Tot: +0.00000 ]
	SubspaceRotationAdjust: set factor to 0.429
ElecMinimize: Iter:   7  F: -2656.999714090301495  |grad|_K:  8.758e-08  alpha:  4.428e-01  linmin: -8.600e-08  t[s]:   4438.09
	Linear fluid (dielectric constant: 78.4, screening length: 8.12261 Bohr) occupying 0.547782 of unit cell:	Completed after 10 iterations at t[s]:   4469.60
	Linear fluid (dielectric constant: 78.4, screening length: 8.12261 Bohr) occupying 0.547780 of unit cell:	Completed after 3 iterations at t[s]:   4493.34
	FillingsUpdate:  mu: -0.145877949  nElectrons: 342.000000  magneticMoment: [ Abs: 0.00000  Tot: +0.00000 ]
	SubspaceRotationAdjust: set factor to 0.344
ElecMinimize: Iter:   8  F: -2656.999715590229243  |grad|_K:  7.037e-08  alpha:  3.796e-01  linmin: -5.479e-08  t[s]:   4530.18
	Linear fluid (dielectric constant: 78.4, screening length: 8.12261 Bohr) occupying 0.547774 of unit cell:	Completed after 10 iterations at t[s]:   4561.85
	Linear fluid (dielectric constant: 78.4, screening length: 8.12261 Bohr) occupying 0.547776 of unit cell:	Completed after 6 iterations at t[s]:   4585.91
	FillingsUpdate:  mu: -0.146142415  nElectrons: 342.000000  magneticMoment: [ Abs: 0.00000  Tot: +0.00000 ]
	SubspaceRotationAdjust: set factor to 0.242
ElecMinimize: Iter:   9  F: -2656.999716261841968  |grad|_K:  4.212e-08  alpha:  2.642e-01  linmin:  1.633e-07  t[s]:   4624.59
	Linear fluid (dielectric constant: 78.4, screening length: 8.12261 Bohr) occupying 0.547773 of unit cell:	Completed after 4 iterations at t[s]:   4655.32
	Linear fluid (dielectric constant: 78.4, screening length: 8.12261 Bohr) occupying 0.547771 of unit cell:	Completed after 4 iterations at t[s]:   4679.26
	FillingsUpdate:  mu: -0.146161286  nElectrons: 342.000000  magneticMoment: [ Abs: 0.00000  Tot: +0.00000 ]
	SubspaceRotationAdjust: set factor to 0.258
ElecMinimize: Iter:  10  F: -2656.999716645717399  |grad|_K:  2.728e-08  alpha:  4.200e-01  linmin: -9.195e-07  t[s]:   4716.44
	Linear fluid (dielectric constant: 78.4, screening length: 8.12261 Bohr) occupying 0.547768 of unit cell:	Completed after 3 iterations at t[s]:   4747.16
	Linear fluid (dielectric constant: 78.4, screening length: 8.12261 Bohr) occupying 0.547768 of unit cell:	Completed after 0 iterations at t[s]:   4770.37
	FillingsUpdate:  mu: -0.146092576  nElectrons: 342.000000  magneticMoment: [ Abs: 0.00000  Tot: +0.00000 ]
	SubspaceRotationAdjust: set factor to 0.254
ElecMinimize: Iter:  11  F: -2656.999716790339335  |grad|_K:  1.834e-08  alpha:  3.755e-01  linmin:  7.212e-06  t[s]:   4807.71
	Linear fluid (dielectric constant: 78.4, screening length: 8.12261 Bohr) occupying 0.547764 of unit cell:	Completed after 2 iterations at t[s]:   4838.19
	Linear fluid (dielectric constant: 78.4, screening length: 8.12261 Bohr) occupying 0.547764 of unit cell:	Completed after 0 iterations at t[s]:   4861.53
	FillingsUpdate:  mu: -0.146102637  nElectrons: 342.000000  magneticMoment: [ Abs: 0.00000  Tot: +0.00000 ]
	SubspaceRotationAdjust: set factor to 0.291
ElecMinimize: Iter:  12  F: -2656.999716854789767  |grad|_K:  1.172e-08  alpha:  3.762e-01  linmin: -3.779e-05  t[s]:   4898.52
	Linear fluid (dielectric constant: 78.4, screening length: 8.12261 Bohr) occupying 0.547760 of unit cell:	Completed after 2 iterations at t[s]:   4929.63
	Linear fluid (dielectric constant: 78.4, screening length: 8.12261 Bohr) occupying 0.547760 of unit cell:	Completed after 0 iterations at t[s]:   4952.81
	FillingsUpdate:  mu: -0.146122253  nElectrons: 342.000000  magneticMoment: [ Abs: 0.00000  Tot: +0.00000 ]
	SubspaceRotationAdjust: set factor to 0.329
ElecMinimize: Iter:  13  F: -2656.999716883679412  |grad|_K:  8.468e-09  alpha:  3.925e-01  linmin: -5.933e-06  t[s]:   4989.96
ElecMinimize: Converged (|Delta F|<1.000000e-07 for 2 iters).
Setting wave functions to eigenvectors of Hamiltonian
Converging empty states (this may take a while): |deigs|: 1.675e-04
Single-point solvation energy estimate, DeltaF = -0.001297273784985

Computing DFT-D3 correction:
# coordination-number Ag 6.867 8.403 5.359 9.200 9.208 9.209 9.203 9.194 6.895 9.194 9.204 6.895 9.209 9.208 9.200 8.403 6.867 5.359
# diagonal-C6 Ag 268.61 268.61 268.61 268.61 268.61 268.61 268.61 268.61 268.61 268.61 268.61 268.61 268.61 268.61 268.61 268.61 268.61 268.61
EvdW_6 =   -0.111205
EvdW_8 =   -0.152109

# Ionic positions in cartesian coordinates:
ion Ag   0.000000000000000   7.227255000000000  67.074583000000004 1
ion Ag   0.000000000000000  14.454525000000000  64.519362999999998 1
ion Ag   5.420447000000000   0.000000000000000  46.632821000000000 1
ion Ag   0.000000000000000   5.420441000000000  61.964142000000002 1
ion Ag   0.000000000000000  12.647711999999999  59.408921999999997 1
ion Ag   5.420447000000000   3.613627000000000  56.853701999999998 1
ion Ag   5.420447000000000  10.840897999999997  54.298482000000007 1
ion Ag   5.420447000000000   1.806814000000000  51.743260999999997 1
ion Ag   5.420447000000000   9.034084000000000  49.188041000000005 1
ion Ag   2.710223000000000   9.937482999999999  63.241787000000002 1
ion Ag   2.710223000000000   0.903415000000000  60.686566999999997 1
ion Ag   2.710223000000000   2.710229000000000  65.797006999999994 1
ion Ag   2.710223000000000   8.130668999999999  58.131346999999998 1
ion Ag   2.710223000000000  15.357924000000001  55.576126000000002 1
ion Ag   2.710223000000000   6.323855999999999  53.020905999999997 1
ion Ag   2.710223000000000  13.551110000000000  50.465617000000002 1
ion Ag   2.710223000000000   4.517042000000000  47.910397000000003 1
ion Ag   2.710223000000000  11.744297000000000  68.352226999999999 1

# Forces in Cartesian coordinates:
force Ag   0.000014141386228  -0.002074886991317   0.003046021917081 1
force Ag   0.000007524284683   0.002657951530454   0.004275032731975 1
force Ag  -0.000006429372538  -0.001798379562578   0.001841960983698 1
force Ag   0.000003992750392   0.000177013836536  -0.001653287992460 1
force Ag  -0.000000752682266   0.000010664327566  -0.000434879541219 1
force Ag   0.000000238555540   0.000086342200003   0.000042768843223 1
force Ag  -0.000008698821500   0.000900088210671   0.001761011693584 1
force Ag  -0.000008975688715  -0.000631297601936   0.002236221478037 1
force Ag  -0.000008882649192   0.002057758733785  -0.004214000694798 1
force Ag   0.000004990688927   0.000786001382142  -0.002336420300096 1
force Ag   0.000010856799573  -0.000790744071249  -0.001769026524366 1
force Ag   0.000015173373163  -0.001937477790364   0.004268371651592 1
force Ag  -0.000000678995586  -0.000058683316696  -0.000110201115648 1
force Ag   0.000002452464858  -0.000083533200149   0.000539190938482 1
force Ag  -0.000007143604427  -0.000312447975854   0.001664956156888 1
force Ag  -0.000010787475211  -0.002801669107552  -0.004390569625843 1
force Ag  -0.000000971523749   0.001970284534055  -0.002773346334755 1
force Ag   0.000003428249395   0.001882679454494  -0.001682011441352 1

# Energy components:
   A_diel =       -0.0017041750226649
   Eewald =    19453.1476244056248106
       EH =    21851.7322887557857030
     Eloc =   -44379.2895723029214423
      Enl =       70.9844982541608118
     EvdW =       -0.2633139445008357
      Exc =     -260.8621311633180540
 Exc_core =        3.7470747147398304
       KE =      603.8060937499124066
-------------------------------------
     Etot =    -2656.9991417055380225
       TS =        0.0005751781411673
-------------------------------------
        F =    -2656.9997168836794117


Dumping 'jdft.fillings' ... done
Dumping 'jdft.wfns' ... done
Dumping 'jdft.fluidState' ... done
Dumping 'jdft.ionpos' ... done
Dumping 'jdft.lattice' ... done
Dumping 'jdft.eigenvals' ... done
Dumping 'jdft.eigStats' ... 
	eMin: -3.529545 at state 0 ( [ +0.000000 +0.000000 +0.000000 ] spin 1 )
	HOMO: -0.146149 at state 94 ( [ -0.083333 +0.500000 +0.000000 ] spin -1 )
	mu  : -0.146122
	LUMO: -0.145916 at state 17 ( [ +0.333333 +0.250000 +0.000000 ] spin 1 )
	eMax: +0.170686 at state 74 ( [ +0.500000 +0.500000 +0.000000 ] spin -1 )
	HOMO-LUMO gap: +0.000233
	Optical gap  : +0.007071 at state 41 ( [ -0.166667 +0.250000 +0.000000 ] spin 1 )
Dumping 'jdft.Ecomponents' ... done
IonicMinimize: Iter:   0  F: -2656.999716883679412  |grad|_K:  1.721e-03  t[s]:   5252.01

#--- Lowdin population analysis ---
# oxidation-state Ag +0.003 -0.063 +0.106 -0.006 -0.001 -0.001 -0.005 -0.012 +0.028 -0.013 -0.005 +0.028 -0.001 -0.001 -0.006 -0.063 +0.003 +0.106
# magnetic-moments Ag +0.000 +0.000 +0.000 +0.000 +0.000 +0.000 +0.000 +0.000 +0.000 +0.000 +0.000 +0.000 +0.000 +0.000 +0.000 +0.000 +0.000 +0.000


Computing DFT-D3 correction:
# coordination-number Ag 6.856 8.401 5.361 9.192 9.210 9.214 9.200 9.187 6.891 9.186 9.200 6.891 9.214 9.210 9.192 8.401 6.857 5.361
# diagonal-C6 Ag 268.61 268.61 268.61 268.61 268.61 268.61 268.61 268.61 268.61 268.61 268.61 268.61 268.61 268.61 268.61 268.61 268.61 268.61
EvdW_6 =   -0.111198
EvdW_8 =   -0.152092

-------- Electronic minimization -----------
	Linear fluid (dielectric constant: 78.4, screening length: 8.12261 Bohr) occupying 0.547637 of unit cell:	Completed after 11 iterations at t[s]:   5285.72
	FillingsUpdate:  mu: -0.145900540  nElectrons: 342.000000  magneticMoment: [ Abs: 0.00000  Tot: +0.00000 ]
ElecMinimize: Iter:   0  F: -2656.999836605682958  |grad|_K:  1.865e-07  alpha:  1.000e+00
	Linear fluid (dielectric constant: 78.4, screening length: 8.12261 Bohr) occupying 0.547635 of unit cell:	Completed after 13 iterations at t[s]:   5359.40
	Linear fluid (dielectric constant: 78.4, screening length: 8.12261 Bohr) occupying 0.547636 of unit cell:	Completed after 11 iterations at t[s]:   5383.88
	FillingsUpdate:  mu: -0.147308460  nElectrons: 342.000000  magneticMoment: [ Abs: 0.00000  Tot: +0.00000 ]
	SubspaceRotationAdjust: set factor to 0.241
ElecMinimize: Iter:   1  F: -2656.999846854855150  |grad|_K:  2.280e-07  alpha:  5.729e-01  linmin: -6.982e-06  t[s]:   5420.95
	Linear fluid (dielectric constant: 78.4, screening length: 8.12261 Bohr) occupying 0.547703 of unit cell:	Completed after 12 iterations at t[s]:   5452.77
	Linear fluid (dielectric constant: 78.4, screening length: 8.12261 Bohr) occupying 0.547693 of unit cell:	Completed after 7 iterations at t[s]:   5476.90
	FillingsUpdate:  mu: -0.145845464  nElectrons: 342.000000  magneticMoment: [ Abs: 0.00000  Tot: +0.00000 ]
	SubspaceRotationAdjust: set factor to 0.235
ElecMinimize: Iter:   2  F: -2656.999860046117192  |grad|_K:  1.737e-07  alpha:  4.915e-01  linmin:  8.100e-06  t[s]:   5513.95
	Linear fluid (dielectric constant: 78.4, screening length: 8.12261 Bohr) occupying 0.547719 of unit cell:	Completed after 6 iterations at t[s]:   5545.90
	Linear fluid (dielectric constant: 78.4, screening length: 8.12261 Bohr) occupying 0.547721 of unit cell:	Completed after 0 iterations at t[s]:   5569.20
	FillingsUpdate:  mu: -0.145906301  nElectrons: 342.000000  magneticMoment: [ Abs: 0.00000  Tot: +0.00000 ]
	SubspaceRotationAdjust: set factor to 0.28
ElecMinimize: Iter:   3  F: -2656.999868032746235  |grad|_K:  1.054e-07  alpha:  5.136e-01  linmin: -1.004e-04  t[s]:   5606.02
	Linear fluid (dielectric constant: 78.4, screening length: 8.12261 Bohr) occupying 0.547724 of unit cell:	Completed after 10 iterations at t[s]:   5637.46
	Linear fluid (dielectric constant: 78.4, screening length: 8.12261 Bohr) occupying 0.547723 of unit cell:	Completed after 5 iterations at t[s]:   5661.56
	FillingsUpdate:  mu: -0.146262057  nElectrons: 342.000000  magneticMoment: [ Abs: 0.00000  Tot: +0.00000 ]
	SubspaceRotationAdjust: set factor to 0.273
ElecMinimize: Iter:   4  F: -2656.999869965753078  |grad|_K:  5.947e-08  alpha:  3.334e-01  linmin:  6.865e-05  t[s]:   5699.04
	Linear fluid (dielectric constant: 78.4, screening length: 8.12261 Bohr) occupying 0.547726 of unit cell:	Completed after 7 iterations at t[s]:   5730.64
	Linear fluid (dielectric constant: 78.4, screening length: 8.12261 Bohr) occupying 0.547727 of unit cell:	Completed after 0 iterations at t[s]:   5754.14
	FillingsUpdate:  mu: -0.146117203  nElectrons: 342.000000  magneticMoment: [ Abs: 0.00000  Tot: +0.00000 ]
	SubspaceRotationAdjust: set factor to 0.279
ElecMinimize: Iter:   5  F: -2656.999870626989832  |grad|_K:  2.842e-08  alpha:  3.631e-01  linmin: -5.862e-04  t[s]:   5791.63
	Linear fluid (dielectric constant: 78.4, screening length: 8.12261 Bohr) occupying 0.547726 of unit cell:	Completed after 2 iterations at t[s]:   5823.04
	Linear fluid (dielectric constant: 78.4, screening length: 8.12261 Bohr) occupying 0.547726 of unit cell:	Completed after 0 iterations at t[s]:   5846.22
	FillingsUpdate:  mu: -0.146124431  nElectrons: 342.000000  magneticMoment: [ Abs: 0.00000  Tot: +0.00000 ]
	SubspaceRotationAdjust: set factor to 0.321
ElecMinimize: Iter:   6  F: -2656.999870812137942  |grad|_K:  1.831e-08  alpha:  4.319e-01  linmin: -3.998e-04  t[s]:   5883.35
	Linear fluid (dielectric constant: 78.4, screening length: 8.12261 Bohr) occupying 0.547724 of unit cell:	Completed after 2 iterations at t[s]:   5913.94
	Linear fluid (dielectric constant: 78.4, screening length: 8.12261 Bohr) occupying 0.547725 of unit cell:	Completed after 0 iterations at t[s]:   5937.28
	FillingsUpdate:  mu: -0.146152137  nElectrons: 342.000000  magneticMoment: [ Abs: 0.00000  Tot: +0.00000 ]
	SubspaceRotationAdjust: set factor to 0.347
ElecMinimize: Iter:   7  F: -2656.999870873139571  |grad|_K:  1.310e-08  alpha:  3.406e-01  linmin:  3.768e-04  t[s]:   5974.59
	Linear fluid (dielectric constant: 78.4, screening length: 8.12261 Bohr) occupying 0.547724 of unit cell:	Completed after 1 iterations at t[s]:   6005.17
	Linear fluid (dielectric constant: 78.4, screening length: 8.12261 Bohr) occupying 0.547724 of unit cell:	Completed after 0 iterations at t[s]:   6028.43
	FillingsUpdate:  mu: -0.146152243  nElectrons: 342.000000  magneticMoment: [ Abs: 0.00000  Tot: +0.00000 ]
	SubspaceRotationAdjust: set factor to 0.414
ElecMinimize: Iter:   8  F: -2656.999870899147936  |grad|_K:  8.357e-09  alpha:  3.104e-01  linmin: -5.939e-04  t[s]:   6065.72
ElecMinimize: Converged (|Delta F|<1.000000e-07 for 2 iters).
Setting wave functions to eigenvectors of Hamiltonian
Converging empty states (this may take a while): |deigs|: 3.757e-08

Computing DFT-D3 correction:
# coordination-number Ag 6.856 8.401 5.361 9.192 9.210 9.214 9.200 9.187 6.891 9.186 9.200 6.891 9.214 9.210 9.192 8.401 6.857 5.361
# diagonal-C6 Ag 268.61 268.61 268.61 268.61 268.61 268.61 268.61 268.61 268.61 268.61 268.61 268.61 268.61 268.61 268.61 268.61 268.61 268.61
EvdW_6 =   -0.111198
EvdW_8 =   -0.152092
IonicMinimize: 	Wolfe criterion not satisfied: alpha: 1  (E-E0)/|gdotd0|: -0.963359  gdotd/gdotd0: 0.938554 (taking cubic step)

Computing DFT-D3 correction:
# coordination-number Ag 6.835 8.399 5.365 9.177 9.215 9.224 9.192 9.171 6.881 9.171 9.193 6.881 9.223 9.214 9.178 8.399 6.836 5.364
# diagonal-C6 Ag 268.61 268.61 268.61 268.61 268.61 268.61 268.61 268.61 268.61 268.61 268.61 268.61 268.61 268.61 268.61 268.61 268.61 268.61
EvdW_6 =   -0.111183
EvdW_8 =   -0.152060

-------- Electronic minimization -----------
	Linear fluid (dielectric constant: 78.4, screening length: 8.12261 Bohr) occupying 0.547503 of unit cell:	Completed after 14 iterations at t[s]:   6190.96
	FillingsUpdate:  mu: -0.145947988  nElectrons: 342.000000  magneticMoment: [ Abs: 0.00000  Tot: +0.00000 ]
ElecMinimize: Iter:   0  F: -2657.000013738962480  |grad|_K:  3.892e-07  alpha:  1.000e+00
	Linear fluid (dielectric constant: 78.4, screening length: 8.12261 Bohr) occupying 0.547526 of unit cell:	Completed after 14 iterations at t[s]:   6264.63
	Linear fluid (dielectric constant: 78.4, screening length: 8.12261 Bohr) occupying 0.547519 of unit cell:	Completed after 11 iterations at t[s]:   6289.19
	FillingsUpdate:  mu: -0.148690781  nElectrons: 342.000000  magneticMoment: [ Abs: 0.00000  Tot: -0.00000 ]
	SubspaceRotationAdjust: set factor to 0.308
ElecMinimize: Iter:   1  F: -2657.000067470922659  |grad|_K:  5.273e-07  alpha:  6.871e-01  linmin:  1.478e-06  t[s]:   6326.39
	Linear fluid (dielectric constant: 78.4, screening length: 8.12261 Bohr) occupying 0.547765 of unit cell:	Completed after 15 iterations at t[s]:   6358.56
	Linear fluid (dielectric constant: 78.4, screening length: 8.12261 Bohr) occupying 0.547639 of unit cell:	Completed after 12 iterations at t[s]:   6383.38
	FillingsUpdate:  mu: -0.145385021  nElectrons: 342.000000  magneticMoment: [ Abs: 0.00000  Tot: -0.00000 ]
	SubspaceRotationAdjust: set factor to 0.247
ElecMinimize: Iter:   2  F: -2657.000114882405796  |grad|_K:  3.436e-07  alpha:  3.312e-01  linmin:  9.113e-06  t[s]:   6421.41
	Linear fluid (dielectric constant: 78.4, screening length: 8.12261 Bohr) occupying 0.547669 of unit cell:	Completed after 7 iterations at t[s]:   6452.98
	Linear fluid (dielectric constant: 78.4, screening length: 8.12261 Bohr) occupying 0.547680 of unit cell:	Completed after 6 iterations at t[s]:   6477.13
	FillingsUpdate:  mu: -0.145805564  nElectrons: 342.000000  magneticMoment: [ Abs: 0.00000  Tot: -0.00000 ]
	SubspaceRotationAdjust: set factor to 0.309
ElecMinimize: Iter:   3  F: -2657.000142017813232  |grad|_K:  1.827e-07  alpha:  4.460e-01  linmin:  2.725e-06  t[s]:   6514.55
	Linear fluid (dielectric constant: 78.4, screening length: 8.12261 Bohr) occupying 0.547681 of unit cell:	Completed after 10 iterations at t[s]:   6546.11
	Linear fluid (dielectric constant: 78.4, screening length: 8.12261 Bohr) occupying 0.547681 of unit cell:	Completed after 7 iterations at t[s]:   6570.40
	FillingsUpdate:  mu: -0.146352054  nElectrons: 342.000000  magneticMoment: [ Abs: 0.00000  Tot: -0.00000 ]
	SubspaceRotationAdjust: set factor to 0.303
ElecMinimize: Iter:   4  F: -2657.000147337585531  |grad|_K:  9.886e-08  alpha:  3.091e-01  linmin:  1.728e-05  t[s]:   6607.69
	Linear fluid (dielectric constant: 78.4, screening length: 8.12261 Bohr) occupying 0.547685 of unit cell:	Completed after 9 iterations at t[s]:   6639.17
	Linear fluid (dielectric constant: 78.4, screening length: 8.12261 Bohr) occupying 0.547685 of unit cell:	Completed after 0 iterations at t[s]:   6662.72
	FillingsUpdate:  mu: -0.146104292  nElectrons: 342.000000  magneticMoment: [ Abs: 0.00000  Tot: -0.00000 ]
	SubspaceRotationAdjust: set factor to 0.299
ElecMinimize: Iter:   5  F: -2657.000148992470258  |grad|_K:  4.782e-08  alpha:  3.284e-01  linmin: -3.407e-04  t[s]:   6699.70
	Linear fluid (dielectric constant: 78.4, screening length: 8.12261 Bohr) occupying 0.547683 of unit cell:	Completed after 3 iterations at t[s]:   6730.61
	Linear fluid (dielectric constant: 78.4, screening length: 8.12261 Bohr) occupying 0.547683 of unit cell:	Completed after 0 iterations at t[s]:   6754.03
	FillingsUpdate:  mu: -0.146136990  nElectrons: 342.000000  magneticMoment: [ Abs: 0.00000  Tot: -0.00000 ]
	SubspaceRotationAdjust: set factor to 0.358
ElecMinimize: Iter:   6  F: -2657.000149457138832  |grad|_K:  3.007e-08  alpha:  3.880e-01  linmin: -1.655e-04  t[s]:   6791.08
	Linear fluid (dielectric constant: 78.4, screening length: 8.12261 Bohr) occupying 0.547679 of unit cell:	Completed after 6 iterations at t[s]:   6822.13
	Linear fluid (dielectric constant: 78.4, screening length: 8.12261 Bohr) occupying 0.547680 of unit cell:	Completed after 0 iterations at t[s]:   6845.40
	FillingsUpdate:  mu: -0.146258749  nElectrons: 342.000000  magneticMoment: [ Abs: 0.00000  Tot: -0.00000 ]
	SubspaceRotationAdjust: set factor to 0.365
ElecMinimize: Iter:   7  F: -2657.000149606796185  |grad|_K:  2.252e-08  alpha:  3.198e-01  linmin:  5.143e-05  t[s]:   6882.59
	Linear fluid (dielectric constant: 78.4, screening length: 8.12261 Bohr) occupying 0.547679 of unit cell:	Completed after 3 iterations at t[s]:   6913.30
	Linear fluid (dielectric constant: 78.4, screening length: 8.12261 Bohr) occupying 0.547680 of unit cell:	Completed after 2 iterations at t[s]:   6937.03
	FillingsUpdate:  mu: -0.146169519  nElectrons: 342.000000  magneticMoment: [ Abs: 0.00000  Tot: -0.00000 ]
	SubspaceRotationAdjust: set factor to 0.321
ElecMinimize: Iter:   8  F: -2657.000149664348555  |grad|_K:  1.512e-08  alpha:  2.346e-01  linmin: -1.589e-04  t[s]:   6974.34
	Linear fluid (dielectric constant: 78.4, screening length: 8.12261 Bohr) occupying 0.547678 of unit cell:	Completed after 0 iterations at t[s]:   7004.65
	Linear fluid (dielectric constant: 78.4, screening length: 8.12261 Bohr) occupying 0.547678 of unit cell:	Completed after 2 iterations at t[s]:   7028.63
	FillingsUpdate:  mu: -0.146183828  nElectrons: 342.000000  magneticMoment: [ Abs: 0.00000  Tot: -0.00000 ]
	SubspaceRotationAdjust: set factor to 0.408
ElecMinimize: Iter:   9  F: -2657.000149704731939  |grad|_K:  1.167e-08  alpha:  3.794e-01  linmin:  4.036e-04  t[s]:   7065.84
ElecMinimize: Converged (|Delta F|<1.000000e-07 for 2 iters).
Setting wave functions to eigenvectors of Hamiltonian
Converging empty states (this may take a while): |deigs|: 4.230e-08

Computing DFT-D3 correction:
# coordination-number Ag 6.835 8.399 5.365 9.177 9.215 9.224 9.192 9.171 6.881 9.171 9.193 6.881 9.223 9.214 9.178 8.399 6.836 5.364
# diagonal-C6 Ag 268.61 268.61 268.61 268.61 268.61 268.61 268.61 268.61 268.61 268.61 268.61 268.61 268.61 268.61 268.61 268.61 268.61 268.61
EvdW_6 =   -0.111183
EvdW_8 =   -0.152060

# Ionic positions in cartesian coordinates:
ion Ag   0.000040844535421   7.221023728260714  67.083669100280574 1
ion Ag   0.000020993230785  14.462492243826027  64.532136132725256 1
ion Ag   5.420426132259124  -0.005401749453068  46.638294917480422 1
ion Ag   0.000010398627915   5.420965430744273  61.959130170551951 1
ion Ag  -0.000003837670060  12.647737382217361  59.407565395905671 1
ion Ag   5.420446136043356   3.613879415834673  56.853778341058991 1
ion Ag   5.420419323912237  10.843591653866678  54.303713069610090 1
ion Ag   5.420418493310594   1.804913496428856  51.749917698963436 1
ion Ag   5.420418772429163   9.040250665436020  49.175347032444940 1
ion Ag   2.710236392443519   9.939834393381091  63.234725773629044 1
ion Ag   2.710253990775458   0.901036157020918  60.681207954956228 1
ion Ag   2.710266940496225   2.704409955863573  65.809760149484092 1
ion Ag   2.710219383389980   8.130486339284577  58.130964431182385 1
ion Ag   2.710228777771312  15.357666789634218  55.577691607344782 1
ion Ag   2.710199989563456   6.322912045307102  53.025848902999989 1
ion Ag   2.710189057951105  13.542698381912007  50.452393325651805 1
ion Ag   2.710218505805489   4.522946242836828  47.902024995525061 1
ion Ag   2.710231705124922  11.749938427598146  68.347129000205271 1

# Forces in Cartesian coordinates:
force Ag   0.000012177210802  -0.001700935666221   0.002451697351507 1
force Ag   0.000008124929616   0.002351545253169   0.003328893265238 1
force Ag  -0.000005281169184  -0.001459589190466   0.001726224592363 1
force Ag   0.000004560459427  -0.000091281840400  -0.001114692194546 1
force Ag  -0.000000004716793   0.000121154672592  -0.000223311388505 1
force Ag   0.000000382280859   0.000038618529924   0.000096772303483 1
force Ag  -0.000007847916916   0.000777859616430   0.001241209658415 1
force Ag  -0.000007045115608  -0.000614272457082   0.001820558181632 1
force Ag  -0.000005975077187   0.001575446106460  -0.003549526477330 1
force Ag   0.000005102989975   0.000704083136548  -0.001824777940213 1
force Ag   0.000010401084732  -0.000687979579352  -0.001231792518448 1
force Ag   0.000015178477667  -0.001510069929351   0.003686346059977 1
force Ag  -0.000000452000394  -0.000021178505264  -0.000166012581351 1
force Ag   0.000001610670848  -0.000170478611197   0.000294302574110 1
force Ag  -0.000006788702180   0.000007182747190   0.001129769155716 1
force Ag  -0.000009952409573  -0.002461971843089  -0.003448848919752 1
force Ag  -0.000001952279741   0.001662375004241  -0.002189906662537 1
force Ag   0.000004743096958   0.001574620566258  -0.001563523386138 1

# Energy components:
   A_diel =       -0.0017070449413003
   Eewald =    19444.7989569178207603
       EH =    21843.3880737527688325
     Eloc =   -44362.5936120041587856
      Enl =       70.9848022851104759
     EvdW =       -0.2632430843436346
      Exc =     -260.8591445156054078
 Exc_core =        3.7470748796601860
       KE =      603.7992321378746965
-------------------------------------
     Etot =    -2656.9995666758195512
       TS =        0.0005830289123030
-------------------------------------
        F =    -2657.0001497047319390


Dumping 'jdft.fillings' ... done
Dumping 'jdft.wfns' ... done
Dumping 'jdft.fluidState' ... done
Dumping 'jdft.ionpos' ... done
Dumping 'jdft.lattice' ... done
Dumping 'jdft.eigenvals' ... done
Dumping 'jdft.eigStats' ... 
	eMin: -3.529472 at state 0 ( [ +0.000000 +0.000000 +0.000000 ] spin 1 )
	HOMO: -0.146216 at state 42 ( [ -0.166667 +0.500000 +0.000000 ] spin 1 )
	mu  : -0.146184
	LUMO: -0.145939 at state 65 ( [ +0.333333 +0.250000 +0.000000 ] spin -1 )
	eMax: +0.170565 at state 74 ( [ +0.500000 +0.500000 +0.000000 ] spin -1 )
	HOMO-LUMO gap: +0.000278
	Optical gap  : +0.007096 at state 43 ( [ -0.166667 -0.250000 +0.000000 ] spin 1 )
Dumping 'jdft.Ecomponents' ... done
IonicMinimize: Iter:   1  F: -2657.000149704731939  |grad|_K:  1.404e-03  alpha:  3.000e+00  linmin: -9.967e-01  t[s]:   7157.71

#--- Lowdin population analysis ---
# oxidation-state Ag +0.004 -0.064 +0.105 -0.005 -0.001 -0.001 -0.004 -0.012 +0.028 -0.012 -0.004 +0.027 -0.001 -0.001 -0.005 -0.064 +0.004 +0.105
# magnetic-moments Ag -0.000 -0.000 +0.000 +0.000 +0.000 +0.000 +0.000 -0.000 +0.000 -0.000 -0.000 +0.000 -0.000 -0.000 +0.000 -0.000 -0.000 +0.000


Computing DFT-D3 correction:
# coordination-number Ag 6.686 8.406 5.397 9.042 9.233 9.233 9.167 9.038 6.844 9.031 9.162 6.827 9.230 9.234 9.057 8.403 6.699 5.389
# diagonal-C6 Ag 268.61 268.61 268.61 268.61 268.61 268.61 268.61 268.61 268.61 268.61 268.61 268.61 268.61 268.61 268.61 268.61 268.61 268.61
EvdW_6 =   -0.111048
EvdW_8 =   -0.151860

-------- Electronic minimization -----------
	Linear fluid (dielectric constant: 78.4, screening length: 8.12261 Bohr) occupying 0.548909 of unit cell:	Completed after 24 iterations at t[s]:   7189.33
	FillingsUpdate:  mu: -0.010457955  nElectrons: 342.000000  magneticMoment: [ Abs: 0.00000  Tot: -0.00000 ]
ElecMinimize: Iter:   0  F: -2655.488122485249733  |grad|_K:  1.024e-04  alpha:  1.000e+00
	Linear fluid (dielectric constant: 78.4, screening length: 8.12261 Bohr) occupying 0.537296 of unit cell:	Completed after 31 iterations at t[s]:   7265.45
	Linear fluid (dielectric constant: 78.4, screening length: 8.12261 Bohr) occupying 0.543671 of unit cell:	Completed after 27 iterations at t[s]:   7292.07
	FillingsUpdate:  mu: -0.279691114  nElectrons: 342.000000  magneticMoment: [ Abs: 0.00000  Tot: -0.00000 ]
	SubspaceRotationAdjust: set factor to 0.31
ElecMinimize: Iter:   1  F: -2656.810162301569108  |grad|_K:  3.721e-05  alpha:  2.578e-01  linmin:  3.047e-03  t[s]:   7330.70
	Linear fluid (dielectric constant: 78.4, screening length: 8.12261 Bohr) occupying 0.547962 of unit cell:	Completed after 24 iterations at t[s]:   7363.78
	Linear fluid (dielectric constant: 78.4, screening length: 8.12261 Bohr) occupying 0.547038 of unit cell:	Completed after 22 iterations at t[s]:   7389.88
	FillingsUpdate:  mu: -0.126795352  nElectrons: 342.000000  magneticMoment: [ Abs: 0.00000  Tot: -0.00000 ]
	SubspaceRotationAdjust: set factor to 0.181
ElecMinimize: Iter:   2  F: -2656.948339551573554  |grad|_K:  1.338e-05  alpha:  2.023e-01  linmin:  1.329e-04  t[s]:   7427.02
	Linear fluid (dielectric constant: 78.4, screening length: 8.12261 Bohr) occupying 0.547093 of unit cell:	Completed after 20 iterations at t[s]:   7459.77
	Linear fluid (dielectric constant: 78.4, screening length: 8.12261 Bohr) occupying 0.547113 of unit cell:	Completed after 17 iterations at t[s]:   7485.13
	FillingsUpdate:  mu: -0.148902347  nElectrons: 342.000000  magneticMoment: [ Abs: 0.00000  Tot: -0.00000 ]
	SubspaceRotationAdjust: set factor to 0.27
ElecMinimize: Iter:   3  F: -2656.973716219944890  |grad|_K:  6.510e-06  alpha:  2.761e-01  linmin: -1.193e-05  t[s]:   7522.47
	Linear fluid (dielectric constant: 78.4, screening length: 8.12261 Bohr) occupying 0.547177 of unit cell:	Completed after 17 iterations at t[s]:   7554.74
	Linear fluid (dielectric constant: 78.4, screening length: 8.12261 Bohr) occupying 0.547201 of unit cell:	Completed after 15 iterations at t[s]:   7579.84
	FillingsUpdate:  mu: -0.160820686  nElectrons: 342.000000  magneticMoment: [ Abs: 0.00000  Tot: -0.00000 ]
	SubspaceRotationAdjust: set factor to 0.284
ElecMinimize: Iter:   4  F: -2656.982097905997762  |grad|_K:  5.038e-06  alpha:  3.831e-01  linmin: -6.551e-06  t[s]:   7616.71
	Linear fluid (dielectric constant: 78.4, screening length: 8.12261 Bohr) occupying 0.547703 of unit cell:	Completed after 18 iterations at t[s]:   7649.51
	Linear fluid (dielectric constant: 78.4, screening length: 8.12261 Bohr) occupying 0.547965 of unit cell:	Completed after 16 iterations at t[s]:   7674.79
	FillingsUpdate:  mu: -0.131294517  nElectrons: 342.000000  magneticMoment: [ Abs: 0.00000  Tot: -0.00000 ]
	SubspaceRotationAdjust: set factor to 0.305
ElecMinimize: Iter:   5  F: -2656.989769606185746  |grad|_K:  5.263e-06  alpha:  5.876e-01  linmin:  3.176e-05  t[s]:   7711.95
	Linear fluid (dielectric constant: 78.4, screening length: 8.12261 Bohr) occupying 0.547981 of unit cell:	Completed after 20 iterations at t[s]:   7744.64
	Linear fluid (dielectric constant: 78.4, screening length: 8.12261 Bohr) occupying 0.547987 of unit cell:	Completed after 15 iterations at t[s]:   7769.78
	FillingsUpdate:  mu: -0.143677310  nElectrons: 342.000000  magneticMoment: [ Abs: 0.00000  Tot: -0.00000 ]
	SubspaceRotationAdjust: set factor to 0.381
ElecMinimize: Iter:   6  F: -2656.995415403160223  |grad|_K:  3.752e-06  alpha:  3.990e-01  linmin: -1.081e-06  t[s]:   7806.96
	Linear fluid (dielectric constant: 78.4, screening length: 8.12261 Bohr) occupying 0.547865 of unit cell:	Completed after 15 iterations at t[s]:   7839.04
	Linear fluid (dielectric constant: 78.4, screening length: 8.12261 Bohr) occupying 0.547854 of unit cell:	Completed after 11 iterations at t[s]:   7863.67
	FillingsUpdate:  mu: -0.152752038  nElectrons: 342.000000  magneticMoment: [ Abs: 0.00000  Tot: -0.00000 ]
	SubspaceRotationAdjust: set factor to 0.423
ElecMinimize: Iter:   7  F: -2656.998536736227379  |grad|_K:  2.999e-06  alpha:  4.296e-01  linmin: -3.306e-06  t[s]:   7900.90
	Linear fluid (dielectric constant: 78.4, screening length: 8.12261 Bohr) occupying 0.547993 of unit cell:	Completed after 17 iterations at t[s]:   7933.64
	Linear fluid (dielectric constant: 78.4, screening length: 8.12261 Bohr) occupying 0.547963 of unit cell:	Completed after 13 iterations at t[s]:   7958.47
	FillingsUpdate:  mu: -0.139112306  nElectrons: 342.000000  magneticMoment: [ Abs: 0.00000  Tot: -0.00000 ]
	SubspaceRotationAdjust: set factor to 0.351
ElecMinimize: Iter:   8  F: -2657.000065550722411  |grad|_K:  2.183e-06  alpha:  3.288e-01  linmin:  2.932e-06  t[s]:   7995.76
	Linear fluid (dielectric constant: 78.4, screening length: 8.12261 Bohr) occupying 0.547676 of unit cell:	Completed after 15 iterations at t[s]:   8027.84
	Linear fluid (dielectric constant: 78.4, screening length: 8.12261 Bohr) occupying 0.547705 of unit cell:	Completed after 11 iterations at t[s]:   8052.48
	FillingsUpdate:  mu: -0.147381037  nElectrons: 342.000000  magneticMoment: [ Abs: 0.00000  Tot: -0.00000 ]
	SubspaceRotationAdjust: set factor to 0.321
ElecMinimize: Iter:   9  F: -2657.000792347602328  |grad|_K:  1.289e-06  alpha:  2.959e-01  linmin: -1.495e-07  t[s]:   8089.56
	Linear fluid (dielectric constant: 78.4, screening length: 8.12261 Bohr) occupying 0.547612 of unit cell:	Completed after 12 iterations at t[s]:   8121.24
	Linear fluid (dielectric constant: 78.4, screening length: 8.12261 Bohr) occupying 0.547603 of unit cell:	Completed after 2 iterations at t[s]:   8144.81
	FillingsUpdate:  mu: -0.147593180  nElectrons: 342.000000  magneticMoment: [ Abs: 0.00000  Tot: -0.00000 ]
	SubspaceRotationAdjust: set factor to 0.343
ElecMinimize: Iter:  10  F: -2657.001070457321021  |grad|_K:  8.000e-07  alpha:  3.247e-01  linmin:  3.846e-07  t[s]:   8181.59
	Linear fluid (dielectric constant: 78.4, screening length: 8.12261 Bohr) occupying 0.547575 of unit cell:	Completed after 12 iterations at t[s]:   8213.25
	Linear fluid (dielectric constant: 78.4, screening length: 8.12261 Bohr) occupying 0.547571 of unit cell:	Completed after 9 iterations at t[s]:   8237.84
	FillingsUpdate:  mu: -0.145479031  nElectrons: 342.000000  magneticMoment: [ Abs: 0.00000  Tot: -0.00000 ]
	SubspaceRotationAdjust: set factor to 0.325
ElecMinimize: Iter:  11  F: -2657.001195239146455  |grad|_K:  5.198e-07  alpha:  3.780e-01  linmin:  5.652e-06  t[s]:   8274.85
	Linear fluid (dielectric constant: 78.4, screening length: 8.12261 Bohr) occupying 0.547506 of unit cell:	Completed after 13 iterations at t[s]:   8306.82
	Linear fluid (dielectric constant: 78.4, screening length: 8.12261 Bohr) occupying 0.547516 of unit cell:	Completed after 10 iterations at t[s]:   8331.39
	FillingsUpdate:  mu: -0.147201971  nElectrons: 342.000000  magneticMoment: [ Abs: 0.00000  Tot: -0.00000 ]
	SubspaceRotationAdjust: set factor to 0.303
ElecMinimize: Iter:  12  F: -2657.001239260157490  |grad|_K:  3.368e-07  alpha:  3.159e-01  linmin:  2.656e-06  t[s]:   8368.74
	Linear fluid (dielectric constant: 78.4, screening length: 8.12261 Bohr) occupying 0.547508 of unit cell:	Completed after 11 iterations at t[s]:   8400.44
	Linear fluid (dielectric constant: 78.4, screening length: 8.12261 Bohr) occupying 0.547507 of unit cell:	Completed after 2 iterations at t[s]:   8424.17
	FillingsUpdate:  mu: -0.146643742  nElectrons: 342.000000  magneticMoment: [ Abs: 0.00000  Tot: -0.00000 ]
	SubspaceRotationAdjust: set factor to 0.341
ElecMinimize: Iter:  13  F: -2657.001259215627670  |grad|_K:  2.205e-07  alpha:  3.410e-01  linmin: -1.553e-05  t[s]:   8461.24
	Linear fluid (dielectric constant: 78.4, screening length: 8.12261 Bohr) occupying 0.547504 of unit cell:	Completed after 9 iterations at t[s]:   8492.78
	Linear fluid (dielectric constant: 78.4, screening length: 8.12261 Bohr) occupying 0.547503 of unit cell:	Completed after 2 iterations at t[s]:   8516.43
	FillingsUpdate:  mu: -0.146381225  nElectrons: 342.000000  magneticMoment: [ Abs: 0.00000  Tot: -0.00000 ]
	SubspaceRotationAdjust: set factor to 0.403
ElecMinimize: Iter:  14  F: -2657.001268961100777  |grad|_K:  1.572e-07  alpha:  3.882e-01  linmin: -2.896e-05  t[s]:   8553.55
	Linear fluid (dielectric constant: 78.4, screening length: 8.12261 Bohr) occupying 0.547493 of unit cell:	Completed after 10 iterations at t[s]:   8585.18
	Linear fluid (dielectric constant: 78.4, screening length: 8.12261 Bohr) occupying 0.547494 of unit cell:	Completed after 1 iterations at t[s]:   8608.80
	FillingsUpdate:  mu: -0.146932548  nElectrons: 342.000000  magneticMoment: [ Abs: 0.00000  Tot: +0.00000 ]
	SubspaceRotationAdjust: set factor to 0.435
ElecMinimize: Iter:  15  F: -2657.001273701650007  |grad|_K:  1.256e-07  alpha:  3.707e-01  linmin:  5.438e-05  t[s]:   8646.09
	Linear fluid (dielectric constant: 78.4, screening length: 8.12261 Bohr) occupying 0.547501 of unit cell:	Completed after 9 iterations at t[s]:   8677.58
	Linear fluid (dielectric constant: 78.4, screening length: 8.12261 Bohr) occupying 0.547501 of unit cell:	Completed after 0 iterations at t[s]:   8700.93
	FillingsUpdate:  mu: -0.146496620  nElectrons: 342.000000  magneticMoment: [ Abs: 0.00000  Tot: +0.00000 ]
	SubspaceRotationAdjust: set factor to 0.462
ElecMinimize: Iter:  16  F: -2657.001276545119708  |grad|_K:  9.756e-08  alpha:  3.524e-01  linmin:  2.547e-05  t[s]:   8738.37
	Linear fluid (dielectric constant: 78.4, screening length: 8.12261 Bohr) occupying 0.547500 of unit cell:	Completed after 6 iterations at t[s]:   8769.44
	Linear fluid (dielectric constant: 78.4, screening length: 8.12261 Bohr) occupying 0.547500 of unit cell:	Completed after 0 iterations at t[s]:   8792.77
	FillingsUpdate:  mu: -0.146748069  nElectrons: 342.000000  magneticMoment: [ Abs: 0.00000  Tot: +0.00000 ]
	SubspaceRotationAdjust: set factor to 0.494
ElecMinimize: Iter:  17  F: -2657.001278222106521  |grad|_K:  6.781e-08  alpha:  3.436e-01  linmin: -2.486e-05  t[s]:   8831.11
	Linear fluid (dielectric constant: 78.4, screening length: 8.12261 Bohr) occupying 0.547504 of unit cell:	Completed after 4 iterations at t[s]:   8861.90
	Linear fluid (dielectric constant: 78.4, screening length: 8.12261 Bohr) occupying 0.547505 of unit cell:	Completed after 1 iterations at t[s]:   8885.43
	FillingsUpdate:  mu: -0.146624387  nElectrons: 342.000000  magneticMoment: [ Abs: 0.00000  Tot: +0.00000 ]
	SubspaceRotationAdjust: set factor to 0.506
ElecMinimize: Iter:  18  F: -2657.001279156242163  |grad|_K:  4.718e-08  alpha:  3.905e-01  linmin: -6.847e-05  t[s]:   8922.37
	Linear fluid (dielectric constant: 78.4, screening length: 8.12261 Bohr) occupying 0.547506 of unit cell:	Completed after 3 iterations at t[s]:   8953.04
	Linear fluid (dielectric constant: 78.4, screening length: 8.12261 Bohr) occupying 0.547506 of unit cell:	Completed after 0 iterations at t[s]:   8976.32
	FillingsUpdate:  mu: -0.146672117  nElectrons: 342.000000  magneticMoment: [ Abs: 0.00000  Tot: +0.00000 ]
	SubspaceRotationAdjust: set factor to 0.514
ElecMinimize: Iter:  19  F: -2657.001279580007576  |grad|_K:  3.190e-08  alpha:  3.618e-01  linmin:  6.856e-05  t[s]:   9013.64
	Linear fluid (dielectric constant: 78.4, screening length: 8.12261 Bohr) occupying 0.547507 of unit cell:	Completed after 2 iterations at t[s]:   9044.25
	Linear fluid (dielectric constant: 78.4, screening length: 8.12261 Bohr) occupying 0.547507 of unit cell:	Completed after 0 iterations at t[s]:   9067.52
	FillingsUpdate:  mu: -0.146687332  nElectrons: 342.000000  magneticMoment: [ Abs: 0.00000  Tot: +0.00000 ]
	SubspaceRotationAdjust: set factor to 0.524
ElecMinimize: Iter:  20  F: -2657.001279758359942  |grad|_K:  2.113e-08  alpha:  3.458e-01  linmin: -9.553e-05  t[s]:   9104.54
	Linear fluid (dielectric constant: 78.4, screening length: 8.12261 Bohr) occupying 0.547509 of unit cell:	Completed after 2 iterations at t[s]:   9135.57
	Linear fluid (dielectric constant: 78.4, screening length: 8.12261 Bohr) occupying 0.547509 of unit cell:	Completed after 0 iterations at t[s]:   9158.92
	FillingsUpdate:  mu: -0.146640286  nElectrons: 342.000000  magneticMoment: [ Abs: 0.00000  Tot: +0.00000 ]
	SubspaceRotationAdjust: set factor to 0.459
ElecMinimize: Iter:  21  F: -2657.001279840825191  |grad|_K:  1.518e-08  alpha:  3.534e-01  linmin: -5.915e-05  t[s]:   9196.11
	Linear fluid (dielectric constant: 78.4, screening length: 8.12261 Bohr) occupying 0.547509 of unit cell:	Completed after 2 iterations at t[s]:   9226.87
	Linear fluid (dielectric constant: 78.4, screening length: 8.12261 Bohr) occupying 0.547509 of unit cell:	Completed after 0 iterations at t[s]:   9250.21
	FillingsUpdate:  mu: -0.146670549  nElectrons: 342.000000  magneticMoment: [ Abs: 0.00000  Tot: +0.00000 ]
	SubspaceRotationAdjust: set factor to 0.426
ElecMinimize: Iter:  22  F: -2657.001279883292227  |grad|_K:  1.006e-08  alpha:  3.550e-01  linmin:  4.383e-04  t[s]:   9287.15
ElecMinimize: Converged (|Delta F|<1.000000e-07 for 2 iters).
Setting wave functions to eigenvectors of Hamiltonian
Converging empty states (this may take a while): |deigs|: 4.591e-06

Computing DFT-D3 correction:
# coordination-number Ag 6.686 8.406 5.397 9.042 9.233 9.233 9.167 9.038 6.844 9.031 9.162 6.827 9.230 9.234 9.057 8.403 6.699 5.389
# diagonal-C6 Ag 268.61 268.61 268.61 268.61 268.61 268.61 268.61 268.61 268.61 268.61 268.61 268.61 268.61 268.61 268.61 268.61 268.61 268.61
EvdW_6 =   -0.111048
EvdW_8 =   -0.151860

# Ionic positions in cartesian coordinates:
ion Ag   0.000254906164833   7.188949429778389  67.125691838649942 1
ion Ag   0.000238832526283  14.516117955334426  64.582997857525811 1
ion Ag   5.420279602291337  -0.032117776688324  46.681915664454571 1
ion Ag   0.000122881840402   5.405268915440856  61.951094287961851 1
ion Ag  -0.000015727587312  12.656210989190379  59.409958410672125 1
ion Ag   5.420416826407359   3.612437889812711  56.858010771805247 1
ion Ag   5.420183938519849  10.860138384768529  54.314026352496143 1
ion Ag   5.420257745624832   1.787534898737816  51.782045164147902 1
ion Ag   5.420335569395406   9.062925661265757  49.102388765191975 1
ion Ag   2.710343051194472   9.956146740905421  63.204733484269752 1
ion Ag   2.710487953888629   0.885582105773456  60.669697620476548 1
ion Ag   2.710661893640748   2.680431444957911  65.888318050921654 1
ion Ag   2.710169734210303   8.131350146526236  58.122331066873045 1
ion Ag   2.710188445927803  15.348274453033417  55.573484841947170 1
ion Ag   2.709971897454670   6.337996666344951  53.032186737775191 1
ion Ag   2.709891640697151  13.486837448045767  50.395529951982240 1
ion Ag   2.710067828146016   4.556432919219181  47.864809518090397 1
ion Ag   2.710384979657221  11.780862727553112  68.306077614758436 1

# Forces in Cartesian coordinates:
force Ag   0.000005075785643   0.000358347555348   0.000206112887502 1
force Ag   0.000011843340378   0.000487319081365   0.000599246351772 1
force Ag  -0.000001157622581   0.000409202444979   0.000571216388614 1
force Ag   0.000006525358379  -0.000061974889455   0.001223548559251 1
force Ag   0.000003431666685  -0.000008618855054   0.000307915412822 1
force Ag   0.000000320144310  -0.000021780694812  -0.000264887815218 1
force Ag  -0.000004402949119  -0.000121179724686  -0.000709146064005 1
force Ag  -0.000006489725296   0.000247841264544  -0.000887976697261 1
force Ag  -0.000013682672262  -0.000414188976728  -0.001755315864753 1
force Ag   0.000003943670551  -0.000257504893555   0.000827594430642 1
force Ag   0.000007538869410   0.000230906367255   0.000728804005278 1
force Ag  -0.000001888315710   0.000377860350244   0.001666612258876 1
force Ag  -0.000000390799968   0.000038091907615   0.000436989571290 1
force Ag  -0.000001863474772  -0.000037966581769  -0.000151957932359 1
force Ag  -0.000002553907709   0.000006776035745  -0.001075652447947 1
force Ag   0.000000387700714  -0.000350092013145  -0.000435506046091 1
force Ag  -0.000003991303386  -0.000280747007359  -0.000251187978813 1
force Ag   0.000012658102350  -0.000126003814588  -0.000352805068361 1

# Energy components:
   A_diel =       -0.0017279464887437
   Eewald =    19403.2694831093103858
       EH =    21801.8105927025280835
     Eloc =   -44279.4773861587891588
      Enl =       70.9876544726056409
     EvdW =       -0.2629084879745824
      Exc =     -260.8477970885853097
 Exc_core =        3.7470755577692612
       KE =      603.7743747693539262
-------------------------------------
     Etot =    -2657.0006390702733370
       TS =        0.0006408130188092
-------------------------------------
        F =    -2657.0012798832922272


Dumping 'jdft.fillings' ... done
Dumping 'jdft.wfns' ... done
Dumping 'jdft.fluidState' ... done
Dumping 'jdft.ionpos' ... done
Dumping 'jdft.lattice' ... done
Dumping 'jdft.eigenvals' ... done
Dumping 'jdft.eigStats' ... 
	eMin: -3.529414 at state 0 ( [ +0.000000 +0.000000 +0.000000 ] spin 1 )
	HOMO: -0.146860 at state 6 ( [ +0.083333 +0.500000 +0.000000 ] spin 1 )
	mu  : -0.146671
	LUMO: -0.146590 at state 58 ( [ +0.166667 +0.500000 +0.000000 ] spin -1 )
	eMax: +0.169976 at state 26 ( [ +0.500000 +0.500000 +0.000000 ] spin 1 )
	HOMO-LUMO gap: +0.000270
[...]
	Linear fluid (dielectric constant: 78.4, screening length: 8.12261 Bohr) occupying 0.546219 of unit cell:	Completed after 0 iterations at t[s]:  17129.71
	FillingsUpdate:  mu: -0.146866613  nElectrons: 342.000000  magneticMoment: [ Abs: 0.00000  Tot: +0.00000 ]
	SubspaceRotationAdjust: set factor to 0.392
ElecMinimize: Iter:  11  F: -2657.001718983824503  |grad|_K:  7.040e-08  alpha:  4.105e-01  linmin: -8.148e-05  t[s]:  17166.89
	Linear fluid (dielectric constant: 78.4, screening length: 8.12261 Bohr) occupying 0.546205 of unit cell:	Completed after 8 iterations at t[s]:  17198.26
	Linear fluid (dielectric constant: 78.4, screening length: 8.12261 Bohr) occupying 0.546206 of unit cell:	Completed after 1 iterations at t[s]:  17222.77
	FillingsUpdate:  mu: -0.147112053  nElectrons: 342.000000  magneticMoment: [ Abs: 0.00000  Tot: +0.00000 ]
	SubspaceRotationAdjust: set factor to 0.325
ElecMinimize: Iter:  12  F: -2657.001719957256682  |grad|_K:  4.712e-08  alpha:  3.777e-01  linmin:  1.891e-04  t[s]:  17260.13
	Linear fluid (dielectric constant: 78.4, screening length: 8.12261 Bohr) occupying 0.546204 of unit cell:	Completed after 6 iterations at t[s]:  17291.27
	Linear fluid (dielectric constant: 78.4, screening length: 8.12261 Bohr) occupying 0.546205 of unit cell:	Completed after 2 iterations at t[s]:  17315.03
	FillingsUpdate:  mu: -0.146921381  nElectrons: 342.000000  magneticMoment: [ Abs: 0.00000  Tot: +0.00000 ]
	SubspaceRotationAdjust: set factor to 0.236
ElecMinimize: Iter:  13  F: -2657.001720291804759  |grad|_K:  3.093e-08  alpha:  3.023e-01  linmin: -8.745e-05  t[s]:  17352.27
	Linear fluid (dielectric constant: 78.4, screening length: 8.12261 Bohr) occupying 0.546201 of unit cell:	Completed after 3 iterations at t[s]:  17383.24
	Linear fluid (dielectric constant: 78.4, screening length: 8.12261 Bohr) occupying 0.546200 of unit cell:	Completed after 0 iterations at t[s]:  17406.60
	FillingsUpdate:  mu: -0.146976471  nElectrons: 342.000000  magneticMoment: [ Abs: 0.00000  Tot: +0.00000 ]
	SubspaceRotationAdjust: set factor to 0.304
ElecMinimize: Iter:  14  F: -2657.001720469811971  |grad|_K:  1.891e-08  alpha:  3.563e-01  linmin: -3.020e-04  t[s]:  17443.50
	Linear fluid (dielectric constant: 78.4, screening length: 8.12261 Bohr) occupying 0.546198 of unit cell:	Completed after 5 iterations at t[s]:  17474.49
	Linear fluid (dielectric constant: 78.4, screening length: 8.12261 Bohr) occupying 0.546198 of unit cell:	Completed after 0 iterations at t[s]:  17497.97
	FillingsUpdate:  mu: -0.147070539  nElectrons: 342.000000  magneticMoment: [ Abs: 0.00000  Tot: +0.00000 ]
	SubspaceRotationAdjust: set factor to 0.3
ElecMinimize: Iter:  15  F: -2657.001720523103359  |grad|_K:  1.655e-08  alpha:  2.918e-01  linmin: -3.440e-04  t[s]:  17535.59
	Linear fluid (dielectric constant: 78.4, screening length: 8.12261 Bohr) occupying 0.546198 of unit cell:	Completed after 2 iterations at t[s]:  17566.43
	Linear fluid (dielectric constant: 78.4, screening length: 8.12261 Bohr) occupying 0.546198 of unit cell:	Completed after 0 iterations at t[s]:  17589.84
	FillingsUpdate:  mu: -0.147017536  nElectrons: 342.000000  magneticMoment: [ Abs: 0.00000  Tot: +0.00000 ]
	SubspaceRotationAdjust: set factor to 0.299
ElecMinimize: Iter:  16  F: -2657.001720557768749  |grad|_K:  1.219e-08  alpha:  2.397e-01  linmin:  8.934e-05  t[s]:  17626.99
ElecMinimize: Converged (|Delta F|<1.000000e-07 for 2 iters).
Setting wave functions to eigenvectors of Hamiltonian
Converging empty states (this may take a while): |deigs|: 1.174e-07

Computing DFT-D3 correction:
# coordination-number Ag 6.721 8.348 5.459 8.898 9.123 9.077 9.022 8.955 6.677 8.955 9.032 6.689 9.076 9.119 8.886 8.344 6.731 5.438
# diagonal-C6 Ag 268.61 268.61 268.61 268.61 268.61 268.61 268.61 268.61 268.61 268.61 268.61 268.61 268.61 268.61 268.61 268.61 268.61 268.61
EvdW_6 =   -0.110366
EvdW_8 =   -0.150904

# Ionic positions in cartesian coordinates:
ion Ag   0.000992957207491   7.217266926794132  67.178850741137353 1
ion Ag   0.001381538532010  14.568826658063051  64.617805637277925 1
ion Ag   5.419766225224170  -0.039879040594294  46.689583048518038 1
ion Ag   0.000743529387426   5.390326484662561  62.027121523672925 1
ion Ag   0.000305685187040  12.662279783103845  59.422568017230248 1
ion Ag   5.420368735241543   3.617777911363011  56.843408753929815 1
ion Ag   5.419614335319092  10.833890398341742  54.285103962719788 1
ion Ag   5.419439198055244   1.780226347678311  51.756099939020032 1
ion Ag   5.418895050020186   9.050206921778027  48.925478337073677 1
ion Ag   2.711053538779277   9.962233053921951  63.233160737971218 1
ion Ag   2.711090767197994   0.906480481692544  60.696955294661784 1
ion Ag   2.711338899824729   2.696456977053427  66.049902514541117 1
ion Ag   2.710180180672991   8.122132027728526  58.143866563402170 1
ion Ag   2.709801733464985  15.333620062431114  55.564854036951594 1
ion Ag   2.709186162081739   6.348691843686638  52.957308428450546 1
ion Ag   2.709174298340594  13.437751160674379  50.363004263104365 1
ion Ag   2.708927181734496   4.533344050823464  47.805489552179921 1
ion Ag   2.711981983728993  11.799748950797563  68.304736648157487 1

# Forces in Cartesian coordinates:
force Ag   0.000011101110749   0.000147260063722   0.000085796852092 1
force Ag   0.000004014082368   0.000066020332618  -0.000086861907794 1
force Ag  -0.000005934048838  -0.000465911689562  -0.000229295789334 1
force Ag   0.000004513746767  -0.000008361125318  -0.000148222542105 1
force Ag   0.000000573557354  -0.000050523487002   0.000301499339143 1
force Ag  -0.000001195748094   0.000176573397462  -0.000021060365872 1
force Ag  -0.000001793208433  -0.000180107783571   0.000032200678121 1
force Ag  -0.000006178816502  -0.000211311953382   0.000073757739650 1
force Ag   0.000005682902205   0.000186060621123   0.000519511951001 1
force Ag   0.000004239607286   0.000322796531470   0.000023805388505 1
force Ag   0.000000667882377   0.000133443481994  -0.000011375330951 1
force Ag   0.000013899992383  -0.000060002372745  -0.000220606253237 1
force Ag   0.000000428410786  -0.000136507476677  -0.000073313672927 1
force Ag   0.000000285992491   0.000245421746300  -0.000189734077789 1
force Ag  -0.000005285721132   0.000118734627701   0.000085306465909 1
force Ag  -0.000004128205423  -0.000081240096055   0.000142343596347 1
force Ag  -0.000010805213130  -0.000094026773918  -0.000216450862279 1
force Ag   0.000003274475828   0.000475637097091   0.000212673664397 1

# Energy components:
   A_diel =       -0.0017342499275709
   Eewald =    19254.0581253437812848
       EH =    21652.5930920316459378
     Eloc =   -43981.0303383329664939
      Enl =       70.9982321336122482
     EvdW =       -0.2612695590488048
      Exc =     -260.8234115939885669
 Exc_core =        3.7470750234823624
       KE =      603.7191960513943059
-------------------------------------
     Etot =    -2657.0010331520179534
       TS =        0.0006874057505988
-------------------------------------
        F =    -2657.0017205577687491


Dumping 'jdft.fillings' ... done
Dumping 'jdft.wfns' ... done
Dumping 'jdft.fluidState' ... done
Dumping 'jdft.ionpos' ... done
Dumping 'jdft.lattice' ... done
Dumping 'jdft.eigenvals' ... done
Dumping 'jdft.eigStats' ... 
	eMin: -3.529278 at state 48 ( [ +0.000000 +0.000000 +0.000000 ] spin -1 )
	HOMO: -0.147470 at state 54 ( [ +0.083333 +0.500000 +0.000000 ] spin -1 )
	mu  : -0.147018
	LUMO: -0.146581 at state 50 ( [ +0.000000 +0.500000 +0.000000 ] spin -1 )
	eMax: +0.169294 at state 74 ( [ +0.500000 +0.500000 +0.000000 ] spin -1 )
	HOMO-LUMO gap: +0.000889
	Optical gap  : +0.001588 at state 42 ( [ -0.166667 +0.500000 +0.000000 ] spin 1 )
Dumping 'jdft.Ecomponents' ... done
IonicMinimize: Iter:   6  F: -2657.001720557768749  |grad|_K:  1.663e-04  alpha:  1.000e+00  linmin:  3.361e-02  t[s]:  17747.35

#--- Lowdin population analysis ---
# oxidation-state Ag +0.004 -0.070 +0.101 +0.001 -0.002 -0.001 -0.003 -0.008 +0.027 -0.008 -0.003 +0.027 -0.001 -0.002 +0.001 -0.070 +0.003 +0.102
# magnetic-moments Ag +0.000 -0.000 +0.000 +0.000 -0.000 -0.000 +0.000 +0.000 -0.000 +0.000 +0.000 +0.000 -0.000 -0.000 -0.000 +0.000 -0.000 +0.000


Computing DFT-D3 correction:
# coordination-number Ag 6.707 8.361 5.449 8.901 9.119 9.079 9.025 8.958 6.694 8.961 9.031 6.693 9.079 9.114 8.897 8.359 6.710 5.428
# diagonal-C6 Ag 268.61 268.61 268.61 268.61 268.61 268.61 268.61 268.61 268.61 268.61 268.61 268.61 268.61 268.61 268.61 268.61 268.61 268.61
EvdW_6 =   -0.110365
EvdW_8 =   -0.150923

-------- Electronic minimization -----------
	Linear fluid (dielectric constant: 78.4, screening length: 8.12261 Bohr) occupying 0.546207 of unit cell:	Completed after 11 iterations at t[s]:  17781.37
	FillingsUpdate:  mu: -0.147187169  nElectrons: 342.000000  magneticMoment: [ Abs: 0.00000  Tot: +0.00000 ]
ElecMinimize: Iter:   0  F: -2657.001626115767976  |grad|_K:  3.309e-07  alpha:  1.000e+00
	Linear fluid (dielectric constant: 78.4, screening length: 8.12261 Bohr) occupying 0.546214 of unit cell:	Completed after 14 iterations at t[s]:  17855.76
	Linear fluid (dielectric constant: 78.4, screening length: 8.12261 Bohr) occupying 0.546212 of unit cell:	Completed after 11 iterations at t[s]:  17880.14
	FillingsUpdate:  mu: -0.145737640  nElectrons: 342.000000  magneticMoment: [ Abs: 0.00000  Tot: +0.00000 ]
	SubspaceRotationAdjust: set factor to 0.311
ElecMinimize: Iter:   1  F: -2657.001667222962169  |grad|_K:  3.740e-07  alpha:  7.276e-01  linmin:  4.660e-06  t[s]:  17918.19
	Linear fluid (dielectric constant: 78.4, screening length: 8.12261 Bohr) occupying 0.546134 of unit cell:	Completed after 15 iterations at t[s]:  17950.16
	Linear fluid (dielectric constant: 78.4, screening length: 8.12261 Bohr) occupying 0.546160 of unit cell:	Completed after 12 iterations at t[s]:  17974.91
	FillingsUpdate:  mu: -0.147889188  nElectrons: 342.000000  magneticMoment: [ Abs: 0.00000  Tot: +0.00000 ]
	SubspaceRotationAdjust: set factor to 0.303
ElecMinimize: Iter:   2  F: -2657.001701990219317  |grad|_K:  3.420e-07  alpha:  4.819e-01  linmin:  1.028e-06  t[s]:  18012.29
	Linear fluid (dielectric constant: 78.4, screening length: 8.12261 Bohr) occupying 0.546151 of unit cell:	Completed after 11 iterations at t[s]:  18043.91
	Linear fluid (dielectric constant: 78.4, screening length: 8.12261 Bohr) occupying 0.546151 of unit cell:	Completed after 0 iterations at t[s]:  18067.15
	FillingsUpdate:  mu: -0.146774937  nElectrons: 342.000000  magneticMoment: [ Abs: 0.00000  Tot: +0.00000 ]
	SubspaceRotationAdjust: set factor to 0.294
ElecMinimize: Iter:   3  F: -2657.001730767210574  |grad|_K:  2.016e-07  alpha:  4.771e-01  linmin:  2.326e-05  t[s]:  18104.61
	Linear fluid (dielectric constant: 78.4, screening length: 8.12261 Bohr) occupying 0.546137 of unit cell:	Completed after 10 iterations at t[s]:  18136.55
	Linear fluid (dielectric constant: 78.4, screening length: 8.12261 Bohr) occupying 0.546140 of unit cell:	Completed after 2 iterations at t[s]:  18160.20
	FillingsUpdate:  mu: -0.147077003  nElectrons: 342.000000  magneticMoment: [ Abs: 0.00000  Tot: +0.00000 ]
	SubspaceRotationAdjust: set factor to 0.298
ElecMinimize: Iter:   4  F: -2657.001738739226766  |grad|_K:  1.142e-07  alpha:  3.814e-01  linmin: -1.024e-05  t[s]:  18197.51
	Linear fluid (dielectric constant: 78.4, screening length: 8.12261 Bohr) occupying 0.546138 of unit cell:	Completed after 6 iterations at t[s]:  18228.76
	Linear fluid (dielectric constant: 78.4, screening length: 8.12261 Bohr) occupying 0.546138 of unit cell:	Completed after 2 iterations at t[s]:  18252.46
	FillingsUpdate:  mu: -0.146961686  nElectrons: 342.000000  magneticMoment: [ Abs: 0.00000  Tot: +0.00000 ]
	SubspaceRotationAdjust: set factor to 0.303
ElecMinimize: Iter:   5  F: -2657.001741034912357  |grad|_K:  5.984e-08  alpha:  3.412e-01  linmin: -1.140e-05  t[s]:  18289.61
	Linear fluid (dielectric constant: 78.4, screening length: 8.12261 Bohr) occupying 0.546137 of unit cell:	Completed after 3 iterations at t[s]:  18320.58
	Linear fluid (dielectric constant: 78.4, screening length: 8.12261 Bohr) occupying 0.546137 of unit cell:	Completed after 2 iterations at t[s]:  18344.33
	FillingsUpdate:  mu: -0.147015492  nElectrons: 342.000000  magneticMoment: [ Abs: 0.00000  Tot: +0.00000 ]
	SubspaceRotationAdjust: set factor to 0.3
ElecMinimize: Iter:   6  F: -2657.001741769971431  |grad|_K:  3.458e-08  alpha:  3.981e-01  linmin:  2.975e-06  t[s]:  18381.64
	Linear fluid (dielectric constant: 78.4, screening length: 8.12261 Bohr) occupying 0.546138 of unit cell:	Completed after 2 iterations at t[s]:  18412.33
	Linear fluid (dielectric constant: 78.4, screening length: 8.12261 Bohr) occupying 0.546138 of unit cell:	Completed after 0 iterations at t[s]:  18436.88
	FillingsUpdate:  mu: -0.146983996  nElectrons: 342.000000  magneticMoment: [ Abs: 0.00000  Tot: +0.00000 ]
	SubspaceRotationAdjust: set factor to 0.299
ElecMinimize: Iter:   7  F: -2657.001741993635733  |grad|_K:  2.062e-08  alpha:  3.623e-01  linmin:  3.436e-04  t[s]:  18474.32
	Linear fluid (dielectric constant: 78.4, screening length: 8.12261 Bohr) occupying 0.546139 of unit cell:	Completed after 1 iterations at t[s]:  18504.91
	Linear fluid (dielectric constant: 78.4, screening length: 8.12261 Bohr) occupying 0.546139 of unit cell:	Completed after 0 iterations at t[s]:  18528.28
	FillingsUpdate:  mu: -0.146976122  nElectrons: 342.000000  magneticMoment: [ Abs: 0.00000  Tot: +0.00000 ]
	SubspaceRotationAdjust: set factor to 0.315
ElecMinimize: Iter:   8  F: -2657.001742075398852  |grad|_K:  1.126e-08  alpha:  3.791e-01  linmin: -9.508e-04  t[s]:  18565.66
	Linear fluid (dielectric constant: 78.4, screening length: 8.12261 Bohr) occupying 0.546140 of unit cell:	Completed after 2 iterations at t[s]:  18596.46
	Linear fluid (dielectric constant: 78.4, screening length: 8.12261 Bohr) occupying 0.546140 of unit cell:	Completed after 0 iterations at t[s]:  18619.91
	FillingsUpdate:  mu: -0.146979323  nElectrons: 342.000000  magneticMoment: [ Abs: 0.00000  Tot: +0.00000 ]
	SubspaceRotationAdjust: set factor to 0.329
ElecMinimize: Iter:   9  F: -2657.001742104581353  |grad|_K:  6.734e-09  alpha:  4.237e-01  linmin: -4.811e-04  t[s]:  18656.87
ElecMinimize: Converged (|Delta F|<1.000000e-07 for 2 iters).
Setting wave functions to eigenvectors of Hamiltonian
Converging empty states (this may take a while): |deigs|: 2.754e-08

Computing DFT-D3 correction:
# coordination-number Ag 6.707 8.361 5.449 8.901 9.119 9.079 9.025 8.958 6.694 8.961 9.031 6.693 9.079 9.114 8.897 8.359 6.710 5.428
# diagonal-C6 Ag 268.61 268.61 268.61 268.61 268.61 268.61 268.61 268.61 268.61 268.61 268.61 268.61 268.61 268.61 268.61 268.61 268.61 268.61
EvdW_6 =   -0.110365
EvdW_8 =   -0.150923

# Ionic positions in cartesian coordinates:
ion Ag   0.001309842544244   7.222150057992915  67.178047744114110 1
ion Ag   0.001487698425314  14.568118637427368  64.616486812269855 1
ion Ag   5.419570992505508  -0.054813619695821  46.684498556009679 1
ion Ag   0.000865247858267   5.393527470071736  62.026569995462488 1
ion Ag   0.000305940266351  12.661253410822098  59.426173834837222 1
ion Ag   5.420312958020983   3.620606920280625  56.840859438666925 1
ion Ag   5.419539723178421  10.831328201940524  54.287809333193316 1
ion Ag   5.419230618768859   1.776818901449416  51.752427482958737 1
ion Ag   5.419016340533325   9.052463333827818  48.939619407600645 1
ion Ag   2.711163666007190   9.966365881104677  63.236598901810822 1
ion Ag   2.711085967309463   0.907942343549444  60.694853795623544 1
ion Ag   2.711721442526548   2.694965940678502  66.041922983149590 1
ion Ag   2.710173211192241   8.119443823499758  58.144669612293093 1
ion Ag   2.709784325227448  15.335826058043539  55.562806130705376 1
ion Ag   2.709011350582555   6.346173404313102  52.954195123571232 1
ion Ag   2.709030763991681  13.438119003307529  50.365817781732538 1
ion Ag   2.708560441071746   4.527780694983740  47.801860813477049 1
ion Ag   2.712071469989855  11.813310536403019  68.310080252523804 1

# Forces in Cartesian coordinates:
force Ag   0.000008745974140   0.000109864220760   0.000164848360966 1
force Ag   0.000005227989916   0.000164398953762  -0.000013937057628 1
force Ag  -0.000005907628215  -0.000176582410486  -0.000076562103246 1
force Ag   0.000003488374546  -0.000038042448756  -0.000015767930122 1
force Ag   0.000001257163220   0.000029302039004   0.000015124895990 1
force Ag  -0.000000895045629   0.000021525936891  -0.000058685463202 1
force Ag  -0.000001883993056  -0.000047264002462   0.000044378064260 1
force Ag  -0.000005371319695  -0.000086419824444  -0.000068953268102 1
force Ag  -0.000005436415252  -0.000150642172479   0.000093404212444 1
force Ag   0.000004952169547   0.000157717840212   0.000112661426507 1
force Ag   0.000001796030335   0.000122222587358  -0.000025776254712 1
force Ag   0.000010203957312   0.000161622066990   0.000060040732275 1
force Ag   0.000000346393830   0.000063700741670  -0.000095558329658 1
force Ag  -0.000001532294174   0.000068577372684  -0.000083174804939 1
force Ag  -0.000002601978586   0.000039541117758   0.000053355198566 1
force Ag  -0.000001655518919  -0.000064805818500   0.000145397838578 1
force Ag  -0.000005518594361  -0.000057614303497  -0.000136799932114 1
force Ag   0.000003889427884   0.000208111992164   0.000168975816524 1

# Energy components:
   A_diel =       -0.0017246847594079
   Eewald =    19254.9983522900511161
       EH =    21653.5458751467631373
     Eloc =   -43982.9234199636921403
      Enl =       70.9987447332047168
     EvdW =       -0.2612877730090517
      Exc =     -260.8233174824147227
 Exc_core =        3.7470749687478682
       KE =      603.7186471546108351
-------------------------------------
     Etot =    -2657.0010556104989519
       TS =        0.0006864940823169
-------------------------------------
        F =    -2657.0017421045813535


Dumping 'jdft.fillings' ... done
Dumping 'jdft.wfns' ... done
Dumping 'jdft.fluidState' ... done
Dumping 'jdft.ionpos' ... done
Dumping 'jdft.lattice' ... done
Dumping 'jdft.eigenvals' ... done
Dumping 'jdft.eigStats' ... 
	eMin: -3.529236 at state 0 ( [ +0.000000 +0.000000 +0.000000 ] spin 1 )
	HOMO: -0.147485 at state 6 ( [ +0.083333 +0.500000 +0.000000 ] spin 1 )
	mu  : -0.146979
	LUMO: -0.146484 at state 2 ( [ +0.000000 +0.500000 +0.000000 ] spin 1 )
	eMax: +0.169294 at state 26 ( [ +0.500000 +0.500000 +0.000000 ] spin 1 )
	HOMO-LUMO gap: +0.001001
	Optical gap  : +0.001541 at state 10 ( [ +0.166667 +0.500000 +0.000000 ] spin 1 )
Dumping 'jdft.Ecomponents' ... done
IonicMinimize: Iter:   7  F: -2657.001742104581353  |grad|_K:  8.278e-05  alpha:  1.000e+00  linmin: -5.445e-01  t[s]:  18748.39
IonicMinimize: Converged (|grad|_K<1.000000e-04).

#--- Lowdin population analysis ---
# oxidation-state Ag +0.004 -0.071 +0.101 +0.001 -0.002 -0.001 -0.002 -0.009 +0.027 -0.009 -0.003 +0.027 -0.001 -0.002 +0.001 -0.071 +0.004 +0.102
# magnetic-moments Ag -0.000 -0.000 +0.000 -0.000 -0.000 +0.000 +0.000 -0.000 -0.000 +0.000 +0.000 +0.000 -0.000 +0.000 +0.000 -0.000 -0.000 +0.000


Dumping 'jdft.n_up' ... done
Dumping 'jdft.n_dn' ... done
Dumping 'jdft.tau_up' ... done
Dumping 'jdft.tau_dn' ... done
Dumping 'jdft.eigenvals' ... done
Dumping 'jdft.eigStats' ... 
	eMin: -3.529236 at state 0 ( [ +0.000000 +0.000000 +0.000000 ] spin 1 )
	HOMO: -0.147485 at state 6 ( [ +0.083333 +0.500000 +0.000000 ] spin 1 )
	mu  : -0.146979
	LUMO: -0.146484 at state 2 ( [ +0.000000 +0.500000 +0.000000 ] spin 1 )
	eMax: +0.169294 at state 26 ( [ +0.500000 +0.500000 +0.000000 ] spin 1 )
	HOMO-LUMO gap: +0.001001
	Optical gap  : +0.001541 at state 10 ( [ +0.166667 +0.500000 +0.000000 ] spin 1 )
Dumping 'jdft.kPts' ... done
Dumping 'jdft.dosUp' ... done.
Dumping 'jdft.dosDn' ... done.
End date and time: Mon Dec  6 22:23:23 2021  (Duration: 0-5:13:24.78)
Done!
