
*************** JDFTx 1.7.0 (git hash 5f12716a) ***************

Start date and time: Fri Sep  9 01:10:37 2022
Executable /home/nisi6161/jdftx_alpine/build/jdftx with command-line: -i in
Running on hosts (process indices):  c3cpu-a2-u13-4.rc.int.colorado.edu (0-23)
Divided in process groups (process indices):  0 (0)  1 (1)  2 (2)  3 (3)  4 (4)  5 (5)  6 (6)  7 (7)  8 (8)  9 (9)  10 (10)  11 (11)  12 (12)  13 (13)  14 (14)  15 (15)  16 (16)  17 (17)  18 (18)  19 (19)  20 (20)  21 (21)  22 (22)  23 (23)
Resource initialization completed at t[s]:      0.00
Run totals: 24 processes, 64 threads, 0 GPUs


Input parsed successfully to the following command list (including defaults):

basis kpoint-dependent
converge-empty-states yes
coords-type Cartesian
core-overlap-check none
coulomb-interaction Periodic
davidson-band-ratio 1.1
density-of-states Etol 1.000000e-06 Esigma 1.000000e-03 \
		Complete \
	Total \
	OrthoOrbital Cu 1   s \
	OrthoOrbital Cu 1   p \
	OrthoOrbital Cu 1   px \
	OrthoOrbital Cu 1   py \
	OrthoOrbital Cu 1   pz \
	OrthoOrbital Cu 1   d \
	OrthoOrbital Cu 1   dxy \
	OrthoOrbital Cu 1   dyz \
	OrthoOrbital Cu 1   dz2 \
	OrthoOrbital Cu 1   dxz \
	OrthoOrbital Cu 1   dx2-y2 \
	OrthoOrbital Cu 2   s \
	OrthoOrbital Cu 2   p \
	OrthoOrbital Cu 2   px \
	OrthoOrbital Cu 2   py \
	OrthoOrbital Cu 2   pz \
	OrthoOrbital Cu 2   d \
	OrthoOrbital Cu 2   dxy \
	OrthoOrbital Cu 2   dyz \
	OrthoOrbital Cu 2   dz2 \
	OrthoOrbital Cu 2   dxz \
	OrthoOrbital Cu 2   dx2-y2 \
	OrthoOrbital Cu 3   s \
	OrthoOrbital Cu 3   p \
	OrthoOrbital Cu 3   px \
	OrthoOrbital Cu 3   py \
	OrthoOrbital Cu 3   pz \
	OrthoOrbital Cu 3   d \
	OrthoOrbital Cu 3   dxy \
	OrthoOrbital Cu 3   dyz \
	OrthoOrbital Cu 3   dz2 \
	OrthoOrbital Cu 3   dxz \
	OrthoOrbital Cu 3   dx2-y2 \
	OrthoOrbital Cu 4   s \
	OrthoOrbital Cu 4   p \
	OrthoOrbital Cu 4   px \
	OrthoOrbital Cu 4   py \
	OrthoOrbital Cu 4   pz \
	OrthoOrbital Cu 4   d \
	OrthoOrbital Cu 4   dxy \
	OrthoOrbital Cu 4   dyz \
	OrthoOrbital Cu 4   dz2 \
	OrthoOrbital Cu 4   dxz \
	OrthoOrbital Cu 4   dx2-y2 \
	OrthoOrbital Cu 5   s \
	OrthoOrbital Cu 5   p \
	OrthoOrbital Cu 5   px \
	OrthoOrbital Cu 5   py \
	OrthoOrbital Cu 5   pz \
	OrthoOrbital Cu 5   d \
	OrthoOrbital Cu 5   dxy \
	OrthoOrbital Cu 5   dyz \
	OrthoOrbital Cu 5   dz2 \
	OrthoOrbital Cu 5   dxz \
	OrthoOrbital Cu 5   dx2-y2 \
	OrthoOrbital Cu 6   s \
	OrthoOrbital Cu 6   p \
	OrthoOrbital Cu 6   px \
	OrthoOrbital Cu 6   py \
	OrthoOrbital Cu 6   pz \
	OrthoOrbital Cu 6   d \
	OrthoOrbital Cu 6   dxy \
	OrthoOrbital Cu 6   dyz \
	OrthoOrbital Cu 6   dz2 \
	OrthoOrbital Cu 6   dxz \
	OrthoOrbital Cu 6   dx2-y2 \
	OrthoOrbital Cu 7   s \
	OrthoOrbital Cu 7   p \
	OrthoOrbital Cu 7   px \
	OrthoOrbital Cu 7   py \
	OrthoOrbital Cu 7   pz \
	OrthoOrbital Cu 7   d \
	OrthoOrbital Cu 7   dxy \
	OrthoOrbital Cu 7   dyz \
	OrthoOrbital Cu 7   dz2 \
	OrthoOrbital Cu 7   dxz \
	OrthoOrbital Cu 7   dx2-y2 \
	OrthoOrbital Cu 8   s \
	OrthoOrbital Cu 8   p \
	OrthoOrbital Cu 8   px \
	OrthoOrbital Cu 8   py \
	OrthoOrbital Cu 8   pz \
	OrthoOrbital Cu 8   d \
	OrthoOrbital Cu 8   dxy \
	OrthoOrbital Cu 8   dyz \
	OrthoOrbital Cu 8   dz2 \
	OrthoOrbital Cu 8   dxz \
	OrthoOrbital Cu 8   dx2-y2 \
	OrthoOrbital Cu 9   s \
	OrthoOrbital Cu 9   p \
	OrthoOrbital Cu 9   px \
	OrthoOrbital Cu 9   py \
	OrthoOrbital Cu 9   pz \
	OrthoOrbital Cu 9   d \
	OrthoOrbital Cu 9   dxy \
	OrthoOrbital Cu 9   dyz \
	OrthoOrbital Cu 9   dz2 \
	OrthoOrbital Cu 9   dxz \
	OrthoOrbital Cu 9   dx2-y2 \
	OrthoOrbital Cu 10   s \
	OrthoOrbital Cu 10   p \
	OrthoOrbital Cu 10   px \
	OrthoOrbital Cu 10   py \
	OrthoOrbital Cu 10   pz \
	OrthoOrbital Cu 10   d \
	OrthoOrbital Cu 10   dxy \
	OrthoOrbital Cu 10   dyz \
	OrthoOrbital Cu 10   dz2 \
	OrthoOrbital Cu 10   dxz \
	OrthoOrbital Cu 10   dx2-y2 \
	OrthoOrbital Cu 11   s \
	OrthoOrbital Cu 11   p \
	OrthoOrbital Cu 11   px \
	OrthoOrbital Cu 11   py \
	OrthoOrbital Cu 11   pz \
	OrthoOrbital Cu 11   d \
	OrthoOrbital Cu 11   dxy \
	OrthoOrbital Cu 11   dyz \
	OrthoOrbital Cu 11   dz2 \
	OrthoOrbital Cu 11   dxz \
	OrthoOrbital Cu 11   dx2-y2 \
	OrthoOrbital Cu 12   s \
	OrthoOrbital Cu 12   p \
	OrthoOrbital Cu 12   px \
	OrthoOrbital Cu 12   py \
	OrthoOrbital Cu 12   pz \
	OrthoOrbital Cu 12   d \
	OrthoOrbital Cu 12   dxy \
	OrthoOrbital Cu 12   dyz \
	OrthoOrbital Cu 12   dz2 \
	OrthoOrbital Cu 12   dxz \
	OrthoOrbital Cu 12   dx2-y2 \
	OrthoOrbital Cu 13   s \
	OrthoOrbital Cu 13   p \
	OrthoOrbital Cu 13   px \
	OrthoOrbital Cu 13   py \
	OrthoOrbital Cu 13   pz \
	OrthoOrbital Cu 13   d \
	OrthoOrbital Cu 13   dxy \
	OrthoOrbital Cu 13   dyz \
	OrthoOrbital Cu 13   dz2 \
	OrthoOrbital Cu 13   dxz \
	OrthoOrbital Cu 13   dx2-y2 \
	OrthoOrbital Cu 14   s \
	OrthoOrbital Cu 14   p \
	OrthoOrbital Cu 14   px \
	OrthoOrbital Cu 14   py \
	OrthoOrbital Cu 14   pz \
	OrthoOrbital Cu 14   d \
	OrthoOrbital Cu 14   dxy \
	OrthoOrbital Cu 14   dyz \
	OrthoOrbital Cu 14   dz2 \
	OrthoOrbital Cu 14   dxz \
	OrthoOrbital Cu 14   dx2-y2 \
	OrthoOrbital Cu 15   s \
	OrthoOrbital Cu 15   p \
	OrthoOrbital Cu 15   px \
	OrthoOrbital Cu 15   py \
	OrthoOrbital Cu 15   pz \
	OrthoOrbital Cu 15   d \
	OrthoOrbital Cu 15   dxy \
	OrthoOrbital Cu 15   dyz \
	OrthoOrbital Cu 15   dz2 \
	OrthoOrbital Cu 15   dxz \
	OrthoOrbital Cu 15   dx2-y2 \
	OrthoOrbital Cu 16   s \
	OrthoOrbital Cu 16   p \
	OrthoOrbital Cu 16   px \
	OrthoOrbital Cu 16   py \
	OrthoOrbital Cu 16   pz \
	OrthoOrbital Cu 16   d \
	OrthoOrbital Cu 16   dxy \
	OrthoOrbital Cu 16   dyz \
	OrthoOrbital Cu 16   dz2 \
	OrthoOrbital Cu 16   dxz \
	OrthoOrbital Cu 16   dx2-y2 \
	OrthoOrbital Cu 17   s \
	OrthoOrbital Cu 17   p \
	OrthoOrbital Cu 17   px \
	OrthoOrbital Cu 17   py \
	OrthoOrbital Cu 17   pz \
	OrthoOrbital Cu 17   d \
	OrthoOrbital Cu 17   dxy \
	OrthoOrbital Cu 17   dyz \
	OrthoOrbital Cu 17   dz2 \
	OrthoOrbital Cu 17   dxz \
	OrthoOrbital Cu 17   dx2-y2 \
	OrthoOrbital Cu 18   s \
	OrthoOrbital Cu 18   p \
	OrthoOrbital Cu 18   px \
	OrthoOrbital Cu 18   py \
	OrthoOrbital Cu 18   pz \
	OrthoOrbital Cu 18   d \
	OrthoOrbital Cu 18   dxy \
	OrthoOrbital Cu 18   dyz \
	OrthoOrbital Cu 18   dz2 \
	OrthoOrbital Cu 18   dxz \
	OrthoOrbital Cu 18   dx2-y2 \
	OrthoOrbital Cu 19   s \
	OrthoOrbital Cu 19   p \
	OrthoOrbital Cu 19   px \
	OrthoOrbital Cu 19   py \
	OrthoOrbital Cu 19   pz \
	OrthoOrbital Cu 19   d \
	OrthoOrbital Cu 19   dxy \
	OrthoOrbital Cu 19   dyz \
	OrthoOrbital Cu 19   dz2 \
	OrthoOrbital Cu 19   dxz \
	OrthoOrbital Cu 19   dx2-y2 \
	OrthoOrbital Cu 20   s \
	OrthoOrbital Cu 20   p \
	OrthoOrbital Cu 20   px \
	OrthoOrbital Cu 20   py \
	OrthoOrbital Cu 20   pz \
	OrthoOrbital Cu 20   d \
	OrthoOrbital Cu 20   dxy \
	OrthoOrbital Cu 20   dyz \
	OrthoOrbital Cu 20   dz2 \
	OrthoOrbital Cu 20   dxz \
	OrthoOrbital Cu 20   dx2-y2 \
	OrthoOrbital Cu 21   s \
	OrthoOrbital Cu 21   p \
	OrthoOrbital Cu 21   px \
	OrthoOrbital Cu 21   py \
	OrthoOrbital Cu 21   pz \
	OrthoOrbital Cu 21   d \
	OrthoOrbital Cu 21   dxy \
	OrthoOrbital Cu 21   dyz \
	OrthoOrbital Cu 21   dz2 \
	OrthoOrbital Cu 21   dxz \
	OrthoOrbital Cu 21   dx2-y2 \
	OrthoOrbital Cu 22   s \
	OrthoOrbital Cu 22   p \
	OrthoOrbital Cu 22   px \
	OrthoOrbital Cu 22   py \
	OrthoOrbital Cu 22   pz \
	OrthoOrbital Cu 22   d \
	OrthoOrbital Cu 22   dxy \
	OrthoOrbital Cu 22   dyz \
	OrthoOrbital Cu 22   dz2 \
	OrthoOrbital Cu 22   dxz \
	OrthoOrbital Cu 22   dx2-y2 \
	OrthoOrbital Cu 23   s \
	OrthoOrbital Cu 23   p \
	OrthoOrbital Cu 23   px \
	OrthoOrbital Cu 23   py \
	OrthoOrbital Cu 23   pz \
	OrthoOrbital Cu 23   d \
	OrthoOrbital Cu 23   dxy \
	OrthoOrbital Cu 23   dyz \
	OrthoOrbital Cu 23   dz2 \
	OrthoOrbital Cu 23   dxz \
	OrthoOrbital Cu 23   dx2-y2 \
	OrthoOrbital Cu 24   s \
	OrthoOrbital Cu 24   p \
	OrthoOrbital Cu 24   px \
	OrthoOrbital Cu 24   py \
	OrthoOrbital Cu 24   pz \
	OrthoOrbital Cu 24   d \
	OrthoOrbital Cu 24   dxy \
	OrthoOrbital Cu 24   dyz \
	OrthoOrbital Cu 24   dz2 \
	OrthoOrbital Cu 24   dxz \
	OrthoOrbital Cu 24   dx2-y2 \
	OrthoOrbital Cu 25   s \
	OrthoOrbital Cu 25   p \
	OrthoOrbital Cu 25   px \
	OrthoOrbital Cu 25   py \
	OrthoOrbital Cu 25   pz \
	OrthoOrbital Cu 25   d \
	OrthoOrbital Cu 25   dxy \
	OrthoOrbital Cu 25   dyz \
	OrthoOrbital Cu 25   dz2 \
	OrthoOrbital Cu 25   dxz \
	OrthoOrbital Cu 25   dx2-y2 \
	OrthoOrbital Cu 26   s \
	OrthoOrbital Cu 26   p \
	OrthoOrbital Cu 26   px \
	OrthoOrbital Cu 26   py \
	OrthoOrbital Cu 26   pz \
	OrthoOrbital Cu 26   d \
	OrthoOrbital Cu 26   dxy \
	OrthoOrbital Cu 26   dyz \
	OrthoOrbital Cu 26   dz2 \
	OrthoOrbital Cu 26   dxz \
	OrthoOrbital Cu 26   dx2-y2 \
	OrthoOrbital Cu 27   s \
	OrthoOrbital Cu 27   p \
	OrthoOrbital Cu 27   px \
	OrthoOrbital Cu 27   py \
	OrthoOrbital Cu 27   pz \
	OrthoOrbital Cu 27   d \
	OrthoOrbital Cu 27   dxy \
	OrthoOrbital Cu 27   dyz \
	OrthoOrbital Cu 27   dz2 \
	OrthoOrbital Cu 27   dxz \
	OrthoOrbital Cu 27   dx2-y2 \
	OrthoOrbital Cu 28   s \
	OrthoOrbital Cu 28   p \
	OrthoOrbital Cu 28   px \
	OrthoOrbital Cu 28   py \
	OrthoOrbital Cu 28   pz \
	OrthoOrbital Cu 28   d \
	OrthoOrbital Cu 28   dxy \
	OrthoOrbital Cu 28   dyz \
	OrthoOrbital Cu 28   dz2 \
	OrthoOrbital Cu 28   dxz \
	OrthoOrbital Cu 28   dx2-y2 \
	OrthoOrbital Cu 29   s \
	OrthoOrbital Cu 29   p \
	OrthoOrbital Cu 29   px \
	OrthoOrbital Cu 29   py \
	OrthoOrbital Cu 29   pz \
	OrthoOrbital Cu 29   d \
	OrthoOrbital Cu 29   dxy \
	OrthoOrbital Cu 29   dyz \
	OrthoOrbital Cu 29   dz2 \
	OrthoOrbital Cu 29   dxz \
	OrthoOrbital Cu 29   dx2-y2 \
	OrthoOrbital Cu 30   s \
	OrthoOrbital Cu 30   p \
	OrthoOrbital Cu 30   px \
	OrthoOrbital Cu 30   py \
	OrthoOrbital Cu 30   pz \
	OrthoOrbital Cu 30   d \
	OrthoOrbital Cu 30   dxy \
	OrthoOrbital Cu 30   dyz \
	OrthoOrbital Cu 30   dz2 \
	OrthoOrbital Cu 30   dxz \
	OrthoOrbital Cu 30   dx2-y2 \
	OrthoOrbital Cu 31   s \
	OrthoOrbital Cu 31   p \
	OrthoOrbital Cu 31   px \
	OrthoOrbital Cu 31   py \
	OrthoOrbital Cu 31   pz \
	OrthoOrbital Cu 31   d \
	OrthoOrbital Cu 31   dxy \
	OrthoOrbital Cu 31   dyz \
	OrthoOrbital Cu 31   dz2 \
	OrthoOrbital Cu 31   dxz \
	OrthoOrbital Cu 31   dx2-y2 \
	OrthoOrbital Cu 32   s \
	OrthoOrbital Cu 32   p \
	OrthoOrbital Cu 32   px \
	OrthoOrbital Cu 32   py \
	OrthoOrbital Cu 32   pz \
	OrthoOrbital Cu 32   d \
	OrthoOrbital Cu 32   dxy \
	OrthoOrbital Cu 32   dyz \
	OrthoOrbital Cu 32   dz2 \
	OrthoOrbital Cu 32   dxz \
	OrthoOrbital Cu 32   dx2-y2 \
	OrthoOrbital Cu 33   s \
	OrthoOrbital Cu 33   p \
	OrthoOrbital Cu 33   px \
	OrthoOrbital Cu 33   py \
	OrthoOrbital Cu 33   pz \
	OrthoOrbital Cu 33   d \
	OrthoOrbital Cu 33   dxy \
	OrthoOrbital Cu 33   dyz \
	OrthoOrbital Cu 33   dz2 \
	OrthoOrbital Cu 33   dxz \
	OrthoOrbital Cu 33   dx2-y2 \
	OrthoOrbital Cu 34   s \
	OrthoOrbital Cu 34   p \
	OrthoOrbital Cu 34   px \
	OrthoOrbital Cu 34   py \
	OrthoOrbital Cu 34   pz \
	OrthoOrbital Cu 34   d \
	OrthoOrbital Cu 34   dxy \
	OrthoOrbital Cu 34   dyz \
	OrthoOrbital Cu 34   dz2 \
	OrthoOrbital Cu 34   dxz \
	OrthoOrbital Cu 34   dx2-y2 \
	OrthoOrbital Cu 35   s \
	OrthoOrbital Cu 35   p \
	OrthoOrbital Cu 35   px \
	OrthoOrbital Cu 35   py \
	OrthoOrbital Cu 35   pz \
	OrthoOrbital Cu 35   d \
	OrthoOrbital Cu 35   dxy \
	OrthoOrbital Cu 35   dyz \
	OrthoOrbital Cu 35   dz2 \
	OrthoOrbital Cu 35   dxz \
	OrthoOrbital Cu 35   dx2-y2 \
	OrthoOrbital Cu 36   s \
	OrthoOrbital Cu 36   p \
	OrthoOrbital Cu 36   px \
	OrthoOrbital Cu 36   py \
	OrthoOrbital Cu 36   pz \
	OrthoOrbital Cu 36   d \
	OrthoOrbital Cu 36   dxy \
	OrthoOrbital Cu 36   dyz \
	OrthoOrbital Cu 36   dz2 \
	OrthoOrbital Cu 36   dxz \
	OrthoOrbital Cu 36   dx2-y2 \
	OrthoOrbital Cu 37   s \
	OrthoOrbital Cu 37   p \
	OrthoOrbital Cu 37   px \
	OrthoOrbital Cu 37   py \
	OrthoOrbital Cu 37   pz \
	OrthoOrbital Cu 37   d \
	OrthoOrbital Cu 37   dxy \
	OrthoOrbital Cu 37   dyz \
	OrthoOrbital Cu 37   dz2 \
	OrthoOrbital Cu 37   dxz \
	OrthoOrbital Cu 37   dx2-y2 \
	OrthoOrbital Cu 38   s \
	OrthoOrbital Cu 38   p \
	OrthoOrbital Cu 38   px \
	OrthoOrbital Cu 38   py \
	OrthoOrbital Cu 38   pz \
	OrthoOrbital Cu 38   d \
	OrthoOrbital Cu 38   dxy \
	OrthoOrbital Cu 38   dyz \
	OrthoOrbital Cu 38   dz2 \
	OrthoOrbital Cu 38   dxz \
	OrthoOrbital Cu 38   dx2-y2 \
	OrthoOrbital Cu 39   s \
	OrthoOrbital Cu 39   p \
	OrthoOrbital Cu 39   px \
	OrthoOrbital Cu 39   py \
	OrthoOrbital Cu 39   pz \
	OrthoOrbital Cu 39   d \
	OrthoOrbital Cu 39   dxy \
	OrthoOrbital Cu 39   dyz \
	OrthoOrbital Cu 39   dz2 \
	OrthoOrbital Cu 39   dxz \
	OrthoOrbital Cu 39   dx2-y2 \
	OrthoOrbital Cu 40   s \
	OrthoOrbital Cu 40   p \
	OrthoOrbital Cu 40   px \
	OrthoOrbital Cu 40   py \
	OrthoOrbital Cu 40   pz \
	OrthoOrbital Cu 40   d \
	OrthoOrbital Cu 40   dxy \
	OrthoOrbital Cu 40   dyz \
	OrthoOrbital Cu 40   dz2 \
	OrthoOrbital Cu 40   dxz \
	OrthoOrbital Cu 40   dx2-y2 \
	OrthoOrbital Cu 41   s \
	OrthoOrbital Cu 41   p \
	OrthoOrbital Cu 41   px \
	OrthoOrbital Cu 41   py \
	OrthoOrbital Cu 41   pz \
	OrthoOrbital Cu 41   d \
	OrthoOrbital Cu 41   dxy \
	OrthoOrbital Cu 41   dyz \
	OrthoOrbital Cu 41   dz2 \
	OrthoOrbital Cu 41   dxz \
	OrthoOrbital Cu 41   dx2-y2 \
	OrthoOrbital Cu 42   s \
	OrthoOrbital Cu 42   p \
	OrthoOrbital Cu 42   px \
	OrthoOrbital Cu 42   py \
	OrthoOrbital Cu 42   pz \
	OrthoOrbital Cu 42   d \
	OrthoOrbital Cu 42   dxy \
	OrthoOrbital Cu 42   dyz \
	OrthoOrbital Cu 42   dz2 \
	OrthoOrbital Cu 42   dxz \
	OrthoOrbital Cu 42   dx2-y2 \
	OrthoOrbital Cu 43   s \
	OrthoOrbital Cu 43   p \
	OrthoOrbital Cu 43   px \
	OrthoOrbital Cu 43   py \
	OrthoOrbital Cu 43   pz \
	OrthoOrbital Cu 43   d \
	OrthoOrbital Cu 43   dxy \
	OrthoOrbital Cu 43   dyz \
	OrthoOrbital Cu 43   dz2 \
	OrthoOrbital Cu 43   dxz \
	OrthoOrbital Cu 43   dx2-y2 \
	OrthoOrbital Cu 44   s \
	OrthoOrbital Cu 44   p \
	OrthoOrbital Cu 44   px \
	OrthoOrbital Cu 44   py \
	OrthoOrbital Cu 44   pz \
	OrthoOrbital Cu 44   d \
	OrthoOrbital Cu 44   dxy \
	OrthoOrbital Cu 44   dyz \
	OrthoOrbital Cu 44   dz2 \
	OrthoOrbital Cu 44   dxz \
	OrthoOrbital Cu 44   dx2-y2
dump End ElecDensity KEdensity BandEigs EigStats RhoAtom DOS Kpoints
dump Ionic State IonicPositions Lattice EigStats Ecomponents
dump 
dump 
dump 
dump 
dump 
dump 
dump 
dump 
dump-name jdft.$VAR
elec-cutoff 20
elec-eigen-algo Davidson
elec-ex-corr gga-PBE
elec-initial-magnetization 0.000000 no
elec-n-bands 502
elec-smearing Fermi 0.001
electronic-minimize  \
	dirUpdateScheme      FletcherReeves \
	linminMethod         DirUpdateRecommended \
	nIterations          100 \
	history              15 \
	knormThreshold       0 \
	energyDiffThreshold  1e-07 \
	nEnergyDiff          2 \
	alphaTstart          1 \
	alphaTmin            1e-10 \
	updateTestStepSize   yes \
	alphaTreduceFactor   0.1 \
	alphaTincreaseFactor 3 \
	nAlphaAdjustMax      3 \
	wolfeEnergy          0.0001 \
	wolfeGradient        0.9 \
	fdTest               no
exchange-regularization WignerSeitzTruncated
fluid LinearPCM 298.000000 1.013250
fluid-anion F- 0.5 MeanFieldLJ \
	epsBulk 1 \
	pMol 0 \
	epsInf 1 \
	Pvap 0 \
	sigmaBulk 0 \
	Rvdw 2.24877 \
	Res 0 \
	tauNuc 343133
fluid-cation Na+ 0.5 MeanFieldLJ \
	epsBulk 1 \
	pMol 0 \
	epsInf 1 \
	Pvap 0 \
	sigmaBulk 0 \
	Rvdw 2.19208 \
	Res 0 \
	tauNuc 343133
fluid-ex-corr lda-TF lda-PZ
fluid-gummel-loop 10 1.000000e-05
fluid-minimize  \
	dirUpdateScheme      PolakRibiere \
	linminMethod         DirUpdateRecommended \
	nIterations          400 \
	history              15 \
	knormThreshold       1e-11 \
	energyDiffThreshold  0 \
	nEnergyDiff          2 \
	alphaTstart          1 \
	alphaTmin            1e-10 \
	updateTestStepSize   yes \
	alphaTreduceFactor   0.1 \
	alphaTincreaseFactor 3 \
	nAlphaAdjustMax      6 \
	wolfeEnergy          0.0001 \
	wolfeGradient        0.9 \
	fdTest               no
fluid-solvent H2O 55.338 ScalarEOS \
	epsBulk 78.4 \
	pMol 0.92466 \
	epsInf 1.77 \
	Pvap 1.06736e-10 \
	sigmaBulk 4.62e-05 \
	Rvdw 2.61727 \
	Res 1.42 \
	tauNuc 343133 \
	poleEl 15 7 1
forces-output-coords Positions
initial-state jdft.$VAR
ion Cu   0.000105000000000  14.180410999999999  62.163095000000006 1
ion Cu   0.000124000000000  20.445616000000001  59.362038000000005 1
ion Cu   0.000005000000000   6.117556000000000  60.783087000000009 1
ion Cu  -0.000029000000000  12.195517000000002  57.833804000000008 1
ion Cu   0.000010000000000  18.332256000000001  54.971155000000010 1
ion Cu  -0.000014000000000  16.264862999999998  50.660392000000009 1
ion Cu  -0.000224000000000  22.424362000000002  32.116569000000005 1
ion Cu   0.000000000000000   4.059755000000000  56.451329000000008 1
ion Cu   4.766664999999999  10.163449000000000  53.539040000000007 1
ion Cu   0.000095000000000   2.035422000000000  52.115019000000004 1
ion Cu   0.000010000000000   8.128183999999999  49.229985000000006 1
ion Cu   0.000029000000000  14.227519000000001  46.342674000000009 1
ion Cu  -0.000033000000000  20.317352000000000  43.477748000000005 1
ion Cu  -0.000043000000000  12.202000999999999  42.016607999999998 1
ion Cu  -0.000033000000000  18.276474000000000  39.140363000000008 1
ion Cu   0.000019000000000  22.360308000000000  47.790092000000008 1
ion Cu   0.000100000000000   6.097658000000001  44.914669000000011 1
ion Cu  -0.000048000000000   4.046116000000000  40.598784999999999 1
ion Cu   0.000000000000000  10.163986000000000  37.718113000000010 1
ion Cu   0.000005000000000  16.212502000000001  34.740248000000008 1
ion Cu  -0.000043000000000   1.998890000000000  36.332351000000010 1
ion Cu  -0.000153000000000   8.138401000000000  33.385091000000010 1
ion Cu   2.383364000000000  16.295179999999998  58.521436000000008 1
ion Cu   2.383354000000000  22.373186000000000  55.714372000000004 1
ion Cu   2.383335000000000   8.128631000000000  57.137128000000004 1
ion Cu   2.383306000000000  14.245806999999999  54.255761000000007 1
ion Cu   2.383364000000000  20.331727000000001  51.375912000000007 1
ion Cu   2.383292000000000  18.288592000000001  47.063379000000005 1
ion Cu   2.383340000000000   2.081679000000000  60.115689000000010 1
ion Cu   2.383397000000000   6.089855000000000  52.837748000000005 1
ion Cu   2.383283000000000  12.193684000000001  49.939497000000010 1
ion Cu   2.383335000000000   4.063846000000000  48.511050000000004 1
ion Cu   2.383388000000000  10.164075000000000  45.623992000000001 1
ion Cu   2.383273000000000  16.257104999999999  42.739147000000010 1
ion Cu   2.383259000000000  -0.038388000000000  39.883012000000008 1
ion Cu   2.383273000000000  14.231788999999999  38.403786000000004 1
ion Cu   2.383259000000000  20.206302000000001  35.494342000000010 1
ion Cu   2.383373000000000   2.027507000000000  44.193711000000008 1
ion Cu   2.383216000000000   8.129189999999999  41.315759000000007 1
ion Cu   2.383316000000000   6.096317000000000  37.021248000000007 1
ion Cu   2.383235000000000  12.174903999999998  34.072534000000005 1
ion Cu   2.383454000000000  18.223576999999999  62.738166000000007 1
ion Cu   2.383140000000000   4.112988000000000  32.690882000000002 1
ion Cu   2.383359000000000  10.155154000000000  61.470846000000009 1
ion-species /projects/musgravc/apps/jdftx-1.6.0/build/pseudopotentials/GBRV_v1.5/$ID_pbe_v1.uspp
ion-species /projects/musgravc/apps/jdftx-1.6.0/build/pseudopotentials/GBRV_v1.5/$ID_pbe_v1.2.uspp
ion-species /projects/musgravc/apps/jdftx-1.6.0/build/pseudopotentials/GBRV_v1.5/$ID_pbe_v1.4.uspp
ion-species /projects/musgravc/apps/jdftx-1.6.0/build/pseudopotentials/GBRV_v1.5/$ID_pbe_v1.5.uspp
ion-width Ecut
ionic-minimize  \
	dirUpdateScheme      L-BFGS \
	linminMethod         DirUpdateRecommended \
	nIterations          100 \
	history              15 \
	knormThreshold       0.0001 \
	energyDiffThreshold  0.0001 \
	nEnergyDiff          2 \
	alphaTstart          1 \
	alphaTmin            1e-10 \
	updateTestStepSize   yes \
	alphaTreduceFactor   0.1 \
	alphaTincreaseFactor 3 \
	nAlphaAdjustMax      3 \
	wolfeEnergy          0.0001 \
	wolfeGradient        0.9 \
	fdTest               no
kpoint   0.000000000000   0.000000000000   0.000000000000  1.00000000000000
kpoint-folding 11 2 1 
latt-move-scale 0 0 0
latt-scale 1 1 1 
lattice  \
	   4.766623000000000    0.000000000000000    0.000000000000000  \
	   0.000000000000000   22.357445999999999    0.000000000000000  \
	   0.000000000000000    0.000000000000000   63.236406000000002 
lattice-minimize  \
	dirUpdateScheme      L-BFGS \
	linminMethod         DirUpdateRecommended \
	nIterations          0 \
	history              15 \
	knormThreshold       0 \
	energyDiffThreshold  1e-06 \
	nEnergyDiff          2 \
	alphaTstart          1 \
	alphaTmin            1e-10 \
	updateTestStepSize   yes \
	alphaTreduceFactor   0.1 \
	alphaTincreaseFactor 3 \
	nAlphaAdjustMax      3 \
	wolfeEnergy          0.0001 \
	wolfeGradient        0.9 \
	fdTest               no
lcao-params 30 1e-06 0.001
pcm-variant CANDLE
spintype z-spin
subspace-rotation-factor 1 yes
symmetries automatic
symmetry-threshold 0.0001
target-mu -0.24475 no

van-der-waals D3



---------- Setting up symmetries ----------

Found 8 point-group symmetries of the bravais lattice
Found 1 space-group symmetries with basis
Applied RMS atom displacement 0 bohrs to make symmetries exact.

---------- Initializing the Grid ----------
R = 
[      4.76662            0            0  ]
[            0      22.3574            0  ]
[            0            0      63.2364  ]
unit cell volume = 6739.07
G =
[    1.31816          0          0  ]
[          0   0.281033          0  ]
[          0          0  0.0993603  ]
Minimum fftbox size, Smin = [  20  92  256  ]
Chosen fftbox size, S = [  20  96  256  ]

---------- Exchange Correlation functional ----------
Initalized PBE GGA exchange.
Initalized PBE GGA correlation.

---------- Setting up pseudopotentials ----------
Width of ionic core gaussian charges (only for fluid interactions / plotting) set to 0.397384

Reading pseudopotential file '/projects/musgravc/apps/jdftx-1.6.0/build/pseudopotentials/GBRV_v1.5/cu_pbe_v1.2.uspp':
  Title: Cu.  Created by USPP 7.3.6 on 3-2-2014
  Reference state energy: -201.059491.  19 valence electrons in orbitals:
    |300>  occupation: 2  eigenvalue: -5.020764
    |310>  occupation: 6  eigenvalue: -3.445588
    |320>  occupation: 8  eigenvalue: -0.925168
    |400>  occupation: 2  eigenvalue: -0.567638
    |410>  occupation: 0  eigenvalue: -0.326154
  lMax: 2  lLocal: 3  QijEcut: 6
  6 projectors sampled on a log grid with 613 points:
    l: 0  eig: -5.020767  rCut: 1.4
    l: 0  eig: -0.567640  rCut: 1.4
    l: 1  eig: -3.445589  rCut: 1.55
    l: 1  eig: -0.326157  rCut: 1.55
    l: 2  eig: -0.925170  rCut: 1.5
    l: 2  eig: 1.500000  rCut: 1.5
  Partial core density with radius 0.8
  Transforming core density to a uniform radial grid of dG=0.02 with 1143 points.
  Transforming local potential to a uniform radial grid of dG=0.02 with 1143 points.
  Transforming nonlocal projectors to a uniform radial grid of dG=0.02 with 432 points.
  Transforming density augmentations to a uniform radial grid of dG=0.02 with 1143 points.
  Transforming atomic orbitals to a uniform radial grid of dG=0.02 with 432 points.
  Core radius for overlap checks: 1.55 bohrs.

Initialized 1 species with 44 total atoms.

Folded 1 k-points by 11x2x1 to 22 k-points.

---------- Setting up k-points, bands, fillings ----------
Adding inversion symmetry to k-mesh for non-inversion-symmetric unit cell.
Reduced to 12 k-points under symmetry. 
Computing the number of bands and number of electrons
Calculating initial fillings.
nElectrons: 836.000000   nBands: 502   nStates: 24

----- Setting up reduced wavefunction bases (one per k-point) -----
average nbasis = 28786.227 , ideal nbasis = 28789.834

----- Initializing Supercell corresponding to k-point mesh -----
Lattice vector linear combinations in supercell:
[  11   0   0  ]
[   0   2   0  ]
[   0   0   1  ]
Supercell lattice vectors:
[  52.4329  0  0  ]
[  0  44.7149  0  ]
[  0  0  63.2364  ]

Initializing DFT-D3 calculator:
	Parameters set for gga-PBE functional
	s6:  1.000  s_r6:  1.217
	s8:  0.722  s_r8:  1.000
	Per-atom parameters loaded for:
	Cu:  sqrtQ[a0]:  5.226  Rcov[a0]:  1.909  CN: [ 0.00 0.96 ]

Initializing DFT-D2 calculator for fluid / solvation:
	Cu:  C6:  187.33 Eh-a0^6  R0: 2.952 a0

---------- Setting up ewald sum ----------
Optimum gaussian width for ewald sums = 4.010526 bohr.
Real space sum over 665 unit cells with max indices [  9  3  2  ]
Reciprocal space sum over 7497 terms with max indices [  3  10  25  ]

Computing DFT-D3 correction:
# coordination-number Cu 6.827 8.313 6.850 9.084 9.122 9.142 5.563 9.077 9.133 9.143 9.128 9.141 9.162 9.128 9.111 9.154 9.134 9.143 9.100 6.855 9.029 6.856 9.025 9.110 9.097 9.140 9.162 9.155 6.856 9.125 9.133 9.140 9.129 9.145 9.124 9.079 8.317 9.145 9.134 9.086 6.850 5.566 6.824 6.855
# diagonal-C6 Cu 175.00 175.00 175.00 175.00 175.00 175.00 175.00 175.00 175.00 175.00 175.00 175.00 175.00 175.00 175.00 175.00 175.00 175.00 175.00 175.00 175.00 175.00 175.00 175.00 175.00 175.00 175.00 175.00 175.00 175.00 175.00 175.00 175.00 175.00 175.00 175.00 175.00 175.00 175.00 175.00 175.00 175.00 175.00 175.00
EvdW_6 =   -0.293548
EvdW_8 =   -0.421967

---------- Allocating electronic variables ----------
Initializing wave functions:  linear combination of atomic orbitals
Cu pseudo-atom occupations:   s ( 2 1 )  p ( 6 0 )  d ( 10 )
	FillingsUpdate:  mu: -0.244750000  nElectrons: 836.000000  magneticMoment: [ Abs: 0.34283  Tot: -0.00453 ]
LCAOMinimize: Iter:   0  G: -8492.8638200163622969  |grad|_K:  4.744e-02  alpha:  1.000e+00
LCAOMinimize: 	Step increased G by 4.906530e+03, reducing alpha to 3.721846e-02.
LCAOMinimize: 	Step increased G by 7.548186e+02, reducing alpha to 3.721846e-03.
	FillingsUpdate:  mu: -0.244750000  nElectrons: 836.000000  magneticMoment: [ Abs: 0.34916  Tot: -0.00965 ]
LCAOMinimize: Iter:   1  G: -8526.7803215808635287  |grad|_K:  1.455e-02  alpha:  3.722e-03  linmin:  3.614e-03  cgtest: -3.970e-02  t[s]:    390.99
LCAOMinimize: 	Predicted alpha/alphaT>3.000000, increasing alphaT to 1.116554e-02.
	FillingsUpdate:  mu: -0.244750000  nElectrons: 836.000000  magneticMoment: [ Abs: 0.38719  Tot: -0.05150 ]
LCAOMinimize: Iter:   2  G: -8544.0438118068996118  |grad|_K:  1.796e-02  alpha:  2.143e-02  linmin: -3.655e-04  cgtest:  1.487e-01  t[s]:    506.28
	FillingsUpdate:  mu: -0.244750000  nElectrons: 836.000000  magneticMoment: [ Abs: 0.28893  Tot: -0.04356 ]
LCAOMinimize: Iter:   3  G: -8563.1407559616745857  |grad|_K:  3.719e-02  alpha:  1.644e-02  linmin: -3.426e-03  cgtest: -2.365e-01  t[s]:    600.13
	FillingsUpdate:  mu: -0.244750000  nElectrons: 836.000000  magneticMoment: [ Abs: 0.01116  Tot: -0.00160 ]
LCAOMinimize: Iter:   4  G: -8657.5302653405033197  |grad|_K:  1.152e-02  alpha:  1.548e-02  linmin: -1.478e-02  cgtest:  3.244e-01  t[s]:    693.36
LCAOMinimize: Encountered beta<0, resetting CG.
	FillingsUpdate:  mu: -0.244750000  nElectrons: 836.000000  magneticMoment: [ Abs: 0.01051  Tot: -0.00071 ]
LCAOMinimize: Iter:   5  G: -8661.0427989016789070  |grad|_K:  8.306e-03  alpha:  7.984e-03  linmin:  4.746e-03  cgtest: -6.922e-02  t[s]:    787.81
	FillingsUpdate:  mu: -0.244750000  nElectrons: 836.000000  magneticMoment: [ Abs: 0.01019  Tot: -0.00057 ]
LCAOMinimize: Iter:   6  G: -8665.5571480390171928  |grad|_K:  3.344e-03  alpha:  1.564e-02  linmin: -6.082e-02  cgtest:  2.036e-01  t[s]:    880.08
	FillingsUpdate:  mu: -0.244750000  nElectrons: 836.000000  magneticMoment: [ Abs: 0.00985  Tot: -0.00024 ]
LCAOMinimize: Iter:   7  G: -8667.3188832250671112  |grad|_K:  2.689e-03  alpha:  3.472e-02  linmin: -1.305e-02  cgtest: -7.913e-02  t[s]:    972.93
	FillingsUpdate:  mu: -0.244750000  nElectrons: 836.000000  magneticMoment: [ Abs: 0.00983  Tot: -0.00017 ]
LCAOMinimize: Iter:   8  G: -8667.8263583590942289  |grad|_K:  2.170e-03  alpha:  1.314e-02  linmin: -2.395e-02  cgtest:  2.627e-01  t[s]:   1066.80
	FillingsUpdate:  mu: -0.244750000  nElectrons: 836.000000  magneticMoment: [ Abs: 0.00982  Tot: -0.00011 ]
LCAOMinimize: Iter:   9  G: -8668.2099098078633688  |grad|_K:  2.635e-03  alpha:  1.809e-02  linmin:  3.401e-03  cgtest: -1.728e-01  t[s]:   1159.68
	FillingsUpdate:  mu: -0.244750000  nElectrons: 836.000000  magneticMoment: [ Abs: 0.00995  Tot: -0.00014 ]
LCAOMinimize: Iter:  10  G: -8668.9186008435626718  |grad|_K:  3.668e-03  alpha:  2.819e-02  linmin:  1.013e-03  cgtest:  5.622e-01  t[s]:   1252.60
	FillingsUpdate:  mu: -0.244750000  nElectrons: 836.000000  magneticMoment: [ Abs: 0.00996  Tot: -0.00021 ]
LCAOMinimize: Iter:  11  G: -8669.8636537975344254  |grad|_K:  2.587e-03  alpha:  1.866e-02  linmin: -1.052e-05  cgtest: -1.698e-02  t[s]:   1345.81
	FillingsUpdate:  mu: -0.244750000  nElectrons: 836.000000  magneticMoment: [ Abs: 0.01000  Tot: -0.00016 ]
LCAOMinimize: Iter:  12  G: -8670.0852920941379125  |grad|_K:  1.676e-03  alpha:  9.002e-03  linmin:  2.030e-03  cgtest: -6.281e-02  t[s]:   1439.42
	FillingsUpdate:  mu: -0.244750000  nElectrons: 836.000000  magneticMoment: [ Abs: 0.01013  Tot: -0.00015 ]
LCAOMinimize: Iter:  13  G: -8670.3116146132051654  |grad|_K:  6.984e-04  alpha:  2.027e-02  linmin: -9.517e-03  cgtest:  2.108e-01  t[s]:   1531.41
	FillingsUpdate:  mu: -0.244750000  nElectrons: 836.000000  magneticMoment: [ Abs: 0.01011  Tot: -0.00012 ]
LCAOMinimize: Iter:  14  G: -8670.3343922663825651  |grad|_K:  6.140e-04  alpha:  1.180e-02  linmin:  8.043e-04  cgtest: -5.696e-02  t[s]:   1624.39
	FillingsUpdate:  mu: -0.244750000  nElectrons: 836.000000  magneticMoment: [ Abs: 0.01008  Tot: -0.00011 ]
LCAOMinimize: Iter:  15  G: -8670.3560800400882727  |grad|_K:  3.629e-04  alpha:  1.465e-02  linmin: -2.404e-03  cgtest:  1.029e-01  t[s]:   1716.09
	FillingsUpdate:  mu: -0.244750000  nElectrons: 836.000000  magneticMoment: [ Abs: 0.01007  Tot: -0.00012 ]
LCAOMinimize: Iter:  16  G: -8670.3664493952819612  |grad|_K:  2.589e-04  alpha:  1.974e-02  linmin:  3.719e-04  cgtest: -2.339e-02  t[s]:   1809.89
	FillingsUpdate:  mu: -0.244750000  nElectrons: 836.000000  magneticMoment: [ Abs: 0.01005  Tot: -0.00011 ]
LCAOMinimize: Iter:  17  G: -8670.3697817235952243  |grad|_K:  2.701e-04  alpha:  1.269e-02  linmin:  1.045e-04  cgtest:  4.457e-03  t[s]:   1901.25
	FillingsUpdate:  mu: -0.244750000  nElectrons: 836.000000  magneticMoment: [ Abs: 0.00995  Tot: -0.00008 ]
LCAOMinimize: Iter:  18  G: -8670.3806231097387354  |grad|_K:  2.021e-04  alpha:  3.690e-02  linmin: -4.055e-03  cgtest:  5.251e-04  t[s]:   1994.14
	FillingsUpdate:  mu: -0.244750000  nElectrons: 836.000000  magneticMoment: [ Abs: 0.00992  Tot: -0.00008 ]
LCAOMinimize: Iter:  19  G: -8670.3844349504179263  |grad|_K:  2.465e-04  alpha:  2.261e-02  linmin:  1.666e-05  cgtest: -4.327e-02  t[s]:   2086.07
	FillingsUpdate:  mu: -0.244750000  nElectrons: 836.000000  magneticMoment: [ Abs: 0.00990  Tot: -0.00006 ]
LCAOMinimize: Iter:  20  G: -8670.3875654481216770  |grad|_K:  1.765e-04  alpha:  1.301e-02  linmin: -5.792e-06  cgtest:  7.467e-02  t[s]:   2178.63
	FillingsUpdate:  mu: -0.244750000  nElectrons: 836.000000  magneticMoment: [ Abs: 0.00988  Tot: -0.00003 ]
LCAOMinimize: Iter:  21  G: -8670.3903049317232217  |grad|_K:  9.715e-05  alpha:  2.218e-02  linmin: -1.547e-03  cgtest: -4.353e-03  t[s]:   2271.56
	FillingsUpdate:  mu: -0.244750000  nElectrons: 836.000000  magneticMoment: [ Abs: 0.00989  Tot: -0.00003 ]
LCAOMinimize: Iter:  22  G: -8670.3907610562946502  |grad|_K:  9.052e-05  alpha:  1.208e-02  linmin: -4.072e-05  cgtest: -1.831e-02  t[s]:   2363.04
	FillingsUpdate:  mu: -0.244750000  nElectrons: 836.000000  magneticMoment: [ Abs: 0.00991  Tot: -0.00001 ]
LCAOMinimize: Iter:  23  G: -8670.3914665961347055  |grad|_K:  5.609e-05  alpha:  2.181e-02  linmin: -3.137e-04  cgtest:  3.808e-02  t[s]:   2455.77
	FillingsUpdate:  mu: -0.244750000  nElectrons: 836.000000  magneticMoment: [ Abs: 0.00993  Tot: -0.00000 ]
LCAOMinimize: Iter:  24  G: -8670.3917440374698344  |grad|_K:  6.738e-05  alpha:  2.231e-02  linmin: -1.066e-03  cgtest:  1.249e-02  t[s]:   2547.39
	FillingsUpdate:  mu: -0.244750000  nElectrons: 836.000000  magneticMoment: [ Abs: 0.00995  Tot: +0.00001 ]
LCAOMinimize: Iter:  25  G: -8670.3920145332740503  |grad|_K:  6.428e-05  alpha:  1.496e-02  linmin: -9.035e-04  cgtest: -1.727e-02  t[s]:   2639.33
	FillingsUpdate:  mu: -0.244750000  nElectrons: 836.000000  magneticMoment: [ Abs: 0.01006  Tot: +0.00003 ]
LCAOMinimize: Iter:  26  G: -8670.3926942795624200  |grad|_K:  5.035e-05  alpha:  3.969e-02  linmin: -2.968e-03  cgtest:  6.692e-02  t[s]:   2731.90
	FillingsUpdate:  mu: -0.244750000  nElectrons: 836.000000  magneticMoment: [ Abs: 0.01008  Tot: +0.00004 ]
LCAOMinimize: Iter:  27  G: -8670.3928064471274411  |grad|_K:  4.373e-05  alpha:  1.093e-02  linmin: -7.273e-04  cgtest: -4.390e-02  t[s]:   2824.33
	FillingsUpdate:  mu: -0.244750000  nElectrons: 836.000000  magneticMoment: [ Abs: 0.01011  Tot: +0.00006 ]
LCAOMinimize: Iter:  28  G: -8670.3929809290639241  |grad|_K:  3.111e-05  alpha:  2.193e-02  linmin: -6.033e-03  cgtest:  1.843e-01  t[s]:   2915.62
	FillingsUpdate:  mu: -0.244750000  nElectrons: 836.000000  magneticMoment: [ Abs: 0.01013  Tot: +0.00006 ]
LCAOMinimize: Iter:  29  G: -8670.3930437785693357  |grad|_K:  2.720e-05  alpha:  1.561e-02  linmin: -1.359e-03  cgtest: -6.232e-02  t[s]:   3007.93
	FillingsUpdate:  mu: -0.244750000  nElectrons: 836.000000  magneticMoment: [ Abs: 0.01014  Tot: +0.00006 ]
LCAOMinimize: Iter:  30  G: -8670.3930750646795786  |grad|_K:  1.752e-05  alpha:  1.060e-02  linmin: -2.304e-03  cgtest:  4.112e-02  t[s]:   3101.09
LCAOMinimize: None of the convergence criteria satisfied after 30 iterations.
----- createFluidSolver() ----- (Fluid-side solver setup)
   Initializing fluid molecule 'H2O'
     Initializing site 'O'
       Electron density: proportional to exp(-r/0.36935)*erfc((r-0.51523)/0.36823) with norm 6.826
       Charge density: gaussian nuclear width 0.478731 with net site charge 0.826
       Polarizability: cuspless exponential with width 0.32 and norm 3.73
       Hard sphere radius: 2.57003 bohrs
       Positions in reference frame:
         [ +0.000000 +0.000000 +0.000000 ]
     Initializing site 'H'
       Electron density: proportional to exp(-r/0.34641)*erfc((r-0)/0.390882) with norm 0.587
       Charge density: gaussian nuclear width 0.377945 with net site charge -0.413
       Polarizability: cuspless exponential with width 0.39 and norm 3.3
       Positions in reference frame:
         [ +0.000000 -1.441945 +1.122523 ]
         [ +0.000000 +1.441945 +1.122523 ]
     Net charge: 0   dipole magnitude: 0.927204
     Initializing spherical shell mfKernel with radius 2.61727 Bohr
     deltaS corrections:
       site 'O': -7.54299
       site 'H': -6.83917
   Initializing fluid molecule 'Na+'
     Initializing site 'Na'
       Electron density: proportional to exp(-r/0.19682)*erfc((r-0.71491)/0.41314) with norm 8.1383
       Charge density: gaussian nuclear width 0.365347 with net site charge -1
       Hard sphere radius: 1.86327 bohrs
       Positions in reference frame:
         [ +0.000000 +0.000000 +0.000000 ]
     Net charge: -1   dipole magnitude: 0
     Initializing gaussian mfKernel with width: 1.55004 Bohr
     deltaS corrections:
       site 'Na': -22.3555
   Initializing fluid molecule 'F-'
     Initializing site 'F'
       Electron density: proportional to exp(-r/0.38886)*erfc((r-0)/0.438782) with norm 8
       Charge density: gaussian nuclear width 0.374796 with net site charge 1
       Hard sphere radius: 2.39995 bohrs
       Positions in reference frame:
         [ +0.000000 +0.000000 +0.000000 ]
     Net charge: 1   dipole magnitude: 0
     Initializing gaussian mfKernel with width: 1.59012 Bohr
     deltaS corrections:
       site 'F': -9.04335

Correction to mu due to finite nuclear width = -0.123085
   Cavity determined by nc: 0.00142 and sigma: 0.707107
   Nonlocal vdW cavity from gaussian model electron density with norm = 8 and sigma = 0.993594 bohr
   Charge asymmetry in cavity with sensitivity pCavity = 36.5 e-bohr/Eh
   Electrostatic cavity expanded by eta = 1.46 bohrs
   Weighted density cavitation model constrained by Nbulk: 0.0049383 bohr^-3, Pvap: 3.14029 kPa, Rvdw: 2.61727 bohr and sigmaBulk: 4.62e-05 Eh/bohr^2 at T: 298 K.
   Weighted density dispersion model using vdW pair potentials with single solvent site with sqrtC6eff: 0.77 SI.


---- Citations for features of the code used in this run ----

   Software package:
      R. Sundararaman, K. Letchworth-Weaver, K.A. Schwarz, D. Gunceler, Y. Ozhabes and T.A. Arias, 'JDFTx: software for joint density-functional theory', SoftwareX 6, 278 (2017)

   gga-PBE exchange-correlation functional:
      J.P. Perdew, K. Burke and M. Ernzerhof, Phys. Rev. Lett. 77, 3865 (1996)

   Pseudopotentials:
      KF Garrity, JW Bennett, KM Rabe and D Vanderbilt, Comput. Mater. Sci. 81, 446 (2014)

   DFT-D3 dispersion correction:
      S. Grimme, J. Antony, S. Ehrlich and H. Krieg, J. Chem. Phys. 132, 154104 (2010)

   DFT-D2 dispersion correction:
      S. Grimme, J. Comput. Chem. 27, 1787 (2006)

   Charge-asymmetric nonlocally-determined local-electric (CANDLE) solvation model:
      R. Sundararaman and W.A. Goddard III, J. Chem. Phys. 142, 064107 (2015)

   Total energy minimization with Auxiliary Hamiltonian:
      C. Freysoldt, S. Boeck, and J. Neugebauer, Phys. Rev. B 79, 241103(R) (2009)

   Grand-canonical (fixed-potential) DFT:
      R. Sundararaman, W. A. Goddard III and T. A. Arias, J. Chem. Phys. 146, 114104 (2017)

   Linear-tetrahedron sampling for density of states:
      G. Lehmann and M. Taut, Phys. status solidi (b) 54, 469 (1972)

This list may not be complete. Please suggest additional citations or
report any other bugs at https://github.com/shankar1729/jdftx/issues

Initialization completed successfully at t[s]:   3132.47


Computing DFT-D3 correction:
# coordination-number Cu 6.827 8.313 6.850 9.084 9.122 9.142 5.563 9.077 9.133 9.143 9.128 9.141 9.162 9.128 9.111 9.154 9.134 9.143 9.100 6.855 9.029 6.856 9.025 9.110 9.097 9.140 9.162 9.155 6.856 9.125 9.133 9.140 9.129 9.145 9.124 9.079 8.317 9.145 9.134 9.086 6.850 5.566 6.824 6.855
# diagonal-C6 Cu 175.00 175.00 175.00 175.00 175.00 175.00 175.00 175.00 175.00 175.00 175.00 175.00 175.00 175.00 175.00 175.00 175.00 175.00 175.00 175.00 175.00 175.00 175.00 175.00 175.00 175.00 175.00 175.00 175.00 175.00 175.00 175.00 175.00 175.00 175.00 175.00 175.00 175.00 175.00 175.00 175.00 175.00 175.00 175.00
EvdW_6 =   -0.293548
EvdW_8 =   -0.421967
Fluid solver invoked on fresh (random / LCAO) wavefunctions
Running a vacuum solve first:

-------- Initial electronic minimization -----------
	FillingsUpdate:  mu: +0.279938518  nElectrons: 836.000000  magneticMoment: [ Abs: 0.01014  Tot: +0.00006 ]
ElecMinimize: Iter:   0  G: -8670.395645471908210  |grad|_K:  2.902e-04  alpha:  1.000e+00
	FillingsUpdate:  mu: +0.153996363  nElectrons: 836.000000  magneticMoment: [ Abs: 0.00992  Tot: +0.00007 ]
	SubspaceRotationAdjust: set factor to 0.998
ElecMinimize: Iter:   1  G: -8673.226777225620026  |grad|_K:  1.420e-04  alpha:  1.004e-01  linmin:  2.775e-04  t[s]:   3399.80
	FillingsUpdate:  mu: +0.675128168  nElectrons: 836.000000  magneticMoment: [ Abs: 0.00804  Tot: +0.00016 ]
	SubspaceRotationAdjust: set factor to 0.535
ElecMinimize: Iter:   2  G: -8675.338969721567992  |grad|_K:  3.161e-04  alpha:  2.935e-01  linmin: -1.566e-04  t[s]:   3574.85
ElecMinimize: 	Step increased G by 4.070048e-01, reducing alpha to 5.063617e-03.
	FillingsUpdate:  mu: +0.558827920  nElectrons: 836.000000  magneticMoment: [ Abs: 0.00812  Tot: +0.00029 ]
	SubspaceRotationAdjust: set factor to 0.348
ElecMinimize: Iter:   3  G: -8675.644022321621378  |grad|_K:  1.678e-04  alpha:  5.064e-03  linmin: -8.735e-04  t[s]:   3858.08
ElecMinimize: 	Predicted alpha/alphaT>3.000000, increasing alphaT to 1.519085e-02.
	FillingsUpdate:  mu: +0.411840385  nElectrons: 836.000000  magneticMoment: [ Abs: 0.00770  Tot: +0.00031 ]
	SubspaceRotationAdjust: set factor to 0.256
ElecMinimize: Iter:   4  G: -8675.995802437086240  |grad|_K:  1.143e-04  alpha:  2.001e-02  linmin: -1.048e-04  t[s]:   4075.32
	FillingsUpdate:  mu: +0.346756475  nElectrons: 836.000000  magneticMoment: [ Abs: 0.00692  Tot: +0.00024 ]
	SubspaceRotationAdjust: set factor to 0.185
ElecMinimize: Iter:   5  G: -8676.203584754286567  |grad|_K:  9.490e-05  alpha:  4.025e-02  linmin: -1.378e-04  t[s]:   4250.35
	FillingsUpdate:  mu: +0.305925082  nElectrons: 836.000000  magneticMoment: [ Abs: 0.00644  Tot: +0.00023 ]
	SubspaceRotationAdjust: set factor to 0.134
	SubspaceRotationAdjust: resetting CG because factor has changed by 0.134026
ElecMinimize: 	State modified externally: resetting search direction.
ElecMinimize: Iter:   6  G: -8676.373474303878538  |grad|_K:  7.588e-05  alpha:  4.941e-02
	FillingsUpdate:  mu: +0.293386675  nElectrons: 836.000000  magneticMoment: [ Abs: 0.00581  Tot: +0.00031 ]
	SubspaceRotationAdjust: set factor to 0.191
ElecMinimize: Iter:   7  G: -8676.614526956911504  |grad|_K:  4.488e-05  alpha:  1.188e-01  linmin: -1.665e-04  t[s]:   4678.08
	FillingsUpdate:  mu: +0.291794614  nElectrons: 836.000000  magneticMoment: [ Abs: 0.00549  Tot: +0.00041 ]
	SubspaceRotationAdjust: set factor to 0.153
ElecMinimize: Iter:   8  G: -8676.718639145405177  |grad|_K:  3.600e-05  alpha:  1.464e-01  linmin:  8.260e-05  t[s]:   4849.85
	FillingsUpdate:  mu: +0.225979317  nElectrons: 836.000000  magneticMoment: [ Abs: 0.00473  Tot: +0.00031 ]
	SubspaceRotationAdjust: set factor to 0.141
ElecMinimize: Iter:   9  G: -8676.839919369665949  |grad|_K:  3.299e-05  alpha:  2.692e-01  linmin: -2.331e-05  t[s]:   5022.77
	FillingsUpdate:  mu: +0.211659341  nElectrons: 836.000000  magneticMoment: [ Abs: 0.00424  Tot: +0.00029 ]
	SubspaceRotationAdjust: set factor to 0.159
ElecMinimize: Iter:  10  G: -8676.887943445037308  |grad|_K:  1.949e-05  alpha:  1.253e-01  linmin:  2.772e-06  t[s]:   5195.06
	FillingsUpdate:  mu: +0.223188043  nElectrons: 836.000000  magneticMoment: [ Abs: 0.00412  Tot: +0.00030 ]
	SubspaceRotationAdjust: set factor to 0.182
ElecMinimize: Iter:  11  G: -8676.923537802436840  |grad|_K:  1.810e-05  alpha:  2.676e-01  linmin: -5.335e-06  t[s]:   5367.32
	FillingsUpdate:  mu: +0.228962051  nElectrons: 836.000000  magneticMoment: [ Abs: 0.00401  Tot: +0.00031 ]
	SubspaceRotationAdjust: set factor to 0.208
ElecMinimize: Iter:  12  G: -8676.945426904934720  |grad|_K:  1.741e-05  alpha:  1.905e-01  linmin: -2.461e-07  t[s]:   5539.31
	FillingsUpdate:  mu: +0.224235264  nElectrons: 836.000000  magneticMoment: [ Abs: 0.00398  Tot: +0.00029 ]
	SubspaceRotationAdjust: set factor to 0.21
ElecMinimize: Iter:  13  G: -8676.974743665869028  |grad|_K:  1.823e-05  alpha:  2.756e-01  linmin: -3.743e-06  t[s]:   5712.48
	FillingsUpdate:  mu: +0.225668214  nElectrons: 836.000000  magneticMoment: [ Abs: 0.00397  Tot: +0.00028 ]
	SubspaceRotationAdjust: set factor to 0.181
ElecMinimize: Iter:  14  G: -8676.991469290054738  |grad|_K:  1.484e-05  alpha:  1.446e-01  linmin:  3.522e-06  t[s]:   5885.51
	FillingsUpdate:  mu: +0.232640144  nElectrons: 836.000000  magneticMoment: [ Abs: 0.00380  Tot: +0.00027 ]
	SubspaceRotationAdjust: set factor to 0.133
ElecMinimize: Iter:  15  G: -8677.003958198771215  |grad|_K:  1.324e-05  alpha:  1.627e-01  linmin: -4.763e-06  t[s]:   6058.82
	FillingsUpdate:  mu: +0.232428528  nElectrons: 836.000000  magneticMoment: [ Abs: 0.00354  Tot: +0.00024 ]
	SubspaceRotationAdjust: set factor to 0.13
ElecMinimize: Iter:  16  G: -8677.012915736222567  |grad|_K:  9.112e-06  alpha:  1.451e-01  linmin: -1.741e-06  t[s]:   6232.96
	FillingsUpdate:  mu: +0.224018836  nElectrons: 836.000000  magneticMoment: [ Abs: 0.00313  Tot: +0.00021 ]
	SubspaceRotationAdjust: set factor to 0.136
ElecMinimize: Iter:  17  G: -8677.019334996821271  |grad|_K:  8.671e-06  alpha:  2.203e-01  linmin: -1.185e-06  t[s]:   6405.61
	FillingsUpdate:  mu: +0.221244000  nElectrons: 836.000000  magneticMoment: [ Abs: 0.00280  Tot: +0.00019 ]
	SubspaceRotationAdjust: set factor to 0.131
ElecMinimize: Iter:  18  G: -8677.023115929434425  |grad|_K:  5.446e-06  alpha:  1.437e-01  linmin: -1.961e-07  t[s]:   6578.68
	FillingsUpdate:  mu: +0.227021076  nElectrons: 836.000000  magneticMoment: [ Abs: 0.00251  Tot: +0.00018 ]
	SubspaceRotationAdjust: set factor to 0.135
ElecMinimize: Iter:  19  G: -8677.025177909348713  |grad|_K:  4.653e-06  alpha:  1.987e-01  linmin: -5.388e-07  t[s]:   6750.94
	FillingsUpdate:  mu: +0.229517550  nElectrons: 836.000000  magneticMoment: [ Abs: 0.00228  Tot: +0.00017 ]
	SubspaceRotationAdjust: set factor to 0.154
ElecMinimize: Iter:  20  G: -8677.026347572264058  |grad|_K:  3.132e-06  alpha:  1.543e-01  linmin: -9.908e-07  t[s]:   6923.18
	FillingsUpdate:  mu: +0.227318451  nElectrons: 836.000000  magneticMoment: [ Abs: 0.00210  Tot: +0.00016 ]
	SubspaceRotationAdjust: set factor to 0.164
ElecMinimize: Iter:  21  G: -8677.027090488474641  |grad|_K:  3.072e-06  alpha:  2.161e-01  linmin: -1.415e-06  t[s]:   7096.43
	FillingsUpdate:  mu: +0.224945704  nElectrons: 836.000000  magneticMoment: [ Abs: 0.00192  Tot: +0.00015 ]
	SubspaceRotationAdjust: set factor to 0.185
ElecMinimize: Iter:  22  G: -8677.027630018774289  |grad|_K:  2.269e-06  alpha:  1.631e-01  linmin: -1.302e-06  t[s]:   7271.08
	FillingsUpdate:  mu: +0.226805232  nElectrons: 836.000000  magneticMoment: [ Abs: 0.00180  Tot: +0.00014 ]
	SubspaceRotationAdjust: set factor to 0.219
ElecMinimize: Iter:  23  G: -8677.028037344700351  |grad|_K:  2.204e-06  alpha:  2.257e-01  linmin: -1.156e-06  t[s]:   7444.25
	FillingsUpdate:  mu: +0.228392291  nElectrons: 836.000000  magneticMoment: [ Abs: 0.00168  Tot: +0.00014 ]
	SubspaceRotationAdjust: set factor to 0.253
ElecMinimize: Iter:  24  G: -8677.028304529689194  |grad|_K:  1.718e-06  alpha:  1.568e-01  linmin: -1.149e-06  t[s]:   7618.05
	FillingsUpdate:  mu: +0.226256268  nElectrons: 836.000000  magneticMoment: [ Abs: 0.00150  Tot: +0.00012 ]
	SubspaceRotationAdjust: set factor to 0.266
ElecMinimize: Iter:  25  G: -8677.028576210741448  |grad|_K:  2.157e-06  alpha:  2.625e-01  linmin: -7.122e-07  t[s]:   7791.38
	FillingsUpdate:  mu: +0.224887301  nElectrons: 836.000000  magneticMoment: [ Abs: 0.00130  Tot: +0.00011 ]
	SubspaceRotationAdjust: set factor to 0.258
ElecMinimize: Iter:  26  G: -8677.028847740948549  |grad|_K:  1.938e-06  alpha:  1.664e-01  linmin: -6.462e-07  t[s]:   7963.18
	FillingsUpdate:  mu: +0.226184420  nElectrons: 836.000000  magneticMoment: [ Abs: 0.00116  Tot: +0.00010 ]
	SubspaceRotationAdjust: set factor to 0.192
ElecMinimize: Iter:  27  G: -8677.028993667649047  |grad|_K:  1.605e-06  alpha:  1.108e-01  linmin: -2.130e-07  t[s]:   8136.33
	FillingsUpdate:  mu: +0.227376343  nElectrons: 836.000000  magneticMoment: [ Abs: 0.00100  Tot: +0.00009 ]
	SubspaceRotationAdjust: set factor to 0.16
ElecMinimize: Iter:  28  G: -8677.029124216283890  |grad|_K:  1.363e-06  alpha:  1.447e-01  linmin:  2.035e-08  t[s]:   8308.58
	FillingsUpdate:  mu: +0.226519225  nElectrons: 836.000000  magneticMoment: [ Abs: 0.00080  Tot: +0.00008 ]
	SubspaceRotationAdjust: set factor to 0.182
ElecMinimize: Iter:  29  G: -8677.029248907198053  |grad|_K:  1.160e-06  alpha:  1.920e-01  linmin:  2.761e-07  t[s]:   8481.58
	FillingsUpdate:  mu: +0.225741391  nElectrons: 836.000000  magneticMoment: [ Abs: 0.00064  Tot: +0.00007 ]
	SubspaceRotationAdjust: set factor to 0.166
ElecMinimize: Iter:  30  G: -8677.029317761685888  |grad|_K:  8.556e-07  alpha:  1.463e-01  linmin:  7.947e-08  t[s]:   8654.28
	FillingsUpdate:  mu: +0.225916110  nElectrons: 836.000000  magneticMoment: [ Abs: 0.00049  Tot: +0.00006 ]
	SubspaceRotationAdjust: set factor to 0.157
ElecMinimize: Iter:  31  G: -8677.029364742140388  |grad|_K:  7.787e-07  alpha:  1.835e-01  linmin:  8.526e-08  t[s]:   8827.50
	FillingsUpdate:  mu: +0.226296573  nElectrons: 836.000000  magneticMoment: [ Abs: 0.00037  Tot: +0.00006 ]
	SubspaceRotationAdjust: set factor to 0.155
ElecMinimize: Iter:  32  G: -8677.029396548068689  |grad|_K:  4.982e-07  alpha:  1.500e-01  linmin:  3.872e-08  t[s]:   8999.57
	FillingsUpdate:  mu: +0.226285224  nElectrons: 836.000000  magneticMoment: [ Abs: 0.00031  Tot: +0.00005 ]
	SubspaceRotationAdjust: set factor to 0.167
ElecMinimize: Iter:  33  G: -8677.029409368136839  |grad|_K:  3.883e-07  alpha:  1.477e-01  linmin:  7.014e-08  t[s]:   9173.86
	FillingsUpdate:  mu: +0.226034604  nElectrons: 836.000000  magneticMoment: [ Abs: 0.00025  Tot: +0.00005 ]
	SubspaceRotationAdjust: set factor to 0.166
ElecMinimize: Iter:  34  G: -8677.029418454321785  |grad|_K:  2.941e-07  alpha:  1.723e-01  linmin:  6.487e-08  t[s]:   9345.61
	FillingsUpdate:  mu: +0.225972886  nElectrons: 836.000000  magneticMoment: [ Abs: 0.00022  Tot: +0.00005 ]
	SubspaceRotationAdjust: set factor to 0.185
ElecMinimize: Iter:  35  G: -8677.029423000909446  |grad|_K:  2.404e-07  alpha:  1.503e-01  linmin: -8.158e-08  t[s]:   9518.84
	FillingsUpdate:  mu: +0.226158073  nElectrons: 836.000000  magneticMoment: [ Abs: 0.00019  Tot: +0.00005 ]
	SubspaceRotationAdjust: set factor to 0.201
ElecMinimize: Iter:  36  G: -8677.029427012534143  |grad|_K:  2.008e-07  alpha:  1.985e-01  linmin:  5.183e-07  t[s]:   9692.31
	FillingsUpdate:  mu: +0.226210598  nElectrons: 836.000000  magneticMoment: [ Abs: 0.00017  Tot: +0.00004 ]
	SubspaceRotationAdjust: set factor to 0.241
ElecMinimize: Iter:  37  G: -8677.029429111998979  |grad|_K:  1.635e-07  alpha:  1.490e-01  linmin: -1.436e-07  t[s]:   9864.06
	FillingsUpdate:  mu: +0.226110820  nElectrons: 836.000000  magneticMoment: [ Abs: 0.00016  Tot: +0.00004 ]
	SubspaceRotationAdjust: set factor to 0.271
ElecMinimize: Iter:  38  G: -8677.029431074437525  |grad|_K:  1.596e-07  alpha:  2.097e-01  linmin: -4.849e-07  t[s]:  10037.27
	FillingsUpdate:  mu: +0.226138571  nElectrons: 836.000000  magneticMoment: [ Abs: 0.00015  Tot: +0.00004 ]
	SubspaceRotationAdjust: set factor to 0.324
ElecMinimize: Iter:  39  G: -8677.029432427068969  |grad|_K:  1.338e-07  alpha:  1.516e-01  linmin: -1.932e-08  t[s]:  10210.24
	FillingsUpdate:  mu: +0.226240549  nElectrons: 836.000000  magneticMoment: [ Abs: 0.00014  Tot: +0.00003 ]
	SubspaceRotationAdjust: set factor to 0.304
ElecMinimize: Iter:  40  G: -8677.029433535300996  |grad|_K:  1.641e-07  alpha:  1.771e-01  linmin:  8.743e-08  t[s]:  10383.89
	FillingsUpdate:  mu: +0.226254525  nElectrons: 836.000000  magneticMoment: [ Abs: 0.00013  Tot: +0.00003 ]
	SubspaceRotationAdjust: set factor to 0.235
ElecMinimize: Iter:  41  G: -8677.029434535175824  |grad|_K:  1.407e-07  alpha:  1.062e-01  linmin:  1.903e-08  t[s]:  10557.50
	FillingsUpdate:  mu: +0.226205128  nElectrons: 836.000000  magneticMoment: [ Abs: 0.00012  Tot: +0.00002 ]
	SubspaceRotationAdjust: set factor to 0.214
ElecMinimize: Iter:  42  G: -8677.029435258460580  |grad|_K:  9.895e-08  alpha:  1.045e-01  linmin: -2.322e-07  t[s]:  10729.86
	FillingsUpdate:  mu: +0.226213722  nElectrons: 836.000000  magneticMoment: [ Abs: 0.00011  Tot: +0.00002 ]
	SubspaceRotationAdjust: set factor to 0.231
ElecMinimize: Iter:  43  G: -8677.029435933885907  |grad|_K:  1.030e-07  alpha:  1.985e-01  linmin:  9.014e-07  t[s]:  10903.61
	FillingsUpdate:  mu: +0.226264903  nElectrons: 836.000000  magneticMoment: [ Abs: 0.00009  Tot: +0.00002 ]
	SubspaceRotationAdjust: set factor to 0.236
ElecMinimize: Iter:  44  G: -8677.029436500148222  |grad|_K:  7.587e-08  alpha:  1.537e-01  linmin:  3.034e-07  t[s]:  11076.58
	FillingsUpdate:  mu: +0.226288227  nElectrons: 836.000000  magneticMoment: [ Abs: 0.00007  Tot: +0.00001 ]
	SubspaceRotationAdjust: set factor to 0.21
ElecMinimize: Iter:  45  G: -8677.029436764851198  |grad|_K:  7.220e-08  alpha:  1.317e-01  linmin:  2.145e-07  t[s]:  11249.81
	FillingsUpdate:  mu: +0.226291649  nElectrons: 836.000000  magneticMoment: [ Abs: 0.00006  Tot: +0.00001 ]
	SubspaceRotationAdjust: set factor to 0.184
ElecMinimize: Iter:  46  G: -8677.029437067183608  |grad|_K:  6.727e-08  alpha:  1.664e-01  linmin:  4.485e-07  t[s]:  11423.48
	FillingsUpdate:  mu: +0.226275111  nElectrons: 836.000000  magneticMoment: [ Abs: 0.00004  Tot: +0.00001 ]
	SubspaceRotationAdjust: set factor to 0.206
ElecMinimize: Iter:  47  G: -8677.029437278572004  |grad|_K:  4.641e-08  alpha:  1.346e-01  linmin: -3.520e-09  t[s]:  11596.80
	FillingsUpdate:  mu: +0.226264309  nElectrons: 836.000000  magneticMoment: [ Abs: 0.00003  Tot: +0.00001 ]
	SubspaceRotationAdjust: set factor to 0.219
ElecMinimize: Iter:  48  G: -8677.029437396924550  |grad|_K:  4.283e-08  alpha:  1.562e-01  linmin: -1.945e-07  t[s]:  11768.59
	FillingsUpdate:  mu: +0.226274653  nElectrons: 836.000000  magneticMoment: [ Abs: 0.00003  Tot: +0.00001 ]
	SubspaceRotationAdjust: set factor to 0.203
ElecMinimize: Iter:  49  G: -8677.029437488694384  |grad|_K:  3.409e-08  alpha:  1.431e-01  linmin: -5.152e-07  t[s]:  11941.78
	FillingsUpdate:  mu: +0.226286919  nElectrons: 836.000000  magneticMoment: [ Abs: 0.00002  Tot: +0.00001 ]
	SubspaceRotationAdjust: set factor to 0.215
ElecMinimize: Iter:  50  G: -8677.029437543144013  |grad|_K:  2.866e-08  alpha:  1.330e-01  linmin:  8.851e-07  t[s]:  12115.27
ElecMinimize: Converged (|Delta G|<1.000000e-07 for 2 iters).
Setting wave functions to eigenvectors of Hamiltonian
Converging empty states (this may take a while): |deigs|: 1.146e-02
Vacuum energy after initial minimize, F = -8677.029437543144013

Shifting auxilliary hamiltonian by -0.471037 to set nElectrons=836.000000

-------- Electronic minimization -----------
	Linear fluid (dielectric constant: 78.4, screening length: 8.12261 Bohr) occupying 0.365398 of unit cell:	Completed after 24 iterations at t[s]:  12752.61
	FillingsUpdate:  mu: -0.244750000  nElectrons: 836.000000  magneticMoment: [ Abs: 0.00001  Tot: +0.00000 ]
ElecMinimize: Iter:   0  G: -8677.030051864221605  |grad|_K:  2.938e-05  alpha:  1.000e+00
	Linear fluid (dielectric constant: 78.4, screening length: 8.12261 Bohr) occupying 0.371697 of unit cell:	Completed after 31 iterations at t[s]:  12898.52
	Linear fluid (dielectric constant: 78.4, screening length: 8.12261 Bohr) occupying 0.365700 of unit cell:	Completed after 30 iterations at t[s]:  12948.39
	FillingsUpdate:  mu: -0.244750000  nElectrons: 835.753197  magneticMoment: [ Abs: 0.00001  Tot: +0.00000 ]
	SubspaceRotationAdjust: set factor to 0.115
ElecMinimize: Iter:   1  G: -8677.036984761396525  |grad|_K:  1.640e-05  alpha:  3.295e-02  linmin:  1.655e-02  t[s]:  13013.69
	Linear fluid (dielectric constant: 78.4, screening length: 8.12261 Bohr) occupying 0.365966 of unit cell:	Completed after 18 iterations at t[s]:  13082.91
ElecMinimize: 	Predicted alpha/alphaT>3.000000, increasing alphaT to 9.884742e-02.
	Linear fluid (dielectric constant: 78.4, screening length: 8.12261 Bohr) occupying 0.366494 of unit cell:	Completed after 19 iterations at t[s]:  13131.25
	Linear fluid (dielectric constant: 78.4, screening length: 8.12261 Bohr) occupying 0.366679 of unit cell:	Completed after 18 iterations at t[s]:  13178.42
	FillingsUpdate:  mu: -0.244750000  nElectrons: 835.734687  magneticMoment: [ Abs: 0.00001  Tot: +0.00000 ]
	SubspaceRotationAdjust: set factor to 0.0568
ElecMinimize: Iter:   2  G: -8677.045392554502541  |grad|_K:  1.249e-05  alpha:  1.222e-01  linmin:  2.228e-03  t[s]:  13245.20
	Linear fluid (dielectric constant: 78.4, screening length: 8.12261 Bohr) occupying 0.367676 of unit cell:	Completed after 20 iterations at t[s]:  13313.29
	Linear fluid (dielectric constant: 78.4, screening length: 8.12261 Bohr) occupying 0.367480 of unit cell:	Completed after 15 iterations at t[s]:  13360.82
	FillingsUpdate:  mu: -0.244750000  nElectrons: 835.518099  magneticMoment: [ Abs: 0.00001  Tot: +0.00000 ]
	SubspaceRotationAdjust: set factor to 0.0245
	SubspaceRotationAdjust: resetting CG because factor has changed by 0.113774
	Linear fluid (dielectric constant: 78.4, screening length: 8.12261 Bohr) occupying 0.367480 of unit cell:	Completed after 0 iterations at t[s]:  13443.24
ElecMinimize: 	State modified externally: resetting search direction.
ElecMinimize: Iter:   3  G: -8677.050358736642011  |grad|_K:  4.229e-06  alpha:  9.791e-02
	Linear fluid (dielectric constant: 78.4, screening length: 8.12261 Bohr) occupying 0.367530 of unit cell:	Completed after 16 iterations at t[s]:  13578.90
	Linear fluid (dielectric constant: 78.4, screening length: 8.12261 Bohr) occupying 0.367618 of unit cell:	Completed after 18 iterations at t[s]:  13626.38
	FillingsUpdate:  mu: -0.244750000  nElectrons: 835.568808  magneticMoment: [ Abs: 0.00001  Tot: +0.00000 ]
	SubspaceRotationAdjust: set factor to 0.0259
ElecMinimize: Iter:   4  G: -8677.052059960476981  |grad|_K:  3.506e-06  alpha:  2.734e-01  linmin:  4.321e-04  t[s]:  13692.56
	Linear fluid (dielectric constant: 78.4, screening length: 8.12261 Bohr) occupying 0.367928 of unit cell:	Completed after 17 iterations at t[s]:  13761.75
	Linear fluid (dielectric constant: 78.4, screening length: 8.12261 Bohr) occupying 0.367885 of unit cell:	Completed after 13 iterations at t[s]:  13807.43
	FillingsUpdate:  mu: -0.244750000  nElectrons: 835.557754  magneticMoment: [ Abs: 0.00001  Tot: +0.00000 ]
	SubspaceRotationAdjust: set factor to 0.0343
ElecMinimize: Iter:   5  G: -8677.053061866645294  |grad|_K:  4.387e-06  alpha:  2.351e-01  linmin: -3.279e-05  t[s]:  13874.30
	Linear fluid (dielectric constant: 78.4, screening length: 8.12261 Bohr) occupying 0.368487 of unit cell:	Completed after 17 iterations at t[s]:  13942.44
	Linear fluid (dielectric constant: 78.4, screening length: 8.12261 Bohr) occupying 0.368655 of unit cell:	Completed after 16 iterations at t[s]:  13989.87
	FillingsUpdate:  mu: -0.244750000  nElectrons: 835.479189  magneticMoment: [ Abs: 0.00002  Tot: +0.00000 ]
	SubspaceRotationAdjust: set factor to 0.0382
ElecMinimize: Iter:   6  G: -8677.055101253861721  |grad|_K:  3.510e-06  alpha:  3.018e-01  linmin: -3.011e-04  t[s]:  14056.67
	Linear fluid (dielectric constant: 78.4, screening length: 8.12261 Bohr) occupying 0.369463 of unit cell:	Completed after 16 iterations at t[s]:  14125.19
	Linear fluid (dielectric constant: 78.4, screening length: 8.12261 Bohr) occupying 0.369746 of unit cell:	Completed after 14 iterations at t[s]:  14171.54
	FillingsUpdate:  mu: -0.244750000  nElectrons: 835.417305  magneticMoment: [ Abs: 0.00002  Tot: +0.00000 ]
	SubspaceRotationAdjust: set factor to 0.0426
ElecMinimize: Iter:   7  G: -8677.056884738141889  |grad|_K:  5.759e-06  alpha:  4.090e-01  linmin: -5.179e-05  t[s]:  14238.35
	Linear fluid (dielectric constant: 78.4, screening length: 8.12261 Bohr) occupying 0.372979 of unit cell:	Completed after 20 iterations at t[s]:  14307.37
	Linear fluid (dielectric constant: 78.4, screening length: 8.12261 Bohr) occupying 0.371419 of unit cell:	Completed after 17 iterations at t[s]:  14355.74
	FillingsUpdate:  mu: -0.244750000  nElectrons: 835.328655  magneticMoment: [ Abs: 0.00003  Tot: +0.00000 ]
	SubspaceRotationAdjust: set factor to 0.0467
ElecMinimize: Iter:   8  G: -8677.059299291238858  |grad|_K:  5.459e-06  alpha:  2.049e-01  linmin: -1.167e-04  t[s]:  14422.11
	Linear fluid (dielectric constant: 78.4, screening length: 8.12261 Bohr) occupying 0.373107 of unit cell:	Completed after 18 iterations at t[s]:  14491.48
	Linear fluid (dielectric constant: 78.4, screening length: 8.12261 Bohr) occupying 0.373600 of unit cell:	Completed after 15 iterations at t[s]:  14537.44
	FillingsUpdate:  mu: -0.244750000  nElectrons: 835.210408  magneticMoment: [ Abs: 0.00004  Tot: +0.00000 ]
	SubspaceRotationAdjust: set factor to 0.051
ElecMinimize: Iter:   9  G: -8677.062165187371647  |grad|_K:  5.094e-06  alpha:  2.683e-01  linmin: -2.418e-04  t[s]:  14604.78
	Linear fluid (dielectric constant: 78.4, screening length: 8.12261 Bohr) occupying 0.375621 of unit cell:	Completed after 17 iterations at t[s]:  14672.79
	Linear fluid (dielectric constant: 78.4, screening length: 8.12261 Bohr) occupying 0.374900 of unit cell:	Completed after 16 iterations at t[s]:  14719.93
	FillingsUpdate:  mu: -0.244750000  nElectrons: 835.153592  magneticMoment: [ Abs: 0.00004  Tot: +0.00000 ]
	SubspaceRotationAdjust: set factor to 0.0566
ElecMinimize: Iter:  10  G: -8677.063746032756171  |grad|_K:  4.977e-06  alpha:  1.688e-01  linmin: -4.826e-05  t[s]:  14786.32
	Linear fluid (dielectric constant: 78.4, screening length: 8.12261 Bohr) occupying 0.376231 of unit cell:	Completed after 17 iterations at t[s]:  14854.39
	Linear fluid (dielectric constant: 78.4, screening length: 8.12261 Bohr) occupying 0.378355 of unit cell:	Completed after 17 iterations at t[s]:  14901.48
	FillingsUpdate:  mu: -0.244750000  nElectrons: 835.024156  magneticMoment: [ Abs: 0.00005  Tot: +0.00000 ]
	SubspaceRotationAdjust: set factor to 0.0597
ElecMinimize: Iter:  11  G: -8677.067973380213516  |grad|_K:  7.132e-06  alpha:  4.732e-01  linmin: -1.896e-04  t[s]:  14967.71
	Linear fluid (dielectric constant: 78.4, screening length: 8.12261 Bohr) occupying 0.383646 of unit cell:	Completed after 20 iterations at t[s]:  15035.98
	Linear fluid (dielectric constant: 78.4, screening length: 8.12261 Bohr) occupying 0.380280 of unit cell:	Completed after 20 iterations at t[s]:  15084.18
	FillingsUpdate:  mu: -0.244750000  nElectrons: 834.947509  magneticMoment: [ Abs: 0.00004  Tot: +0.00001 ]
	SubspaceRotationAdjust: set factor to 0.0686
ElecMinimize: Iter:  12  G: -8677.070733131678935  |grad|_K:  4.886e-06  alpha:  1.489e-01  linmin: -1.015e-04  t[s]:  15151.65
	Linear fluid (dielectric constant: 78.4, screening length: 8.12261 Bohr) occupying 0.381160 of unit cell:	Completed after 16 iterations at t[s]:  15218.71
	Linear fluid (dielectric constant: 78.4, screening length: 8.12261 Bohr) occupying 0.381929 of unit cell:	Completed after 16 iterations at t[s]:  15266.65
	FillingsUpdate:  mu: -0.244750000  nElectrons: 834.910065  magneticMoment: [ Abs: 0.00004  Tot: +0.00001 ]
	SubspaceRotationAdjust: set factor to 0.0725
ElecMinimize: Iter:  13  G: -8677.073231337419202  |grad|_K:  6.287e-06  alpha:  2.908e-01  linmin: -8.912e-05  t[s]:  15332.85
	Linear fluid (dielectric constant: 78.4, screening length: 8.12261 Bohr) occupying 0.384151 of unit cell:	Completed after 20 iterations at t[s]:  15402.69
	Linear fluid (dielectric constant: 78.4, screening length: 8.12261 Bohr) occupying 0.383432 of unit cell:	Completed after 17 iterations at t[s]:  15449.40
	FillingsUpdate:  mu: -0.244750000  nElectrons: 834.851864  magneticMoment: [ Abs: 0.00004  Tot: +0.00000 ]
	SubspaceRotationAdjust: set factor to 0.0808
ElecMinimize: Iter:  14  G: -8677.075862977966608  |grad|_K:  4.284e-06  alpha:  1.858e-01  linmin: -3.145e-05  t[s]:  15516.44
	Linear fluid (dielectric constant: 78.4, screening length: 8.12261 Bohr) occupying 0.384084 of unit cell:	Completed after 15 iterations at t[s]:  15584.97
	Linear fluid (dielectric constant: 78.4, screening length: 8.12261 Bohr) occupying 0.384153 of unit cell:	Completed after 10 iterations at t[s]:  15631.32
	FillingsUpdate:  mu: -0.244750000  nElectrons: 834.844486  magneticMoment: [ Abs: 0.00003  Tot: +0.00000 ]
	SubspaceRotationAdjust: set factor to 0.0878
ElecMinimize: Iter:  15  G: -8677.077199499070048  |grad|_K:  4.502e-06  alpha:  2.068e-01  linmin: -2.334e-05  t[s]:  15697.80
	Linear fluid (dielectric constant: 78.4, screening length: 8.12261 Bohr) occupying 0.384914 of unit cell:	Completed after 17 iterations at t[s]:  15765.83
	Linear fluid (dielectric constant: 78.4, screening length: 8.12261 Bohr) occupying 0.384906 of unit cell:	Completed after 2 iterations at t[s]:  15810.68
	FillingsUpdate:  mu: -0.244750000  nElectrons: 834.817919  magneticMoment: [ Abs: 0.00002  Tot: +0.00000 ]
	SubspaceRotationAdjust: set factor to 0.0966
ElecMinimize: Iter:  16  G: -8677.078656387415322  |grad|_K:  3.855e-06  alpha:  2.043e-01  linmin: -1.999e-05  t[s]:  15877.01
	Linear fluid (dielectric constant: 78.4, screening length: 8.12261 Bohr) occupying 0.385459 of unit cell:	Completed after 16 iterations at t[s]:  15945.09
	Linear fluid (dielectric constant: 78.4, screening length: 8.12261 Bohr) occupying 0.385478 of unit cell:	Completed after 7 iterations at t[s]:  15990.98
	FillingsUpdate:  mu: -0.244750000  nElectrons: 834.807727  magneticMoment: [ Abs: 0.00002  Tot: +0.00000 ]
	SubspaceRotationAdjust: set factor to 0.105
ElecMinimize: Iter:  17  G: -8677.079762217210373  |grad|_K:  3.770e-06  alpha:  2.116e-01  linmin: -1.832e-05  t[s]:  16057.35
	Linear fluid (dielectric constant: 78.4, screening length: 8.12261 Bohr) occupying 0.386046 of unit cell:	Completed after 16 iterations at t[s]:  16126.27
	Linear fluid (dielectric constant: 78.4, screening length: 8.12261 Bohr) occupying 0.385959 of unit cell:	Completed after 7 iterations at t[s]:  16171.24
	FillingsUpdate:  mu: -0.244750000  nElectrons: 834.792203  magneticMoment: [ Abs: 0.00001  Tot: +0.00000 ]
	SubspaceRotationAdjust: set factor to 0.118
ElecMinimize: Iter:  18  G: -8677.080653442551920  |grad|_K:  2.756e-06  alpha:  1.785e-01  linmin: -1.198e-05  t[s]:  16239.01
	Linear fluid (dielectric constant: 78.4, screening length: 8.12261 Bohr) occupying 0.386257 of unit cell:	Completed after 15 iterations at t[s]:  16306.78
	Linear fluid (dielectric constant: 78.4, screening length: 8.12261 Bohr) occupying 0.386333 of unit cell:	Completed after 11 iterations at t[s]:  16353.49
	FillingsUpdate:  mu: -0.244750000  nElectrons: 834.779791  magneticMoment: [ Abs: 0.00001  Tot: -0.00000 ]
	SubspaceRotationAdjust: set factor to 0.126
ElecMinimize: Iter:  19  G: -8677.081252587759082  |grad|_K:  3.100e-06  alpha:  2.248e-01  linmin: -7.905e-06  t[s]:  16419.38
	Linear fluid (dielectric constant: 78.4, screening length: 8.12261 Bohr) occupying 0.386848 of unit cell:	Completed after 17 iterations at t[s]:  16488.46
	Linear fluid (dielectric constant: 78.4, screening length: 8.12261 Bohr) occupying 0.386789 of unit cell:	Completed after 10 iterations at t[s]:  16534.78
	FillingsUpdate:  mu: -0.244750000  nElectrons: 834.758755  magneticMoment: [ Abs: 0.00001  Tot: -0.00000 ]
	SubspaceRotationAdjust: set factor to 0.136
ElecMinimize: Iter:  20  G: -8677.081921481603786  |grad|_K:  2.231e-06  alpha:  1.986e-01  linmin: -6.303e-06  t[s]:  16601.97
	Linear fluid (dielectric constant: 78.4, screening length: 8.12261 Bohr) occupying 0.387055 of unit cell:	Completed after 15 iterations at t[s]:  16669.95
	Linear fluid (dielectric constant: 78.4, screening length: 8.12261 Bohr) occupying 0.387030 of unit cell:	Completed after 10 iterations at t[s]:  16716.38
	FillingsUpdate:  mu: -0.244750000  nElectrons: 834.754899  magneticMoment: [ Abs: 0.00001  Tot: +0.00000 ]
	SubspaceRotationAdjust: set factor to 0.141
ElecMinimize: Iter:  21  G: -8677.082234592906389  |grad|_K:  2.221e-06  alpha:  1.796e-01  linmin: -5.273e-06  t[s]:  16783.20
	Linear fluid (dielectric constant: 78.4, screening length: 8.12261 Bohr) occupying 0.387293 of unit cell:	Completed after 17 iterations at t[s]:  16851.31
	Linear fluid (dielectric constant: 78.4, screening length: 8.12261 Bohr) occupying 0.387281 of unit cell:	Completed after 11 iterations at t[s]:  16897.65
	FillingsUpdate:  mu: -0.244750000  nElectrons: 834.729669  magneticMoment: [ Abs: 0.00001  Tot: +0.00000 ]
	SubspaceRotationAdjust: set factor to 0.102
ElecMinimize: Iter:  22  G: -8677.082530558061990  |grad|_K:  2.407e-06  alpha:  1.713e-01  linmin: -5.036e-06  t[s]:  16963.60
	Linear fluid (dielectric constant: 78.4, screening length: 8.12261 Bohr) occupying 0.387589 of unit cell:	Completed after 18 iterations at t[s]:  17033.00
	Linear fluid (dielectric constant: 78.4, screening length: 8.12261 Bohr) occupying 0.387403 of unit cell:	Completed after 15 iterations at t[s]:  17079.07
	FillingsUpdate:  mu: -0.244750000  nElectrons: 834.743598  magneticMoment: [ Abs: 0.00001  Tot: +0.00000 ]
	SubspaceRotationAdjust: set factor to 0.0625
ElecMinimize: Iter:  23  G: -8677.082667304039205  |grad|_K:  1.497e-06  alpha:  6.725e-02  linmin: -1.279e-05  t[s]:  17146.17
	Linear fluid (dielectric constant: 78.4, screening length: 8.12261 Bohr) occupying 0.387455 of unit cell:	Completed after 12 iterations at t[s]:  17213.49
	Linear fluid (dielectric constant: 78.4, screening length: 8.12261 Bohr) occupying 0.387535 of unit cell:	Completed after 13 iterations at t[s]:  17260.52
	FillingsUpdate:  mu: -0.244750000  nElectrons: 834.738046  magneticMoment: [ Abs: 0.00001  Tot: +0.00000 ]
	SubspaceRotationAdjust: set factor to 0.0745
ElecMinimize: Iter:  24  G: -8677.082802502969571  |grad|_K:  1.486e-06  alpha:  1.720e-01  linmin: -6.534e-06  t[s]:  17326.26
	Linear fluid (dielectric constant: 78.4, screening length: 8.12261 Bohr) occupying 0.387668 of unit cell:	Completed after 15 iterations at t[s]:  17393.74
	Linear fluid (dielectric constant: 78.4, screening length: 8.12261 Bohr) occupying 0.387662 of unit cell:	Completed after 10 iterations at t[s]:  17440.14
	FillingsUpdate:  mu: -0.244750000  nElectrons: 834.725056  magneticMoment: [ Abs: 0.00001  Tot: +0.00000 ]
	SubspaceRotationAdjust: set factor to 0.0679
ElecMinimize: Iter:  25  G: -8677.082929779329788  |grad|_K:  1.162e-06  alpha:  1.645e-01  linmin: -6.491e-06  t[s]:  17507.02
	Linear fluid (dielectric constant: 78.4, screening length: 8.12261 Bohr) occupying 0.387748 of unit cell:	Completed after 15 iterations at t[s]:  17575.59
	Linear fluid (dielectric constant: 78.4, screening length: 8.12261 Bohr) occupying 0.387738 of unit cell:	Completed after 11 iterations at t[s]:  17621.40
	FillingsUpdate:  mu: -0.244750000  nElectrons: 834.730957  magneticMoment: [ Abs: 0.00001  Tot: +0.00000 ]
	SubspaceRotationAdjust: set factor to 0.0574
ElecMinimize: Iter:  26  G: -8677.082998457544818  |grad|_K:  9.854e-07  alpha:  1.452e-01  linmin:  1.043e-06  t[s]:  17688.33
	Linear fluid (dielectric constant: 78.4, screening length: 8.12261 Bohr) occupying 0.387797 of unit cell:	Completed after 10 iterations at t[s]:  17754.46
	Linear fluid (dielectric constant: 78.4, screening length: 8.12261 Bohr) occupying 0.387824 of unit cell:	Completed after 9 iterations at t[s]:  17801.73
	FillingsUpdate:  mu: -0.244750000  nElectrons: 834.725947  magneticMoment: [ Abs: 0.00001  Tot: +0.00000 ]
	SubspaceRotationAdjust: set factor to 0.0684
ElecMinimize: Iter:  27  G: -8677.083070414188114  |grad|_K:  9.099e-07  alpha:  2.119e-01  linmin: -5.103e-06  t[s]:  17869.78
	Linear fluid (dielectric constant: 78.4, screening length: 8.12261 Bohr) occupying 0.387903 of unit cell:	Completed after 15 iterations at t[s]:  17937.38
	Linear fluid (dielectric constant: 78.4, screening length: 8.12261 Bohr) occupying 0.387873 of unit cell:	Completed after 13 iterations at t[s]:  17983.76
	FillingsUpdate:  mu: -0.244750000  nElectrons: 834.719195  magneticMoment: [ Abs: 0.00001  Tot: -0.00000 ]
	SubspaceRotationAdjust: set factor to 0.0686
ElecMinimize: Iter:  28  G: -8677.083108730881577  |grad|_K:  7.070e-07  alpha:  1.322e-01  linmin: -2.299e-06  t[s]:  18049.86
	Linear fluid (dielectric constant: 78.4, screening length: 8.12261 Bohr) occupying 0.387909 of unit cell:	Completed after 12 iterations at t[s]:  18118.27
	Linear fluid (dielectric constant: 78.4, screening length: 8.12261 Bohr) occupying 0.387931 of unit cell:	Completed after 12 iterations at t[s]:  18163.80
	FillingsUpdate:  mu: -0.244750000  nElectrons: 834.718680  magneticMoment: [ Abs: 0.00001  Tot: -0.00000 ]
	SubspaceRotationAdjust: set factor to 0.0745
ElecMinimize: Iter:  29  G: -8677.083146463577577  |grad|_K:  7.124e-07  alpha:  2.158e-01  linmin: -1.839e-06  t[s]:  18230.92
	Linear fluid (dielectric constant: 78.4, screening length: 8.12261 Bohr) occupying 0.387998 of unit cell:	Completed after 13 iterations at t[s]:  18298.19
	Linear fluid (dielectric constant: 78.4, screening length: 8.12261 Bohr) occupying 0.387985 of unit cell:	Completed after 7 iterations at t[s]:  18343.82
	FillingsUpdate:  mu: -0.244750000  nElectrons: 834.717007  magneticMoment: [ Abs: 0.00001  Tot: -0.00000 ]
	SubspaceRotationAdjust: set factor to 0.0842
ElecMinimize: Iter:  30  G: -8677.083177139858890  |grad|_K:  6.139e-07  alpha:  1.727e-01  linmin: -1.054e-06  t[s]:  18410.03
	Linear fluid (dielectric constant: 78.4, screening length: 8.12261 Bohr) occupying 0.388033 of unit cell:	Completed after 14 iterations at t[s]:  18479.06
	Linear fluid (dielectric constant: 78.4, screening length: 8.12261 Bohr) occupying 0.388047 of unit cell:	Completed after 11 iterations at t[s]:  18524.26
	FillingsUpdate:  mu: -0.244750000  nElectrons: 834.710671  magneticMoment: [ Abs: 0.00001  Tot: -0.00000 ]
	SubspaceRotationAdjust: set factor to 0.085
ElecMinimize: Iter:  31  G: -8677.083206873419840  |grad|_K:  7.265e-07  alpha:  2.253e-01  linmin: -6.850e-06  t[s]:  18590.99
	Linear fluid (dielectric constant: 78.4, screening length: 8.12261 Bohr) occupying 0.388144 of unit cell:	Completed after 14 iterations at t[s]:  18657.83
	Linear fluid (dielectric constant: 78.4, screening length: 8.12261 Bohr) occupying 0.388112 of unit cell:	Completed after 12 iterations at t[s]:  18704.79
	FillingsUpdate:  mu: -0.244750000  nElectrons: 834.709809  magneticMoment: [ Abs: 0.00001  Tot: -0.00000 ]
	SubspaceRotationAdjust: set factor to 0.086
ElecMinimize: Iter:  32  G: -8677.083234740288390  |grad|_K:  5.196e-07  alpha:  1.507e-01  linmin: -1.194e-06  t[s]:  18770.79
	Linear fluid (dielectric constant: 78.4, screening length: 8.12261 Bohr) occupying 0.388151 of unit cell:	Completed after 13 iterations at t[s]:  18838.03
	Linear fluid (dielectric constant: 78.4, screening length: 8.12261 Bohr) occupying 0.388159 of unit cell:	Completed after 7 iterations at t[s]:  18884.22
	FillingsUpdate:  mu: -0.244750000  nElectrons: 834.706335  magneticMoment: [ Abs: 0.00001  Tot: -0.00000 ]
	SubspaceRotationAdjust: set factor to 0.0895
ElecMinimize: Iter:  33  G: -8677.083251950714839  |grad|_K:  5.500e-07  alpha:  1.822e-01  linmin: -2.933e-07  t[s]:  18951.06
	Linear fluid (dielectric constant: 78.4, screening length: 8.12261 Bohr) occupying 0.388218 of unit cell:	Completed after 12 iterations at t[s]:  19018.59
	Linear fluid (dielectric constant: 78.4, screening length: 8.12261 Bohr) occupying 0.388231 of unit cell:	Completed after 2 iterations at t[s]:  19063.69
	FillingsUpdate:  mu: -0.244750000  nElectrons: 834.703821  magneticMoment: [ Abs: 0.00001  Tot: -0.00000 ]
	SubspaceRotationAdjust: set factor to 0.0952
ElecMinimize: Iter:  34  G: -8677.083275348190000  |grad|_K:  5.140e-07  alpha:  2.211e-01  linmin: -1.307e-06  t[s]:  19129.89
	Linear fluid (dielectric constant: 78.4, screening length: 8.12261 Bohr) occupying 0.388300 of unit cell:	Completed after 13 iterations at t[s]:  19198.13
	Linear fluid (dielectric constant: 78.4, screening length: 8.12261 Bohr) occupying 0.388276 of unit cell:	Completed after 10 iterations at t[s]:  19245.25
	FillingsUpdate:  mu: -0.244750000  nElectrons: 834.702760  magneticMoment: [ Abs: 0.00001  Tot: -0.00000 ]
	SubspaceRotationAdjust: set factor to 0.101
ElecMinimize: Iter:  35  G: -8677.083288593470570  |grad|_K:  4.308e-07  alpha:  1.434e-01  linmin: -8.098e-07  t[s]:  19311.43
	Linear fluid (dielectric constant: 78.4, screening length: 8.12261 Bohr) occupying 0.388311 of unit cell:	Completed after 13 iterations at t[s]:  19379.74
	Linear fluid (dielectric constant: 78.4, screening length: 8.12261 Bohr) occupying 0.388324 of unit cell:	Completed after 11 iterations at t[s]:  19424.89
	FillingsUpdate:  mu: -0.244750000  nElectrons: 834.698069  magneticMoment: [ Abs: 0.00001  Tot: -0.00000 ]
	SubspaceRotationAdjust: set factor to 0.0944
ElecMinimize: Iter:  36  G: -8677.083301370574191  |grad|_K:  4.623e-07  alpha:  1.967e-01  linmin: -4.111e-06  t[s]:  19492.51
	Linear fluid (dielectric constant: 78.4, screening length: 8.12261 Bohr) occupying 0.388385 of unit cell:	Completed after 13 iterations at t[s]:  19559.73
	Linear fluid (dielectric constant: 78.4, screening length: 8.12261 Bohr) occupying 0.388362 of unit cell:	Completed after 11 iterations at t[s]:  19605.93
	FillingsUpdate:  mu: -0.244750000  nElectrons: 834.699597  magneticMoment: [ Abs: 0.00001  Tot: -0.00000 ]
	SubspaceRotationAdjust: set factor to 0.0764
ElecMinimize: Iter:  37  G: -8677.083310486488699  |grad|_K:  3.306e-07  alpha:  1.218e-01  linmin: -1.858e-07  t[s]:  19671.95
	Linear fluid (dielectric constant: 78.4, screening length: 8.12261 Bohr) occupying 0.388384 of unit cell:	Completed after 12 iterations at t[s]:  19740.10
	Linear fluid (dielectric constant: 78.4, screening length: 8.12261 Bohr) occupying 0.388391 of unit cell:	Completed after 10 iterations at t[s]:  19785.07
	FillingsUpdate:  mu: -0.244750000  nElectrons: 834.697126  magneticMoment: [ Abs: 0.00001  Tot: -0.00000 ]
	SubspaceRotationAdjust: set factor to 0.0748
ElecMinimize: Iter:  38  G: -8677.083316698402996  |grad|_K:  3.298e-07  alpha:  1.625e-01  linmin:  3.150e-07  t[s]:  19852.04
	Linear fluid (dielectric constant: 78.4, screening length: 8.12261 Bohr) occupying 0.388422 of unit cell:	Completed after 5 iterations at t[s]:  19917.77
	Linear fluid (dielectric constant: 78.4, screening length: 8.12261 Bohr) occupying 0.388425 of unit cell:	Completed after 2 iterations at t[s]:  19962.75
	FillingsUpdate:  mu: -0.244750000  nElectrons: 834.696289  magneticMoment: [ Abs: 0.00001  Tot: -0.00000 ]
	SubspaceRotationAdjust: set factor to 0.0854
ElecMinimize: Iter:  39  G: -8677.083323482336709  |grad|_K:  2.794e-07  alpha:  1.783e-01  linmin: -2.284e-06  t[s]:  20028.68
	Linear fluid (dielectric constant: 78.4, screening length: 8.12261 Bohr) occupying 0.388451 of unit cell:	Completed after 11 iterations at t[s]:  20096.19
	Linear fluid (dielectric constant: 78.4, screening length: 8.12261 Bohr) occupying 0.388447 of unit cell:	Completed after 6 iterations at t[s]:  20141.01
	FillingsUpdate:  mu: -0.244750000  nElectrons: 834.697574  magneticMoment: [ Abs: 0.00001  Tot: -0.00000 ]
	SubspaceRotationAdjust: set factor to 0.0798
ElecMinimize: Iter:  40  G: -8677.083327691914747  |grad|_K:  2.620e-07  alpha:  1.540e-01  linmin:  6.129e-06  t[s]:  20208.09
	Linear fluid (dielectric constant: 78.4, screening length: 8.12261 Bohr) occupying 0.388468 of unit cell:	Completed after 12 iterations at t[s]:  20275.18
	Linear fluid (dielectric constant: 78.4, screening length: 8.12261 Bohr) occupying 0.388472 of unit cell:	Completed after 7 iterations at t[s]:  20321.13
	FillingsUpdate:  mu: -0.244750000  nElectrons: 834.695473  magneticMoment: [ Abs: 0.00001  Tot: -0.00000 ]
	SubspaceRotationAdjust: set factor to 0.0735
ElecMinimize: Iter:  41  G: -8677.083332106893067  |grad|_K:  2.421e-07  alpha:  1.842e-01  linmin: -1.018e-05  t[s]:  20388.47
	Linear fluid (dielectric constant: 78.4, screening length: 8.12261 Bohr) occupying 0.388493 of unit cell:	Completed after 10 iterations at t[s]:  20455.97
	Linear fluid (dielectric constant: 78.4, screening length: 8.12261 Bohr) occupying 0.388487 of unit cell:	Completed after 2 iterations at t[s]:  20500.16
	FillingsUpdate:  mu: -0.244750000  nElectrons: 834.695551  magneticMoment: [ Abs: 0.00001  Tot: -0.00000 ]
	SubspaceRotationAdjust: set factor to 0.0815
ElecMinimize: Iter:  42  G: -8677.083334765053223  |grad|_K:  1.683e-07  alpha:  1.288e-01  linmin:  1.821e-05  t[s]:  20566.07
	Linear fluid (dielectric constant: 78.4, screening length: 8.12261 Bohr) occupying 0.388495 of unit cell:	Completed after 2 iterations at t[s]:  20631.45
	Linear fluid (dielectric constant: 78.4, screening length: 8.12261 Bohr) occupying 0.388500 of unit cell:	Completed after 7 iterations at t[s]:  20677.00
	FillingsUpdate:  mu: -0.244750000  nElectrons: 834.695678  magneticMoment: [ Abs: 0.00001  Tot: -0.00000 ]
	SubspaceRotationAdjust: set factor to 0.0862
ElecMinimize: Iter:  43  G: -8677.083336789533860  |grad|_K:  1.837e-07  alpha:  2.064e-01  linmin:  2.106e-05  t[s]:  20744.29
[...]
	SubspaceRotationAdjust: set factor to 0.0766
ElecMinimize: Iter:  32  G: -8677.084143062334988  |grad|_K:  1.585e-07  alpha:  1.357e-01  linmin:  1.218e-05  t[s]:  56161.04
	Linear fluid (dielectric constant: 78.4, screening length: 8.12261 Bohr) occupying 0.388817 of unit cell:	Completed after 11 iterations at t[s]:  56227.97
	Linear fluid (dielectric constant: 78.4, screening length: 8.12261 Bohr) occupying 0.388817 of unit cell:	Completed after 3 iterations at t[s]:  56272.67
	FillingsUpdate:  mu: -0.244750000  nElectrons: 834.662113  magneticMoment: [ Abs: 0.00037  Tot: +0.00006 ]
	SubspaceRotationAdjust: set factor to 0.0826
ElecMinimize: Iter:  33  G: -8677.084144609700161  |grad|_K:  1.291e-07  alpha:  1.765e-01  linmin: -7.103e-06  t[s]:  56338.74
	Linear fluid (dielectric constant: 78.4, screening length: 8.12261 Bohr) occupying 0.388814 of unit cell:	Completed after 11 iterations at t[s]:  56405.40
	Linear fluid (dielectric constant: 78.4, screening length: 8.12261 Bohr) occupying 0.388815 of unit cell:	Completed after 2 iterations at t[s]:  56449.52
	FillingsUpdate:  mu: -0.244750000  nElectrons: 834.661924  magneticMoment: [ Abs: 0.00019  Tot: +0.00005 ]
	SubspaceRotationAdjust: set factor to 0.09
ElecMinimize: Iter:  34  G: -8677.084145336428264  |grad|_K:  1.105e-07  alpha:  1.259e-01  linmin: -8.003e-06  t[s]:  56515.46
	Linear fluid (dielectric constant: 78.4, screening length: 8.12261 Bohr) occupying 0.388813 of unit cell:	Completed after 11 iterations at t[s]:  56582.11
	Linear fluid (dielectric constant: 78.4, screening length: 8.12261 Bohr) occupying 0.388813 of unit cell:	Completed after 0 iterations at t[s]:  56625.70
	FillingsUpdate:  mu: -0.244750000  nElectrons: 834.662887  magneticMoment: [ Abs: 0.00030  Tot: +0.00005 ]
	SubspaceRotationAdjust: set factor to 0.0766
ElecMinimize: Iter:  35  G: -8677.084145909675499  |grad|_K:  1.096e-07  alpha:  1.329e-01  linmin: -1.433e-04  t[s]:  56691.79
	Linear fluid (dielectric constant: 78.4, screening length: 8.12261 Bohr) occupying 0.388811 of unit cell:	Completed after 6 iterations at t[s]:  56757.47
	Linear fluid (dielectric constant: 78.4, screening length: 8.12261 Bohr) occupying 0.388811 of unit cell:	Completed after 0 iterations at t[s]:  56801.60
	FillingsUpdate:  mu: -0.244750000  nElectrons: 834.662707  magneticMoment: [ Abs: 0.00028  Tot: +0.00005 ]
	SubspaceRotationAdjust: set factor to 0.104
ElecMinimize: Iter:  36  G: -8677.084146543240422  |grad|_K:  8.513e-08  alpha:  1.422e-01  linmin: -1.275e-05  t[s]:  56868.78
	Linear fluid (dielectric constant: 78.4, screening length: 8.12261 Bohr) occupying 0.388809 of unit cell:	Completed after 11 iterations at t[s]:  56935.17
	Linear fluid (dielectric constant: 78.4, screening length: 8.12261 Bohr) occupying 0.388809 of unit cell:	Completed after 2 iterations at t[s]:  56979.39
	FillingsUpdate:  mu: -0.244750000  nElectrons: 834.662141  magneticMoment: [ Abs: 0.00012  Tot: +0.00005 ]
	SubspaceRotationAdjust: set factor to 0.0888
ElecMinimize: Iter:  37  G: -8677.084146846944350  |grad|_K:  9.370e-08  alpha:  1.196e-01  linmin:  2.469e-05  t[s]:  57045.36
	Linear fluid (dielectric constant: 78.4, screening length: 8.12261 Bohr) occupying 0.388807 of unit cell:	Completed after 10 iterations at t[s]:  57111.94
	Linear fluid (dielectric constant: 78.4, screening length: 8.12261 Bohr) occupying 0.388807 of unit cell:	Completed after 0 iterations at t[s]:  57154.81
	FillingsUpdate:  mu: -0.244750000  nElectrons: 834.662717  magneticMoment: [ Abs: 0.00014  Tot: +0.00004 ]
	SubspaceRotationAdjust: set factor to 0.0809
ElecMinimize: Iter:  38  G: -8677.084147171943187  |grad|_K:  7.375e-08  alpha:  1.073e-01  linmin:  1.503e-05  t[s]:  57220.16
	Linear fluid (dielectric constant: 78.4, screening length: 8.12261 Bohr) occupying 0.388806 of unit cell:	Completed after 1 iterations at t[s]:  57284.89
	Linear fluid (dielectric constant: 78.4, screening length: 8.12261 Bohr) occupying 0.388806 of unit cell:	Completed after 0 iterations at t[s]:  57328.79
	FillingsUpdate:  mu: -0.244750000  nElectrons: 834.662834  magneticMoment: [ Abs: 0.00018  Tot: +0.00004 ]
	SubspaceRotationAdjust: set factor to 0.102
ElecMinimize: Iter:  39  G: -8677.084147426401614  |grad|_K:  5.204e-08  alpha:  1.341e-01  linmin: -3.274e-05  t[s]:  57394.86
	Linear fluid (dielectric constant: 78.4, screening length: 8.12261 Bohr) occupying 0.388805 of unit cell:	Completed after 7 iterations at t[s]:  57460.92
	Linear fluid (dielectric constant: 78.4, screening length: 8.12261 Bohr) occupying 0.388805 of unit cell:	Completed after 2 iterations at t[s]:  57505.08
	FillingsUpdate:  mu: -0.244750000  nElectrons: 834.662496  magneticMoment: [ Abs: 0.00006  Tot: +0.00003 ]
	SubspaceRotationAdjust: set factor to 0.102
ElecMinimize: Iter:  40  G: -8677.084147589568602  |grad|_K:  5.116e-08  alpha:  1.704e-01  linmin: -1.331e-04  t[s]:  57571.09
	Linear fluid (dielectric constant: 78.4, screening length: 8.12261 Bohr) occupying 0.388804 of unit cell:	Completed after 3 iterations at t[s]:  57636.57
	Linear fluid (dielectric constant: 78.4, screening length: 8.12261 Bohr) occupying 0.388804 of unit cell:	Completed after 0 iterations at t[s]:  57680.49
	FillingsUpdate:  mu: -0.244750000  nElectrons: 834.662728  magneticMoment: [ Abs: 0.00034  Tot: +0.00002 ]
	SubspaceRotationAdjust: set factor to 0.128
ElecMinimize: Iter:  41  G: -8677.084147753190337  |grad|_K:  4.511e-08  alpha:  1.728e-01  linmin: -5.360e-06  t[s]:  57746.07
	Linear fluid (dielectric constant: 78.4, screening length: 8.12261 Bohr) occupying 0.388803 of unit cell:	Completed after 9 iterations at t[s]:  57812.36
	Linear fluid (dielectric constant: 78.4, screening length: 8.12261 Bohr) occupying 0.388803 of unit cell:	Completed after 4 iterations at t[s]:  57857.03
	FillingsUpdate:  mu: -0.244750000  nElectrons: 834.663007  magneticMoment: [ Abs: 0.00028  Tot: +0.00002 ]
	SubspaceRotationAdjust: set factor to 0.0882
ElecMinimize: Iter:  42  G: -8677.084147826057233  |grad|_K:  5.958e-08  alpha:  1.075e-01  linmin:  6.927e-05  t[s]:  57922.70
	Linear fluid (dielectric constant: 78.4, screening length: 8.12261 Bohr) occupying 0.388803 of unit cell:	Completed after 10 iterations at t[s]:  57989.13
	Linear fluid (dielectric constant: 78.4, screening length: 8.12261 Bohr) occupying 0.388803 of unit cell:	Completed after 5 iterations at t[s]:  58033.80
	FillingsUpdate:  mu: -0.244750000  nElectrons: 834.662719  magneticMoment: [ Abs: 0.00017  Tot: +0.00002 ]
	SubspaceRotationAdjust: set factor to 0.0876
ElecMinimize: Iter:  43  G: -8677.084147899255186  |grad|_K:  4.404e-08  alpha:  6.379e-02  linmin:  2.598e-05  t[s]:  58099.82
ElecMinimize: Converged (|Delta G|<1.000000e-07 for 2 iters).
Setting wave functions to eigenvectors of Hamiltonian
Converging empty states (this may take a while): |deigs|: 5.898e-08

Computing DFT-D3 correction:
# coordination-number Cu 6.810 8.466 6.842 9.116 9.156 9.132 5.474 9.103 9.119 9.136 9.110 9.116 9.158 9.102 9.161 9.139 9.110 9.134 9.113 6.887 9.113 6.837 9.114 9.166 9.115 9.138 9.161 9.140 6.890 9.104 9.113 9.116 9.109 9.133 9.153 9.099 8.464 9.129 9.113 9.111 6.840 5.474 6.808 6.840
# diagonal-C6 Cu 175.00 175.00 175.00 175.00 175.00 175.00 175.00 175.00 175.00 175.00 175.00 175.00 175.00 175.00 175.00 175.00 175.00 175.00 175.00 175.00 175.00 175.00 175.00 175.00 175.00 175.00 175.00 175.00 175.00 175.00 175.00 175.00 175.00 175.00 175.00 175.00 175.00 175.00 175.00 175.00 175.00 175.00 175.00 175.00
EvdW_6 =   -0.293537
EvdW_8 =   -0.421849

# Ionic positions in cartesian coordinates:
ion Cu   0.000086905181055  14.228557805573164  62.154316042512292 1
ion Cu   0.000057552726801  20.411118537809745  59.319905660335245 1
ion Cu   0.000057185133555   6.093866133494509  60.746908958699926 1
ion Cu  -0.000025151224866  12.212884415973450  57.854310826179116 1
ion Cu   0.000014166894406  18.308245540352825  54.965656541676339 1
ion Cu   0.000004336977360  16.257513877000850  50.656050535987525 1
ion Cu  -0.000082078893657  22.321982131890632  32.066673851278892 1
ion Cu  -0.000057032570597   4.040562900738440  56.450384466717381 1
ion Cu   4.766589177102957  10.174488407030923  53.561850735108102 1
ion Cu   0.000025036971185   2.038297688834434  52.118792884986476 1
ion Cu  -0.000007544469724   8.134120310653797  49.237061550719631 1
ion Cu   0.000059319751654  14.217551888284305  46.338325024973557 1
ion Cu   0.000004344326085  20.324504084530229  43.481315226767968 1
ion Cu   0.000033892035834  12.190914525490610  42.005239502363651 1
ion Cu  -0.000022623176017  18.297401431881177  39.157245336105277 1
ion Cu   0.000004192765764  22.360988510259180  47.796526022048127 1
ion Cu   0.000106671349220   6.099958956875027  44.906904302459964 1
ion Cu   0.000039670303639   4.039678242189289  40.575556589261488 1
ion Cu   0.000006979355169  10.167367514437757  37.703431098828979 1
ion Cu  -0.000035339749669  16.259047945654643  34.774253566236418 1
ion Cu  -0.000042802943051   1.977322953277404  36.275997757466961 1
ion Cu  -0.000144656506924   8.122792532112149  33.409902732718763 1
ion Cu   2.383331638349443  16.315650455915588  58.577444136941345 1
ion Cu   2.383320201247285  22.352142324455627  55.696802843373582 1
ion Cu   2.383239019694477   8.125525024858110  57.150910747112590 1
ion Cu   2.383351504719483  14.251612705635480  54.278777989799273 1
ion Cu   2.383346538505273  20.324438370576399  51.374678136310045 1
ion Cu   2.383319972777345  18.287131006564675  47.059656021015023 1
ion Cu   2.383351620202937   2.035314690755107  60.079237235739242 1
ion Cu   2.383259281924593   6.100812720925590  52.850747434963147 1
ion Cu   2.383280622534849  12.191218807123869  49.949514254209284 1
ion Cu   2.383316236675301   4.073603461897119  48.517899091107850 1
ion Cu   2.383390332340281  10.157799042298917  45.619702025607793 1
ion Cu   2.383275942718526  16.254413699038029  42.736863738980311 1
ion Cu   2.383267865651066  -0.015813137610610  39.888771692164376 1
ion Cu   2.383301636288940  14.250342344589948  38.404353204293251 1
ion Cu   2.383251126207908  20.240148945530198  35.533838185008946 1
ion Cu   2.383353222083110   2.034759797117264  44.199705057225451 1
ion Cu   2.383287191533708   8.118170784313296  41.293595468894942 1
ion Cu   2.383363516732975   6.079173618158849  36.999534616177776 1
ion Cu   2.383169253082748  12.199786056881944  34.106280905094216 1
ion Cu   2.383438060284704  18.330135507213775  62.785465585397610 1
ion Cu   2.383199936350065   4.064388643019979  32.697772652498877 1
ion Cu   2.383375078754797  10.171383796396324  61.443491764653352 1

# Forces in Cartesian coordinates:
force Cu  -0.000000318576321   0.000047069021856   0.000312162831379 1
force Cu   0.000000702998994   0.000230662630828  -0.000659618188205 1
force Cu  -0.000002611017351   0.000168189951696  -0.000103502331989 1
force Cu   0.000000462244566   0.000037776438641   0.000240485900739 1
force Cu   0.000001205223008  -0.000014607240613   0.000135470817366 1
force Cu   0.000000352078146  -0.000092985975783  -0.000102667929718 1
force Cu   0.000004455803064   0.000173203442087   0.000089160618102 1
force Cu  -0.000000653826814   0.000337121296061   0.000179282575982 1
force Cu   0.000000375943276  -0.000039964501453  -0.000104610718525 1
force Cu   0.000000188464176   0.000033511700875  -0.000529889197572 1
force Cu  -0.000000460410680  -0.000027236528390   0.000203033322165 1
force Cu  -0.000001448938373   0.000131969347887  -0.000092062676480 1
force Cu  -0.000000251177343  -0.000043331963730   0.000073051120919 1
force Cu  -0.000000986083827  -0.000101308926072   0.000169491225984 1
force Cu  -0.000000465863704   0.000173909871758  -0.000090082520265 1
force Cu   0.000000881040535   0.000223112282570  -0.000005431318017 1
force Cu  -0.000000028651696   0.000065386586795  -0.000164058777777 1
force Cu  -0.000001681553410   0.000233045788919  -0.000003521611346 1
force Cu  -0.000000723100439   0.000230197462856  -0.000253676693831 1
force Cu   0.000000031713072  -0.000561606627438   0.000019765835048 1
force Cu   0.000000170287940   0.000112111353825  -0.000017147080549 1
force Cu  -0.000000172530791  -0.000183056547829  -0.000150894866176 1
force Cu  -0.000000482100257  -0.000133629741239  -0.000003084833848 1
force Cu  -0.000001159375347  -0.000169582107612   0.000125728018057 1
force Cu   0.000001485206458  -0.000239238286094   0.000240465844983 1
force Cu   0.000000248302745  -0.000205502322248   0.000045955289462 1
force Cu   0.000000491642742   0.000030732509332  -0.000119269007192 1
force Cu   0.000000356098056  -0.000175244577104  -0.000009059396795 1
force Cu  -0.000002245283075   0.000564950353141   0.000052997087322 1
force Cu   0.000001208224631   0.000084517083659  -0.000178156690580 1
force Cu  -0.000000111697229  -0.000068585572904   0.000105432771012 1
force Cu  -0.000000053630798  -0.000133372328295   0.000071314630582 1
force Cu   0.000000803160683   0.000026917421076  -0.000230167522076 1
force Cu   0.000000625285480  -0.000019742818499   0.000475204177311 1
force Cu  -0.000000243815042   0.000006105418197  -0.000095464177631 1
force Cu   0.000001049437217  -0.000306865387327  -0.000191072013057 1
force Cu   0.000001164759978  -0.000161195351622   0.000594573855275 1
force Cu   0.000001313881536   0.000102708762248   0.000087015719165 1
force Cu   0.000000844281543   0.000022984493801   0.000102638292236 1
force Cu   0.000001997775217  -0.000007117437468  -0.000272647949903 1
force Cu   0.000001625902529  -0.000209590765611   0.000160824662277 1
force Cu  -0.000002074892991  -0.000163801779978  -0.000005214188927 1
force Cu   0.000000773759572   0.000026272527433  -0.000234741041515 1
force Cu   0.000000720355822   0.000168387278467   0.000208445595401 1

# Energy components:
   A_diel =        0.2696585009494994
   Eewald =    48945.7197346687098616
       EH =    57205.6693049964960665
     Eloc =  -116700.3646409766661236
      Enl =     1611.5030684385742461
     EvdW =       -0.7153857683188379
      Exc =     -853.7960085859419905
 Exc_core =        2.0666283030096371
       KE =      908.1166173879410053
  MuShift =        0.1645994231558832
-------------------------------------
     Etot =    -8881.3664236120912392
       TS =        0.0014248116790320
-------------------------------------
        F =    -8881.3678484237698285
      muN =     -204.2837005245146145
-------------------------------------
        G =    -8677.0841478992551856


Dumping 'jdft.fillings' ... done
Dumping 'jdft.wfns' ... done
Dumping 'jdft.fluidState' ... done
Dumping 'jdft.ionpos' ... done
Dumping 'jdft.lattice' ... done
Dumping 'jdft.eigenvals' ... done
Dumping 'jdft.eigStats' ... 
	eMin: -4.386228 at state 1 ( [ +0.000000 +0.500000 +0.000000 ] spin 1 )
	HOMO: -0.245038 at state 18 ( [ +0.272727 +0.000000 +0.000000 ] spin -1 )
	mu  : -0.244750
	LUMO: -0.244653 at state 15 ( [ +0.090909 +0.500000 +0.000000 ] spin -1 )
	eMax: +0.202622 at state 12 ( [ +0.000000 +0.000000 +0.000000 ] spin -1 )
	HOMO-LUMO gap: +0.000385
	Optical gap  : +0.001713 at state 14 ( [ +0.090909 +0.000000 +0.000000 ] spin -1 )
Dumping 'jdft.Ecomponents' ... done
IonicMinimize: Iter:   4  G: -8677.084147899255186  |grad|_K:  1.694e-04  alpha:  1.000e+00  linmin:  2.262e-01  t[s]:  58343.38
IonicMinimize: Converged (|Delta G|<1.000000e-04 for 2 iters).

#--- Lowdin population analysis ---
# oxidation-state Cu +0.215 +0.032 +0.218 +0.062 +0.073 +0.077 +0.398 +0.064 +0.076 +0.077 +0.077 +0.077 +0.077 +0.076 +0.072 +0.078 +0.078 +0.076 +0.062 +0.200 +0.060 +0.219 +0.060 +0.072 +0.062 +0.077 +0.077 +0.078 +0.200 +0.076 +0.078 +0.077 +0.077 +0.077 +0.073 +0.064 +0.032 +0.077 +0.076 +0.062 +0.218 +0.398 +0.215 +0.219
# magnetic-moments Cu +0.000 +0.000 +0.000 +0.000 +0.000 -0.000 +0.000 +0.000 -0.000 -0.000 -0.000 -0.000 -0.000 -0.000 +0.000 -0.000 -0.000 +0.000 +0.000 +0.000 +0.000 +0.000 +0.000 +0.000 +0.000 +0.000 -0.000 -0.000 +0.000 -0.000 -0.000 -0.000 -0.000 -0.000 +0.000 +0.000 +0.000 -0.000 -0.000 +0.000 +0.000 +0.000 +0.000 +0.000


Dumping 'jdft.n_up' ... done
Dumping 'jdft.n_dn' ... done
Dumping 'jdft.tau_up' ... done
Dumping 'jdft.tau_dn' ... done
Dumping 'jdft.eigenvals' ... done
Dumping 'jdft.eigStats' ... 
	eMin: -4.386228 at state 1 ( [ +0.000000 +0.500000 +0.000000 ] spin 1 )
	HOMO: -0.245038 at state 18 ( [ +0.272727 +0.000000 +0.000000 ] spin -1 )
	mu  : -0.244750
	LUMO: -0.244653 at state 15 ( [ +0.090909 +0.500000 +0.000000 ] spin -1 )
	eMax: +0.202622 at state 12 ( [ +0.000000 +0.000000 +0.000000 ] spin -1 )
	HOMO-LUMO gap: +0.000385
	Optical gap  : +0.001713 at state 14 ( [ +0.090909 +0.000000 +0.000000 ] spin -1 )
Dumping 'jdft.kPts' ... done
Dumping 'jdft.kMap' ... done
Dumping 'jdft.dosUp' ... done.
Dumping 'jdft.dosDn' ... done.
End date and time: Fri Sep  9 17:24:41 2022  (Duration: 0-16:14:03.44)
Done!

PROFILER:             augmentDensityGrid     1.753755 +/-     0.190585 s,  653 calls,   1145.202187 s total
PROFILER:         augmentDensityGridGrad     0.800174 +/-     0.177412 s,  338 calls,    270.458835 s total
PROFILER:        augmentDensitySpherical     0.009739 +/-     0.000695 s,  653 calls,      6.359871 s total
PROFILER:    augmentDensitySphericalGrad     0.009488 +/-     0.001888 s,  373 calls,      3.539154 s total
PROFILER:                 augmentOverlap    13.477213 +/-     1.451113 s, 1243 calls,  16752.175168 s total
PROFILER:        ColumnBundle::randomize     0.001942 +/-     0.000000 s,    1 calls,      0.001942 s total
PROFILER:                     diagouterI    13.250539 +/-     0.638351 s,  656 calls,   8692.353714 s total
PROFILER:              EdensityAndVscloc     2.820742 +/-     1.832169 s,  654 calls,   1844.765113 s total
PROFILER:                     EnlAndGrad     0.100618 +/-     0.018364 s,  631 calls,     63.489847 s total
PROFILER:            ExCorrCommunication     0.017119 +/-     0.032213 s, 3992 calls,     68.337547 s total
PROFILER:               ExCorrFunctional     0.006491 +/-     0.000810 s,  673 calls,      4.368218 s total
PROFILER:                    ExCorrTotal     0.165453 +/-     0.082555 s,  673 calls,    111.349805 s total
PROFILER:                   Idag_DiagV_I    25.143177 +/-     5.330458 s,  367 calls,   9227.545869 s total
PROFILER:                    initWeights     2.000727 +/-     0.000000 s,    1 calls,      2.000727 s total
PROFILER:                    inv(matrix)     0.137732 +/-     0.060547 s,  582 calls,     80.160315 s total
PROFILER:            matrix::diagonalize     0.184664 +/-     0.085423 s, 1017 calls,    187.802789 s total
PROFILER:                    matrix::set     0.000021 +/-     0.000025 s, 44424 calls,      0.945509 s total
PROFILER:            orthoMatrix(matrix)     0.033048 +/-     0.019694 s,  615 calls,     20.324605 s total
PROFILER:     RadialFunctionR::transform     0.011569 +/-     0.059871 s,   58 calls,      0.670983 s total
PROFILER:                    reduceKmesh     0.000339 +/-     0.000000 s,    1 calls,      0.000339 s total
PROFILER:   VanDerWaalsD3::energyAndGrad     0.041180 +/-     0.001637 s,   13 calls,      0.535343 s total
PROFILER:               WavefunctionDrag    48.254449 +/-    10.569267 s,    6 calls,    289.526696 s total
PROFILER:                            Y*M     4.868403 +/-     1.290945 s, 4147 calls,  20189.267645 s total
PROFILER:                          Y1^Y2     5.165709 +/-     1.507055 s, 2610 calls,  13482.501430 s total

MEMUSAGE:                   ColumnBundle     1.416031 GB
MEMUSAGE:        complexScalarFieldTilde     0.014648 GB
MEMUSAGE:                    IndexArrays     0.010294 GB
MEMUSAGE:                         matrix     0.172095 GB
MEMUSAGE:                           misc     0.014735 GB
MEMUSAGE:                    ScalarField     0.106201 GB
MEMUSAGE:               ScalarFieldTilde     0.077505 GB
MEMUSAGE:                          Total     1.565219 GB
