
*************** JDFTx 1.6.0  ***************

Start date and time: Sun Feb 20 00:45:54 2022
Executable /projects/musgravc/apps/jdftx-1.6.1/build/jdftx with command-line: -i in
Running on hosts (process indices):  shas0623.rc.int.colorado.edu (0-23)
Divided in process groups (process indices):  0 (0)  1 (1)  2 (2)  3 (3)  4 (4)  5 (5)  6 (6)  7 (7)  8 (8)  9 (9)  10 (10)  11 (11)  12 (12)  13 (13)  14 (14)  15 (15)  16 (16)  17 (17)  18 (18)  19 (19)  20 (20)  21 (21)  22 (22)  23 (23)
Resource initialization completed at t[s]:      0.01
Run totals: 24 processes, 24 threads, 0 GPUs


Input parsed successfully to the following command list (including defaults):

basis kpoint-dependent
converge-empty-states yes
coords-type Cartesian
core-overlap-check none
coulomb-interaction Periodic
davidson-band-ratio 1.1
density-of-states Etol 1.000000e-06 Esigma 1.000000e-03 \
		Complete \
	Total \
	OrthoOrbital Cu 1   s \
	OrthoOrbital Cu 1   p \
	OrthoOrbital Cu 1   px \
	OrthoOrbital Cu 1   py \
	OrthoOrbital Cu 1   pz \
	OrthoOrbital Cu 1   d \
	OrthoOrbital Cu 1   dxy \
	OrthoOrbital Cu 1   dyz \
	OrthoOrbital Cu 1   dz2 \
	OrthoOrbital Cu 1   dxz \
	OrthoOrbital Cu 1   dx2-y2 \
	OrthoOrbital Cu 2   s \
	OrthoOrbital Cu 2   p \
	OrthoOrbital Cu 2   px \
	OrthoOrbital Cu 2   py \
	OrthoOrbital Cu 2   pz \
	OrthoOrbital Cu 2   d \
	OrthoOrbital Cu 2   dxy \
	OrthoOrbital Cu 2   dyz \
	OrthoOrbital Cu 2   dz2 \
	OrthoOrbital Cu 2   dxz \
	OrthoOrbital Cu 2   dx2-y2 \
	OrthoOrbital Cu 3   s \
	OrthoOrbital Cu 3   p \
	OrthoOrbital Cu 3   px \
	OrthoOrbital Cu 3   py \
	OrthoOrbital Cu 3   pz \
	OrthoOrbital Cu 3   d \
	OrthoOrbital Cu 3   dxy \
	OrthoOrbital Cu 3   dyz \
	OrthoOrbital Cu 3   dz2 \
	OrthoOrbital Cu 3   dxz \
	OrthoOrbital Cu 3   dx2-y2 \
	OrthoOrbital Cu 4   s \
	OrthoOrbital Cu 4   p \
	OrthoOrbital Cu 4   px \
	OrthoOrbital Cu 4   py \
	OrthoOrbital Cu 4   pz \
	OrthoOrbital Cu 4   d \
	OrthoOrbital Cu 4   dxy \
	OrthoOrbital Cu 4   dyz \
	OrthoOrbital Cu 4   dz2 \
	OrthoOrbital Cu 4   dxz \
	OrthoOrbital Cu 4   dx2-y2 \
	OrthoOrbital Cu 5   s \
	OrthoOrbital Cu 5   p \
	OrthoOrbital Cu 5   px \
	OrthoOrbital Cu 5   py \
	OrthoOrbital Cu 5   pz \
	OrthoOrbital Cu 5   d \
	OrthoOrbital Cu 5   dxy \
	OrthoOrbital Cu 5   dyz \
	OrthoOrbital Cu 5   dz2 \
	OrthoOrbital Cu 5   dxz \
	OrthoOrbital Cu 5   dx2-y2 \
	OrthoOrbital Cu 6   s \
	OrthoOrbital Cu 6   p \
	OrthoOrbital Cu 6   px \
	OrthoOrbital Cu 6   py \
	OrthoOrbital Cu 6   pz \
	OrthoOrbital Cu 6   d \
	OrthoOrbital Cu 6   dxy \
	OrthoOrbital Cu 6   dyz \
	OrthoOrbital Cu 6   dz2 \
	OrthoOrbital Cu 6   dxz \
	OrthoOrbital Cu 6   dx2-y2 \
	OrthoOrbital Cu 7   s \
	OrthoOrbital Cu 7   p \
	OrthoOrbital Cu 7   px \
	OrthoOrbital Cu 7   py \
	OrthoOrbital Cu 7   pz \
	OrthoOrbital Cu 7   d \
	OrthoOrbital Cu 7   dxy \
	OrthoOrbital Cu 7   dyz \
	OrthoOrbital Cu 7   dz2 \
	OrthoOrbital Cu 7   dxz \
	OrthoOrbital Cu 7   dx2-y2 \
	OrthoOrbital Cu 8   s \
	OrthoOrbital Cu 8   p \
	OrthoOrbital Cu 8   px \
	OrthoOrbital Cu 8   py \
	OrthoOrbital Cu 8   pz \
	OrthoOrbital Cu 8   d \
	OrthoOrbital Cu 8   dxy \
	OrthoOrbital Cu 8   dyz \
	OrthoOrbital Cu 8   dz2 \
	OrthoOrbital Cu 8   dxz \
	OrthoOrbital Cu 8   dx2-y2 \
	OrthoOrbital Cu 9   s \
	OrthoOrbital Cu 9   p \
	OrthoOrbital Cu 9   px \
	OrthoOrbital Cu 9   py \
	OrthoOrbital Cu 9   pz \
	OrthoOrbital Cu 9   d \
	OrthoOrbital Cu 9   dxy \
	OrthoOrbital Cu 9   dyz \
	OrthoOrbital Cu 9   dz2 \
	OrthoOrbital Cu 9   dxz \
	OrthoOrbital Cu 9   dx2-y2 \
	OrthoOrbital Cu 10   s \
	OrthoOrbital Cu 10   p \
	OrthoOrbital Cu 10   px \
	OrthoOrbital Cu 10   py \
	OrthoOrbital Cu 10   pz \
	OrthoOrbital Cu 10   d \
	OrthoOrbital Cu 10   dxy \
	OrthoOrbital Cu 10   dyz \
	OrthoOrbital Cu 10   dz2 \
	OrthoOrbital Cu 10   dxz \
	OrthoOrbital Cu 10   dx2-y2 \
	OrthoOrbital Cu 11   s \
	OrthoOrbital Cu 11   p \
	OrthoOrbital Cu 11   px \
	OrthoOrbital Cu 11   py \
	OrthoOrbital Cu 11   pz \
	OrthoOrbital Cu 11   d \
	OrthoOrbital Cu 11   dxy \
	OrthoOrbital Cu 11   dyz \
	OrthoOrbital Cu 11   dz2 \
	OrthoOrbital Cu 11   dxz \
	OrthoOrbital Cu 11   dx2-y2 \
	OrthoOrbital Cu 12   s \
	OrthoOrbital Cu 12   p \
	OrthoOrbital Cu 12   px \
	OrthoOrbital Cu 12   py \
	OrthoOrbital Cu 12   pz \
	OrthoOrbital Cu 12   d \
	OrthoOrbital Cu 12   dxy \
	OrthoOrbital Cu 12   dyz \
	OrthoOrbital Cu 12   dz2 \
	OrthoOrbital Cu 12   dxz \
	OrthoOrbital Cu 12   dx2-y2 \
	OrthoOrbital Cu 13   s \
	OrthoOrbital Cu 13   p \
	OrthoOrbital Cu 13   px \
	OrthoOrbital Cu 13   py \
	OrthoOrbital Cu 13   pz \
	OrthoOrbital Cu 13   d \
	OrthoOrbital Cu 13   dxy \
	OrthoOrbital Cu 13   dyz \
	OrthoOrbital Cu 13   dz2 \
	OrthoOrbital Cu 13   dxz \
	OrthoOrbital Cu 13   dx2-y2 \
	OrthoOrbital Cu 14   s \
	OrthoOrbital Cu 14   p \
	OrthoOrbital Cu 14   px \
	OrthoOrbital Cu 14   py \
	OrthoOrbital Cu 14   pz \
	OrthoOrbital Cu 14   d \
	OrthoOrbital Cu 14   dxy \
	OrthoOrbital Cu 14   dyz \
	OrthoOrbital Cu 14   dz2 \
	OrthoOrbital Cu 14   dxz \
	OrthoOrbital Cu 14   dx2-y2 \
	OrthoOrbital Cu 15   s \
	OrthoOrbital Cu 15   p \
	OrthoOrbital Cu 15   px \
	OrthoOrbital Cu 15   py \
	OrthoOrbital Cu 15   pz \
	OrthoOrbital Cu 15   d \
	OrthoOrbital Cu 15   dxy \
	OrthoOrbital Cu 15   dyz \
	OrthoOrbital Cu 15   dz2 \
	OrthoOrbital Cu 15   dxz \
	OrthoOrbital Cu 15   dx2-y2 \
	OrthoOrbital Cu 16   s \
	OrthoOrbital Cu 16   p \
	OrthoOrbital Cu 16   px \
	OrthoOrbital Cu 16   py \
	OrthoOrbital Cu 16   pz \
	OrthoOrbital Cu 16   d \
	OrthoOrbital Cu 16   dxy \
	OrthoOrbital Cu 16   dyz \
	OrthoOrbital Cu 16   dz2 \
	OrthoOrbital Cu 16   dxz \
	OrthoOrbital Cu 16   dx2-y2 \
	OrthoOrbital Cu 17   s \
	OrthoOrbital Cu 17   p \
	OrthoOrbital Cu 17   px \
	OrthoOrbital Cu 17   py \
	OrthoOrbital Cu 17   pz \
	OrthoOrbital Cu 17   d \
	OrthoOrbital Cu 17   dxy \
	OrthoOrbital Cu 17   dyz \
	OrthoOrbital Cu 17   dz2 \
	OrthoOrbital Cu 17   dxz \
	OrthoOrbital Cu 17   dx2-y2 \
	OrthoOrbital Cu 18   s \
	OrthoOrbital Cu 18   p \
	OrthoOrbital Cu 18   px \
	OrthoOrbital Cu 18   py \
	OrthoOrbital Cu 18   pz \
	OrthoOrbital Cu 18   d \
	OrthoOrbital Cu 18   dxy \
	OrthoOrbital Cu 18   dyz \
	OrthoOrbital Cu 18   dz2 \
	OrthoOrbital Cu 18   dxz \
	OrthoOrbital Cu 18   dx2-y2 \
	OrthoOrbital Cu 19   s \
	OrthoOrbital Cu 19   p \
	OrthoOrbital Cu 19   px \
	OrthoOrbital Cu 19   py \
	OrthoOrbital Cu 19   pz \
	OrthoOrbital Cu 19   d \
	OrthoOrbital Cu 19   dxy \
	OrthoOrbital Cu 19   dyz \
	OrthoOrbital Cu 19   dz2 \
	OrthoOrbital Cu 19   dxz \
	OrthoOrbital Cu 19   dx2-y2 \
	OrthoOrbital Cu 20   s \
	OrthoOrbital Cu 20   p \
	OrthoOrbital Cu 20   px \
	OrthoOrbital Cu 20   py \
	OrthoOrbital Cu 20   pz \
	OrthoOrbital Cu 20   d \
	OrthoOrbital Cu 20   dxy \
	OrthoOrbital Cu 20   dyz \
	OrthoOrbital Cu 20   dz2 \
	OrthoOrbital Cu 20   dxz \
	OrthoOrbital Cu 20   dx2-y2 \
	OrthoOrbital Cu 21   s \
	OrthoOrbital Cu 21   p \
	OrthoOrbital Cu 21   px \
	OrthoOrbital Cu 21   py \
	OrthoOrbital Cu 21   pz \
	OrthoOrbital Cu 21   d \
	OrthoOrbital Cu 21   dxy \
	OrthoOrbital Cu 21   dyz \
	OrthoOrbital Cu 21   dz2 \
	OrthoOrbital Cu 21   dxz \
	OrthoOrbital Cu 21   dx2-y2 \
	OrthoOrbital Cu 22   s \
	OrthoOrbital Cu 22   p \
	OrthoOrbital Cu 22   px \
	OrthoOrbital Cu 22   py \
	OrthoOrbital Cu 22   pz \
	OrthoOrbital Cu 22   d \
	OrthoOrbital Cu 22   dxy \
	OrthoOrbital Cu 22   dyz \
	OrthoOrbital Cu 22   dz2 \
	OrthoOrbital Cu 22   dxz \
	OrthoOrbital Cu 22   dx2-y2 \
	OrthoOrbital Cu 23   s \
	OrthoOrbital Cu 23   p \
	OrthoOrbital Cu 23   px \
	OrthoOrbital Cu 23   py \
	OrthoOrbital Cu 23   pz \
	OrthoOrbital Cu 23   d \
	OrthoOrbital Cu 23   dxy \
	OrthoOrbital Cu 23   dyz \
	OrthoOrbital Cu 23   dz2 \
	OrthoOrbital Cu 23   dxz \
	OrthoOrbital Cu 23   dx2-y2 \
	OrthoOrbital Cu 24   s \
	OrthoOrbital Cu 24   p \
	OrthoOrbital Cu 24   px \
	OrthoOrbital Cu 24   py \
	OrthoOrbital Cu 24   pz \
	OrthoOrbital Cu 24   d \
	OrthoOrbital Cu 24   dxy \
	OrthoOrbital Cu 24   dyz \
	OrthoOrbital Cu 24   dz2 \
	OrthoOrbital Cu 24   dxz \
	OrthoOrbital Cu 24   dx2-y2 \
	OrthoOrbital Cu 25   s \
	OrthoOrbital Cu 25   p \
	OrthoOrbital Cu 25   px \
	OrthoOrbital Cu 25   py \
	OrthoOrbital Cu 25   pz \
	OrthoOrbital Cu 25   d \
	OrthoOrbital Cu 25   dxy \
	OrthoOrbital Cu 25   dyz \
	OrthoOrbital Cu 25   dz2 \
	OrthoOrbital Cu 25   dxz \
	OrthoOrbital Cu 25   dx2-y2 \
	OrthoOrbital Cu 26   s \
	OrthoOrbital Cu 26   p \
	OrthoOrbital Cu 26   px \
	OrthoOrbital Cu 26   py \
	OrthoOrbital Cu 26   pz \
	OrthoOrbital Cu 26   d \
	OrthoOrbital Cu 26   dxy \
	OrthoOrbital Cu 26   dyz \
	OrthoOrbital Cu 26   dz2 \
	OrthoOrbital Cu 26   dxz \
	OrthoOrbital Cu 26   dx2-y2 \
	OrthoOrbital Cu 27   s \
	OrthoOrbital Cu 27   p \
	OrthoOrbital Cu 27   px \
	OrthoOrbital Cu 27   py \
	OrthoOrbital Cu 27   pz \
	OrthoOrbital Cu 27   d \
	OrthoOrbital Cu 27   dxy \
	OrthoOrbital Cu 27   dyz \
	OrthoOrbital Cu 27   dz2 \
	OrthoOrbital Cu 27   dxz \
	OrthoOrbital Cu 27   dx2-y2 \
	OrthoOrbital Cu 28   s \
	OrthoOrbital Cu 28   p \
	OrthoOrbital Cu 28   px \
	OrthoOrbital Cu 28   py \
	OrthoOrbital Cu 28   pz \
	OrthoOrbital Cu 28   d \
	OrthoOrbital Cu 28   dxy \
	OrthoOrbital Cu 28   dyz \
	OrthoOrbital Cu 28   dz2 \
	OrthoOrbital Cu 28   dxz \
	OrthoOrbital Cu 28   dx2-y2 \
	OrthoOrbital Cu 29   s \
	OrthoOrbital Cu 29   p \
	OrthoOrbital Cu 29   px \
	OrthoOrbital Cu 29   py \
	OrthoOrbital Cu 29   pz \
	OrthoOrbital Cu 29   d \
	OrthoOrbital Cu 29   dxy \
	OrthoOrbital Cu 29   dyz \
	OrthoOrbital Cu 29   dz2 \
	OrthoOrbital Cu 29   dxz \
	OrthoOrbital Cu 29   dx2-y2 \
	OrthoOrbital Cu 30   s \
	OrthoOrbital Cu 30   p \
	OrthoOrbital Cu 30   px \
	OrthoOrbital Cu 30   py \
	OrthoOrbital Cu 30   pz \
	OrthoOrbital Cu 30   d \
	OrthoOrbital Cu 30   dxy \
	OrthoOrbital Cu 30   dyz \
	OrthoOrbital Cu 30   dz2 \
	OrthoOrbital Cu 30   dxz \
	OrthoOrbital Cu 30   dx2-y2 \
	OrthoOrbital Cu 31   s \
	OrthoOrbital Cu 31   p \
	OrthoOrbital Cu 31   px \
	OrthoOrbital Cu 31   py \
	OrthoOrbital Cu 31   pz \
	OrthoOrbital Cu 31   d \
	OrthoOrbital Cu 31   dxy \
	OrthoOrbital Cu 31   dyz \
	OrthoOrbital Cu 31   dz2 \
	OrthoOrbital Cu 31   dxz \
	OrthoOrbital Cu 31   dx2-y2 \
	OrthoOrbital Cu 32   s \
	OrthoOrbital Cu 32   p \
	OrthoOrbital Cu 32   px \
	OrthoOrbital Cu 32   py \
	OrthoOrbital Cu 32   pz \
	OrthoOrbital Cu 32   d \
	OrthoOrbital Cu 32   dxy \
	OrthoOrbital Cu 32   dyz \
	OrthoOrbital Cu 32   dz2 \
	OrthoOrbital Cu 32   dxz \
	OrthoOrbital Cu 32   dx2-y2 \
	OrthoOrbital Cu 33   s \
	OrthoOrbital Cu 33   p \
	OrthoOrbital Cu 33   px \
	OrthoOrbital Cu 33   py \
	OrthoOrbital Cu 33   pz \
	OrthoOrbital Cu 33   d \
	OrthoOrbital Cu 33   dxy \
	OrthoOrbital Cu 33   dyz \
	OrthoOrbital Cu 33   dz2 \
	OrthoOrbital Cu 33   dxz \
	OrthoOrbital Cu 33   dx2-y2 \
	OrthoOrbital Cu 34   s \
	OrthoOrbital Cu 34   p \
	OrthoOrbital Cu 34   px \
	OrthoOrbital Cu 34   py \
	OrthoOrbital Cu 34   pz \
	OrthoOrbital Cu 34   d \
	OrthoOrbital Cu 34   dxy \
	OrthoOrbital Cu 34   dyz \
	OrthoOrbital Cu 34   dz2 \
	OrthoOrbital Cu 34   dxz \
	OrthoOrbital Cu 34   dx2-y2 \
	OrthoOrbital Cu 35   s \
	OrthoOrbital Cu 35   p \
	OrthoOrbital Cu 35   px \
	OrthoOrbital Cu 35   py \
	OrthoOrbital Cu 35   pz \
	OrthoOrbital Cu 35   d \
	OrthoOrbital Cu 35   dxy \
	OrthoOrbital Cu 35   dyz \
	OrthoOrbital Cu 35   dz2 \
	OrthoOrbital Cu 35   dxz \
	OrthoOrbital Cu 35   dx2-y2 \
	OrthoOrbital Cu 36   s \
	OrthoOrbital Cu 36   p \
	OrthoOrbital Cu 36   px \
	OrthoOrbital Cu 36   py \
	OrthoOrbital Cu 36   pz \
	OrthoOrbital Cu 36   d \
	OrthoOrbital Cu 36   dxy \
	OrthoOrbital Cu 36   dyz \
	OrthoOrbital Cu 36   dz2 \
	OrthoOrbital Cu 36   dxz \
	OrthoOrbital Cu 36   dx2-y2 \
	OrthoOrbital Cu 37   s \
	OrthoOrbital Cu 37   p \
	OrthoOrbital Cu 37   px \
	OrthoOrbital Cu 37   py \
	OrthoOrbital Cu 37   pz \
	OrthoOrbital Cu 37   d \
	OrthoOrbital Cu 37   dxy \
	OrthoOrbital Cu 37   dyz \
	OrthoOrbital Cu 37   dz2 \
	OrthoOrbital Cu 37   dxz \
	OrthoOrbital Cu 37   dx2-y2 \
	OrthoOrbital Cu 38   s \
	OrthoOrbital Cu 38   p \
	OrthoOrbital Cu 38   px \
	OrthoOrbital Cu 38   py \
	OrthoOrbital Cu 38   pz \
	OrthoOrbital Cu 38   d \
	OrthoOrbital Cu 38   dxy \
	OrthoOrbital Cu 38   dyz \
	OrthoOrbital Cu 38   dz2 \
	OrthoOrbital Cu 38   dxz \
	OrthoOrbital Cu 38   dx2-y2 \
	OrthoOrbital Cu 39   s \
	OrthoOrbital Cu 39   p \
	OrthoOrbital Cu 39   px \
	OrthoOrbital Cu 39   py \
	OrthoOrbital Cu 39   pz \
	OrthoOrbital Cu 39   d \
	OrthoOrbital Cu 39   dxy \
	OrthoOrbital Cu 39   dyz \
	OrthoOrbital Cu 39   dz2 \
	OrthoOrbital Cu 39   dxz \
	OrthoOrbital Cu 39   dx2-y2 \
	OrthoOrbital Cu 40   s \
	OrthoOrbital Cu 40   p \
	OrthoOrbital Cu 40   px \
	OrthoOrbital Cu 40   py \
	OrthoOrbital Cu 40   pz \
	OrthoOrbital Cu 40   d \
	OrthoOrbital Cu 40   dxy \
	OrthoOrbital Cu 40   dyz \
	OrthoOrbital Cu 40   dz2 \
	OrthoOrbital Cu 40   dxz \
	OrthoOrbital Cu 40   dx2-y2 \
	OrthoOrbital Cu 41   s \
	OrthoOrbital Cu 41   p \
	OrthoOrbital Cu 41   px \
	OrthoOrbital Cu 41   py \
	OrthoOrbital Cu 41   pz \
	OrthoOrbital Cu 41   d \
	OrthoOrbital Cu 41   dxy \
	OrthoOrbital Cu 41   dyz \
	OrthoOrbital Cu 41   dz2 \
	OrthoOrbital Cu 41   dxz \
	OrthoOrbital Cu 41   dx2-y2 \
	OrthoOrbital Cu 42   s \
	OrthoOrbital Cu 42   p \
	OrthoOrbital Cu 42   px \
	OrthoOrbital Cu 42   py \
	OrthoOrbital Cu 42   pz \
	OrthoOrbital Cu 42   d \
	OrthoOrbital Cu 42   dxy \
	OrthoOrbital Cu 42   dyz \
	OrthoOrbital Cu 42   dz2 \
	OrthoOrbital Cu 42   dxz \
	OrthoOrbital Cu 42   dx2-y2 \
	OrthoOrbital Cu 43   s \
	OrthoOrbital Cu 43   p \
	OrthoOrbital Cu 43   px \
	OrthoOrbital Cu 43   py \
	OrthoOrbital Cu 43   pz \
	OrthoOrbital Cu 43   d \
	OrthoOrbital Cu 43   dxy \
	OrthoOrbital Cu 43   dyz \
	OrthoOrbital Cu 43   dz2 \
	OrthoOrbital Cu 43   dxz \
	OrthoOrbital Cu 43   dx2-y2 \
	OrthoOrbital Cu 44   s \
	OrthoOrbital Cu 44   p \
	OrthoOrbital Cu 44   px \
	OrthoOrbital Cu 44   py \
	OrthoOrbital Cu 44   pz \
	OrthoOrbital Cu 44   d \
	OrthoOrbital Cu 44   dxy \
	OrthoOrbital Cu 44   dyz \
	OrthoOrbital Cu 44   dz2 \
	OrthoOrbital Cu 44   dxz \
	OrthoOrbital Cu 44   dx2-y2 \
	OrthoOrbital Cu 45   s \
	OrthoOrbital Cu 45   p \
	OrthoOrbital Cu 45   px \
	OrthoOrbital Cu 45   py \
	OrthoOrbital Cu 45   pz \
	OrthoOrbital Cu 45   d \
	OrthoOrbital Cu 45   dxy \
	OrthoOrbital Cu 45   dyz \
	OrthoOrbital Cu 45   dz2 \
	OrthoOrbital Cu 45   dxz \
	OrthoOrbital Cu 45   dx2-y2 \
	OrthoOrbital Cu 46   s \
	OrthoOrbital Cu 46   p \
	OrthoOrbital Cu 46   px \
	OrthoOrbital Cu 46   py \
	OrthoOrbital Cu 46   pz \
	OrthoOrbital Cu 46   d \
	OrthoOrbital Cu 46   dxy \
	OrthoOrbital Cu 46   dyz \
	OrthoOrbital Cu 46   dz2 \
	OrthoOrbital Cu 46   dxz \
	OrthoOrbital Cu 46   dx2-y2 \
	OrthoOrbital Cu 47   s \
	OrthoOrbital Cu 47   p \
	OrthoOrbital Cu 47   px \
	OrthoOrbital Cu 47   py \
	OrthoOrbital Cu 47   pz \
	OrthoOrbital Cu 47   d \
	OrthoOrbital Cu 47   dxy \
	OrthoOrbital Cu 47   dyz \
	OrthoOrbital Cu 47   dz2 \
	OrthoOrbital Cu 47   dxz \
	OrthoOrbital Cu 47   dx2-y2 \
	OrthoOrbital Cu 48   s \
	OrthoOrbital Cu 48   p \
	OrthoOrbital Cu 48   px \
	OrthoOrbital Cu 48   py \
	OrthoOrbital Cu 48   pz \
	OrthoOrbital Cu 48   d \
	OrthoOrbital Cu 48   dxy \
	OrthoOrbital Cu 48   dyz \
	OrthoOrbital Cu 48   dz2 \
	OrthoOrbital Cu 48   dxz \
	OrthoOrbital Cu 48   dx2-y2 \
	OrthoOrbital Cu 49   s \
	OrthoOrbital Cu 49   p \
	OrthoOrbital Cu 49   px \
	OrthoOrbital Cu 49   py \
	OrthoOrbital Cu 49   pz \
	OrthoOrbital Cu 49   d \
	OrthoOrbital Cu 49   dxy \
	OrthoOrbital Cu 49   dyz \
	OrthoOrbital Cu 49   dz2 \
	OrthoOrbital Cu 49   dxz \
	OrthoOrbital Cu 49   dx2-y2 \
	OrthoOrbital Cu 50   s \
	OrthoOrbital Cu 50   p \
	OrthoOrbital Cu 50   px \
	OrthoOrbital Cu 50   py \
	OrthoOrbital Cu 50   pz \
	OrthoOrbital Cu 50   d \
	OrthoOrbital Cu 50   dxy \
	OrthoOrbital Cu 50   dyz \
	OrthoOrbital Cu 50   dz2 \
	OrthoOrbital Cu 50   dxz \
	OrthoOrbital Cu 50   dx2-y2 \
	OrthoOrbital Cu 51   s \
	OrthoOrbital Cu 51   p \
	OrthoOrbital Cu 51   px \
	OrthoOrbital Cu 51   py \
	OrthoOrbital Cu 51   pz \
	OrthoOrbital Cu 51   d \
	OrthoOrbital Cu 51   dxy \
	OrthoOrbital Cu 51   dyz \
	OrthoOrbital Cu 51   dz2 \
	OrthoOrbital Cu 51   dxz \
	OrthoOrbital Cu 51   dx2-y2 \
	OrthoOrbital Cu 52   s \
	OrthoOrbital Cu 52   p \
	OrthoOrbital Cu 52   px \
	OrthoOrbital Cu 52   py \
	OrthoOrbital Cu 52   pz \
	OrthoOrbital Cu 52   d \
	OrthoOrbital Cu 52   dxy \
	OrthoOrbital Cu 52   dyz \
	OrthoOrbital Cu 52   dz2 \
	OrthoOrbital Cu 52   dxz \
	OrthoOrbital Cu 52   dx2-y2 \
	OrthoOrbital Cu 53   s \
	OrthoOrbital Cu 53   p \
	OrthoOrbital Cu 53   px \
	OrthoOrbital Cu 53   py \
	OrthoOrbital Cu 53   pz \
	OrthoOrbital Cu 53   d \
	OrthoOrbital Cu 53   dxy \
	OrthoOrbital Cu 53   dyz \
	OrthoOrbital Cu 53   dz2 \
	OrthoOrbital Cu 53   dxz \
	OrthoOrbital Cu 53   dx2-y2 \
	OrthoOrbital Cu 54   s \
	OrthoOrbital Cu 54   p \
	OrthoOrbital Cu 54   px \
	OrthoOrbital Cu 54   py \
	OrthoOrbital Cu 54   pz \
	OrthoOrbital Cu 54   d \
	OrthoOrbital Cu 54   dxy \
	OrthoOrbital Cu 54   dyz \
	OrthoOrbital Cu 54   dz2 \
	OrthoOrbital Cu 54   dxz \
	OrthoOrbital Cu 54   dx2-y2 \
	OrthoOrbital Cu 55   s \
	OrthoOrbital Cu 55   p \
	OrthoOrbital Cu 55   px \
	OrthoOrbital Cu 55   py \
	OrthoOrbital Cu 55   pz \
	OrthoOrbital Cu 55   d \
	OrthoOrbital Cu 55   dxy \
	OrthoOrbital Cu 55   dyz \
	OrthoOrbital Cu 55   dz2 \
	OrthoOrbital Cu 55   dxz \
	OrthoOrbital Cu 55   dx2-y2 \
	OrthoOrbital Cu 56   s \
	OrthoOrbital Cu 56   p \
	OrthoOrbital Cu 56   px \
	OrthoOrbital Cu 56   py \
	OrthoOrbital Cu 56   pz \
	OrthoOrbital Cu 56   d \
	OrthoOrbital Cu 56   dxy \
	OrthoOrbital Cu 56   dyz \
	OrthoOrbital Cu 56   dz2 \
	OrthoOrbital Cu 56   dxz \
	OrthoOrbital Cu 56   dx2-y2 \
	OrthoOrbital Cu 57   s \
	OrthoOrbital Cu 57   p \
	OrthoOrbital Cu 57   px \
	OrthoOrbital Cu 57   py \
	OrthoOrbital Cu 57   pz \
	OrthoOrbital Cu 57   d \
	OrthoOrbital Cu 57   dxy \
	OrthoOrbital Cu 57   dyz \
	OrthoOrbital Cu 57   dz2 \
	OrthoOrbital Cu 57   dxz \
	OrthoOrbital Cu 57   dx2-y2 \
	OrthoOrbital Cu 58   s \
	OrthoOrbital Cu 58   p \
	OrthoOrbital Cu 58   px \
	OrthoOrbital Cu 58   py \
	OrthoOrbital Cu 58   pz \
	OrthoOrbital Cu 58   d \
	OrthoOrbital Cu 58   dxy \
	OrthoOrbital Cu 58   dyz \
	OrthoOrbital Cu 58   dz2 \
	OrthoOrbital Cu 58   dxz \
	OrthoOrbital Cu 58   dx2-y2 \
	OrthoOrbital Cu 59   s \
	OrthoOrbital Cu 59   p \
	OrthoOrbital Cu 59   px \
	OrthoOrbital Cu 59   py \
	OrthoOrbital Cu 59   pz \
	OrthoOrbital Cu 59   d \
	OrthoOrbital Cu 59   dxy \
	OrthoOrbital Cu 59   dyz \
	OrthoOrbital Cu 59   dz2 \
	OrthoOrbital Cu 59   dxz \
	OrthoOrbital Cu 59   dx2-y2 \
	OrthoOrbital Cu 60   s \
	OrthoOrbital Cu 60   p \
	OrthoOrbital Cu 60   px \
	OrthoOrbital Cu 60   py \
	OrthoOrbital Cu 60   pz \
	OrthoOrbital Cu 60   d \
	OrthoOrbital Cu 60   dxy \
	OrthoOrbital Cu 60   dyz \
	OrthoOrbital Cu 60   dz2 \
	OrthoOrbital Cu 60   dxz \
	OrthoOrbital Cu 60   dx2-y2 \
	OrthoOrbital Cu 61   s \
	OrthoOrbital Cu 61   p \
	OrthoOrbital Cu 61   px \
	OrthoOrbital Cu 61   py \
	OrthoOrbital Cu 61   pz \
	OrthoOrbital Cu 61   d \
	OrthoOrbital Cu 61   dxy \
	OrthoOrbital Cu 61   dyz \
	OrthoOrbital Cu 61   dz2 \
	OrthoOrbital Cu 61   dxz \
	OrthoOrbital Cu 61   dx2-y2 \
	OrthoOrbital Cu 62   s \
	OrthoOrbital Cu 62   p \
	OrthoOrbital Cu 62   px \
	OrthoOrbital Cu 62   py \
	OrthoOrbital Cu 62   pz \
	OrthoOrbital Cu 62   d \
	OrthoOrbital Cu 62   dxy \
	OrthoOrbital Cu 62   dyz \
	OrthoOrbital Cu 62   dz2 \
	OrthoOrbital Cu 62   dxz \
	OrthoOrbital Cu 62   dx2-y2 \
	OrthoOrbital Cu 63   s \
	OrthoOrbital Cu 63   p \
	OrthoOrbital Cu 63   px \
	OrthoOrbital Cu 63   py \
	OrthoOrbital Cu 63   pz \
	OrthoOrbital Cu 63   d \
	OrthoOrbital Cu 63   dxy \
	OrthoOrbital Cu 63   dyz \
	OrthoOrbital Cu 63   dz2 \
	OrthoOrbital Cu 63   dxz \
	OrthoOrbital Cu 63   dx2-y2 \
	OrthoOrbital Cu 64   s \
	OrthoOrbital Cu 64   p \
	OrthoOrbital Cu 64   px \
	OrthoOrbital Cu 64   py \
	OrthoOrbital Cu 64   pz \
	OrthoOrbital Cu 64   d \
	OrthoOrbital Cu 64   dxy \
	OrthoOrbital Cu 64   dyz \
	OrthoOrbital Cu 64   dz2 \
	OrthoOrbital Cu 64   dxz \
	OrthoOrbital Cu 64   dx2-y2 \
	OrthoOrbital Cu 65   s \
	OrthoOrbital Cu 65   p \
	OrthoOrbital Cu 65   px \
	OrthoOrbital Cu 65   py \
	OrthoOrbital Cu 65   pz \
	OrthoOrbital Cu 65   d \
	OrthoOrbital Cu 65   dxy \
	OrthoOrbital Cu 65   dyz \
	OrthoOrbital Cu 65   dz2 \
	OrthoOrbital Cu 65   dxz \
	OrthoOrbital Cu 65   dx2-y2 \
	OrthoOrbital Cu 66   s \
	OrthoOrbital Cu 66   p \
	OrthoOrbital Cu 66   px \
	OrthoOrbital Cu 66   py \
	OrthoOrbital Cu 66   pz \
	OrthoOrbital Cu 66   d \
	OrthoOrbital Cu 66   dxy \
	OrthoOrbital Cu 66   dyz \
	OrthoOrbital Cu 66   dz2 \
	OrthoOrbital Cu 66   dxz \
	OrthoOrbital Cu 66   dx2-y2 \
	OrthoOrbital Cu 67   s \
	OrthoOrbital Cu 67   p \
	OrthoOrbital Cu 67   px \
	OrthoOrbital Cu 67   py \
	OrthoOrbital Cu 67   pz \
	OrthoOrbital Cu 67   d \
	OrthoOrbital Cu 67   dxy \
	OrthoOrbital Cu 67   dyz \
	OrthoOrbital Cu 67   dz2 \
	OrthoOrbital Cu 67   dxz \
	OrthoOrbital Cu 67   dx2-y2 \
	OrthoOrbital Cu 68   s \
	OrthoOrbital Cu 68   p \
	OrthoOrbital Cu 68   px \
	OrthoOrbital Cu 68   py \
	OrthoOrbital Cu 68   pz \
	OrthoOrbital Cu 68   d \
	OrthoOrbital Cu 68   dxy \
	OrthoOrbital Cu 68   dyz \
	OrthoOrbital Cu 68   dz2 \
	OrthoOrbital Cu 68   dxz \
	OrthoOrbital Cu 68   dx2-y2 \
	OrthoOrbital Cu 69   s \
	OrthoOrbital Cu 69   p \
	OrthoOrbital Cu 69   px \
	OrthoOrbital Cu 69   py \
	OrthoOrbital Cu 69   pz \
	OrthoOrbital Cu 69   d \
	OrthoOrbital Cu 69   dxy \
	OrthoOrbital Cu 69   dyz \
	OrthoOrbital Cu 69   dz2 \
	OrthoOrbital Cu 69   dxz \
	OrthoOrbital Cu 69   dx2-y2 \
	OrthoOrbital Cu 70   s \
	OrthoOrbital Cu 70   p \
	OrthoOrbital Cu 70   px \
	OrthoOrbital Cu 70   py \
	OrthoOrbital Cu 70   pz \
	OrthoOrbital Cu 70   d \
	OrthoOrbital Cu 70   dxy \
	OrthoOrbital Cu 70   dyz \
	OrthoOrbital Cu 70   dz2 \
	OrthoOrbital Cu 70   dxz \
	OrthoOrbital Cu 70   dx2-y2 \
	OrthoOrbital Cu 71   s \
	OrthoOrbital Cu 71   p \
	OrthoOrbital Cu 71   px \
	OrthoOrbital Cu 71   py \
	OrthoOrbital Cu 71   pz \
	OrthoOrbital Cu 71   d \
	OrthoOrbital Cu 71   dxy \
	OrthoOrbital Cu 71   dyz \
	OrthoOrbital Cu 71   dz2 \
	OrthoOrbital Cu 71   dxz \
	OrthoOrbital Cu 71   dx2-y2 \
	OrthoOrbital Cu 72   s \
	OrthoOrbital Cu 72   p \
	OrthoOrbital Cu 72   px \
	OrthoOrbital Cu 72   py \
	OrthoOrbital Cu 72   pz \
	OrthoOrbital Cu 72   d \
	OrthoOrbital Cu 72   dxy \
	OrthoOrbital Cu 72   dyz \
	OrthoOrbital Cu 72   dz2 \
	OrthoOrbital Cu 72   dxz \
	OrthoOrbital Cu 72   dx2-y2 \
	OrthoOrbital Cu 73   s \
	OrthoOrbital Cu 73   p \
	OrthoOrbital Cu 73   px \
	OrthoOrbital Cu 73   py \
	OrthoOrbital Cu 73   pz \
	OrthoOrbital Cu 73   d \
	OrthoOrbital Cu 73   dxy \
	OrthoOrbital Cu 73   dyz \
	OrthoOrbital Cu 73   dz2 \
	OrthoOrbital Cu 73   dxz \
	OrthoOrbital Cu 73   dx2-y2 \
	OrthoOrbital Cu 74   s \
	OrthoOrbital Cu 74   p \
	OrthoOrbital Cu 74   px \
	OrthoOrbital Cu 74   py \
	OrthoOrbital Cu 74   pz \
	OrthoOrbital Cu 74   d \
	OrthoOrbital Cu 74   dxy \
	OrthoOrbital Cu 74   dyz \
	OrthoOrbital Cu 74   dz2 \
	OrthoOrbital Cu 74   dxz \
	OrthoOrbital Cu 74   dx2-y2 \
	OrthoOrbital Cu 75   s \
	OrthoOrbital Cu 75   p \
	OrthoOrbital Cu 75   px \
	OrthoOrbital Cu 75   py \
	OrthoOrbital Cu 75   pz \
	OrthoOrbital Cu 75   d \
	OrthoOrbital Cu 75   dxy \
	OrthoOrbital Cu 75   dyz \
	OrthoOrbital Cu 75   dz2 \
	OrthoOrbital Cu 75   dxz \
	OrthoOrbital Cu 75   dx2-y2 \
	OrthoOrbital Cu 76   s \
	OrthoOrbital Cu 76   p \
	OrthoOrbital Cu 76   px \
	OrthoOrbital Cu 76   py \
	OrthoOrbital Cu 76   pz \
	OrthoOrbital Cu 76   d \
	OrthoOrbital Cu 76   dxy \
	OrthoOrbital Cu 76   dyz \
	OrthoOrbital Cu 76   dz2 \
	OrthoOrbital Cu 76   dxz \
	OrthoOrbital Cu 76   dx2-y2 \
	OrthoOrbital Cu 77   s \
	OrthoOrbital Cu 77   p \
	OrthoOrbital Cu 77   px \
	OrthoOrbital Cu 77   py \
	OrthoOrbital Cu 77   pz \
	OrthoOrbital Cu 77   d \
	OrthoOrbital Cu 77   dxy \
	OrthoOrbital Cu 77   dyz \
	OrthoOrbital Cu 77   dz2 \
	OrthoOrbital Cu 77   dxz \
	OrthoOrbital Cu 77   dx2-y2 \
	OrthoOrbital Cu 78   s \
	OrthoOrbital Cu 78   p \
	OrthoOrbital Cu 78   px \
	OrthoOrbital Cu 78   py \
	OrthoOrbital Cu 78   pz \
	OrthoOrbital Cu 78   d \
	OrthoOrbital Cu 78   dxy \
	OrthoOrbital Cu 78   dyz \
	OrthoOrbital Cu 78   dz2 \
	OrthoOrbital Cu 78   dxz \
	OrthoOrbital Cu 78   dx2-y2 \
	OrthoOrbital Cu 79   s \
	OrthoOrbital Cu 79   p \
	OrthoOrbital Cu 79   px \
	OrthoOrbital Cu 79   py \
	OrthoOrbital Cu 79   pz \
	OrthoOrbital Cu 79   d \
	OrthoOrbital Cu 79   dxy \
	OrthoOrbital Cu 79   dyz \
	OrthoOrbital Cu 79   dz2 \
	OrthoOrbital Cu 79   dxz \
	OrthoOrbital Cu 79   dx2-y2 \
	OrthoOrbital Cu 80   s \
	OrthoOrbital Cu 80   p \
	OrthoOrbital Cu 80   px \
	OrthoOrbital Cu 80   py \
	OrthoOrbital Cu 80   pz \
	OrthoOrbital Cu 80   d \
	OrthoOrbital Cu 80   dxy \
	OrthoOrbital Cu 80   dyz \
	OrthoOrbital Cu 80   dz2 \
	OrthoOrbital Cu 80   dxz \
	OrthoOrbital Cu 80   dx2-y2 \
	OrthoOrbital C 1   s \
	OrthoOrbital C 1   p \
	OrthoOrbital C 1   px \
	OrthoOrbital C 1   py \
	OrthoOrbital C 1   pz \
	OrthoOrbital O 1   s \
	OrthoOrbital O 1   p \
	OrthoOrbital O 1   px \
	OrthoOrbital O 1   py \
	OrthoOrbital O 1   pz
dump End ElecDensity KEdensity BandEigs EigStats RhoAtom DOS Kpoints
dump Ionic State IonicPositions Lattice EigStats Ecomponents
dump 
dump 
dump 
dump 
dump 
dump 
dump 
dump 
dump-name jdft.$VAR
elec-cutoff 20
elec-eigen-algo Davidson
elec-ex-corr gga-PBE
elec-initial-magnetization 0.000000 no
elec-n-bands 918
elec-smearing Fermi 0.001
electronic-minimize  \
	dirUpdateScheme      FletcherReeves \
	linminMethod         DirUpdateRecommended \
	nIterations          100 \
	history              15 \
	knormThreshold       0 \
	energyDiffThreshold  1e-07 \
	nEnergyDiff          2 \
	alphaTstart          1 \
	alphaTmin            1e-10 \
	updateTestStepSize   yes \
	alphaTreduceFactor   0.1 \
	alphaTincreaseFactor 3 \
	nAlphaAdjustMax      3 \
	wolfeEnergy          0.0001 \
	wolfeGradient        0.9 \
	fdTest               no
exchange-regularization WignerSeitzTruncated
fluid LinearPCM 298.000000 1.013250
fluid-anion F- 0.5 MeanFieldLJ \
	epsBulk 1 \
	pMol 0 \
	epsInf 1 \
	Pvap 0 \
	sigmaBulk 0 \
	Rvdw 2.24877 \
	Res 0 \
	tauNuc 343133
fluid-cation Na+ 0.5 MeanFieldLJ \
	epsBulk 1 \
	pMol 0 \
	epsInf 1 \
	Pvap 0 \
	sigmaBulk 0 \
	Rvdw 2.19208 \
	Res 0 \
	tauNuc 343133
fluid-ex-corr lda-TF lda-PZ
fluid-gummel-loop 10 1.000000e-05
fluid-minimize  \
	dirUpdateScheme      PolakRibiere \
	linminMethod         DirUpdateRecommended \
	nIterations          400 \
	history              15 \
	knormThreshold       1e-11 \
	energyDiffThreshold  0 \
	nEnergyDiff          2 \
	alphaTstart          1 \
	alphaTmin            1e-10 \
	updateTestStepSize   yes \
	alphaTreduceFactor   0.1 \
	alphaTincreaseFactor 3 \
	nAlphaAdjustMax      6 \
	wolfeEnergy          0.0001 \
	wolfeGradient        0.9 \
	fdTest               no
fluid-solvent H2O 55.338 ScalarEOS \
	epsBulk 78.4 \
	pMol 0.92466 \
	epsInf 1.77 \
	Pvap 1.06736e-10 \
	sigmaBulk 4.62e-05 \
	Rvdw 2.61727 \
	Res 1.42 \
	tauNuc 343133 \
	poleEl 15 7 1
forces-output-coords Positions
initial-state jdft.$VAR
ion Cu   0.000081000000000   4.270603000000000  18.753748000000002 0
ion Cu   0.000081000000000  14.929095999999996  18.753748000000002 0
ion Cu   6.741090999999998   4.270603000000000  18.753748000000002 0
ion Cu   6.741090999999998  14.929095999999996  18.753748000000002 0
ion Cu   0.000040000000000   8.497291999999998  16.526592000000001 0
ion Cu   0.000040000000000  19.155785999999999  16.526592000000001 0
ion Cu   6.741063999999998   8.497291999999998  16.526592000000001 0
ion Cu   6.741063999999998  19.155785999999999  16.526592000000001 0
ion Cu   0.000040000000000   2.122149000000000  14.394083000000000 0
ion Cu   0.000040000000000  12.780642999999996  14.394083000000000 0
ion Cu   6.741063999999998   2.122149000000000  14.394083000000000 0
ion Cu   6.741063999999998  12.780642999999996  14.394083000000000 0
ion Cu  13.482006999999996   6.397227999999998  12.267265999999999 0
ion Cu  13.482006999999996  17.055721999999999  12.267265999999999 0
ion Cu   6.740982999999998   6.397227999999998  12.267265999999999 0
ion Cu   6.740982999999998  17.055721999999999  12.267265999999999 0
ion Cu  13.482032999999996  10.652291000000000  10.123118000000000 0
ion Cu  13.482032999999996  21.310805999999996  10.123118000000000 0
ion Cu   6.741009999999998  10.652291000000000  10.123118000000000 0
ion Cu   6.741009999999998  21.310805999999996  10.123118000000000 0
ion Cu  13.482006999999996   4.260753999999998   7.983894000000000 0
ion Cu  13.482006999999996  14.919247999999996   7.983894000000000 0
ion Cu   6.740982999999998   4.260753999999998   7.983894000000000 0
ion Cu   6.740982999999998  14.919247999999996   7.983894000000000 0
ion Cu  13.482006999999996   8.557705000000000   5.847356000000000 0
ion Cu  13.482006999999996  19.216197999999999   5.847356000000000 0
ion Cu   6.740982999999998   8.557705000000000   5.847356000000000 0
ion Cu   6.740982999999998  19.216197999999999   5.847356000000000 0
ion Cu  13.481992999999996   2.071883000000000   3.636763000000000 0
ion Cu  13.481992999999996  12.730376999999999   3.636763000000000 0
ion Cu   6.740969999999998   2.071883000000000   3.636763000000000 0
ion Cu   6.740969999999998  12.730376999999999   3.636763000000000 0
ion Cu  13.481965999999996   6.418374000000000   1.618855000000000 0
ion Cu  13.481965999999996  17.076868000000001   1.618855000000000 0
ion Cu   6.740942999999998   6.418374000000000   1.618855000000000 0
ion Cu   6.740942999999998  17.076868000000001   1.618855000000000 0
ion Cu   0.000108000000000  21.264206999999999  20.652643999999999 0
ion Cu   0.000108000000000  10.605691999999999  20.652643999999999 0
ion Cu   6.741130999999998  21.264206999999999  20.652643999999999 0
ion Cu   6.741130999999998  10.605691999999999  20.652643999999999 0
ion Cu   3.370606000000000   1.125814000000000  17.680523000000001 0
ion Cu   3.370606000000000  11.784307999999999  17.680523000000001 0
ion Cu  10.111629999999996   1.125814000000000  17.680523000000001 0
ion Cu  10.111629999999996  11.784307999999999  17.680523000000001 0
ion Cu   3.370552000000000   5.298337000000000  15.470505999999997 0
ion Cu   3.370552000000000  15.956809999999997  15.470505999999997 0
ion Cu  10.111588999999997   5.298337000000000  15.470505999999997 0
ion Cu  10.111588999999997  15.956809999999997  15.470505999999997 0
ion Cu   3.370539000000000   9.594797000000000  13.333137000000001 0
ion Cu   3.370539000000000  20.253270000000001  13.333137000000001 0
ion Cu  10.111561999999999   9.594797000000000  13.333137000000001 0
ion Cu  10.111561999999999  20.253270000000001  13.333137000000001 0
ion Cu   3.370498000000000   3.203048000000000  11.192953999999997 0
ion Cu   3.370498000000000  13.861541999999996  11.192953999999997 0
ion Cu  10.111521999999999   3.203048000000000  11.192953999999997 0
ion Cu  10.111521999999999  13.861541999999996  11.192953999999997 0
ion Cu   3.370525000000000   7.457982999999998   9.048870000000001 0
ion Cu   3.370525000000000  18.116475999999999   9.048870000000001 0
ion Cu  10.111548999999997   7.457982999999998   9.048870000000001 0
ion Cu  10.111548999999997  18.116475999999999   9.048870000000001 0
ion Cu   3.370485000000000   1.075058000000000   6.923907000000000 0
ion Cu   3.370485000000000  11.733552000000000   6.923907000000000 0
ion Cu  10.111494999999996   1.075058000000000   6.923907000000000 0
ion Cu  10.111494999999996  11.733552000000000   6.923907000000000 0
ion Cu   3.370485000000000   5.359027000000000   4.791206000000000 0
ion Cu   3.370485000000000  16.017541999999995   4.791206000000000 0
ion Cu  10.111507999999997   5.359027000000000   4.791206000000000 0
ion Cu  10.111507999999997  16.017541999999995   4.791206000000000 0
ion Cu   3.370417000000000   9.586184999999999   2.563410000000000 0
ion Cu   3.370417000000000  20.244678999999998   2.563410000000000 0
ion Cu  10.111440999999999   9.586184999999999   2.563410000000000 0
ion Cu  10.111440999999999  20.244678999999998   2.563410000000000 0
ion Cu   3.370431000000000   3.250627000000000   0.663491000000000 0
ion Cu   3.370431000000000  13.909120999999999   0.663491000000000 0
ion Cu  10.111453999999997   3.250627000000000   0.663491000000000 0
ion Cu  10.111453999999997  13.909120999999999   0.663491000000000 0
ion Cu   3.370606000000000   7.438563000000000  19.697409000000000 0
ion Cu   3.370606000000000  18.097057000000000  19.697409000000000 0
ion Cu  10.111629999999996   7.438563000000000  19.697409000000000 0
ion Cu  10.111629999999996  18.097057000000000  19.697409000000000 0
ion C   8.426386999999998   9.022137999999998  23.285256949710210 1  Linear 0 0 1
ion O   8.486476999999997   9.022137999999998  25.503283144080534 1  Linear 0 0 1
ion-species /projects/musgravc/apps/jdftx-1.6.0/build/pseudopotentials/GBRV_v1.5/$ID_pbe_v1.uspp
ion-species /projects/musgravc/apps/jdftx-1.6.0/build/pseudopotentials/GBRV_v1.5/$ID_pbe_v1.2.uspp
ion-species /projects/musgravc/apps/jdftx-1.6.0/build/pseudopotentials/GBRV_v1.5/$ID_pbe_v1.4.uspp
ion-species /projects/musgravc/apps/jdftx-1.6.0/build/pseudopotentials/GBRV_v1.5/$ID_pbe_v1.5.uspp
ion-width Ecut
ionic-minimize  \
	dirUpdateScheme      L-BFGS \
	linminMethod         DirUpdateRecommended \
	nIterations          100 \
	history              15 \
	knormThreshold       0.0001 \
	energyDiffThreshold  1e-06 \
	nEnergyDiff          2 \
	alphaTstart          1 \
	alphaTmin            1e-10 \
	updateTestStepSize   yes \
	alphaTreduceFactor   0.1 \
	alphaTincreaseFactor 3 \
	nAlphaAdjustMax      3 \
	wolfeEnergy          0.0001 \
	wolfeGradient        0.9 \
	fdTest               no
kpoint   0.000000000000   0.000000000000   0.000000000000  1.00000000000000
kpoint-folding 4 2 1 
latt-move-scale 0 0 0
latt-scale 1 1 1 
lattice  \
	  13.482047000000000    0.000000000000000    0.000000000000000  \
	   0.000000000000000   21.316987999999998    0.000000000000000  \
	   0.000000000000000    0.000000000000000   63.950963999999999 
lattice-minimize  \
	dirUpdateScheme      L-BFGS \
	linminMethod         DirUpdateRecommended \
	nIterations          0 \
	history              15 \
	knormThreshold       0 \
	energyDiffThreshold  1e-06 \
	nEnergyDiff          2 \
	alphaTstart          1 \
	alphaTmin            1e-10 \
	updateTestStepSize   yes \
	alphaTreduceFactor   0.1 \
	alphaTincreaseFactor 3 \
	nAlphaAdjustMax      3 \
	wolfeEnergy          0.0001 \
	wolfeGradient        0.9 \
	fdTest               no
lcao-params 30 1e-06 0.001
pcm-variant CANDLE
spintype z-spin
subspace-rotation-factor 1 yes
symmetries automatic
symmetry-threshold 0.0001
van-der-waals D3



---------- Setting up symmetries ----------

Found 8 point-group symmetries of the bravais lattice
Found 1 space-group symmetries with basis
Applied RMS atom displacement 0 bohrs to make symmetries exact.

---------- Initializing the Grid ----------
R = 
[       13.482            0            0  ]
[            0       21.317            0  ]
[            0            0       63.951  ]
unit cell volume = 18379.3
G =
[   0.466041          0          0  ]
[          0    0.29475          0  ]
[          0          0    0.09825  ]
Minimum fftbox size, Smin = [  56  88  260  ]
Chosen fftbox size, S = [  56  90  270  ]

---------- Exchange Correlation functional ----------
Initalized PBE GGA exchange.
Initalized PBE GGA correlation.

---------- Setting up pseudopotentials ----------
Width of ionic core gaussian charges (only for fluid interactions / plotting) set to 0.397384

Reading pseudopotential file '/projects/musgravc/apps/jdftx-1.6.0/build/pseudopotentials/GBRV_v1.5/cu_pbe_v1.2.uspp':
  Title: Cu.  Created by USPP 7.3.6 on 3-2-2014
  Reference state energy: -201.059491.  19 valence electrons in orbitals:
    |300>  occupation: 2  eigenvalue: -5.020764
    |310>  occupation: 6  eigenvalue: -3.445588
    |320>  occupation: 8  eigenvalue: -0.925168
    |400>  occupation: 2  eigenvalue: -0.567638
    |410>  occupation: 0  eigenvalue: -0.326154
  lMax: 2  lLocal: 3  QijEcut: 6
  6 projectors sampled on a log grid with 613 points:
    l: 0  eig: -5.020767  rCut: 1.4
    l: 0  eig: -0.567640  rCut: 1.4
    l: 1  eig: -3.445589  rCut: 1.55
    l: 1  eig: -0.326157  rCut: 1.55
    l: 2  eig: -0.925170  rCut: 1.5
    l: 2  eig: 1.500000  rCut: 1.5
  Partial core density with radius 0.8
  Transforming core density to a uniform radial grid of dG=0.02 with 1148 points.
  Transforming local potential to a uniform radial grid of dG=0.02 with 1148 points.
  Transforming nonlocal projectors to a uniform radial grid of dG=0.02 with 432 points.
  Transforming density augmentations to a uniform radial grid of dG=0.02 with 1148 points.
  Transforming atomic orbitals to a uniform radial grid of dG=0.02 with 432 points.
  Core radius for overlap checks: 1.55 bohrs.

Reading pseudopotential file '/projects/musgravc/apps/jdftx-1.6.0/build/pseudopotentials/GBRV_v1.5/c_pbe_v1.2.uspp':
  Title: C.  Created by USPP 7.3.6 on 3-2-2014
  Reference state energy: -5.406344.  4 valence electrons in orbitals:
    |200>  occupation: 2  eigenvalue: -0.504890
    |210>  occupation: 2  eigenvalue: -0.194356
  lMax: 1  lLocal: 2  QijEcut: 5
  4 projectors sampled on a log grid with 503 points:
    l: 0  eig: -0.504890  rCut: 1.3
    l: 0  eig: 0.000000  rCut: 1.3
    l: 1  eig: -0.194357  rCut: 1.3
    l: 1  eig: 0.000000  rCut: 1.3
  Partial core density with radius 1.1
  Transforming core density to a uniform radial grid of dG=0.02 with 1148 points.
  Transforming local potential to a uniform radial grid of dG=0.02 with 1148 points.
  Transforming nonlocal projectors to a uniform radial grid of dG=0.02 with 432 points.
  Transforming density augmentations to a uniform radial grid of dG=0.02 with 1148 points.
  Transforming atomic orbitals to a uniform radial grid of dG=0.02 with 432 points.
  Core radius for overlap checks: 1.30 bohrs.

Reading pseudopotential file '/projects/musgravc/apps/jdftx-1.6.0/build/pseudopotentials/GBRV_v1.5/o_pbe_v1.2.uspp':
  Title: O.  Created by USPP 7.3.6 on 3-2-2014
  Reference state energy: -15.894388.  6 valence electrons in orbitals:
    |200>  occupation: 2  eigenvalue: -0.878823
    |210>  occupation: 4  eigenvalue: -0.332131
  lMax: 2  lLocal: 2  QijEcut: 6
  5 projectors sampled on a log grid with 511 points:
    l: 0  eig: -0.878823  rCut: 1.25
    l: 0  eig: 0.000000  rCut: 1.25
    l: 1  eig: -0.332132  rCut: 1.25
    l: 1  eig: 0.000000  rCut: 1.25
    l: 2  eig: 1.000000  rCut: 1.25
  Partial core density with radius 0.7
  Transforming core density to a uniform radial grid of dG=0.02 with 1148 points.
  Transforming local potential to a uniform radial grid of dG=0.02 with 1148 points.
  Transforming nonlocal projectors to a uniform radial grid of dG=0.02 with 432 points.
  Transforming density augmentations to a uniform radial grid of dG=0.02 with 1148 points.
  Transforming atomic orbitals to a uniform radial grid of dG=0.02 with 432 points.
  Core radius for overlap checks: 1.25 bohrs.

Initialized 3 species with 82 total atoms.

Folded 1 k-points by 4x2x1 to 8 k-points.

---------- Setting up k-points, bands, fillings ----------
Adding inversion symmetry to k-mesh for non-inversion-symmetric unit cell.
Reduced to 6 k-points under symmetry. 
Computing the number of bands and number of electrons
Reading initial fillings from file jdft.fillings.
nElectrons: 1530.000000   nBands: 918   nStates: 12

----- Setting up reduced wavefunction bases (one per k-point) -----
average nbasis = 78533.125 , ideal nbasis = 78517.735

----- Initializing Supercell corresponding to k-point mesh -----
Lattice vector linear combinations in supercell:
[   4   0   0  ]
[   0   2   0  ]
[   0   0   1  ]
Supercell lattice vectors:
[  53.9282  0  0  ]
[  0  42.634  0  ]
[  0  0  63.951  ]

Initializing DFT-D3 calculator:
	Parameters set for gga-PBE functional
	s6:  1.000  s_r6:  1.217
	s8:  0.722  s_r8:  1.000
	Per-atom parameters loaded for:
	Cu:  sqrtQ[a0]:  5.226  Rcov[a0]:  1.909  CN: [ 0.00 0.96 ]
	 C:  sqrtQ[a0]:  3.105  Rcov[a0]:  1.417  CN: [ 0.00 0.99 2.00 3.00 3.98 ]
	 O:  sqrtQ[a0]:  2.594  Rcov[a0]:  1.191  CN: [ 0.00 0.99 1.99 ]

Initializing DFT-D2 calculator for fluid / solvation:
	Cu:  C6:  187.33 Eh-a0^6  R0: 2.952 a0
	 C:  C6:   30.35 Eh-a0^6  R0: 2.744 a0
	 O:  C6:   12.14 Eh-a0^6  R0: 2.536 a0

---------- Setting up ewald sum ----------
Optimum gaussian width for ewald sums = 5.051077 bohr.
Real space sum over 495 unit cells with max indices [  5  4  2  ]
Reciprocal space sum over 9503 terms with max indices [  6  8  21  ]

Computing DFT-D3 correction:
# coordination-number Cu 6.863 6.862 6.866 6.863 9.102 9.101 9.104 9.101 9.025 9.025 9.025 9.025 9.115 9.115 9.115 9.115 9.124 9.124 9.124 9.124 9.044 9.044 9.044 9.044 9.091 9.091 9.091 9.091 8.321 8.321 8.321 8.321 6.249 6.249 6.249 6.249 4.931 4.951 4.931 5.940 8.323 8.324 8.323 8.330 9.090 9.090 9.090 9.090 9.041 9.041 9.041 9.041 9.124 9.124 9.124 9.124 9.118 9.118 9.118 9.118 9.028 9.028 9.028 9.028 9.099 9.099 9.099 9.099 6.861 6.861 6.861 6.861 4.929 4.929 4.929 4.929 6.261 6.253 6.908 6.253
# coordination-number C 2.685
# coordination-number O 1.034
# diagonal-C6 Cu 175.00 175.00 175.00 175.00 175.00 175.00 175.00 175.00 175.00 175.00 175.00 175.00 175.00 175.00 175.00 175.00 175.00 175.00 175.00 175.00 175.00 175.00 175.00 175.00 175.00 175.00 175.00 175.00 175.00 175.00 175.00 175.00 175.00 175.00 175.00 175.00 175.00 175.00 175.00 175.00 175.00 175.00 175.00 175.00 175.00 175.00 175.00 175.00 175.00 175.00 175.00 175.00 175.00 175.00 175.00 175.00 175.00 175.00 175.00 175.00 175.00 175.00 175.00 175.00 175.00 175.00 175.00 175.00 175.00 175.00 175.00 175.00 175.00 175.00 175.00 175.00 175.00 175.00 175.00 175.00
# diagonal-C6 C 26.41
# diagonal-C6 O 12.78
EvdW_6 =   -0.478893
EvdW_8 =   -0.717110

---------- Allocating electronic variables ----------
Initializing wave functions:  reading from 'jdft.wfns'
----- createFluidSolver() ----- (Fluid-side solver setup)
   Initializing fluid molecule 'H2O'
     Initializing site 'O'
       Electron density: proportional to exp(-r/0.36935)*erfc((r-0.51523)/0.36823) with norm 6.826
       Charge density: gaussian nuclear width 0.478731 with net site charge 0.826
       Polarizability: cuspless exponential with width 0.32 and norm 3.73
       Hard sphere radius: 2.57003 bohrs
       Positions in reference frame:
         [ +0.000000 +0.000000 +0.000000 ]
     Initializing site 'H'
       Electron density: proportional to exp(-r/0.34641)*erfc((r-0)/0.390882) with norm 0.587
       Charge density: gaussian nuclear width 0.377945 with net site charge -0.413
       Polarizability: cuspless exponential with width 0.39 and norm 3.3
       Positions in reference frame:
         [ +0.000000 -1.441945 +1.122523 ]
         [ +0.000000 +1.441945 +1.122523 ]
     Net charge: 0   dipole magnitude: 0.927204
     Initializing spherical shell mfKernel with radius 2.61727 Bohr
     deltaS corrections:
       site 'O': -7.54299
       site 'H': -6.83917
   Initializing fluid molecule 'Na+'
     Initializing site 'Na'
       Electron density: proportional to exp(-r/0.19682)*erfc((r-0.71491)/0.41314) with norm 8.1383
       Charge density: gaussian nuclear width 0.365347 with net site charge -1
       Hard sphere radius: 1.86327 bohrs
       Positions in reference frame:
         [ +0.000000 +0.000000 +0.000000 ]
     Net charge: -1   dipole magnitude: 0
     Initializing gaussian mfKernel with width: 1.55004 Bohr
     deltaS corrections:
       site 'Na': -22.3555
   Initializing fluid molecule 'F-'
     Initializing site 'F'
       Electron density: proportional to exp(-r/0.38886)*erfc((r-0)/0.438782) with norm 8
       Charge density: gaussian nuclear width 0.374796 with net site charge 1
       Hard sphere radius: 2.39995 bohrs
       Positions in reference frame:
         [ +0.000000 +0.000000 +0.000000 ]
     Net charge: 1   dipole magnitude: 0
     Initializing gaussian mfKernel with width: 1.59012 Bohr
     deltaS corrections:
       site 'F': -9.04335

Correction to mu due to finite nuclear width = -0.0825966
   Cavity determined by nc: 0.00142 and sigma: 0.707107
   Nonlocal vdW cavity from gaussian model electron density with norm = 8 and sigma = 0.993594 bohr
   Charge asymmetry in cavity with sensitivity pCavity = 36.5 e-bohr/Eh
   Electrostatic cavity expanded by eta = 1.46 bohrs
   Weighted density cavitation model constrained by Nbulk: 0.0049383 bohr^-3, Pvap: 3.14029 kPa, Rvdw: 2.61727 bohr and sigmaBulk: 4.62e-05 Eh/bohr^2 at T: 298 K.
   Weighted density dispersion model using vdW pair potentials with single solvent site with sqrtC6eff: 0.77 SI.
Reading fluid state from 'jdft.fluidState'


---- Citations for features of the code used in this run ----

   Software package:
      R. Sundararaman, K. Letchworth-Weaver, K.A. Schwarz, D. Gunceler, Y. Ozhabes and T.A. Arias, 'JDFTx: software for joint density-functional theory', SoftwareX 6, 278 (2017)

   gga-PBE exchange-correlation functional:
      J.P. Perdew, K. Burke and M. Ernzerhof, Phys. Rev. Lett. 77, 3865 (1996)

   Pseudopotentials:
      KF Garrity, JW Bennett, KM Rabe and D Vanderbilt, Comput. Mater. Sci. 81, 446 (2014)

   DFT-D3 dispersion correction:
      S. Grimme, J. Antony, S. Ehrlich and H. Krieg, J. Chem. Phys. 132, 154104 (2010)

   DFT-D2 dispersion correction:
      S. Grimme, J. Comput. Chem. 27, 1787 (2006)

   Charge-asymmetric nonlocally-determined local-electric (CANDLE) solvation model:
      R. Sundararaman and W.A. Goddard III, J. Chem. Phys. 142, 064107 (2015)

   Total energy minimization with Auxiliary Hamiltonian:
      C. Freysoldt, S. Boeck, and J. Neugebauer, Phys. Rev. B 79, 241103(R) (2009)

   Linear-tetrahedron sampling for density of states:
      G. Lehmann and M. Taut, Phys. status solidi (b) 54, 469 (1972)

This list may not be complete. Please suggest additional citations or
report any other bugs at https://github.com/shankar1729/jdftx/issues

Initialization completed successfully at t[s]:    124.88


Computing DFT-D3 correction:
# coordination-number Cu 6.863 6.862 6.866 6.863 9.102 9.101 9.104 9.101 9.025 9.025 9.025 9.025 9.115 9.115 9.115 9.115 9.124 9.124 9.124 9.124 9.044 9.044 9.044 9.044 9.091 9.091 9.091 9.091 8.321 8.321 8.321 8.321 6.249 6.249 6.249 6.249 4.931 4.951 4.931 5.940 8.323 8.324 8.323 8.330 9.090 9.090 9.090 9.090 9.041 9.041 9.041 9.041 9.124 9.124 9.124 9.124 9.118 9.118 9.118 9.118 9.028 9.028 9.028 9.028 9.099 9.099 9.099 9.099 6.861 6.861 6.861 6.861 4.929 4.929 4.929 4.929 6.261 6.253 6.908 6.253
# coordination-number C 2.685
# coordination-number O 1.034
# diagonal-C6 Cu 175.00 175.00 175.00 175.00 175.00 175.00 175.00 175.00 175.00 175.00 175.00 175.00 175.00 175.00 175.00 175.00 175.00 175.00 175.00 175.00 175.00 175.00 175.00 175.00 175.00 175.00 175.00 175.00 175.00 175.00 175.00 175.00 175.00 175.00 175.00 175.00 175.00 175.00 175.00 175.00 175.00 175.00 175.00 175.00 175.00 175.00 175.00 175.00 175.00 175.00 175.00 175.00 175.00 175.00 175.00 175.00 175.00 175.00 175.00 175.00 175.00 175.00 175.00 175.00 175.00 175.00 175.00 175.00 175.00 175.00 175.00 175.00 175.00 175.00 175.00 175.00 175.00 175.00 175.00 175.00
# diagonal-C6 C 26.41
# diagonal-C6 O 12.78
EvdW_6 =   -0.478893
EvdW_8 =   -0.717110

-------- Electronic minimization -----------
	Linear fluid (dielectric constant: 78.4, screening length: 8.12261 Bohr) occupying 0.517245 of unit cell:	Completed after 7 iterations at t[s]:    167.86
	FillingsUpdate:  mu: -0.152044199  nElectrons: 1530.000000  magneticMoment: [ Abs: 0.00000  Tot: -0.00000 ]
ElecMinimize: Iter:   0  F: -16169.870658400219327  |grad|_K:  1.989e-07  alpha:  1.000e+00
	Linear fluid (dielectric constant: 78.4, screening length: 8.12261 Bohr) occupying 0.517235 of unit cell:	Completed after 18 iterations at t[s]:    652.49
	Linear fluid (dielectric constant: 78.4, screening length: 8.12261 Bohr) occupying 0.517245 of unit cell:	Completed after 19 iterations at t[s]:    809.81
	FillingsUpdate:  mu: -0.152288326  nElectrons: 1530.000000  magneticMoment: [ Abs: 0.00000  Tot: -0.00000 ]
	SubspaceRotationAdjust: set factor to 0.721
ElecMinimize: Iter:   1  F: -16169.870659911648545  |grad|_K:  2.626e-08  alpha:  4.315e-02  linmin: -3.079e-04  t[s]:   1024.62
	Linear fluid (dielectric constant: 78.4, screening length: 8.12261 Bohr) occupying 0.517245 of unit cell:	Completed after 1 iterations at t[s]:   1252.28
	Linear fluid (dielectric constant: 78.4, screening length: 8.12261 Bohr) occupying 0.517245 of unit cell:	Completed after 1 iterations at t[s]:   1403.33
	FillingsUpdate:  mu: -0.152273212  nElectrons: 1530.000000  magneticMoment: [ Abs: 0.00000  Tot: -0.00000 ]
	SubspaceRotationAdjust: set factor to 1.07
ElecMinimize: Iter:   2  F: -16169.870659970743873  |grad|_K:  1.241e-08  alpha:  9.648e-02  linmin: -6.391e-04  t[s]:   1618.04
	Linear fluid (dielectric constant: 78.4, screening length: 8.12261 Bohr) occupying 0.517246 of unit cell:	Completed after 0 iterations at t[s]:   1845.64
	Linear fluid (dielectric constant: 78.4, screening length: 8.12261 Bohr) occupying 0.517246 of unit cell:	Completed after 0 iterations at t[s]:   1995.60
	FillingsUpdate:  mu: -0.152270153  nElectrons: 1530.000000  magneticMoment: [ Abs: 0.00000  Tot: -0.00000 ]
	SubspaceRotationAdjust: set factor to 0.87
ElecMinimize: Iter:   3  F: -16169.870659995911410  |grad|_K:  7.886e-09  alpha:  1.333e-01  linmin: -1.659e-03  t[s]:   2210.35
ElecMinimize: Converged (|Delta F|<1.000000e-07 for 2 iters).
Setting wave functions to eigenvectors of Hamiltonian
Converging empty states (this may take a while): |deigs|: 4.038e-09

Computing DFT-D3 correction:
# coordination-number Cu 6.863 6.862 6.866 6.863 9.102 9.101 9.104 9.101 9.025 9.025 9.025 9.025 9.115 9.115 9.115 9.115 9.124 9.124 9.124 9.124 9.044 9.044 9.044 9.044 9.091 9.091 9.091 9.091 8.321 8.321 8.321 8.321 6.249 6.249 6.249 6.249 4.931 4.951 4.931 5.940 8.323 8.324 8.323 8.330 9.090 9.090 9.090 9.090 9.041 9.041 9.041 9.041 9.124 9.124 9.124 9.124 9.118 9.118 9.118 9.118 9.028 9.028 9.028 9.028 9.099 9.099 9.099 9.099 6.861 6.861 6.861 6.861 4.929 4.929 4.929 4.929 6.261 6.253 6.908 6.253
# coordination-number C 2.685
# coordination-number O 1.034
# diagonal-C6 Cu 175.00 175.00 175.00 175.00 175.00 175.00 175.00 175.00 175.00 175.00 175.00 175.00 175.00 175.00 175.00 175.00 175.00 175.00 175.00 175.00 175.00 175.00 175.00 175.00 175.00 175.00 175.00 175.00 175.00 175.00 175.00 175.00 175.00 175.00 175.00 175.00 175.00 175.00 175.00 175.00 175.00 175.00 175.00 175.00 175.00 175.00 175.00 175.00 175.00 175.00 175.00 175.00 175.00 175.00 175.00 175.00 175.00 175.00 175.00 175.00 175.00 175.00 175.00 175.00 175.00 175.00 175.00 175.00 175.00 175.00 175.00 175.00 175.00 175.00 175.00 175.00 175.00 175.00 175.00 175.00
# diagonal-C6 C 26.41
# diagonal-C6 O 12.78
EvdW_6 =   -0.478893
EvdW_8 =   -0.717110

# Ionic positions in cartesian coordinates:
ion Cu   0.000081000000000   4.270603000000000  18.753748000000002 0
ion Cu   0.000081000000000  14.929095999999996  18.753748000000002 0
ion Cu   6.741090999999998   4.270603000000000  18.753748000000002 0
ion Cu   6.741090999999998  14.929095999999996  18.753748000000002 0
ion Cu   0.000040000000000   8.497291999999998  16.526592000000001 0
ion Cu   0.000040000000000  19.155785999999999  16.526592000000001 0
ion Cu   6.741063999999998   8.497291999999998  16.526592000000001 0
ion Cu   6.741063999999998  19.155785999999999  16.526592000000001 0
ion Cu   0.000040000000000   2.122149000000000  14.394083000000000 0
ion Cu   0.000040000000000  12.780642999999996  14.394083000000000 0
ion Cu   6.741063999999998   2.122149000000000  14.394083000000000 0
ion Cu   6.741063999999998  12.780642999999996  14.394083000000000 0
ion Cu  13.482006999999996   6.397227999999998  12.267265999999999 0
ion Cu  13.482006999999996  17.055721999999999  12.267265999999999 0
ion Cu   6.740982999999998   6.397227999999998  12.267265999999999 0
ion Cu   6.740982999999998  17.055721999999999  12.267265999999999 0
ion Cu  13.482032999999996  10.652291000000000  10.123118000000000 0
ion Cu  13.482032999999996  21.310805999999996  10.123118000000000 0
ion Cu   6.741009999999998  10.652291000000000  10.123118000000000 0
ion Cu   6.741009999999998  21.310805999999996  10.123118000000000 0
ion Cu  13.482006999999996   4.260753999999998   7.983894000000000 0
ion Cu  13.482006999999996  14.919247999999996   7.983894000000000 0
ion Cu   6.740982999999998   4.260753999999998   7.983894000000000 0
ion Cu   6.740982999999998  14.919247999999996   7.983894000000000 0
ion Cu  13.482006999999996   8.557705000000000   5.847356000000000 0
ion Cu  13.482006999999996  19.216197999999999   5.847356000000000 0
ion Cu   6.740982999999998   8.557705000000000   5.847356000000000 0
ion Cu   6.740982999999998  19.216197999999999   5.847356000000000 0
ion Cu  13.481992999999996   2.071883000000000   3.636763000000000 0
ion Cu  13.481992999999996  12.730376999999999   3.636763000000000 0
ion Cu   6.740969999999998   2.071883000000000   3.636763000000000 0
ion Cu   6.740969999999998  12.730376999999999   3.636763000000000 0
ion Cu  13.481965999999996   6.418374000000000   1.618855000000000 0
ion Cu  13.481965999999996  17.076868000000001   1.618855000000000 0
ion Cu   6.740942999999998   6.418374000000000   1.618855000000000 0
ion Cu   6.740942999999998  17.076868000000001   1.618855000000000 0
ion Cu   0.000108000000000  21.264206999999999  20.652643999999999 0
ion Cu   0.000108000000000  10.605691999999999  20.652643999999999 0
ion Cu   6.741130999999998  21.264206999999999  20.652643999999999 0
ion Cu   6.741130999999998  10.605691999999999  20.652643999999999 0
ion Cu   3.370606000000000   1.125814000000000  17.680523000000001 0
ion Cu   3.370606000000000  11.784307999999999  17.680523000000001 0
ion Cu  10.111629999999996   1.125814000000000  17.680523000000001 0
ion Cu  10.111629999999996  11.784307999999999  17.680523000000001 0
ion Cu   3.370552000000000   5.298337000000000  15.470505999999997 0
ion Cu   3.370552000000000  15.956809999999997  15.470505999999997 0
ion Cu  10.111588999999997   5.298337000000000  15.470505999999997 0
ion Cu  10.111588999999997  15.956809999999997  15.470505999999997 0
ion Cu   3.370539000000000   9.594797000000000  13.333137000000001 0
ion Cu   3.370539000000000  20.253270000000001  13.333137000000001 0
ion Cu  10.111561999999999   9.594797000000000  13.333137000000001 0
ion Cu  10.111561999999999  20.253270000000001  13.333137000000001 0
ion Cu   3.370498000000000   3.203048000000000  11.192953999999997 0
ion Cu   3.370498000000000  13.861541999999996  11.192953999999997 0
ion Cu  10.111521999999999   3.203048000000000  11.192953999999997 0
ion Cu  10.111521999999999  13.861541999999996  11.192953999999997 0
ion Cu   3.370525000000000   7.457982999999998   9.048870000000001 0
ion Cu   3.370525000000000  18.116475999999999   9.048870000000001 0
ion Cu  10.111548999999997   7.457982999999998   9.048870000000001 0
ion Cu  10.111548999999997  18.116475999999999   9.048870000000001 0
ion Cu   3.370485000000000   1.075058000000000   6.923907000000000 0
ion Cu   3.370485000000000  11.733552000000000   6.923907000000000 0
ion Cu  10.111494999999996   1.075058000000000   6.923907000000000 0
ion Cu  10.111494999999996  11.733552000000000   6.923907000000000 0
ion Cu   3.370485000000000   5.359027000000000   4.791206000000000 0
ion Cu   3.370485000000000  16.017541999999995   4.791206000000000 0
ion Cu  10.111507999999997   5.359027000000000   4.791206000000000 0
ion Cu  10.111507999999997  16.017541999999995   4.791206000000000 0
ion Cu   3.370417000000000   9.586184999999999   2.563410000000000 0
ion Cu   3.370417000000000  20.244678999999998   2.563410000000000 0
ion Cu  10.111440999999999   9.586184999999999   2.563410000000000 0
ion Cu  10.111440999999999  20.244678999999998   2.563410000000000 0
ion Cu   3.370431000000000   3.250627000000000   0.663491000000000 0
ion Cu   3.370431000000000  13.909120999999999   0.663491000000000 0
ion Cu  10.111453999999997   3.250627000000000   0.663491000000000 0
ion Cu  10.111453999999997  13.909120999999999   0.663491000000000 0
ion Cu   3.370606000000000   7.438563000000000  19.697409000000000 0
ion Cu   3.370606000000000  18.097057000000000  19.697409000000000 0
ion Cu  10.111629999999996   7.438563000000000  19.697409000000000 0
ion Cu  10.111629999999996  18.097057000000000  19.697409000000000 0
ion C   8.426386999999998   9.022137999999998  23.285256949710210 1  Linear 0 0 1
ion O   8.486476999999997   9.022137999999998  25.503283144080534 1  Linear 0 0 1

# Forces in Cartesian coordinates:
force Cu  -0.000485099257506   0.000357089855580   0.000401542504060 0
force Cu  -0.000491978581804  -0.000203954419899   0.000051778368086 0
force Cu  -0.000301508741630  -0.001789336777490  -0.001480899185161 0
force Cu   0.000057261192082  -0.001161910522611   0.000303464112772 0
force Cu  -0.001007072283390  -0.000424831236811   0.000486327012187 0
force Cu  -0.000070067657052  -0.000445500046535   0.000590062118086 0
force Cu  -0.001865827178399  -0.001136956670330  -0.006995600199517 0
force Cu  -0.000052638074928  -0.000313806576831   0.000545704426886 0
force Cu   0.000046296006488   0.000059938558595  -0.000556819472764 0
force Cu   0.000888794371948   0.000052134869294  -0.000696426493378 0
force Cu   0.000029364834114  -0.000445748292889  -0.000695860690169 0
force Cu   0.000432993032146  -0.000680789749855   0.000700927912384 0
force Cu   0.000269210547072  -0.000283018834105   0.000205223119160 0
force Cu  -0.000303048620850  -0.000393960146273   0.000283061457868 0
force Cu   0.000262574500679  -0.000747565049538  -0.001014239467675 0
force Cu   0.000273963207485  -0.000391834156667   0.000734303362791 0
force Cu  -0.000278496096044   0.000153083042584  -0.000237337909936 0
force Cu   0.000047182546736   0.000200599004258  -0.000239000649181 0
force Cu   0.000017271643838   0.000087543624693   0.000441797433415 0
force Cu   0.000086061893494  -0.000038953278536  -0.000246548038352 0
force Cu   0.000023557870591   0.000090539979303   0.000104607275519 0
force Cu   0.000234709724967  -0.000025950405467   0.000784326740646 0
force Cu   0.000098332772577  -0.000490032086786  -0.000274765936304 0
force Cu   0.000660504541954   0.000236780471064   0.000262671587694 0
force Cu   0.000093953715245  -0.000035076961422   0.000217071252101 0
force Cu  -0.000037427930218   0.000266863736423  -0.000206260644138 0
force Cu  -0.000031586299211   0.000056164230958   0.000178180987226 0
force Cu   0.000048729267519   0.000097341889977  -0.000221385005420 0
force Cu   0.000032543222318   0.000538148158632  -0.000778212773316 0
force Cu  -0.000207882396948   0.000827142407404  -0.000947128779191 0
force Cu  -0.000024489737224   0.000702449041883  -0.001345928907498 0
force Cu  -0.000181995359201   0.000842053289733  -0.000862600843604 0
force Cu  -0.000234502037131   0.000049742321130  -0.000170715688546 0
force Cu  -0.000396658367039  -0.000230252704959   0.000134939031234 0
force Cu   0.000264374629753  -0.000367351040338  -0.000076709057376 0
force Cu   0.000260396146071  -0.000248813397588   0.000220289588644 0
force Cu   0.000075219825724   0.000036605717058   0.000139019263765 0
force Cu   0.002344428842652   0.000078769025375   0.000027687771687 0
force Cu  -0.000080983582040   0.000198043354128   0.000070228004477 0
force Cu  -0.006409111513843   0.003831663732435  -0.004150020360856 0
force Cu   0.000082873643816  -0.000333058295322   0.000939742161222 0
force Cu   0.001588207891575  -0.000952143116363   0.001934049907638 0
force Cu  -0.000211718263001  -0.000662161332291   0.000913316399348 0
force Cu   0.002376660741533   0.003970415129698  -0.005410680265868 0
force Cu   0.000434545723835   0.000033539329999   0.000338896315593 0
force Cu  -0.000388438904111   0.000425522040837  -0.000593449497870 0
force Cu  -0.000597640998537   0.001059499706867   0.001498576191234 0
force Cu  -0.000174398749982   0.000292787418784  -0.000384580488329 0
force Cu  -0.001178014418825  -0.000115131321130  -0.000884457959803 0
force Cu   0.000024740732908   0.000344707736994  -0.000286371914190 0
force Cu  -0.000550406394278  -0.000126152966029   0.000220416122815 0
force Cu   0.000052849915623   0.000396401666279  -0.000339743290227 0
force Cu   0.000147673352737   0.000026727236207   0.000577640571708 0
force Cu   0.000276228831498  -0.000403630561173   0.000321283669179 0
force Cu  -0.000120133573992   0.000120610045632   0.000987220287930 0
force Cu  -0.000079123325680  -0.000644992621529   0.000765873011364 0
force Cu   0.000053725787240   0.000501862254114  -0.000239122533301 0
force Cu  -0.000096887130471   0.000245291978011  -0.000103732062451 0
force Cu  -0.000071811782441   0.000432283808609  -0.000134580065156 0
force Cu  -0.000351728096226   0.000402056557179  -0.000468973669144 0
force Cu   0.000163105074128   0.000392456574614   0.000470348638633 0
force Cu  -0.000117646744349  -0.000037612762427   0.000424711773199 0
force Cu  -0.000232983313467   0.000345831633450   0.000720676420053 0
force Cu  -0.000392678306619   0.000086578121233  -0.000015820239141 0
force Cu   0.000104469896396   0.000397385531190  -0.000273322986102 0
force Cu   0.000319852888315   0.000204516290276  -0.000444944964858 0
force Cu  -0.000063156423203   0.000332097919062  -0.000561657531570 0
force Cu  -0.000012721787520   0.000333181595328  -0.000477201122813 0
force Cu   0.000127036484721   0.000126610914136  -0.000200222149977 0
force Cu   0.000101774041716   0.000247267037971   0.000028763392871 0
force Cu  -0.000076238397314   0.000042237276409  -0.000290000890625 0
force Cu  -0.000048894608500   0.000240796069490  -0.000221675989878 0
force Cu   0.000467060171322   0.000166654454081  -0.000201007934914 0
force Cu   0.000160513864341  -0.000325931628861  -0.000009448062994 0
force Cu  -0.000415653356368   0.000162700847726  -0.000223950240538 0
force Cu   0.000108120944098   0.000025150688456  -0.000173865142423 0
force Cu  -0.002458029225031  -0.000281789833471  -0.000466902711217 0
force Cu  -0.000000481612990   0.000201818941434   0.000193405396721 0
force Cu  -0.000375437568724  -0.000549745465552   0.013719945631865 0
force Cu  -0.000061590543872  -0.000137440047985  -0.000012086927246 0
force C   0.002568980912604   0.001386973151408   0.007518421369566 1  Linear 0 0 1
force O   0.004653830611002  -0.006403933044043  -0.004976051629222 1  Linear 0 0 1

# Energy components:
   A_diel =       -0.0042496697351799
   Eewald =   110235.9129923036962282
       EH =   125035.4854858571925433
     Eloc =  -254480.8401393432286568
      Enl =     2932.9846227470088706
     EvdW =       -1.1960029490154112
      Exc =    -1557.8479633568006193
 Exc_core =        3.8561824321574556
       KE =     1661.7817296086652732
  MuShift =       -0.0000000000021785
-------------------------------------
     Etot =   -16169.8673423700693093
       TS =        0.0033176258420390
-------------------------------------
        F =   -16169.8706599959114101


Dumping 'jdft.fillings' ... done
Dumping 'jdft.wfns' ... done
Dumping 'jdft.fluidState' ... done
Dumping 'jdft.ionpos' ... done
Dumping 'jdft.lattice' ... done
Dumping 'jdft.eigenvals' ... done
Dumping 'jdft.eigStats' ... 
	eMin: -4.305621 at state 6 ( [ +0.000000 +0.000000 +0.000000 ] spin -1 )
	HOMO: -0.152278 at state 2 ( [ +0.250000 +0.000000 +0.000000 ] spin 1 )
	mu  : -0.152270
	LUMO: -0.151576 at state 11 ( [ +0.500000 +0.500000 +0.000000 ] spin -1 )
	eMax: +0.191427 at state 10 ( [ +0.500000 +0.000000 +0.000000 ] spin -1 )
	HOMO-LUMO gap: +0.000702
	Optical gap  : +0.000934 at state 11 ( [ +0.500000 +0.500000 +0.000000 ] spin -1 )
Dumping 'jdft.Ecomponents' ... done
IonicMinimize: Iter:   0  F: -16169.870659995911410  |grad|_K:  6.375e-03  t[s]:   2865.60

#--- Lowdin population analysis ---
# oxidation-state Cu +0.089 +0.088 +0.092 +0.090 +0.036 +0.035 +0.043 +0.034 +0.077 +0.075 +0.076 +0.079 +0.075 +0.077 +0.074 +0.076 +0.077 +0.077 +0.075 +0.077 +0.077 +0.076 +0.076 +0.075 +0.053 +0.052 +0.052 +0.052 +0.023 +0.022 +0.022 +0.023 +0.113 +0.116 +0.109 +0.113 +0.250 +0.244 +0.248 +0.018 +0.022 +0.027 +0.024 +0.039 +0.052 +0.053 +0.053 +0.053 +0.075 +0.077 +0.077 +0.076 +0.077 +0.078 +0.076 +0.074 +0.075 +0.076 +0.076 +0.075 +0.077 +0.077 +0.076 +0.077 +0.036 +0.035 +0.036 +0.035 +0.085 +0.088 +0.086 +0.086 +0.244 +0.250 +0.240 +0.246 +0.124 +0.115 +0.056 +0.115
# magnetic-moments Cu -0.000 -0.000 -0.000 -0.000 -0.000 -0.000 -0.000 +0.000 -0.000 -0.000 +0.000 -0.000 -0.000 -0.000 -0.000 -0.000 +0.000 -0.000 -0.000 -0.000 +0.000 -0.000 +0.000 -0.000 -0.000 -0.000 +0.000 -0.000 -0.000 +0.000 +0.000 +0.000 -0.000 +0.000 +0.000 +0.000 +0.000 +0.000 +0.000 -0.000 -0.000 +0.000 +0.000 +0.000 +0.000 -0.000 +0.000 +0.000 +0.000 +0.000 +0.000 +0.000 -0.000 -0.000 +0.000 -0.000 +0.000 -0.000 -0.000 -0.000 +0.000 -0.000 -0.000 +0.000 -0.000 -0.000 +0.000 -0.000 -0.000 +0.000 -0.000 -0.000 -0.000 -0.000 -0.000 +0.000 +0.000 -0.000 -0.000 -0.000
# oxidation-state C +0.361
# magnetic-moments C -0.000
# oxidation-state O -0.151
# magnetic-moments O -0.000


Computing DFT-D3 correction:
# coordination-number Cu 6.863 6.862 6.866 6.863 9.102 9.101 9.104 9.101 9.025 9.025 9.025 9.025 9.115 9.115 9.115 9.115 9.124 9.124 9.124 9.124 9.044 9.044 9.044 9.044 9.091 9.091 9.091 9.091 8.321 8.321 8.321 8.321 6.249 6.249 6.249 6.249 4.931 4.950 4.931 5.940 8.323 8.324 8.323 8.330 9.090 9.090 9.090 9.090 9.041 9.041 9.041 9.041 9.124 9.124 9.124 9.124 9.118 9.118 9.118 9.118 9.028 9.028 9.028 9.028 9.099 9.099 9.099 9.099 6.861 6.861 6.861 6.861 4.929 4.929 4.929 4.929 6.261 6.253 6.903 6.253
# coordination-number C 2.678
# coordination-number O 1.034
# diagonal-C6 Cu 175.00 175.00 175.00 175.00 175.00 175.00 175.00 175.00 175.00 175.00 175.00 175.00 175.00 175.00 175.00 175.00 175.00 175.00 175.00 175.00 175.00 175.00 175.00 175.00 175.00 175.00 175.00 175.00 175.00 175.00 175.00 175.00 175.00 175.00 175.00 175.00 175.00 175.00 175.00 175.00 175.00 175.00 175.00 175.00 175.00 175.00 175.00 175.00 175.00 175.00 175.00 175.00 175.00 175.00 175.00 175.00 175.00 175.00 175.00 175.00 175.00 175.00 175.00 175.00 175.00 175.00 175.00 175.00 175.00 175.00 175.00 175.00 175.00 175.00 175.00 175.00 175.00 175.00 175.00 175.00
# diagonal-C6 C 26.44
# diagonal-C6 O 12.78
EvdW_6 =   -0.478895
EvdW_8 =   -0.717110

-------- Electronic minimization -----------
	Linear fluid (dielectric constant: 78.4, screening length: 8.12261 Bohr) occupying 0.517271 of unit cell:	Completed after 7 iterations at t[s]:   3132.94
	FillingsUpdate:  mu: -0.152114130  nElectrons: 1530.000000  magneticMoment: [ Abs: 0.00000  Tot: -0.00000 ]
ElecMinimize: Iter:   0  F: -16169.870609590001550  |grad|_K:  3.069e-07  alpha:  1.000e+00
	Linear fluid (dielectric constant: 78.4, screening length: 8.12261 Bohr) occupying 0.517239 of unit cell:	Completed after 13 iterations at t[s]:   3614.68
	Linear fluid (dielectric constant: 78.4, screening length: 8.12261 Bohr) occupying 0.517254 of unit cell:	Completed after 9 iterations at t[s]:   3769.49
	FillingsUpdate:  mu: -0.151790535  nElectrons: 1530.000000  magneticMoment: [ Abs: 0.00000  Tot: -0.00000 ]
	SubspaceRotationAdjust: set factor to 0.63
ElecMinimize: Iter:   1  F: -16169.870651923250989  |grad|_K:  3.586e-07  alpha:  5.192e-01  linmin:  1.002e-05  t[s]:   3984.60
	Linear fluid (dielectric constant: 78.4, screening length: 8.12261 Bohr) occupying 0.517192 of unit cell:	Completed after 15 iterations at t[s]:   4218.65
	Linear fluid (dielectric constant: 78.4, screening length: 8.12261 Bohr) occupying 0.517244 of unit cell:	Completed after 13 iterations at t[s]:   4375.08
	FillingsUpdate:  mu: -0.151997921  nElectrons: 1530.000000  magneticMoment: [ Abs: 0.00000  Tot: -0.00000 ]
	SubspaceRotationAdjust: set factor to 0.456
ElecMinimize: Iter:   2  F: -16169.870660117067018  |grad|_K:  1.752e-07  alpha:  7.418e-02  linmin:  2.107e-05  t[s]:   4589.98
	Linear fluid (dielectric constant: 78.4, screening length: 8.12261 Bohr) occupying 0.517243 of unit cell:	Completed after 3 iterations at t[s]:   4819.19
	Linear fluid (dielectric constant: 78.4, screening length: 8.12261 Bohr) occupying 0.517242 of unit cell:	Completed after 4 iterations at t[s]:   4971.83
	FillingsUpdate:  mu: -0.152004042  nElectrons: 1530.000000  magneticMoment: [ Abs: 0.00000  Tot: -0.00000 ]
	SubspaceRotationAdjust: set factor to 0.546
ElecMinimize: Iter:   3  F: -16169.870664846081127  |grad|_K:  1.493e-07  alpha:  1.780e-01  linmin:  1.745e-06  t[s]:   5186.39
	Linear fluid (dielectric constant: 78.4, screening length: 8.12261 Bohr) occupying 0.517240 of unit cell:	Completed after 7 iterations at t[s]:   5417.32
	Linear fluid (dielectric constant: 78.4, screening length: 8.12261 Bohr) occupying 0.517240 of unit cell:	Completed after 2 iterations at t[s]:   5569.04
	FillingsUpdate:  mu: -0.152005461  nElectrons: 1530.000000  magneticMoment: [ Abs: 0.00000  Tot: -0.00000 ]
	SubspaceRotationAdjust: set factor to 0.592
ElecMinimize: Iter:   4  F: -16169.870667717021206  |grad|_K:  1.080e-07  alpha:  1.496e-01  linmin: -3.409e-05  t[s]:   5783.26
	Linear fluid (dielectric constant: 78.4, screening length: 8.12261 Bohr) occupying 0.517238 of unit cell:	Completed after 2 iterations at t[s]:   6012.27
	Linear fluid (dielectric constant: 78.4, screening length: 8.12261 Bohr) occupying 0.517238 of unit cell:	Completed after 2 iterations at t[s]:   6164.85
	FillingsUpdate:  mu: -0.152044084  nElectrons: 1530.000000  magneticMoment: [ Abs: 0.00000  Tot: -0.00000 ]
	SubspaceRotationAdjust: set factor to 0.609
ElecMinimize: Iter:   5  F: -16169.870669553940388  |grad|_K:  7.670e-08  alpha:  1.791e-01  linmin: -5.349e-06  t[s]:   6380.12
	Linear fluid (dielectric constant: 78.4, screening length: 8.12261 Bohr) occupying 0.517235 of unit cell:	Completed after 2 iterations at t[s]:   6609.51
	Linear fluid (dielectric constant: 78.4, screening length: 8.12261 Bohr) occupying 0.517236 of unit cell:	Completed after 2 iterations at t[s]:   6762.17
	FillingsUpdate:  mu: -0.152046049  nElectrons: 1530.000000  magneticMoment: [ Abs: 0.00000  Tot: -0.00000 ]
	SubspaceRotationAdjust: set factor to 0.732
ElecMinimize: Iter:   6  F: -16169.870670181022433  |grad|_K:  5.490e-08  alpha:  1.230e-01  linmin:  5.258e-05  t[s]:   6977.28
	Linear fluid (dielectric constant: 78.4, screening length: 8.12261 Bohr) occupying 0.517235 of unit cell:	Completed after 2 iterations at t[s]:   7207.15
	Linear fluid (dielectric constant: 78.4, screening length: 8.12261 Bohr) occupying 0.517235 of unit cell:	Completed after 1 iterations at t[s]:   7359.37
	FillingsUpdate:  mu: -0.152035681  nElectrons: 1530.000000  magneticMoment: [ Abs: 0.00000  Tot: -0.00000 ]
	SubspaceRotationAdjust: set factor to 0.75
ElecMinimize: Iter:   7  F: -16169.870670602345854  |grad|_K:  3.524e-08  alpha:  1.622e-01  linmin: -3.095e-04  t[s]:   7574.51
	Linear fluid (dielectric constant: 78.4, screening length: 8.12261 Bohr) occupying 0.517234 of unit cell:	Completed after 2 iterations at t[s]:   7803.63
	Linear fluid (dielectric constant: 78.4, screening length: 8.12261 Bohr) occupying 0.517234 of unit cell:	Completed after 0 iterations at t[s]:   7954.52
	FillingsUpdate:  mu: -0.152028361  nElectrons: 1530.000000  magneticMoment: [ Abs: 0.00000  Tot: -0.00000 ]
	SubspaceRotationAdjust: set factor to 0.787
ElecMinimize: Iter:   8  F: -16169.870670748152406  |grad|_K:  2.906e-08  alpha:  1.272e-01  linmin:  2.385e-04  t[s]:   8170.00
	Linear fluid (dielectric constant: 78.4, screening length: 8.12261 Bohr) occupying 0.517233 of unit cell:	Completed after 2 iterations at t[s]:   8399.01
	Linear fluid (dielectric constant: 78.4, screening length: 8.12261 Bohr) occupying 0.517233 of unit cell:	Completed after 0 iterations at t[s]:   8550.36
	FillingsUpdate:  mu: -0.152026311  nElectrons: 1530.000000  magneticMoment: [ Abs: 0.00000  Tot: -0.00000 ]
	SubspaceRotationAdjust: set factor to 0.778
ElecMinimize: Iter:   9  F: -16169.870670821532258  |grad|_K:  2.001e-08  alpha:  1.075e-01  linmin:  1.207e-05  t[s]:   8766.33
	Linear fluid (dielectric constant: 78.4, screening length: 8.12261 Bohr) occupying 0.517232 of unit cell:	Completed after 0 iterations at t[s]:   8994.74
	Linear fluid (dielectric constant: 78.4, screening length: 8.12261 Bohr) occupying 0.517232 of unit cell:	Completed after 2 iterations at t[s]:   9147.09
	FillingsUpdate:  mu: -0.152037825  nElectrons: 1530.000000  magneticMoment: [ Abs: 0.00000  Tot: -0.00000 ]
	SubspaceRotationAdjust: set factor to 0.707
ElecMinimize: Iter:  10  F: -16169.870670854683340  |grad|_K:  2.314e-08  alpha:  1.956e-01  linmin:  1.092e-03  t[s]:   9362.00
ElecMinimize: Converged (|Delta F|<1.000000e-07 for 2 iters).
Setting wave functions to eigenvectors of Hamiltonian
Converging empty states (this may take a while): |deigs|: 6.648e-08

Computing DFT-D3 correction:
# coordination-number Cu 6.863 6.862 6.866 6.863 9.102 9.101 9.104 9.101 9.025 9.025 9.025 9.025 9.115 9.115 9.115 9.115 9.124 9.124 9.124 9.124 9.044 9.044 9.044 9.044 9.091 9.091 9.091 9.091 8.321 8.321 8.321 8.321 6.249 6.249 6.249 6.249 4.931 4.950 4.931 5.940 8.323 8.324 8.323 8.330 9.090 9.090 9.090 9.090 9.041 9.041 9.041 9.041 9.124 9.124 9.124 9.124 9.118 9.118 9.118 9.118 9.028 9.028 9.028 9.028 9.099 9.099 9.099 9.099 6.861 6.861 6.861 6.861 4.929 4.929 4.929 4.929 6.261 6.253 6.903 6.253
# coordination-number C 2.678
# coordination-number O 1.034
# diagonal-C6 Cu 175.00 175.00 175.00 175.00 175.00 175.00 175.00 175.00 175.00 175.00 175.00 175.00 175.00 175.00 175.00 175.00 175.00 175.00 175.00 175.00 175.00 175.00 175.00 175.00 175.00 175.00 175.00 175.00 175.00 175.00 175.00 175.00 175.00 175.00 175.00 175.00 175.00 175.00 175.00 175.00 175.00 175.00 175.00 175.00 175.00 175.00 175.00 175.00 175.00 175.00 175.00 175.00 175.00 175.00 175.00 175.00 175.00 175.00 175.00 175.00 175.00 175.00 175.00 175.00 175.00 175.00 175.00 175.00 175.00 175.00 175.00 175.00 175.00 175.00 175.00 175.00 175.00 175.00 175.00 175.00
# diagonal-C6 C 26.44
# diagonal-C6 O 12.78
EvdW_6 =   -0.478895
EvdW_8 =   -0.717110

# Ionic positions in cartesian coordinates:
ion Cu   0.000081000000000   4.270603000000000  18.753748000000002 0
ion Cu   0.000081000000000  14.929095999999996  18.753748000000002 0
ion Cu   6.741090999999998   4.270603000000000  18.753748000000002 0
ion Cu   6.741090999999998  14.929095999999996  18.753748000000002 0
ion Cu   0.000040000000000   8.497291999999998  16.526592000000001 0
ion Cu   0.000040000000000  19.155785999999999  16.526592000000001 0
ion Cu   6.741063999999998   8.497291999999998  16.526592000000001 0
ion Cu   6.741063999999998  19.155785999999999  16.526592000000001 0
ion Cu   0.000040000000000   2.122149000000000  14.394083000000000 0
ion Cu   0.000040000000000  12.780642999999996  14.394083000000000 0
ion Cu   6.741063999999998   2.122149000000000  14.394083000000000 0
ion Cu   6.741063999999998  12.780642999999996  14.394083000000000 0
ion Cu  13.482006999999996   6.397227999999998  12.267265999999999 0
ion Cu  13.482006999999996  17.055721999999999  12.267265999999999 0
ion Cu   6.740982999999998   6.397227999999998  12.267265999999999 0
ion Cu   6.740982999999998  17.055721999999999  12.267265999999999 0
ion Cu  13.482032999999996  10.652291000000000  10.123118000000000 0
ion Cu  13.482032999999996  21.310805999999996  10.123118000000000 0
ion Cu   6.741009999999998  10.652291000000000  10.123118000000000 0
ion Cu   6.741009999999998  21.310805999999996  10.123118000000000 0
ion Cu  13.482006999999996   4.260753999999998   7.983894000000000 0
ion Cu  13.482006999999996  14.919247999999996   7.983894000000000 0
ion Cu   6.740982999999998   4.260753999999998   7.983894000000000 0
ion Cu   6.740982999999998  14.919247999999996   7.983894000000000 0
ion Cu  13.482006999999996   8.557705000000000   5.847356000000000 0
ion Cu  13.482006999999996  19.216197999999999   5.847356000000000 0
ion Cu   6.740982999999998   8.557705000000000   5.847356000000000 0
ion Cu   6.740982999999998  19.216197999999999   5.847356000000000 0
ion Cu  13.481992999999996   2.071883000000000   3.636763000000000 0
ion Cu  13.481992999999996  12.730376999999999   3.636763000000000 0
ion Cu   6.740969999999998   2.071883000000000   3.636763000000000 0
ion Cu   6.740969999999998  12.730376999999999   3.636763000000000 0
ion Cu  13.481965999999996   6.418374000000000   1.618855000000000 0
ion Cu  13.481965999999996  17.076868000000001   1.618855000000000 0
ion Cu   6.740942999999998   6.418374000000000   1.618855000000000 0
ion Cu   6.740942999999998  17.076868000000001   1.618855000000000 0
ion Cu   0.000108000000000  21.264206999999999  20.652643999999999 0
ion Cu   0.000108000000000  10.605691999999999  20.652643999999999 0
ion Cu   6.741130999999998  21.264206999999999  20.652643999999999 0
ion Cu   6.741130999999998  10.605691999999999  20.652643999999999 0
ion Cu   3.370606000000000   1.125814000000000  17.680523000000001 0
ion Cu   3.370606000000000  11.784307999999999  17.680523000000001 0
ion Cu  10.111629999999996   1.125814000000000  17.680523000000001 0
ion Cu  10.111629999999996  11.784307999999999  17.680523000000001 0
ion Cu   3.370552000000000   5.298337000000000  15.470505999999997 0
ion Cu   3.370552000000000  15.956809999999997  15.470505999999997 0
ion Cu  10.111588999999997   5.298337000000000  15.470505999999997 0
ion Cu  10.111588999999997  15.956809999999997  15.470505999999997 0
ion Cu   3.370539000000000   9.594797000000000  13.333137000000001 0
ion Cu   3.370539000000000  20.253270000000001  13.333137000000001 0
ion Cu  10.111561999999999   9.594797000000000  13.333137000000001 0
ion Cu  10.111561999999999  20.253270000000001  13.333137000000001 0
ion Cu   3.370498000000000   3.203048000000000  11.192953999999997 0
ion Cu   3.370498000000000  13.861541999999996  11.192953999999997 0
ion Cu  10.111521999999999   3.203048000000000  11.192953999999997 0
ion Cu  10.111521999999999  13.861541999999996  11.192953999999997 0
ion Cu   3.370525000000000   7.457982999999998   9.048870000000001 0
ion Cu   3.370525000000000  18.116475999999999   9.048870000000001 0
ion Cu  10.111548999999997   7.457982999999998   9.048870000000001 0
ion Cu  10.111548999999997  18.116475999999999   9.048870000000001 0
ion Cu   3.370485000000000   1.075058000000000   6.923907000000000 0
ion Cu   3.370485000000000  11.733552000000000   6.923907000000000 0
ion Cu  10.111494999999996   1.075058000000000   6.923907000000000 0
ion Cu  10.111494999999996  11.733552000000000   6.923907000000000 0
ion Cu   3.370485000000000   5.359027000000000   4.791206000000000 0
ion Cu   3.370485000000000  16.017541999999995   4.791206000000000 0
ion Cu  10.111507999999997   5.359027000000000   4.791206000000000 0
ion Cu  10.111507999999997  16.017541999999995   4.791206000000000 0
ion Cu   3.370417000000000   9.586184999999999   2.563410000000000 0
ion Cu   3.370417000000000  20.244678999999998   2.563410000000000 0
ion Cu  10.111440999999999   9.586184999999999   2.563410000000000 0
ion Cu  10.111440999999999  20.244678999999998   2.563410000000000 0
ion Cu   3.370431000000000   3.250627000000000   0.663491000000000 0
ion Cu   3.370431000000000  13.909120999999999   0.663491000000000 0
ion Cu  10.111453999999997   3.250627000000000   0.663491000000000 0
ion Cu  10.111453999999997  13.909120999999999   0.663491000000000 0
ion Cu   3.370606000000000   7.438563000000000  19.697409000000000 0
ion Cu   3.370606000000000  18.097057000000000  19.697409000000000 0
ion Cu  10.111629999999996   7.438563000000000  19.697409000000000 0
ion Cu  10.111629999999996  18.097057000000000  19.697409000000000 0
ion C   8.426386999999998   9.022137999999998  23.292775371079774 1  Linear 0 0 1
[...]
	FillingsUpdate:  mu: -0.152131184  nElectrons: 1530.000000  magneticMoment: [ Abs: 0.00000  Tot: -0.00000 ]
	SubspaceRotationAdjust: set factor to 0.763
ElecMinimize: Iter:   1  F: -16169.870723772017300  |grad|_K:  7.607e-08  alpha:  7.321e-02  linmin:  3.484e-05  t[s]:  45713.64
	Linear fluid (dielectric constant: 78.4, screening length: 8.12261 Bohr) occupying 0.517065 of unit cell:	Completed after 2 iterations at t[s]:  45944.76
	Linear fluid (dielectric constant: 78.4, screening length: 8.12261 Bohr) occupying 0.517065 of unit cell:	Completed after 1 iterations at t[s]:  46096.77
	FillingsUpdate:  mu: -0.152094401  nElectrons: 1530.000000  magneticMoment: [ Abs: 0.00000  Tot: -0.00000 ]
	SubspaceRotationAdjust: set factor to 0.989
ElecMinimize: Iter:   2  F: -16169.870724257771144  |grad|_K:  3.655e-08  alpha:  9.580e-02  linmin: -5.601e-04  t[s]:  46311.61
	Linear fluid (dielectric constant: 78.4, screening length: 8.12261 Bohr) occupying 0.517065 of unit cell:	Completed after 2 iterations at t[s]:  46541.03
	Linear fluid (dielectric constant: 78.4, screening length: 8.12261 Bohr) occupying 0.517066 of unit cell:	Completed after 2 iterations at t[s]:  46693.53
	FillingsUpdate:  mu: -0.152041676  nElectrons: 1530.000000  magneticMoment: [ Abs: 0.00000  Tot: +0.00000 ]
	SubspaceRotationAdjust: set factor to 0.747
ElecMinimize: Iter:   3  F: -16169.870724537187925  |grad|_K:  3.312e-08  alpha:  2.101e-01  linmin: -1.045e-03  t[s]:  46908.51
	Linear fluid (dielectric constant: 78.4, screening length: 8.12261 Bohr) occupying 0.517064 of unit cell:	Completed after 2 iterations at t[s]:  47138.02
	Linear fluid (dielectric constant: 78.4, screening length: 8.12261 Bohr) occupying 0.517065 of unit cell:	Completed after 1 iterations at t[s]:  47289.61
	FillingsUpdate:  mu: -0.152092100  nElectrons: 1530.000000  magneticMoment: [ Abs: 0.00000  Tot: +0.00000 ]
	SubspaceRotationAdjust: set factor to 0.558
ElecMinimize: Iter:   4  F: -16169.870724693846569  |grad|_K:  2.940e-08  alpha:  1.387e-01  linmin:  5.318e-04  t[s]:  47504.88
	Linear fluid (dielectric constant: 78.4, screening length: 8.12261 Bohr) occupying 0.517065 of unit cell:	Completed after 2 iterations at t[s]:  47735.36
	Linear fluid (dielectric constant: 78.4, screening length: 8.12261 Bohr) occupying 0.517065 of unit cell:	Completed after 0 iterations at t[s]:  47886.51
	FillingsUpdate:  mu: -0.152078451  nElectrons: 1530.000000  magneticMoment: [ Abs: 0.00000  Tot: +0.00000 ]
	SubspaceRotationAdjust: set factor to 0.834
ElecMinimize: Iter:   5  F: -16169.870724766762578  |grad|_K:  1.968e-08  alpha:  1.144e-01  linmin: -1.493e-04  t[s]:  48101.03
	Linear fluid (dielectric constant: 78.4, screening length: 8.12261 Bohr) occupying 0.517065 of unit cell:	Completed after 1 iterations at t[s]:  48329.91
	Linear fluid (dielectric constant: 78.4, screening length: 8.12261 Bohr) occupying 0.517065 of unit cell:	Completed after 0 iterations at t[s]:  48481.49
	FillingsUpdate:  mu: -0.152069521  nElectrons: 1530.000000  magneticMoment: [ Abs: 0.00000  Tot: +0.00000 ]
	SubspaceRotationAdjust: set factor to 0.98
ElecMinimize: Iter:   6  F: -16169.870724810520187  |grad|_K:  1.075e-08  alpha:  1.244e-01  linmin: -1.396e-03  t[s]:  48697.10
ElecMinimize: Converged (|Delta F|<1.000000e-07 for 2 iters).
Setting wave functions to eigenvectors of Hamiltonian
Converging empty states (this may take a while): |deigs|: 1.334e-09

Computing DFT-D3 correction:
# coordination-number Cu 6.863 6.862 6.866 6.863 9.102 9.101 9.104 9.101 9.025 9.025 9.025 9.025 9.115 9.115 9.115 9.115 9.124 9.124 9.124 9.124 9.044 9.044 9.044 9.044 9.091 9.091 9.091 9.091 8.321 8.321 8.321 8.321 6.249 6.249 6.249 6.249 4.931 4.950 4.931 5.936 8.323 8.324 8.323 8.329 9.090 9.090 9.090 9.090 9.041 9.041 9.041 9.041 9.124 9.124 9.124 9.124 9.118 9.118 9.118 9.118 9.028 9.028 9.028 9.028 9.099 9.099 9.099 9.099 6.861 6.861 6.861 6.861 4.929 4.929 4.929 4.929 6.261 6.253 6.878 6.253
# coordination-number C 2.651
# coordination-number O 1.032
# diagonal-C6 Cu 175.00 175.00 175.00 175.00 175.00 175.00 175.00 175.00 175.00 175.00 175.00 175.00 175.00 175.00 175.00 175.00 175.00 175.00 175.00 175.00 175.00 175.00 175.00 175.00 175.00 175.00 175.00 175.00 175.00 175.00 175.00 175.00 175.00 175.00 175.00 175.00 175.00 175.00 175.00 175.00 175.00 175.00 175.00 175.00 175.00 175.00 175.00 175.00 175.00 175.00 175.00 175.00 175.00 175.00 175.00 175.00 175.00 175.00 175.00 175.00 175.00 175.00 175.00 175.00 175.00 175.00 175.00 175.00 175.00 175.00 175.00 175.00 175.00 175.00 175.00 175.00 175.00 175.00 175.00 175.00
# diagonal-C6 C 26.57
# diagonal-C6 O 12.79
EvdW_6 =   -0.478887
EvdW_8 =   -0.717098

# Ionic positions in cartesian coordinates:
ion Cu   0.000081000000000   4.270603000000000  18.753748000000002 0
ion Cu   0.000081000000000  14.929095999999996  18.753748000000002 0
ion Cu   6.741090999999998   4.270603000000000  18.753748000000002 0
ion Cu   6.741090999999998  14.929095999999996  18.753748000000002 0
ion Cu   0.000040000000000   8.497291999999998  16.526592000000001 0
ion Cu   0.000040000000000  19.155785999999999  16.526592000000001 0
ion Cu   6.741063999999998   8.497291999999998  16.526592000000001 0
ion Cu   6.741063999999998  19.155785999999999  16.526592000000001 0
ion Cu   0.000040000000000   2.122149000000000  14.394083000000000 0
ion Cu   0.000040000000000  12.780642999999996  14.394083000000000 0
ion Cu   6.741063999999998   2.122149000000000  14.394083000000000 0
ion Cu   6.741063999999998  12.780642999999996  14.394083000000000 0
ion Cu  13.482006999999996   6.397227999999998  12.267265999999999 0
ion Cu  13.482006999999996  17.055721999999999  12.267265999999999 0
ion Cu   6.740982999999998   6.397227999999998  12.267265999999999 0
ion Cu   6.740982999999998  17.055721999999999  12.267265999999999 0
ion Cu  13.482032999999996  10.652291000000000  10.123118000000000 0
ion Cu  13.482032999999996  21.310805999999996  10.123118000000000 0
ion Cu   6.741009999999998  10.652291000000000  10.123118000000000 0
ion Cu   6.741009999999998  21.310805999999996  10.123118000000000 0
ion Cu  13.482006999999996   4.260753999999998   7.983894000000000 0
ion Cu  13.482006999999996  14.919247999999996   7.983894000000000 0
ion Cu   6.740982999999998   4.260753999999998   7.983894000000000 0
ion Cu   6.740982999999998  14.919247999999996   7.983894000000000 0
ion Cu  13.482006999999996   8.557705000000000   5.847356000000000 0
ion Cu  13.482006999999996  19.216197999999999   5.847356000000000 0
ion Cu   6.740982999999998   8.557705000000000   5.847356000000000 0
ion Cu   6.740982999999998  19.216197999999999   5.847356000000000 0
ion Cu  13.481992999999996   2.071883000000000   3.636763000000000 0
ion Cu  13.481992999999996  12.730376999999999   3.636763000000000 0
ion Cu   6.740969999999998   2.071883000000000   3.636763000000000 0
ion Cu   6.740969999999998  12.730376999999999   3.636763000000000 0
ion Cu  13.481965999999996   6.418374000000000   1.618855000000000 0
ion Cu  13.481965999999996  17.076868000000001   1.618855000000000 0
ion Cu   6.740942999999998   6.418374000000000   1.618855000000000 0
ion Cu   6.740942999999998  17.076868000000001   1.618855000000000 0
ion Cu   0.000108000000000  21.264206999999999  20.652643999999999 0
ion Cu   0.000108000000000  10.605691999999999  20.652643999999999 0
ion Cu   6.741130999999998  21.264206999999999  20.652643999999999 0
ion Cu   6.741130999999998  10.605691999999999  20.652643999999999 0
ion Cu   3.370606000000000   1.125814000000000  17.680523000000001 0
ion Cu   3.370606000000000  11.784307999999999  17.680523000000001 0
ion Cu  10.111629999999996   1.125814000000000  17.680523000000001 0
ion Cu  10.111629999999996  11.784307999999999  17.680523000000001 0
ion Cu   3.370552000000000   5.298337000000000  15.470505999999997 0
ion Cu   3.370552000000000  15.956809999999997  15.470505999999997 0
ion Cu  10.111588999999997   5.298337000000000  15.470505999999997 0
ion Cu  10.111588999999997  15.956809999999997  15.470505999999997 0
ion Cu   3.370539000000000   9.594797000000000  13.333137000000001 0
ion Cu   3.370539000000000  20.253270000000001  13.333137000000001 0
ion Cu  10.111561999999999   9.594797000000000  13.333137000000001 0
ion Cu  10.111561999999999  20.253270000000001  13.333137000000001 0
ion Cu   3.370498000000000   3.203048000000000  11.192953999999997 0
ion Cu   3.370498000000000  13.861541999999996  11.192953999999997 0
ion Cu  10.111521999999999   3.203048000000000  11.192953999999997 0
ion Cu  10.111521999999999  13.861541999999996  11.192953999999997 0
ion Cu   3.370525000000000   7.457982999999998   9.048870000000001 0
ion Cu   3.370525000000000  18.116475999999999   9.048870000000001 0
ion Cu  10.111548999999997   7.457982999999998   9.048870000000001 0
ion Cu  10.111548999999997  18.116475999999999   9.048870000000001 0
ion Cu   3.370485000000000   1.075058000000000   6.923907000000000 0
ion Cu   3.370485000000000  11.733552000000000   6.923907000000000 0
ion Cu  10.111494999999996   1.075058000000000   6.923907000000000 0
ion Cu  10.111494999999996  11.733552000000000   6.923907000000000 0
ion Cu   3.370485000000000   5.359027000000000   4.791206000000000 0
ion Cu   3.370485000000000  16.017541999999995   4.791206000000000 0
ion Cu  10.111507999999997   5.359027000000000   4.791206000000000 0
ion Cu  10.111507999999997  16.017541999999995   4.791206000000000 0
ion Cu   3.370417000000000   9.586184999999999   2.563410000000000 0
ion Cu   3.370417000000000  20.244678999999998   2.563410000000000 0
ion Cu  10.111440999999999   9.586184999999999   2.563410000000000 0
ion Cu  10.111440999999999  20.244678999999998   2.563410000000000 0
ion Cu   3.370431000000000   3.250627000000000   0.663491000000000 0
ion Cu   3.370431000000000  13.909120999999999   0.663491000000000 0
ion Cu  10.111453999999997   3.250627000000000   0.663491000000000 0
ion Cu  10.111453999999997  13.909120999999999   0.663491000000000 0
ion Cu   3.370606000000000   7.438563000000000  19.697409000000000 0
ion Cu   3.370606000000000  18.097057000000000  19.697409000000000 0
ion Cu  10.111629999999996   7.438563000000000  19.697409000000000 0
ion Cu  10.111629999999996  18.097057000000000  19.697409000000000 0
ion C   8.426386999999998   9.022137999999998  23.324597547718504 1  Linear 0 0 1
ion O   8.486476999999997   9.022137999999998  25.535329543505789 1  Linear 0 0 1

# Forces in Cartesian coordinates:
force Cu  -0.000474870333040   0.000351046566844   0.000354387007092 0
force Cu  -0.000485786302945  -0.000208370571413  -0.000035882353302 0
force Cu  -0.000282957204033  -0.001712919830162  -0.001487508129282 0
force Cu   0.000057551625355  -0.001178940859147   0.000239036972141 0
force Cu  -0.001008657616981  -0.000420300234373   0.000447422017271 0
force Cu  -0.000068157419883  -0.000440040435820   0.000537663496794 0
force Cu  -0.001805837484580  -0.001112733392600  -0.006830717278441 0
force Cu  -0.000057621870124  -0.000310672998420   0.000492833484127 0
force Cu   0.000052107475455   0.000069237862611  -0.000555046193448 0
force Cu   0.000911839325424   0.000041676767939  -0.000716055546112 0
force Cu   0.000023073484352  -0.000439098780085  -0.000702208787732 0
force Cu   0.000423830885747  -0.000671865454412   0.000636487911214 0
force Cu   0.000269911745083  -0.000277220834315   0.000236202051903 0
force Cu  -0.000297185243329  -0.000398599185309   0.000296396579347 0
force Cu   0.000253680505218  -0.000724393696983  -0.000987517900078 0
force Cu   0.000268974577236  -0.000391089043192   0.000749788747836 0
force Cu  -0.000271523609737   0.000158555721830  -0.000247412499629 0
force Cu   0.000045068526856   0.000211231025042  -0.000253580574306 0
force Cu   0.000020009582462   0.000078726283165   0.000450548741714 0
force Cu   0.000089616265532  -0.000024324789661  -0.000267284787981 0
force Cu   0.000024146716353   0.000090492098254   0.000072299219021 0
force Cu   0.000237116061291  -0.000023737635262   0.000728187110007 0
force Cu   0.000098685884396  -0.000481751135940  -0.000302854835741 0
force Cu   0.000661659987323   0.000240168225909   0.000211225495534 0
force Cu   0.000094305595085  -0.000027370095812   0.000187372902041 0
force Cu  -0.000037431210507   0.000270762404209  -0.000240000506823 0
force Cu  -0.000024502108225   0.000065663341645   0.000160942153925 0
force Cu   0.000042106055550   0.000100917337611  -0.000249153040840 0
force Cu   0.000031340948446   0.000522587387870  -0.000775971143022 0
force Cu  -0.000206065472546   0.000823001721588  -0.000944361077158 0
force Cu  -0.000022850654321   0.000684026296907  -0.001342063865426 0
force Cu  -0.000186275084567   0.000854283355040  -0.000866937656154 0
force Cu  -0.000233078563699   0.000046489859300  -0.000138823831658 0
force Cu  -0.000398405406354  -0.000215036928119   0.000187911890400 0
force Cu   0.000259979864918  -0.000377040148137  -0.000042280974844 0
force Cu   0.000264974940322  -0.000246062203303   0.000261310135825 0
force Cu   0.000074441150525   0.000054009835198   0.000076785678381 0
force Cu   0.002300027054562   0.000037553401839  -0.000021393740409 0
force Cu  -0.000082574332367   0.000219349113001   0.000011641612111 0
force Cu  -0.004748008962725   0.002255665322385  -0.001573489414346 0
force Cu   0.000077482361239  -0.000323317115116   0.000880374048721 0
force Cu   0.001629360323690  -0.000967624057248   0.001900806805780 0
force Cu  -0.000207943716303  -0.000651657062114   0.000857586041400 0
force Cu   0.002318156611244   0.003833019451988  -0.005349289986135 0
force Cu   0.000423726075928   0.000030021399948   0.000300170520237 0
force Cu  -0.000388455352593   0.000403811960166  -0.000625531982709 0
force Cu  -0.000591801539506   0.001035888783568   0.001459728618977 0
force Cu  -0.000177321817568   0.000284309314316  -0.000415991297654 0
force Cu  -0.001171050327263  -0.000115983136542  -0.000868524388274 0
force Cu   0.000026250039785   0.000345267101092  -0.000264197020768 0
force Cu  -0.000541117521815  -0.000126897043105   0.000168207337924 0
force Cu   0.000049062022218   0.000390814795274  -0.000323829236297 0
force Cu   0.000147115122041   0.000034566677208   0.000587463565387 0
force Cu   0.000267053492165  -0.000407606039882   0.000324741272190 0
force Cu  -0.000124858767082   0.000126574713291   0.000989188578756 0
force Cu  -0.000072092792083  -0.000653241028450   0.000773164710781 0
force Cu   0.000045647790205   0.000494718415807  -0.000254175814015 0
force Cu  -0.000094942259547   0.000239936742559  -0.000146113400037 0
force Cu  -0.000076833277308   0.000431602221653  -0.000160876336566 0
force Cu  -0.000356503911567   0.000397578229698  -0.000505414195467 0
force Cu   0.000163141985544   0.000384787921280   0.000423099366235 0
force Cu  -0.000116915219303  -0.000023104738997   0.000384645011974 0
force Cu  -0.000230173657522   0.000333241529756   0.000670985787107 0
force Cu  -0.000404077883172   0.000089956875534  -0.000046234604357 0
force Cu   0.000100932367334   0.000393281063195  -0.000284458807374 0
force Cu   0.000320445679039   0.000216164295776  -0.000451319954048 0
force Cu  -0.000053240187742   0.000322147029951  -0.000564886752829 0
force Cu  -0.000008635158809   0.000343086813559  -0.000487378003368 0
force Cu   0.000120413719690   0.000126896079430  -0.000184655118632 0
force Cu   0.000099234312192   0.000239372271620   0.000042548342664 0
force Cu  -0.000062762260168   0.000045915396368  -0.000272480132576 0
force Cu  -0.000050203257646   0.000230421680940  -0.000206140827678 0
force Cu   0.000468379924633   0.000151418613369  -0.000148938493813 0
force Cu   0.000169038926643  -0.000321143867232   0.000069722061831 0
force Cu  -0.000419007561964   0.000154694787476  -0.000178165298588 0
force Cu   0.000095912328176   0.000040980104267  -0.000088740667334 0
force Cu  -0.002407435095977  -0.000286296132566  -0.000502070469432 0
force Cu   0.000000356805134   0.000212759618521   0.000110997942806 0
force Cu  -0.000268912699820  -0.000620939711635   0.013384210713402 0
force Cu  -0.000057331062017  -0.000120343976971  -0.000084502457609 0
force C   0.000675829657683   0.002921378088598  -0.000069568777139 1  Linear 0 0 1
force O   0.004735656253151  -0.006315284836213   0.000071162195212 1  Linear 0 0 1

# Energy components:
   A_diel =       -0.0040180356742639
   Eewald =   110229.2918421843642136
       EH =   125029.2762614507810213
     Eloc =  -254468.0133093288459349
      Enl =     2932.9864478680578941
     EvdW =       -1.1959850475409053
      Exc =    -1557.8465609788568145
 Exc_core =        3.8561776854693850
       KE =     1661.7817670642020857
  MuShift =       -0.0000000000021785
-------------------------------------
     Etot =   -16169.8673771380454127
       TS =        0.0033476724739767
-------------------------------------
        F =   -16169.8707248105201870


Dumping 'jdft.fillings' ... done
Dumping 'jdft.wfns' ... done
Dumping 'jdft.fluidState' ... done
Dumping 'jdft.ionpos' ... done
Dumping 'jdft.lattice' ... done
Dumping 'jdft.eigenvals' ... done
Dumping 'jdft.eigStats' ... 
	eMin: -4.304105 at state 6 ( [ +0.000000 +0.000000 +0.000000 ] spin -1 )
	HOMO: -0.152309 at state 5 ( [ +0.500000 +0.500000 +0.000000 ] spin 1 )
	mu  : -0.152070
	LUMO: -0.152050 at state 2 ( [ +0.250000 +0.000000 +0.000000 ] spin 1 )
	eMax: +0.191431 at state 4 ( [ +0.500000 +0.000000 +0.000000 ] spin 1 )
	HOMO-LUMO gap: +0.000259
	Optical gap  : +0.000846 at state 5 ( [ +0.500000 +0.500000 +0.000000 ] spin 1 )
Dumping 'jdft.Ecomponents' ... done
IonicMinimize: Iter:   6  F: -16169.870724810520187  |grad|_K:  7.037e-05  alpha:  1.000e+00  linmin:  4.514e-04  t[s]:  49353.41
IonicMinimize: Converged (|grad|_K<1.000000e-04).

#--- Lowdin population analysis ---
# oxidation-state Cu +0.089 +0.088 +0.092 +0.090 +0.036 +0.035 +0.043 +0.034 +0.077 +0.075 +0.076 +0.079 +0.075 +0.077 +0.074 +0.076 +0.077 +0.077 +0.075 +0.076 +0.077 +0.076 +0.076 +0.075 +0.053 +0.052 +0.052 +0.052 +0.023 +0.022 +0.022 +0.023 +0.112 +0.116 +0.109 +0.112 +0.249 +0.243 +0.248 +0.019 +0.022 +0.027 +0.024 +0.039 +0.052 +0.053 +0.054 +0.053 +0.075 +0.077 +0.077 +0.076 +0.077 +0.078 +0.076 +0.074 +0.075 +0.076 +0.076 +0.075 +0.077 +0.077 +0.076 +0.077 +0.036 +0.035 +0.036 +0.036 +0.085 +0.089 +0.086 +0.086 +0.244 +0.249 +0.239 +0.246 +0.123 +0.114 +0.058 +0.114
# magnetic-moments Cu +0.000 -0.000 -0.000 -0.000 -0.000 +0.000 +0.000 -0.000 +0.000 +0.000 +0.000 +0.000 -0.000 +0.000 +0.000 +0.000 -0.000 +0.000 +0.000 -0.000 +0.000 -0.000 -0.000 +0.000 +0.000 -0.000 +0.000 -0.000 -0.000 +0.000 +0.000 +0.000 +0.000 -0.000 +0.000 +0.000 -0.000 +0.000 -0.000 -0.000 -0.000 -0.000 +0.000 +0.000 +0.000 +0.000 -0.000 +0.000 +0.000 -0.000 -0.000 -0.000 -0.000 -0.000 +0.000 -0.000 -0.000 +0.000 -0.000 +0.000 +0.000 -0.000 -0.000 +0.000 +0.000 -0.000 +0.000 -0.000 -0.000 +0.000 +0.000 +0.000 -0.000 +0.000 -0.000 -0.000 +0.000 -0.000 -0.000 +0.000
# oxidation-state C +0.362
# magnetic-moments C +0.000
# oxidation-state O -0.146
# magnetic-moments O -0.000


Dumping 'jdft.n_up' ... done
Dumping 'jdft.n_dn' ... done
Dumping 'jdft.tau_up' ... done
Dumping 'jdft.tau_dn' ... done
Dumping 'jdft.eigenvals' ... done
Dumping 'jdft.eigStats' ... 
	eMin: -4.304105 at state 6 ( [ +0.000000 +0.000000 +0.000000 ] spin -1 )
	HOMO: -0.152309 at state 5 ( [ +0.500000 +0.500000 +0.000000 ] spin 1 )
	mu  : -0.152070
	LUMO: -0.152050 at state 2 ( [ +0.250000 +0.000000 +0.000000 ] spin 1 )
	eMax: +0.191431 at state 4 ( [ +0.500000 +0.000000 +0.000000 ] spin 1 )
	HOMO-LUMO gap: +0.000259
	Optical gap  : +0.000846 at state 5 ( [ +0.500000 +0.500000 +0.000000 ] spin 1 )
Dumping 'jdft.kPts' ... done
Dumping 'jdft.kMap' ... done
Dumping 'jdft.dosUp' ... done.
Dumping 'jdft.dosDn' ... done.
End date and time: Sun Feb 20 14:33:42 2022  (Duration: 0-13:47:48.11)
Done!
