
*************** JDFTx 1.6.0  ***************

Start date and time: Sun Mar 13 11:58:28 2022
Executable /projects/musgravc/apps/jdftx-1.6.1/build/jdftx with command-line: -i in
Running on hosts (process indices):  shas0809.rc.int.colorado.edu (0-23)
Divided in process groups (process indices):  0 (0)  1 (1)  2 (2)  3 (3)  4 (4)  5 (5)  6 (6)  7 (7)  8 (8)  9 (9)  10 (10)  11 (11)  12 (12)  13 (13)  14 (14)  15 (15)  16 (16)  17 (17)  18 (18)  19 (19)  20 (20)  21 (21)  22 (22)  23 (23)
Resource initialization completed at t[s]:      0.00
Run totals: 24 processes, 24 threads, 0 GPUs


Input parsed successfully to the following command list (including defaults):

basis kpoint-dependent
converge-empty-states yes
coords-type Cartesian
core-overlap-check none
coulomb-interaction Periodic
davidson-band-ratio 1.1
density-of-states Etol 1.000000e-06 Esigma 1.000000e-03 \
		Complete \
	Total \
	OrthoOrbital Ni 1   s \
	OrthoOrbital Ni 1   p \
	OrthoOrbital Ni 1   px \
	OrthoOrbital Ni 1   py \
	OrthoOrbital Ni 1   pz \
	OrthoOrbital Ni 1   d \
	OrthoOrbital Ni 1   dxy \
	OrthoOrbital Ni 1   dyz \
	OrthoOrbital Ni 1   dz2 \
	OrthoOrbital Ni 1   dxz \
	OrthoOrbital Ni 1   dx2-y2 \
	OrthoOrbital Ni 2   s \
	OrthoOrbital Ni 2   p \
	OrthoOrbital Ni 2   px \
	OrthoOrbital Ni 2   py \
	OrthoOrbital Ni 2   pz \
	OrthoOrbital Ni 2   d \
	OrthoOrbital Ni 2   dxy \
	OrthoOrbital Ni 2   dyz \
	OrthoOrbital Ni 2   dz2 \
	OrthoOrbital Ni 2   dxz \
	OrthoOrbital Ni 2   dx2-y2 \
	OrthoOrbital Ni 3   s \
	OrthoOrbital Ni 3   p \
	OrthoOrbital Ni 3   px \
	OrthoOrbital Ni 3   py \
	OrthoOrbital Ni 3   pz \
	OrthoOrbital Ni 3   d \
	OrthoOrbital Ni 3   dxy \
	OrthoOrbital Ni 3   dyz \
	OrthoOrbital Ni 3   dz2 \
	OrthoOrbital Ni 3   dxz \
	OrthoOrbital Ni 3   dx2-y2 \
	OrthoOrbital Ni 4   s \
	OrthoOrbital Ni 4   p \
	OrthoOrbital Ni 4   px \
	OrthoOrbital Ni 4   py \
	OrthoOrbital Ni 4   pz \
	OrthoOrbital Ni 4   d \
	OrthoOrbital Ni 4   dxy \
	OrthoOrbital Ni 4   dyz \
	OrthoOrbital Ni 4   dz2 \
	OrthoOrbital Ni 4   dxz \
	OrthoOrbital Ni 4   dx2-y2 \
	OrthoOrbital Ni 5   s \
	OrthoOrbital Ni 5   p \
	OrthoOrbital Ni 5   px \
	OrthoOrbital Ni 5   py \
	OrthoOrbital Ni 5   pz \
	OrthoOrbital Ni 5   d \
	OrthoOrbital Ni 5   dxy \
	OrthoOrbital Ni 5   dyz \
	OrthoOrbital Ni 5   dz2 \
	OrthoOrbital Ni 5   dxz \
	OrthoOrbital Ni 5   dx2-y2 \
	OrthoOrbital Ni 6   s \
	OrthoOrbital Ni 6   p \
	OrthoOrbital Ni 6   px \
	OrthoOrbital Ni 6   py \
	OrthoOrbital Ni 6   pz \
	OrthoOrbital Ni 6   d \
	OrthoOrbital Ni 6   dxy \
	OrthoOrbital Ni 6   dyz \
	OrthoOrbital Ni 6   dz2 \
	OrthoOrbital Ni 6   dxz \
	OrthoOrbital Ni 6   dx2-y2 \
	OrthoOrbital Ni 7   s \
	OrthoOrbital Ni 7   p \
	OrthoOrbital Ni 7   px \
	OrthoOrbital Ni 7   py \
	OrthoOrbital Ni 7   pz \
	OrthoOrbital Ni 7   d \
	OrthoOrbital Ni 7   dxy \
	OrthoOrbital Ni 7   dyz \
	OrthoOrbital Ni 7   dz2 \
	OrthoOrbital Ni 7   dxz \
	OrthoOrbital Ni 7   dx2-y2 \
	OrthoOrbital Ni 8   s \
	OrthoOrbital Ni 8   p \
	OrthoOrbital Ni 8   px \
	OrthoOrbital Ni 8   py \
	OrthoOrbital Ni 8   pz \
	OrthoOrbital Ni 8   d \
	OrthoOrbital Ni 8   dxy \
	OrthoOrbital Ni 8   dyz \
	OrthoOrbital Ni 8   dz2 \
	OrthoOrbital Ni 8   dxz \
	OrthoOrbital Ni 8   dx2-y2 \
	OrthoOrbital Ni 9   s \
	OrthoOrbital Ni 9   p \
	OrthoOrbital Ni 9   px \
	OrthoOrbital Ni 9   py \
	OrthoOrbital Ni 9   pz \
	OrthoOrbital Ni 9   d \
	OrthoOrbital Ni 9   dxy \
	OrthoOrbital Ni 9   dyz \
	OrthoOrbital Ni 9   dz2 \
	OrthoOrbital Ni 9   dxz \
	OrthoOrbital Ni 9   dx2-y2 \
	OrthoOrbital Ni 10   s \
	OrthoOrbital Ni 10   p \
	OrthoOrbital Ni 10   px \
	OrthoOrbital Ni 10   py \
	OrthoOrbital Ni 10   pz \
	OrthoOrbital Ni 10   d \
	OrthoOrbital Ni 10   dxy \
	OrthoOrbital Ni 10   dyz \
	OrthoOrbital Ni 10   dz2 \
	OrthoOrbital Ni 10   dxz \
	OrthoOrbital Ni 10   dx2-y2 \
	OrthoOrbital Ni 11   s \
	OrthoOrbital Ni 11   p \
	OrthoOrbital Ni 11   px \
	OrthoOrbital Ni 11   py \
	OrthoOrbital Ni 11   pz \
	OrthoOrbital Ni 11   d \
	OrthoOrbital Ni 11   dxy \
	OrthoOrbital Ni 11   dyz \
	OrthoOrbital Ni 11   dz2 \
	OrthoOrbital Ni 11   dxz \
	OrthoOrbital Ni 11   dx2-y2 \
	OrthoOrbital Ni 12   s \
	OrthoOrbital Ni 12   p \
	OrthoOrbital Ni 12   px \
	OrthoOrbital Ni 12   py \
	OrthoOrbital Ni 12   pz \
	OrthoOrbital Ni 12   d \
	OrthoOrbital Ni 12   dxy \
	OrthoOrbital Ni 12   dyz \
	OrthoOrbital Ni 12   dz2 \
	OrthoOrbital Ni 12   dxz \
	OrthoOrbital Ni 12   dx2-y2 \
	OrthoOrbital Ni 13   s \
	OrthoOrbital Ni 13   p \
	OrthoOrbital Ni 13   px \
	OrthoOrbital Ni 13   py \
	OrthoOrbital Ni 13   pz \
	OrthoOrbital Ni 13   d \
	OrthoOrbital Ni 13   dxy \
	OrthoOrbital Ni 13   dyz \
	OrthoOrbital Ni 13   dz2 \
	OrthoOrbital Ni 13   dxz \
	OrthoOrbital Ni 13   dx2-y2 \
	OrthoOrbital Ni 14   s \
	OrthoOrbital Ni 14   p \
	OrthoOrbital Ni 14   px \
	OrthoOrbital Ni 14   py \
	OrthoOrbital Ni 14   pz \
	OrthoOrbital Ni 14   d \
	OrthoOrbital Ni 14   dxy \
	OrthoOrbital Ni 14   dyz \
	OrthoOrbital Ni 14   dz2 \
	OrthoOrbital Ni 14   dxz \
	OrthoOrbital Ni 14   dx2-y2 \
	OrthoOrbital Ni 15   s \
	OrthoOrbital Ni 15   p \
	OrthoOrbital Ni 15   px \
	OrthoOrbital Ni 15   py \
	OrthoOrbital Ni 15   pz \
	OrthoOrbital Ni 15   d \
	OrthoOrbital Ni 15   dxy \
	OrthoOrbital Ni 15   dyz \
	OrthoOrbital Ni 15   dz2 \
	OrthoOrbital Ni 15   dxz \
	OrthoOrbital Ni 15   dx2-y2 \
	OrthoOrbital Ni 16   s \
	OrthoOrbital Ni 16   p \
	OrthoOrbital Ni 16   px \
	OrthoOrbital Ni 16   py \
	OrthoOrbital Ni 16   pz \
	OrthoOrbital Ni 16   d \
	OrthoOrbital Ni 16   dxy \
	OrthoOrbital Ni 16   dyz \
	OrthoOrbital Ni 16   dz2 \
	OrthoOrbital Ni 16   dxz \
	OrthoOrbital Ni 16   dx2-y2 \
	OrthoOrbital Au 1   s \
	OrthoOrbital Au 1   p \
	OrthoOrbital Au 1   px \
	OrthoOrbital Au 1   py \
	OrthoOrbital Au 1   pz \
	OrthoOrbital Au 1   d \
	OrthoOrbital Au 1   dxy \
	OrthoOrbital Au 1   dyz \
	OrthoOrbital Au 1   dz2 \
	OrthoOrbital Au 1   dxz \
	OrthoOrbital Au 1   dx2-y2 \
	OrthoOrbital Au 2   s \
	OrthoOrbital Au 2   p \
	OrthoOrbital Au 2   px \
	OrthoOrbital Au 2   py \
	OrthoOrbital Au 2   pz \
	OrthoOrbital Au 2   d \
	OrthoOrbital Au 2   dxy \
	OrthoOrbital Au 2   dyz \
	OrthoOrbital Au 2   dz2 \
	OrthoOrbital Au 2   dxz \
	OrthoOrbital Au 2   dx2-y2 \
	OrthoOrbital Au 3   s \
	OrthoOrbital Au 3   p \
	OrthoOrbital Au 3   px \
	OrthoOrbital Au 3   py \
	OrthoOrbital Au 3   pz \
	OrthoOrbital Au 3   d \
	OrthoOrbital Au 3   dxy \
	OrthoOrbital Au 3   dyz \
	OrthoOrbital Au 3   dz2 \
	OrthoOrbital Au 3   dxz \
	OrthoOrbital Au 3   dx2-y2 \
	OrthoOrbital Au 4   s \
	OrthoOrbital Au 4   p \
	OrthoOrbital Au 4   px \
	OrthoOrbital Au 4   py \
	OrthoOrbital Au 4   pz \
	OrthoOrbital Au 4   d \
	OrthoOrbital Au 4   dxy \
	OrthoOrbital Au 4   dyz \
	OrthoOrbital Au 4   dz2 \
	OrthoOrbital Au 4   dxz \
	OrthoOrbital Au 4   dx2-y2 \
	OrthoOrbital Au 5   s \
	OrthoOrbital Au 5   p \
	OrthoOrbital Au 5   px \
	OrthoOrbital Au 5   py \
	OrthoOrbital Au 5   pz \
	OrthoOrbital Au 5   d \
	OrthoOrbital Au 5   dxy \
	OrthoOrbital Au 5   dyz \
	OrthoOrbital Au 5   dz2 \
	OrthoOrbital Au 5   dxz \
	OrthoOrbital Au 5   dx2-y2 \
	OrthoOrbital Au 6   s \
	OrthoOrbital Au 6   p \
	OrthoOrbital Au 6   px \
	OrthoOrbital Au 6   py \
	OrthoOrbital Au 6   pz \
	OrthoOrbital Au 6   d \
	OrthoOrbital Au 6   dxy \
	OrthoOrbital Au 6   dyz \
	OrthoOrbital Au 6   dz2 \
	OrthoOrbital Au 6   dxz \
	OrthoOrbital Au 6   dx2-y2 \
	OrthoOrbital Au 7   s \
	OrthoOrbital Au 7   p \
	OrthoOrbital Au 7   px \
	OrthoOrbital Au 7   py \
	OrthoOrbital Au 7   pz \
	OrthoOrbital Au 7   d \
	OrthoOrbital Au 7   dxy \
	OrthoOrbital Au 7   dyz \
	OrthoOrbital Au 7   dz2 \
	OrthoOrbital Au 7   dxz \
	OrthoOrbital Au 7   dx2-y2 \
	OrthoOrbital Au 8   s \
	OrthoOrbital Au 8   p \
	OrthoOrbital Au 8   px \
	OrthoOrbital Au 8   py \
	OrthoOrbital Au 8   pz \
	OrthoOrbital Au 8   d \
	OrthoOrbital Au 8   dxy \
	OrthoOrbital Au 8   dyz \
	OrthoOrbital Au 8   dz2 \
	OrthoOrbital Au 8   dxz \
	OrthoOrbital Au 8   dx2-y2 \
	OrthoOrbital Au 9   s \
	OrthoOrbital Au 9   p \
	OrthoOrbital Au 9   px \
	OrthoOrbital Au 9   py \
	OrthoOrbital Au 9   pz \
	OrthoOrbital Au 9   d \
	OrthoOrbital Au 9   dxy \
	OrthoOrbital Au 9   dyz \
	OrthoOrbital Au 9   dz2 \
	OrthoOrbital Au 9   dxz \
	OrthoOrbital Au 9   dx2-y2 \
	OrthoOrbital Au 10   s \
	OrthoOrbital Au 10   p \
	OrthoOrbital Au 10   px \
	OrthoOrbital Au 10   py \
	OrthoOrbital Au 10   pz \
	OrthoOrbital Au 10   d \
	OrthoOrbital Au 10   dxy \
	OrthoOrbital Au 10   dyz \
	OrthoOrbital Au 10   dz2 \
	OrthoOrbital Au 10   dxz \
	OrthoOrbital Au 10   dx2-y2 \
	OrthoOrbital Au 11   s \
	OrthoOrbital Au 11   p \
	OrthoOrbital Au 11   px \
	OrthoOrbital Au 11   py \
	OrthoOrbital Au 11   pz \
	OrthoOrbital Au 11   d \
	OrthoOrbital Au 11   dxy \
	OrthoOrbital Au 11   dyz \
	OrthoOrbital Au 11   dz2 \
	OrthoOrbital Au 11   dxz \
	OrthoOrbital Au 11   dx2-y2 \
	OrthoOrbital Au 12   s \
	OrthoOrbital Au 12   p \
	OrthoOrbital Au 12   px \
	OrthoOrbital Au 12   py \
	OrthoOrbital Au 12   pz \
	OrthoOrbital Au 12   d \
	OrthoOrbital Au 12   dxy \
	OrthoOrbital Au 12   dyz \
	OrthoOrbital Au 12   dz2 \
	OrthoOrbital Au 12   dxz \
	OrthoOrbital Au 12   dx2-y2 \
	OrthoOrbital Au 13   s \
	OrthoOrbital Au 13   p \
	OrthoOrbital Au 13   px \
	OrthoOrbital Au 13   py \
	OrthoOrbital Au 13   pz \
	OrthoOrbital Au 13   d \
	OrthoOrbital Au 13   dxy \
	OrthoOrbital Au 13   dyz \
	OrthoOrbital Au 13   dz2 \
	OrthoOrbital Au 13   dxz \
	OrthoOrbital Au 13   dx2-y2 \
	OrthoOrbital Au 14   s \
	OrthoOrbital Au 14   p \
	OrthoOrbital Au 14   px \
	OrthoOrbital Au 14   py \
	OrthoOrbital Au 14   pz \
	OrthoOrbital Au 14   d \
	OrthoOrbital Au 14   dxy \
	OrthoOrbital Au 14   dyz \
	OrthoOrbital Au 14   dz2 \
	OrthoOrbital Au 14   dxz \
	OrthoOrbital Au 14   dx2-y2 \
	OrthoOrbital Au 15   s \
	OrthoOrbital Au 15   p \
	OrthoOrbital Au 15   px \
	OrthoOrbital Au 15   py \
	OrthoOrbital Au 15   pz \
	OrthoOrbital Au 15   d \
	OrthoOrbital Au 15   dxy \
	OrthoOrbital Au 15   dyz \
	OrthoOrbital Au 15   dz2 \
	OrthoOrbital Au 15   dxz \
	OrthoOrbital Au 15   dx2-y2 \
	OrthoOrbital Au 16   s \
	OrthoOrbital Au 16   p \
	OrthoOrbital Au 16   px \
	OrthoOrbital Au 16   py \
	OrthoOrbital Au 16   pz \
	OrthoOrbital Au 16   d \
	OrthoOrbital Au 16   dxy \
	OrthoOrbital Au 16   dyz \
	OrthoOrbital Au 16   dz2 \
	OrthoOrbital Au 16   dxz \
	OrthoOrbital Au 16   dx2-y2 \
	OrthoOrbital Au 17   s \
	OrthoOrbital Au 17   p \
	OrthoOrbital Au 17   px \
	OrthoOrbital Au 17   py \
	OrthoOrbital Au 17   pz \
	OrthoOrbital Au 17   d \
	OrthoOrbital Au 17   dxy \
	OrthoOrbital Au 17   dyz \
	OrthoOrbital Au 17   dz2 \
	OrthoOrbital Au 17   dxz \
	OrthoOrbital Au 17   dx2-y2 \
	OrthoOrbital Au 18   s \
	OrthoOrbital Au 18   p \
	OrthoOrbital Au 18   px \
	OrthoOrbital Au 18   py \
	OrthoOrbital Au 18   pz \
	OrthoOrbital Au 18   d \
	OrthoOrbital Au 18   dxy \
	OrthoOrbital Au 18   dyz \
	OrthoOrbital Au 18   dz2 \
	OrthoOrbital Au 18   dxz \
	OrthoOrbital Au 18   dx2-y2 \
	OrthoOrbital Au 19   s \
	OrthoOrbital Au 19   p \
	OrthoOrbital Au 19   px \
	OrthoOrbital Au 19   py \
	OrthoOrbital Au 19   pz \
	OrthoOrbital Au 19   d \
	OrthoOrbital Au 19   dxy \
	OrthoOrbital Au 19   dyz \
	OrthoOrbital Au 19   dz2 \
	OrthoOrbital Au 19   dxz \
	OrthoOrbital Au 19   dx2-y2 \
	OrthoOrbital Au 20   s \
	OrthoOrbital Au 20   p \
	OrthoOrbital Au 20   px \
	OrthoOrbital Au 20   py \
	OrthoOrbital Au 20   pz \
	OrthoOrbital Au 20   d \
	OrthoOrbital Au 20   dxy \
	OrthoOrbital Au 20   dyz \
	OrthoOrbital Au 20   dz2 \
	OrthoOrbital Au 20   dxz \
	OrthoOrbital Au 20   dx2-y2 \
	OrthoOrbital Au 21   s \
	OrthoOrbital Au 21   p \
	OrthoOrbital Au 21   px \
	OrthoOrbital Au 21   py \
	OrthoOrbital Au 21   pz \
	OrthoOrbital Au 21   d \
	OrthoOrbital Au 21   dxy \
	OrthoOrbital Au 21   dyz \
	OrthoOrbital Au 21   dz2 \
	OrthoOrbital Au 21   dxz \
	OrthoOrbital Au 21   dx2-y2 \
	OrthoOrbital Au 22   s \
	OrthoOrbital Au 22   p \
	OrthoOrbital Au 22   px \
	OrthoOrbital Au 22   py \
	OrthoOrbital Au 22   pz \
	OrthoOrbital Au 22   d \
	OrthoOrbital Au 22   dxy \
	OrthoOrbital Au 22   dyz \
	OrthoOrbital Au 22   dz2 \
	OrthoOrbital Au 22   dxz \
	OrthoOrbital Au 22   dx2-y2 \
	OrthoOrbital Au 23   s \
	OrthoOrbital Au 23   p \
	OrthoOrbital Au 23   px \
	OrthoOrbital Au 23   py \
	OrthoOrbital Au 23   pz \
	OrthoOrbital Au 23   d \
	OrthoOrbital Au 23   dxy \
	OrthoOrbital Au 23   dyz \
	OrthoOrbital Au 23   dz2 \
	OrthoOrbital Au 23   dxz \
	OrthoOrbital Au 23   dx2-y2 \
	OrthoOrbital Au 24   s \
	OrthoOrbital Au 24   p \
	OrthoOrbital Au 24   px \
	OrthoOrbital Au 24   py \
	OrthoOrbital Au 24   pz \
	OrthoOrbital Au 24   d \
	OrthoOrbital Au 24   dxy \
	OrthoOrbital Au 24   dyz \
	OrthoOrbital Au 24   dz2 \
	OrthoOrbital Au 24   dxz \
	OrthoOrbital Au 24   dx2-y2 \
	OrthoOrbital Au 25   s \
	OrthoOrbital Au 25   p \
	OrthoOrbital Au 25   px \
	OrthoOrbital Au 25   py \
	OrthoOrbital Au 25   pz \
	OrthoOrbital Au 25   d \
	OrthoOrbital Au 25   dxy \
	OrthoOrbital Au 25   dyz \
	OrthoOrbital Au 25   dz2 \
	OrthoOrbital Au 25   dxz \
	OrthoOrbital Au 25   dx2-y2 \
	OrthoOrbital Au 26   s \
	OrthoOrbital Au 26   p \
	OrthoOrbital Au 26   px \
	OrthoOrbital Au 26   py \
	OrthoOrbital Au 26   pz \
	OrthoOrbital Au 26   d \
	OrthoOrbital Au 26   dxy \
	OrthoOrbital Au 26   dyz \
	OrthoOrbital Au 26   dz2 \
	OrthoOrbital Au 26   dxz \
	OrthoOrbital Au 26   dx2-y2 \
	OrthoOrbital Au 27   s \
	OrthoOrbital Au 27   p \
	OrthoOrbital Au 27   px \
	OrthoOrbital Au 27   py \
	OrthoOrbital Au 27   pz \
	OrthoOrbital Au 27   d \
	OrthoOrbital Au 27   dxy \
	OrthoOrbital Au 27   dyz \
	OrthoOrbital Au 27   dz2 \
	OrthoOrbital Au 27   dxz \
	OrthoOrbital Au 27   dx2-y2 \
	OrthoOrbital Au 28   s \
	OrthoOrbital Au 28   p \
	OrthoOrbital Au 28   px \
	OrthoOrbital Au 28   py \
	OrthoOrbital Au 28   pz \
	OrthoOrbital Au 28   d \
	OrthoOrbital Au 28   dxy \
	OrthoOrbital Au 28   dyz \
	OrthoOrbital Au 28   dz2 \
	OrthoOrbital Au 28   dxz \
	OrthoOrbital Au 28   dx2-y2 \
	OrthoOrbital Au 29   s \
	OrthoOrbital Au 29   p \
	OrthoOrbital Au 29   px \
	OrthoOrbital Au 29   py \
	OrthoOrbital Au 29   pz \
	OrthoOrbital Au 29   d \
	OrthoOrbital Au 29   dxy \
	OrthoOrbital Au 29   dyz \
	OrthoOrbital Au 29   dz2 \
	OrthoOrbital Au 29   dxz \
	OrthoOrbital Au 29   dx2-y2 \
	OrthoOrbital Au 30   s \
	OrthoOrbital Au 30   p \
	OrthoOrbital Au 30   px \
	OrthoOrbital Au 30   py \
	OrthoOrbital Au 30   pz \
	OrthoOrbital Au 30   d \
	OrthoOrbital Au 30   dxy \
	OrthoOrbital Au 30   dyz \
	OrthoOrbital Au 30   dz2 \
	OrthoOrbital Au 30   dxz \
	OrthoOrbital Au 30   dx2-y2 \
	OrthoOrbital Au 31   s \
	OrthoOrbital Au 31   p \
	OrthoOrbital Au 31   px \
	OrthoOrbital Au 31   py \
	OrthoOrbital Au 31   pz \
	OrthoOrbital Au 31   d \
	OrthoOrbital Au 31   dxy \
	OrthoOrbital Au 31   dyz \
	OrthoOrbital Au 31   dz2 \
	OrthoOrbital Au 31   dxz \
	OrthoOrbital Au 31   dx2-y2 \
	OrthoOrbital Au 32   s \
	OrthoOrbital Au 32   p \
	OrthoOrbital Au 32   px \
	OrthoOrbital Au 32   py \
	OrthoOrbital Au 32   pz \
	OrthoOrbital Au 32   d \
	OrthoOrbital Au 32   dxy \
	OrthoOrbital Au 32   dyz \
	OrthoOrbital Au 32   dz2 \
	OrthoOrbital Au 32   dxz \
	OrthoOrbital Au 32   dx2-y2 \
	OrthoOrbital Au 33   s \
	OrthoOrbital Au 33   p \
	OrthoOrbital Au 33   px \
	OrthoOrbital Au 33   py \
	OrthoOrbital Au 33   pz \
	OrthoOrbital Au 33   d \
	OrthoOrbital Au 33   dxy \
	OrthoOrbital Au 33   dyz \
	OrthoOrbital Au 33   dz2 \
	OrthoOrbital Au 33   dxz \
	OrthoOrbital Au 33   dx2-y2 \
	OrthoOrbital Au 34   s \
	OrthoOrbital Au 34   p \
	OrthoOrbital Au 34   px \
	OrthoOrbital Au 34   py \
	OrthoOrbital Au 34   pz \
	OrthoOrbital Au 34   d \
	OrthoOrbital Au 34   dxy \
	OrthoOrbital Au 34   dyz \
	OrthoOrbital Au 34   dz2 \
	OrthoOrbital Au 34   dxz \
	OrthoOrbital Au 34   dx2-y2 \
	OrthoOrbital Au 35   s \
	OrthoOrbital Au 35   p \
	OrthoOrbital Au 35   px \
	OrthoOrbital Au 35   py \
	OrthoOrbital Au 35   pz \
	OrthoOrbital Au 35   d \
	OrthoOrbital Au 35   dxy \
	OrthoOrbital Au 35   dyz \
	OrthoOrbital Au 35   dz2 \
	OrthoOrbital Au 35   dxz \
	OrthoOrbital Au 35   dx2-y2 \
	OrthoOrbital Au 36   s \
	OrthoOrbital Au 36   p \
	OrthoOrbital Au 36   px \
	OrthoOrbital Au 36   py \
	OrthoOrbital Au 36   pz \
	OrthoOrbital Au 36   d \
	OrthoOrbital Au 36   dxy \
	OrthoOrbital Au 36   dyz \
	OrthoOrbital Au 36   dz2 \
	OrthoOrbital Au 36   dxz \
	OrthoOrbital Au 36   dx2-y2 \
	OrthoOrbital Au 37   s \
	OrthoOrbital Au 37   p \
	OrthoOrbital Au 37   px \
	OrthoOrbital Au 37   py \
	OrthoOrbital Au 37   pz \
	OrthoOrbital Au 37   d \
	OrthoOrbital Au 37   dxy \
	OrthoOrbital Au 37   dyz \
	OrthoOrbital Au 37   dz2 \
	OrthoOrbital Au 37   dxz \
	OrthoOrbital Au 37   dx2-y2 \
	OrthoOrbital Au 38   s \
	OrthoOrbital Au 38   p \
	OrthoOrbital Au 38   px \
	OrthoOrbital Au 38   py \
	OrthoOrbital Au 38   pz \
	OrthoOrbital Au 38   d \
	OrthoOrbital Au 38   dxy \
	OrthoOrbital Au 38   dyz \
	OrthoOrbital Au 38   dz2 \
	OrthoOrbital Au 38   dxz \
	OrthoOrbital Au 38   dx2-y2 \
	OrthoOrbital Au 39   s \
	OrthoOrbital Au 39   p \
	OrthoOrbital Au 39   px \
	OrthoOrbital Au 39   py \
	OrthoOrbital Au 39   pz \
	OrthoOrbital Au 39   d \
	OrthoOrbital Au 39   dxy \
	OrthoOrbital Au 39   dyz \
	OrthoOrbital Au 39   dz2 \
	OrthoOrbital Au 39   dxz \
	OrthoOrbital Au 39   dx2-y2 \
	OrthoOrbital Au 40   s \
	OrthoOrbital Au 40   p \
	OrthoOrbital Au 40   px \
	OrthoOrbital Au 40   py \
	OrthoOrbital Au 40   pz \
	OrthoOrbital Au 40   d \
	OrthoOrbital Au 40   dxy \
	OrthoOrbital Au 40   dyz \
	OrthoOrbital Au 40   dz2 \
	OrthoOrbital Au 40   dxz \
	OrthoOrbital Au 40   dx2-y2 \
	OrthoOrbital Au 41   s \
	OrthoOrbital Au 41   p \
	OrthoOrbital Au 41   px \
	OrthoOrbital Au 41   py \
	OrthoOrbital Au 41   pz \
	OrthoOrbital Au 41   d \
	OrthoOrbital Au 41   dxy \
	OrthoOrbital Au 41   dyz \
	OrthoOrbital Au 41   dz2 \
	OrthoOrbital Au 41   dxz \
	OrthoOrbital Au 41   dx2-y2 \
	OrthoOrbital Au 42   s \
	OrthoOrbital Au 42   p \
	OrthoOrbital Au 42   px \
	OrthoOrbital Au 42   py \
	OrthoOrbital Au 42   pz \
	OrthoOrbital Au 42   d \
	OrthoOrbital Au 42   dxy \
	OrthoOrbital Au 42   dyz \
	OrthoOrbital Au 42   dz2 \
	OrthoOrbital Au 42   dxz \
	OrthoOrbital Au 42   dx2-y2 \
	OrthoOrbital Au 43   s \
	OrthoOrbital Au 43   p \
	OrthoOrbital Au 43   px \
	OrthoOrbital Au 43   py \
	OrthoOrbital Au 43   pz \
	OrthoOrbital Au 43   d \
	OrthoOrbital Au 43   dxy \
	OrthoOrbital Au 43   dyz \
	OrthoOrbital Au 43   dz2 \
	OrthoOrbital Au 43   dxz \
	OrthoOrbital Au 43   dx2-y2 \
	OrthoOrbital Au 44   s \
	OrthoOrbital Au 44   p \
	OrthoOrbital Au 44   px \
	OrthoOrbital Au 44   py \
	OrthoOrbital Au 44   pz \
	OrthoOrbital Au 44   d \
	OrthoOrbital Au 44   dxy \
	OrthoOrbital Au 44   dyz \
	OrthoOrbital Au 44   dz2 \
	OrthoOrbital Au 44   dxz \
	OrthoOrbital Au 44   dx2-y2 \
	OrthoOrbital Au 45   s \
	OrthoOrbital Au 45   p \
	OrthoOrbital Au 45   px \
	OrthoOrbital Au 45   py \
	OrthoOrbital Au 45   pz \
	OrthoOrbital Au 45   d \
	OrthoOrbital Au 45   dxy \
	OrthoOrbital Au 45   dyz \
	OrthoOrbital Au 45   dz2 \
	OrthoOrbital Au 45   dxz \
	OrthoOrbital Au 45   dx2-y2 \
	OrthoOrbital Au 46   s \
	OrthoOrbital Au 46   p \
	OrthoOrbital Au 46   px \
	OrthoOrbital Au 46   py \
	OrthoOrbital Au 46   pz \
	OrthoOrbital Au 46   d \
	OrthoOrbital Au 46   dxy \
	OrthoOrbital Au 46   dyz \
	OrthoOrbital Au 46   dz2 \
	OrthoOrbital Au 46   dxz \
	OrthoOrbital Au 46   dx2-y2 \
	OrthoOrbital Au 47   s \
	OrthoOrbital Au 47   p \
	OrthoOrbital Au 47   px \
	OrthoOrbital Au 47   py \
	OrthoOrbital Au 47   pz \
	OrthoOrbital Au 47   d \
	OrthoOrbital Au 47   dxy \
	OrthoOrbital Au 47   dyz \
	OrthoOrbital Au 47   dz2 \
	OrthoOrbital Au 47   dxz \
	OrthoOrbital Au 47   dx2-y2 \
	OrthoOrbital Au 48   s \
	OrthoOrbital Au 48   p \
	OrthoOrbital Au 48   px \
	OrthoOrbital Au 48   py \
	OrthoOrbital Au 48   pz \
	OrthoOrbital Au 48   d \
	OrthoOrbital Au 48   dxy \
	OrthoOrbital Au 48   dyz \
	OrthoOrbital Au 48   dz2 \
	OrthoOrbital Au 48   dxz \
	OrthoOrbital Au 48   dx2-y2 \
	OrthoOrbital C 1   s \
	OrthoOrbital C 1   p \
	OrthoOrbital C 1   px \
	OrthoOrbital C 1   py \
	OrthoOrbital C 1   pz \
	OrthoOrbital O 1   s \
	OrthoOrbital O 1   p \
	OrthoOrbital O 1   px \
	OrthoOrbital O 1   py \
	OrthoOrbital O 1   pz
dump End ElecDensity KEdensity BandEigs EigStats RhoAtom DOS Kpoints
dump Ionic State IonicPositions Lattice EigStats Ecomponents
dump 
dump 
dump 
dump 
dump 
dump 
dump 
dump 
dump-name jdft.$VAR
elec-cutoff 20
elec-eigen-algo Davidson
elec-ex-corr gga-PBE
elec-initial-magnetization 0.000000 no
elec-n-bands 496
elec-smearing Fermi 0.001
electronic-minimize  \
	dirUpdateScheme      FletcherReeves \
	linminMethod         DirUpdateRecommended \
	nIterations          100 \
	history              15 \
	knormThreshold       0 \
	energyDiffThreshold  1e-07 \
	nEnergyDiff          2 \
	alphaTstart          1 \
	alphaTmin            1e-10 \
	updateTestStepSize   yes \
	alphaTreduceFactor   0.1 \
	alphaTincreaseFactor 3 \
	nAlphaAdjustMax      3 \
	wolfeEnergy          0.0001 \
	wolfeGradient        0.9 \
	fdTest               no
exchange-regularization WignerSeitzTruncated
fluid LinearPCM 298.000000 1.013250
fluid-anion F- 0.5 MeanFieldLJ \
	epsBulk 1 \
	pMol 0 \
	epsInf 1 \
	Pvap 0 \
	sigmaBulk 0 \
	Rvdw 2.24877 \
	Res 0 \
	tauNuc 343133
fluid-cation Na+ 0.5 MeanFieldLJ \
	epsBulk 1 \
	pMol 0 \
	epsInf 1 \
	Pvap 0 \
	sigmaBulk 0 \
	Rvdw 2.19208 \
	Res 0 \
	tauNuc 343133
fluid-ex-corr lda-TF lda-PZ
fluid-gummel-loop 10 1.000000e-05
fluid-minimize  \
	dirUpdateScheme      PolakRibiere \
	linminMethod         DirUpdateRecommended \
	nIterations          400 \
	history              15 \
	knormThreshold       1e-11 \
	energyDiffThreshold  0 \
	nEnergyDiff          2 \
	alphaTstart          1 \
	alphaTmin            1e-10 \
	updateTestStepSize   yes \
	alphaTreduceFactor   0.1 \
	alphaTincreaseFactor 3 \
	nAlphaAdjustMax      6 \
	wolfeEnergy          0.0001 \
	wolfeGradient        0.9 \
	fdTest               no
fluid-solvent H2O 55.338 ScalarEOS \
	epsBulk 78.4 \
	pMol 0.92466 \
	epsInf 1.77 \
	Pvap 1.06736e-10 \
	sigmaBulk 4.62e-05 \
	Rvdw 2.61727 \
	Res 1.42 \
	tauNuc 343133 \
	poleEl 15 7 1
forces-output-coords Positions
initial-state jdft.$VAR
ion Ni   0.000000000000000   5.274698090909091   3.882074000000000 0
ion Ni   0.000000000000000  15.824098090909089   3.882074000000000 0
ion Ni   7.459552000000000   5.274698090909091   3.882074000000000 0
ion Ni   7.459552000000000  15.824098090909089   3.882074000000000 0
ion Ni   0.000000000000000  -0.000001909090908   9.268439000000001 0
ion Ni   0.000000000000000  10.549398090909088   9.268439000000001 0
ion Ni   7.459552000000000  -0.000001909090908   9.268439000000001 0
ion Ni   7.459552000000000  10.549398090909088   9.268439000000001 0
ion Ni   0.000000000000000   5.274698090909091  14.614135999999998 0
ion Ni   0.000000000000000  15.824098090909089  14.614135999999998 0
ion Ni   7.459552000000000   5.274698090909091  14.614135999999998 0
ion Ni   7.459552000000000  15.824098090909089  14.614135999999998 0
ion Ni   0.000000000000000  -0.000001909090908  19.449507000000001 0
ion Ni   0.000000000000000  10.549398090909088  19.449507000000001 0
ion Ni   7.459552000000000  -0.000001909090908  19.449507000000001 0
ion Ni   7.459552000000000  10.549398090909088  19.449507000000001 0
ion Au   3.729776000000000   7.805942090909090   1.216979000000000 0
ion Au   3.729776000000000  18.355342090909090   1.216979000000000 0
ion Au  11.189328000000000   7.805942090909090   1.216979000000000 0
ion Au  11.189328000000000  18.355342090909090   1.216979000000000 0
ion Au   3.729776000000000   2.622842590909091   6.596434000000001 0
ion Au   3.729776000000000  13.172242590909093   6.596434000000001 0
ion Au  11.189328000000000   2.622842590909091   6.596434000000001 0
ion Au  11.189328000000000  13.172242590909093   6.596434000000001 0
ion Au   3.729776000000000   2.743454090909090   1.216979000000000 0
ion Au   3.729776000000000  13.292854090909092   1.216979000000000 0
ion Au  11.189328000000000   2.743454090909090   1.216979000000000 0
ion Au  11.189328000000000  13.292854090909092   1.216979000000000 0
ion Au   3.729776000000000   7.926553590909089   6.596434000000001 0
ion Au   3.729776000000000  18.475953590909089   6.596434000000001 0
ion Au  11.189328000000000   7.926553590909089   6.596434000000001 0
ion Au  11.189328000000000  18.475953590909089   6.596434000000001 0
ion Au   0.000000000000000   5.274698090909091   9.262795000000001 0
ion Au   0.000000000000000  15.824098090909089   9.262795000000001 0
ion Au   7.459552000000000   5.274698090909091   9.262795000000001 0
ion Au   7.459552000000000  15.824098090909089   9.262795000000001 0
ion Au   0.000000000000000  -0.000001909090908   3.807964000000000 0
ion Au   0.000000000000000  10.549398090909088   3.807964000000000 0
ion Au   7.459552000000000  -0.000001909090908   3.807964000000000 0
ion Au   7.459552000000000  10.549398090909088   3.807964000000000 0
ion Au   3.729776000000000   7.897511090909089  11.929789000000000 0
ion Au   3.729776000000000  18.446911090909090  11.929789000000000 0
ion Au  11.189328000000000   7.897511090909089  11.929789000000000 0
ion Au  11.189328000000000  18.446911090909090  11.929789000000000 0
ion Au   3.729776000000000   2.633307590909090  17.362413000000000 0
ion Au   3.729776000000000  13.182697090909093  17.362413000000000 0
ion Au  11.189328000000000   2.633307590909090  17.362413000000000 0
ion Au  11.189328000000000  13.182697090909093  17.362413000000000 0
ion Au   3.729776000000000   2.651885090909092  11.929789000000000 0
ion Au   3.729776000000000  13.201285090909092  11.929789000000000 0
ion Au  11.189328000000000   2.651885090909092  11.929789000000000 0
ion Au  11.189328000000000  13.201285090909092  11.929789000000000 0
ion Au   3.729776000000000   7.916088590909090  17.362413000000000 0
ion Au   3.729776000000000  18.465499090909084  17.362413000000000 0
ion Au  11.189328000000000   7.916088590909090  17.362413000000000 0
ion Au  11.189328000000000  18.465499090909084  17.362413000000000 0
ion Au   0.000000000000000   5.274698090909091  19.814938000000001 0
ion Au   0.000000000000000  15.824098090909089  19.814938000000001 0
ion Au   7.459552000000000   5.274698090909091  19.814938000000001 0
ion Au   7.459552000000000  15.824098090909089  19.814938000000001 0
ion Au   0.000000000000000  -0.000001909090908  14.479526000000000 0
ion Au   0.000000000000000  10.549398090909088  14.479526000000000 0
ion Au   7.459552000000000  -0.000001909090908  14.479526000000000 0
ion Au   7.459552000000000  10.549398090909088  14.479526000000000 0
ion C   3.729776000000000   5.274698090909091  20.634350362552901 1  Linear 0 0 1
ion O   3.789870000000000   5.274698090909091  22.862172187813989 1  Linear 0 0 1
ion-species /projects/musgravc/apps/jdftx-1.6.0/build/pseudopotentials/GBRV_v1.5/$ID_pbe_v1.uspp
ion-species /projects/musgravc/apps/jdftx-1.6.0/build/pseudopotentials/GBRV_v1.5/$ID_pbe_v1.2.uspp
ion-species /projects/musgravc/apps/jdftx-1.6.0/build/pseudopotentials/GBRV_v1.5/$ID_pbe_v1.4.uspp
ion-species /projects/musgravc/apps/jdftx-1.6.0/build/pseudopotentials/GBRV_v1.5/$ID_pbe_v1.5.uspp
ion-width Ecut
ionic-minimize  \
	dirUpdateScheme      L-BFGS \
	linminMethod         DirUpdateRecommended \
	nIterations          100 \
	history              15 \
	knormThreshold       0.0001 \
	energyDiffThreshold  1e-06 \
	nEnergyDiff          2 \
	alphaTstart          1 \
	alphaTmin            1e-10 \
	updateTestStepSize   yes \
	alphaTreduceFactor   0.1 \
	alphaTincreaseFactor 3 \
	nAlphaAdjustMax      3 \
	wolfeEnergy          0.0001 \
	wolfeGradient        0.9 \
	fdTest               no
kpoint   0.000000000000   0.000000000000   0.000000000000  1.00000000000000
kpoint-folding 4 3 1 
latt-move-scale 0 0 0
latt-scale 1 1 1 
lattice  \
	  14.919104000000001    0.000000000000000    0.000000000000000  \
	   0.000000000000000   21.098800000000001    0.000000000000000  \
	   0.000000000000000    0.000000000000000   52.746999000000002 
lattice-minimize  \
	dirUpdateScheme      L-BFGS \
	linminMethod         DirUpdateRecommended \
	nIterations          0 \
	history              15 \
	knormThreshold       0 \
	energyDiffThreshold  1e-06 \
	nEnergyDiff          2 \
	alphaTstart          1 \
	alphaTmin            1e-10 \
	updateTestStepSize   yes \
	alphaTreduceFactor   0.1 \
	alphaTincreaseFactor 3 \
	nAlphaAdjustMax      3 \
	wolfeEnergy          0.0001 \
	wolfeGradient        0.9 \
	fdTest               no
lcao-params 30 1e-06 0.001
pcm-variant CANDLE
spintype z-spin
subspace-rotation-factor 1 yes
symmetries automatic
symmetry-threshold 0.0001
van-der-waals D3



---------- Setting up symmetries ----------

Found 8 point-group symmetries of the bravais lattice
Found 2 space-group symmetries with basis
Applied RMS atom displacement 5.53684e-16 bohrs to make symmetries exact.

---------- Initializing the Grid ----------
R = 
[      14.9191            0            0  ]
[            0      21.0988            0  ]
[            0            0       52.747  ]
unit cell volume = 16603.4
G =
[    0.42115          0          0  ]
[          0   0.297798          0  ]
[          0          0   0.119119  ]
Minimum fftbox size, Smin = [  64  88  216  ]
Chosen fftbox size, S = [  64  90  216  ]

---------- Exchange Correlation functional ----------
Initalized PBE GGA exchange.
Initalized PBE GGA correlation.

---------- Setting up pseudopotentials ----------
Width of ionic core gaussian charges (only for fluid interactions / plotting) set to 0.397384

Reading pseudopotential file '/projects/musgravc/apps/jdftx-1.6.0/build/pseudopotentials/GBRV_v1.5/ni_pbe_v1.4.uspp':
  Title: Ni.  Created by USPP 7.3.6 on 1-4-15
  Reference state energy: -170.398381.  18 valence electrons in orbitals:
    |300>  occupation: 2  eigenvalue: -4.804705
    |310>  occupation: 6  eigenvalue: -3.347751
    |320>  occupation: 8  eigenvalue: -1.042415
    |400>  occupation: 0  eigenvalue: -0.795539
    |410>  occupation: 0  eigenvalue: -0.551375
  lMax: 2  lLocal: 3  QijEcut: 6.5
  6 projectors sampled on a log grid with 611 points:
    l: 0  eig: -4.804708  rCut: 1.44
    l: 0  eig: -0.795541  rCut: 1.44
    l: 1  eig: -3.347753  rCut: 1.55
    l: 1  eig: 0.500000  rCut: 1.55
    l: 2  eig: -1.042418  rCut: 1.5
    l: 2  eig: -0.450000  rCut: 1.5
  Partial core density with radius 0.65
  Transforming core density to a uniform radial grid of dG=0.02 with 1153 points.
  Transforming local potential to a uniform radial grid of dG=0.02 with 1153 points.
  Transforming nonlocal projectors to a uniform radial grid of dG=0.02 with 432 points.
  Transforming density augmentations to a uniform radial grid of dG=0.02 with 1153 points.
  Transforming atomic orbitals to a uniform radial grid of dG=0.02 with 432 points.
  Core radius for overlap checks: 1.55 bohrs.

Reading pseudopotential file '/projects/musgravc/apps/jdftx-1.6.0/build/pseudopotentials/GBRV_v1.5/au_pbe_v1.uspp':
  Title: Au.  Created by USPP 7.3.6 on 14-9-2013
  Reference state energy: -57.375295.  11 valence electrons in orbitals:
    |520>  occupation: 10  eigenvalue: -0.252742
    |600>  occupation: 1  eigenvalue: -0.211744
    |610>  occupation: 0  eigenvalue: -0.028291
  lMax: 3  lLocal: -1  QijEcut: 5
  7 projectors sampled on a log grid with 755 points:
    l: 0  eig: -0.211744  rCut: 2.3
    l: 0  eig: 0.500000  rCut: 2.3
    l: 1  eig: -0.028291  rCut: 2.35
    l: 1  eig: 0.850000  rCut: 2.35
    l: 2  eig: -0.252741  rCut: 2.1
    l: 2  eig: 1.000000  rCut: 2.1
    l: 3  eig: 0.000000  rCut: 2.5
  Partial core density with radius 1
  Transforming core density to a uniform radial grid of dG=0.02 with 1153 points.
  Transforming local potential to a uniform radial grid of dG=0.02 with 1153 points.
  Transforming nonlocal projectors to a uniform radial grid of dG=0.02 with 432 points.
  Transforming density augmentations to a uniform radial grid of dG=0.02 with 1153 points.
  Transforming atomic orbitals to a uniform radial grid of dG=0.02 with 432 points.
  Core radius for overlap checks: 2.50 bohrs.

Reading pseudopotential file '/projects/musgravc/apps/jdftx-1.6.0/build/pseudopotentials/GBRV_v1.5/c_pbe_v1.2.uspp':
  Title: C.  Created by USPP 7.3.6 on 3-2-2014
  Reference state energy: -5.406344.  4 valence electrons in orbitals:
    |200>  occupation: 2  eigenvalue: -0.504890
    |210>  occupation: 2  eigenvalue: -0.194356
  lMax: 1  lLocal: 2  QijEcut: 5
  4 projectors sampled on a log grid with 503 points:
    l: 0  eig: -0.504890  rCut: 1.3
    l: 0  eig: 0.000000  rCut: 1.3
    l: 1  eig: -0.194357  rCut: 1.3
    l: 1  eig: 0.000000  rCut: 1.3
  Partial core density with radius 1.1
  Transforming core density to a uniform radial grid of dG=0.02 with 1153 points.
  Transforming local potential to a uniform radial grid of dG=0.02 with 1153 points.
  Transforming nonlocal projectors to a uniform radial grid of dG=0.02 with 432 points.
  Transforming density augmentations to a uniform radial grid of dG=0.02 with 1153 points.
  Transforming atomic orbitals to a uniform radial grid of dG=0.02 with 432 points.
  Core radius for overlap checks: 1.30 bohrs.

Reading pseudopotential file '/projects/musgravc/apps/jdftx-1.6.0/build/pseudopotentials/GBRV_v1.5/o_pbe_v1.2.uspp':
  Title: O.  Created by USPP 7.3.6 on 3-2-2014
  Reference state energy: -15.894388.  6 valence electrons in orbitals:
    |200>  occupation: 2  eigenvalue: -0.878823
    |210>  occupation: 4  eigenvalue: -0.332131
  lMax: 2  lLocal: 2  QijEcut: 6
  5 projectors sampled on a log grid with 511 points:
    l: 0  eig: -0.878823  rCut: 1.25
    l: 0  eig: 0.000000  rCut: 1.25
    l: 1  eig: -0.332132  rCut: 1.25
    l: 1  eig: 0.000000  rCut: 1.25
    l: 2  eig: 1.000000  rCut: 1.25
  Partial core density with radius 0.7
  Transforming core density to a uniform radial grid of dG=0.02 with 1153 points.
  Transforming local potential to a uniform radial grid of dG=0.02 with 1153 points.
  Transforming nonlocal projectors to a uniform radial grid of dG=0.02 with 432 points.
  Transforming density augmentations to a uniform radial grid of dG=0.02 with 1153 points.
  Transforming atomic orbitals to a uniform radial grid of dG=0.02 with 432 points.
  Core radius for overlap checks: 1.25 bohrs.

Initialized 4 species with 66 total atoms.

Folded 1 k-points by 4x3x1 to 12 k-points.

---------- Setting up k-points, bands, fillings ----------
Adding inversion symmetry to k-mesh for non-inversion-symmetric unit cell.
Reduced to 6 k-points under symmetry. 
Computing the number of bands and number of electrons
Reading initial fillings from file jdft.fillings.
nElectrons: 826.000000   nBands: 496   nStates: 12

----- Setting up reduced wavefunction bases (one per k-point) -----
average nbasis = 70918.750 , ideal nbasis = 70931.190

----- Initializing Supercell corresponding to k-point mesh -----
Lattice vector linear combinations in supercell:
[   4   0   0  ]
[   0   3   0  ]
[   0   0   1  ]
Supercell lattice vectors:
[  59.6764  0  0  ]
[  0  63.2964  0  ]
[  0  0  52.747  ]

Initializing DFT-D3 calculator:
	Parameters set for gga-PBE functional
	s6:  1.000  s_r6:  1.217
	s8:  0.722  s_r8:  1.000
	Per-atom parameters loaded for:
	Ni:  sqrtQ[a0]:  5.285  Rcov[a0]:  1.871  CN: [ 0.00 1.79 6.55 6.29 ]
	Au:  sqrtQ[a0]:  5.707  Rcov[a0]:  2.135  CN: [ 0.00 0.98 ]
	 C:  sqrtQ[a0]:  3.105  Rcov[a0]:  1.417  CN: [ 0.00 0.99 2.00 3.00 3.98 ]
	 O:  sqrtQ[a0]:  2.594  Rcov[a0]:  1.191  CN: [ 0.00 0.99 1.99 ]

Initializing DFT-D2 calculator for fluid / solvation:
	Ni:  C6:  187.33 Eh-a0^6  R0: 2.952 a0
	Au:  C6:  815.23 Eh-a0^6  R0: 3.326 a0 (WARNING: beyond Grimme's data set)
	 C:  C6:   30.35 Eh-a0^6  R0: 2.744 a0
	 O:  C6:   12.14 Eh-a0^6  R0: 2.536 a0

---------- Setting up ewald sum ----------
Optimum gaussian width for ewald sums = 5.062738 bohr.
Real space sum over 495 unit cells with max indices [  5  4  2  ]
Reciprocal space sum over 7735 terms with max indices [  6  8  17  ]

Computing DFT-D3 correction:
# coordination-number Ni 6.003 6.003 6.003 6.003 6.498 6.498 6.498 6.498 6.450 6.447 6.450 6.447 4.856 4.856 4.856 4.856
# coordination-number Au 5.058 5.058 5.058 5.058 8.346 8.346 8.346 8.346 5.058 5.058 5.058 5.058 8.346 8.346 8.346 8.346 8.442 8.442 8.442 8.442 7.660 7.660 7.660 7.660 8.488 8.487 8.488 8.487 8.824 7.929 7.930 7.929 8.488 8.487 8.488 8.487 8.824 7.929 7.930 7.929 6.301 5.126 6.350 5.126 8.683 8.683 8.683 8.683
# coordination-number C 4.761
# coordination-number O 1.475
# diagonal-C6 Ni 137.76 137.76 137.76 137.76 134.58 134.58 134.58 134.58 134.90 134.92 134.90 134.92 141.32 141.32 141.32 141.32
# diagonal-C6 Au 317.16 317.16 317.16 317.16 317.16 317.16 317.16 317.16 317.16 317.16 317.16 317.16 317.16 317.16 317.16 317.16 317.16 317.16 317.16 317.16 317.16 317.16 317.16 317.16 317.16 317.16 317.16 317.16 317.16 317.16 317.16 317.16 317.16 317.16 317.16 317.16 317.16 317.16 317.16 317.16 317.16 317.16 317.16 317.16 317.16 317.16 317.16 317.16
# diagonal-C6 C 18.21
# diagonal-C6 O 11.63
EvdW_6 =   -0.475505
EvdW_8 =   -0.831272

---------- Allocating electronic variables ----------
Initializing wave functions:  reading from 'jdft.wfns'
----- createFluidSolver() ----- (Fluid-side solver setup)
   Initializing fluid molecule 'H2O'
     Initializing site 'O'
       Electron density: proportional to exp(-r/0.36935)*erfc((r-0.51523)/0.36823) with norm 6.826
       Charge density: gaussian nuclear width 0.478731 with net site charge 0.826
       Polarizability: cuspless exponential with width 0.32 and norm 3.73
       Hard sphere radius: 2.57003 bohrs
       Positions in reference frame:
         [ +0.000000 +0.000000 +0.000000 ]
     Initializing site 'H'
       Electron density: proportional to exp(-r/0.34641)*erfc((r-0)/0.390882) with norm 0.587
       Charge density: gaussian nuclear width 0.377945 with net site charge -0.413
       Polarizability: cuspless exponential with width 0.39 and norm 3.3
       Positions in reference frame:
         [ +0.000000 -1.441945 +1.122523 ]
         [ +0.000000 +1.441945 +1.122523 ]
     Net charge: 0   dipole magnitude: 0.927204
     Initializing spherical shell mfKernel with radius 2.61727 Bohr
     deltaS corrections:
       site 'O': -7.54299
       site 'H': -6.83917
   Initializing fluid molecule 'Na+'
     Initializing site 'Na'
       Electron density: proportional to exp(-r/0.19682)*erfc((r-0.71491)/0.41314) with norm 8.1383
       Charge density: gaussian nuclear width 0.365347 with net site charge -1
       Hard sphere radius: 1.86327 bohrs
       Positions in reference frame:
         [ +0.000000 +0.000000 +0.000000 ]
     Net charge: -1   dipole magnitude: 0
     Initializing gaussian mfKernel with width: 1.55004 Bohr
     deltaS corrections:
       site 'Na': -22.3555
   Initializing fluid molecule 'F-'
     Initializing site 'F'
       Electron density: proportional to exp(-r/0.38886)*erfc((r-0)/0.438782) with norm 8
       Charge density: gaussian nuclear width 0.374796 with net site charge 1
       Hard sphere radius: 2.39995 bohrs
       Positions in reference frame:
         [ +0.000000 +0.000000 +0.000000 ]
     Net charge: 1   dipole magnitude: 0
     Initializing gaussian mfKernel with width: 1.59012 Bohr
     deltaS corrections:
       site 'F': -9.04335

Correction to mu due to finite nuclear width = -0.0493607
   Cavity determined by nc: 0.00142 and sigma: 0.707107
   Nonlocal vdW cavity from gaussian model electron density with norm = 8 and sigma = 0.993594 bohr
   Charge asymmetry in cavity with sensitivity pCavity = 36.5 e-bohr/Eh
   Electrostatic cavity expanded by eta = 1.46 bohrs
   Weighted density cavitation model constrained by Nbulk: 0.0049383 bohr^-3, Pvap: 3.14029 kPa, Rvdw: 2.61727 bohr and sigmaBulk: 4.62e-05 Eh/bohr^2 at T: 298 K.
   Weighted density dispersion model using vdW pair potentials with single solvent site with sqrtC6eff: 0.77 SI.
Reading fluid state from 'jdft.fluidState'


---- Citations for features of the code used in this run ----

   Software package:
      R. Sundararaman, K. Letchworth-Weaver, K.A. Schwarz, D. Gunceler, Y. Ozhabes and T.A. Arias, 'JDFTx: software for joint density-functional theory', SoftwareX 6, 278 (2017)

   gga-PBE exchange-correlation functional:
      J.P. Perdew, K. Burke and M. Ernzerhof, Phys. Rev. Lett. 77, 3865 (1996)

   Pseudopotentials:
      KF Garrity, JW Bennett, KM Rabe and D Vanderbilt, Comput. Mater. Sci. 81, 446 (2014)

   DFT-D3 dispersion correction:
      S. Grimme, J. Antony, S. Ehrlich and H. Krieg, J. Chem. Phys. 132, 154104 (2010)

   DFT-D2 dispersion correction:
      S. Grimme, J. Comput. Chem. 27, 1787 (2006)

   Charge-asymmetric nonlocally-determined local-electric (CANDLE) solvation model:
      R. Sundararaman and W.A. Goddard III, J. Chem. Phys. 142, 064107 (2015)

   Total energy minimization with Auxiliary Hamiltonian:
      C. Freysoldt, S. Boeck, and J. Neugebauer, Phys. Rev. B 79, 241103(R) (2009)

   Linear-tetrahedron sampling for density of states:
      G. Lehmann and M. Taut, Phys. status solidi (b) 54, 469 (1972)

This list may not be complete. Please suggest additional citations or
report any other bugs at https://github.com/shankar1729/jdftx/issues

Initialization completed successfully at t[s]:     55.30


Computing DFT-D3 correction:
# coordination-number Ni 6.003 6.003 6.003 6.003 6.498 6.498 6.498 6.498 6.450 6.447 6.450 6.447 4.856 4.856 4.856 4.856
# coordination-number Au 5.058 5.058 5.058 5.058 8.346 8.346 8.346 8.346 5.058 5.058 5.058 5.058 8.346 8.346 8.346 8.346 8.442 8.442 8.442 8.442 7.660 7.660 7.660 7.660 8.488 8.487 8.488 8.487 8.824 7.929 7.930 7.929 8.488 8.487 8.488 8.487 8.824 7.929 7.930 7.929 6.301 5.126 6.350 5.126 8.683 8.683 8.683 8.683
# coordination-number C 4.761
# coordination-number O 1.475
# diagonal-C6 Ni 137.76 137.76 137.76 137.76 134.58 134.58 134.58 134.58 134.90 134.92 134.90 134.92 141.32 141.32 141.32 141.32
# diagonal-C6 Au 317.16 317.16 317.16 317.16 317.16 317.16 317.16 317.16 317.16 317.16 317.16 317.16 317.16 317.16 317.16 317.16 317.16 317.16 317.16 317.16 317.16 317.16 317.16 317.16 317.16 317.16 317.16 317.16 317.16 317.16 317.16 317.16 317.16 317.16 317.16 317.16 317.16 317.16 317.16 317.16 317.16 317.16 317.16 317.16 317.16 317.16 317.16 317.16
# diagonal-C6 C 18.21
# diagonal-C6 O 11.63
EvdW_6 =   -0.475505
EvdW_8 =   -0.831272

-------- Electronic minimization -----------
	Linear fluid (dielectric constant: 78.4, screening length: 8.12261 Bohr) occupying 0.435848 of unit cell:	Completed after 10 iterations at t[s]:     84.09
	FillingsUpdate:  mu: -0.168994723  nElectrons: 826.000000  magneticMoment: [ Abs: 5.32541  Tot: +0.00312 ]
ElecMinimize: Iter:   0  F: -4426.185566580530576  |grad|_K:  1.366e-06  alpha:  1.000e+00
	Linear fluid (dielectric constant: 78.4, screening length: 8.12261 Bohr) occupying 0.435444 of unit cell:	Completed after 22 iterations at t[s]:    307.67
	Linear fluid (dielectric constant: 78.4, screening length: 8.12261 Bohr) occupying 0.435828 of unit cell:	Completed after 23 iterations at t[s]:    384.14
	FillingsUpdate:  mu: -0.169355286  nElectrons: 826.000000  magneticMoment: [ Abs: 5.32084  Tot: +0.00448 ]
	SubspaceRotationAdjust: set factor to 0.399
ElecMinimize: Iter:   1  F: -4426.185580479594137  |grad|_K:  2.906e-07  alpha:  1.979e-02  linmin:  1.136e-02  t[s]:    476.97
	Linear fluid (dielectric constant: 78.4, screening length: 8.12261 Bohr) occupying 0.435832 of unit cell:	Completed after 7 iterations at t[s]:    580.46
	Linear fluid (dielectric constant: 78.4, screening length: 8.12261 Bohr) occupying 0.435832 of unit cell:	Completed after 0 iterations at t[s]:    649.41
	FillingsUpdate:  mu: -0.169369438  nElectrons: 826.000000  magneticMoment: [ Abs: 5.32139  Tot: +0.00457 ]
	SubspaceRotationAdjust: set factor to 0.373
ElecMinimize: Iter:   2  F: -4426.185581111853026  |grad|_K:  3.213e-08  alpha:  1.984e-02  linmin:  1.435e-04  t[s]:    742.35
	Linear fluid (dielectric constant: 78.4, screening length: 8.12261 Bohr) occupying 0.435833 of unit cell:	Completed after 0 iterations at t[s]:    843.26
ElecMinimize: 	Predicted alpha/alphaT>3.000000, increasing alphaT to 5.953284e-02.
	Linear fluid (dielectric constant: 78.4, screening length: 8.12261 Bohr) occupying 0.435833 of unit cell:	Completed after 1 iterations at t[s]:    912.77
	Linear fluid (dielectric constant: 78.4, screening length: 8.12261 Bohr) occupying 0.435833 of unit cell:	Completed after 1 iterations at t[s]:    982.31
	FillingsUpdate:  mu: -0.169355402  nElectrons: 826.000000  magneticMoment: [ Abs: 5.32141  Tot: +0.00444 ]
	SubspaceRotationAdjust: set factor to 0.301
ElecMinimize: Iter:   3  F: -4426.185581160169932  |grad|_K:  2.017e-08  alpha:  1.052e-01  linmin: -5.601e-03  t[s]:   1075.47
	Linear fluid (dielectric constant: 78.4, screening length: 8.12261 Bohr) occupying 0.435832 of unit cell:	Completed after 2 iterations at t[s]:   1177.51
	Linear fluid (dielectric constant: 78.4, screening length: 8.12261 Bohr) occupying 0.435832 of unit cell:	Completed after 0 iterations at t[s]:   1246.62
	FillingsUpdate:  mu: -0.169341660  nElectrons: 826.000000  magneticMoment: [ Abs: 5.32132  Tot: +0.00450 ]
	SubspaceRotationAdjust: set factor to 0.287
ElecMinimize: Iter:   4  F: -4426.185581178800021  |grad|_K:  1.385e-08  alpha:  9.284e-02  linmin: -1.604e-03  t[s]:   1339.49
ElecMinimize: Converged (|Delta F|<1.000000e-07 for 2 iters).
Setting wave functions to eigenvectors of Hamiltonian
Converging empty states (this may take a while): |deigs|: 1.067e-08

Computing DFT-D3 correction:
# coordination-number Ni 6.003 6.003 6.003 6.003 6.498 6.498 6.498 6.498 6.450 6.447 6.450 6.447 4.856 4.856 4.856 4.856
# coordination-number Au 5.058 5.058 5.058 5.058 8.346 8.346 8.346 8.346 5.058 5.058 5.058 5.058 8.346 8.346 8.346 8.346 8.442 8.442 8.442 8.442 7.660 7.660 7.660 7.660 8.488 8.487 8.488 8.487 8.824 7.929 7.930 7.929 8.488 8.487 8.488 8.487 8.824 7.929 7.930 7.929 6.301 5.126 6.350 5.126 8.683 8.683 8.683 8.683
# coordination-number C 4.761
# coordination-number O 1.475
# diagonal-C6 Ni 137.76 137.76 137.76 137.76 134.58 134.58 134.58 134.58 134.90 134.92 134.90 134.92 141.32 141.32 141.32 141.32
# diagonal-C6 Au 317.16 317.16 317.16 317.16 317.16 317.16 317.16 317.16 317.16 317.16 317.16 317.16 317.16 317.16 317.16 317.16 317.16 317.16 317.16 317.16 317.16 317.16 317.16 317.16 317.16 317.16 317.16 317.16 317.16 317.16 317.16 317.16 317.16 317.16 317.16 317.16 317.16 317.16 317.16 317.16 317.16 317.16 317.16 317.16 317.16 317.16 317.16 317.16
# diagonal-C6 C 18.21
# diagonal-C6 O 11.63
EvdW_6 =   -0.475505
EvdW_8 =   -0.831272

# Ionic positions in cartesian coordinates:
ion Ni   0.000000000000000   5.274698090909090   3.882074000000000 0
ion Ni   0.000000000000000  15.824098090909091   3.882074000000000 0
ion Ni   7.459552000000000   5.274698090909090   3.882074000000000 0
ion Ni   7.459552000000000  15.824098090909091   3.882074000000000 0
ion Ni   0.000000000000000  -0.000001909090908   9.268439000000001 0
ion Ni   0.000000000000000  10.549398090909088   9.268439000000001 0
ion Ni   7.459552000000000  -0.000001909090908   9.268439000000001 0
ion Ni   7.459552000000000  10.549398090909088   9.268439000000001 0
ion Ni   0.000000000000000   5.274698090909090  14.614135999999998 0
ion Ni   0.000000000000000  15.824098090909091  14.614135999999998 0
ion Ni   7.459552000000000   5.274698090909090  14.614135999999998 0
ion Ni   7.459552000000000  15.824098090909091  14.614135999999998 0
ion Ni   0.000000000000000  -0.000001909090908  19.449507000000001 0
ion Ni   0.000000000000000  10.549398090909088  19.449507000000001 0
ion Ni   7.459552000000000  -0.000001909090908  19.449507000000001 0
ion Ni   7.459552000000000  10.549398090909088  19.449507000000001 0
ion Au   3.729776000000000   7.805942090909090   1.216979000000000 0
ion Au   3.729776000000000  18.355342090909090   1.216979000000000 0
ion Au  11.189328000000000   7.805942090909090   1.216979000000000 0
ion Au  11.189328000000000  18.355342090909090   1.216979000000000 0
ion Au   3.729776000000000   2.622842590909091   6.596434000000001 0
ion Au   3.729776000000000  13.172242590909093   6.596434000000001 0
ion Au  11.189328000000000   2.622842590909091   6.596434000000001 0
ion Au  11.189328000000000  13.172242590909093   6.596434000000001 0
ion Au   3.729776000000000   2.743454090909090   1.216979000000000 0
ion Au   3.729776000000000  13.292854090909092   1.216979000000000 0
ion Au  11.189328000000000   2.743454090909090   1.216979000000000 0
ion Au  11.189328000000000  13.292854090909092   1.216979000000000 0
ion Au   3.729776000000000   7.926553590909089   6.596434000000001 0
ion Au   3.729776000000000  18.475953590909089   6.596434000000001 0
ion Au  11.189328000000000   7.926553590909089   6.596434000000001 0
ion Au  11.189328000000000  18.475953590909089   6.596434000000001 0
ion Au   0.000000000000000   5.274698090909090   9.262795000000001 0
ion Au   0.000000000000000  15.824098090909091   9.262795000000001 0
ion Au   7.459552000000000   5.274698090909090   9.262795000000001 0
ion Au   7.459552000000000  15.824098090909091   9.262795000000001 0
ion Au   0.000000000000000  -0.000001909090908   3.807964000000000 0
ion Au   0.000000000000000  10.549398090909088   3.807964000000000 0
ion Au   7.459552000000000  -0.000001909090908   3.807964000000000 0
ion Au   7.459552000000000  10.549398090909088   3.807964000000000 0
ion Au   3.729776000000000   7.897511090909089  11.929789000000000 0
ion Au   3.729776000000000  18.446911090909090  11.929789000000000 0
ion Au  11.189328000000000   7.897511090909089  11.929789000000000 0
ion Au  11.189328000000000  18.446911090909090  11.929789000000000 0
ion Au   3.729776000000000   2.633307590909090  17.362413000000000 0
ion Au   3.729776000000000  13.182697090909095  17.362413000000000 0
ion Au  11.189328000000000   2.633307590909090  17.362413000000000 0
ion Au  11.189328000000000  13.182697090909095  17.362413000000000 0
ion Au   3.729776000000000   2.651885090909091  11.929789000000000 0
ion Au   3.729776000000000  13.201285090909092  11.929789000000000 0
ion Au  11.189328000000000   2.651885090909091  11.929789000000000 0
ion Au  11.189328000000000  13.201285090909092  11.929789000000000 0
ion Au   3.729776000000000   7.916088590909090  17.362413000000000 0
ion Au   3.729776000000000  18.465499090909088  17.362413000000000 0
ion Au  11.189328000000000   7.916088590909090  17.362413000000000 0
ion Au  11.189328000000000  18.465499090909088  17.362413000000000 0
ion Au   0.000000000000000   5.274698090909090  19.814938000000001 0
ion Au   0.000000000000000  15.824098090909091  19.814938000000001 0
ion Au   7.459552000000000   5.274698090909090  19.814938000000001 0
ion Au   7.459552000000000  15.824098090909091  19.814938000000001 0
ion Au   0.000000000000000  -0.000001909090908  14.479526000000000 0
ion Au   0.000000000000000  10.549398090909088  14.479526000000000 0
ion Au   7.459552000000000  -0.000001909090908  14.479526000000000 0
ion Au   7.459552000000000  10.549398090909088  14.479526000000000 0
ion C   3.729776000000000   5.274698090909090  20.634350362552901 1  Linear 0 0 1
ion O   3.789870000000000   5.274698090909090  22.862172187813989 1  Linear 0 0 1

# Forces in Cartesian coordinates:
force Ni  -0.000080590810313   0.000000000000000  -0.000505188768748 0
force Ni  -0.000088294506319   0.000000000000000  -0.000355985210149 0
force Ni   0.000055700998336   0.000000000000000  -0.000519363211011 0
force Ni   0.000071339740229   0.000000000000000  -0.000351033563766 0
force Ni  -0.000016085003309  -0.000002282681840  -0.000041501341234 0
force Ni  -0.000016085003309   0.000002282681840  -0.000041501341234 0
force Ni   0.000038772596795   0.000009325605221  -0.000023478653224 0
force Ni   0.000038772596795  -0.000009325605221  -0.000023478653224 0
force Ni  -0.002391123723154   0.000000000000000  -0.003248367088255 0
force Ni  -0.000169909188773   0.000000000000000  -0.000156252148268 0
force Ni   0.002350632175934   0.000000000000000  -0.002922176310181 0
force Ni   0.000146850598925   0.000000000000000  -0.000157823072379 0
force Ni  -0.002210709041135  -0.002968628673128   0.000438525446529 0
force Ni  -0.002210709041135   0.002968628673128   0.000438525446529 0
force Ni   0.002115480991170  -0.003223829524768   0.000292929859377 0
force Ni   0.002115480991170   0.003223829524768   0.000292929859377 0
force Au   0.000023772712519  -0.000075960116651   0.000309254086717 0
force Au   0.000012455129498  -0.000230160403592   0.000055767425367 0
force Au   0.000008554053013  -0.000086333983327   0.000191638431264 0
force Au   0.000021144992058  -0.000192712516839   0.000210918084724 0
force Au  -0.000006123090180  -0.000338177074754   0.000669870976326 0
force Au  -0.000000806880947  -0.000202148720789   0.000342278709724 0
force Au   0.000004022008955  -0.000392905045910   0.000358799971318 0
force Au  -0.000000863642646  -0.000273096045264   0.000256274308745 0
force Au   0.000023772712519   0.000075960116651   0.000309254086717 0
force Au   0.000012455129498   0.000230160403592   0.000055767425367 0
force Au   0.000008554053013   0.000086333983327   0.000191638431264 0
force Au   0.000021144992058   0.000192712516839   0.000210918084724 0
force Au  -0.000006123090180   0.000338177074754   0.000669870976326 0
force Au  -0.000000806880947   0.000202148720789   0.000342278709724 0
force Au   0.000004022008955   0.000392905045910   0.000358799971318 0
force Au  -0.000000863642646   0.000273096045264   0.000256274308745 0
force Au  -0.000075377071604   0.000000000000000  -0.000526654353548 0
force Au  -0.000055058165886   0.000000000000000   0.000479916653530 0
force Au   0.000045126674958   0.000000000000000  -0.000497433182577 0
force Au   0.000031810198927   0.000000000000000   0.000466410108837 0
force Au  -0.000065510555481   0.000132187307498   0.000164002565123 0
force Au  -0.000065510555481  -0.000132187307498   0.000164002565123 0
force Au   0.000009678324256   0.000141574223824   0.000160198407418 0
force Au   0.000009678324256  -0.000141574223824   0.000160198407418 0
force Au  -0.000026398936467  -0.000306061634934   0.001610486744750 0
force Au  -0.000018823877486  -0.000227121487756  -0.000099631818710 0
force Au  -0.000015568888652   0.000181637519612  -0.000083497598543 0
force Au  -0.000002942350230   0.000249741257481   0.000241251479990 0
force Au   0.000133452819124  -0.022400256264273  -0.014487337939267 0
force Au  -0.000008393803221   0.001032208897682   0.000442580783926 0
force Au  -0.000007164751194   0.000914452360286   0.001234018861172 0
force Au   0.000003171635028  -0.000244293900557   0.000118846218926 0
force Au  -0.000026398936467   0.000306061634934   0.001610486744750 0
force Au  -0.000018823877486   0.000227121487756  -0.000099631818710 0
force Au  -0.000015568888652  -0.000181637519612  -0.000083497598543 0
force Au  -0.000002942350230  -0.000249741257481   0.000241251479990 0
force Au   0.000133452819124   0.022400256264273  -0.014487337939267 0
force Au  -0.000008393803221  -0.001032208897682   0.000442580783926 0
force Au  -0.000007164751194  -0.000914452360286   0.001234018861172 0
force Au   0.000003171635028   0.000244293900557   0.000118846218926 0
force Au  -0.044591027329525   0.000000000000000  -0.014373533050780 0
force Au  -0.000006031802023   0.000000000000000  -0.000044839103568 0
force Au   0.047344412777755   0.000000000000000  -0.016876237246348 0
force Au   0.000049772928126   0.000000000000000  -0.000004723424571 0
force Au  -0.000170676103866  -0.000107136916995   0.000000266097119 0
force Au  -0.000170676103866   0.000107136916995   0.000000266097119 0
force Au   0.000204632960359  -0.000169313208969  -0.000004273838635 0
force Au   0.000204632960359   0.000169313208969  -0.000004273838635 0
force C  -0.002760294003162   0.000000000000000  -0.012875725511541 1  Linear 0 0 1
force O  -0.000312020352319   0.000000000000000   0.078388971576396 1  Linear 0 0 1

# Energy components:
   A_diel =       -0.0253467119344690
   Eewald =    18019.5109828771237517
       EH =    22243.4819869468883553
     Eloc =   -45209.4128258494238253
      Enl =      217.3037063519371941
     EvdW =       -1.3067773161626617
      Exc =    -1784.0209403261378611
 Exc_core =     1102.1911931032843768
       KE =      986.0961699808386811
  MuShift =        0.0000000000007688
-------------------------------------
     Etot =    -4426.1818509435806845
       TS =        0.0037302352190072
-------------------------------------
        F =    -4426.1855811788000210


Dumping 'jdft.fillings' ... done
Dumping 'jdft.wfns' ... done
Dumping 'jdft.fluidState' ... done
Dumping 'jdft.ionpos' ... done
Dumping 'jdft.lattice' ... done
Dumping 'jdft.eigenvals' ... done
Dumping 'jdft.eigStats' ... 
	eMin: -3.934408 at state 9 ( [ +0.250000 +0.333333 +0.000000 ] spin -1 )
	HOMO: -0.169364 at state 6 ( [ +0.000000 +0.000000 +0.000000 ] spin -1 )
	mu  : -0.169342
	LUMO: -0.169322 at state 7 ( [ +0.000000 +0.333333 +0.000000 ] spin -1 )
	eMax: +0.086806 at state 7 ( [ +0.000000 +0.333333 +0.000000 ] spin -1 )
	HOMO-LUMO gap: +0.000042
	Optical gap  : +0.001500 at state 6 ( [ +0.000000 +0.000000 +0.000000 ] spin -1 )
Dumping 'jdft.Ecomponents' ... done
IonicMinimize: Iter:   0  F: -4426.185581178800021  |grad|_K:  5.617e-02  t[s]:   1618.36

#--- Lowdin population analysis ---
# oxidation-state Ni +0.227 +0.226 +0.227 +0.226 +0.197 +0.197 +0.197 +0.197 +0.192 +0.209 +0.191 +0.209 +0.300 +0.300 +0.300 +0.300
# magnetic-moments Ni +0.199 +0.159 -0.198 -0.162 -0.177 -0.177 +0.177 +0.177 +0.287 +0.292 -0.284 -0.292 -0.519 -0.519 +0.520 +0.520
# oxidation-state Au -0.003 -0.005 -0.004 -0.004 -0.060 -0.060 -0.060 -0.060 -0.003 -0.005 -0.004 -0.004 -0.060 -0.060 -0.060 -0.060 -0.051 -0.050 -0.051 -0.050 -0.115 -0.115 -0.115 -0.115 -0.052 -0.045 -0.046 -0.044 -0.056 -0.128 -0.154 -0.127 -0.052 -0.045 -0.046 -0.044 -0.056 -0.128 -0.154 -0.127 +0.114 +0.040 +0.118 +0.040 -0.062 -0.062 -0.062 -0.062
# magnetic-moments Au +0.000 -0.000 +0.000 -0.000 +0.000 +0.000 +0.000 +0.000 +0.000 -0.000 +0.000 -0.000 +0.000 +0.000 +0.000 +0.000 +0.000 +0.001 -0.000 -0.001 -0.001 -0.001 +0.001 +0.001 -0.000 -0.000 -0.000 +0.000 +0.000 -0.000 -0.000 -0.000 -0.000 -0.000 -0.000 +0.000 +0.000 -0.000 -0.000 -0.000 +0.023 +0.022 -0.022 -0.022 -0.001 -0.001 +0.001 +0.001
# oxidation-state C +0.195
# magnetic-moments C +0.000
# oxidation-state O -0.162
# magnetic-moments O +0.000


Computing DFT-D3 correction:
# coordination-number Ni 6.003 6.003 6.003 6.003 6.498 6.498 6.498 6.498 6.450 6.447 6.450 6.447 4.856 4.856 4.856 4.856
# coordination-number Au 5.058 5.058 5.058 5.058 8.346 8.346 8.346 8.346 5.058 5.058 5.058 5.058 8.346 8.346 8.346 8.346 8.442 8.442 8.442 8.442 7.660 7.660 7.660 7.660 8.488 8.487 8.488 8.487 8.827 7.929 7.930 7.929 8.488 8.487 8.488 8.487 8.827 7.929 7.930 7.929 6.279 5.126 6.323 5.126 8.683 8.683 8.683 8.683
# coordination-number C 4.771
# coordination-number O 1.421
# diagonal-C6 Ni 137.76 137.76 137.76 137.76 134.58 134.58 134.58 134.58 134.90 134.92 134.90 134.92 141.32 141.32 141.32 141.32
# diagonal-C6 Au 317.16 317.16 317.16 317.16 317.16 317.16 317.16 317.16 317.16 317.16 317.16 317.16 317.16 317.16 317.16 317.16 317.16 317.16 317.16 317.16 317.16 317.16 317.16 317.16 317.16 317.16 317.16 317.16 317.16 317.16 317.16 317.16 317.16 317.16 317.16 317.16 317.16 317.16 317.16 317.16 317.16 317.16 317.16 317.16 317.16 317.16 317.16 317.16
# diagonal-C6 C 18.21
# diagonal-C6 O 11.88
EvdW_6 =   -0.475516
EvdW_8 =   -0.831282

-------- Electronic minimization -----------
	Linear fluid (dielectric constant: 78.4, screening length: 8.12261 Bohr) occupying 0.435870 of unit cell:	Completed after 20 iterations at t[s]:   1733.87
	FillingsUpdate:  mu: -0.165536001  nElectrons: 826.000000  magneticMoment: [ Abs: 5.32399  Tot: +0.00503 ]
ElecMinimize: Iter:   0  F: -4426.134720961964376  |grad|_K:  1.529e-05  alpha:  1.000e+00
	Linear fluid (dielectric constant: 78.4, screening length: 8.12261 Bohr) occupying 0.436263 of unit cell:	Completed after 23 iterations at t[s]:   1959.28
	Linear fluid (dielectric constant: 78.4, screening length: 8.12261 Bohr) occupying 0.436021 of unit cell:	Completed after 21 iterations at t[s]:   2034.53
	FillingsUpdate:  mu: -0.165503378  nElectrons: 826.000000  magneticMoment: [ Abs: 5.34453  Tot: +0.00193 ]
	SubspaceRotationAdjust: set factor to 0.224
ElecMinimize: Iter:   1  F: -4426.182999454742458  |grad|_K:  6.996e-06  alpha:  4.890e-01  linmin:  2.497e-04  t[s]:   2127.74
	Linear fluid (dielectric constant: 78.4, screening length: 8.12261 Bohr) occupying 0.435328 of unit cell:	Completed after 23 iterations at t[s]:   2236.76
	Linear fluid (dielectric constant: 78.4, screening length: 8.12261 Bohr) occupying 0.435718 of unit cell:	Completed after 23 iterations at t[s]:   2313.19
	FillingsUpdate:  mu: -0.169160528  nElectrons: 826.000000  magneticMoment: [ Abs: 5.31071  Tot: +0.00545 ]
	SubspaceRotationAdjust: set factor to 0.143
ElecMinimize: Iter:   2  F: -4426.184656184607775  |grad|_K:  4.419e-06  alpha:  7.994e-02  linmin: -5.308e-05  t[s]:   2406.51
	Linear fluid (dielectric constant: 78.4, screening length: 8.12261 Bohr) occupying 0.435676 of unit cell:	Completed after 11 iterations at t[s]:   2511.84
ElecMinimize: 	Predicted alpha/alphaT>3.000000, increasing alphaT to 2.398318e-01.
	Linear fluid (dielectric constant: 78.4, screening length: 8.12261 Bohr) occupying 0.435598 of unit cell:	Completed after 13 iterations at t[s]:   2584.71
	Linear fluid (dielectric constant: 78.4, screening length: 8.12261 Bohr) occupying 0.435590 of unit cell:	Completed after 7 iterations at t[s]:   2656.09
	FillingsUpdate:  mu: -0.169623953  nElectrons: 826.000000  magneticMoment: [ Abs: 5.31911  Tot: +0.00699 ]
	SubspaceRotationAdjust: set factor to 0.19
ElecMinimize: Iter:   3  F: -4426.186786060286977  |grad|_K:  2.789e-06  alpha:  2.569e-01  linmin:  1.278e-05  t[s]:   2748.86
	Linear fluid (dielectric constant: 78.4, screening length: 8.12261 Bohr) occupying 0.435607 of unit cell:	Completed after 14 iterations at t[s]:   2855.13
	Linear fluid (dielectric constant: 78.4, screening length: 8.12261 Bohr) occupying 0.435603 of unit cell:	Completed after 11 iterations at t[s]:   2927.82
	FillingsUpdate:  mu: -0.169719541  nElectrons: 826.000000  magneticMoment: [ Abs: 5.32822  Tot: +0.00346 ]
	SubspaceRotationAdjust: set factor to 0.172
ElecMinimize: Iter:   4  F: -4426.187438091406875  |grad|_K:  1.933e-06  alpha:  1.978e-01  linmin:  1.215e-05  t[s]:   3020.63
	Linear fluid (dielectric constant: 78.4, screening length: 8.12261 Bohr) occupying 0.435571 of unit cell:	Completed after 12 iterations at t[s]:   3126.23
	Linear fluid (dielectric constant: 78.4, screening length: 8.12261 Bohr) occupying 0.435571 of unit cell:	Completed after 2 iterations at t[s]:   3197.00
	FillingsUpdate:  mu: -0.170092923  nElectrons: 826.000000  magneticMoment: [ Abs: 5.32785  Tot: +0.00641 ]
	SubspaceRotationAdjust: set factor to 0.175
ElecMinimize: Iter:   5  F: -4426.187745316346081  |grad|_K:  1.480e-06  alpha:  1.943e-01  linmin: -9.900e-07  t[s]:   3289.98
	Linear fluid (dielectric constant: 78.4, screening length: 8.12261 Bohr) occupying 0.435556 of unit cell:	Completed after 11 iterations at t[s]:   3395.24
	Linear fluid (dielectric constant: 78.4, screening length: 8.12261 Bohr) occupying 0.435551 of unit cell:	Completed after 8 iterations at t[s]:   3466.96
	FillingsUpdate:  mu: -0.170544855  nElectrons: 826.000000  magneticMoment: [ Abs: 5.33584  Tot: +0.00412 ]
	SubspaceRotationAdjust: set factor to 0.168
ElecMinimize: Iter:   6  F: -4426.187983790792714  |grad|_K:  1.464e-06  alpha:  2.570e-01  linmin:  1.127e-05  t[s]:   3560.10
	Linear fluid (dielectric constant: 78.4, screening length: 8.12261 Bohr) occupying 0.435444 of unit cell:	Completed after 15 iterations at t[s]:   3666.49
	Linear fluid (dielectric constant: 78.4, screening length: 8.12261 Bohr) occupying 0.435480 of unit cell:	Completed after 11 iterations at t[s]:   3739.28
	FillingsUpdate:  mu: -0.170882607  nElectrons: 826.000000  magneticMoment: [ Abs: 5.32954  Tot: +0.00373 ]
	SubspaceRotationAdjust: set factor to 0.141
ElecMinimize: Iter:   7  F: -4426.188133784893580  |grad|_K:  8.307e-07  alpha:  1.652e-01  linmin:  3.875e-06  t[s]:   3832.39
	Linear fluid (dielectric constant: 78.4, screening length: 8.12261 Bohr) occupying 0.435472 of unit cell:	Completed after 11 iterations at t[s]:   3937.79
	Linear fluid (dielectric constant: 78.4, screening length: 8.12261 Bohr) occupying 0.435461 of unit cell:	Completed after 10 iterations at t[s]:   4010.08
	FillingsUpdate:  mu: -0.169972402  nElectrons: 826.000000  magneticMoment: [ Abs: 5.32886  Tot: +0.00631 ]
	SubspaceRotationAdjust: set factor to 0.149
ElecMinimize: Iter:   8  F: -4426.188239649990464  |grad|_K:  7.447e-07  alpha:  3.620e-01  linmin: -6.804e-06  t[s]:   4103.07
	Linear fluid (dielectric constant: 78.4, screening length: 8.12261 Bohr) occupying 0.435473 of unit cell:	Completed after 11 iterations at t[s]:   4208.34
	Linear fluid (dielectric constant: 78.4, screening length: 8.12261 Bohr) occupying 0.435469 of unit cell:	Completed after 9 iterations at t[s]:   4280.29
	FillingsUpdate:  mu: -0.170229692  nElectrons: 826.000000  magneticMoment: [ Abs: 5.33291  Tot: +0.00313 ]
	SubspaceRotationAdjust: set factor to 0.154
ElecMinimize: Iter:   9  F: -4426.188293485673057  |grad|_K:  6.527e-07  alpha:  2.289e-01  linmin:  1.002e-06  t[s]:   4373.52
	Linear fluid (dielectric constant: 78.4, screening length: 8.12261 Bohr) occupying 0.435462 of unit cell:	Completed after 11 iterations at t[s]:   4478.69
	Linear fluid (dielectric constant: 78.4, screening length: 8.12261 Bohr) occupying 0.435462 of unit cell:	Completed after 2 iterations at t[s]:   4548.53
	FillingsUpdate:  mu: -0.170550714  nElectrons: 826.000000  magneticMoment: [ Abs: 5.33133  Tot: +0.00540 ]
	SubspaceRotationAdjust: set factor to 0.142
ElecMinimize: Iter:  10  F: -4426.188339319602164  |grad|_K:  5.566e-07  alpha:  2.540e-01  linmin: -8.188e-06  t[s]:   4641.59
	Linear fluid (dielectric constant: 78.4, screening length: 8.12261 Bohr) occupying 0.435473 of unit cell:	Completed after 6 iterations at t[s]:   4745.36
	Linear fluid (dielectric constant: 78.4, screening length: 8.12261 Bohr) occupying 0.435473 of unit cell:	Completed after 2 iterations at t[s]:   4815.04
	FillingsUpdate:  mu: -0.170263701  nElectrons: 826.000000  magneticMoment: [ Abs: 5.33162  Tot: +0.00449 ]
	SubspaceRotationAdjust: set factor to 0.154
ElecMinimize: Iter:  11  F: -4426.188371414263202  |grad|_K:  4.757e-07  alpha:  2.441e-01  linmin: -5.816e-07  t[s]:   4908.23
	Linear fluid (dielectric constant: 78.4, screening length: 8.12261 Bohr) occupying 0.435482 of unit cell:	Completed after 9 iterations at t[s]:   5013.28
	Linear fluid (dielectric constant: 78.4, screening length: 8.12261 Bohr) occupying 0.435484 of unit cell:	Completed after 2 iterations at t[s]:   5082.78
	FillingsUpdate:  mu: -0.170154366  nElectrons: 826.000000  magneticMoment: [ Abs: 5.33160  Tot: +0.00307 ]
	SubspaceRotationAdjust: set factor to 0.155
ElecMinimize: Iter:  12  F: -4426.188398256040273  |grad|_K:  3.646e-07  alpha:  2.800e-01  linmin: -9.394e-06  t[s]:   5175.87
	Linear fluid (dielectric constant: 78.4, screening length: 8.12261 Bohr) occupying 0.435504 of unit cell:	Completed after 9 iterations at t[s]:   5280.54
	Linear fluid (dielectric constant: 78.4, screening length: 8.12261 Bohr) occupying 0.435502 of unit cell:	Completed after 2 iterations at t[s]:   5350.18
	FillingsUpdate:  mu: -0.170189290  nElectrons: 826.000000  magneticMoment: [ Abs: 5.33268  Tot: +0.00567 ]
	SubspaceRotationAdjust: set factor to 0.151
ElecMinimize: Iter:  13  F: -4426.188412147914278  |grad|_K:  3.602e-07  alpha:  2.461e-01  linmin:  7.508e-06  t[s]:   5443.15
	Linear fluid (dielectric constant: 78.4, screening length: 8.12261 Bohr) occupying 0.435522 of unit cell:	Completed after 7 iterations at t[s]:   5547.25
	Linear fluid (dielectric constant: 78.4, screening length: 8.12261 Bohr) occupying 0.435527 of unit cell:	Completed after 2 iterations at t[s]:   5616.90
	FillingsUpdate:  mu: -0.170068796  nElectrons: 826.000000  magneticMoment: [ Abs: 5.33266  Tot: +0.00346 ]
	SubspaceRotationAdjust: set factor to 0.156
ElecMinimize: Iter:  14  F: -4426.188428412336179  |grad|_K:  2.928e-07  alpha:  2.969e-01  linmin:  4.665e-07  t[s]:   5710.04
	Linear fluid (dielectric constant: 78.4, screening length: 8.12261 Bohr) occupying 0.435534 of unit cell:	Completed after 9 iterations at t[s]:   5814.79
	Linear fluid (dielectric constant: 78.4, screening length: 8.12261 Bohr) occupying 0.435533 of unit cell:	Completed after 3 iterations at t[s]:   5884.90
	FillingsUpdate:  mu: -0.170079923  nElectrons: 826.000000  magneticMoment: [ Abs: 5.33147  Tot: +0.00478 ]
	SubspaceRotationAdjust: set factor to 0.14
ElecMinimize: Iter:  15  F: -4426.188437067447012  |grad|_K:  2.389e-07  alpha:  2.379e-01  linmin:  2.034e-05  t[s]:   5977.97
	Linear fluid (dielectric constant: 78.4, screening length: 8.12261 Bohr) occupying 0.435540 of unit cell:	Completed after 3 iterations at t[s]:   6080.73
	Linear fluid (dielectric constant: 78.4, screening length: 8.12261 Bohr) occupying 0.435540 of unit cell:	Completed after 0 iterations at t[s]:   6149.36
	FillingsUpdate:  mu: -0.170164545  nElectrons: 826.000000  magneticMoment: [ Abs: 5.33194  Tot: +0.00418 ]
	SubspaceRotationAdjust: set factor to 0.138
ElecMinimize: Iter:  16  F: -4426.188442700343330  |grad|_K:  1.912e-07  alpha:  2.344e-01  linmin:  3.076e-05  t[s]:   6242.53
	Linear fluid (dielectric constant: 78.4, screening length: 8.12261 Bohr) occupying 0.435544 of unit cell:	Completed after 2 iterations at t[s]:   6344.95
	Linear fluid (dielectric constant: 78.4, screening length: 8.12261 Bohr) occupying 0.435545 of unit cell:	Completed after 2 iterations at t[s]:   6414.33
	FillingsUpdate:  mu: -0.170065433  nElectrons: 826.000000  magneticMoment: [ Abs: 5.33187  Tot: +0.00361 ]
	SubspaceRotationAdjust: set factor to 0.151
ElecMinimize: Iter:  17  F: -4426.188447528382312  |grad|_K:  1.625e-07  alpha:  3.137e-01  linmin: -3.149e-05  t[s]:   6507.15
	Linear fluid (dielectric constant: 78.4, screening length: 8.12261 Bohr) occupying 0.435552 of unit cell:	Completed after 7 iterations at t[s]:   6611.10
	Linear fluid (dielectric constant: 78.4, screening length: 8.12261 Bohr) occupying 0.435550 of unit cell:	Completed after 3 iterations at t[s]:   6680.94
	FillingsUpdate:  mu: -0.170027021  nElectrons: 826.000000  magneticMoment: [ Abs: 5.33251  Tot: +0.00448 ]
	SubspaceRotationAdjust: set factor to 0.124
ElecMinimize: Iter:  18  F: -4426.188449745638536  |grad|_K:  1.373e-07  alpha:  1.967e-01  linmin:  3.975e-05  t[s]:   6774.10
	Linear fluid (dielectric constant: 78.4, screening length: 8.12261 Bohr) occupying 0.435547 of unit cell:	Completed after 6 iterations at t[s]:   6877.50
	Linear fluid (dielectric constant: 78.4, screening length: 8.12261 Bohr) occupying 0.435546 of unit cell:	Completed after 2 iterations at t[s]:   6946.98
	FillingsUpdate:  mu: -0.170105537  nElectrons: 826.000000  magneticMoment: [ Abs: 5.33197  Tot: +0.00418 ]
	SubspaceRotationAdjust: set factor to 0.131
ElecMinimize: Iter:  19  F: -4426.188451906463342  |grad|_K:  8.501e-08  alpha:  2.702e-01  linmin: -1.765e-04  t[s]:   7040.06
	Linear fluid (dielectric constant: 78.4, screening length: 8.12261 Bohr) occupying 0.435543 of unit cell:	Completed after 3 iterations at t[s]:   7142.93
	Linear fluid (dielectric constant: 78.4, screening length: 8.12261 Bohr) occupying 0.435543 of unit cell:	Completed after 2 iterations at t[s]:   7212.75
	FillingsUpdate:  mu: -0.170117609  nElectrons: 826.000000  magneticMoment: [ Abs: 5.33203  Tot: +0.00400 ]
	SubspaceRotationAdjust: set factor to 0.133
ElecMinimize: Iter:  20  F: -4426.188452944672463  |grad|_K:  7.138e-08  alpha:  3.292e-01  linmin: -6.048e-06  t[s]:   7305.70
	Linear fluid (dielectric constant: 78.4, screening length: 8.12261 Bohr) occupying 0.435541 of unit cell:	Completed after 2 iterations at t[s]:   7407.68
	Linear fluid (dielectric constant: 78.4, screening length: 8.12261 Bohr) occupying 0.435542 of unit cell:	Completed after 2 iterations at t[s]:   7477.34
	FillingsUpdate:  mu: -0.170075776  nElectrons: 826.000000  magneticMoment: [ Abs: 5.33208  Tot: +0.00440 ]
	SubspaceRotationAdjust: set factor to 0.128
ElecMinimize: Iter:  21  F: -4426.188453457692958  |grad|_K:  6.062e-08  alpha:  2.380e-01  linmin:  6.415e-05  t[s]:   7570.61
	Linear fluid (dielectric constant: 78.4, screening length: 8.12261 Bohr) occupying 0.435540 of unit cell:	Completed after 2 iterations at t[s]:   7672.98
	Linear fluid (dielectric constant: 78.4, screening length: 8.12261 Bohr) occupying 0.435540 of unit cell:	Completed after 0 iterations at t[s]:   7741.73
	FillingsUpdate:  mu: -0.170080027  nElectrons: 826.000000  magneticMoment: [ Abs: 5.33229  Tot: +0.00404 ]
	SubspaceRotationAdjust: set factor to 0.123
ElecMinimize: Iter:  22  F: -4426.188453837722591  |grad|_K:  4.341e-08  alpha:  2.471e-01  linmin: -1.482e-04  t[s]:   7835.38
	Linear fluid (dielectric constant: 78.4, screening length: 8.12261 Bohr) occupying 0.435539 of unit cell:	Completed after 2 iterations at t[s]:   7937.80
	Linear fluid (dielectric constant: 78.4, screening length: 8.12261 Bohr) occupying 0.435539 of unit cell:	Completed after 0 iterations at t[s]:   8006.73
	FillingsUpdate:  mu: -0.170103760  nElectrons: 826.000000  magneticMoment: [ Abs: 5.33238  Tot: +0.00419 ]
	SubspaceRotationAdjust: set factor to 0.137
ElecMinimize: Iter:  23  F: -4426.188454047707637  |grad|_K:  3.178e-08  alpha:  2.555e-01  linmin: -2.224e-04  t[s]:   8099.99
	Linear fluid (dielectric constant: 78.4, screening length: 8.12261 Bohr) occupying 0.435537 of unit cell:	Completed after 2 iterations at t[s]:   8202.12
	Linear fluid (dielectric constant: 78.4, screening length: 8.12261 Bohr) occupying 0.435537 of unit cell:	Completed after 0 iterations at t[s]:   8271.02
	FillingsUpdate:  mu: -0.170107336  nElectrons: 826.000000  magneticMoment: [ Abs: 5.33227  Tot: +0.00421 ]
	SubspaceRotationAdjust: set factor to 0.132
ElecMinimize: Iter:  24  F: -4426.188454159757384  |grad|_K:  2.650e-08  alpha:  2.529e-01  linmin: -1.041e-04  t[s]:   8363.97
	Linear fluid (dielectric constant: 78.4, screening length: 8.12261 Bohr) occupying 0.435536 of unit cell:	Completed after 1 iterations at t[s]:   8465.99
	Linear fluid (dielectric constant: 78.4, screening length: 8.12261 Bohr) occupying 0.435536 of unit cell:	Completed after 0 iterations at t[s]:   8534.69
	FillingsUpdate:  mu: -0.170114397  nElectrons: 826.000000  magneticMoment: [ Abs: 5.33235  Tot: +0.00412 ]
	SubspaceRotationAdjust: set factor to 0.142
ElecMinimize: Iter:  25  F: -4426.188454230866228  |grad|_K:  2.102e-08  alpha:  2.363e-01  linmin: -1.042e-05  t[s]:   8628.18
	Linear fluid (dielectric constant: 78.4, screening length: 8.12261 Bohr) occupying 0.435535 of unit cell:	Completed after 1 iterations at t[s]:   8730.33
	Linear fluid (dielectric constant: 78.4, screening length: 8.12261 Bohr) occupying 0.435535 of unit cell:	Completed after 0 iterations at t[s]:   8799.79
	FillingsUpdate:  mu: -0.170114891  nElectrons: 826.000000  magneticMoment: [ Abs: 5.33248  Tot: +0.00425 ]
	SubspaceRotationAdjust: set factor to 0.152
ElecMinimize: Iter:  26  F: -4426.188454281757004  |grad|_K:  1.543e-08  alpha:  2.781e-01  linmin: -4.277e-04  t[s]:   8893.56
ElecMinimize: Converged (|Delta F|<1.000000e-07 for 2 iters).
Setting wave functions to eigenvectors of Hamiltonian
Converging empty states (this may take a while): |deigs|: 9.932e-07

Computing DFT-D3 correction:
# coordination-number Ni 6.003 6.003 6.003 6.003 6.498 6.498 6.498 6.498 6.450 6.447 6.450 6.447 4.856 4.856 4.856 4.856
# coordination-number Au 5.058 5.058 5.058 5.058 8.346 8.346 8.346 8.346 5.058 5.058 5.058 5.058 8.346 8.346 8.346 8.346 8.442 8.442 8.442 8.442 7.660 7.660 7.660 7.660 8.488 8.487 8.488 8.487 8.827 7.929 7.930 7.929 8.488 8.487 8.488 8.487 8.827 7.929 7.930 7.929 6.279 5.126 6.323 5.126 8.683 8.683 8.683 8.683
# coordination-number C 4.771
# coordination-number O 1.421
# diagonal-C6 Ni 137.76 137.76 137.76 137.76 134.58 134.58 134.58 134.58 134.90 134.92 134.90 134.92 141.32 141.32 141.32 141.32
# diagonal-C6 Au 317.16 317.16 317.16 317.16 317.16 317.16 317.16 317.16 317.16 317.16 317.16 317.16 317.16 317.16 317.16 317.16 317.16 317.16 317.16 317.16 317.16 317.16 317.16 317.16 317.16 317.16 317.16 317.16 317.16 317.16 317.16 317.16 317.16 317.16 317.16 317.16 317.16 317.16 317.16 317.16 317.16 317.16 317.16 317.16 317.16 317.16 317.16 317.16
# diagonal-C6 C 18.21
# diagonal-C6 O 11.88
EvdW_6 =   -0.475516
EvdW_8 =   -0.831282

# Ionic positions in cartesian coordinates:
ion Ni   0.000000000000000   5.274698090909090   3.882074000000000 0
ion Ni   0.000000000000000  15.824098090909091   3.882074000000000 0
ion Ni   7.459552000000000   5.274698090909090   3.882074000000000 0
ion Ni   7.459552000000000  15.824098090909091   3.882074000000000 0
ion Ni   0.000000000000000  -0.000001909090908   9.268439000000001 0
ion Ni   0.000000000000000  10.549398090909088   9.268439000000001 0
ion Ni   7.459552000000000  -0.000001909090908   9.268439000000001 0
ion Ni   7.459552000000000  10.549398090909088   9.268439000000001 0
ion Ni   0.000000000000000   5.274698090909090  14.614135999999998 0
ion Ni   0.000000000000000  15.824098090909091  14.614135999999998 0
ion Ni   7.459552000000000   5.274698090909090  14.614135999999998 0
ion Ni   7.459552000000000  15.824098090909091  14.614135999999998 0
ion Ni   0.000000000000000  -0.000001909090908  19.449507000000001 0
ion Ni   0.000000000000000  10.549398090909088  19.449507000000001 0
ion Ni   7.459552000000000  -0.000001909090908  19.449507000000001 0
ion Ni   7.459552000000000  10.549398090909088  19.449507000000001 0
ion Au   3.729776000000000   7.805942090909090   1.216979000000000 0
ion Au   3.729776000000000  18.355342090909090   1.216979000000000 0
ion Au  11.189328000000000   7.805942090909090   1.216979000000000 0
ion Au  11.189328000000000  18.355342090909090   1.216979000000000 0
ion Au   3.729776000000000   2.622842590909091   6.596434000000001 0
ion Au   3.729776000000000  13.172242590909093   6.596434000000001 0
ion Au  11.189328000000000   2.622842590909091   6.596434000000001 0
ion Au  11.189328000000000  13.172242590909093   6.596434000000001 0
ion Au   3.729776000000000   2.743454090909090   1.216979000000000 0
ion Au   3.729776000000000  13.292854090909092   1.216979000000000 0
ion Au  11.189328000000000   2.743454090909090   1.216979000000000 0
ion Au  11.189328000000000  13.292854090909092   1.216979000000000 0
ion Au   3.729776000000000   7.926553590909089   6.596434000000001 0
ion Au   3.729776000000000  18.475953590909089   6.596434000000001 0
ion Au  11.189328000000000   7.926553590909089   6.596434000000001 0
ion Au  11.189328000000000  18.475953590909089   6.596434000000001 0
ion Au   0.000000000000000   5.274698090909090   9.262795000000001 0
ion Au   0.000000000000000  15.824098090909091   9.262795000000001 0
ion Au   7.459552000000000   5.274698090909090   9.262795000000001 0
ion Au   7.459552000000000  15.824098090909091   9.262795000000001 0
ion Au   0.000000000000000  -0.000001909090908   3.807964000000000 0
ion Au   0.000000000000000  10.549398090909088   3.807964000000000 0
ion Au   7.459552000000000  -0.000001909090908   3.807964000000000 0
ion Au   7.459552000000000  10.549398090909088   3.807964000000000 0
ion Au   3.729776000000000   7.897511090909089  11.929789000000000 0
ion Au   3.729776000000000  18.446911090909090  11.929789000000000 0
ion Au  11.189328000000000   7.897511090909089  11.929789000000000 0
ion Au  11.189328000000000  18.446911090909090  11.929789000000000 0
ion Au   3.729776000000000   2.633307590909090  17.362413000000000 0
ion Au   3.729776000000000  13.182697090909095  17.362413000000000 0
ion Au  11.189328000000000   2.633307590909090  17.362413000000000 0
ion Au  11.189328000000000  13.182697090909095  17.362413000000000 0
ion Au   3.729776000000000   2.651885090909091  11.929789000000000 0
ion Au   3.729776000000000  13.201285090909092  11.929789000000000 0
ion Au  11.189328000000000   2.651885090909091  11.929789000000000 0
ion Au  11.189328000000000  13.201285090909092  11.929789000000000 0
ion Au   3.729776000000000   7.916088590909090  17.362413000000000 0
ion Au   3.729776000000000  18.465499090909088  17.362413000000000 0
ion Au  11.189328000000000   7.916088590909090  17.362413000000000 0
ion Au  11.189328000000000  18.465499090909088  17.362413000000000 0
ion Au   0.000000000000000   5.274698090909090  19.814938000000001 0
ion Au   0.000000000000000  15.824098090909091  19.814938000000001 0
ion Au   7.459552000000000   5.274698090909090  19.814938000000001 0
ion Au   7.459552000000000  15.824098090909091  19.814938000000001 0
ion Au   0.000000000000000  -0.000001909090908  14.479526000000000 0
ion Au   0.000000000000000  10.549398090909088  14.479526000000000 0
ion Au   7.459552000000000  -0.000001909090908  14.479526000000000 0
ion Au   7.459552000000000  10.549398090909088  14.479526000000000 0
ion C   3.729776000000000   5.274698090909090  20.621474637041359 1  Linear 0 0 1
ion O   3.789870000000000   5.274698090909090  22.940561159390384 1  Linear 0 0 1

# Forces in Cartesian coordinates:
force Ni  -0.000078076818528   0.000000000000000  -0.000502886769295 0
force Ni  -0.000087693157233   0.000000000000000  -0.000370315352383 0
force Ni   0.000054092770950   0.000000000000000  -0.000515145570826 0
force Ni   0.000070686787601   0.000000000000000  -0.000363582057719 0
force Ni  -0.000016879477993  -0.000001620714325   0.000001067846520 0
force Ni  -0.000016879477993   0.000001620714325   0.000001067846520 0
force Ni   0.000038996684262   0.000010867492313   0.000029967552780 0
force Ni   0.000038996684262  -0.000010867492313   0.000029967552780 0
force Ni  -0.002496111189231   0.000000000000000  -0.003178887632696 0
force Ni  -0.000176390279888   0.000000000000000  -0.000106133286076 0
force Ni   0.002453850913844   0.000000000000000  -0.002848787981724 0
force Ni   0.000152398013747   0.000000000000000  -0.000111592950357 0
force Ni  -0.002261563859032  -0.003010473588534   0.000486030463968 0
force Ni  -0.002261563859032   0.003010473588534   0.000486030463968 0
force Ni   0.002165274666107  -0.003252648027727   0.000283272813783 0
force Ni   0.002165274666107   0.003252648027727   0.000283272813783 0
force Au   0.000022402794175  -0.000069476250637   0.000288749730978 0
force Au   0.000012822954196  -0.000244129725378   0.000044984324460 0
force Au   0.000010247929181  -0.000085665672639   0.000172255423156 0
force Au   0.000020982770393  -0.000203121123772   0.000195144947592 0
force Au  -0.000007102865739  -0.000355644604961   0.000651423397201 0
force Au  -0.000000612323951  -0.000203387397337   0.000331274504813 0
force Au   0.000005509887914  -0.000412361993737   0.000326874774209 0
force Au  -0.000001122699772  -0.000267311491327   0.000243863022612 0
force Au   0.000022402794175   0.000069476250637   0.000288749730978 0
force Au   0.000012822954196   0.000244129725378   0.000044984324460 0
force Au   0.000010247929181   0.000085665672639   0.000172255423156 0
force Au   0.000020982770393   0.000203121123772   0.000195144947592 0
force Au  -0.000007102865739   0.000355644604961   0.000651423397201 0
force Au  -0.000000612323951   0.000203387397337   0.000331274504813 0
force Au   0.000005509887914   0.000412361993737   0.000326874774209 0
force Au  -0.000001122699772   0.000267311491327   0.000243863022612 0
force Au  -0.000073535735531   0.000000000000000  -0.000510221947124 0
force Au  -0.000053096726496   0.000000000000000   0.000507528634688 0
force Au   0.000048879014110   0.000000000000000  -0.000470984782233 0
force Au   0.000030109974837   0.000000000000000   0.000495706209697 0
force Au  -0.000068062329179   0.000129173223818   0.000154742833400 0
force Au  -0.000068062329179  -0.000129173223818   0.000154742833400 0
force Au   0.000012674741438   0.000136032331067   0.000152010524786 0
force Au   0.000012674741438  -0.000136032331067   0.000152010524786 0
force Au  -0.000022639922087  -0.000246733422411   0.001642748293083 0
force Au  -0.000018558723086  -0.000249862044967  -0.000116845217435 0
force Au  -0.000019406720081   0.000201439593141  -0.000097409119359 0
force Au  -0.000003186080016   0.000228149548024   0.000228707613453 0
force Au   0.000139330566054  -0.022180245258092  -0.013699698669782 0
force Au  -0.000013111791582   0.001088070636126   0.000385714725887 0
force Au  -0.000002287350035   0.001049242386694   0.001293539561351 0
force Au   0.000006357184269  -0.000260244571237   0.000115672530487 0
force Au  -0.000022639922087   0.000246733422411   0.001642748293083 0
force Au  -0.000018558723086   0.000249862044967  -0.000116845217435 0
force Au  -0.000019406720081  -0.000201439593141  -0.000097409119359 0
force Au  -0.000003186080016  -0.000228149548024   0.000228707613453 0
force Au   0.000139330566054   0.022180245258092  -0.013699698669782 0
force Au  -0.000013111791582  -0.001088070636126   0.000385714725887 0
force Au  -0.000002287350035  -0.001049242386694   0.001293539561351 0
force Au   0.000006357184269   0.000260244571237   0.000115672530487 0
force Au  -0.041834788436852   0.000000000000000  -0.012348870889343 0
force Au  -0.000002451682184   0.000000000000000  -0.000107364602060 0
force Au   0.044186320785474   0.000000000000000  -0.014574878071053 0
force Au   0.000046327531974   0.000000000000000  -0.000049517196551 0
force Au  -0.000136519246077  -0.000182231404364  -0.000026964407661 0
force Au  -0.000136519246077   0.000182231404364  -0.000026964407661 0
force Au   0.000172316578147  -0.000238820540957  -0.000033891451101 0
force Au   0.000172316578147   0.000238820540957  -0.000033891451101 0
force C  -0.000846814438988   0.000000000000000   0.052613073075313 1  Linear 0 0 1
force O  -0.001865153382827   0.000000000000000   0.006393123869065 1  Linear 0 0 1

# Energy components:
   A_diel =       -0.0241294304960985
   Eewald =    18015.5480666023322556
       EH =    22239.0905949775224144
     Eloc =   -45200.9717193240066990
      Enl =      217.2859931355471872
     EvdW =       -1.3067984842088047
      Exc =    -1783.9849795884840660
 Exc_core =     1102.1911794938657749
       KE =      985.9870672976961714
  MuShift =        0.0000000000007688
-------------------------------------
     Etot =    -4426.1847253202367938
       TS =        0.0037289615204853
-------------------------------------
        F =    -4426.1884542817570036


Dumping 'jdft.fillings' ... done
Dumping 'jdft.wfns' ... done
Dumping 'jdft.fluidState' ... done
Dumping 'jdft.ionpos' ... done
Dumping 'jdft.lattice' ... done
Dumping 'jdft.eigenvals' ... done
Dumping 'jdft.eigStats' ... 
	eMin: -3.935309 at state 9 ( [ +0.250000 +0.333333 +0.000000 ] spin -1 )
	HOMO: -0.170129 at state 7 ( [ +0.000000 +0.333333 +0.000000 ] spin -1 )
	mu  : -0.170115
	LUMO: -0.169645 at state 9 ( [ +0.250000 +0.333333 +0.000000 ] spin -1 )
	eMax: +0.086605 at state 7 ( [ +0.000000 +0.333333 +0.000000 ] spin -1 )
	HOMO-LUMO gap: +0.000484
	Optical gap  : +0.001552 at state 6 ( [ +0.000000 +0.000000 +0.000000 ] spin -1 )
Dumping 'jdft.Ecomponents' ... done
IonicMinimize: Iter:   1  F: -4426.188454281757004  |grad|_K:  3.748e-02  alpha:  1.000e+00  linmin:  2.429e-02  t[s]:  10452.54

#--- Lowdin population analysis ---
# oxidation-state Ni +0.227 +0.226 +0.227 +0.226 +0.197 +0.197 +0.197 +0.197 +0.191 +0.209 +0.190 +0.209 +0.302 +0.302 +0.301 +0.301
# magnetic-moments Ni +0.199 +0.157 -0.198 -0.159 -0.177 -0.177 +0.177 +0.177 +0.289 +0.292 -0.286 -0.292 -0.521 -0.521 +0.522 +0.522
# oxidation-state Au -0.001 -0.003 -0.002 -0.002 -0.060 -0.060 -0.060 -0.060 -0.001 -0.003 -0.002 -0.002 -0.060 -0.060 -0.060 -0.060 -0.050 -0.050 -0.051 -0.050 -0.115 -0.115 -0.115 -0.115 -0.052 -0.045 -0.046 -0.044 -0.052 -0.127 -0.154 -0.127 -0.052 -0.045 -0.046 -0.044 -0.052 -0.127 -0.154 -0.127 +0.122 +0.042 +0.125 +0.042 -0.062 -0.062 -0.062 -0.062
# magnetic-moments Au +0.000 -0.000 +0.000 +0.000 +0.000 +0.000 +0.000 +0.000 +0.000 -0.000 +0.000 +0.000 +0.000 +0.000 +0.000 +0.000 +0.000 +0.001 -0.000 -0.001 -0.001 -0.001 +0.001 +0.001 +0.000 -0.000 +0.000 +0.000 +0.000 -0.000 -0.000 -0.000 +0.000 -0.000 +0.000 +0.000 +0.000 -0.000 -0.000 -0.000 +0.022 +0.022 -0.022 -0.022 -0.001 -0.001 +0.001 +0.001
# oxidation-state C +0.171
# magnetic-moments C +0.000
# oxidation-state O -0.200
# magnetic-moments O -0.000


Computing DFT-D3 correction:
# coordination-number Ni 6.003 6.003 6.003 6.003 6.498 6.498 6.498 6.498 6.450 6.447 6.450 6.447 4.856 4.856 4.856 4.856
# coordination-number Au 5.058 5.058 5.058 5.058 8.346 8.346 8.346 8.346 5.058 5.058 5.058 5.058 8.346 8.346 8.346 8.346 8.442 8.442 8.442 8.442 7.660 7.660 7.660 7.660 8.488 8.487 8.488 8.487 8.815 7.929 7.930 7.929 8.488 8.487 8.488 8.487 8.815 7.929 7.930 7.929 6.272 5.126 6.313 5.126 8.683 8.683 8.683 8.683
# coordination-number C 4.747
# coordination-number O 1.405
# diagonal-C6 Ni 137.76 137.76 137.76 137.76 134.58 134.58 134.58 134.58 134.91 134.92 134.91 134.92 141.32 141.32 141.32 141.32
# diagonal-C6 Au 317.16 317.16 317.16 317.16 317.16 317.16 317.16 317.16 317.16 317.16 317.16 317.16 317.16 317.16 317.16 317.16 317.16 317.16 317.16 317.16 317.16 317.16 317.16 317.16 317.16 317.16 317.16 317.16 317.16 317.16 317.16 317.16 317.16 317.16 317.16 317.16 317.16 317.16 317.16 317.16 317.16 317.16 317.16 317.16 317.16 317.16 317.16 317.16
# diagonal-C6 C 18.21
# diagonal-C6 O 11.96
EvdW_6 =   -0.475507
EvdW_8 =   -0.831259

-------- Electronic minimization -----------
	Linear fluid (dielectric constant: 78.4, screening length: 8.12261 Bohr) occupying 0.435556 of unit cell:	Completed after 16 iterations at t[s]:  10567.51
	FillingsUpdate:  mu: -0.166884904  nElectrons: 826.000000  magneticMoment: [ Abs: 5.33209  Tot: +0.00163 ]
ElecMinimize: Iter:   0  F: -4426.184117940148099  |grad|_K:  4.942e-06  alpha:  1.000e+00
	Linear fluid (dielectric constant: 78.4, screening length: 8.12261 Bohr) occupying 0.435655 of unit cell:	Completed after 20 iterations at t[s]:  10793.54
	Linear fluid (dielectric constant: 78.4, screening length: 8.12261 Bohr) occupying 0.435600 of unit cell:	Completed after 19 iterations at t[s]:  10869.23
	FillingsUpdate:  mu: -0.169969008  nElectrons: 826.000000  magneticMoment: [ Abs: 5.34325  Tot: +0.01135 ]
	SubspaceRotationAdjust: set factor to 0.132
ElecMinimize: Iter:   1  F: -4426.189253315904352  |grad|_K:  2.734e-06  alpha:  4.962e-01  linmin: -2.450e-05  t[s]:  10962.96
	Linear fluid (dielectric constant: 78.4, screening length: 8.12261 Bohr) occupying 0.435362 of unit cell:	Completed after 20 iterations at t[s]:  11071.45
	Linear fluid (dielectric constant: 78.4, screening length: 8.12261 Bohr) occupying 0.435519 of unit cell:	Completed after 19 iterations at t[s]:  11147.06
	FillingsUpdate:  mu: -0.170281728  nElectrons: 826.000000  magneticMoment: [ Abs: 5.33219  Tot: +0.00097 ]
	SubspaceRotationAdjust: set factor to 0.0978
ElecMinimize: Iter:   2  F: -4426.189677894699344  |grad|_K:  1.591e-06  alpha:  1.348e-01  linmin:  1.930e-04  t[s]:  11241.26
	Linear fluid (dielectric constant: 78.4, screening length: 8.12261 Bohr) occupying 0.435507 of unit cell:	Completed after 11 iterations at t[s]:  11347.52
	Linear fluid (dielectric constant: 78.4, screening length: 8.12261 Bohr) occupying 0.435496 of unit cell:	Completed after 11 iterations at t[s]:  11420.35
	FillingsUpdate:  mu: -0.169641431  nElectrons: 826.000000  magneticMoment: [ Abs: 5.33412  Tot: +0.00337 ]
	SubspaceRotationAdjust: set factor to 0.0996
ElecMinimize: Iter:   3  F: -4426.189953328509546  |grad|_K:  9.842e-07  alpha:  2.581e-01  linmin: -5.872e-05  t[s]:  11514.37
	Linear fluid (dielectric constant: 78.4, screening length: 8.12261 Bohr) occupying 0.435479 of unit cell:	Completed after 7 iterations at t[s]:  11619.07
	Linear fluid (dielectric constant: 78.4, screening length: 8.12261 Bohr) occupying 0.435479 of unit cell:	Completed after 2 iterations at t[s]:  11688.99
	FillingsUpdate:  mu: -0.169771543  nElectrons: 826.000000  magneticMoment: [ Abs: 5.33380  Tot: +0.00374 ]
	SubspaceRotationAdjust: set factor to 0.1
ElecMinimize: Iter:   4  F: -4426.190061976873949  |grad|_K:  7.892e-07  alpha:  2.645e-01  linmin:  2.423e-05  t[s]:  11783.14
	Linear fluid (dielectric constant: 78.4, screening length: 8.12261 Bohr) occupying 0.435474 of unit cell:	Completed after 10 iterations at t[s]:  11888.50
	Linear fluid (dielectric constant: 78.4, screening length: 8.12261 Bohr) occupying 0.435474 of unit cell:	Completed after 3 iterations at t[s]:  11958.94
	FillingsUpdate:  mu: -0.170096410  nElectrons: 826.000000  magneticMoment: [ Abs: 5.33608  Tot: +0.00331 ]
	SubspaceRotationAdjust: set factor to 0.0977
ElecMinimize: Iter:   5  F: -4426.190124007583108  |grad|_K:  4.912e-07  alpha:  2.354e-01  linmin:  1.833e-05  t[s]:  12053.21
	Linear fluid (dielectric constant: 78.4, screening length: 8.12261 Bohr) occupying 0.435457 of unit cell:	Completed after 9 iterations at t[s]:  12158.46
	Linear fluid (dielectric constant: 78.4, screening length: 8.12261 Bohr) occupying 0.435447 of unit cell:	Completed after 7 iterations at t[s]:  12230.14
	FillingsUpdate:  mu: -0.170309171  nElectrons: 826.000000  magneticMoment: [ Abs: 5.33498  Tot: +0.00503 ]
	SubspaceRotationAdjust: set factor to 0.112
ElecMinimize: Iter:   6  F: -4426.190162533306648  |grad|_K:  3.682e-07  alpha:  3.762e-01  linmin: -1.250e-04  t[s]:  12324.05
	Linear fluid (dielectric constant: 78.4, screening length: 8.12261 Bohr) occupying 0.435427 of unit cell:	Completed after 10 iterations at t[s]:  12429.50
