
*************** JDFTx 1.7.0 (git hash 5f12716a) ***************

Start date and time: Sat Sep 10 11:30:09 2022
Executable /home/nisi6161/jdftx_alpine/build/jdftx with command-line: -i in
Running on hosts (process indices):  c3cpu-a2-u9-1.rc.int.colorado.edu (0-23)
Divided in process groups (process indices):  0 (0)  1 (1)  2 (2)  3 (3)  4 (4)  5 (5)  6 (6)  7 (7)  8 (8)  9 (9)  10 (10)  11 (11)  12 (12)  13 (13)  14 (14)  15 (15)  16 (16)  17 (17)  18 (18)  19 (19)  20 (20)  21 (21)  22 (22)  23 (23)
Resource initialization completed at t[s]:      0.00
Run totals: 24 processes, 64 threads, 0 GPUs


Input parsed successfully to the following command list (including defaults):

basis kpoint-dependent
converge-empty-states yes
coords-type Cartesian
core-overlap-check none
coulomb-interaction Periodic
davidson-band-ratio 1.1
density-of-states Etol 1.000000e-06 Esigma 1.000000e-03 \
		Complete \
	Total \
	OrthoOrbital Ag 1   s \
	OrthoOrbital Ag 1   p \
	OrthoOrbital Ag 1   px \
	OrthoOrbital Ag 1   py \
	OrthoOrbital Ag 1   pz \
	OrthoOrbital Ag 1   d \
	OrthoOrbital Ag 1   dxy \
	OrthoOrbital Ag 1   dyz \
	OrthoOrbital Ag 1   dz2 \
	OrthoOrbital Ag 1   dxz \
	OrthoOrbital Ag 1   dx2-y2 \
	OrthoOrbital Ag 2   s \
	OrthoOrbital Ag 2   p \
	OrthoOrbital Ag 2   px \
	OrthoOrbital Ag 2   py \
	OrthoOrbital Ag 2   pz \
	OrthoOrbital Ag 2   d \
	OrthoOrbital Ag 2   dxy \
	OrthoOrbital Ag 2   dyz \
	OrthoOrbital Ag 2   dz2 \
	OrthoOrbital Ag 2   dxz \
	OrthoOrbital Ag 2   dx2-y2 \
	OrthoOrbital Ag 3   s \
	OrthoOrbital Ag 3   p \
	OrthoOrbital Ag 3   px \
	OrthoOrbital Ag 3   py \
	OrthoOrbital Ag 3   pz \
	OrthoOrbital Ag 3   d \
	OrthoOrbital Ag 3   dxy \
	OrthoOrbital Ag 3   dyz \
	OrthoOrbital Ag 3   dz2 \
	OrthoOrbital Ag 3   dxz \
	OrthoOrbital Ag 3   dx2-y2 \
	OrthoOrbital Ag 4   s \
	OrthoOrbital Ag 4   p \
	OrthoOrbital Ag 4   px \
	OrthoOrbital Ag 4   py \
	OrthoOrbital Ag 4   pz \
	OrthoOrbital Ag 4   d \
	OrthoOrbital Ag 4   dxy \
	OrthoOrbital Ag 4   dyz \
	OrthoOrbital Ag 4   dz2 \
	OrthoOrbital Ag 4   dxz \
	OrthoOrbital Ag 4   dx2-y2 \
	OrthoOrbital Ag 5   s \
	OrthoOrbital Ag 5   p \
	OrthoOrbital Ag 5   px \
	OrthoOrbital Ag 5   py \
	OrthoOrbital Ag 5   pz \
	OrthoOrbital Ag 5   d \
	OrthoOrbital Ag 5   dxy \
	OrthoOrbital Ag 5   dyz \
	OrthoOrbital Ag 5   dz2 \
	OrthoOrbital Ag 5   dxz \
	OrthoOrbital Ag 5   dx2-y2 \
	OrthoOrbital Ag 6   s \
	OrthoOrbital Ag 6   p \
	OrthoOrbital Ag 6   px \
	OrthoOrbital Ag 6   py \
	OrthoOrbital Ag 6   pz \
	OrthoOrbital Ag 6   d \
	OrthoOrbital Ag 6   dxy \
	OrthoOrbital Ag 6   dyz \
	OrthoOrbital Ag 6   dz2 \
	OrthoOrbital Ag 6   dxz \
	OrthoOrbital Ag 6   dx2-y2 \
	OrthoOrbital Ag 7   s \
	OrthoOrbital Ag 7   p \
	OrthoOrbital Ag 7   px \
	OrthoOrbital Ag 7   py \
	OrthoOrbital Ag 7   pz \
	OrthoOrbital Ag 7   d \
	OrthoOrbital Ag 7   dxy \
	OrthoOrbital Ag 7   dyz \
	OrthoOrbital Ag 7   dz2 \
	OrthoOrbital Ag 7   dxz \
	OrthoOrbital Ag 7   dx2-y2 \
	OrthoOrbital Ag 8   s \
	OrthoOrbital Ag 8   p \
	OrthoOrbital Ag 8   px \
	OrthoOrbital Ag 8   py \
	OrthoOrbital Ag 8   pz \
	OrthoOrbital Ag 8   d \
	OrthoOrbital Ag 8   dxy \
	OrthoOrbital Ag 8   dyz \
	OrthoOrbital Ag 8   dz2 \
	OrthoOrbital Ag 8   dxz \
	OrthoOrbital Ag 8   dx2-y2 \
	OrthoOrbital Ag 9   s \
	OrthoOrbital Ag 9   p \
	OrthoOrbital Ag 9   px \
	OrthoOrbital Ag 9   py \
	OrthoOrbital Ag 9   pz \
	OrthoOrbital Ag 9   d \
	OrthoOrbital Ag 9   dxy \
	OrthoOrbital Ag 9   dyz \
	OrthoOrbital Ag 9   dz2 \
	OrthoOrbital Ag 9   dxz \
	OrthoOrbital Ag 9   dx2-y2 \
	OrthoOrbital Ag 10   s \
	OrthoOrbital Ag 10   p \
	OrthoOrbital Ag 10   px \
	OrthoOrbital Ag 10   py \
	OrthoOrbital Ag 10   pz \
	OrthoOrbital Ag 10   d \
	OrthoOrbital Ag 10   dxy \
	OrthoOrbital Ag 10   dyz \
	OrthoOrbital Ag 10   dz2 \
	OrthoOrbital Ag 10   dxz \
	OrthoOrbital Ag 10   dx2-y2 \
	OrthoOrbital Ag 11   s \
	OrthoOrbital Ag 11   p \
	OrthoOrbital Ag 11   px \
	OrthoOrbital Ag 11   py \
	OrthoOrbital Ag 11   pz \
	OrthoOrbital Ag 11   d \
	OrthoOrbital Ag 11   dxy \
	OrthoOrbital Ag 11   dyz \
	OrthoOrbital Ag 11   dz2 \
	OrthoOrbital Ag 11   dxz \
	OrthoOrbital Ag 11   dx2-y2 \
	OrthoOrbital Ag 12   s \
	OrthoOrbital Ag 12   p \
	OrthoOrbital Ag 12   px \
	OrthoOrbital Ag 12   py \
	OrthoOrbital Ag 12   pz \
	OrthoOrbital Ag 12   d \
	OrthoOrbital Ag 12   dxy \
	OrthoOrbital Ag 12   dyz \
	OrthoOrbital Ag 12   dz2 \
	OrthoOrbital Ag 12   dxz \
	OrthoOrbital Ag 12   dx2-y2 \
	OrthoOrbital Ag 13   s \
	OrthoOrbital Ag 13   p \
	OrthoOrbital Ag 13   px \
	OrthoOrbital Ag 13   py \
	OrthoOrbital Ag 13   pz \
	OrthoOrbital Ag 13   d \
	OrthoOrbital Ag 13   dxy \
	OrthoOrbital Ag 13   dyz \
	OrthoOrbital Ag 13   dz2 \
	OrthoOrbital Ag 13   dxz \
	OrthoOrbital Ag 13   dx2-y2 \
	OrthoOrbital Ag 14   s \
	OrthoOrbital Ag 14   p \
	OrthoOrbital Ag 14   px \
	OrthoOrbital Ag 14   py \
	OrthoOrbital Ag 14   pz \
	OrthoOrbital Ag 14   d \
	OrthoOrbital Ag 14   dxy \
	OrthoOrbital Ag 14   dyz \
	OrthoOrbital Ag 14   dz2 \
	OrthoOrbital Ag 14   dxz \
	OrthoOrbital Ag 14   dx2-y2 \
	OrthoOrbital Ag 15   s \
	OrthoOrbital Ag 15   p \
	OrthoOrbital Ag 15   px \
	OrthoOrbital Ag 15   py \
	OrthoOrbital Ag 15   pz \
	OrthoOrbital Ag 15   d \
	OrthoOrbital Ag 15   dxy \
	OrthoOrbital Ag 15   dyz \
	OrthoOrbital Ag 15   dz2 \
	OrthoOrbital Ag 15   dxz \
	OrthoOrbital Ag 15   dx2-y2 \
	OrthoOrbital Ag 16   s \
	OrthoOrbital Ag 16   p \
	OrthoOrbital Ag 16   px \
	OrthoOrbital Ag 16   py \
	OrthoOrbital Ag 16   pz \
	OrthoOrbital Ag 16   d \
	OrthoOrbital Ag 16   dxy \
	OrthoOrbital Ag 16   dyz \
	OrthoOrbital Ag 16   dz2 \
	OrthoOrbital Ag 16   dxz \
	OrthoOrbital Ag 16   dx2-y2 \
	OrthoOrbital Ag 17   s \
	OrthoOrbital Ag 17   p \
	OrthoOrbital Ag 17   px \
	OrthoOrbital Ag 17   py \
	OrthoOrbital Ag 17   pz \
	OrthoOrbital Ag 17   d \
	OrthoOrbital Ag 17   dxy \
	OrthoOrbital Ag 17   dyz \
	OrthoOrbital Ag 17   dz2 \
	OrthoOrbital Ag 17   dxz \
	OrthoOrbital Ag 17   dx2-y2 \
	OrthoOrbital Ag 18   s \
	OrthoOrbital Ag 18   p \
	OrthoOrbital Ag 18   px \
	OrthoOrbital Ag 18   py \
	OrthoOrbital Ag 18   pz \
	OrthoOrbital Ag 18   d \
	OrthoOrbital Ag 18   dxy \
	OrthoOrbital Ag 18   dyz \
	OrthoOrbital Ag 18   dz2 \
	OrthoOrbital Ag 18   dxz \
	OrthoOrbital Ag 18   dx2-y2 \
	OrthoOrbital Ag 19   s \
	OrthoOrbital Ag 19   p \
	OrthoOrbital Ag 19   px \
	OrthoOrbital Ag 19   py \
	OrthoOrbital Ag 19   pz \
	OrthoOrbital Ag 19   d \
	OrthoOrbital Ag 19   dxy \
	OrthoOrbital Ag 19   dyz \
	OrthoOrbital Ag 19   dz2 \
	OrthoOrbital Ag 19   dxz \
	OrthoOrbital Ag 19   dx2-y2 \
	OrthoOrbital Ag 20   s \
	OrthoOrbital Ag 20   p \
	OrthoOrbital Ag 20   px \
	OrthoOrbital Ag 20   py \
	OrthoOrbital Ag 20   pz \
	OrthoOrbital Ag 20   d \
	OrthoOrbital Ag 20   dxy \
	OrthoOrbital Ag 20   dyz \
	OrthoOrbital Ag 20   dz2 \
	OrthoOrbital Ag 20   dxz \
	OrthoOrbital Ag 20   dx2-y2
dump End ElecDensity KEdensity BandEigs EigStats RhoAtom DOS Kpoints
dump Ionic State IonicPositions Lattice EigStats Ecomponents
dump 
dump 
dump 
dump 
dump 
dump 
dump 
dump 
dump-name jdft.$VAR
elec-cutoff 20
elec-eigen-algo Davidson
elec-ex-corr gga-PBE
elec-initial-magnetization 0.000000 no
elec-n-bands 228
elec-smearing Fermi 0.001
electronic-minimize  \
	dirUpdateScheme      FletcherReeves \
	linminMethod         DirUpdateRecommended \
	nIterations          100 \
	history              15 \
	knormThreshold       0 \
	energyDiffThreshold  1e-07 \
	nEnergyDiff          2 \
	alphaTstart          1 \
	alphaTmin            1e-10 \
	updateTestStepSize   yes \
	alphaTreduceFactor   0.1 \
	alphaTincreaseFactor 3 \
	nAlphaAdjustMax      3 \
	wolfeEnergy          0.0001 \
	wolfeGradient        0.9 \
	fdTest               no
exchange-regularization WignerSeitzTruncated
fluid LinearPCM 298.000000 1.013250
fluid-anion F- 0.5 MeanFieldLJ \
	epsBulk 1 \
	pMol 0 \
	epsInf 1 \
	Pvap 0 \
	sigmaBulk 0 \
	Rvdw 2.24877 \
	Res 0 \
	tauNuc 343133
fluid-cation Na+ 0.5 MeanFieldLJ \
	epsBulk 1 \
	pMol 0 \
	epsInf 1 \
	Pvap 0 \
	sigmaBulk 0 \
	Rvdw 2.19208 \
	Res 0 \
	tauNuc 343133
fluid-ex-corr lda-TF lda-PZ
fluid-gummel-loop 10 1.000000e-05
fluid-minimize  \
	dirUpdateScheme      PolakRibiere \
	linminMethod         DirUpdateRecommended \
	nIterations          400 \
	history              15 \
	knormThreshold       1e-11 \
	energyDiffThreshold  0 \
	nEnergyDiff          2 \
	alphaTstart          1 \
	alphaTmin            1e-10 \
	updateTestStepSize   yes \
	alphaTreduceFactor   0.1 \
	alphaTincreaseFactor 3 \
	nAlphaAdjustMax      6 \
	wolfeEnergy          0.0001 \
	wolfeGradient        0.9 \
	fdTest               no
fluid-solvent H2O 55.338 ScalarEOS \
	epsBulk 78.4 \
	pMol 0.92466 \
	epsInf 1.77 \
	Pvap 1.06736e-10 \
	sigmaBulk 4.62e-05 \
	Rvdw 2.61727 \
	Res 1.42 \
	tauNuc 343133 \
	poleEl 15 7 1
forces-output-coords Positions
initial-state jdft.$VAR
ion Ag  -0.000244981866071   4.735410471213805  21.425836773930481 1
ion Ag  -0.000021731179722   9.596501090528426  18.890014927185462 1
ion Ag   0.000306132409127   2.353097255472782  16.426767258337367 1
ion Ag   0.000503121280031   7.259533991736713  13.981307741334113 1
ion Ag   0.000565178319905  12.122871512635376  11.495696527105949 1
ion Ag   0.000716957573886   4.889180587092260   9.050896260434760 1
ion Ag   0.000599589560721   9.794410158054950   6.593506350075311 1
ion Ag   0.000655832123043   2.460411537418972   4.042948311749411 1
ion Ag   0.000681086966273   7.470407838672489   1.684619524547214 1
ion Ag  -0.000681979016243  -0.195952246442362  23.681705418061600 1
ion Ag   3.832078386149580   1.174607948221593  20.197781013245955 1
ion Ag   3.832274452635323   5.965934943769135  17.648079761727804 1
ion Ag   3.832181987932616  10.870433012483183  15.189540523124169 1
ion Ag   3.832349564209840   3.633650979684984  12.744738338902367 1
ion Ag   3.832389272211532   8.497746477300755  10.258802357456270 1
ion Ag   3.832579449623955   1.286928803440306   7.813957383469313 1
ion Ag   3.832857264419172   6.162379341499511   5.351182307031780 1
ion Ag   3.833004679767568  11.018555126256247   2.814919179913714 1
ion Ag   3.833401240095512   3.826883059295839   0.559236782743137 1
ion Ag   3.832142496783943   8.281891111665029  22.558015259623840 1
ion-species /projects/musgravc/apps/jdftx-1.6.0/build/pseudopotentials/GBRV_v1.5/$ID_pbe_v1.uspp
ion-species /projects/musgravc/apps/jdftx-1.6.0/build/pseudopotentials/GBRV_v1.5/$ID_pbe_v1.2.uspp
ion-species /projects/musgravc/apps/jdftx-1.6.0/build/pseudopotentials/GBRV_v1.5/$ID_pbe_v1.4.uspp
ion-species /projects/musgravc/apps/jdftx-1.6.0/build/pseudopotentials/GBRV_v1.5/$ID_pbe_v1.5.uspp
ion-width Ecut
ionic-minimize  \
	dirUpdateScheme      L-BFGS \
	linminMethod         DirUpdateRecommended \
	nIterations          100 \
	history              15 \
	knormThreshold       0.0001 \
	energyDiffThreshold  0.0001 \
	nEnergyDiff          2 \
	alphaTstart          1 \
	alphaTmin            1e-10 \
	updateTestStepSize   yes \
	alphaTreduceFactor   0.1 \
	alphaTincreaseFactor 3 \
	nAlphaAdjustMax      3 \
	wolfeEnergy          0.0001 \
	wolfeGradient        0.9 \
	fdTest               no
kpoint   0.000000000000   0.000000000000   0.000000000000  1.00000000000000
kpoint-folding 9 5 1 
latt-move-scale 0 0 0
latt-scale 1 1 1 
lattice  \
	   7.665668000000000    0.000000000000000    0.000000000000000  \
	   0.000000000000000   12.120486000000000    0.000000000000000  \
	   0.000000000000000    0.000000000000000   72.722915999999998 
lattice-minimize  \
	dirUpdateScheme      L-BFGS \
	linminMethod         DirUpdateRecommended \
	nIterations          0 \
	history              15 \
	knormThreshold       0 \
	energyDiffThreshold  1e-06 \
	nEnergyDiff          2 \
	alphaTstart          1 \
	alphaTmin            1e-10 \
	updateTestStepSize   yes \
	alphaTreduceFactor   0.1 \
	alphaTincreaseFactor 3 \
	nAlphaAdjustMax      3 \
	wolfeEnergy          0.0001 \
	wolfeGradient        0.9 \
	fdTest               no
lcao-params 30 1e-06 0.001
pcm-variant CANDLE
spintype z-spin
subspace-rotation-factor 1 yes
symmetries automatic
symmetry-threshold 0.0001
target-mu -0.1345 no

van-der-waals D3



---------- Setting up symmetries ----------

Found 8 point-group symmetries of the bravais lattice
Found 1 space-group symmetries with basis
Applied RMS atom displacement 0 bohrs to make symmetries exact.

---------- Initializing the Grid ----------
R = 
[      7.66567            0            0  ]
[            0      12.1205            0  ]
[            0            0      72.7229  ]
unit cell volume = 6756.8
G =
[   0.819653          0          0  ]
[          0   0.518394          0  ]
[          0          0   0.086399  ]
Minimum fftbox size, Smin = [  32  52  296  ]
Chosen fftbox size, S = [  32  54  300  ]

---------- Exchange Correlation functional ----------
Initalized PBE GGA exchange.
Initalized PBE GGA correlation.

---------- Setting up pseudopotentials ----------
Width of ionic core gaussian charges (only for fluid interactions / plotting) set to 0.397384

Reading pseudopotential file '/projects/musgravc/apps/jdftx-1.6.0/build/pseudopotentials/GBRV_v1.5/ag_pbe_v1.4.uspp':
  Title: Ag.  Created by USPP 7.3.6 on 1-4-15
  Reference state energy: -147.606242.  19 valence electrons in orbitals:
    |400>  occupation: 2  eigenvalue: -3.637437
    |410>  occupation: 6  eigenvalue: -2.297267
    |420>  occupation: 10  eigenvalue: -0.417763
    |500>  occupation: 0.5  eigenvalue: -0.283525
    |510>  occupation: 0  eigenvalue: -0.122889
  lMax: 2  lLocal: 0  QijEcut: 5.5
  6 projectors sampled on a log grid with 717 points:
    l: 0  eig: -0.283528  rCut: 1.5
    l: 0  eig: -3.637440  rCut: 1.5
    l: 1  eig: -0.122892  rCut: 1.5
    l: 1  eig: -2.297267  rCut: 1.5
    l: 2  eig: -0.417762  rCut: 1.7
    l: 2  eig: -1.000000  rCut: 1.7
  Partial core density with radius 1.2
  Transforming core density to a uniform radial grid of dG=0.02 with 1163 points.
  Transforming local potential to a uniform radial grid of dG=0.02 with 1163 points.
  Transforming nonlocal projectors to a uniform radial grid of dG=0.02 with 432 points.
  Transforming density augmentations to a uniform radial grid of dG=0.02 with 1163 points.
  Transforming atomic orbitals to a uniform radial grid of dG=0.02 with 432 points.
  Core radius for overlap checks: 1.70 bohrs.

Initialized 1 species with 20 total atoms.

Folded 1 k-points by 9x5x1 to 45 k-points.

---------- Setting up k-points, bands, fillings ----------
Adding inversion symmetry to k-mesh for non-inversion-symmetric unit cell.
Reduced to 23 k-points under symmetry. 
Computing the number of bands and number of electrons
Reading initial fillings from file jdft.fillings.
nElectrons: 378.667144   nBands: 228   nStates: 46

----- Setting up reduced wavefunction bases (one per k-point) -----
average nbasis = 28863.000 , ideal nbasis = 28865.582

----- Initializing Supercell corresponding to k-point mesh -----
Lattice vector linear combinations in supercell:
[   9   0   0  ]
[   0   5   0  ]
[   0   0   1  ]
Supercell lattice vectors:
[  68.991  0  0  ]
[  0  60.6024  0  ]
[  0  0  72.7229  ]

Initializing DFT-D3 calculator:
	Parameters set for gga-PBE functional
	s6:  1.000  s_r6:  1.217
	s8:  0.722  s_r8:  1.000
	Per-atom parameters loaded for:
	Ag:  sqrtQ[a0]:  5.443  Rcov[a0]:  2.173  CN: [ 0.00 0.97 ]

Initializing DFT-D2 calculator for fluid / solvation:
	Ag:  C6:  427.91 Eh-a0^6  R0: 3.097 a0

---------- Setting up ewald sum ----------
Optimum gaussian width for ewald sums = 4.577751 bohr.
Real space sum over 825 unit cells with max indices [  7  5  2  ]
Reciprocal space sum over 5049 terms with max indices [  4  5  25  ]

Computing DFT-D3 correction:
# coordination-number Ag 6.810 8.939 8.910 8.992 8.998 8.925 8.963 8.185 6.107 4.770 8.183 8.961 8.924 8.998 8.993 8.910 8.941 6.811 4.770 6.105
# diagonal-C6 Ag 268.61 268.61 268.61 268.61 268.61 268.61 268.61 268.61 268.61 268.61 268.61 268.61 268.61 268.61 268.61 268.61 268.61 268.61 268.61 268.61
EvdW_6 =   -0.124076
EvdW_8 =   -0.170800

---------- Allocating electronic variables ----------
Initializing wave functions:  reading from 'jdft.wfns'
----- createFluidSolver() ----- (Fluid-side solver setup)
   Initializing fluid molecule 'H2O'
     Initializing site 'O'
       Electron density: proportional to exp(-r/0.36935)*erfc((r-0.51523)/0.36823) with norm 6.826
       Charge density: gaussian nuclear width 0.478731 with net site charge 0.826
       Polarizability: cuspless exponential with width 0.32 and norm 3.73
       Hard sphere radius: 2.57003 bohrs
       Positions in reference frame:
         [ +0.000000 +0.000000 +0.000000 ]
     Initializing site 'H'
       Electron density: proportional to exp(-r/0.34641)*erfc((r-0)/0.390882) with norm 0.587
       Charge density: gaussian nuclear width 0.377945 with net site charge -0.413
       Polarizability: cuspless exponential with width 0.39 and norm 3.3
       Positions in reference frame:
         [ +0.000000 -1.441945 +1.122523 ]
         [ +0.000000 +1.441945 +1.122523 ]
     Net charge: 0   dipole magnitude: 0.927204
     Initializing spherical shell mfKernel with radius 2.61727 Bohr
     deltaS corrections:
       site 'O': -7.54299
       site 'H': -6.83917
   Initializing fluid molecule 'Na+'
     Initializing site 'Na'
       Electron density: proportional to exp(-r/0.19682)*erfc((r-0.71491)/0.41314) with norm 8.1383
       Charge density: gaussian nuclear width 0.365347 with net site charge -1
       Hard sphere radius: 1.86327 bohrs
       Positions in reference frame:
         [ +0.000000 +0.000000 +0.000000 ]
     Net charge: -1   dipole magnitude: 0
     Initializing gaussian mfKernel with width: 1.55004 Bohr
     deltaS corrections:
       site 'Na': -22.3555
   Initializing fluid molecule 'F-'
     Initializing site 'F'
       Electron density: proportional to exp(-r/0.38886)*erfc((r-0)/0.438782) with norm 8
       Charge density: gaussian nuclear width 0.374796 with net site charge 1
       Hard sphere radius: 2.39995 bohrs
       Positions in reference frame:
         [ +0.000000 +0.000000 +0.000000 ]
     Net charge: 1   dipole magnitude: 0
     Initializing gaussian mfKernel with width: 1.59012 Bohr
     deltaS corrections:
       site 'F': -9.04335

Correction to mu due to finite nuclear width = -0.055801
   Cavity determined by nc: 0.00142 and sigma: 0.707107
   Nonlocal vdW cavity from gaussian model electron density with norm = 8 and sigma = 0.993594 bohr
   Charge asymmetry in cavity with sensitivity pCavity = 36.5 e-bohr/Eh
   Electrostatic cavity expanded by eta = 1.46 bohrs
   Weighted density cavitation model constrained by Nbulk: 0.0049383 bohr^-3, Pvap: 3.14029 kPa, Rvdw: 2.61727 bohr and sigmaBulk: 4.62e-05 Eh/bohr^2 at T: 298 K.
   Weighted density dispersion model using vdW pair potentials with single solvent site with sqrtC6eff: 0.77 SI.
Reading fluid state from 'jdft.fluidState'


---- Citations for features of the code used in this run ----

   Software package:
      R. Sundararaman, K. Letchworth-Weaver, K.A. Schwarz, D. Gunceler, Y. Ozhabes and T.A. Arias, 'JDFTx: software for joint density-functional theory', SoftwareX 6, 278 (2017)

   gga-PBE exchange-correlation functional:
      J.P. Perdew, K. Burke and M. Ernzerhof, Phys. Rev. Lett. 77, 3865 (1996)

   Pseudopotentials:
      KF Garrity, JW Bennett, KM Rabe and D Vanderbilt, Comput. Mater. Sci. 81, 446 (2014)

   DFT-D3 dispersion correction:
      S. Grimme, J. Antony, S. Ehrlich and H. Krieg, J. Chem. Phys. 132, 154104 (2010)

   DFT-D2 dispersion correction:
      S. Grimme, J. Comput. Chem. 27, 1787 (2006)

   Charge-asymmetric nonlocally-determined local-electric (CANDLE) solvation model:
      R. Sundararaman and W.A. Goddard III, J. Chem. Phys. 142, 064107 (2015)

   Total energy minimization with Auxiliary Hamiltonian:
      C. Freysoldt, S. Boeck, and J. Neugebauer, Phys. Rev. B 79, 241103(R) (2009)

   Grand-canonical (fixed-potential) DFT:
      R. Sundararaman, W. A. Goddard III and T. A. Arias, J. Chem. Phys. 146, 114104 (2017)

   Linear-tetrahedron sampling for density of states:
      G. Lehmann and M. Taut, Phys. status solidi (b) 54, 469 (1972)

This list may not be complete. Please suggest additional citations or
report any other bugs at https://github.com/shankar1729/jdftx/issues

Initialization completed successfully at t[s]:     22.06


Computing DFT-D3 correction:
# coordination-number Ag 6.810 8.939 8.910 8.992 8.998 8.925 8.963 8.185 6.107 4.770 8.183 8.961 8.924 8.998 8.993 8.910 8.941 6.811 4.770 6.105
# diagonal-C6 Ag 268.61 268.61 268.61 268.61 268.61 268.61 268.61 268.61 268.61 268.61 268.61 268.61 268.61 268.61 268.61 268.61 268.61 268.61 268.61 268.61
EvdW_6 =   -0.124076
EvdW_8 =   -0.170800
Shifting auxilliary hamiltonian by 0.110264 to set nElectrons=378.667144

-------- Electronic minimization -----------
	Linear fluid (dielectric constant: 78.4, screening length: 8.12261 Bohr) occupying 0.566739 of unit cell:	Completed after 23 iterations at t[s]:     43.28
	FillingsUpdate:  mu: -0.134500000  nElectrons: 378.667144  magneticMoment: [ Abs: 0.00000  Tot: +0.00000 ]
ElecMinimize: Iter:   0  G: -2898.370749249177607  |grad|_K:  1.831e-04  alpha:  1.000e+00
	Linear fluid (dielectric constant: 78.4, screening length: 8.12261 Bohr) occupying 0.556628 of unit cell:	Completed after 33 iterations at t[s]:    136.59
	Linear fluid (dielectric constant: 78.4, screening length: 8.12261 Bohr) occupying 0.566571 of unit cell:	Completed after 35 iterations at t[s]:    171.01
	FillingsUpdate:  mu: -0.134500000  nElectrons: 378.559445  magneticMoment: [ Abs: 0.00000  Tot: +0.00000 ]
	SubspaceRotationAdjust: set factor to 1.09
ElecMinimize: Iter:   1  G: -2898.660748753299686  |grad|_K:  1.645e-04  alpha:  1.449e-02  linmin: -9.268e-03  t[s]:    216.07
	Linear fluid (dielectric constant: 78.4, screening length: 8.12261 Bohr) occupying 0.566335 of unit cell:	Completed after 19 iterations at t[s]:    256.32
ElecMinimize: 	Predicted alpha/alphaT>3.000000, increasing alphaT to 4.347209e-02.
	Linear fluid (dielectric constant: 78.4, screening length: 8.12261 Bohr) occupying 0.565845 of unit cell:	Completed after 20 iterations at t[s]:    288.07
	Linear fluid (dielectric constant: 78.4, screening length: 8.12261 Bohr) occupying 0.564671 of unit cell:	Completed after 21 iterations at t[s]:    320.06
	FillingsUpdate:  mu: -0.134500000  nElectrons: 378.238070  magneticMoment: [ Abs: 0.00000  Tot: +0.00000 ]
	SubspaceRotationAdjust: set factor to 0.559
ElecMinimize: Iter:   2  G: -2900.178455725074400  |grad|_K:  4.003e-04  alpha:  1.098e-01  linmin:  1.973e-03  t[s]:    365.52
	Linear fluid (dielectric constant: 78.4, screening length: 8.12261 Bohr) occupying 0.603075 of unit cell:	Completed after 26 iterations at t[s]:    407.31
	Linear fluid (dielectric constant: 78.4, screening length: 8.12261 Bohr) occupying 0.563152 of unit cell:	Completed after 24 iterations at t[s]:    439.98
	FillingsUpdate:  mu: -0.134500000  nElectrons: 379.665798  magneticMoment: [ Abs: 0.00000  Tot: -0.00000 ]
	SubspaceRotationAdjust: set factor to 0.44
ElecMinimize: Iter:   3  G: -2900.485552756421384  |grad|_K:  1.253e-04  alpha:  1.109e-02  linmin:  5.196e-03  t[s]:    485.41
	Linear fluid (dielectric constant: 78.4, screening length: 8.12261 Bohr) occupying 0.563069 of unit cell:	Completed after 17 iterations at t[s]:    525.51
ElecMinimize: 	Predicted alpha/alphaT>3.000000, increasing alphaT to 3.326463e-02.
	Linear fluid (dielectric constant: 78.4, screening length: 8.12261 Bohr) occupying 0.583103 of unit cell:	Completed after 30 iterations at t[s]:    559.43
	Linear fluid (dielectric constant: 78.4, screening length: 8.12261 Bohr) occupying 0.591060 of unit cell:	Completed after 29 iterations at t[s]:    593.11
	FillingsUpdate:  mu: -0.134500000  nElectrons: 380.826796  magneticMoment: [ Abs: 0.00000  Tot: -0.00000 ]
	SubspaceRotationAdjust: set factor to 0.302
ElecMinimize: Iter:   4  G: -2900.549296963324650  |grad|_K:  8.718e-05  alpha:  3.841e-02  linmin:  3.626e-03  t[s]:    638.63
	Linear fluid (dielectric constant: 78.4, screening length: 8.12261 Bohr) occupying 0.600116 of unit cell:	Completed after 33 iterations at t[s]:    681.50
	Linear fluid (dielectric constant: 78.4, screening length: 8.12261 Bohr) occupying 0.600207 of unit cell:	Completed after 16 iterations at t[s]:    712.66
	FillingsUpdate:  mu: -0.134500000  nElectrons: 381.218996  magneticMoment: [ Abs: 0.00000  Tot: +0.00000 ]
	SubspaceRotationAdjust: set factor to 0.354
ElecMinimize: Iter:   5  G: -2900.591184473853900  |grad|_K:  8.962e-05  alpha:  3.917e-02  linmin: -7.089e-04  t[s]:    758.03
	Linear fluid (dielectric constant: 78.4, screening length: 8.12261 Bohr) occupying 0.599165 of unit cell:	Completed after 28 iterations at t[s]:    800.40
	Linear fluid (dielectric constant: 78.4, screening length: 8.12261 Bohr) occupying 0.597579 of unit cell:	Completed after 29 iterations at t[s]:    833.97
	FillingsUpdate:  mu: -0.134500000  nElectrons: 381.134553  magneticMoment: [ Abs: 0.00000  Tot: +0.00000 ]
	SubspaceRotationAdjust: set factor to 0.223
ElecMinimize: Iter:   6  G: -2900.833881640348409  |grad|_K:  7.936e-05  alpha:  9.057e-02  linmin: -1.653e-04  t[s]:    879.27
	Linear fluid (dielectric constant: 78.4, screening length: 8.12261 Bohr) occupying 0.559500 of unit cell:	Completed after 27 iterations at t[s]:    921.27
	Linear fluid (dielectric constant: 78.4, screening length: 8.12261 Bohr) occupying 0.579308 of unit cell:	Completed after 30 iterations at t[s]:    955.19
	FillingsUpdate:  mu: -0.134500000  nElectrons: 380.565599  magneticMoment: [ Abs: 0.00000  Tot: +0.00000 ]
	SubspaceRotationAdjust: set factor to 0.449
ElecMinimize: Iter:   7  G: -2900.917649066689137  |grad|_K:  4.204e-05  alpha:  3.697e-02  linmin: -1.312e-03  t[s]:   1000.56
	Linear fluid (dielectric constant: 78.4, screening length: 8.12261 Bohr) occupying 0.565393 of unit cell:	Completed after 21 iterations at t[s]:   1041.41
	Linear fluid (dielectric constant: 78.4, screening length: 8.12261 Bohr) occupying 0.561025 of unit cell:	Completed after 19 iterations at t[s]:   1072.16
	FillingsUpdate:  mu: -0.134500000  nElectrons: 380.041047  magneticMoment: [ Abs: 0.00000  Tot: +0.00000 ]
	SubspaceRotationAdjust: set factor to 0.401
ElecMinimize: Iter:   8  G: -2900.951512900278431  |grad|_K:  5.084e-05  alpha:  5.807e-02  linmin:  5.645e-04  t[s]:   1114.14
	Linear fluid (dielectric constant: 78.4, screening length: 8.12261 Bohr) occupying 0.559192 of unit cell:	Completed after 18 iterations at t[s]:   1151.32
	Linear fluid (dielectric constant: 78.4, screening length: 8.12261 Bohr) occupying 0.558877 of unit cell:	Completed after 17 iterations at t[s]:   1180.34
	FillingsUpdate:  mu: -0.134500000  nElectrons: 379.691225  magneticMoment: [ Abs: 0.00000  Tot: +0.00000 ]
	SubspaceRotationAdjust: set factor to 0.255
ElecMinimize: Iter:   9  G: -2901.013268641348532  |grad|_K:  5.466e-05  alpha:  8.097e-02  linmin: -1.307e-03  t[s]:   1222.48
	Linear fluid (dielectric constant: 78.4, screening length: 8.12261 Bohr) occupying 0.560687 of unit cell:	Completed after 20 iterations at t[s]:   1260.02
	Linear fluid (dielectric constant: 78.4, screening length: 8.12261 Bohr) occupying 0.558304 of unit cell:	Completed after 20 iterations at t[s]:   1289.50
	FillingsUpdate:  mu: -0.134500000  nElectrons: 379.875457  magneticMoment: [ Abs: 0.00000  Tot: +0.00000 ]
	SubspaceRotationAdjust: set factor to 0.546
ElecMinimize: Iter:  10  G: -2901.053692486138061  |grad|_K:  2.397e-05  alpha:  3.435e-02  linmin: -1.113e-03  t[s]:   1331.65
	Linear fluid (dielectric constant: 78.4, screening length: 8.12261 Bohr) occupying 0.558327 of unit cell:	Completed after 17 iterations at t[s]:   1368.68
	Linear fluid (dielectric constant: 78.4, screening length: 8.12261 Bohr) occupying 0.558549 of unit cell:	Completed after 15 iterations at t[s]:   1397.32
	FillingsUpdate:  mu: -0.134500000  nElectrons: 380.021732  magneticMoment: [ Abs: 0.00000  Tot: +0.00000 ]
	SubspaceRotationAdjust: set factor to 0.472
ElecMinimize: Iter:  11  G: -2901.063842790884337  |grad|_K:  2.891e-05  alpha:  5.384e-02  linmin:  8.713e-05  t[s]:   1439.40
	Linear fluid (dielectric constant: 78.4, screening length: 8.12261 Bohr) occupying 0.557634 of unit cell:	Completed after 16 iterations at t[s]:   1476.24
	Linear fluid (dielectric constant: 78.4, screening length: 8.12261 Bohr) occupying 0.557246 of unit cell:	Completed after 15 iterations at t[s]:   1504.86
	FillingsUpdate:  mu: -0.134500000  nElectrons: 379.953487  magneticMoment: [ Abs: 0.00000  Tot: +0.00000 ]
	SubspaceRotationAdjust: set factor to 0.367
ElecMinimize: Iter:  12  G: -2901.084253324557267  |grad|_K:  2.296e-05  alpha:  8.092e-02  linmin: -1.968e-05  t[s]:   1546.85
	Linear fluid (dielectric constant: 78.4, screening length: 8.12261 Bohr) occupying 0.556287 of unit cell:	Completed after 18 iterations at t[s]:   1584.07
	Linear fluid (dielectric constant: 78.4, screening length: 8.12261 Bohr) occupying 0.556757 of unit cell:	Completed after 17 iterations at t[s]:   1613.05
	FillingsUpdate:  mu: -0.134500000  nElectrons: 379.817556  magneticMoment: [ Abs: 0.00000  Tot: +0.00000 ]
	SubspaceRotationAdjust: set factor to 0.268
ElecMinimize: Iter:  13  G: -2901.089549940184497  |grad|_K:  1.405e-05  alpha:  3.694e-02  linmin:  6.068e-04  t[s]:   1655.19
	Linear fluid (dielectric constant: 78.4, screening length: 8.12261 Bohr) occupying 0.556542 of unit cell:	Completed after 15 iterations at t[s]:   1691.92
ElecMinimize: 	Predicted alpha/alphaT>3.000000, increasing alphaT to 1.108114e-01.
	Linear fluid (dielectric constant: 78.4, screening length: 8.12261 Bohr) occupying 0.556102 of unit cell:	Completed after 16 iterations at t[s]:   1720.76
	Linear fluid (dielectric constant: 78.4, screening length: 8.12261 Bohr) occupying 0.555906 of unit cell:	Completed after 15 iterations at t[s]:   1749.42
	FillingsUpdate:  mu: -0.134500000  nElectrons: 379.758634  magneticMoment: [ Abs: 0.00000  Tot: +0.00000 ]
	SubspaceRotationAdjust: set factor to 0.202
ElecMinimize: Iter:  14  G: -2901.097610881891342  |grad|_K:  1.591e-05  alpha:  1.429e-01  linmin: -1.069e-04  t[s]:   1791.45
	Linear fluid (dielectric constant: 78.4, screening length: 8.12261 Bohr) occupying 0.554624 of unit cell:	Completed after 17 iterations at t[s]:   1828.49
	Linear fluid (dielectric constant: 78.4, screening length: 8.12261 Bohr) occupying 0.555237 of unit cell:	Completed after 17 iterations at t[s]:   1857.44
	FillingsUpdate:  mu: -0.134500000  nElectrons: 379.857062  magneticMoment: [ Abs: 0.00000  Tot: +0.00000 ]
	SubspaceRotationAdjust: set factor to 0.266
ElecMinimize: Iter:  15  G: -2901.103422488512933  |grad|_K:  8.722e-06  alpha:  7.333e-02  linmin: -3.861e-05  t[s]:   1899.51
	Linear fluid (dielectric constant: 78.4, screening length: 8.12261 Bohr) occupying 0.554932 of unit cell:	Completed after 15 iterations at t[s]:   1936.19
	Linear fluid (dielectric constant: 78.4, screening length: 8.12261 Bohr) occupying 0.554706 of unit cell:	Completed after 15 iterations at t[s]:   1965.03
	FillingsUpdate:  mu: -0.134500000  nElectrons: 379.932288  magneticMoment: [ Abs: 0.00000  Tot: +0.00000 ]
	SubspaceRotationAdjust: set factor to 0.232
ElecMinimize: Iter:  16  G: -2901.106450953653166  |grad|_K:  1.007e-05  alpha:  1.307e-01  linmin:  3.979e-05  t[s]:   2009.94
	Linear fluid (dielectric constant: 78.4, screening length: 8.12261 Bohr) occupying 0.553655 of unit cell:	Completed after 15 iterations at t[s]:   2049.22
	Linear fluid (dielectric constant: 78.4, screening length: 8.12261 Bohr) occupying 0.553928 of unit cell:	Completed after 14 iterations at t[s]:   2079.61
	FillingsUpdate:  mu: -0.134500000  nElectrons: 379.906423  magneticMoment: [ Abs: 0.00000  Tot: +0.00000 ]
	SubspaceRotationAdjust: set factor to 0.339
ElecMinimize: Iter:  17  G: -2901.109438151955601  |grad|_K:  6.460e-06  alpha:  9.731e-02  linmin:  3.999e-06  t[s]:   2124.56
	Linear fluid (dielectric constant: 78.4, screening length: 8.12261 Bohr) occupying 0.553472 of unit cell:	Completed after 15 iterations at t[s]:   2164.11
	Linear fluid (dielectric constant: 78.4, screening length: 8.12261 Bohr) occupying 0.553356 of unit cell:	Completed after 13 iterations at t[s]:   2193.09
	FillingsUpdate:  mu: -0.134500000  nElectrons: 379.866425  magneticMoment: [ Abs: 0.00000  Tot: +0.00000 ]
	SubspaceRotationAdjust: set factor to 0.293
ElecMinimize: Iter:  18  G: -2901.110979306074569  |grad|_K:  7.669e-06  alpha:  1.216e-01  linmin:  8.792e-06  t[s]:   2235.44
	Linear fluid (dielectric constant: 78.4, screening length: 8.12261 Bohr) occupying 0.552346 of unit cell:	Completed after 15 iterations at t[s]:   2274.03
	Linear fluid (dielectric constant: 78.4, screening length: 8.12261 Bohr) occupying 0.552557 of unit cell:	Completed after 14 iterations at t[s]:   2304.84
	FillingsUpdate:  mu: -0.134500000  nElectrons: 379.912673  magneticMoment: [ Abs: 0.00000  Tot: +0.00000 ]
	SubspaceRotationAdjust: set factor to 0.388
ElecMinimize: Iter:  19  G: -2901.112720539464590  |grad|_K:  4.410e-06  alpha:  9.723e-02  linmin:  3.474e-05  t[s]:   2350.83
	Linear fluid (dielectric constant: 78.4, screening length: 8.12261 Bohr) occupying 0.552171 of unit cell:	Completed after 15 iterations at t[s]:   2390.94
	Linear fluid (dielectric constant: 78.4, screening length: 8.12261 Bohr) occupying 0.551940 of unit cell:	Completed after 13 iterations at t[s]:   2421.82
	FillingsUpdate:  mu: -0.134500000  nElectrons: 379.957247  magneticMoment: [ Abs: 0.00000  Tot: +0.00000 ]
	SubspaceRotationAdjust: set factor to 0.287
ElecMinimize: Iter:  20  G: -2901.113629706569100  |grad|_K:  5.983e-06  alpha:  1.553e-01  linmin:  1.361e-04  t[s]:   2466.90
	Linear fluid (dielectric constant: 78.4, screening length: 8.12261 Bohr) occupying 0.550405 of unit cell:	Completed after 15 iterations at t[s]:   2507.34
	Linear fluid (dielectric constant: 78.4, screening length: 8.12261 Bohr) occupying 0.551255 of unit cell:	Completed after 15 iterations at t[s]:   2538.65
	FillingsUpdate:  mu: -0.134500000  nElectrons: 379.939505  magneticMoment: [ Abs: 0.00000  Tot: +0.00000 ]
	SubspaceRotationAdjust: set factor to 0.278
ElecMinimize: Iter:  21  G: -2901.114394966689360  |grad|_K:  3.764e-06  alpha:  7.139e-02  linmin: -1.127e-06  t[s]:   2584.57
	Linear fluid (dielectric constant: 78.4, screening length: 8.12261 Bohr) occupying 0.550910 of unit cell:	Completed after 13 iterations at t[s]:   2623.71
	Linear fluid (dielectric constant: 78.4, screening length: 8.12261 Bohr) occupying 0.550283 of unit cell:	Completed after 14 iterations at t[s]:   2652.90
	FillingsUpdate:  mu: -0.134500000  nElectrons: 379.940955  magneticMoment: [ Abs: 0.00000  Tot: +0.00000 ]
	SubspaceRotationAdjust: set factor to 0.239
ElecMinimize: Iter:  22  G: -2901.115235948809641  |grad|_K:  4.493e-06  alpha:  1.947e-01  linmin: -3.193e-05  t[s]:   2696.12
	Linear fluid (dielectric constant: 78.4, screening length: 8.12261 Bohr) occupying 0.548788 of unit cell:	Completed after 15 iterations at t[s]:   2736.59
	Linear fluid (dielectric constant: 78.4, screening length: 8.12261 Bohr) occupying 0.549687 of unit cell:	Completed after 15 iterations at t[s]:   2768.15
	FillingsUpdate:  mu: -0.134500000  nElectrons: 379.982867  magneticMoment: [ Abs: 0.00000  Tot: +0.00000 ]
	SubspaceRotationAdjust: set factor to 0.203
ElecMinimize: Iter:  23  G: -2901.115692227017462  |grad|_K:  2.837e-06  alpha:  7.278e-02  linmin: -6.179e-05  t[s]:   2814.20
	Linear fluid (dielectric constant: 78.4, screening length: 8.12261 Bohr) occupying 0.549401 of unit cell:	Completed after 12 iterations at t[s]:   2852.58
	Linear fluid (dielectric constant: 78.4, screening length: 8.12261 Bohr) occupying 0.548967 of unit cell:	Completed after 14 iterations at t[s]:   2881.63
	FillingsUpdate:  mu: -0.134500000  nElectrons: 380.015206  magneticMoment: [ Abs: 0.00000  Tot: +0.00000 ]
	SubspaceRotationAdjust: set factor to 0.196
ElecMinimize: Iter:  24  G: -2901.116138070435682  |grad|_K:  3.143e-06  alpha:  1.816e-01  linmin:  8.712e-05  t[s]:   2925.20
	Linear fluid (dielectric constant: 78.4, screening length: 8.12261 Bohr) occupying 0.547793 of unit cell:	Completed after 15 iterations at t[s]:   2963.25
	Linear fluid (dielectric constant: 78.4, screening length: 8.12261 Bohr) occupying 0.548351 of unit cell:	Completed after 14 iterations at t[s]:   2992.12
	FillingsUpdate:  mu: -0.134500000  nElectrons: 380.009731  magneticMoment: [ Abs: 0.00000  Tot: +0.00000 ]
	SubspaceRotationAdjust: set factor to 0.196
ElecMinimize: Iter:  25  G: -2901.116426335745473  |grad|_K:  2.153e-06  alpha:  9.763e-02  linmin:  2.714e-05  t[s]:   3038.76
	Linear fluid (dielectric constant: 78.4, screening length: 8.12261 Bohr) occupying 0.548020 of unit cell:	Completed after 13 iterations at t[s]:   3077.67
	Linear fluid (dielectric constant: 78.4, screening length: 8.12261 Bohr) occupying 0.547802 of unit cell:	Completed after 12 iterations at t[s]:   3108.44
	FillingsUpdate:  mu: -0.134500000  nElectrons: 380.009546  magneticMoment: [ Abs: 0.00000  Tot: +0.00000 ]
	SubspaceRotationAdjust: set factor to 0.195
ElecMinimize: Iter:  26  G: -2901.116651172423190  |grad|_K:  2.223e-06  alpha:  1.598e-01  linmin: -4.557e-05  t[s]:   3154.34
	Linear fluid (dielectric constant: 78.4, screening length: 8.12261 Bohr) occupying 0.547229 of unit cell:	Completed after 15 iterations at t[s]:   3194.11
	Linear fluid (dielectric constant: 78.4, screening length: 8.12261 Bohr) occupying 0.547450 of unit cell:	Completed after 13 iterations at t[s]:   3224.48
	FillingsUpdate:  mu: -0.134500000  nElectrons: 380.030834  magneticMoment: [ Abs: 0.00000  Tot: +0.00000 ]
	SubspaceRotationAdjust: set factor to 0.208
ElecMinimize: Iter:  27  G: -2901.116797942596804  |grad|_K:  1.411e-06  alpha:  9.683e-02  linmin: -2.654e-06  t[s]:   3270.30
	Linear fluid (dielectric constant: 78.4, screening length: 8.12261 Bohr) occupying 0.547294 of unit cell:	Completed after 13 iterations at t[s]:   3310.09
	Linear fluid (dielectric constant: 78.4, screening length: 8.12261 Bohr) occupying 0.547193 of unit cell:	Completed after 12 iterations at t[s]:   3340.71
	FillingsUpdate:  mu: -0.134500000  nElectrons: 380.047636  magneticMoment: [ Abs: 0.00000  Tot: -0.00000 ]
	SubspaceRotationAdjust: set factor to 0.187
ElecMinimize: Iter:  28  G: -2901.116895197465965  |grad|_K:  1.598e-06  alpha:  1.612e-01  linmin:  7.420e-05  t[s]:   3386.54
	Linear fluid (dielectric constant: 78.4, screening length: 8.12261 Bohr) occupying 0.546703 of unit cell:	Completed after 13 iterations at t[s]:   3426.32
	Linear fluid (dielectric constant: 78.4, screening length: 8.12261 Bohr) occupying 0.546881 of unit cell:	Completed after 12 iterations at t[s]:   3456.87
	FillingsUpdate:  mu: -0.134500000  nElectrons: 380.046174  magneticMoment: [ Abs: 0.00000  Tot: -0.00000 ]
	SubspaceRotationAdjust: set factor to 0.252
ElecMinimize: Iter:  29  G: -2901.116974822190514  |grad|_K:  9.902e-07  alpha:  1.036e-01  linmin:  8.335e-06  t[s]:   3502.90
	Linear fluid (dielectric constant: 78.4, screening length: 8.12261 Bohr) occupying 0.546732 of unit cell:	Completed after 12 iterations at t[s]:   3540.54
	Linear fluid (dielectric constant: 78.4, screening length: 8.12261 Bohr) occupying 0.546687 of unit cell:	Completed after 10 iterations at t[s]:   3568.72
	FillingsUpdate:  mu: -0.134500000  nElectrons: 380.042535  magneticMoment: [ Abs: 0.00000  Tot: -0.00000 ]
	SubspaceRotationAdjust: set factor to 0.233
ElecMinimize: Iter:  30  G: -2901.117014970701803  |grad|_K:  1.059e-06  alpha:  1.348e-01  linmin: -1.304e-05  t[s]:   3612.44
	Linear fluid (dielectric constant: 78.4, screening length: 8.12261 Bohr) occupying 0.546504 of unit cell:	Completed after 13 iterations at t[s]:   3652.77
	Linear fluid (dielectric constant: 78.4, screening length: 8.12261 Bohr) occupying 0.546545 of unit cell:	Completed after 10 iterations at t[s]:   3683.18
	FillingsUpdate:  mu: -0.134500000  nElectrons: 380.051366  magneticMoment: [ Abs: 0.00000  Tot: -0.00000 ]
	SubspaceRotationAdjust: set factor to 0.28
ElecMinimize: Iter:  31  G: -2901.117050648185796  |grad|_K:  6.827e-07  alpha:  1.044e-01  linmin:  8.924e-06  t[s]:   3728.77
	Linear fluid (dielectric constant: 78.4, screening length: 8.12261 Bohr) occupying 0.546477 of unit cell:	Completed after 12 iterations at t[s]:   3767.93
	Linear fluid (dielectric constant: 78.4, screening length: 8.12261 Bohr) occupying 0.546434 of unit cell:	Completed after 11 iterations at t[s]:   3798.16
	FillingsUpdate:  mu: -0.134500000  nElectrons: 380.059050  magneticMoment: [ Abs: 0.00000  Tot: -0.00000 ]
	SubspaceRotationAdjust: set factor to 0.235
ElecMinimize: Iter:  32  G: -2901.117074869847784  |grad|_K:  8.320e-07  alpha:  1.712e-01  linmin:  1.087e-05  t[s]:   3843.69
	Linear fluid (dielectric constant: 78.4, screening length: 8.12261 Bohr) occupying 0.546149 of unit cell:	Completed after 12 iterations at t[s]:   3882.41
	Linear fluid (dielectric constant: 78.4, screening length: 8.12261 Bohr) occupying 0.546291 of unit cell:	Completed after 13 iterations at t[s]:   3913.08
	FillingsUpdate:  mu: -0.134500000  nElectrons: 380.056792  magneticMoment: [ Abs: 0.00000  Tot: -0.00000 ]
	SubspaceRotationAdjust: set factor to 0.235
ElecMinimize: Iter:  33  G: -2901.117093050153017  |grad|_K:  5.329e-07  alpha:  8.665e-02  linmin:  2.802e-06  t[s]:   3959.11
	Linear fluid (dielectric constant: 78.4, screening length: 8.12261 Bohr) occupying 0.546229 of unit cell:	Completed after 9 iterations at t[s]:   3997.99
	Linear fluid (dielectric constant: 78.4, screening length: 8.12261 Bohr) occupying 0.546156 of unit cell:	Completed after 10 iterations at t[s]:   4028.27
	FillingsUpdate:  mu: -0.134500000  nElectrons: 380.056952  magneticMoment: [ Abs: 0.00000  Tot: -0.00000 ]
	SubspaceRotationAdjust: set factor to 0.224
ElecMinimize: Iter:  34  G: -2901.117109041823824  |grad|_K:  5.914e-07  alpha:  1.854e-01  linmin:  1.988e-07  t[s]:   4074.03
	Linear fluid (dielectric constant: 78.4, screening length: 8.12261 Bohr) occupying 0.546039 of unit cell:	Completed after 13 iterations at t[s]:   4113.45
	Linear fluid (dielectric constant: 78.4, screening length: 8.12261 Bohr) occupying 0.546097 of unit cell:	Completed after 12 iterations at t[s]:   4142.15
	FillingsUpdate:  mu: -0.134500000  nElectrons: 380.062919  magneticMoment: [ Abs: 0.00000  Tot: -0.00000 ]
	SubspaceRotationAdjust: set factor to 0.202
ElecMinimize: Iter:  35  G: -2901.117118817382561  |grad|_K:  4.141e-07  alpha:  9.207e-02  linmin:  9.127e-08  t[s]:   4185.57
	Linear fluid (dielectric constant: 78.4, screening length: 8.12261 Bohr) occupying 0.546057 of unit cell:	Completed after 9 iterations at t[s]:   4224.23
	Linear fluid (dielectric constant: 78.4, screening length: 8.12261 Bohr) occupying 0.546016 of unit cell:	Completed after 9 iterations at t[s]:   4254.98
	FillingsUpdate:  mu: -0.134500000  nElectrons: 380.067431  magneticMoment: [ Abs: 0.00000  Tot: -0.00000 ]
	SubspaceRotationAdjust: set factor to 0.216
ElecMinimize: Iter:  36  G: -2901.117128684906220  |grad|_K:  4.331e-07  alpha:  1.895e-01  linmin:  7.906e-06  t[s]:   4301.45
	Linear fluid (dielectric constant: 78.4, screening length: 8.12261 Bohr) occupying 0.545869 of unit cell:	Completed after 12 iterations at t[s]:   4340.29
	Linear fluid (dielectric constant: 78.4, screening length: 8.12261 Bohr) occupying 0.545938 of unit cell:	Completed after 10 iterations at t[s]:   4370.03
	FillingsUpdate:  mu: -0.134500000  nElectrons: 380.066338  magneticMoment: [ Abs: 0.00000  Tot: -0.00000 ]
	SubspaceRotationAdjust: set factor to 0.194
ElecMinimize: Iter:  37  G: -2901.117134431720842  |grad|_K:  3.141e-07  alpha:  1.013e-01  linmin: -7.098e-10  t[s]:   4415.21
	Linear fluid (dielectric constant: 78.4, screening length: 8.12261 Bohr) occupying 0.545898 of unit cell:	Completed after 9 iterations at t[s]:   4453.35
	Linear fluid (dielectric constant: 78.4, screening length: 8.12261 Bohr) occupying 0.545865 of unit cell:	Completed after 9 iterations at t[s]:   4483.44
	FillingsUpdate:  mu: -0.134500000  nElectrons: 380.067004  magneticMoment: [ Abs: 0.00000  Tot: -0.00000 ]
	SubspaceRotationAdjust: set factor to 0.224
ElecMinimize: Iter:  38  G: -2901.117140046602344  |grad|_K:  3.114e-07  alpha:  1.870e-01  linmin: -5.810e-06  t[s]:   4529.29
	Linear fluid (dielectric constant: 78.4, screening length: 8.12261 Bohr) occupying 0.545820 of unit cell:	Completed after 12 iterations at t[s]:   4568.80
	Linear fluid (dielectric constant: 78.4, screening length: 8.12261 Bohr) occupying 0.545839 of unit cell:	Completed after 10 iterations at t[s]:   4598.94
	FillingsUpdate:  mu: -0.134500000  nElectrons: 380.070121  magneticMoment: [ Abs: 0.00000  Tot: -0.00000 ]
	SubspaceRotationAdjust: set factor to 0.197
ElecMinimize: Iter:  39  G: -2901.117143140350436  |grad|_K:  2.232e-07  alpha:  1.048e-01  linmin:  1.488e-06  t[s]:   4644.42
	Linear fluid (dielectric constant: 78.4, screening length: 8.12261 Bohr) occupying 0.545819 of unit cell:	Completed after 7 iterations at t[s]:   4680.47
	Linear fluid (dielectric constant: 78.4, screening length: 8.12261 Bohr) occupying 0.545804 of unit cell:	Completed after 7 iterations at t[s]:   4708.39
	FillingsUpdate:  mu: -0.134500000  nElectrons: 380.071608  magneticMoment: [ Abs: 0.00000  Tot: -0.00000 ]
	SubspaceRotationAdjust: set factor to 0.239
ElecMinimize: Iter:  40  G: -2901.117145901494951  |grad|_K:  1.992e-07  alpha:  1.829e-01  linmin:  1.163e-05  t[s]:   4754.50
	Linear fluid (dielectric constant: 78.4, screening length: 8.12261 Bohr) occupying 0.545752 of unit cell:	Completed after 10 iterations at t[s]:   4793.85
	Linear fluid (dielectric constant: 78.4, screening length: 8.12261 Bohr) occupying 0.545774 of unit cell:	Completed after 9 iterations at t[s]:   4823.62
	FillingsUpdate:  mu: -0.134500000  nElectrons: 380.070621  magneticMoment: [ Abs: 0.00000  Tot: -0.00000 ]
	SubspaceRotationAdjust: set factor to 0.197
ElecMinimize: Iter:  41  G: -2901.117147186454076  |grad|_K:  1.515e-07  alpha:  1.069e-01  linmin:  3.161e-06  t[s]:   4869.14
	Linear fluid (dielectric constant: 78.4, screening length: 8.12261 Bohr) occupying 0.545760 of unit cell:	Completed after 2 iterations at t[s]:   4906.35
	Linear fluid (dielectric constant: 78.4, screening length: 8.12261 Bohr) occupying 0.545750 of unit cell:	Completed after 2 iterations at t[s]:   4934.51
	FillingsUpdate:  mu: -0.134500000  nElectrons: 380.071036  magneticMoment: [ Abs: 0.00000  Tot: -0.00000 ]
	SubspaceRotationAdjust: set factor to 0.246
ElecMinimize: Iter:  42  G: -2901.117148519769671  |grad|_K:  1.247e-07  alpha:  1.915e-01  linmin:  4.535e-06  t[s]:   4980.07
	Linear fluid (dielectric constant: 78.4, screening length: 8.12261 Bohr) occupying 0.545741 of unit cell:	Completed after 9 iterations at t[s]:   5019.00
	Linear fluid (dielectric constant: 78.4, screening length: 8.12261 Bohr) occupying 0.545743 of unit cell:	Completed after 5 iterations at t[s]:   5048.13
	FillingsUpdate:  mu: -0.134500000  nElectrons: 380.072106  magneticMoment: [ Abs: 0.00000  Tot: -0.00000 ]
	SubspaceRotationAdjust: set factor to 0.207
ElecMinimize: Iter:  43  G: -2901.117149183427955  |grad|_K:  1.175e-07  alpha:  1.402e-01  linmin:  3.184e-05  t[s]:   5092.09
	Linear fluid (dielectric constant: 78.4, screening length: 8.12261 Bohr) occupying 0.545725 of unit cell:	Completed after 9 iterations at t[s]:   5128.48
	Linear fluid (dielectric constant: 78.4, screening length: 8.12261 Bohr) occupying 0.545728 of unit cell:	Completed after 2 iterations at t[s]:   5155.71
	FillingsUpdate:  mu: -0.134500000  nElectrons: 380.071631  magneticMoment: [ Abs: 0.00000  Tot: -0.00000 ]
	SubspaceRotationAdjust: set factor to 0.178
ElecMinimize: Iter:  44  G: -2901.117149670164508  |grad|_K:  7.708e-08  alpha:  1.184e-01  linmin:  5.613e-06  t[s]:   5202.51
	Linear fluid (dielectric constant: 78.4, screening length: 8.12261 Bohr) occupying 0.545723 of unit cell:	Completed after 2 iterations at t[s]:   5240.27
	Linear fluid (dielectric constant: 78.4, screening length: 8.12261 Bohr) occupying 0.545720 of unit cell:	Completed after 2 iterations at t[s]:   5268.65
	FillingsUpdate:  mu: -0.134500000  nElectrons: 380.071755  magneticMoment: [ Abs: 0.00000  Tot: -0.00000 ]
	SubspaceRotationAdjust: set factor to 0.2
ElecMinimize: Iter:  45  G: -2901.117150037950978  |grad|_K:  6.256e-08  alpha:  2.032e-01  linmin: -1.606e-05  t[s]:   5313.97
	Linear fluid (dielectric constant: 78.4, screening length: 8.12261 Bohr) occupying 0.545717 of unit cell:	Completed after 6 iterations at t[s]:   5351.44
	Linear fluid (dielectric constant: 78.4, screening length: 8.12261 Bohr) occupying 0.545717 of unit cell:	Completed after 0 iterations at t[s]:   5379.59
	FillingsUpdate:  mu: -0.134500000  nElectrons: 380.072130  magneticMoment: [ Abs: 0.00000  Tot: -0.00000 ]
	SubspaceRotationAdjust: set factor to 0.192
ElecMinimize: Iter:  46  G: -2901.117150273656080  |grad|_K:  5.518e-08  alpha:  1.963e-01  linmin: -1.818e-05  t[s]:   5425.60
	Linear fluid (dielectric constant: 78.4, screening length: 8.12261 Bohr) occupying 0.545709 of unit cell:	Completed after 7 iterations at t[s]:   5463.97
	Linear fluid (dielectric constant: 78.4, screening length: 8.12261 Bohr) occupying 0.545711 of unit cell:	Completed after 2 iterations at t[s]:   5492.60
	FillingsUpdate:  mu: -0.134500000  nElectrons: 380.071874  magneticMoment: [ Abs: 0.00000  Tot: -0.00000 ]
	SubspaceRotationAdjust: set factor to 0.16
ElecMinimize: Iter:  47  G: -2901.117150405323628  |grad|_K:  4.323e-08  alpha:  1.416e-01  linmin:  2.811e-05  t[s]:   5537.46
	Linear fluid (dielectric constant: 78.4, screening length: 8.12261 Bohr) occupying 0.545711 of unit cell:	Completed after 2 iterations at t[s]:   5574.96
	Linear fluid (dielectric constant: 78.4, screening length: 8.12261 Bohr) occupying 0.545710 of unit cell:	Completed after 1 iterations at t[s]:   5603.59
	FillingsUpdate:  mu: -0.134500000  nElectrons: 380.072081  magneticMoment: [ Abs: 0.00000  Tot: -0.00000 ]
	SubspaceRotationAdjust: set factor to 0.189
ElecMinimize: Iter:  48  G: -2901.117150503673201  |grad|_K:  3.399e-08  alpha:  1.770e-01  linmin: -3.229e-05  t[s]:   5649.85
	Linear fluid (dielectric constant: 78.4, screening length: 8.12261 Bohr) occupying 0.545711 of unit cell:	Completed after 7 iterations at t[s]:   5687.10
	Linear fluid (dielectric constant: 78.4, screening length: 8.12261 Bohr) occupying 0.545711 of unit cell:	Completed after 0 iterations at t[s]:   5713.41
	FillingsUpdate:  mu: -0.134500000  nElectrons: 380.072270  magneticMoment: [ Abs: 0.00000  Tot: +0.00000 ]
	SubspaceRotationAdjust: set factor to 0.153
ElecMinimize: Iter:  49  G: -2901.117150549109738  |grad|_K:  4.199e-08  alpha:  1.344e-01  linmin: -3.491e-05  t[s]:   5757.01
ElecMinimize: Converged (|Delta G|<1.000000e-07 for 2 iters).
Setting wave functions to eigenvectors of Hamiltonian
Converging empty states (this may take a while): |deigs|: 4.812e-03

Computing DFT-D3 correction:
# coordination-number Ag 6.810 8.939 8.910 8.992 8.998 8.925 8.963 8.185 6.107 4.770 8.183 8.961 8.924 8.998 8.993 8.910 8.941 6.811 4.770 6.105
# diagonal-C6 Ag 268.61 268.61 268.61 268.61 268.61 268.61 268.61 268.61 268.61 268.61 268.61 268.61 268.61 268.61 268.61 268.61 268.61 268.61 268.61 268.61
EvdW_6 =   -0.124076
EvdW_8 =   -0.170800

# Ionic positions in cartesian coordinates:
ion Ag  -0.000244981866071   4.735410471213805  21.425836773930481 1
ion Ag  -0.000021731179722   9.596501090528426  18.890014927185462 1
ion Ag   0.000306132409127   2.353097255472782  16.426767258337367 1
ion Ag   0.000503121280031   7.259533991736713  13.981307741334113 1
ion Ag   0.000565178319905  12.122871512635376  11.495696527105949 1
ion Ag   0.000716957573886   4.889180587092260   9.050896260434760 1
ion Ag   0.000599589560721   9.794410158054950   6.593506350075311 1
ion Ag   0.000655832123043   2.460411537418972   4.042948311749411 1
ion Ag   0.000681086966273   7.470407838672489   1.684619524547214 1
ion Ag  -0.000681979016243  -0.195952246442362  23.681705418061600 1
ion Ag   3.832078386149580   1.174607948221593  20.197781013245955 1
ion Ag   3.832274452635323   5.965934943769135  17.648079761727804 1
ion Ag   3.832181987932616  10.870433012483183  15.189540523124169 1
ion Ag   3.832349564209840   3.633650979684984  12.744738338902367 1
ion Ag   3.832389272211532   8.497746477300755  10.258802357456270 1
ion Ag   3.832579449623955   1.286928803440306   7.813957383469313 1
ion Ag   3.832857264419172   6.162379341499511   5.351182307031780 1
ion Ag   3.833004679767568  11.018555126256247   2.814919179913714 1
ion Ag   3.833401240095512   3.826883059295839   0.559236782743137 1
ion Ag   3.832142496783943   8.281891111665029  22.558015259623840 1

# Forces in Cartesian coordinates:
force Ag  -0.000019061734940  -0.000044642042644   0.001061328418650 1
force Ag  -0.000034130107946  -0.000266060003173  -0.001583256797986 1
force Ag  -0.000053051798534  -0.000313592015545  -0.000258944812231 1
force Ag  -0.000062695650892  -0.000063289741571  -0.000267705559248 1
force Ag  -0.000065750284456  -0.000210189077537   0.000144416696390 1
force Ag  -0.000060216539832  -0.000157297799805  -0.000875619690742 1
force Ag  -0.000047545961156  -0.000129814845634   0.000537802672343 1
force Ag  -0.000033213591203  -0.000427003377633   0.000071903132002 1
force Ag  -0.000023093661574  -0.000407384143759  -0.000657495604309 1
force Ag  -0.000008471397934  -0.000427433851825  -0.001184996220510 1
force Ag   0.000035650462612   0.000387620281868  -0.000055156297692 1
force Ag   0.000048014170445   0.000132444246092  -0.000579271626602 1
force Ag   0.000059536247165   0.000131595743482   0.000878684012795 1
force Ag   0.000065138298677   0.000219906095605  -0.000122982200928 1
force Ag   0.000063549357072   0.000114653015515   0.000314231809421 1
force Ag   0.000052579565107   0.000300460968287   0.000258992266971 1
force Ag   0.000033978994973   0.000242422117882   0.001534937336699 1
force Ag   0.000019777026515  -0.000018712371515  -0.001048778556712 1
force Ag   0.000008126858634   0.000374741421674   0.001205286565182 1
force Ag   0.000021696837221   0.000407078255326   0.000631338105896 1

# Energy components:
   A_diel =       -0.0168519709211970
   Eewald =    23848.3002032219628745
       EH =    26518.4279344397291425
     Eloc =   -53782.6731000848449185
      Enl =       78.9131286531062273
     EvdW =       -0.2948756563121788
      Exc =     -289.7974219548523251
 Exc_core =        4.1634157297918373
       KE =      670.7453058061953470
  MuShift =       -0.0040327543838127
-------------------------------------
     Etot =    -2952.2362945705308448
       TS =        0.0005763349667742
-------------------------------------
        F =    -2952.2368709054976534
      muN =      -51.1197203563879867
-------------------------------------
        G =    -2901.1171505491097378


Dumping 'jdft.fillings' ... done
Dumping 'jdft.wfns' ... done
Dumping 'jdft.fluidState' ... done
Dumping 'jdft.ionpos' ... done
Dumping 'jdft.lattice' ... done
Dumping 'jdft.eigenvals' ... done
Dumping 'jdft.eigStats' ... 
	eMin: -3.517776 at state 0 ( [ +0.000000 +0.000000 +0.000000 ] spin 1 )
	HOMO: -0.135175 at state 39 ( [ +0.333333 -0.400000 +0.000000 ] spin -1 )
	mu  : -0.134500
	LUMO: -0.133777 at state 24 ( [ +0.000000 +0.200000 +0.000000 ] spin -1 )
	eMax: +0.166198 at state 23 ( [ +0.000000 +0.000000 +0.000000 ] spin -1 )
	HOMO-LUMO gap: +0.001397
	Optical gap  : +0.006484 at state 16 ( [ +0.333333 -0.400000 +0.000000 ] spin 1 )
Dumping 'jdft.Ecomponents' ... done
IonicMinimize: Iter:   0  G: -2901.117150549109738  |grad|_K:  4.970e-04  t[s]:   6053.62

#--- Lowdin population analysis ---
# oxidation-state Ag -0.011 -0.046 +0.001 +0.001 +0.005 +0.001 -0.021 -0.065 +0.012 +0.137 -0.065 -0.021 +0.001 +0.005 +0.001 +0.001 -0.046 -0.011 +0.138 +0.012
# magnetic-moments Ag +0.000 +0.000 -0.000 -0.000 -0.000 -0.000 -0.000 +0.000 +0.000 +0.000 +0.000 -0.000 -0.000 -0.000 -0.000 -0.000 +0.000 +0.000 +0.000 +0.000


Computing DFT-D3 correction:
# coordination-number Ag 6.807 8.939 8.910 8.993 8.998 8.926 8.962 8.185 6.105 4.772 8.183 8.960 8.926 8.998 8.994 8.910 8.941 6.808 4.772 6.103
# diagonal-C6 Ag 268.61 268.61 268.61 268.61 268.61 268.61 268.61 268.61 268.61 268.61 268.61 268.61 268.61 268.61 268.61 268.61 268.61 268.61 268.61 268.61
EvdW_6 =   -0.124078
EvdW_8 =   -0.170806
Shifting auxilliary hamiltonian by -0.000129 to set nElectrons=380.072270

-------- Electronic minimization -----------
	Linear fluid (dielectric constant: 78.4, screening length: 8.12261 Bohr) occupying 0.545689 of unit cell:	Completed after 11 iterations at t[s]:   6097.89
	FillingsUpdate:  mu: -0.134500000  nElectrons: 380.072270  magneticMoment: [ Abs: 0.00000  Tot: +0.00000 ]
ElecMinimize: Iter:   0  G: -2901.117160176338075  |grad|_K:  3.276e-07  alpha:  1.000e+00
	Linear fluid (dielectric constant: 78.4, screening length: 8.12261 Bohr) occupying 0.546012 of unit cell:	Completed after 14 iterations at t[s]:   6186.59
	Linear fluid (dielectric constant: 78.4, screening length: 8.12261 Bohr) occupying 0.545711 of unit cell:	Completed after 14 iterations at t[s]:   6215.21
	FillingsUpdate:  mu: -0.134500000  nElectrons: 380.075089  magneticMoment: [ Abs: 0.00000  Tot: +0.00000 ]
	SubspaceRotationAdjust: set factor to 0.0801
ElecMinimize: Iter:   1  G: -2901.117162936997374  |grad|_K:  7.087e-08  alpha:  8.591e-02  linmin:  5.306e-04  t[s]:   6260.27
	Linear fluid (dielectric constant: 78.4, screening length: 8.12261 Bohr) occupying 0.545709 of unit cell:	Completed after 2 iterations at t[s]:   6298.12
ElecMinimize: 	Predicted alpha/alphaT>3.000000, increasing alphaT to 2.577189e-01.
	Linear fluid (dielectric constant: 78.4, screening length: 8.12261 Bohr) occupying 0.545706 of unit cell:	Completed after 7 iterations at t[s]:   6327.60
	Linear fluid (dielectric constant: 78.4, screening length: 8.12261 Bohr) occupying 0.545702 of unit cell:	Completed after 7 iterations at t[s]:   6356.89
	FillingsUpdate:  mu: -0.134500000  nElectrons: 380.073534  magneticMoment: [ Abs: 0.00000  Tot: +0.00000 ]
	SubspaceRotationAdjust: set factor to 0.0947
ElecMinimize: Iter:   2  G: -2901.117163615071149  |grad|_K:  3.706e-08  alpha:  4.569e-01  linmin:  4.736e-05  t[s]:   6402.16
	Linear fluid (dielectric constant: 78.4, screening length: 8.12261 Bohr) occupying 0.545702 of unit cell:	Completed after 2 iterations at t[s]:   6438.72
	Linear fluid (dielectric constant: 78.4, screening length: 8.12261 Bohr) occupying 0.545702 of unit cell:	Completed after 0 iterations at t[s]:   6466.62
	FillingsUpdate:  mu: -0.134500000  nElectrons: 380.073402  magneticMoment: [ Abs: 0.00000  Tot: +0.00000 ]
	SubspaceRotationAdjust: set factor to 0.108
ElecMinimize: Iter:   3  G: -2901.117163798509409  |grad|_K:  2.615e-08  alpha:  4.498e-01  linmin:  7.537e-06  t[s]:   6512.23
	Linear fluid (dielectric constant: 78.4, screening length: 8.12261 Bohr) occupying 0.545702 of unit cell:	Completed after 2 iterations at t[s]:   6549.76
	Linear fluid (dielectric constant: 78.4, screening length: 8.12261 Bohr) occupying 0.545702 of unit cell:	Completed after 1 iterations at t[s]:   6578.13
	FillingsUpdate:  mu: -0.134500000  nElectrons: 380.073247  magneticMoment: [ Abs: 0.00000  Tot: +0.00000 ]
	SubspaceRotationAdjust: set factor to 0.124
ElecMinimize: Iter:   4  G: -2901.117163867632826  |grad|_K:  2.188e-08  alpha:  3.491e-01  linmin: -9.972e-06  t[s]:   6622.29
	Linear fluid (dielectric constant: 78.4, screening length: 8.12261 Bohr) occupying 0.545700 of unit cell:	Completed after 7 iterations at t[s]:   6658.05
	Linear fluid (dielectric constant: 78.4, screening length: 8.12261 Bohr) occupying 0.545700 of unit cell:	Completed after 0 iterations at t[s]:   6684.97
	FillingsUpdate:  mu: -0.134500000  nElectrons: 380.072739  magneticMoment: [ Abs: 0.00000  Tot: +0.00000 ]
	SubspaceRotationAdjust: set factor to 0.0962
ElecMinimize: Iter:   5  G: -2901.117163918756887  |grad|_K:  2.286e-08  alpha:  3.449e-01  linmin:  2.798e-05  t[s]:   6731.83
ElecMinimize: Converged (|Delta G|<1.000000e-07 for 2 iters).
Setting wave functions to eigenvectors of Hamiltonian
Converging empty states (this may take a while): |deigs|: 2.470e-08

Computing DFT-D3 correction:
# coordination-number Ag 6.807 8.939 8.910 8.993 8.998 8.926 8.962 8.185 6.105 4.772 8.183 8.960 8.926 8.998 8.994 8.910 8.941 6.808 4.772 6.103
# diagonal-C6 Ag 268.61 268.61 268.61 268.61 268.61 268.61 268.61 268.61 268.61 268.61 268.61 268.61 268.61 268.61 268.61 268.61 268.61 268.61 268.61 268.61
EvdW_6 =   -0.124078
EvdW_8 =   -0.170806

# Ionic positions in cartesian coordinates:
ion Ag  -0.000264084455509   4.735373554027405  21.426897866666664 1
ion Ag  -0.000055902142166   9.596242755381500  18.888431434705009 1
ion Ag   0.000253039756095   2.352791388313483  16.426508077842669 1
ion Ag   0.000440384774642   7.259478426851387  13.981039800092397 1
ion Ag   0.000499387180952  12.122669048414084  11.495840708119871 1
ion Ag   0.000656700179557   4.889031014148700   9.050020405061549 1
ion Ag   0.000552002745067   9.794288068065562   6.594043917065185 1
ion Ag   0.000622577677343   2.459992258897584   4.043019979198944 1
ion Ag   0.000657952450202   7.470008179384975   1.683961793260436 1
ion Ag  -0.000690491268675  -0.196371955437941  23.680520186158621 1
ion Ag   3.832113995757694   1.175003293359706  20.197725621265793 1
ion Ag   3.832322425951270   5.966075112871472  17.647500254418734 1
ion Ag   3.832241483325284  10.870572333082910  15.190418971454495 1
ion Ag   3.832414661654019   3.633878610636834  12.744615121018969 1
ion Ag   3.832452780714106   8.497868855172516  10.259116353583222 1
ion Ag   3.832631988334565   1.287236989264838   7.814216140053814 1
ion Ag   3.832891202559647   6.162629488473637   5.352717008686009 1
ion Ag   3.833024415939586  11.018544138740976   2.813870165674532 1
ion Ag   3.833409326099648   3.827265525573758   0.560441833625849 1
ion Ag   3.832164152766666   8.282305914776600  22.558646362047266 1

# Forces in Cartesian coordinates:
force Ag  -0.000014234491901  -0.000020078705276   0.001283604393921 1
force Ag  -0.000026272205891  -0.000263164011010  -0.001023379551936 1
force Ag  -0.000041496476866  -0.000246972371481   0.000091739994034 1
force Ag  -0.000049085691303  -0.000070255345348  -0.000140480483227 1
force Ag  -0.000051646771794  -0.000173739269390   0.000102255259437 1
force Ag  -0.000047311527033  -0.000153080957805  -0.000969662315643 1
force Ag  -0.000037795394944  -0.000084710813462   0.000089290694082 1
force Ag  -0.000026614485108  -0.000395471371552  -0.000272017405841 1
force Ag  -0.000019169832175  -0.000410031399979  -0.000932494352214 1
force Ag  -0.000005988377688  -0.000388891052752  -0.000669016266896 1
force Ag   0.000028791282160   0.000357290291473   0.000287844101716 1
force Ag   0.000038184521092   0.000084039509230  -0.000129573680349 1
force Ag   0.000046706445274   0.000133573634664   0.000966978499823 1
force Ag   0.000050998603991   0.000186160608552  -0.000091448506436 1
force Ag   0.000049762659132   0.000117825228431   0.000172977864312 1
force Ag   0.000041029685413   0.000233866309286  -0.000097032215139 1
force Ag   0.000026054858480   0.000238913564217   0.000979601156043 1
force Ag   0.000014817573188  -0.000040525678134  -0.001270604835770 1
force Ag   0.000005722671076   0.000337008508473   0.000694701409845 1
force Ag   0.000017935689578   0.000403396778563   0.000907834690395 1

# Energy components:
   A_diel =       -0.0169517214971050
   Eewald =    23848.8092988377247821
       EH =    26518.8979410039246432
     Eloc =   -53783.6503580127755413
      Enl =       78.9118292469311058
     EvdW =       -0.2948847603522605
      Exc =     -289.7970276942108399
 Exc_core =        4.1634157106195007
       KE =      670.7444251171219776
  MuShift =       -0.0040589096608813
-------------------------------------
     Etot =    -2952.2363711821735706
       TS =        0.0005761363877225
-------------------------------------
        F =    -2952.2369473185613060
      muN =      -51.1197833998045539
-------------------------------------
        G =    -2901.1171639187568871


Dumping 'jdft.fillings' ... done
Dumping 'jdft.wfns' ... done
Dumping 'jdft.fluidState' ... done
Dumping 'jdft.ionpos' ... done
Dumping 'jdft.lattice' ... done
Dumping 'jdft.eigenvals' ... done
Dumping 'jdft.eigStats' ... 
	eMin: -3.518082 at state 0 ( [ +0.000000 +0.000000 +0.000000 ] spin 1 )
	HOMO: -0.135370 at state 39 ( [ +0.333333 -0.400000 +0.000000 ] spin -1 )
	mu  : -0.134500
	LUMO: -0.133932 at state 24 ( [ +0.000000 +0.200000 +0.000000 ] spin -1 )
	eMax: +0.165938 at state 23 ( [ +0.000000 +0.000000 +0.000000 ] spin -1 )
	HOMO-LUMO gap: +0.001439
	Optical gap  : +0.006508 at state 39 ( [ +0.333333 -0.400000 +0.000000 ] spin -1 )
Dumping 'jdft.Ecomponents' ... done
IonicMinimize: Iter:   1  G: -2901.117163918756887  |grad|_K:  4.344e-04  alpha:  1.000e+00  linmin: -9.177e-01  t[s]:   6841.67

#--- Lowdin population analysis ---
# oxidation-state Ag -0.010 -0.046 +0.001 -0.000 +0.004 +0.000 -0.021 -0.065 +0.013 +0.139 -0.065 -0.021 +0.000 +0.004 -0.000 +0.001 -0.046 -0.010 +0.139 +0.013
# magnetic-moments Ag +0.000 +0.000 +0.000 +0.000 +0.000 +0.000 +0.000 +0.000 +0.000 -0.000 +0.000 +0.000 +0.000 +0.000 +0.000 +0.000 +0.000 +0.000 -0.000 +0.000


Computing DFT-D3 correction:
# coordination-number Ag 6.783 8.939 8.906 8.996 8.991 8.935 8.952 8.183 6.091 4.788 8.181 8.949 8.936 8.991 8.996 8.907 8.941 6.785 4.788 6.089
# diagonal-C6 Ag 268.61 268.61 268.61 268.61 268.61 268.61 268.61 268.61 268.61 268.61 268.61 268.61 268.61 268.61 268.61 268.61 268.61 268.61 268.61 268.61
EvdW_6 =   -0.124068
EvdW_8 =   -0.170823
Shifting auxilliary hamiltonian by 0.000069 to set nElectrons=380.072739

-------- Electronic minimization -----------
	Linear fluid (dielectric constant: 78.4, screening length: 8.12261 Bohr) occupying 0.545756 of unit cell:	Completed after 14 iterations at t[s]:   6885.30
	FillingsUpdate:  mu: -0.134500000  nElectrons: 380.072739  magneticMoment: [ Abs: 0.00000  Tot: +0.00000 ]
ElecMinimize: Iter:   0  G: -2901.117215112047688  |grad|_K:  4.483e-07  alpha:  1.000e+00
	Linear fluid (dielectric constant: 78.4, screening length: 8.12261 Bohr) occupying 0.545621 of unit cell:	Completed after 14 iterations at t[s]:   6976.10
	Linear fluid (dielectric constant: 78.4, screening length: 8.12261 Bohr) occupying 0.545723 of unit cell:	Completed after 14 iterations at t[s]:   7007.03
	FillingsUpdate:  mu: -0.134500000  nElectrons: 380.067989  magneticMoment: [ Abs: 0.00000  Tot: +0.00000 ]
	SubspaceRotationAdjust: set factor to 0.0587
ElecMinimize: Iter:   1  G: -2901.117227309975533  |grad|_K:  2.816e-07  alpha:  1.990e-01  linmin: -2.659e-04  t[s]:   7050.92
	Linear fluid (dielectric constant: 78.4, screening length: 8.12261 Bohr) occupying 0.545735 of unit cell:	Completed after 11 iterations at t[s]:   7087.47
	Linear fluid (dielectric constant: 78.4, screening length: 8.12261 Bohr) occupying 0.545744 of unit cell:	Completed after 10 iterations at t[s]:   7116.44
	FillingsUpdate:  mu: -0.134500000  nElectrons: 380.071155  magneticMoment: [ Abs: 0.00000  Tot: +0.00000 ]
	SubspaceRotationAdjust: set factor to 0.0553
ElecMinimize: Iter:   2  G: -2901.117235725754199  |grad|_K:  1.401e-07  alpha:  3.484e-01  linmin:  1.824e-04  t[s]:   7163.09
	Linear fluid (dielectric constant: 78.4, screening length: 8.12261 Bohr) occupying 0.545748 of unit cell:	Completed after 2 iterations at t[s]:   7200.74
	Linear fluid (dielectric constant: 78.4, screening length: 8.12261 Bohr) occupying 0.545750 of unit cell:	Completed after 2 iterations at t[s]:   7228.94
	FillingsUpdate:  mu: -0.134500000  nElectrons: 380.071859  magneticMoment: [ Abs: 0.00000  Tot: +0.00000 ]
	SubspaceRotationAdjust: set factor to 0.0661
ElecMinimize: Iter:   3  G: -2901.117238930523854  |grad|_K:  1.083e-07  alpha:  5.390e-01  linmin:  9.836e-05  t[s]:   7274.03
	Linear fluid (dielectric constant: 78.4, screening length: 8.12261 Bohr) occupying 0.545751 of unit cell:	Completed after 5 iterations at t[s]:   7310.91
	Linear fluid (dielectric constant: 78.4, screening length: 8.12261 Bohr) occupying 0.545751 of unit cell:	Completed after 2 iterations at t[s]:   7339.36
	FillingsUpdate:  mu: -0.134500000  nElectrons: 380.071871  magneticMoment: [ Abs: 0.00000  Tot: +0.00000 ]
	SubspaceRotationAdjust: set factor to 0.0783
ElecMinimize: Iter:   4  G: -2901.117240515379308  |grad|_K:  8.611e-08  alpha:  4.456e-01  linmin:  1.052e-05  t[s]:   7385.14
	Linear fluid (dielectric constant: 78.4, screening length: 8.12261 Bohr) occupying 0.545754 of unit cell:	Completed after 2 iterations at t[s]:   7422.56
	Linear fluid (dielectric constant: 78.4, screening length: 8.12261 Bohr) occupying 0.545755 of unit cell:	Completed after 2 iterations at t[s]:   7451.17
	FillingsUpdate:  mu: -0.134500000  nElectrons: 380.072450  magneticMoment: [ Abs: 0.00000  Tot: +0.00000 ]
	SubspaceRotationAdjust: set factor to 0.0973
ElecMinimize: Iter:   5  G: -2901.117241822026244  |grad|_K:  7.955e-08  alpha:  5.817e-01  linmin:  2.394e-04  t[s]:   7493.70
	Linear fluid (dielectric constant: 78.4, screening length: 8.12261 Bohr) occupying 0.545759 of unit cell:	Completed after 7 iterations at t[s]:   7529.88
	Linear fluid (dielectric constant: 78.4, screening length: 8.12261 Bohr) occupying 0.545759 of unit cell:	Completed after 0 iterations at t[s]:   7558.06
	FillingsUpdate:  mu: -0.134500000  nElectrons: 380.073199  magneticMoment: [ Abs: 0.00000  Tot: +0.00000 ]
	SubspaceRotationAdjust: set factor to 0.114
ElecMinimize: Iter:   6  G: -2901.117242998126585  |grad|_K:  8.960e-08  alpha:  6.142e-01  linmin: -5.173e-04  t[s]:   7604.45
	Linear fluid (dielectric constant: 78.4, screening length: 8.12261 Bohr) occupying 0.545749 of unit cell:	Completed after 9 iterations at t[s]:   7643.11
	Linear fluid (dielectric constant: 78.4, screening length: 8.12261 Bohr) occupying 0.545751 of unit cell:	Completed after 3 iterations at t[s]:   7671.60
	FillingsUpdate:  mu: -0.134500000  nElectrons: 380.072766  magneticMoment: [ Abs: 0.00000  Tot: -0.00000 ]
	SubspaceRotationAdjust: set factor to 0.0993
ElecMinimize: Iter:   7  G: -2901.117244243108416  |grad|_K:  1.110e-07  alpha:  4.960e-01  linmin:  3.119e-04  t[s]:   7716.00
	Linear fluid (dielectric constant: 78.4, screening length: 8.12261 Bohr) occupying 0.545764 of unit cell:	Completed after 10 iterations at t[s]:   7755.03
	Linear fluid (dielectric constant: 78.4, screening length: 8.12261 Bohr) occupying 0.545758 of unit cell:	Completed after 10 iterations at t[s]:   7785.12
	FillingsUpdate:  mu: -0.134500000  nElectrons: 380.074509  magneticMoment: [ Abs: 0.00000  Tot: -0.00000 ]
	SubspaceRotationAdjust: set factor to 0.0773
ElecMinimize: Iter:   8  G: -2901.117245185630964  |grad|_K:  9.493e-08  alpha:  2.647e-01  linmin: -2.638e-05  t[s]:   7829.95
	Linear fluid (dielectric constant: 78.4, screening length: 8.12261 Bohr) occupying 0.545754 of unit cell:	Completed after 2 iterations at t[s]:   7864.89
	Linear fluid (dielectric constant: 78.4, screening length: 8.12261 Bohr) occupying 0.545750 of unit cell:	Completed after 2 iterations at t[s]:   7891.92
	FillingsUpdate:  mu: -0.134500000  nElectrons: 380.075059  magneticMoment: [ Abs: 0.00000  Tot: -0.00000 ]
	SubspaceRotationAdjust: set factor to 0.0967
ElecMinimize: Iter:   9  G: -2901.117246548375533  |grad|_K:  7.538e-08  alpha:  4.968e-01  linmin: -5.946e-06  t[s]:   7938.46
	Linear fluid (dielectric constant: 78.4, screening length: 8.12261 Bohr) occupying 0.545735 of unit cell:	Completed after 9 iterations at t[s]:   7977.25
	Linear fluid (dielectric constant: 78.4, screening length: 8.12261 Bohr) occupying 0.545739 of unit cell:	Completed after 6 iterations at t[s]:   8006.27
	FillingsUpdate:  mu: -0.134500000  nElectrons: 380.074530  magneticMoment: [ Abs: 0.00000  Tot: -0.00000 ]
	SubspaceRotationAdjust: set factor to 0.0806
ElecMinimize: Iter:  10  G: -2901.117247163744651  |grad|_K:  7.343e-08  alpha:  3.598e-01  linmin: -2.882e-05  t[s]:   8051.66
	Linear fluid (dielectric constant: 78.4, screening length: 8.12261 Bohr) occupying 0.545739 of unit cell:	Completed after 10 iterations at t[s]:   8089.72
	Linear fluid (dielectric constant: 78.4, screening length: 8.12261 Bohr) occupying 0.545739 of unit cell:	Completed after 6 iterations at t[s]:   8118.83
	FillingsUpdate:  mu: -0.134500000  nElectrons: 380.075377  magneticMoment: [ Abs: 0.00000  Tot: -0.00000 ]
	SubspaceRotationAdjust: set factor to 0.0617
ElecMinimize: Iter:  11  G: -2901.117247578704792  |grad|_K:  4.581e-08  alpha:  2.542e-01  linmin:  1.201e-04  t[s]:   8164.61
	Linear fluid (dielectric constant: 78.4, screening length: 8.12261 Bohr) occupying 0.545736 of unit cell:	Completed after 2 iterations at t[s]:   8202.11
	Linear fluid (dielectric constant: 78.4, screening length: 8.12261 Bohr) occupying 0.545734 of unit cell:	Completed after 0 iterations at t[s]:   8228.99
	FillingsUpdate:  mu: -0.134500000  nElectrons: 380.075382  magneticMoment: [ Abs: 0.00000  Tot: -0.00000 ]
	SubspaceRotationAdjust: set factor to 0.0766
ElecMinimize: Iter:  12  G: -2901.117247837465129  |grad|_K:  3.138e-08  alpha:  4.010e-01  linmin: -1.167e-03  t[s]:   8271.50
	Linear fluid (dielectric constant: 78.4, screening length: 8.12261 Bohr) occupying 0.545728 of unit cell:	Completed after 6 iterations at t[s]:   8308.36
	Linear fluid (dielectric constant: 78.4, screening length: 8.12261 Bohr) occupying 0.545729 of unit cell:	Completed after 0 iterations at t[s]:   8336.40
	FillingsUpdate:  mu: -0.134500000  nElectrons: 380.075056  magneticMoment: [ Abs: 0.00000  Tot: -0.00000 ]
	SubspaceRotationAdjust: set factor to 0.0663
ElecMinimize: Iter:  13  G: -2901.117247943868279  |grad|_K:  2.814e-08  alpha:  3.445e-01  linmin:  6.182e-04  t[s]:   8382.87
	Linear fluid (dielectric constant: 78.4, screening length: 8.12261 Bohr) occupying 0.545728 of unit cell:	Completed after 5 iterations at t[s]:   8420.27
	Linear fluid (dielectric constant: 78.4, screening length: 8.12261 Bohr) occupying 0.545728 of unit cell:	Completed after 2 iterations at t[s]:   8447.69
	FillingsUpdate:  mu: -0.134500000  nElectrons: 380.075193  magneticMoment: [ Abs: 0.00000  Tot: +0.00000 ]
	SubspaceRotationAdjust: set factor to 0.0647
ElecMinimize: Iter:  14  G: -2901.117247996882270  |grad|_K:  1.800e-08  alpha:  2.437e-01  linmin: -4.443e-04  t[s]:   8493.10
	Linear fluid (dielectric constant: 78.4, screening length: 8.12261 Bohr) occupying 0.545727 of unit cell:	Completed after 0 iterations at t[s]:   8529.86
	Linear fluid (dielectric constant: 78.4, screening length: 8.12261 Bohr) occupying 0.545726 of unit cell:	Completed after 1 iterations at t[s]:   8558.27
	FillingsUpdate:  mu: -0.134500000  nElectrons: 380.075168  magneticMoment: [ Abs: 0.00000  Tot: +0.00000 ]
	SubspaceRotationAdjust: set factor to 0.0777
ElecMinimize: Iter:  15  G: -2901.117248035791818  |grad|_K:  1.301e-08  alpha:  4.104e-01  linmin:  1.168e-03  t[s]:   8601.15
ElecMinimize: Converged (|Delta G|<1.000000e-07 for 2 iters).
Setting wave functions to eigenvectors of Hamiltonian
Converging empty states (this may take a while): |deigs|: 2.045e-08

Computing DFT-D3 correction:
# coordination-number Ag 6.783 8.939 8.906 8.996 8.991 8.935 8.952 8.183 6.091 4.788 8.181 8.949 8.936 8.991 8.996 8.907 8.941 6.785 4.788 6.089
# diagonal-C6 Ag 268.61 268.61 268.61 268.61 268.61 268.61 268.61 268.61 268.61 268.61 268.61 268.61 268.61 268.61 268.61 268.61 268.61 268.61 268.61 268.61
EvdW_6 =   -0.124068
EvdW_8 =   -0.170823

# Ionic positions in cartesian coordinates:
ion Ag  -0.000407659875291   4.735191306699061  21.437958078503669 1
ion Ag  -0.000317702653924   9.593908842394491  18.877526099277624 1
ion Ag  -0.000157896291372   2.350423628645096  16.426351034510848 1
ion Ag  -0.000045496139403   7.258929008280979  13.979404046916551 1
ion Ag  -0.000011216470223  12.121053902199636  11.496896921433425 1
ion Ag   0.000188978441003   4.887695654618097   9.041464348223526 1
ion Ag   0.000179899123046   9.793458911344528   6.596138017339196 1
ion Ag   0.000361241547741   2.456372222054739   4.041526826755168 1
ion Ag   0.000472010456036   7.466352801313898   1.676258911267438 1
ion Ag  -0.000752316950769  -0.199952021536657  23.672966216291684 1
ion Ag   3.832395415742416   1.178413159566054  20.199375973617833 1
ion Ag   3.832697821750863   5.967048435758844  17.645046481877575 1
ion Ag   3.832703006022235  10.871853344726143  15.198977423239286 1
ion Ag   3.832918990838569   3.635740049818549  12.743698015673365 1
ion Ag   3.832944852412382   8.499003079473457  10.261098383862723 1
ion Ag   3.833038182948505   1.289626235642847   7.814350666756278 1
ion Ag   3.833150736731515   6.164885231684345   5.363221301877146 1
ion Ag   3.833173200635406  11.018307646733925   2.802937515821623 1
ion Ag   3.833468032462382   3.830511784105119   0.568224801116728 1
ion Ag   3.832337919268873   8.286059776476840  22.566130935638348 1

# Forces in Cartesian coordinates:
force Ag   0.000000352740926   0.000158911413780   0.000814796468204 1
force Ag  -0.000000439867039  -0.000290527481817  -0.000709846625059 1
force Ag  -0.000002876721020  -0.000014440733644  -0.000014704834165 1
force Ag  -0.000004588410608  -0.000117686183279  -0.000344855780070 1
force Ag  -0.000006177934586  -0.000046881571678   0.000168009505128 1
force Ag  -0.000003776899867  -0.000145032671070  -0.000430661170807 1
force Ag  -0.000005448950460   0.000037003963623   0.000100089072839 1
force Ag  -0.000003903410154  -0.000344497109237   0.000013695486354 1
force Ag  -0.000006629581417  -0.000282517005357  -0.000404839422465 1
force Ag   0.000002029623267  -0.000374881564289  -0.000773340521176 1
force Ag   0.000004839509231   0.000318622377823  -0.000001984089856 1
force Ag   0.000005402680485  -0.000052180605522  -0.000115380520049 1
force Ag   0.000003859815453   0.000150454171242   0.000438676789245 1
force Ag   0.000005826720080   0.000064167328313  -0.000160962790185 1
force Ag   0.000004677116100   0.000139739895327   0.000356941465283 1
force Ag   0.000002502704821   0.000001759639629   0.000016854092717 1
force Ag   0.000000034841480   0.000279385969635   0.000695408281194 1
force Ag  -0.000001033682911  -0.000209364717916  -0.000823955426908 1
force Ag  -0.000002195475871   0.000322822120607   0.000790883969449 1
force Ag   0.000005804767536   0.000250608018765   0.000376328919141 1

# Energy components:
   A_diel =       -0.0174690876521017
   Eewald =    23846.3707726637949236
       EH =    26516.5648473547989852
     Eloc =   -53778.8778704320284305
      Enl =       78.9114357738416459
     EvdW =       -0.2948908171503686
      Exc =     -289.7969894429920714
 Exc_core =        4.1634155889517652
       KE =      670.7441607647054980
  MuShift =       -0.0041944447962250
-------------------------------------
     Etot =    -2952.2367820785257209
       TS =        0.0005760444145099
-------------------------------------
        F =    -2952.2373581229403499
      muN =      -51.1201100871485536
-------------------------------------
        G =    -2901.1172480357918175


Dumping 'jdft.fillings' ... done
Dumping 'jdft.wfns' ... done
Dumping 'jdft.fluidState' ... done
Dumping 'jdft.ionpos' ... done
Dumping 'jdft.lattice' ... done
Dumping 'jdft.eigenvals' ... done
Dumping 'jdft.eigStats' ... 
	eMin: -3.517927 at state 0 ( [ +0.000000 +0.000000 +0.000000 ] spin 1 )
	HOMO: -0.135262 at state 39 ( [ +0.333333 -0.400000 +0.000000 ] spin -1 )
	mu  : -0.134500
	LUMO: -0.133904 at state 24 ( [ +0.000000 +0.200000 +0.000000 ] spin -1 )
	eMax: +0.166103 at state 23 ( [ +0.000000 +0.000000 +0.000000 ] spin -1 )
	HOMO-LUMO gap: +0.001358
	Optical gap  : +0.006459 at state 39 ( [ +0.333333 -0.400000 +0.000000 ] spin -1 )
Dumping 'jdft.Ecomponents' ... done
IonicMinimize: Iter:   2  G: -2901.117248035791818  |grad|_K:  3.024e-04  alpha:  1.000e+00  linmin: -9.417e-01  t[s]:   8710.89
IonicMinimize: Converged (|Delta G|<1.000000e-04 for 2 iters).

#--- Lowdin population analysis ---
# oxidation-state Ag -0.010 -0.045 +0.001 +0.000 +0.004 +0.000 -0.021 -0.065 +0.012 +0.136 -0.065 -0.021 +0.000 +0.004 +0.000 +0.001 -0.045 -0.010 +0.136 +0.012
# magnetic-moments Ag -0.000 +0.000 +0.000 +0.000 +0.000 +0.000 +0.000 -0.000 -0.000 -0.000 -0.000 +0.000 +0.000 +0.000 +0.000 +0.000 +0.000 -0.000 -0.000 -0.000


Dumping 'jdft.n_up' ... done
Dumping 'jdft.n_dn' ... done
Dumping 'jdft.tau_up' ... done
Dumping 'jdft.tau_dn' ... done
Dumping 'jdft.eigenvals' ... done
Dumping 'jdft.eigStats' ... 
	eMin: -3.517927 at state 0 ( [ +0.000000 +0.000000 +0.000000 ] spin 1 )
	HOMO: -0.135262 at state 39 ( [ +0.333333 -0.400000 +0.000000 ] spin -1 )
	mu  : -0.134500
	LUMO: -0.133904 at state 24 ( [ +0.000000 +0.200000 +0.000000 ] spin -1 )
	eMax: +0.166103 at state 23 ( [ +0.000000 +0.000000 +0.000000 ] spin -1 )
	HOMO-LUMO gap: +0.001358
	Optical gap  : +0.006459 at state 39 ( [ +0.333333 -0.400000 +0.000000 ] spin -1 )
Dumping 'jdft.kPts' ... done
Dumping 'jdft.kMap' ... done
Dumping 'jdft.dosUp' ... done.
Dumping 'jdft.dosDn' ... done.
End date and time: Sat Sep 10 13:56:27 2022  (Duration: 0-2:26:17.86)
Done!

PROFILER:             augmentDensityGrid     7.311070 +/-     0.205684 s,  145 calls,   1060.105188 s total
PROFILER:         augmentDensityGridGrad     0.464561 +/-     0.112579 s,   75 calls,     34.842066 s total
PROFILER:        augmentDensitySpherical     0.002723 +/-     0.000196 s,  145 calls,      0.394827 s total
PROFILER:    augmentDensitySphericalGrad     0.003026 +/-     0.000720 s,   90 calls,      0.272371 s total
PROFILER:                 augmentOverlap     2.943528 +/-     0.378989 s,  317 calls,    933.098240 s total
PROFILER:                     diagouterI     6.598355 +/-     0.296514 s,  148 calls,    976.556529 s total
PROFILER:              EdensityAndVscloc     4.095612 +/-     1.482100 s,  145 calls,    593.863726 s total
PROFILER:                     EnlAndGrad     0.011542 +/-     0.002581 s,  163 calls,      1.881362 s total
PROFILER:            ExCorrCommunication     0.031107 +/-     0.228062 s,  905 calls,     28.151792 s total
PROFILER:               ExCorrFunctional     0.006977 +/-     0.001162 s,  155 calls,      1.081418 s total
PROFILER:                    ExCorrTotal     0.262073 +/-     0.536904 s,  155 calls,     40.621296 s total
PROFILER:                   Idag_DiagV_I    12.100639 +/-     3.297065 s,   87 calls,   1052.755572 s total
PROFILER:                    initWeights     1.970498 +/-     0.000000 s,    1 calls,      1.970498 s total
PROFILER:                    inv(matrix)     0.007709 +/-     0.000667 s,  144 calls,      1.110156 s total
PROFILER:            matrix::diagonalize     0.023968 +/-     0.012885 s,  233 calls,      5.584506 s total
PROFILER:                    matrix::set     0.000014 +/-     0.000013 s, 5180 calls,      0.072255 s total
PROFILER:            orthoMatrix(matrix)     0.004230 +/-     0.002553 s,  157 calls,      0.664057 s total
PROFILER:     RadialFunctionR::transform     0.114501 +/-     0.843976 s,   57 calls,      6.526558 s total
PROFILER:                    reduceKmesh     0.001955 +/-     0.000000 s,    1 calls,      0.001955 s total
PROFILER:   VanDerWaalsD3::energyAndGrad     0.009018 +/-     0.000532 s,    7 calls,      0.063125 s total
PROFILER:               WavefunctionDrag    18.157955 +/-     4.340645 s,    3 calls,     54.473864 s total
PROFILER:                            Y*M     0.998568 +/-     0.282651 s, 1031 calls,   1029.523899 s total
PROFILER:                          Y1^Y2     1.046418 +/-     0.342467 s,  675 calls,    706.332147 s total

MEMUSAGE:                   ColumnBundle     0.646882 GB
MEMUSAGE:        complexScalarFieldTilde     0.015450 GB
MEMUSAGE:                    IndexArrays     0.019785 GB
MEMUSAGE:                         matrix     0.036300 GB
MEMUSAGE:                           misc     0.015540 GB
MEMUSAGE:                    ScalarField     0.112009 GB
MEMUSAGE:               ScalarFieldTilde     0.081651 GB
MEMUSAGE:                          Total     0.758469 GB
