
*************** JDFTx 1.6.0  ***************

Start date and time: Mon Dec  6 17:23:49 2021
Executable /projects/musgravc/apps/jdftx-1.6.1/build/jdftx with command-line: -i in
Running on hosts (process indices):  shas0423.rc.int.colorado.edu (0-23)
Divided in process groups (process indices):  0 (0)  1 (1)  2 (2)  3 (3)  4 (4)  5 (5)  6 (6)  7 (7)  8 (8)  9 (9)  10 (10)  11 (11)  12 (12)  13 (13)  14 (14)  15 (15)  16 (16)  17 (17)  18 (18)  19 (19)  20 (20)  21 (21)  22 (22)  23 (23)
Resource initialization completed at t[s]:      0.00
Run totals: 24 processes, 24 threads, 0 GPUs


Input parsed successfully to the following command list (including defaults):

basis kpoint-dependent
converge-empty-states yes
coords-type Cartesian
core-overlap-check none
coulomb-interaction Periodic
davidson-band-ratio 1.1
density-of-states Etol 1.000000e-06 Esigma 1.000000e-03 \
		Complete \
	Total \
	OrthoOrbital Ag 1   s \
	OrthoOrbital Ag 1   p \
	OrthoOrbital Ag 1   px \
	OrthoOrbital Ag 1   py \
	OrthoOrbital Ag 1   pz \
	OrthoOrbital Ag 1   d \
	OrthoOrbital Ag 1   dxy \
	OrthoOrbital Ag 1   dyz \
	OrthoOrbital Ag 1   dz2 \
	OrthoOrbital Ag 1   dxz \
	OrthoOrbital Ag 1   dx2-y2 \
	OrthoOrbital Ag 2   s \
	OrthoOrbital Ag 2   p \
	OrthoOrbital Ag 2   px \
	OrthoOrbital Ag 2   py \
	OrthoOrbital Ag 2   pz \
	OrthoOrbital Ag 2   d \
	OrthoOrbital Ag 2   dxy \
	OrthoOrbital Ag 2   dyz \
	OrthoOrbital Ag 2   dz2 \
	OrthoOrbital Ag 2   dxz \
	OrthoOrbital Ag 2   dx2-y2 \
	OrthoOrbital Ag 3   s \
	OrthoOrbital Ag 3   p \
	OrthoOrbital Ag 3   px \
	OrthoOrbital Ag 3   py \
	OrthoOrbital Ag 3   pz \
	OrthoOrbital Ag 3   d \
	OrthoOrbital Ag 3   dxy \
	OrthoOrbital Ag 3   dyz \
	OrthoOrbital Ag 3   dz2 \
	OrthoOrbital Ag 3   dxz \
	OrthoOrbital Ag 3   dx2-y2 \
	OrthoOrbital Ag 4   s \
	OrthoOrbital Ag 4   p \
	OrthoOrbital Ag 4   px \
	OrthoOrbital Ag 4   py \
	OrthoOrbital Ag 4   pz \
	OrthoOrbital Ag 4   d \
	OrthoOrbital Ag 4   dxy \
	OrthoOrbital Ag 4   dyz \
	OrthoOrbital Ag 4   dz2 \
	OrthoOrbital Ag 4   dxz \
	OrthoOrbital Ag 4   dx2-y2 \
	OrthoOrbital Ag 5   s \
	OrthoOrbital Ag 5   p \
	OrthoOrbital Ag 5   px \
	OrthoOrbital Ag 5   py \
	OrthoOrbital Ag 5   pz \
	OrthoOrbital Ag 5   d \
	OrthoOrbital Ag 5   dxy \
	OrthoOrbital Ag 5   dyz \
	OrthoOrbital Ag 5   dz2 \
	OrthoOrbital Ag 5   dxz \
	OrthoOrbital Ag 5   dx2-y2 \
	OrthoOrbital Ag 6   s \
	OrthoOrbital Ag 6   p \
	OrthoOrbital Ag 6   px \
	OrthoOrbital Ag 6   py \
	OrthoOrbital Ag 6   pz \
	OrthoOrbital Ag 6   d \
	OrthoOrbital Ag 6   dxy \
	OrthoOrbital Ag 6   dyz \
	OrthoOrbital Ag 6   dz2 \
	OrthoOrbital Ag 6   dxz \
	OrthoOrbital Ag 6   dx2-y2 \
	OrthoOrbital Ag 7   s \
	OrthoOrbital Ag 7   p \
	OrthoOrbital Ag 7   px \
	OrthoOrbital Ag 7   py \
	OrthoOrbital Ag 7   pz \
	OrthoOrbital Ag 7   d \
	OrthoOrbital Ag 7   dxy \
	OrthoOrbital Ag 7   dyz \
	OrthoOrbital Ag 7   dz2 \
	OrthoOrbital Ag 7   dxz \
	OrthoOrbital Ag 7   dx2-y2 \
	OrthoOrbital Ag 8   s \
	OrthoOrbital Ag 8   p \
	OrthoOrbital Ag 8   px \
	OrthoOrbital Ag 8   py \
	OrthoOrbital Ag 8   pz \
	OrthoOrbital Ag 8   d \
	OrthoOrbital Ag 8   dxy \
	OrthoOrbital Ag 8   dyz \
	OrthoOrbital Ag 8   dz2 \
	OrthoOrbital Ag 8   dxz \
	OrthoOrbital Ag 8   dx2-y2 \
	OrthoOrbital Ag 9   s \
	OrthoOrbital Ag 9   p \
	OrthoOrbital Ag 9   px \
	OrthoOrbital Ag 9   py \
	OrthoOrbital Ag 9   pz \
	OrthoOrbital Ag 9   d \
	OrthoOrbital Ag 9   dxy \
	OrthoOrbital Ag 9   dyz \
	OrthoOrbital Ag 9   dz2 \
	OrthoOrbital Ag 9   dxz \
	OrthoOrbital Ag 9   dx2-y2 \
	OrthoOrbital Ag 10   s \
	OrthoOrbital Ag 10   p \
	OrthoOrbital Ag 10   px \
	OrthoOrbital Ag 10   py \
	OrthoOrbital Ag 10   pz \
	OrthoOrbital Ag 10   d \
	OrthoOrbital Ag 10   dxy \
	OrthoOrbital Ag 10   dyz \
	OrthoOrbital Ag 10   dz2 \
	OrthoOrbital Ag 10   dxz \
	OrthoOrbital Ag 10   dx2-y2 \
	OrthoOrbital Ag 11   s \
	OrthoOrbital Ag 11   p \
	OrthoOrbital Ag 11   px \
	OrthoOrbital Ag 11   py \
	OrthoOrbital Ag 11   pz \
	OrthoOrbital Ag 11   d \
	OrthoOrbital Ag 11   dxy \
	OrthoOrbital Ag 11   dyz \
	OrthoOrbital Ag 11   dz2 \
	OrthoOrbital Ag 11   dxz \
	OrthoOrbital Ag 11   dx2-y2 \
	OrthoOrbital Ag 12   s \
	OrthoOrbital Ag 12   p \
	OrthoOrbital Ag 12   px \
	OrthoOrbital Ag 12   py \
	OrthoOrbital Ag 12   pz \
	OrthoOrbital Ag 12   d \
	OrthoOrbital Ag 12   dxy \
	OrthoOrbital Ag 12   dyz \
	OrthoOrbital Ag 12   dz2 \
	OrthoOrbital Ag 12   dxz \
	OrthoOrbital Ag 12   dx2-y2 \
	OrthoOrbital Ag 13   s \
	OrthoOrbital Ag 13   p \
	OrthoOrbital Ag 13   px \
	OrthoOrbital Ag 13   py \
	OrthoOrbital Ag 13   pz \
	OrthoOrbital Ag 13   d \
	OrthoOrbital Ag 13   dxy \
	OrthoOrbital Ag 13   dyz \
	OrthoOrbital Ag 13   dz2 \
	OrthoOrbital Ag 13   dxz \
	OrthoOrbital Ag 13   dx2-y2 \
	OrthoOrbital Ag 14   s \
	OrthoOrbital Ag 14   p \
	OrthoOrbital Ag 14   px \
	OrthoOrbital Ag 14   py \
	OrthoOrbital Ag 14   pz \
	OrthoOrbital Ag 14   d \
	OrthoOrbital Ag 14   dxy \
	OrthoOrbital Ag 14   dyz \
	OrthoOrbital Ag 14   dz2 \
	OrthoOrbital Ag 14   dxz \
	OrthoOrbital Ag 14   dx2-y2 \
	OrthoOrbital Ag 15   s \
	OrthoOrbital Ag 15   p \
	OrthoOrbital Ag 15   px \
	OrthoOrbital Ag 15   py \
	OrthoOrbital Ag 15   pz \
	OrthoOrbital Ag 15   d \
	OrthoOrbital Ag 15   dxy \
	OrthoOrbital Ag 15   dyz \
	OrthoOrbital Ag 15   dz2 \
	OrthoOrbital Ag 15   dxz \
	OrthoOrbital Ag 15   dx2-y2 \
	OrthoOrbital Ag 16   s \
	OrthoOrbital Ag 16   p \
	OrthoOrbital Ag 16   px \
	OrthoOrbital Ag 16   py \
	OrthoOrbital Ag 16   pz \
	OrthoOrbital Ag 16   d \
	OrthoOrbital Ag 16   dxy \
	OrthoOrbital Ag 16   dyz \
	OrthoOrbital Ag 16   dz2 \
	OrthoOrbital Ag 16   dxz \
	OrthoOrbital Ag 16   dx2-y2 \
	OrthoOrbital Ag 17   s \
	OrthoOrbital Ag 17   p \
	OrthoOrbital Ag 17   px \
	OrthoOrbital Ag 17   py \
	OrthoOrbital Ag 17   pz \
	OrthoOrbital Ag 17   d \
	OrthoOrbital Ag 17   dxy \
	OrthoOrbital Ag 17   dyz \
	OrthoOrbital Ag 17   dz2 \
	OrthoOrbital Ag 17   dxz \
	OrthoOrbital Ag 17   dx2-y2 \
	OrthoOrbital Ag 18   s \
	OrthoOrbital Ag 18   p \
	OrthoOrbital Ag 18   px \
	OrthoOrbital Ag 18   py \
	OrthoOrbital Ag 18   pz \
	OrthoOrbital Ag 18   d \
	OrthoOrbital Ag 18   dxy \
	OrthoOrbital Ag 18   dyz \
	OrthoOrbital Ag 18   dz2 \
	OrthoOrbital Ag 18   dxz \
	OrthoOrbital Ag 18   dx2-y2 \
	OrthoOrbital Ag 19   s \
	OrthoOrbital Ag 19   p \
	OrthoOrbital Ag 19   px \
	OrthoOrbital Ag 19   py \
	OrthoOrbital Ag 19   pz \
	OrthoOrbital Ag 19   d \
	OrthoOrbital Ag 19   dxy \
	OrthoOrbital Ag 19   dyz \
	OrthoOrbital Ag 19   dz2 \
	OrthoOrbital Ag 19   dxz \
	OrthoOrbital Ag 19   dx2-y2 \
	OrthoOrbital Ag 20   s \
	OrthoOrbital Ag 20   p \
	OrthoOrbital Ag 20   px \
	OrthoOrbital Ag 20   py \
	OrthoOrbital Ag 20   pz \
	OrthoOrbital Ag 20   d \
	OrthoOrbital Ag 20   dxy \
	OrthoOrbital Ag 20   dyz \
	OrthoOrbital Ag 20   dz2 \
	OrthoOrbital Ag 20   dxz \
	OrthoOrbital Ag 20   dx2-y2
dump End ElecDensity KEdensity BandEigs EigStats RhoAtom DOS Kpoints
dump Ionic State IonicPositions Lattice EigStats Ecomponents
dump 
dump 
dump 
dump 
dump 
dump 
dump 
dump 
dump-name jdft.$VAR
elec-cutoff 20
elec-eigen-algo Davidson
elec-ex-corr gga-PBE
elec-initial-magnetization 0.000000 no
elec-n-bands 228
elec-smearing Fermi 0.001
electronic-minimize  \
	dirUpdateScheme      FletcherReeves \
	linminMethod         DirUpdateRecommended \
	nIterations          100 \
	history              15 \
	knormThreshold       0 \
	energyDiffThreshold  1e-07 \
	nEnergyDiff          2 \
	alphaTstart          1 \
	alphaTmin            1e-10 \
	updateTestStepSize   yes \
	alphaTreduceFactor   0.1 \
	alphaTincreaseFactor 3 \
	nAlphaAdjustMax      3 \
	wolfeEnergy          0.0001 \
	wolfeGradient        0.9 \
	fdTest               no
exchange-regularization WignerSeitzTruncated
fluid LinearPCM 298.000000 1.013250
fluid-anion F- 0.5 MeanFieldLJ \
	epsBulk 1 \
	pMol 0 \
	epsInf 1 \
	Pvap 0 \
	sigmaBulk 0 \
	Rvdw 2.24877 \
	Res 0 \
	tauNuc 343133
fluid-cation Na+ 0.5 MeanFieldLJ \
	epsBulk 1 \
	pMol 0 \
	epsInf 1 \
	Pvap 0 \
	sigmaBulk 0 \
	Rvdw 2.19208 \
	Res 0 \
	tauNuc 343133
fluid-ex-corr lda-TF lda-PZ
fluid-gummel-loop 10 1.000000e-05
fluid-minimize  \
	dirUpdateScheme      PolakRibiere \
	linminMethod         DirUpdateRecommended \
	nIterations          400 \
	history              15 \
	knormThreshold       1e-11 \
	energyDiffThreshold  0 \
	nEnergyDiff          2 \
	alphaTstart          1 \
	alphaTmin            1e-10 \
	updateTestStepSize   yes \
	alphaTreduceFactor   0.1 \
	alphaTincreaseFactor 3 \
	nAlphaAdjustMax      6 \
	wolfeEnergy          0.0001 \
	wolfeGradient        0.9 \
	fdTest               no
fluid-solvent H2O 55.338 ScalarEOS \
	epsBulk 78.4 \
	pMol 0.92466 \
	epsInf 1.77 \
	Pvap 1.06736e-10 \
	sigmaBulk 4.62e-05 \
	Rvdw 2.61727 \
	Res 1.42 \
	tauNuc 343133 \
	poleEl 15 7 1
forces-output-coords Positions
ion Ag   0.000000000000000   4.848194000000000  21.210875000000005 1
ion Ag   0.000000000000000   9.696389000000000  18.786729000000005 1
ion Ag   0.000000000000000   2.424097000000000  16.362656000000001 1
ion Ag   0.000000000000000   7.272292000000000  13.938583000000000 1
ion Ag   0.000000000000000  12.120486000000000  11.514438000000002 1
ion Ag   0.000000000000000   4.848194000000000   9.090365000000000 1
ion Ag   0.000000000000000   9.696389000000000   6.666292000000000 1
ion Ag   0.000000000000000   2.424097000000000   4.242146000000000 1
ion Ag   0.000000000000000   7.272292000000000   1.818073000000000 1
ion Ag   0.000000000000000   0.000000000000000  23.634948000000001 1
ion Ag   3.832834000000000   1.212049000000000  19.998802000000001 1
ion Ag   3.832834000000000   6.060243000000000  17.574729000000001 1
ion Ag   3.832834000000000  10.908436999999999  15.150583000000001 1
ion Ag   3.832834000000000   3.636146000000000  12.726509999999999 1
ion Ag   3.832834000000000   8.484340000000000  10.302436999999999 1
ion Ag   3.832834000000000   1.212049000000000   7.878292000000001 1
ion Ag   3.832834000000000   6.060243000000000   5.454219000000000 1
ion Ag   3.832834000000000  10.908436999999999   3.030146000000000 1
ion Ag   3.832834000000000   3.636146000000000   0.606000000000000 1
ion Ag   3.832834000000000   8.484340000000000  22.422875000000005 1
ion-species /projects/musgravc/apps/jdftx-1.6.0/build/pseudopotentials/GBRV_v1.5/$ID_pbe_v1.uspp
ion-species /projects/musgravc/apps/jdftx-1.6.0/build/pseudopotentials/GBRV_v1.5/$ID_pbe_v1.2.uspp
ion-species /projects/musgravc/apps/jdftx-1.6.0/build/pseudopotentials/GBRV_v1.5/$ID_pbe_v1.4.uspp
ion-species /projects/musgravc/apps/jdftx-1.6.0/build/pseudopotentials/GBRV_v1.5/$ID_pbe_v1.5.uspp
ion-width Ecut
ionic-minimize  \
	dirUpdateScheme      L-BFGS \
	linminMethod         DirUpdateRecommended \
	nIterations          100 \
	history              15 \
	knormThreshold       0.0001 \
	energyDiffThreshold  1e-06 \
	nEnergyDiff          2 \
	alphaTstart          1 \
	alphaTmin            1e-10 \
	updateTestStepSize   yes \
	alphaTreduceFactor   0.1 \
	alphaTincreaseFactor 3 \
	nAlphaAdjustMax      3 \
	wolfeEnergy          0.0001 \
	wolfeGradient        0.9 \
	fdTest               no
kpoint   0.000000000000   0.000000000000   0.000000000000  1.00000000000000
kpoint-folding 9 5 1 
latt-move-scale 0 0 0
latt-scale 1 1 1 
lattice  \
	   7.665668000000000    0.000000000000000    0.000000000000000  \
	   0.000000000000000   12.120486000000000    0.000000000000000  \
	   0.000000000000000    0.000000000000000   72.722915999999998 
lattice-minimize  \
	dirUpdateScheme      L-BFGS \
	linminMethod         DirUpdateRecommended \
	nIterations          0 \
	history              15 \
	knormThreshold       0 \
	energyDiffThreshold  1e-06 \
	nEnergyDiff          2 \
	alphaTstart          1 \
	alphaTmin            1e-10 \
	updateTestStepSize   yes \
	alphaTreduceFactor   0.1 \
	alphaTincreaseFactor 3 \
	nAlphaAdjustMax      3 \
	wolfeEnergy          0.0001 \
	wolfeGradient        0.9 \
	fdTest               no
lcao-params 30 1e-06 0.001
pcm-variant CANDLE
spintype z-spin
subspace-rotation-factor 1 yes
symmetries none
symmetry-threshold 0.0001
target-mu -0.1713 no

van-der-waals D3


Applied RMS atom displacement 0 bohrs to make symmetries exact.

---------- Initializing the Grid ----------
R = 
[      7.66567            0            0  ]
[            0      12.1205            0  ]
[            0            0      72.7229  ]
unit cell volume = 6756.8
G =
[   0.819653          0          0  ]
[          0   0.518394          0  ]
[          0          0   0.086399  ]
Minimum fftbox size, Smin = [  32  52  296  ]
Chosen fftbox size, S = [  32  54  300  ]

---------- Exchange Correlation functional ----------
Initalized PBE GGA exchange.
Initalized PBE GGA correlation.

---------- Setting up pseudopotentials ----------
Width of ionic core gaussian charges (only for fluid interactions / plotting) set to 0.397384

Reading pseudopotential file '/projects/musgravc/apps/jdftx-1.6.0/build/pseudopotentials/GBRV_v1.5/ag_pbe_v1.4.uspp':
  Title: Ag.  Created by USPP 7.3.6 on 1-4-15
  Reference state energy: -147.606242.  19 valence electrons in orbitals:
    |400>  occupation: 2  eigenvalue: -3.637437
    |410>  occupation: 6  eigenvalue: -2.297267
    |420>  occupation: 10  eigenvalue: -0.417763
    |500>  occupation: 0.5  eigenvalue: -0.283525
    |510>  occupation: 0  eigenvalue: -0.122889
  lMax: 2  lLocal: 0  QijEcut: 5.5
  6 projectors sampled on a log grid with 717 points:
    l: 0  eig: -0.283528  rCut: 1.5
    l: 0  eig: -3.637440  rCut: 1.5
    l: 1  eig: -0.122892  rCut: 1.5
    l: 1  eig: -2.297267  rCut: 1.5
    l: 2  eig: -0.417762  rCut: 1.7
    l: 2  eig: -1.000000  rCut: 1.7
  Partial core density with radius 1.2
  Transforming core density to a uniform radial grid of dG=0.02 with 1163 points.
  Transforming local potential to a uniform radial grid of dG=0.02 with 1163 points.
  Transforming nonlocal projectors to a uniform radial grid of dG=0.02 with 432 points.
  Transforming density augmentations to a uniform radial grid of dG=0.02 with 1163 points.
  Transforming atomic orbitals to a uniform radial grid of dG=0.02 with 432 points.
  Core radius for overlap checks: 1.70 bohrs.

Initialized 1 species with 20 total atoms.

Folded 1 k-points by 9x5x1 to 45 k-points.

---------- Setting up k-points, bands, fillings ----------
No reducable k-points. 
Computing the number of bands and number of electrons
Calculating initial fillings.
nElectrons: 380.000000   nBands: 228   nStates: 90

----- Setting up reduced wavefunction bases (one per k-point) -----
average nbasis = 28863.000 , ideal nbasis = 28865.582

----- Initializing Supercell corresponding to k-point mesh -----
Lattice vector linear combinations in supercell:
[   9   0   0  ]
[   0   5   0  ]
[   0   0   1  ]
Supercell lattice vectors:
[  68.991  0  0  ]
[  0  60.6024  0  ]
[  0  0  72.7229  ]

Initializing DFT-D3 calculator:
	Parameters set for gga-PBE functional
	s6:  1.000  s_r6:  1.217
	s8:  0.722  s_r8:  1.000
	Per-atom parameters loaded for:
	Ag:  sqrtQ[a0]:  5.443  Rcov[a0]:  2.173  CN: [ 0.00 0.97 ]

Initializing DFT-D2 calculator for fluid / solvation:
	Ag:  C6:  427.91 Eh-a0^6  R0: 3.097 a0

---------- Setting up ewald sum ----------
Optimum gaussian width for ewald sums = 4.577751 bohr.
Real space sum over 825 unit cells with max indices [  7  5  2  ]
Reciprocal space sum over 5049 terms with max indices [  4  5  25  ]

Computing DFT-D3 correction:
# coordination-number Ag 6.912 9.173 9.203 9.209 9.210 9.208 9.182 8.416 6.135 4.627 8.416 9.182 9.208 9.210 9.209 9.203 9.173 6.912 4.627 6.135
# diagonal-C6 Ag 268.61 268.61 268.61 268.61 268.61 268.61 268.61 268.61 268.61 268.61 268.61 268.61 268.61 268.61 268.61 268.61 268.61 268.61 268.61 268.61
EvdW_6 =   -0.125728
EvdW_8 =   -0.172998

---------- Allocating electronic variables ----------
Initializing wave functions:  linear combination of atomic orbitals
Ag pseudo-atom occupations:   s ( 2 1 )  p ( 6 0 )  d ( 10 )
	FillingsUpdate:  mu: -0.171300000  nElectrons: 380.000000  magneticMoment: [ Abs: 0.00086  Tot: +0.00000 ]
LCAOMinimize: Iter:   0  G: -2886.7461848369866857  |grad|_K:  6.644e-04  alpha:  1.000e+00
	FillingsUpdate:  mu: -0.171300000  nElectrons: 380.000000  magneticMoment: [ Abs: 0.00070  Tot: +0.00001 ]
LCAOMinimize: Iter:   1  G: -2886.7770895208827824  |grad|_K:  8.549e-04  alpha:  1.662e-01  linmin:  8.965e-02  cgtest: -6.800e-01  t[s]:    172.50
LCAOMinimize: 	Bad step direction: g.d > 0.
LCAOMinimize: 	Undoing step.
LCAOMinimize: 	Step failed: resetting search direction.
	FillingsUpdate:  mu: -0.171300000  nElectrons: 380.000000  magneticMoment: [ Abs: 0.00070  Tot: +0.00001 ]
LCAOMinimize: Iter:   2  G: -2886.7770895208827824  |grad|_K:  8.549e-04  alpha:  0.000e+00
	FillingsUpdate:  mu: -0.171300000  nElectrons: 380.000000  magneticMoment: [ Abs: 0.00070  Tot: -0.00001 ]
LCAOMinimize: Iter:   3  G: -2886.9349530166464319  |grad|_K:  2.107e-04  alpha:  6.379e-02  linmin: -8.715e-02  cgtest:  3.468e-01  t[s]:    291.87
LCAOMinimize: Encountered beta<0, resetting CG.
LCAOMinimize: 	Predicted alpha/alphaT>3.000000, increasing alphaT to 1.913673e-01.
	FillingsUpdate:  mu: -0.171300000  nElectrons: 380.000000  magneticMoment: [ Abs: 0.00055  Tot: -0.00003 ]
LCAOMinimize: Iter:   4  G: -2887.0057372554401809  |grad|_K:  9.159e-05  alpha:  5.004e-01  linmin: -2.060e-02  cgtest:  2.103e-01  t[s]:    378.30
	FillingsUpdate:  mu: -0.171300000  nElectrons: 380.000000  magneticMoment: [ Abs: 0.00054  Tot: -0.00002 ]
LCAOMinimize: Iter:   5  G: -2887.0075033031516796  |grad|_K:  4.356e-05  alpha:  7.096e-02  linmin:  1.496e-02  cgtest: -2.188e-01  t[s]:    447.06
	FillingsUpdate:  mu: -0.171300000  nElectrons: 380.000000  magneticMoment: [ Abs: 0.00054  Tot: -0.00002 ]
LCAOMinimize: Iter:   6  G: -2887.0077046391033946  |grad|_K:  2.774e-05  alpha:  3.815e-02  linmin: -1.751e-04  cgtest:  1.785e-01  t[s]:    515.81
LCAOMinimize: 	Predicted alpha/alphaT>3.000000, increasing alphaT to 1.144372e-01.
	FillingsUpdate:  mu: -0.171300000  nElectrons: 380.000000  magneticMoment: [ Abs: 0.00054  Tot: -0.00003 ]
LCAOMinimize: Iter:   7  G: -2887.0081300004289915  |grad|_K:  2.459e-05  alpha:  1.803e-01  linmin: -5.555e-05  cgtest: -1.007e-01  t[s]:    602.16
	FillingsUpdate:  mu: -0.171300000  nElectrons: 380.000000  magneticMoment: [ Abs: 0.00054  Tot: -0.00003 ]
LCAOMinimize: Iter:   8  G: -2887.0082457161315688  |grad|_K:  2.283e-05  alpha:  6.300e-02  linmin:  4.819e-07  cgtest: -1.080e-03  t[s]:    670.56
	FillingsUpdate:  mu: -0.171300000  nElectrons: 380.000000  magneticMoment: [ Abs: 0.00053  Tot: -0.00003 ]
LCAOMinimize: Iter:   9  G: -2887.0083399371615087  |grad|_K:  5.389e-06  alpha:  5.902e-02  linmin: -4.020e-03  cgtest:  4.695e-02  t[s]:    739.27
	FillingsUpdate:  mu: -0.171300000  nElectrons: 380.000000  magneticMoment: [ Abs: 0.00053  Tot: -0.00003 ]
LCAOMinimize: Iter:  10  G: -2887.0083464735562302  |grad|_K:  5.334e-06  alpha:  7.312e-02  linmin:  3.395e-03  cgtest: -4.233e-02  t[s]:    807.74
	FillingsUpdate:  mu: -0.171300000  nElectrons: 380.000000  magneticMoment: [ Abs: 0.00053  Tot: -0.00003 ]
LCAOMinimize: Iter:  11  G: -2887.0083513742029027  |grad|_K:  3.333e-06  alpha:  5.752e-02  linmin:  4.407e-03  cgtest:  5.254e-02  t[s]:    876.37
	FillingsUpdate:  mu: -0.171300000  nElectrons: 380.000000  magneticMoment: [ Abs: 0.00053  Tot: -0.00003 ]
LCAOMinimize: Iter:  12  G: -2887.0083561392521005  |grad|_K:  3.083e-06  alpha:  1.546e-01  linmin:  9.136e-03  cgtest: -7.349e-02  t[s]:    944.85
	FillingsUpdate:  mu: -0.171300000  nElectrons: 380.000000  magneticMoment: [ Abs: 0.00053  Tot: -0.00003 ]
LCAOMinimize: Iter:  13  G: -2887.0083570093711387  |grad|_K:  1.368e-06  alpha:  3.139e-02  linmin:  2.729e-03  cgtest:  2.394e-01  t[s]:   1013.24
LCAOMinimize: 	Predicted alpha/alphaT>3.000000, increasing alphaT to 9.416653e-02.
	FillingsUpdate:  mu: -0.171300000  nElectrons: 380.000000  magneticMoment: [ Abs: 0.00053  Tot: -0.00003 ]
LCAOMinimize: Iter:  14  G: -2887.0083576122460727  |grad|_K:  9.774e-07  alpha:  1.096e-01  linmin:  3.612e-02  cgtest: -3.505e-01  t[s]:   1099.54
LCAOMinimize: Converged (|Delta G|<1.000000e-06 for 2 iters).
----- createFluidSolver() ----- (Fluid-side solver setup)
   Initializing fluid molecule 'H2O'
     Initializing site 'O'
       Electron density: proportional to exp(-r/0.36935)*erfc((r-0.51523)/0.36823) with norm 6.826
       Charge density: gaussian nuclear width 0.478731 with net site charge 0.826
       Polarizability: cuspless exponential with width 0.32 and norm 3.73
       Hard sphere radius: 2.57003 bohrs
       Positions in reference frame:
         [ +0.000000 +0.000000 +0.000000 ]
     Initializing site 'H'
       Electron density: proportional to exp(-r/0.34641)*erfc((r-0)/0.390882) with norm 0.587
       Charge density: gaussian nuclear width 0.377945 with net site charge -0.413
       Polarizability: cuspless exponential with width 0.39 and norm 3.3
       Positions in reference frame:
         [ +0.000000 -1.441945 +1.122523 ]
         [ +0.000000 +1.441945 +1.122523 ]
     Net charge: 0   dipole magnitude: 0.927204
     Initializing spherical shell mfKernel with radius 2.61727 Bohr
     deltaS corrections:
       site 'O': -7.54299
       site 'H': -6.83917
   Initializing fluid molecule 'Na+'
     Initializing site 'Na'
       Electron density: proportional to exp(-r/0.19682)*erfc((r-0.71491)/0.41314) with norm 8.1383
       Charge density: gaussian nuclear width 0.365347 with net site charge -1
       Hard sphere radius: 1.86327 bohrs
       Positions in reference frame:
         [ +0.000000 +0.000000 +0.000000 ]
     Net charge: -1   dipole magnitude: 0
     Initializing gaussian mfKernel with width: 1.55004 Bohr
     deltaS corrections:
       site 'Na': -22.3555
   Initializing fluid molecule 'F-'
     Initializing site 'F'
       Electron density: proportional to exp(-r/0.38886)*erfc((r-0)/0.438782) with norm 8
       Charge density: gaussian nuclear width 0.374796 with net site charge 1
       Hard sphere radius: 2.39995 bohrs
       Positions in reference frame:
         [ +0.000000 +0.000000 +0.000000 ]
     Net charge: 1   dipole magnitude: 0
     Initializing gaussian mfKernel with width: 1.59012 Bohr
     deltaS corrections:
       site 'F': -9.04335

Correction to mu due to finite nuclear width = -0.055801
   Cavity determined by nc: 0.00142 and sigma: 0.707107
   Nonlocal vdW cavity from gaussian model electron density with norm = 8 and sigma = 0.993594 bohr
   Charge asymmetry in cavity with sensitivity pCavity = 36.5 e-bohr/Eh
   Electrostatic cavity expanded by eta = 1.46 bohrs
   Weighted density cavitation model constrained by Nbulk: 0.0049383 bohr^-3, Pvap: 3.14029 kPa, Rvdw: 2.61727 bohr and sigmaBulk: 4.62e-05 Eh/bohr^2 at T: 298 K.
   Weighted density dispersion model using vdW pair potentials with single solvent site with sqrtC6eff: 0.77 SI.


---- Citations for features of the code used in this run ----

   Software package:
      R. Sundararaman, K. Letchworth-Weaver, K.A. Schwarz, D. Gunceler, Y. Ozhabes and T.A. Arias, 'JDFTx: software for joint density-functional theory', SoftwareX 6, 278 (2017)

   gga-PBE exchange-correlation functional:
      J.P. Perdew, K. Burke and M. Ernzerhof, Phys. Rev. Lett. 77, 3865 (1996)

   Pseudopotentials:
      KF Garrity, JW Bennett, KM Rabe and D Vanderbilt, Comput. Mater. Sci. 81, 446 (2014)

   DFT-D3 dispersion correction:
      S. Grimme, J. Antony, S. Ehrlich and H. Krieg, J. Chem. Phys. 132, 154104 (2010)

   DFT-D2 dispersion correction:
      S. Grimme, J. Comput. Chem. 27, 1787 (2006)

   Charge-asymmetric nonlocally-determined local-electric (CANDLE) solvation model:
      R. Sundararaman and W.A. Goddard III, J. Chem. Phys. 142, 064107 (2015)

   Total energy minimization with Auxiliary Hamiltonian:
      C. Freysoldt, S. Boeck, and J. Neugebauer, Phys. Rev. B 79, 241103(R) (2009)

   Grand-canonical (fixed-potential) DFT:
      R. Sundararaman, W. A. Goddard III and T. A. Arias, J. Chem. Phys. 146, 114104 (2017)

   Linear-tetrahedron sampling for density of states:
      G. Lehmann and M. Taut, Phys. status solidi (b) 54, 469 (1972)

This list may not be complete. Please suggest additional citations or
report any other bugs at https://github.com/shankar1729/jdftx/issues

Initialization completed successfully at t[s]:   1116.11


Computing DFT-D3 correction:
# coordination-number Ag 6.912 9.173 9.203 9.209 9.210 9.208 9.182 8.416 6.135 4.627 8.416 9.182 9.208 9.210 9.209 9.203 9.173 6.912 4.627 6.135
# diagonal-C6 Ag 268.61 268.61 268.61 268.61 268.61 268.61 268.61 268.61 268.61 268.61 268.61 268.61 268.61 268.61 268.61 268.61 268.61 268.61 268.61 268.61
EvdW_6 =   -0.125728
EvdW_8 =   -0.172998
Fluid solver invoked on fresh (random / LCAO) wavefunctions
Running a vacuum solve first:

-------- Initial electronic minimization -----------
	FillingsUpdate:  mu: +0.114195340  nElectrons: 380.000000  magneticMoment: [ Abs: 0.00053  Tot: -0.00003 ]
ElecMinimize: Iter:   0  G: -2887.008904872151561  |grad|_K:  1.800e-05  alpha:  1.000e+00
	FillingsUpdate:  mu: +0.122980515  nElectrons: 380.000000  magneticMoment: [ Abs: 0.00041  Tot: -0.00003 ]
	SubspaceRotationAdjust: set factor to 0.999
ElecMinimize: Iter:   1  G: -2887.091805462896446  |grad|_K:  1.241e-05  alpha:  4.317e-01  linmin:  2.105e-05  t[s]:   1287.59
	FillingsUpdate:  mu: +0.104359765  nElectrons: 380.000000  magneticMoment: [ Abs: 0.00032  Tot: -0.00004 ]
	SubspaceRotationAdjust: set factor to 0.876
ElecMinimize: Iter:   2  G: -2887.116193996017955  |grad|_K:  8.116e-06  alpha:  2.656e-01  linmin: -1.867e-05  t[s]:   1396.40
	FillingsUpdate:  mu: +0.115920294  nElectrons: 380.000000  magneticMoment: [ Abs: 0.00029  Tot: -0.00003 ]
	SubspaceRotationAdjust: set factor to 0.599
ElecMinimize: Iter:   3  G: -2887.118860365901583  |grad|_K:  7.757e-06  alpha:  6.867e-02  linmin:  4.007e-05  t[s]:   1506.51
	FillingsUpdate:  mu: +0.130408340  nElectrons: 380.000000  magneticMoment: [ Abs: 0.00025  Tot: -0.00003 ]
	SubspaceRotationAdjust: set factor to 0.46
ElecMinimize: Iter:   4  G: -2887.122209680087053  |grad|_K:  5.689e-06  alpha:  9.425e-02  linmin: -1.628e-05  t[s]:   1616.11
	FillingsUpdate:  mu: +0.120438675  nElectrons: 380.000000  magneticMoment: [ Abs: 0.00019  Tot: -0.00003 ]
	SubspaceRotationAdjust: set factor to 0.601
ElecMinimize: Iter:   5  G: -2887.125855510064412  |grad|_K:  3.263e-06  alpha:  1.893e-01  linmin:  2.390e-05  t[s]:   1725.11
	FillingsUpdate:  mu: +0.116141418  nElectrons: 380.000000  magneticMoment: [ Abs: 0.00017  Tot: -0.00003 ]
	SubspaceRotationAdjust: set factor to 0.436
ElecMinimize: Iter:   6  G: -2887.126591351790466  |grad|_K:  3.284e-06  alpha:  1.164e-01  linmin: -3.008e-06  t[s]:   1834.36
	FillingsUpdate:  mu: +0.113431592  nElectrons: 380.000000  magneticMoment: [ Abs: 0.00013  Tot: -0.00003 ]
	SubspaceRotationAdjust: set factor to 0.37
ElecMinimize: Iter:   7  G: -2887.127718923945849  |grad|_K:  2.039e-06  alpha:  1.760e-01  linmin:  2.592e-05  t[s]:   1943.49
	FillingsUpdate:  mu: +0.120340233  nElectrons: 380.000000  magneticMoment: [ Abs: 0.00011  Tot: -0.00002 ]
	SubspaceRotationAdjust: set factor to 0.25
ElecMinimize: Iter:   8  G: -2887.128225764601211  |grad|_K:  1.432e-06  alpha:  2.054e-01  linmin: -1.134e-05  t[s]:   2052.57
	FillingsUpdate:  mu: +0.121492180  nElectrons: 380.000000  magneticMoment: [ Abs: 0.00009  Tot: -0.00002 ]
	SubspaceRotationAdjust: set factor to 0.213
ElecMinimize: Iter:   9  G: -2887.128520690710047  |grad|_K:  1.184e-06  alpha:  2.414e-01  linmin:  2.564e-06  t[s]:   2161.81
	FillingsUpdate:  mu: +0.119539102  nElectrons: 380.000000  magneticMoment: [ Abs: 0.00007  Tot: -0.00002 ]
	SubspaceRotationAdjust: set factor to 0.177
ElecMinimize: Iter:  10  G: -2887.128698916871144  |grad|_K:  7.212e-07  alpha:  2.138e-01  linmin:  8.096e-06  t[s]:   2270.79
	FillingsUpdate:  mu: +0.118214793  nElectrons: 380.000000  magneticMoment: [ Abs: 0.00006  Tot: -0.00002 ]
	SubspaceRotationAdjust: set factor to 0.196
ElecMinimize: Iter:  11  G: -2887.128798638238550  |grad|_K:  5.550e-07  alpha:  3.231e-01  linmin:  2.316e-05  t[s]:   2379.84
	FillingsUpdate:  mu: +0.119269513  nElectrons: 380.000000  magneticMoment: [ Abs: 0.00006  Tot: -0.00001 ]
	SubspaceRotationAdjust: set factor to 0.192
ElecMinimize: Iter:  12  G: -2887.128858028249851  |grad|_K:  4.168e-07  alpha:  3.252e-01  linmin:  4.914e-06  t[s]:   2489.33
	FillingsUpdate:  mu: +0.120048083  nElectrons: 380.000000  magneticMoment: [ Abs: 0.00005  Tot: -0.00001 ]
	SubspaceRotationAdjust: set factor to 0.163
ElecMinimize: Iter:  13  G: -2887.128883520308136  |grad|_K:  3.069e-07  alpha:  2.469e-01  linmin:  2.661e-07  t[s]:   2598.57
	FillingsUpdate:  mu: +0.119997632  nElectrons: 380.000000  magneticMoment: [ Abs: 0.00005  Tot: -0.00001 ]
	SubspaceRotationAdjust: set factor to 0.212
ElecMinimize: Iter:  14  G: -2887.128904372686065  |grad|_K:  2.198e-07  alpha:  3.727e-01  linmin:  1.070e-05  t[s]:   2707.58
	FillingsUpdate:  mu: +0.119720670  nElectrons: 380.000000  magneticMoment: [ Abs: 0.00004  Tot: -0.00001 ]
	SubspaceRotationAdjust: set factor to 0.208
ElecMinimize: Iter:  15  G: -2887.128914457475730  |grad|_K:  2.052e-07  alpha:  3.521e-01  linmin:  3.516e-06  t[s]:   2816.91
	FillingsUpdate:  mu: +0.119777730  nElectrons: 380.000000  magneticMoment: [ Abs: 0.00004  Tot: -0.00001 ]
	SubspaceRotationAdjust: set factor to 0.193
ElecMinimize: Iter:  16  G: -2887.128921529520994  |grad|_K:  1.595e-07  alpha:  2.826e-01  linmin:  1.064e-06  t[s]:   2925.98
	FillingsUpdate:  mu: +0.120125256  nElectrons: 380.000000  magneticMoment: [ Abs: 0.00003  Tot: -0.00001 ]
	SubspaceRotationAdjust: set factor to 0.212
ElecMinimize: Iter:  17  G: -2887.128927066575216  |grad|_K:  1.373e-07  alpha:  3.664e-01  linmin:  2.119e-06  t[s]:   3035.33
	FillingsUpdate:  mu: +0.120175776  nElectrons: 380.000000  magneticMoment: [ Abs: 0.00003  Tot: -0.00000 ]
	SubspaceRotationAdjust: set factor to 0.246
ElecMinimize: Iter:  18  G: -2887.128931282421490  |grad|_K:  1.110e-07  alpha:  3.767e-01  linmin:  3.765e-06  t[s]:   3144.52
	FillingsUpdate:  mu: +0.120023485  nElectrons: 380.000000  magneticMoment: [ Abs: 0.00002  Tot: -0.00000 ]
	SubspaceRotationAdjust: set factor to 0.214
ElecMinimize: Iter:  19  G: -2887.128933567943932  |grad|_K:  9.933e-08  alpha:  3.126e-01  linmin:  1.416e-06  t[s]:   3253.82
	FillingsUpdate:  mu: +0.120001694  nElectrons: 380.000000  magneticMoment: [ Abs: 0.00002  Tot: -0.00000 ]
	SubspaceRotationAdjust: set factor to 0.178
ElecMinimize: Iter:  20  G: -2887.128934979354653  |grad|_K:  7.174e-08  alpha:  2.408e-01  linmin:  3.827e-07  t[s]:   3362.94
	FillingsUpdate:  mu: +0.120146295  nElectrons: 380.000000  magneticMoment: [ Abs: 0.00002  Tot: -0.00000 ]
	SubspaceRotationAdjust: set factor to 0.189
ElecMinimize: Iter:  21  G: -2887.128936039066502  |grad|_K:  5.253e-08  alpha:  3.466e-01  linmin:  9.326e-07  t[s]:   3471.96
	FillingsUpdate:  mu: +0.120172833  nElectrons: 380.000000  magneticMoment: [ Abs: 0.00001  Tot: -0.00000 ]
	SubspaceRotationAdjust: set factor to 0.194
ElecMinimize: Iter:  22  G: -2887.128936564066407  |grad|_K:  4.086e-08  alpha:  3.203e-01  linmin: -7.443e-07  t[s]:   3581.22
	FillingsUpdate:  mu: +0.120117609  nElectrons: 380.000000  magneticMoment: [ Abs: 0.00001  Tot: -0.00000 ]
	SubspaceRotationAdjust: set factor to 0.168
ElecMinimize: Iter:  23  G: -2887.128936870354210  |grad|_K:  3.124e-08  alpha:  3.080e-01  linmin: -7.169e-08  t[s]:   3690.45
	FillingsUpdate:  mu: +0.120093284  nElectrons: 380.000000  magneticMoment: [ Abs: 0.00001  Tot: -0.00000 ]
	SubspaceRotationAdjust: set factor to 0.162
ElecMinimize: Iter:  24  G: -2887.128937036103707  |grad|_K:  2.247e-08  alpha:  2.861e-01  linmin:  6.052e-07  t[s]:   3799.51
	FillingsUpdate:  mu: +0.120117804  nElectrons: 380.000000  magneticMoment: [ Abs: 0.00001  Tot: -0.00000 ]
	SubspaceRotationAdjust: set factor to 0.187
ElecMinimize: Iter:  25  G: -2887.128937143016174  |grad|_K:  1.649e-08  alpha:  3.575e-01  linmin:  6.745e-07  t[s]:   3908.89
	FillingsUpdate:  mu: +0.120131290  nElectrons: 380.000000  magneticMoment: [ Abs: 0.00000  Tot: -0.00000 ]
	SubspaceRotationAdjust: set factor to 0.181
ElecMinimize: Iter:  26  G: -2887.128937195845992  |grad|_K:  1.394e-08  alpha:  3.270e-01  linmin:  1.405e-06  t[s]:   4018.27
	FillingsUpdate:  mu: +0.120121413  nElectrons: 380.000000  magneticMoment: [ Abs: 0.00000  Tot: -0.00000 ]
	SubspaceRotationAdjust: set factor to 0.193
ElecMinimize: Iter:  27  G: -2887.128937232101180  |grad|_K:  1.050e-08  alpha:  3.157e-01  linmin: -1.306e-06  t[s]:   4127.67
ElecMinimize: Converged (|Delta G|<1.000000e-07 for 2 iters).
Setting wave functions to eigenvectors of Hamiltonian
Converging empty states (this may take a while): |deigs|: 1.319e-02
Vacuum energy after initial minimize, F = -2887.128937232101180

Shifting auxilliary hamiltonian by -0.291421 to set nElectrons=380.000000

-------- Electronic minimization -----------
	Linear fluid (dielectric constant: 78.4, screening length: 8.12261 Bohr) occupying 0.547130 of unit cell:	Completed after 23 iterations at t[s]:   4548.56
	FillingsUpdate:  mu: -0.171300000  nElectrons: 380.000000  magneticMoment: [ Abs: 0.00000  Tot: -0.00000 ]
ElecMinimize: Iter:   0  G: -2887.130039976067565  |grad|_K:  4.619e-06  alpha:  1.000e+00
	Linear fluid (dielectric constant: 78.4, screening length: 8.12261 Bohr) occupying 0.549250 of unit cell:	Completed after 18 iterations at t[s]:   4639.24
	Linear fluid (dielectric constant: 78.4, screening length: 8.12261 Bohr) occupying 0.547377 of unit cell:	Completed after 18 iterations at t[s]:   4670.05
	FillingsUpdate:  mu: -0.171300000  nElectrons: 379.915942  magneticMoment: [ Abs: 0.00000  Tot: -0.00000 ]
	SubspaceRotationAdjust: set factor to 0.127
ElecMinimize: Iter:   1  G: -2887.131023214974448  |grad|_K:  2.635e-06  alpha:  8.863e-02  linmin:  7.777e-03  t[s]:   4715.05
	Linear fluid (dielectric constant: 78.4, screening length: 8.12261 Bohr) occupying 0.547645 of unit cell:	Completed after 14 iterations at t[s]:   4754.58
ElecMinimize: 	Predicted alpha/alphaT>3.000000, increasing alphaT to 2.658967e-01.
	Linear fluid (dielectric constant: 78.4, screening length: 8.12261 Bohr) occupying 0.548158 of unit cell:	Completed after 14 iterations at t[s]:   4784.97
	Linear fluid (dielectric constant: 78.4, screening length: 8.12261 Bohr) occupying 0.548802 of unit cell:	Completed after 15 iterations at t[s]:   4815.19
	FillingsUpdate:  mu: -0.171300000  nElectrons: 379.850959  magneticMoment: [ Abs: 0.00000  Tot: -0.00000 ]
	SubspaceRotationAdjust: set factor to 0.0894
ElecMinimize: Iter:   2  G: -2887.132786084123836  |grad|_K:  2.279e-06  alpha:  5.013e-01  linmin:  7.756e-04  t[s]:   4860.41
	Linear fluid (dielectric constant: 78.4, screening length: 8.12261 Bohr) occupying 0.550292 of unit cell:	Completed after 17 iterations at t[s]:   4900.18
	Linear fluid (dielectric constant: 78.4, screening length: 8.12261 Bohr) occupying 0.549533 of unit cell:	Completed after 15 iterations at t[s]:   4930.81
	FillingsUpdate:  mu: -0.171300000  nElectrons: 379.770831  magneticMoment: [ Abs: 0.00000  Tot: -0.00000 ]
	SubspaceRotationAdjust: set factor to 0.0503
ElecMinimize: Iter:   3  G: -2887.133457370805445  |grad|_K:  1.620e-06  alpha:  2.380e-01  linmin:  9.489e-04  t[s]:   4976.09
	Linear fluid (dielectric constant: 78.4, screening length: 8.12261 Bohr) occupying 0.550089 of unit cell:	Completed after 14 iterations at t[s]:   5015.52
	Linear fluid (dielectric constant: 78.4, screening length: 8.12261 Bohr) occupying 0.550927 of unit cell:	Completed after 15 iterations at t[s]:   5045.97
	FillingsUpdate:  mu: -0.171300000  nElectrons: 379.769609  magneticMoment: [ Abs: 0.00000  Tot: -0.00000 ]
	SubspaceRotationAdjust: set factor to 0.0297
ElecMinimize: Iter:   4  G: -2887.134374970677072  |grad|_K:  1.217e-06  alpha:  6.091e-01  linmin:  3.321e-04  t[s]:   5090.97
	Linear fluid (dielectric constant: 78.4, screening length: 8.12261 Bohr) occupying 0.551942 of unit cell:	Completed after 15 iterations at t[s]:   5130.53
	Linear fluid (dielectric constant: 78.4, screening length: 8.12261 Bohr) occupying 0.551976 of unit cell:	Completed after 10 iterations at t[s]:   5160.36
	FillingsUpdate:  mu: -0.171300000  nElectrons: 379.727269  magneticMoment: [ Abs: 0.00000  Tot: -0.00000 ]
	SubspaceRotationAdjust: set factor to 0.0265
ElecMinimize: Iter:   5  G: -2887.134922510775596  |grad|_K:  9.853e-07  alpha:  6.302e-01  linmin: -2.112e-05  t[s]:   5205.77
	Linear fluid (dielectric constant: 78.4, screening length: 8.12261 Bohr) occupying 0.552770 of unit cell:	Completed after 14 iterations at t[s]:   5245.42
	Linear fluid (dielectric constant: 78.4, screening length: 8.12261 Bohr) occupying 0.552631 of unit cell:	Completed after 11 iterations at t[s]:   5275.36
	FillingsUpdate:  mu: -0.171300000  nElectrons: 379.712891  magneticMoment: [ Abs: 0.00000  Tot: -0.00000 ]
	SubspaceRotationAdjust: set factor to 0.0302
ElecMinimize: Iter:   6  G: -2887.135221784445548  |grad|_K:  8.227e-07  alpha:  5.181e-01  linmin: -1.179e-05  t[s]:   5320.53
	Linear fluid (dielectric constant: 78.4, screening length: 8.12261 Bohr) occupying 0.553130 of unit cell:	Completed after 12 iterations at t[s]:   5359.90
	Linear fluid (dielectric constant: 78.4, screening length: 8.12261 Bohr) occupying 0.553076 of unit cell:	Completed after 10 iterations at t[s]:   5389.91
	FillingsUpdate:  mu: -0.171300000  nElectrons: 379.706851  magneticMoment: [ Abs: 0.00000  Tot: -0.00000 ]
	SubspaceRotationAdjust: set factor to 0.0326
ElecMinimize: Iter:   7  G: -2887.135407371034944  |grad|_K:  6.887e-07  alpha:  4.609e-01  linmin: -1.638e-05  t[s]:   5435.36
	Linear fluid (dielectric constant: 78.4, screening length: 8.12261 Bohr) occupying 0.553409 of unit cell:	Completed after 11 iterations at t[s]:   5474.60
	Linear fluid (dielectric constant: 78.4, screening length: 8.12261 Bohr) occupying 0.553519 of unit cell:	Completed after 11 iterations at t[s]:   5504.65
	FillingsUpdate:  mu: -0.171300000  nElectrons: 379.696542  magneticMoment: [ Abs: 0.00000  Tot: -0.00000 ]
	SubspaceRotationAdjust: set factor to 0.0363
ElecMinimize: Iter:   8  G: -2887.135581664410893  |grad|_K:  6.155e-07  alpha:  6.176e-01  linmin:  9.259e-06  t[s]:   5549.96
	Linear fluid (dielectric constant: 78.4, screening length: 8.12261 Bohr) occupying 0.553887 of unit cell:	Completed after 11 iterations at t[s]:   5589.02
	Linear fluid (dielectric constant: 78.4, screening length: 8.12261 Bohr) occupying 0.553973 of unit cell:	Completed after 7 iterations at t[s]:   5619.14
	FillingsUpdate:  mu: -0.171300000  nElectrons: 379.689100  magneticMoment: [ Abs: 0.00000  Tot: -0.00000 ]
	SubspaceRotationAdjust: set factor to 0.0401
ElecMinimize: Iter:   9  G: -2887.135754509820799  |grad|_K:  6.372e-07  alpha:  7.675e-01  linmin: -2.019e-05  t[s]:   5664.51
	Linear fluid (dielectric constant: 78.4, screening length: 8.12261 Bohr) occupying 0.554477 of unit cell:	Completed after 12 iterations at t[s]:   5703.68
	Linear fluid (dielectric constant: 78.4, screening length: 8.12261 Bohr) occupying 0.554418 of unit cell:	Completed after 9 iterations at t[s]:   5733.73
	FillingsUpdate:  mu: -0.171300000  nElectrons: 379.682194  magneticMoment: [ Abs: 0.00000  Tot: -0.00000 ]
	SubspaceRotationAdjust: set factor to 0.0431
ElecMinimize: Iter:  10  G: -2887.135917417351720  |grad|_K:  6.657e-07  alpha:  6.742e-01  linmin: -1.542e-05  t[s]:   5779.23
	Linear fluid (dielectric constant: 78.4, screening length: 8.12261 Bohr) occupying 0.554933 of unit cell:	Completed after 14 iterations at t[s]:   5818.76
	Linear fluid (dielectric constant: 78.4, screening length: 8.12261 Bohr) occupying 0.554872 of unit cell:	Completed after 10 iterations at t[s]:   5848.62
	FillingsUpdate:  mu: -0.171300000  nElectrons: 379.668302  magneticMoment: [ Abs: 0.00000  Tot: -0.00000 ]
	SubspaceRotationAdjust: set factor to 0.0444
ElecMinimize: Iter:  11  G: -2887.136073681717335  |grad|_K:  5.742e-07  alpha:  5.921e-01  linmin:  8.035e-06  t[s]:   5894.31
	Linear fluid (dielectric constant: 78.4, screening length: 8.12261 Bohr) occupying 0.555257 of unit cell:	Completed after 11 iterations at t[s]:   5933.59
	Linear fluid (dielectric constant: 78.4, screening length: 8.12261 Bohr) occupying 0.555280 of unit cell:	Completed after 3 iterations at t[s]:   5962.69
	FillingsUpdate:  mu: -0.171300000  nElectrons: 379.662204  magneticMoment: [ Abs: 0.00000  Tot: -0.00000 ]
	SubspaceRotationAdjust: set factor to 0.0468
ElecMinimize: Iter:  12  G: -2887.136196756093341  |grad|_K:  4.864e-07  alpha:  6.281e-01  linmin: -2.722e-05  t[s]:   6008.27
	Linear fluid (dielectric constant: 78.4, screening length: 8.12261 Bohr) occupying 0.555618 of unit cell:	Completed after 11 iterations at t[s]:   6047.77
	Linear fluid (dielectric constant: 78.4, screening length: 8.12261 Bohr) occupying 0.555547 of unit cell:	Completed after 4 iterations at t[s]:   6076.96
	FillingsUpdate:  mu: -0.171300000  nElectrons: 379.656848  magneticMoment: [ Abs: 0.00000  Tot: -0.00000 ]
	SubspaceRotationAdjust: set factor to 0.0511
ElecMinimize: Iter:  13  G: -2887.136266424357927  |grad|_K:  4.046e-07  alpha:  4.943e-01  linmin: -3.994e-06  t[s]:   6122.14
	Linear fluid (dielectric constant: 78.4, screening length: 8.12261 Bohr) occupying 0.555764 of unit cell:	Completed after 12 iterations at t[s]:   6161.88
	Linear fluid (dielectric constant: 78.4, screening length: 8.12261 Bohr) occupying 0.555758 of unit cell:	Completed after 2 iterations at t[s]:   6191.08
	FillingsUpdate:  mu: -0.171300000  nElectrons: 379.649726  magneticMoment: [ Abs: 0.00000  Tot: -0.00000 ]
	SubspaceRotationAdjust: set factor to 0.0544
ElecMinimize: Iter:  14  G: -2887.136313274043005  |grad|_K:  3.003e-07  alpha:  4.812e-01  linmin: -1.219e-05  t[s]:   6236.35
	Linear fluid (dielectric constant: 78.4, screening length: 8.12261 Bohr) occupying 0.555904 of unit cell:	Completed after 10 iterations at t[s]:   6275.48
	Linear fluid (dielectric constant: 78.4, screening length: 8.12261 Bohr) occupying 0.555934 of unit cell:	Completed after 8 iterations at t[s]:   6305.12
	FillingsUpdate:  mu: -0.171300000  nElectrons: 379.648334  magneticMoment: [ Abs: 0.00000  Tot: -0.00000 ]
	SubspaceRotationAdjust: set factor to 0.0575
ElecMinimize: Iter:  15  G: -2887.136344440402809  |grad|_K:  2.689e-07  alpha:  5.802e-01  linmin: -4.097e-05  t[s]:   6350.39
	Linear fluid (dielectric constant: 78.4, screening length: 8.12261 Bohr) occupying 0.556101 of unit cell:	Completed after 12 iterations at t[s]:   6390.05
	Linear fluid (dielectric constant: 78.4, screening length: 8.12261 Bohr) occupying 0.556094 of unit cell:	Completed after 2 iterations at t[s]:   6419.00
	FillingsUpdate:  mu: -0.171300000  nElectrons: 379.642414  magneticMoment: [ Abs: 0.00000  Tot: -0.00000 ]
	SubspaceRotationAdjust: set factor to 0.0617
ElecMinimize: Iter:  16  G: -2887.136368320632755  |grad|_K:  2.462e-07  alpha:  5.539e-01  linmin:  2.109e-05  t[s]:   6464.21
	Linear fluid (dielectric constant: 78.4, screening length: 8.12261 Bohr) occupying 0.556248 of unit cell:	Completed after 10 iterations at t[s]:   6503.43
	Linear fluid (dielectric constant: 78.4, screening length: 8.12261 Bohr) occupying 0.556273 of unit cell:	Completed after 2 iterations at t[s]:   6532.52
	FillingsUpdate:  mu: -0.171300000  nElectrons: 379.639171  magneticMoment: [ Abs: 0.00000  Tot: -0.00000 ]
	SubspaceRotationAdjust: set factor to 0.0693
ElecMinimize: Iter:  17  G: -2887.136391557266506  |grad|_K:  2.419e-07  alpha:  6.453e-01  linmin: -2.634e-05  t[s]:   6577.90
	Linear fluid (dielectric constant: 78.4, screening length: 8.12261 Bohr) occupying 0.556461 of unit cell:	Completed after 11 iterations at t[s]:   6617.14
	Linear fluid (dielectric constant: 78.4, screening length: 8.12261 Bohr) occupying 0.556453 of unit cell:	Completed after 2 iterations at t[s]:   6646.10
	FillingsUpdate:  mu: -0.171300000  nElectrons: 379.636399  magneticMoment: [ Abs: 0.00000  Tot: -0.00000 ]
	SubspaceRotationAdjust: set factor to 0.0736
ElecMinimize: Iter:  18  G: -2887.136413036565500  |grad|_K:  2.274e-07  alpha:  6.159e-01  linmin: -1.214e-05  t[s]:   6691.33
	Linear fluid (dielectric constant: 78.4, screening length: 8.12261 Bohr) occupying 0.556620 of unit cell:	Completed after 12 iterations at t[s]:   6730.82
	Linear fluid (dielectric constant: 78.4, screening length: 8.12261 Bohr) occupying 0.556587 of unit cell:	Completed after 10 iterations at t[s]:   6760.81
	FillingsUpdate:  mu: -0.171300000  nElectrons: 379.630405  magneticMoment: [ Abs: 0.00000  Tot: -0.00000 ]
	SubspaceRotationAdjust: set factor to 0.0672
ElecMinimize: Iter:  19  G: -2887.136428198393787  |grad|_K:  1.994e-07  alpha:  4.931e-01  linmin: -1.225e-05  t[s]:   6806.16
	Linear fluid (dielectric constant: 78.4, screening length: 8.12261 Bohr) occupying 0.556698 of unit cell:	Completed after 11 iterations at t[s]:   6845.41
	Linear fluid (dielectric constant: 78.4, screening length: 8.12261 Bohr) occupying 0.556682 of unit cell:	Completed after 8 iterations at t[s]:   6875.00
	FillingsUpdate:  mu: -0.171300000  nElectrons: 379.631109  magneticMoment: [ Abs: 0.00000  Tot: -0.00000 ]
	SubspaceRotationAdjust: set factor to 0.0521
ElecMinimize: Iter:  20  G: -2887.136438253742199  |grad|_K:  1.494e-07  alpha:  4.249e-01  linmin:  8.002e-06  t[s]:   6920.22
	Linear fluid (dielectric constant: 78.4, screening length: 8.12261 Bohr) occupying 0.556740 of unit cell:	Completed after 11 iterations at t[s]:   6959.46
	Linear fluid (dielectric constant: 78.4, screening length: 8.12261 Bohr) occupying 0.556740 of unit cell:	Completed after 0 iterations at t[s]:   6987.97
	FillingsUpdate:  mu: -0.171300000  nElectrons: 379.627992  magneticMoment: [ Abs: 0.00000  Tot: -0.00000 ]
	SubspaceRotationAdjust: set factor to 0.0461
ElecMinimize: Iter:  21  G: -2887.136443866548234  |grad|_K:  1.081e-07  alpha:  4.230e-01  linmin:  1.320e-05  t[s]:   7033.45
	Linear fluid (dielectric constant: 78.4, screening length: 8.12261 Bohr) occupying 0.556773 of unit cell:	Completed after 7 iterations at t[s]:   7072.27
	Linear fluid (dielectric constant: 78.4, screening length: 8.12261 Bohr) occupying 0.556772 of unit cell:	Completed after 0 iterations at t[s]:   7100.95
	FillingsUpdate:  mu: -0.171300000  nElectrons: 379.627480  magneticMoment: [ Abs: 0.00000  Tot: -0.00000 ]
	SubspaceRotationAdjust: set factor to 0.0523
ElecMinimize: Iter:  22  G: -2887.136446723830886  |grad|_K:  7.616e-08  alpha:  4.113e-01  linmin:  4.024e-05  t[s]:   7146.35
	Linear fluid (dielectric constant: 78.4, screening length: 8.12261 Bohr) occupying 0.556791 of unit cell:	Completed after 7 iterations at t[s]:   7185.11
	Linear fluid (dielectric constant: 78.4, screening length: 8.12261 Bohr) occupying 0.556792 of unit cell:	Completed after 0 iterations at t[s]:   7213.53
	FillingsUpdate:  mu: -0.171300000  nElectrons: 379.627579  magneticMoment: [ Abs: 0.00000  Tot: -0.00000 ]
	SubspaceRotationAdjust: set factor to 0.0558
ElecMinimize: Iter:  23  G: -2887.136448222770923  |grad|_K:  5.600e-08  alpha:  4.354e-01  linmin: -1.579e-04  t[s]:   7258.87
	Linear fluid (dielectric constant: 78.4, screening length: 8.12261 Bohr) occupying 0.556808 of unit cell:	Completed after 7 iterations at t[s]:   7297.39
	Linear fluid (dielectric constant: 78.4, screening length: 8.12261 Bohr) occupying 0.556809 of unit cell:	Completed after 0 iterations at t[s]:   7326.02
	FillingsUpdate:  mu: -0.171300000  nElectrons: 379.626965  magneticMoment: [ Abs: 0.00000  Tot: -0.00000 ]
	SubspaceRotationAdjust: set factor to 0.0638
ElecMinimize: Iter:  24  G: -2887.136449094294676  |grad|_K:  4.518e-08  alpha:  4.636e-01  linmin: -1.861e-04  t[s]:   7371.25
	Linear fluid (dielectric constant: 78.4, screening length: 8.12261 Bohr) occupying 0.556823 of unit cell:	Completed after 2 iterations at t[s]:   7409.32
	Linear fluid (dielectric constant: 78.4, screening length: 8.12261 Bohr) occupying 0.556826 of unit cell:	Completed after 0 iterations at t[s]:   7437.74
	FillingsUpdate:  mu: -0.171300000  nElectrons: 379.626583  magneticMoment: [ Abs: 0.00000  Tot: -0.00000 ]
	SubspaceRotationAdjust: set factor to 0.074
ElecMinimize: Iter:  25  G: -2887.136449771178377  |grad|_K:  4.377e-08  alpha:  5.507e-01  linmin: -1.492e-04  t[s]:   7483.13
	Linear fluid (dielectric constant: 78.4, screening length: 8.12261 Bohr) occupying 0.556848 of unit cell:	Completed after 2 iterations at t[s]:   7521.27
	Linear fluid (dielectric constant: 78.4, screening length: 8.12261 Bohr) occupying 0.556850 of unit cell:	Completed after 0 iterations at t[s]:   7549.70
	FillingsUpdate:  mu: -0.171300000  nElectrons: 379.626417  magneticMoment: [ Abs: 0.00000  Tot: -0.00000 ]
	SubspaceRotationAdjust: set factor to 0.0831
ElecMinimize: Iter:  26  G: -2887.136450467015493  |grad|_K:  4.544e-08  alpha:  6.038e-01  linmin: -3.632e-05  t[s]:   7594.83
	Linear fluid (dielectric constant: 78.4, screening length: 8.12261 Bohr) occupying 0.556882 of unit cell:	Completed after 6 iterations at t[s]:   7633.50
	Linear fluid (dielectric constant: 78.4, screening length: 8.12261 Bohr) occupying 0.556881 of unit cell:	Completed after 0 iterations at t[s]:   7662.03
	FillingsUpdate:  mu: -0.171300000  nElectrons: 379.626095  magneticMoment: [ Abs: 0.00000  Tot: -0.00000 ]
	SubspaceRotationAdjust: set factor to 0.0904
ElecMinimize: Iter:  27  G: -2887.136451189677700  |grad|_K:  5.078e-08  alpha:  5.870e-01  linmin: -1.169e-04  t[s]:   7707.39
	Linear fluid (dielectric constant: 78.4, screening length: 8.12261 Bohr) occupying 0.556926 of unit cell:	Completed after 11 iterations at t[s]:   7746.66
	Linear fluid (dielectric constant: 78.4, screening length: 8.12261 Bohr) occupying 0.556910 of unit cell:	Completed after 7 iterations at t[s]:   7776.12
	FillingsUpdate:  mu: -0.171300000  nElectrons: 379.624833  magneticMoment: [ Abs: 0.00000  Tot: -0.00000 ]
	SubspaceRotationAdjust: set factor to 0.0748
ElecMinimize: Iter:  28  G: -2887.136451770385520  |grad|_K:  5.034e-08  alpha:  3.724e-01  linmin:  3.146e-05  t[s]:   7821.28
	Linear fluid (dielectric constant: 78.4, screening length: 8.12261 Bohr) occupying 0.556940 of unit cell:	Completed after 9 iterations at t[s]:   7860.39
	Linear fluid (dielectric constant: 78.4, screening length: 8.12261 Bohr) occupying 0.556936 of unit cell:	Completed after 0 iterations at t[s]:   7888.96
	FillingsUpdate:  mu: -0.171300000  nElectrons: 379.625039  magneticMoment: [ Abs: 0.00000  Tot: +0.00000 ]
	SubspaceRotationAdjust: set factor to 0.0589
ElecMinimize: Iter:  29  G: -2887.136452257610927  |grad|_K:  3.980e-08  alpha:  3.238e-01  linmin:  2.249e-04  t[s]:   7934.31
	Linear fluid (dielectric constant: 78.4, screening length: 8.12261 Bohr) occupying 0.556955 of unit cell:	Completed after 2 iterations at t[s]:   7972.35
	Linear fluid (dielectric constant: 78.4, screening length: 8.12261 Bohr) occupying 0.556958 of unit cell:	Completed after 0 iterations at t[s]:   8001.21
	FillingsUpdate:  mu: -0.171300000  nElectrons: 379.624503  magneticMoment: [ Abs: 0.00000  Tot: +0.00000 ]
	SubspaceRotationAdjust: set factor to 0.0692
ElecMinimize: Iter:  30  G: -2887.136452612558969  |grad|_K:  2.817e-08  alpha:  3.881e-01  linmin: -2.285e-04  t[s]:   8046.86
	Linear fluid (dielectric constant: 78.4, screening length: 8.12261 Bohr) occupying 0.556971 of unit cell:	Completed after 6 iterations at t[s]:   8085.58
	Linear fluid (dielectric constant: 78.4, screening length: 8.12261 Bohr) occupying 0.556969 of unit cell:	Completed after 0 iterations at t[s]:   8114.09
	FillingsUpdate:  mu: -0.171300000  nElectrons: 379.624005  magneticMoment: [ Abs: 0.00000  Tot: +0.00000 ]
	SubspaceRotationAdjust: set factor to 0.0623
ElecMinimize: Iter:  31  G: -2887.136452771108907  |grad|_K:  2.443e-08  alpha:  3.337e-01  linmin: -3.938e-04  t[s]:   8159.35
	Linear fluid (dielectric constant: 78.4, screening length: 8.12261 Bohr) occupying 0.556978 of unit cell:	Completed after 7 iterations at t[s]:   8198.03
	Linear fluid (dielectric constant: 78.4, screening length: 8.12261 Bohr) occupying 0.556975 of unit cell:	Completed after 2 iterations at t[s]:   8226.97
	FillingsUpdate:  mu: -0.171300000  nElectrons: 379.624120  magneticMoment: [ Abs: 0.00000  Tot: +0.00000 ]
	SubspaceRotationAdjust: set factor to 0.0512
ElecMinimize: Iter:  32  G: -2887.136452857761014  |grad|_K:  1.708e-08  alpha:  2.453e-01  linmin:  8.269e-05  t[s]:   8272.36
	Linear fluid (dielectric constant: 78.4, screening length: 8.12261 Bohr) occupying 0.556979 of unit cell:	Completed after 0 iterations at t[s]:   8310.11
	Linear fluid (dielectric constant: 78.4, screening length: 8.12261 Bohr) occupying 0.556981 of unit cell:	Completed after 2 iterations at t[s]:   8338.92
	FillingsUpdate:  mu: -0.171300000  nElectrons: 379.623974  magneticMoment: [ Abs: 0.00000  Tot: +0.00000 ]
	SubspaceRotationAdjust: set factor to 0.0604
ElecMinimize: Iter:  33  G: -2887.136452917543920  |grad|_K:  1.371e-08  alpha:  3.722e-01  linmin:  5.153e-04  t[s]:   8384.29
ElecMinimize: Converged (|Delta G|<1.000000e-07 for 2 iters).
Setting wave functions to eigenvectors of Hamiltonian
Converging empty states (this may take a while): |deigs|: 3.655e-04
Single-point solvation energy estimate, DeltaG = -0.007515685442741

Computing DFT-D3 correction:
# coordination-number Ag 6.912 9.173 9.203 9.209 9.210 9.208 9.182 8.416 6.135 4.627 8.416 9.182 9.208 9.210 9.209 9.203 9.173 6.912 4.627 6.135
# diagonal-C6 Ag 268.61 268.61 268.61 268.61 268.61 268.61 268.61 268.61 268.61 268.61 268.61 268.61 268.61 268.61 268.61 268.61 268.61 268.61 268.61 268.61
EvdW_6 =   -0.125728
EvdW_8 =   -0.172998

# Ionic positions in cartesian coordinates:
ion Ag   0.000000000000000   4.848194000000000  21.210875000000005 1
ion Ag   0.000000000000000   9.696389000000000  18.786729000000005 1
ion Ag   0.000000000000000   2.424097000000000  16.362656000000001 1
ion Ag   0.000000000000000   7.272292000000000  13.938583000000000 1
ion Ag   0.000000000000000  12.120486000000000  11.514438000000002 1
ion Ag   0.000000000000000   4.848194000000000   9.090365000000000 1
ion Ag   0.000000000000000   9.696389000000000   6.666292000000000 1
ion Ag   0.000000000000000   2.424097000000000   4.242146000000000 1
ion Ag   0.000000000000000   7.272292000000000   1.818073000000000 1
ion Ag   0.000000000000000   0.000000000000000  23.634948000000001 1
ion Ag   3.832834000000000   1.212049000000000  19.998802000000001 1
ion Ag   3.832834000000000   6.060243000000000  17.574729000000001 1
ion Ag   3.832834000000000  10.908436999999999  15.150583000000001 1
ion Ag   3.832834000000000   3.636146000000000  12.726509999999999 1
ion Ag   3.832834000000000   8.484340000000000  10.302436999999999 1
ion Ag   3.832834000000000   1.212049000000000   7.878292000000001 1
ion Ag   3.832834000000000   6.060243000000000   5.454219000000000 1
ion Ag   3.832834000000000  10.908436999999999   3.030146000000000 1
ion Ag   3.832834000000000   3.636146000000000   0.606000000000000 1
ion Ag   3.832834000000000   8.484340000000000  22.422875000000005 1

# Forces in Cartesian coordinates:
force Ag   0.000001001309007  -0.000124036330726   0.003878609675542 1
force Ag  -0.000000941003485  -0.000449069306628   0.001333356713437 1
force Ag   0.000000485317772  -0.000228387803581  -0.001670860133401 1
force Ag  -0.000002101700287   0.000572291040507   0.000579816849787 1
force Ag   0.000000584835090  -0.000342631526917  -0.000641533277679 1
force Ag   0.000004682044387   0.000146974122170   0.001662289619275 1
force Ag  -0.000002291403675   0.000359406768301   0.000649663801331 1
force Ag  -0.000001123930787  -0.002833723800416  -0.005012494043177 1
force Ag   0.000001622158788   0.002548978279639  -0.001282449933172 1
force Ag  -0.000004817109040  -0.000019699183701  -0.002853582167466 1
force Ag   0.000000533996254   0.002860979053558   0.005009331795419 1
force Ag   0.000002366742711  -0.000428747806947  -0.000651995650427 1
force Ag  -0.000004542142399  -0.000066587970986  -0.001660290010190 1
force Ag   0.000000264939009   0.000275652236906   0.000641021557726 1
force Ag   0.000002572627015  -0.000545934478257  -0.000583325378302 1
force Ag  -0.000000891888818   0.000255441334020   0.001670380073659 1
force Ag   0.000000006937282   0.000384389757090  -0.001333004570499 1
force Ag   0.000000320112387   0.000212479964171  -0.003881823284317 1
force Ag   0.000006117540308  -0.000120900354418   0.002852532741621 1
force Ag   0.000000264444911  -0.002497140950945   0.001280308486012 1

# Energy components:
   A_diel =        0.0627721616929883
   Eewald =    24221.6625686443767336
       EH =    26868.9651810801078682
     Eloc =   -54506.7378231796319596
      Enl =       78.9351268404773805
     EvdW =       -0.2987257164288569
      Exc =     -289.7754170293844140
 Exc_core =        4.1634126338420181
       KE =      670.8364682320298016
  MuShift =        0.0209826458421892
-------------------------------------
     Etot =    -2952.1654536870737502
       TS =        0.0005859014086485
-------------------------------------
        F =    -2952.1660395884823629
      muN =      -65.0295866709384427
-------------------------------------
        G =    -2887.1364529175439202


Dumping 'jdft.fillings' ... done
Dumping 'jdft.wfns' ... done
Dumping 'jdft.fluidState' ... done
Dumping 'jdft.ionpos' ... done
Dumping 'jdft.lattice' ... done
Dumping 'jdft.eigenvals' ... done
Dumping 'jdft.eigStats' ... 
	eMin: -3.555934 at state 0 ( [ +0.000000 +0.000000 +0.000000 ] spin 1 )
	HOMO: -0.171385 at state 78 ( [ -0.333333 -0.400000 +0.000000 ] spin -1 )
	mu  : -0.171300
	LUMO: -0.170363 at state 47 ( [ +0.000000 +0.400000 +0.000000 ] spin -1 )
	eMax: +0.144577 at state 55 ( [ +0.222222 +0.000000 +0.000000 ] spin -1 )
	HOMO-LUMO gap: +0.001022
	Optical gap  : +0.010629 at state 78 ( [ -0.333333 -0.400000 +0.000000 ] spin -1 )
Dumping 'jdft.Ecomponents' ... done
IonicMinimize: Iter:   0  G: -2887.136452917543920  |grad|_K:  1.568e-03  t[s]:   8848.60

#--- Lowdin population analysis ---
# oxidation-state Ag +0.024 -0.045 -0.001 +0.000 +0.006 +0.001 -0.025 -0.057 +0.082 +0.257 -0.057 -0.025 +0.001 +0.006 +0.000 -0.001 -0.045 +0.024 +0.257 +0.082
# magnetic-moments Ag -0.000 +0.000 +0.000 -0.000 -0.000 -0.000 +0.000 -0.000 +0.000 +0.000 +0.000 +0.000 -0.000 -0.000 -0.000 -0.000 +0.000 +0.000 +0.000 +0.000


Computing DFT-D3 correction:
# coordination-number Ag 6.912 9.166 9.198 9.211 9.213 9.204 9.179 8.410 6.134 4.636 8.410 9.179 9.204 9.213 9.211 9.198 9.166 6.912 4.636 6.134
# diagonal-C6 Ag 268.61 268.61 268.61 268.61 268.61 268.61 268.61 268.61 268.61 268.61 268.61 268.61 268.61 268.61 268.61 268.61 268.61 268.61 268.61 268.61
EvdW_6 =   -0.125715
EvdW_8 =   -0.172978
Shifting auxilliary hamiltonian by -0.000050 to set nElectrons=379.623974

-------- Electronic minimization -----------
	Linear fluid (dielectric constant: 78.4, screening length: 8.12261 Bohr) occupying 0.557016 of unit cell:	Completed after 7 iterations at t[s]:   8891.88
	FillingsUpdate:  mu: -0.171300000  nElectrons: 379.623974  magneticMoment: [ Abs: 0.00000  Tot: +0.00000 ]
ElecMinimize: Iter:   0  G: -2887.136569823777791  |grad|_K:  1.059e-07  alpha:  1.000e+00
	Linear fluid (dielectric constant: 78.4, screening length: 8.12261 Bohr) occupying 0.557018 of unit cell:	Completed after 10 iterations at t[s]:   8982.71
	Linear fluid (dielectric constant: 78.4, screening length: 8.12261 Bohr) occupying 0.557017 of unit cell:	Completed after 10 iterations at t[s]:   9012.64
	FillingsUpdate:  mu: -0.171300000  nElectrons: 379.622956  magneticMoment: [ Abs: 0.00000  Tot: +0.00000 ]
	SubspaceRotationAdjust: set factor to 0.0634
ElecMinimize: Iter:   1  G: -2887.136573142891393  |grad|_K:  8.763e-08  alpha:  4.964e-01  linmin:  3.527e-05  t[s]:   9057.92
	Linear fluid (dielectric constant: 78.4, screening length: 8.12261 Bohr) occupying 0.557019 of unit cell:	Completed after 10 iterations at t[s]:   9096.86
	Linear fluid (dielectric constant: 78.4, screening length: 8.12261 Bohr) occupying 0.557019 of unit cell:	Completed after 2 iterations at t[s]:   9125.65
	FillingsUpdate:  mu: -0.171300000  nElectrons: 379.624246  magneticMoment: [ Abs: 0.00000  Tot: +0.00000 ]
	SubspaceRotationAdjust: set factor to 0.0722
ElecMinimize: Iter:   2  G: -2887.136575583165268  |grad|_K:  9.270e-08  alpha:  5.347e-01  linmin: -2.604e-04  t[s]:   9170.70
	Linear fluid (dielectric constant: 78.4, screening length: 8.12261 Bohr) occupying 0.557022 of unit cell:	Completed after 7 iterations at t[s]:   9209.43
	Linear fluid (dielectric constant: 78.4, screening length: 8.12261 Bohr) occupying 0.557024 of unit cell:	Completed after 7 iterations at t[s]:   9239.08
	FillingsUpdate:  mu: -0.171300000  nElectrons: 379.623403  magneticMoment: [ Abs: 0.00000  Tot: +0.00000 ]
	SubspaceRotationAdjust: set factor to 0.0803
ElecMinimize: Iter:   3  G: -2887.136580195624447  |grad|_K:  1.131e-07  alpha:  9.003e-01  linmin:  1.398e-04  t[s]:   9284.22
	Linear fluid (dielectric constant: 78.4, screening length: 8.12261 Bohr) occupying 0.557030 of unit cell:	Completed after 3 iterations at t[s]:   9322.54
	Linear fluid (dielectric constant: 78.4, screening length: 8.12261 Bohr) occupying 0.557030 of unit cell:	Completed after 2 iterations at t[s]:   9351.55
	FillingsUpdate:  mu: -0.171300000  nElectrons: 379.623637  magneticMoment: [ Abs: 0.00000  Tot: +0.00000 ]
	SubspaceRotationAdjust: set factor to 0.087
ElecMinimize: Iter:   4  G: -2887.136586309686663  |grad|_K:  1.273e-07  alpha:  8.119e-01  linmin: -8.397e-07  t[s]:   9396.82
	Linear fluid (dielectric constant: 78.4, screening length: 8.12261 Bohr) occupying 0.557035 of unit cell:	Completed after 10 iterations at t[s]:   9436.25
	Linear fluid (dielectric constant: 78.4, screening length: 8.12261 Bohr) occupying 0.557033 of unit cell:	Completed after 7 iterations at t[s]:   9465.69
	FillingsUpdate:  mu: -0.171300000  nElectrons: 379.624248  magneticMoment: [ Abs: 0.00000  Tot: +0.00000 ]
	SubspaceRotationAdjust: set factor to 0.0887
ElecMinimize: Iter:   5  G: -2887.136591373203373  |grad|_K:  1.130e-07  alpha:  5.264e-01  linmin:  9.135e-08  t[s]:   9510.89
	Linear fluid (dielectric constant: 78.4, screening length: 8.12261 Bohr) occupying 0.557033 of unit cell:	Completed after 10 iterations at t[s]:   9549.87
	Linear fluid (dielectric constant: 78.4, screening length: 8.12261 Bohr) occupying 0.557033 of unit cell:	Completed after 3 iterations at t[s]:   9578.84
	FillingsUpdate:  mu: -0.171300000  nElectrons: 379.622604  magneticMoment: [ Abs: 0.00000  Tot: +0.00000 ]
	SubspaceRotationAdjust: set factor to 0.0722
ElecMinimize: Iter:   6  G: -2887.136594803887419  |grad|_K:  9.495e-08  alpha:  4.519e-01  linmin:  1.212e-04  t[s]:   9624.15
	Linear fluid (dielectric constant: 78.4, screening length: 8.12261 Bohr) occupying 0.557031 of unit cell:	Completed after 11 iterations at t[s]:   9663.24
	Linear fluid (dielectric constant: 78.4, screening length: 8.12261 Bohr) occupying 0.557032 of unit cell:	Completed after 10 iterations at t[s]:   9693.09
	FillingsUpdate:  mu: -0.171300000  nElectrons: 379.623998  magneticMoment: [ Abs: 0.00000  Tot: +0.00000 ]
	SubspaceRotationAdjust: set factor to 0.0472
ElecMinimize: Iter:   7  G: -2887.136596172759710  |grad|_K:  6.720e-08  alpha:  2.646e-01  linmin: -7.883e-05  t[s]:   9738.34
	Linear fluid (dielectric constant: 78.4, screening length: 8.12261 Bohr) occupying 0.557030 of unit cell:	Completed after 7 iterations at t[s]:   9777.09
	Linear fluid (dielectric constant: 78.4, screening length: 8.12261 Bohr) occupying 0.557029 of unit cell:	Completed after 2 iterations at t[s]:   9805.97
	FillingsUpdate:  mu: -0.171300000  nElectrons: 379.623584  magneticMoment: [ Abs: 0.00000  Tot: -0.00000 ]
	SubspaceRotationAdjust: set factor to 0.0573
ElecMinimize: Iter:   8  G: -2887.136597157410506  |grad|_K:  4.398e-08  alpha:  3.637e-01  linmin: -2.387e-04  t[s]:   9851.03
	Linear fluid (dielectric constant: 78.4, screening length: 8.12261 Bohr) occupying 0.557027 of unit cell:	Completed after 7 iterations at t[s]:   9889.78
	Linear fluid (dielectric constant: 78.4, screening length: 8.12261 Bohr) occupying 0.557027 of unit cell:	Completed after 2 iterations at t[s]:   9918.87
	FillingsUpdate:  mu: -0.171300000  nElectrons: 379.623146  magneticMoment: [ Abs: 0.00000  Tot: -0.00000 ]
	SubspaceRotationAdjust: set factor to 0.0492
ElecMinimize: Iter:   9  G: -2887.136597512368553  |grad|_K:  2.921e-08  alpha:  3.096e-01  linmin: -3.925e-04  t[s]:   9964.14
	Linear fluid (dielectric constant: 78.4, screening length: 8.12261 Bohr) occupying 0.557026 of unit cell:	Completed after 6 iterations at t[s]:  10002.65
	Linear fluid (dielectric constant: 78.4, screening length: 8.12261 Bohr) occupying 0.557026 of unit cell:	Completed after 0 iterations at t[s]:  10031.30
	FillingsUpdate:  mu: -0.171300000  nElectrons: 379.623474  magneticMoment: [ Abs: 0.00000  Tot: -0.00000 ]
	SubspaceRotationAdjust: set factor to 0.0456
ElecMinimize: Iter:  10  G: -2887.136597681875173  |grad|_K:  1.841e-08  alpha:  3.296e-01  linmin: -1.967e-03  t[s]:  10076.60
	Linear fluid (dielectric constant: 78.4, screening length: 8.12261 Bohr) occupying 0.557026 of unit cell:	Completed after 2 iterations at t[s]:  10114.69
	Linear fluid (dielectric constant: 78.4, screening length: 8.12261 Bohr) occupying 0.557026 of unit cell:	Completed after 0 iterations at t[s]:  10143.17
	FillingsUpdate:  mu: -0.171300000  nElectrons: 379.623551  magneticMoment: [ Abs: 0.00000  Tot: -0.00000 ]
	SubspaceRotationAdjust: set factor to 0.0488
ElecMinimize: Iter:  11  G: -2887.136597748130953  |grad|_K:  1.237e-08  alpha:  3.141e-01  linmin: -6.921e-04  t[s]:  10188.28
	Linear fluid (dielectric constant: 78.4, screening length: 8.12261 Bohr) occupying 0.557025 of unit cell:	Completed after 2 iterations at t[s]:  10226.40
	Linear fluid (dielectric constant: 78.4, screening length: 8.12261 Bohr) occupying 0.557025 of unit cell:	Completed after 0 iterations at t[s]:  10254.99
	FillingsUpdate:  mu: -0.171300000  nElectrons: 379.623487  magneticMoment: [ Abs: 0.00000  Tot: -0.00000 ]
	SubspaceRotationAdjust: set factor to 0.0583
ElecMinimize: Iter:  12  G: -2887.136597782554873  |grad|_K:  7.468e-09  alpha:  3.718e-01  linmin: -7.602e-03  t[s]:  10299.98
ElecMinimize: Converged (|Delta G|<1.000000e-07 for 2 iters).
Setting wave functions to eigenvectors of Hamiltonian
Converging empty states (this may take a while): |deigs|: 2.045e-08

Computing DFT-D3 correction:
# coordination-number Ag 6.912 9.166 9.198 9.211 9.213 9.204 9.179 8.410 6.134 4.636 8.410 9.179 9.204 9.213 9.211 9.198 9.166 6.912 4.636 6.134
# diagonal-C6 Ag 268.61 268.61 268.61 268.61 268.61 268.61 268.61 268.61 268.61 268.61 268.61 268.61 268.61 268.61 268.61 268.61 268.61 268.61 268.61 268.61
EvdW_6 =   -0.125715
EvdW_8 =   -0.172978
IonicMinimize: 	Wolfe criterion not satisfied: alpha: 1  (E-E0)/|gdotd0|: -0.981833  gdotd/gdotd0: 0.961818 (taking cubic step)

Computing DFT-D3 correction:
# coordination-number Ag 6.912 9.153 9.186 9.214 9.219 9.195 9.172 8.398 6.131 4.653 8.398 9.172 9.195 9.219 9.214 9.186 9.153 6.912 4.653 6.132
# diagonal-C6 Ag 268.61 268.61 268.61 268.61 268.61 268.61 268.61 268.61 268.61 268.61 268.61 268.61 268.61 268.61 268.61 268.61 268.61 268.61 268.61 268.61
EvdW_6 =   -0.125689
EvdW_8 =   -0.172939
Shifting auxilliary hamiltonian by -0.000022 to set nElectrons=379.623487

-------- Electronic minimization -----------
	Linear fluid (dielectric constant: 78.4, screening length: 8.12261 Bohr) occupying 0.557059 of unit cell:	Completed after 12 iterations at t[s]:  10457.27
	FillingsUpdate:  mu: -0.171300000  nElectrons: 379.623487  magneticMoment: [ Abs: 0.00000  Tot: -0.00000 ]
ElecMinimize: Iter:   0  G: -2887.136750589533676  |grad|_K:  2.065e-07  alpha:  1.000e+00
	Linear fluid (dielectric constant: 78.4, screening length: 8.12261 Bohr) occupying 0.557059 of unit cell:	Completed after 11 iterations at t[s]:  10547.41
	Linear fluid (dielectric constant: 78.4, screening length: 8.12261 Bohr) occupying 0.557059 of unit cell:	Completed after 9 iterations at t[s]:  10577.01
	FillingsUpdate:  mu: -0.171300000  nElectrons: 379.624376  magneticMoment: [ Abs: 0.00000  Tot: -0.00000 ]
	SubspaceRotationAdjust: set factor to 0.0805
ElecMinimize: Iter:   1  G: -2887.136764274440338  |grad|_K:  1.667e-07  alpha:  5.387e-01  linmin:  2.620e-05  t[s]:  10622.21
	Linear fluid (dielectric constant: 78.4, screening length: 8.12261 Bohr) occupying 0.557059 of unit cell:	Completed after 7 iterations at t[s]:  10661.04
	Linear fluid (dielectric constant: 78.4, screening length: 8.12261 Bohr) occupying 0.557059 of unit cell:	Completed after 2 iterations at t[s]:  10690.41
	FillingsUpdate:  mu: -0.171300000  nElectrons: 379.624118  magneticMoment: [ Abs: 0.00000  Tot: -0.00000 ]
	SubspaceRotationAdjust: set factor to 0.0992
ElecMinimize: Iter:   2  G: -2887.136773869650369  |grad|_K:  2.009e-07  alpha:  5.807e-01  linmin: -1.694e-05  t[s]:  10735.68
	Linear fluid (dielectric constant: 78.4, screening length: 8.12261 Bohr) occupying 0.557058 of unit cell:	Completed after 3 iterations at t[s]:  10773.76
	Linear fluid (dielectric constant: 78.4, screening length: 8.12261 Bohr) occupying 0.557058 of unit cell:	Completed after 2 iterations at t[s]:  10802.90
	FillingsUpdate:  mu: -0.171300000  nElectrons: 379.624493  magneticMoment: [ Abs: 0.00000  Tot: +0.00000 ]
	SubspaceRotationAdjust: set factor to 0.117
ElecMinimize: Iter:   3  G: -2887.136792643835633  |grad|_K:  2.371e-07  alpha:  7.820e-01  linmin: -2.187e-06  t[s]:  10848.12
	Linear fluid (dielectric constant: 78.4, screening length: 8.12261 Bohr) occupying 0.557059 of unit cell:	Completed after 10 iterations at t[s]:  10887.12
	Linear fluid (dielectric constant: 78.4, screening length: 8.12261 Bohr) occupying 0.557059 of unit cell:	Completed after 0 iterations at t[s]:  10915.62
	FillingsUpdate:  mu: -0.171300000  nElectrons: 379.625740  magneticMoment: [ Abs: 0.00000  Tot: +0.00000 ]
	SubspaceRotationAdjust: set factor to 0.126
ElecMinimize: Iter:   4  G: -2887.136818775459687  |grad|_K:  2.610e-07  alpha:  7.814e-01  linmin: -4.220e-06  t[s]:  10960.94
	Linear fluid (dielectric constant: 78.4, screening length: 8.12261 Bohr) occupying 0.557059 of unit cell:	Completed after 12 iterations at t[s]:  11000.39
	Linear fluid (dielectric constant: 78.4, screening length: 8.12261 Bohr) occupying 0.557059 of unit cell:	Completed after 10 iterations at t[s]:  11030.19
	FillingsUpdate:  mu: -0.171300000  nElectrons: 379.622601  magneticMoment: [ Abs: 0.00000  Tot: +0.00000 ]
	SubspaceRotationAdjust: set factor to 0.115
ElecMinimize: Iter:   5  G: -2887.136837344867217  |grad|_K:  2.617e-07  alpha:  4.582e-01  linmin:  2.178e-07  t[s]:  11075.37
	Linear fluid (dielectric constant: 78.4, screening length: 8.12261 Bohr) occupying 0.557058 of unit cell:	Completed after 13 iterations at t[s]:  11114.86
	Linear fluid (dielectric constant: 78.4, screening length: 8.12261 Bohr) occupying 0.557059 of unit cell:	Completed after 11 iterations at t[s]:  11145.02
	FillingsUpdate:  mu: -0.171300000  nElectrons: 379.626571  magneticMoment: [ Abs: 0.00000  Tot: +0.00000 ]
	SubspaceRotationAdjust: set factor to 0.0769
ElecMinimize: Iter:   6  G: -2887.136846662685002  |grad|_K:  2.142e-07  alpha:  2.287e-01  linmin:  2.717e-06  t[s]:  11190.21
	Linear fluid (dielectric constant: 78.4, screening length: 8.12261 Bohr) occupying 0.557057 of unit cell:	Completed after 11 iterations at t[s]:  11229.43
	Linear fluid (dielectric constant: 78.4, screening length: 8.12261 Bohr) occupying 0.557056 of unit cell:	Completed after 7 iterations at t[s]:  11259.00
	FillingsUpdate:  mu: -0.171300000  nElectrons: 379.624367  magneticMoment: [ Abs: 0.00000  Tot: +0.00000 ]
	SubspaceRotationAdjust: set factor to 0.073
ElecMinimize: Iter:   7  G: -2887.136855090758672  |grad|_K:  1.277e-07  alpha:  3.091e-01  linmin:  8.034e-06  t[s]:  11304.17
	Linear fluid (dielectric constant: 78.4, screening length: 8.12261 Bohr) occupying 0.557054 of unit cell:	Completed after 7 iterations at t[s]:  11342.84
	Linear fluid (dielectric constant: 78.4, screening length: 8.12261 Bohr) occupying 0.557054 of unit cell:	Completed after 2 iterations at t[s]:  11371.81
	FillingsUpdate:  mu: -0.171300000  nElectrons: 379.623623  magneticMoment: [ Abs: 0.00000  Tot: +0.00000 ]
	SubspaceRotationAdjust: set factor to 0.0749
ElecMinimize: Iter:   8  G: -2887.136858884667163  |grad|_K:  9.236e-08  alpha:  3.913e-01  linmin: -5.534e-05  t[s]:  11417.33
	Linear fluid (dielectric constant: 78.4, screening length: 8.12261 Bohr) occupying 0.557052 of unit cell:	Completed after 10 iterations at t[s]:  11456.35
	Linear fluid (dielectric constant: 78.4, screening length: 8.12261 Bohr) occupying 0.557052 of unit cell:	Completed after 2 iterations at t[s]:  11485.15
	FillingsUpdate:  mu: -0.171300000  nElectrons: 379.624497  magneticMoment: [ Abs: 0.00000  Tot: +0.00000 ]
	SubspaceRotationAdjust: set factor to 0.0618
ElecMinimize: Iter:   9  G: -2887.136860556918691  |grad|_K:  5.969e-08  alpha:  3.271e-01  linmin:  7.128e-04  t[s]:  11530.53
	Linear fluid (dielectric constant: 78.4, screening length: 8.12261 Bohr) occupying 0.557051 of unit cell:	Completed after 10 iterations at t[s]:  11569.59
	Linear fluid (dielectric constant: 78.4, screening length: 8.12261 Bohr) occupying 0.557051 of unit cell:	Completed after 0 iterations at t[s]:  11598.26
	FillingsUpdate:  mu: -0.171300000  nElectrons: 379.623909  magneticMoment: [ Abs: 0.00000  Tot: +0.00000 ]
	SubspaceRotationAdjust: set factor to 0.0512
ElecMinimize: Iter:  10  G: -2887.136861216648413  |grad|_K:  4.097e-08  alpha:  3.187e-01  linmin: -1.253e-03  t[s]:  11643.45
	Linear fluid (dielectric constant: 78.4, screening length: 8.12261 Bohr) occupying 0.557050 of unit cell:	Completed after 6 iterations at t[s]:  11682.11
	Linear fluid (dielectric constant: 78.4, screening length: 8.12261 Bohr) occupying 0.557050 of unit cell:	Completed after 0 iterations at t[s]:  11710.75
	FillingsUpdate:  mu: -0.171300000  nElectrons: 379.624202  magneticMoment: [ Abs: 0.00000  Tot: +0.00000 ]
	SubspaceRotationAdjust: set factor to 0.063
ElecMinimize: Iter:  11  G: -2887.136861567561937  |grad|_K:  2.626e-08  alpha:  3.425e-01  linmin: -1.575e-03  t[s]:  11755.95
	Linear fluid (dielectric constant: 78.4, screening length: 8.12261 Bohr) occupying 0.557050 of unit cell:	Completed after 6 iterations at t[s]:  11794.84
	Linear fluid (dielectric constant: 78.4, screening length: 8.12261 Bohr) occupying 0.557050 of unit cell:	Completed after 0 iterations at t[s]:  11823.38
	FillingsUpdate:  mu: -0.171300000  nElectrons: 379.624478  magneticMoment: [ Abs: 0.00000  Tot: +0.00000 ]
	SubspaceRotationAdjust: set factor to 0.072
ElecMinimize: Iter:  12  G: -2887.136861732905800  |grad|_K:  1.946e-08  alpha:  3.950e-01  linmin: -3.039e-03  t[s]:  11868.58
	Linear fluid (dielectric constant: 78.4, screening length: 8.12261 Bohr) occupying 0.557050 of unit cell:	Completed after 2 iterations at t[s]:  11906.62
	Linear fluid (dielectric constant: 78.4, screening length: 8.12261 Bohr) occupying 0.557050 of unit cell:	Completed after 0 iterations at t[s]:  11935.13
	FillingsUpdate:  mu: -0.171300000  nElectrons: 379.624270  magneticMoment: [ Abs: 0.00000  Tot: +0.00000 ]
	SubspaceRotationAdjust: set factor to 0.0958
ElecMinimize: Iter:  13  G: -2887.136861839536323  |grad|_K:  1.795e-08  alpha:  4.558e-01  linmin: -1.236e-03  t[s]:  11980.42
	Linear fluid (dielectric constant: 78.4, screening length: 8.12261 Bohr) occupying 0.557050 of unit cell:	Completed after 6 iterations at t[s]:  12019.11
	Linear fluid (dielectric constant: 78.4, screening length: 8.12261 Bohr) occupying 0.557050 of unit cell:	Completed after 2 iterations at t[s]:  12047.98
	FillingsUpdate:  mu: -0.171300000  nElectrons: 379.624098  magneticMoment: [ Abs: 0.00000  Tot: +0.00000 ]
	SubspaceRotationAdjust: set factor to 0.0677
ElecMinimize: Iter:  14  G: -2887.136861893315654  |grad|_K:  2.544e-08  alpha:  3.090e-01  linmin: -8.965e-04  t[s]:  12093.18
	Linear fluid (dielectric constant: 78.4, screening length: 8.12261 Bohr) occupying 0.557050 of unit cell:	Completed after 7 iterations at t[s]:  12132.06
	Linear fluid (dielectric constant: 78.4, screening length: 8.12261 Bohr) occupying 0.557050 of unit cell:	Completed after 2 iterations at t[s]:  12161.28
	FillingsUpdate:  mu: -0.171300000  nElectrons: 379.624347  magneticMoment: [ Abs: 0.00000  Tot: +0.00000 ]
	SubspaceRotationAdjust: set factor to 0.0761
ElecMinimize: Iter:  15  G: -2887.136861964766013  |grad|_K:  2.077e-08  alpha:  1.786e-01  linmin:  7.692e-04  t[s]:  12206.31
ElecMinimize: Converged (|Delta G|<1.000000e-07 for 2 iters).
Setting wave functions to eigenvectors of Hamiltonian
Converging empty states (this may take a while): |deigs|: 1.426e-08

Computing DFT-D3 correction:
# coordination-number Ag 6.912 9.153 9.186 9.214 9.219 9.195 9.172 8.398 6.131 4.653 8.398 9.172 9.195 9.219 9.214 9.186 9.153 6.912 4.653 6.132
# diagonal-C6 Ag 268.61 268.61 268.61 268.61 268.61 268.61 268.61 268.61 268.61 268.61 268.61 268.61 268.61 268.61 268.61 268.61 268.61 268.61 268.61 268.61
EvdW_6 =   -0.125689
EvdW_8 =   -0.172939

# Ionic positions in cartesian coordinates:
ion Ag   0.000002386853056   4.847827931051397  21.222512936096855 1
ion Ag  -0.000003440084421   9.695047832123688  18.790731177210539 1
ion Ag   0.000000838879351   2.423417876632830  16.357645526670019 1
ion Ag  -0.000006922174826   7.274014913165095  13.940324557619585 1
ion Ag   0.000001137431306  12.119464145462823  11.512515507237188 1
ion Ag   0.000013429059198   4.848640962410084   9.095353975928047 1
ion Ag  -0.000007491284990   9.697473260348477   6.668243098474218 1
ion Ag  -0.000003988866326   2.415601868642328   4.227110624940691 1
ion Ag   0.000004249402401   7.279944974882490   1.814227757270706 1
ion Ag  -0.000015068401086  -0.000053057507528  23.626389360567824 1
ion Ag   3.832834984914798   1.220637977204249  20.013832102456483 1
ion Ag   3.832840483154168   6.058962796622733  17.572775120118944 1
ion Ag   3.832819756498837  10.908243276130616  15.145604237039654 1
ion Ag   3.832834177743061   3.636978996754292  12.728435171743399 1
ion Ag   3.832841100807081   8.482708236608802  10.300689130935316 1
ion Ag   3.832830707259582   1.212821364045634   7.883305247291201 1
ion Ag   3.832833403737882   6.061402209314842   5.450222093358728 1
ion Ag   3.832834343263197  10.909080479936087   3.018502637217273 1
ion Ag   3.832851735546959   3.635789338980321   0.614559705295086 1
ion Ag   3.832834176260769   8.476854617190737  22.426718032528260 1

# Forces in Cartesian coordinates:
force Ag   0.000000869835632   0.000024088621354   0.003474359260716 1
force Ag  -0.000000828389658  -0.000293745260886   0.001108847223533 1
force Ag   0.000000576545625  -0.000321041489390  -0.001045206135896 1
force Ag  -0.000001661883468   0.000586049498782   0.000630121567824 1
force Ag   0.000000094641201  -0.000310794665177  -0.000574781784290 1
force Ag   0.000003904355804   0.000039224203812   0.001002000120266 1
force Ag  -0.000001834231499   0.000324152978361   0.000355258429009 1
force Ag  -0.000000261313851  -0.002431046844483  -0.004207598189672 1
force Ag   0.000001902760111   0.002355170434384  -0.001247524003966 1
force Ag  -0.000005712498670  -0.000186517116545  -0.002251046439133 1
force Ag   0.000000354789445   0.002474192359127   0.004207322877741 1
force Ag   0.000001902058209  -0.000378297104971  -0.000361787476822 1
force Ag  -0.000003752269705   0.000023342075511  -0.000993532397574 1
force Ag   0.000000380831903   0.000259979035991   0.000568497029237 1
force Ag   0.000002098227877  -0.000561729012292  -0.000631520871753 1
[...]
Setting wave functions to eigenvectors of Hamiltonian
Converging empty states (this may take a while): |deigs|: 6.851e-07

Computing DFT-D3 correction:
# coordination-number Ag 6.791 8.928 8.899 9.000 9.011 8.924 8.950 8.165 6.100 4.786 8.163 8.951 8.926 9.009 8.999 8.899 8.929 6.790 4.786 6.096
# diagonal-C6 Ag 268.61 268.61 268.61 268.61 268.61 268.61 268.61 268.61 268.61 268.61 268.61 268.61 268.61 268.61 268.61 268.61 268.61 268.61 268.61 268.61
EvdW_6 =   -0.124064
EvdW_8 =   -0.170808

# Ionic positions in cartesian coordinates:
ion Ag  -0.000744899974111   4.735915310858416  21.436320740347490 1
ion Ag  -0.000811591385530   9.591864450997383  18.884794020233663 1
ion Ag  -0.000806369153829   2.352681460057454  16.421414280179448 1
ion Ag  -0.000818020831957   7.258022825756695  13.981621376162193 1
ion Ag  -0.000814984719941  12.123113730127184  11.496838670557686 1
ion Ag  -0.000577368614963   4.887654485674598   9.051051414622135 1
ion Ag  -0.000290873332785   9.795354727263325   6.597791979562187 1
ion Ag   0.000077813026503   2.459068301748142   4.035990413097793 1
ion Ag   0.000374597365958   7.473383628867657   1.679410749574863 1
ion Ag  -0.001082202751527  -0.198813718109229  23.674001205124899 1
ion Ag   3.832694025017453   1.176717397166489  20.204046586638331 1
ion Ag   3.833202630121814   5.966037835841516  17.644597847800846 1
ion Ag   3.833442642846551  10.869863431139171  15.188951004468770 1
ion Ag   3.833720813951369   3.632269356341152  12.743672736586197 1
ion Ag   3.833776191070410   8.499474635812950  10.260010573630366 1
ion Ag   3.833696820620419   1.288194933052377   7.819913051864702 1
ion Ag   3.833610957437499   6.167194723940256   5.355534202544367 1
ion Ag   3.833540136632538  11.017461817742417   2.803057760002566 1
ion Ag   3.833707608456867   3.829638683272702   0.566755604095751 1
ion Ag   3.832442074217257   8.279761982449340  22.563923782905793 1

# Forces in Cartesian coordinates:
force Ag   0.000050544229207  -0.000021426362244  -0.000097235954810 1
force Ag   0.000077418551995   0.000186451832094  -0.000013659226314 1
force Ag   0.000109877876656  -0.000116142048657   0.000362647333413 1
force Ag   0.000134581745830   0.000069716118936  -0.000097928923404 1
force Ag   0.000139598702351  -0.000175279511054   0.000020296420989 1
force Ag   0.000129913932443   0.000166163822916  -0.000256007526366 1
force Ag   0.000091336759820   0.000074307203996  -0.000143560176582 1
force Ag   0.000060829292071  -0.000049001361614   0.000392323689952 1
force Ag   0.000031561228325  -0.000066544928017   0.000047653055819 1
force Ag   0.000033965704121  -0.000025580062072   0.000164111462559 1
force Ag  -0.000063265656882  -0.000065792486821  -0.000362536988864 1
force Ag  -0.000091832011916  -0.000136178757958   0.000099668724709 1
force Ag  -0.000127168589613   0.000008254501804   0.000310174926196 1
force Ag  -0.000138294752225   0.000240854974048   0.000048377379606 1
force Ag  -0.000137951564794  -0.000153030816508  -0.000011813639709 1
force Ag  -0.000113110361405   0.000003518561858  -0.000451086686501 1
force Ag  -0.000074443956087  -0.000163548004368   0.000082045875068 1
force Ag  -0.000048830057891   0.000072552141567   0.000191470994397 1
force Ag  -0.000027651233479  -0.000056056580086  -0.000140094417561 1
force Ag  -0.000036493385605   0.000038529814242  -0.000063551533542 1

# Energy components:
   A_diel =        0.0608704647599854
   Eewald =    23845.5813323408729048
       EH =    26494.0027400384533394
     Eloc =   -53755.6428067285523866
      Enl =       78.9573292769713788
     EvdW =       -0.2948719821031550
      Exc =     -289.7207301140155096
 Exc_core =        4.1634154501105707
       KE =      670.7022567042024548
  MuShift =        0.0201802169809970
-------------------------------------
     Etot =    -2952.1702843323232628
       TS =        0.0005323736362111
-------------------------------------
        F =    -2952.1708167059596235
      muN =      -65.0320499977597279
-------------------------------------
        G =    -2887.1387667081999098


Dumping 'jdft.fillings' ... done
Dumping 'jdft.wfns' ... done
Dumping 'jdft.fluidState' ... done
Dumping 'jdft.ionpos' ... done
Dumping 'jdft.lattice' ... done
Dumping 'jdft.eigenvals' ... done
Dumping 'jdft.eigStats' ... 
	eMin: -3.554542 at state 45 ( [ +0.000000 +0.000000 +0.000000 ] spin -1 )
	HOMO: -0.171321 at state 54 ( [ +0.111111 -0.200000 +0.000000 ] spin -1 )
	mu  : -0.171300
	LUMO: -0.170295 at state 78 ( [ -0.333333 -0.400000 +0.000000 ] spin -1 )
	eMax: +0.145052 at state 55 ( [ +0.222222 +0.000000 +0.000000 ] spin -1 )
	HOMO-LUMO gap: +0.001026
	Optical gap  : +0.011252 at state 29 ( [ -0.444444 -0.200000 +0.000000 ] spin 1 )
Dumping 'jdft.Ecomponents' ... done
IonicMinimize: Iter:  13  G: -2887.138766708199910  |grad|_K:  1.513e-04  alpha:  2.361e-01  linmin:  1.389e-01  t[s]:  63930.98

#--- Lowdin population analysis ---
# oxidation-state Ag +0.024 -0.042 +0.003 -0.001 +0.005 +0.002 -0.020 -0.054 +0.078 +0.240 -0.054 -0.020 +0.001 +0.005 -0.001 +0.003 -0.042 +0.024 +0.240 +0.078
# magnetic-moments Ag +0.000 +0.000 +0.000 +0.000 +0.000 +0.000 +0.000 +0.000 +0.000 +0.000 +0.000 +0.000 +0.000 +0.000 +0.000 +0.000 +0.000 +0.000 +0.000 +0.000


Computing DFT-D3 correction:
# coordination-number Ag 6.796 8.934 8.905 8.995 8.999 8.926 8.959 8.177 6.100 4.785 8.175 8.956 8.924 9.000 8.997 8.906 8.936 6.797 4.785 6.097
# diagonal-C6 Ag 268.61 268.61 268.61 268.61 268.61 268.61 268.61 268.61 268.61 268.61 268.61 268.61 268.61 268.61 268.61 268.61 268.61 268.61 268.61 268.61
EvdW_6 =   -0.124072
EvdW_8 =   -0.170817
Shifting auxilliary hamiltonian by -0.000019 to set nElectrons=379.638354

-------- Electronic minimization -----------
	Linear fluid (dielectric constant: 78.4, screening length: 8.12261 Bohr) occupying 0.554346 of unit cell:	Completed after 8 iterations at t[s]:  63974.10
	FillingsUpdate:  mu: -0.171300000  nElectrons: 379.638354  magneticMoment: [ Abs: 0.00000  Tot: +0.00000 ]
ElecMinimize: Iter:   0  G: -2887.138744306633726  |grad|_K:  1.356e-07  alpha:  1.000e+00
	Linear fluid (dielectric constant: 78.4, screening length: 8.12261 Bohr) occupying 0.554344 of unit cell:	Completed after 11 iterations at t[s]:  64064.08
	Linear fluid (dielectric constant: 78.4, screening length: 8.12261 Bohr) occupying 0.554346 of unit cell:	Completed after 11 iterations at t[s]:  64094.22
	FillingsUpdate:  mu: -0.171300000  nElectrons: 379.640235  magneticMoment: [ Abs: 0.00000  Tot: +0.00000 ]
	SubspaceRotationAdjust: set factor to 0.0536
ElecMinimize: Iter:   1  G: -2887.138748063805906  |grad|_K:  9.836e-08  alpha:  3.390e-01  linmin: -2.914e-04  t[s]:  64139.29
	Linear fluid (dielectric constant: 78.4, screening length: 8.12261 Bohr) occupying 0.554344 of unit cell:	Completed after 11 iterations at t[s]:  64178.32
	Linear fluid (dielectric constant: 78.4, screening length: 8.12261 Bohr) occupying 0.554343 of unit cell:	Completed after 7 iterations at t[s]:  64208.02
	FillingsUpdate:  mu: -0.171300000  nElectrons: 379.638423  magneticMoment: [ Abs: 0.00000  Tot: +0.00000 ]
	SubspaceRotationAdjust: set factor to 0.0576
ElecMinimize: Iter:   2  G: -2887.138750710002114  |grad|_K:  7.967e-08  alpha:  4.594e-01  linmin:  1.363e-04  t[s]:  64253.31
	Linear fluid (dielectric constant: 78.4, screening length: 8.12261 Bohr) occupying 0.554341 of unit cell:	Completed after 5 iterations at t[s]:  64291.78
	Linear fluid (dielectric constant: 78.4, screening length: 8.12261 Bohr) occupying 0.554339 of unit cell:	Completed after 6 iterations at t[s]:  64321.53
	FillingsUpdate:  mu: -0.171300000  nElectrons: 379.638364  magneticMoment: [ Abs: 0.00000  Tot: +0.00000 ]
	SubspaceRotationAdjust: set factor to 0.0685
ElecMinimize: Iter:   3  G: -2887.138754123094714  |grad|_K:  9.127e-08  alpha:  9.020e-01  linmin: -1.678e-04  t[s]:  64366.98
	Linear fluid (dielectric constant: 78.4, screening length: 8.12261 Bohr) occupying 0.554335 of unit cell:	Completed after 6 iterations at t[s]:  64405.44
	Linear fluid (dielectric constant: 78.4, screening length: 8.12261 Bohr) occupying 0.554335 of unit cell:	Completed after 2 iterations at t[s]:  64434.45
	FillingsUpdate:  mu: -0.171300000  nElectrons: 379.638299  magneticMoment: [ Abs: 0.00000  Tot: +0.00000 ]
	SubspaceRotationAdjust: set factor to 0.0748
ElecMinimize: Iter:   4  G: -2887.138758052801677  |grad|_K:  1.150e-07  alpha:  7.868e-01  linmin:  6.662e-06  t[s]:  64479.97
	Linear fluid (dielectric constant: 78.4, screening length: 8.12261 Bohr) occupying 0.554332 of unit cell:	Completed after 10 iterations at t[s]:  64519.07
	Linear fluid (dielectric constant: 78.4, screening length: 8.12261 Bohr) occupying 0.554333 of unit cell:	Completed after 7 iterations at t[s]:  64548.71
	FillingsUpdate:  mu: -0.171300000  nElectrons: 379.637284  magneticMoment: [ Abs: 0.00000  Tot: +0.00000 ]
	SubspaceRotationAdjust: set factor to 0.0771
ElecMinimize: Iter:   5  G: -2887.138762514051450  |grad|_K:  1.094e-07  alpha:  5.672e-01  linmin:  1.545e-05  t[s]:  64594.09
	Linear fluid (dielectric constant: 78.4, screening length: 8.12261 Bohr) occupying 0.554334 of unit cell:	Completed after 10 iterations at t[s]:  64633.25
	Linear fluid (dielectric constant: 78.4, screening length: 8.12261 Bohr) occupying 0.554334 of unit cell:	Completed after 0 iterations at t[s]:  64662.10
	FillingsUpdate:  mu: -0.171300000  nElectrons: 379.638255  magneticMoment: [ Abs: 0.00000  Tot: +0.00000 ]
	SubspaceRotationAdjust: set factor to 0.072
ElecMinimize: Iter:   6  G: -2887.138766549701813  |grad|_K:  9.272e-08  alpha:  5.680e-01  linmin: -9.153e-06  t[s]:  64708.51
	Linear fluid (dielectric constant: 78.4, screening length: 8.12261 Bohr) occupying 0.554335 of unit cell:	Completed after 11 iterations at t[s]:  64747.69
	Linear fluid (dielectric constant: 78.4, screening length: 8.12261 Bohr) occupying 0.554335 of unit cell:	Completed after 7 iterations at t[s]:  64777.37
	FillingsUpdate:  mu: -0.171300000  nElectrons: 379.637164  magneticMoment: [ Abs: 0.00000  Tot: +0.00000 ]
	SubspaceRotationAdjust: set factor to 0.0585
ElecMinimize: Iter:   7  G: -2887.138768601872471  |grad|_K:  7.121e-08  alpha:  4.010e-01  linmin:  3.480e-05  t[s]:  64822.54
	Linear fluid (dielectric constant: 78.4, screening length: 8.12261 Bohr) occupying 0.554336 of unit cell:	Completed after 10 iterations at t[s]:  64861.52
	Linear fluid (dielectric constant: 78.4, screening length: 8.12261 Bohr) occupying 0.554336 of unit cell:	Completed after 0 iterations at t[s]:  64890.35
	FillingsUpdate:  mu: -0.171300000  nElectrons: 379.638119  magneticMoment: [ Abs: 0.00000  Tot: +0.00000 ]
	SubspaceRotationAdjust: set factor to 0.0464
ElecMinimize: Iter:   8  G: -2887.138769740267435  |grad|_K:  4.939e-08  alpha:  3.783e-01  linmin:  2.084e-04  t[s]:  64935.59
	Linear fluid (dielectric constant: 78.4, screening length: 8.12261 Bohr) occupying 0.554335 of unit cell:	Completed after 6 iterations at t[s]:  64974.21
	Linear fluid (dielectric constant: 78.4, screening length: 8.12261 Bohr) occupying 0.554335 of unit cell:	Completed after 0 iterations at t[s]:  65002.93
	FillingsUpdate:  mu: -0.171300000  nElectrons: 379.637956  magneticMoment: [ Abs: 0.00000  Tot: +0.00000 ]
	SubspaceRotationAdjust: set factor to 0.0485
ElecMinimize: Iter:   9  G: -2887.138770252246104  |grad|_K:  3.060e-08  alpha:  3.582e-01  linmin: -1.917e-04  t[s]:  65048.20
	Linear fluid (dielectric constant: 78.4, screening length: 8.12261 Bohr) occupying 0.554334 of unit cell:	Completed after 2 iterations at t[s]:  65086.38
	Linear fluid (dielectric constant: 78.4, screening length: 8.12261 Bohr) occupying 0.554334 of unit cell:	Completed after 0 iterations at t[s]:  65115.12
	FillingsUpdate:  mu: -0.171300000  nElectrons: 379.637948  magneticMoment: [ Abs: 0.00000  Tot: +0.00000 ]
	SubspaceRotationAdjust: set factor to 0.0523
ElecMinimize: Iter:  10  G: -2887.138770494339042  |grad|_K:  1.835e-08  alpha:  4.299e-01  linmin: -7.968e-04  t[s]:  65160.34
	Linear fluid (dielectric constant: 78.4, screening length: 8.12261 Bohr) occupying 0.554333 of unit cell:	Completed after 0 iterations at t[s]:  65198.07
	Linear fluid (dielectric constant: 78.4, screening length: 8.12261 Bohr) occupying 0.554333 of unit cell:	Completed after 1 iterations at t[s]:  65226.91
	FillingsUpdate:  mu: -0.171300000  nElectrons: 379.638067  magneticMoment: [ Abs: 0.00000  Tot: +0.00000 ]
	SubspaceRotationAdjust: set factor to 0.0604
ElecMinimize: Iter:  11  G: -2887.138770594918697  |grad|_K:  1.298e-08  alpha:  5.068e-01  linmin:  1.237e-03  t[s]:  65272.11
	Linear fluid (dielectric constant: 78.4, screening length: 8.12261 Bohr) occupying 0.554332 of unit cell:	Completed after 1 iterations at t[s]:  65310.03
	Linear fluid (dielectric constant: 78.4, screening length: 8.12261 Bohr) occupying 0.554332 of unit cell:	Completed after 0 iterations at t[s]:  65338.71
	FillingsUpdate:  mu: -0.171300000  nElectrons: 379.638209  magneticMoment: [ Abs: 0.00000  Tot: +0.00000 ]
	SubspaceRotationAdjust: set factor to 0.0737
ElecMinimize: Iter:  12  G: -2887.138770640272014  |grad|_K:  9.888e-09  alpha:  4.632e-01  linmin: -2.461e-04  t[s]:  65384.15
	Linear fluid (dielectric constant: 78.4, screening length: 8.12261 Bohr) occupying 0.554331 of unit cell:	Completed after 2 iterations at t[s]:  65422.39
	Linear fluid (dielectric constant: 78.4, screening length: 8.12261 Bohr) occupying 0.554331 of unit cell:	Completed after 0 iterations at t[s]:  65451.00
	FillingsUpdate:  mu: -0.171300000  nElectrons: 379.638352  magneticMoment: [ Abs: 0.00000  Tot: +0.00000 ]
	SubspaceRotationAdjust: set factor to 0.0914
ElecMinimize: Iter:  13  G: -2887.138770669181213  |grad|_K:  8.230e-09  alpha:  4.909e-01  linmin: -5.326e-04  t[s]:  65496.25
ElecMinimize: Converged (|Delta G|<1.000000e-07 for 2 iters).
Setting wave functions to eigenvectors of Hamiltonian
Converging empty states (this may take a while): |deigs|: 8.700e-09

Computing DFT-D3 correction:
# coordination-number Ag 6.796 8.934 8.905 8.995 8.999 8.926 8.959 8.177 6.100 4.785 8.175 8.956 8.924 9.000 8.997 8.906 8.936 6.797 4.785 6.097
# diagonal-C6 Ag 268.61 268.61 268.61 268.61 268.61 268.61 268.61 268.61 268.61 268.61 268.61 268.61 268.61 268.61 268.61 268.61 268.61 268.61 268.61 268.61
EvdW_6 =   -0.124072
EvdW_8 =   -0.170817

# Ionic positions in cartesian coordinates:
ion Ag  -0.000136036512475   4.736516959418044  21.434450582441940 1
ion Ag   0.000147675835132   9.593819985668890  18.885101270600014 1
ion Ag   0.000571084844558   2.352985768010580  16.424276373455108 1
ion Ag   0.000803728143671   7.258312475567292  13.981702642542883 1
ion Ag   0.000870599394771  12.121922544219036  11.495123810624566 1
ion Ag   0.001023221296965   4.888579457675126   9.047944137091006 1
ion Ag   0.000816262957330   9.794579917483144   6.596431862937191 1
ion Ag   0.000811129896092   2.456628543244673   4.039822029457407 1
ion Ag   0.000764688397553   7.470432854461838   1.680130437046028 1
ion Ag  -0.000630142773269  -0.198235525645102  23.673481131293130 1
ion Ag   3.831916711420919   1.178412094319260  20.200852522156730 1
ion Ag   3.832062737049086   5.965686093103103  17.645341109669122 1
ion Ag   3.831883843086796  10.871135412822863  15.192489300076341 1
ion Ag   3.832042881274876   3.634525067882975  12.745295256562123 1
ion Ag   3.832085974981822   8.498709063719685  10.258254869838730 1
ion Ag   3.832317900222246   1.287062874700670   7.816446744647004 1
ion Ag   3.832686433078087   6.165082992308466   5.356265470102565 1
ion Ag   3.832892963859770  11.017585914278644   2.806286168345260 1
ion Ag   3.833351347005302   3.829292782643403   0.567411300775926 1
ion Ag   3.832056996540764   8.281824724117406  22.562590980336967 1

# Forces in Cartesian coordinates:
force Ag  -0.000018905190579   0.000027138279517  -0.000035197793963 1
force Ag  -0.000036024206415   0.000026185153014  -0.000113022264058 1
force Ag  -0.000056593060892  -0.000102310136534   0.000034138773332 1
force Ag  -0.000063675149517   0.000123463190287  -0.000074157981437 1
force Ag  -0.000066805490766  -0.000003143429974   0.000132336372594 1
force Ag  -0.000064333092091   0.000047613290115  -0.000007877650978 1
force Ag  -0.000048468826175  -0.000017084353748  -0.000018396444074 1
force Ag  -0.000035616141963   0.000133936899478   0.000229146713663 1
force Ag  -0.000020636385882   0.000006468485860   0.000014004955542 1
force Ag  -0.000006845433514  -0.000050553451028   0.000098741680086 1
force Ag   0.000037418990000  -0.000171551844535  -0.000193668573254 1
force Ag   0.000048595100079   0.000020050835442  -0.000028026935253 1
force Ag   0.000062686761103  -0.000066081829723   0.000011206076668 1
force Ag   0.000066039556439   0.000019205454559  -0.000114893743171 1
force Ag   0.000064883904978  -0.000070211473495   0.000111027251149 1
force Ag   0.000055864481987   0.000074184769007  -0.000043931868572 1
force Ag   0.000036191387314  -0.000046644809303   0.000068945086110 1
force Ag   0.000018889838246  -0.000084338426441   0.000070737985410 1
force Ag   0.000007234289470  -0.000003349554672  -0.000066999674645 1
force Ag   0.000019149473986  -0.000014579155000  -0.000023947742302 1

# Energy components:
   A_diel =        0.0608652217887335
   Eewald =    23847.5897816188953584
       EH =    26496.0108520161484194
     Eloc =   -53759.6604669809894403
      Enl =       78.9575408982264548
     EvdW =       -0.2948890307211119
      Exc =     -289.7214688928074224
 Exc_core =        4.1634155421309718
       KE =      670.7039032128889176
  MuShift =        0.0201803191815239
-------------------------------------
     Etot =    -2952.1702860752570814
       TS =        0.0005342779446175
-------------------------------------
        F =    -2952.1708203532016341
      muN =      -65.0320496840206346
-------------------------------------
        G =    -2887.1387706691812127


Dumping 'jdft.fillings' ... done
Dumping 'jdft.wfns' ... done
Dumping 'jdft.fluidState' ... done
Dumping 'jdft.ionpos' ... done
Dumping 'jdft.lattice' ... done
Dumping 'jdft.eigenvals' ... done
Dumping 'jdft.eigStats' ... 
	eMin: -3.554490 at state 45 ( [ +0.000000 +0.000000 +0.000000 ] spin -1 )
	HOMO: -0.171338 at state 41 ( [ -0.111111 +0.200000 +0.000000 ] spin 1 )
	mu  : -0.171300
	LUMO: -0.170365 at state 17 ( [ +0.333333 +0.400000 +0.000000 ] spin 1 )
	eMax: +0.145072 at state 35 ( [ -0.222222 +0.000000 +0.000000 ] spin 1 )
	HOMO-LUMO gap: +0.000973
	Optical gap  : +0.011261 at state 71 ( [ -0.444444 +0.200000 +0.000000 ] spin -1 )
Dumping 'jdft.Ecomponents' ... done
IonicMinimize: Iter:  14  G: -2887.138770669181213  |grad|_K:  7.397e-05  alpha:  1.000e+00  linmin:  2.215e-02  t[s]:  65613.42
IonicMinimize: Converged (|grad|_K<1.000000e-04).

#--- Lowdin population analysis ---
# oxidation-state Ag +0.024 -0.042 +0.003 -0.001 +0.005 +0.002 -0.020 -0.054 +0.078 +0.240 -0.054 -0.020 +0.002 +0.005 -0.001 +0.003 -0.042 +0.024 +0.240 +0.078
# magnetic-moments Ag +0.000 +0.000 -0.000 -0.000 +0.000 +0.000 +0.000 +0.000 +0.000 +0.000 +0.000 +0.000 -0.000 -0.000 +0.000 -0.000 -0.000 +0.000 -0.000 +0.000


Dumping 'jdft.n_up' ... done
Dumping 'jdft.n_dn' ... done
Dumping 'jdft.tau_up' ... done
Dumping 'jdft.tau_dn' ... done
Dumping 'jdft.eigenvals' ... done
Dumping 'jdft.eigStats' ... 
	eMin: -3.554490 at state 45 ( [ +0.000000 +0.000000 +0.000000 ] spin -1 )
	HOMO: -0.171338 at state 41 ( [ -0.111111 +0.200000 +0.000000 ] spin 1 )
	mu  : -0.171300
	LUMO: -0.170365 at state 17 ( [ +0.333333 +0.400000 +0.000000 ] spin 1 )
	eMax: +0.145072 at state 35 ( [ -0.222222 +0.000000 +0.000000 ] spin 1 )
	HOMO-LUMO gap: +0.000973
	Optical gap  : +0.011261 at state 71 ( [ -0.444444 +0.200000 +0.000000 ] spin -1 )
Dumping 'jdft.kPts' ... done
Dumping 'jdft.dosUp' ... done.
Dumping 'jdft.dosDn' ... done.
End date and time: Tue Dec  7 11:38:31 2021  (Duration: 0-18:14:41.88)
Done!
