
*************** JDFTx 1.6.0  ***************

Start date and time: Thu Feb 17 03:01:30 2022
Executable /projects/musgravc/apps/jdftx-1.6.1/build/jdftx with command-line: -i in
Running on hosts (process indices):  shas0851.rc.int.colorado.edu (0-23)
Divided in process groups (process indices):  0 (0)  1 (1)  2 (2)  3 (3)  4 (4)  5 (5)  6 (6)  7 (7)  8 (8)  9 (9)  10 (10)  11 (11)  12 (12)  13 (13)  14 (14)  15 (15)  16 (16)  17 (17)  18 (18)  19 (19)  20 (20)  21 (21)  22 (22)  23 (23)
Resource initialization completed at t[s]:      0.00
Run totals: 24 processes, 24 threads, 0 GPUs


Input parsed successfully to the following command list (including defaults):

basis kpoint-dependent
converge-empty-states yes
coords-type Cartesian
core-overlap-check none
coulomb-interaction Periodic
davidson-band-ratio 1.1
density-of-states Etol 1.000000e-06 Esigma 1.000000e-03 \
		Complete \
	Total \
	OrthoOrbital Pt 1   s \
	OrthoOrbital Pt 1   p \
	OrthoOrbital Pt 1   px \
	OrthoOrbital Pt 1   py \
	OrthoOrbital Pt 1   pz \
	OrthoOrbital Pt 1   d \
	OrthoOrbital Pt 1   dxy \
	OrthoOrbital Pt 1   dyz \
	OrthoOrbital Pt 1   dz2 \
	OrthoOrbital Pt 1   dxz \
	OrthoOrbital Pt 1   dx2-y2 \
	OrthoOrbital Pt 2   s \
	OrthoOrbital Pt 2   p \
	OrthoOrbital Pt 2   px \
	OrthoOrbital Pt 2   py \
	OrthoOrbital Pt 2   pz \
	OrthoOrbital Pt 2   d \
	OrthoOrbital Pt 2   dxy \
	OrthoOrbital Pt 2   dyz \
	OrthoOrbital Pt 2   dz2 \
	OrthoOrbital Pt 2   dxz \
	OrthoOrbital Pt 2   dx2-y2 \
	OrthoOrbital Pt 3   s \
	OrthoOrbital Pt 3   p \
	OrthoOrbital Pt 3   px \
	OrthoOrbital Pt 3   py \
	OrthoOrbital Pt 3   pz \
	OrthoOrbital Pt 3   d \
	OrthoOrbital Pt 3   dxy \
	OrthoOrbital Pt 3   dyz \
	OrthoOrbital Pt 3   dz2 \
	OrthoOrbital Pt 3   dxz \
	OrthoOrbital Pt 3   dx2-y2 \
	OrthoOrbital Pt 4   s \
	OrthoOrbital Pt 4   p \
	OrthoOrbital Pt 4   px \
	OrthoOrbital Pt 4   py \
	OrthoOrbital Pt 4   pz \
	OrthoOrbital Pt 4   d \
	OrthoOrbital Pt 4   dxy \
	OrthoOrbital Pt 4   dyz \
	OrthoOrbital Pt 4   dz2 \
	OrthoOrbital Pt 4   dxz \
	OrthoOrbital Pt 4   dx2-y2 \
	OrthoOrbital Pt 5   s \
	OrthoOrbital Pt 5   p \
	OrthoOrbital Pt 5   px \
	OrthoOrbital Pt 5   py \
	OrthoOrbital Pt 5   pz \
	OrthoOrbital Pt 5   d \
	OrthoOrbital Pt 5   dxy \
	OrthoOrbital Pt 5   dyz \
	OrthoOrbital Pt 5   dz2 \
	OrthoOrbital Pt 5   dxz \
	OrthoOrbital Pt 5   dx2-y2 \
	OrthoOrbital Pt 6   s \
	OrthoOrbital Pt 6   p \
	OrthoOrbital Pt 6   px \
	OrthoOrbital Pt 6   py \
	OrthoOrbital Pt 6   pz \
	OrthoOrbital Pt 6   d \
	OrthoOrbital Pt 6   dxy \
	OrthoOrbital Pt 6   dyz \
	OrthoOrbital Pt 6   dz2 \
	OrthoOrbital Pt 6   dxz \
	OrthoOrbital Pt 6   dx2-y2 \
	OrthoOrbital Pt 7   s \
	OrthoOrbital Pt 7   p \
	OrthoOrbital Pt 7   px \
	OrthoOrbital Pt 7   py \
	OrthoOrbital Pt 7   pz \
	OrthoOrbital Pt 7   d \
	OrthoOrbital Pt 7   dxy \
	OrthoOrbital Pt 7   dyz \
	OrthoOrbital Pt 7   dz2 \
	OrthoOrbital Pt 7   dxz \
	OrthoOrbital Pt 7   dx2-y2 \
	OrthoOrbital Pt 8   s \
	OrthoOrbital Pt 8   p \
	OrthoOrbital Pt 8   px \
	OrthoOrbital Pt 8   py \
	OrthoOrbital Pt 8   pz \
	OrthoOrbital Pt 8   d \
	OrthoOrbital Pt 8   dxy \
	OrthoOrbital Pt 8   dyz \
	OrthoOrbital Pt 8   dz2 \
	OrthoOrbital Pt 8   dxz \
	OrthoOrbital Pt 8   dx2-y2 \
	OrthoOrbital Pt 9   s \
	OrthoOrbital Pt 9   p \
	OrthoOrbital Pt 9   px \
	OrthoOrbital Pt 9   py \
	OrthoOrbital Pt 9   pz \
	OrthoOrbital Pt 9   d \
	OrthoOrbital Pt 9   dxy \
	OrthoOrbital Pt 9   dyz \
	OrthoOrbital Pt 9   dz2 \
	OrthoOrbital Pt 9   dxz \
	OrthoOrbital Pt 9   dx2-y2 \
	OrthoOrbital Pt 10   s \
	OrthoOrbital Pt 10   p \
	OrthoOrbital Pt 10   px \
	OrthoOrbital Pt 10   py \
	OrthoOrbital Pt 10   pz \
	OrthoOrbital Pt 10   d \
	OrthoOrbital Pt 10   dxy \
	OrthoOrbital Pt 10   dyz \
	OrthoOrbital Pt 10   dz2 \
	OrthoOrbital Pt 10   dxz \
	OrthoOrbital Pt 10   dx2-y2 \
	OrthoOrbital Pt 11   s \
	OrthoOrbital Pt 11   p \
	OrthoOrbital Pt 11   px \
	OrthoOrbital Pt 11   py \
	OrthoOrbital Pt 11   pz \
	OrthoOrbital Pt 11   d \
	OrthoOrbital Pt 11   dxy \
	OrthoOrbital Pt 11   dyz \
	OrthoOrbital Pt 11   dz2 \
	OrthoOrbital Pt 11   dxz \
	OrthoOrbital Pt 11   dx2-y2 \
	OrthoOrbital Pt 12   s \
	OrthoOrbital Pt 12   p \
	OrthoOrbital Pt 12   px \
	OrthoOrbital Pt 12   py \
	OrthoOrbital Pt 12   pz \
	OrthoOrbital Pt 12   d \
	OrthoOrbital Pt 12   dxy \
	OrthoOrbital Pt 12   dyz \
	OrthoOrbital Pt 12   dz2 \
	OrthoOrbital Pt 12   dxz \
	OrthoOrbital Pt 12   dx2-y2 \
	OrthoOrbital Pt 13   s \
	OrthoOrbital Pt 13   p \
	OrthoOrbital Pt 13   px \
	OrthoOrbital Pt 13   py \
	OrthoOrbital Pt 13   pz \
	OrthoOrbital Pt 13   d \
	OrthoOrbital Pt 13   dxy \
	OrthoOrbital Pt 13   dyz \
	OrthoOrbital Pt 13   dz2 \
	OrthoOrbital Pt 13   dxz \
	OrthoOrbital Pt 13   dx2-y2 \
	OrthoOrbital Pt 14   s \
	OrthoOrbital Pt 14   p \
	OrthoOrbital Pt 14   px \
	OrthoOrbital Pt 14   py \
	OrthoOrbital Pt 14   pz \
	OrthoOrbital Pt 14   d \
	OrthoOrbital Pt 14   dxy \
	OrthoOrbital Pt 14   dyz \
	OrthoOrbital Pt 14   dz2 \
	OrthoOrbital Pt 14   dxz \
	OrthoOrbital Pt 14   dx2-y2 \
	OrthoOrbital Pt 15   s \
	OrthoOrbital Pt 15   p \
	OrthoOrbital Pt 15   px \
	OrthoOrbital Pt 15   py \
	OrthoOrbital Pt 15   pz \
	OrthoOrbital Pt 15   d \
	OrthoOrbital Pt 15   dxy \
	OrthoOrbital Pt 15   dyz \
	OrthoOrbital Pt 15   dz2 \
	OrthoOrbital Pt 15   dxz \
	OrthoOrbital Pt 15   dx2-y2 \
	OrthoOrbital Pt 16   s \
	OrthoOrbital Pt 16   p \
	OrthoOrbital Pt 16   px \
	OrthoOrbital Pt 16   py \
	OrthoOrbital Pt 16   pz \
	OrthoOrbital Pt 16   d \
	OrthoOrbital Pt 16   dxy \
	OrthoOrbital Pt 16   dyz \
	OrthoOrbital Pt 16   dz2 \
	OrthoOrbital Pt 16   dxz \
	OrthoOrbital Pt 16   dx2-y2 \
	OrthoOrbital Pt 17   s \
	OrthoOrbital Pt 17   p \
	OrthoOrbital Pt 17   px \
	OrthoOrbital Pt 17   py \
	OrthoOrbital Pt 17   pz \
	OrthoOrbital Pt 17   d \
	OrthoOrbital Pt 17   dxy \
	OrthoOrbital Pt 17   dyz \
	OrthoOrbital Pt 17   dz2 \
	OrthoOrbital Pt 17   dxz \
	OrthoOrbital Pt 17   dx2-y2 \
	OrthoOrbital Pt 18   s \
	OrthoOrbital Pt 18   p \
	OrthoOrbital Pt 18   px \
	OrthoOrbital Pt 18   py \
	OrthoOrbital Pt 18   pz \
	OrthoOrbital Pt 18   d \
	OrthoOrbital Pt 18   dxy \
	OrthoOrbital Pt 18   dyz \
	OrthoOrbital Pt 18   dz2 \
	OrthoOrbital Pt 18   dxz \
	OrthoOrbital Pt 18   dx2-y2 \
	OrthoOrbital Pt 19   s \
	OrthoOrbital Pt 19   p \
	OrthoOrbital Pt 19   px \
	OrthoOrbital Pt 19   py \
	OrthoOrbital Pt 19   pz \
	OrthoOrbital Pt 19   d \
	OrthoOrbital Pt 19   dxy \
	OrthoOrbital Pt 19   dyz \
	OrthoOrbital Pt 19   dz2 \
	OrthoOrbital Pt 19   dxz \
	OrthoOrbital Pt 19   dx2-y2 \
	OrthoOrbital Pt 20   s \
	OrthoOrbital Pt 20   p \
	OrthoOrbital Pt 20   px \
	OrthoOrbital Pt 20   py \
	OrthoOrbital Pt 20   pz \
	OrthoOrbital Pt 20   d \
	OrthoOrbital Pt 20   dxy \
	OrthoOrbital Pt 20   dyz \
	OrthoOrbital Pt 20   dz2 \
	OrthoOrbital Pt 20   dxz \
	OrthoOrbital Pt 20   dx2-y2 \
	OrthoOrbital Pt 21   s \
	OrthoOrbital Pt 21   p \
	OrthoOrbital Pt 21   px \
	OrthoOrbital Pt 21   py \
	OrthoOrbital Pt 21   pz \
	OrthoOrbital Pt 21   d \
	OrthoOrbital Pt 21   dxy \
	OrthoOrbital Pt 21   dyz \
	OrthoOrbital Pt 21   dz2 \
	OrthoOrbital Pt 21   dxz \
	OrthoOrbital Pt 21   dx2-y2 \
	OrthoOrbital Pt 22   s \
	OrthoOrbital Pt 22   p \
	OrthoOrbital Pt 22   px \
	OrthoOrbital Pt 22   py \
	OrthoOrbital Pt 22   pz \
	OrthoOrbital Pt 22   d \
	OrthoOrbital Pt 22   dxy \
	OrthoOrbital Pt 22   dyz \
	OrthoOrbital Pt 22   dz2 \
	OrthoOrbital Pt 22   dxz \
	OrthoOrbital Pt 22   dx2-y2 \
	OrthoOrbital Pt 23   s \
	OrthoOrbital Pt 23   p \
	OrthoOrbital Pt 23   px \
	OrthoOrbital Pt 23   py \
	OrthoOrbital Pt 23   pz \
	OrthoOrbital Pt 23   d \
	OrthoOrbital Pt 23   dxy \
	OrthoOrbital Pt 23   dyz \
	OrthoOrbital Pt 23   dz2 \
	OrthoOrbital Pt 23   dxz \
	OrthoOrbital Pt 23   dx2-y2 \
	OrthoOrbital Pt 24   s \
	OrthoOrbital Pt 24   p \
	OrthoOrbital Pt 24   px \
	OrthoOrbital Pt 24   py \
	OrthoOrbital Pt 24   pz \
	OrthoOrbital Pt 24   d \
	OrthoOrbital Pt 24   dxy \
	OrthoOrbital Pt 24   dyz \
	OrthoOrbital Pt 24   dz2 \
	OrthoOrbital Pt 24   dxz \
	OrthoOrbital Pt 24   dx2-y2 \
	OrthoOrbital Pt 25   s \
	OrthoOrbital Pt 25   p \
	OrthoOrbital Pt 25   px \
	OrthoOrbital Pt 25   py \
	OrthoOrbital Pt 25   pz \
	OrthoOrbital Pt 25   d \
	OrthoOrbital Pt 25   dxy \
	OrthoOrbital Pt 25   dyz \
	OrthoOrbital Pt 25   dz2 \
	OrthoOrbital Pt 25   dxz \
	OrthoOrbital Pt 25   dx2-y2 \
	OrthoOrbital Pt 26   s \
	OrthoOrbital Pt 26   p \
	OrthoOrbital Pt 26   px \
	OrthoOrbital Pt 26   py \
	OrthoOrbital Pt 26   pz \
	OrthoOrbital Pt 26   d \
	OrthoOrbital Pt 26   dxy \
	OrthoOrbital Pt 26   dyz \
	OrthoOrbital Pt 26   dz2 \
	OrthoOrbital Pt 26   dxz \
	OrthoOrbital Pt 26   dx2-y2 \
	OrthoOrbital Pt 27   s \
	OrthoOrbital Pt 27   p \
	OrthoOrbital Pt 27   px \
	OrthoOrbital Pt 27   py \
	OrthoOrbital Pt 27   pz \
	OrthoOrbital Pt 27   d \
	OrthoOrbital Pt 27   dxy \
	OrthoOrbital Pt 27   dyz \
	OrthoOrbital Pt 27   dz2 \
	OrthoOrbital Pt 27   dxz \
	OrthoOrbital Pt 27   dx2-y2 \
	OrthoOrbital Pt 28   s \
	OrthoOrbital Pt 28   p \
	OrthoOrbital Pt 28   px \
	OrthoOrbital Pt 28   py \
	OrthoOrbital Pt 28   pz \
	OrthoOrbital Pt 28   d \
	OrthoOrbital Pt 28   dxy \
	OrthoOrbital Pt 28   dyz \
	OrthoOrbital Pt 28   dz2 \
	OrthoOrbital Pt 28   dxz \
	OrthoOrbital Pt 28   dx2-y2 \
	OrthoOrbital Pt 29   s \
	OrthoOrbital Pt 29   p \
	OrthoOrbital Pt 29   px \
	OrthoOrbital Pt 29   py \
	OrthoOrbital Pt 29   pz \
	OrthoOrbital Pt 29   d \
	OrthoOrbital Pt 29   dxy \
	OrthoOrbital Pt 29   dyz \
	OrthoOrbital Pt 29   dz2 \
	OrthoOrbital Pt 29   dxz \
	OrthoOrbital Pt 29   dx2-y2 \
	OrthoOrbital Pt 30   s \
	OrthoOrbital Pt 30   p \
	OrthoOrbital Pt 30   px \
	OrthoOrbital Pt 30   py \
	OrthoOrbital Pt 30   pz \
	OrthoOrbital Pt 30   d \
	OrthoOrbital Pt 30   dxy \
	OrthoOrbital Pt 30   dyz \
	OrthoOrbital Pt 30   dz2 \
	OrthoOrbital Pt 30   dxz \
	OrthoOrbital Pt 30   dx2-y2 \
	OrthoOrbital Pt 31   s \
	OrthoOrbital Pt 31   p \
	OrthoOrbital Pt 31   px \
	OrthoOrbital Pt 31   py \
	OrthoOrbital Pt 31   pz \
	OrthoOrbital Pt 31   d \
	OrthoOrbital Pt 31   dxy \
	OrthoOrbital Pt 31   dyz \
	OrthoOrbital Pt 31   dz2 \
	OrthoOrbital Pt 31   dxz \
	OrthoOrbital Pt 31   dx2-y2 \
	OrthoOrbital Pt 32   s \
	OrthoOrbital Pt 32   p \
	OrthoOrbital Pt 32   px \
	OrthoOrbital Pt 32   py \
	OrthoOrbital Pt 32   pz \
	OrthoOrbital Pt 32   d \
	OrthoOrbital Pt 32   dxy \
	OrthoOrbital Pt 32   dyz \
	OrthoOrbital Pt 32   dz2 \
	OrthoOrbital Pt 32   dxz \
	OrthoOrbital Pt 32   dx2-y2 \
	OrthoOrbital Pt 33   s \
	OrthoOrbital Pt 33   p \
	OrthoOrbital Pt 33   px \
	OrthoOrbital Pt 33   py \
	OrthoOrbital Pt 33   pz \
	OrthoOrbital Pt 33   d \
	OrthoOrbital Pt 33   dxy \
	OrthoOrbital Pt 33   dyz \
	OrthoOrbital Pt 33   dz2 \
	OrthoOrbital Pt 33   dxz \
	OrthoOrbital Pt 33   dx2-y2 \
	OrthoOrbital Pt 34   s \
	OrthoOrbital Pt 34   p \
	OrthoOrbital Pt 34   px \
	OrthoOrbital Pt 34   py \
	OrthoOrbital Pt 34   pz \
	OrthoOrbital Pt 34   d \
	OrthoOrbital Pt 34   dxy \
	OrthoOrbital Pt 34   dyz \
	OrthoOrbital Pt 34   dz2 \
	OrthoOrbital Pt 34   dxz \
	OrthoOrbital Pt 34   dx2-y2 \
	OrthoOrbital Pt 35   s \
	OrthoOrbital Pt 35   p \
	OrthoOrbital Pt 35   px \
	OrthoOrbital Pt 35   py \
	OrthoOrbital Pt 35   pz \
	OrthoOrbital Pt 35   d \
	OrthoOrbital Pt 35   dxy \
	OrthoOrbital Pt 35   dyz \
	OrthoOrbital Pt 35   dz2 \
	OrthoOrbital Pt 35   dxz \
	OrthoOrbital Pt 35   dx2-y2 \
	OrthoOrbital Pt 36   s \
	OrthoOrbital Pt 36   p \
	OrthoOrbital Pt 36   px \
	OrthoOrbital Pt 36   py \
	OrthoOrbital Pt 36   pz \
	OrthoOrbital Pt 36   d \
	OrthoOrbital Pt 36   dxy \
	OrthoOrbital Pt 36   dyz \
	OrthoOrbital Pt 36   dz2 \
	OrthoOrbital Pt 36   dxz \
	OrthoOrbital Pt 36   dx2-y2 \
	OrthoOrbital Pt 37   s \
	OrthoOrbital Pt 37   p \
	OrthoOrbital Pt 37   px \
	OrthoOrbital Pt 37   py \
	OrthoOrbital Pt 37   pz \
	OrthoOrbital Pt 37   d \
	OrthoOrbital Pt 37   dxy \
	OrthoOrbital Pt 37   dyz \
	OrthoOrbital Pt 37   dz2 \
	OrthoOrbital Pt 37   dxz \
	OrthoOrbital Pt 37   dx2-y2 \
	OrthoOrbital Pt 38   s \
	OrthoOrbital Pt 38   p \
	OrthoOrbital Pt 38   px \
	OrthoOrbital Pt 38   py \
	OrthoOrbital Pt 38   pz \
	OrthoOrbital Pt 38   d \
	OrthoOrbital Pt 38   dxy \
	OrthoOrbital Pt 38   dyz \
	OrthoOrbital Pt 38   dz2 \
	OrthoOrbital Pt 38   dxz \
	OrthoOrbital Pt 38   dx2-y2 \
	OrthoOrbital Pt 39   s \
	OrthoOrbital Pt 39   p \
	OrthoOrbital Pt 39   px \
	OrthoOrbital Pt 39   py \
	OrthoOrbital Pt 39   pz \
	OrthoOrbital Pt 39   d \
	OrthoOrbital Pt 39   dxy \
	OrthoOrbital Pt 39   dyz \
	OrthoOrbital Pt 39   dz2 \
	OrthoOrbital Pt 39   dxz \
	OrthoOrbital Pt 39   dx2-y2 \
	OrthoOrbital Pt 40   s \
	OrthoOrbital Pt 40   p \
	OrthoOrbital Pt 40   px \
	OrthoOrbital Pt 40   py \
	OrthoOrbital Pt 40   pz \
	OrthoOrbital Pt 40   d \
	OrthoOrbital Pt 40   dxy \
	OrthoOrbital Pt 40   dyz \
	OrthoOrbital Pt 40   dz2 \
	OrthoOrbital Pt 40   dxz \
	OrthoOrbital Pt 40   dx2-y2 \
	OrthoOrbital Pt 41   s \
	OrthoOrbital Pt 41   p \
	OrthoOrbital Pt 41   px \
	OrthoOrbital Pt 41   py \
	OrthoOrbital Pt 41   pz \
	OrthoOrbital Pt 41   d \
	OrthoOrbital Pt 41   dxy \
	OrthoOrbital Pt 41   dyz \
	OrthoOrbital Pt 41   dz2 \
	OrthoOrbital Pt 41   dxz \
	OrthoOrbital Pt 41   dx2-y2 \
	OrthoOrbital Pt 42   s \
	OrthoOrbital Pt 42   p \
	OrthoOrbital Pt 42   px \
	OrthoOrbital Pt 42   py \
	OrthoOrbital Pt 42   pz \
	OrthoOrbital Pt 42   d \
	OrthoOrbital Pt 42   dxy \
	OrthoOrbital Pt 42   dyz \
	OrthoOrbital Pt 42   dz2 \
	OrthoOrbital Pt 42   dxz \
	OrthoOrbital Pt 42   dx2-y2 \
	OrthoOrbital Pt 43   s \
	OrthoOrbital Pt 43   p \
	OrthoOrbital Pt 43   px \
	OrthoOrbital Pt 43   py \
	OrthoOrbital Pt 43   pz \
	OrthoOrbital Pt 43   d \
	OrthoOrbital Pt 43   dxy \
	OrthoOrbital Pt 43   dyz \
	OrthoOrbital Pt 43   dz2 \
	OrthoOrbital Pt 43   dxz \
	OrthoOrbital Pt 43   dx2-y2 \
	OrthoOrbital Pt 44   s \
	OrthoOrbital Pt 44   p \
	OrthoOrbital Pt 44   px \
	OrthoOrbital Pt 44   py \
	OrthoOrbital Pt 44   pz \
	OrthoOrbital Pt 44   d \
	OrthoOrbital Pt 44   dxy \
	OrthoOrbital Pt 44   dyz \
	OrthoOrbital Pt 44   dz2 \
	OrthoOrbital Pt 44   dxz \
	OrthoOrbital Pt 44   dx2-y2 \
	OrthoOrbital Pt 45   s \
	OrthoOrbital Pt 45   p \
	OrthoOrbital Pt 45   px \
	OrthoOrbital Pt 45   py \
	OrthoOrbital Pt 45   pz \
	OrthoOrbital Pt 45   d \
	OrthoOrbital Pt 45   dxy \
	OrthoOrbital Pt 45   dyz \
	OrthoOrbital Pt 45   dz2 \
	OrthoOrbital Pt 45   dxz \
	OrthoOrbital Pt 45   dx2-y2 \
	OrthoOrbital Pt 46   s \
	OrthoOrbital Pt 46   p \
	OrthoOrbital Pt 46   px \
	OrthoOrbital Pt 46   py \
	OrthoOrbital Pt 46   pz \
	OrthoOrbital Pt 46   d \
	OrthoOrbital Pt 46   dxy \
	OrthoOrbital Pt 46   dyz \
	OrthoOrbital Pt 46   dz2 \
	OrthoOrbital Pt 46   dxz \
	OrthoOrbital Pt 46   dx2-y2 \
	OrthoOrbital Pt 47   s \
	OrthoOrbital Pt 47   p \
	OrthoOrbital Pt 47   px \
	OrthoOrbital Pt 47   py \
	OrthoOrbital Pt 47   pz \
	OrthoOrbital Pt 47   d \
	OrthoOrbital Pt 47   dxy \
	OrthoOrbital Pt 47   dyz \
	OrthoOrbital Pt 47   dz2 \
	OrthoOrbital Pt 47   dxz \
	OrthoOrbital Pt 47   dx2-y2 \
	OrthoOrbital Pt 48   s \
	OrthoOrbital Pt 48   p \
	OrthoOrbital Pt 48   px \
	OrthoOrbital Pt 48   py \
	OrthoOrbital Pt 48   pz \
	OrthoOrbital Pt 48   d \
	OrthoOrbital Pt 48   dxy \
	OrthoOrbital Pt 48   dyz \
	OrthoOrbital Pt 48   dz2 \
	OrthoOrbital Pt 48   dxz \
	OrthoOrbital Pt 48   dx2-y2 \
	OrthoOrbital C 1   s \
	OrthoOrbital C 1   p \
	OrthoOrbital C 1   px \
	OrthoOrbital C 1   py \
	OrthoOrbital C 1   pz \
	OrthoOrbital O 1   s \
	OrthoOrbital O 1   p \
	OrthoOrbital O 1   px \
	OrthoOrbital O 1   py \
	OrthoOrbital O 1   pz
dump End ElecDensity KEdensity BandEigs EigStats RhoAtom DOS Kpoints
dump Ionic State IonicPositions Lattice EigStats Ecomponents
dump 
dump 
dump 
dump 
dump 
dump 
dump 
dump 
dump-name jdft.$VAR
elec-cutoff 20
elec-eigen-algo Davidson
elec-ex-corr gga-PBE
elec-initial-magnetization 0.000000 no
elec-n-bands 467
elec-smearing Fermi 0.001
electronic-minimize  \
	dirUpdateScheme      FletcherReeves \
	linminMethod         DirUpdateRecommended \
	nIterations          100 \
	history              15 \
	knormThreshold       0 \
	energyDiffThreshold  1e-07 \
	nEnergyDiff          2 \
	alphaTstart          1 \
	alphaTmin            1e-10 \
	updateTestStepSize   yes \
	alphaTreduceFactor   0.1 \
	alphaTincreaseFactor 3 \
	nAlphaAdjustMax      3 \
	wolfeEnergy          0.0001 \
	wolfeGradient        0.9 \
	fdTest               no
exchange-regularization WignerSeitzTruncated
fluid LinearPCM 298.000000 1.013250
fluid-anion F- 0.5 MeanFieldLJ \
	epsBulk 1 \
	pMol 0 \
	epsInf 1 \
	Pvap 0 \
	sigmaBulk 0 \
	Rvdw 2.24877 \
	Res 0 \
	tauNuc 343133
fluid-cation Na+ 0.5 MeanFieldLJ \
	epsBulk 1 \
	pMol 0 \
	epsInf 1 \
	Pvap 0 \
	sigmaBulk 0 \
	Rvdw 2.19208 \
	Res 0 \
	tauNuc 343133
fluid-ex-corr lda-TF lda-PZ
fluid-gummel-loop 10 1.000000e-05
fluid-minimize  \
	dirUpdateScheme      PolakRibiere \
	linminMethod         DirUpdateRecommended \
	nIterations          400 \
	history              15 \
	knormThreshold       1e-11 \
	energyDiffThreshold  0 \
	nEnergyDiff          2 \
	alphaTstart          1 \
	alphaTmin            1e-10 \
	updateTestStepSize   yes \
	alphaTreduceFactor   0.1 \
	alphaTincreaseFactor 3 \
	nAlphaAdjustMax      6 \
	wolfeEnergy          0.0001 \
	wolfeGradient        0.9 \
	fdTest               no
fluid-solvent H2O 55.338 ScalarEOS \
	epsBulk 78.4 \
	pMol 0.92466 \
	epsInf 1.77 \
	Pvap 1.06736e-10 \
	sigmaBulk 4.62e-05 \
	Rvdw 2.61727 \
	Res 1.42 \
	tauNuc 343133 \
	poleEl 15 7 1
forces-output-coords Positions
ion Pt   0.000220000000000   0.307628000000000  17.100908000000000 0
ion Pt   0.000220000000000  13.123347000000001  17.100908000000000 0
ion Pt   5.232205000000001   0.307628000000000  17.100908000000000 0
ion Pt   5.232205000000001  13.123347000000001  17.100908000000000 0
ion Pt  10.463699000000000   4.022239000000000   2.178053000000000 0
ion Pt  10.463699000000000  16.837956999999999   2.178053000000000 0
ion Pt   5.231692000000000   4.022239000000000   2.178053000000000 0
ion Pt   5.231692000000000  16.837956999999999   2.178053000000000 0
ion Pt  10.463981000000000   8.528655000000001   5.417403000000000 0
ion Pt  10.463981000000000  21.344373999999998   5.417403000000000 0
ion Pt   5.231975000000000   8.528655000000001   5.417403000000000 0
ion Pt   5.231975000000000  21.344373999999998   5.417403000000000 0
ion Pt  10.463844999999999  25.622132000000001   8.238791000000001 0
ion Pt  10.463844999999999  12.806414000000000   8.238791000000001 0
ion Pt   5.231849000000001  25.622132000000001   8.238791000000001 0
ion Pt   5.231849000000001  12.806414000000000   8.238791000000001 0
ion Pt   0.000157000000000   4.349296000000000  11.332694000000000 0
ion Pt   0.000157000000000  17.165013999999999  11.332694000000000 0
ion Pt   5.232153000000001   4.349296000000000  11.332694000000000 0
ion Pt   5.232153000000001  17.165013999999999  11.332694000000000 0
ion Pt   0.000303000000000   8.653275000000001  14.682311000000000 0
ion Pt   0.000303000000000  21.469018999999999  14.682311000000000 0
ion Pt   5.232310000000000   8.653275000000001  14.682311000000000 0
ion Pt   5.232310000000000  21.469018999999999  14.682311000000000 0
ion Pt   2.615715000000000  25.523040999999999   3.443627000000001 0
ion Pt   2.615715000000000  12.707296999999999   3.443627000000001 0
ion Pt   7.847711000000000  25.523040999999999   3.443627000000001 0
ion Pt   7.847711000000000  12.707296999999999   3.443627000000001 0
ion Pt   2.615810000000000   4.193175000000000   6.787100000000000 0
ion Pt   2.615810000000000  17.008893000000000   6.787100000000000 0
ion Pt   7.847806000000000   4.193175000000000   6.787100000000000 0
ion Pt   7.847806000000000  17.008893000000000   6.787100000000000 0
ion Pt   2.616155000000000   8.553081999999998   9.886386000000000 0
ion Pt   2.616155000000000  21.368799999999997   9.886386000000000 0
ion Pt   7.848151000000000   8.553081999999998   9.886386000000000 0
ion Pt   7.848151000000000  21.368799999999997   9.886386000000000 0
ion Pt   2.615998000000000   0.014841000000000  12.709460000000000 0
ion Pt   2.615998000000000  12.830558999999997  12.709460000000000 0
ion Pt   7.847994000000001   0.014841000000000  12.709460000000000 0
ion Pt   7.847994000000001  12.830558999999997  12.709460000000000 0
ion Pt   2.616322000000000   4.520642000000000  15.941687000000002 0
ion Pt   2.616322000000000  17.336386000000001  15.941687000000002 0
ion Pt   7.848318000000000   4.520642000000000  15.941687000000002 0
ion Pt   7.848318000000000  17.336386000000001  15.941687000000002 0
ion Pt   2.615768000000000   8.237738999999999   1.026553000000000 0
ion Pt   2.615768000000000  21.053457000000002   1.026553000000000 0
ion Pt   7.847764000000001   8.237738999999999   1.026553000000000 0
ion Pt   7.847764000000001  21.053457000000002   1.026553000000000 0
ion C   3.924269000000000  15.229865999999999  19.757003999999998 1  Linear 0 0 1
ion O   3.984353000000000  15.229865999999999  21.912383999999999 1  Linear 0 0 1
ion-species /projects/musgravc/apps/jdftx-1.6.0/build/pseudopotentials/GBRV_v1.5/$ID_pbe_v1.uspp
ion-species /projects/musgravc/apps/jdftx-1.6.0/build/pseudopotentials/GBRV_v1.5/$ID_pbe_v1.2.uspp
ion-species /projects/musgravc/apps/jdftx-1.6.0/build/pseudopotentials/GBRV_v1.5/$ID_pbe_v1.4.uspp
ion-species /projects/musgravc/apps/jdftx-1.6.0/build/pseudopotentials/GBRV_v1.5/$ID_pbe_v1.5.uspp
ion-width Ecut
ionic-minimize  \
	dirUpdateScheme      L-BFGS \
	linminMethod         DirUpdateRecommended \
	nIterations          100 \
	history              15 \
	knormThreshold       0.0001 \
	energyDiffThreshold  1e-06 \
	nEnergyDiff          2 \
	alphaTstart          1 \
	alphaTmin            1e-10 \
	updateTestStepSize   yes \
	alphaTreduceFactor   0.1 \
	alphaTincreaseFactor 3 \
	nAlphaAdjustMax      3 \
	wolfeEnergy          0.0001 \
	wolfeGradient        0.9 \
	fdTest               no
kpoint   0.000000000000   0.000000000000   0.000000000000  1.00000000000000
kpoint-folding 6 2 1 
latt-move-scale 0 0 0
latt-scale 1 1 1 
lattice  \
	  10.463991999999999    0.000000000000000    0.000000000000000  \
	   0.000000000000000   25.631436000000001    0.000000000000000  \
	   0.000000000000000    0.000000000000000   54.372487000000000 
lattice-minimize  \
	dirUpdateScheme      L-BFGS \
	linminMethod         DirUpdateRecommended \
	nIterations          0 \
	history              15 \
	knormThreshold       0 \
	energyDiffThreshold  1e-06 \
	nEnergyDiff          2 \
	alphaTstart          1 \
	alphaTmin            1e-10 \
	updateTestStepSize   yes \
	alphaTreduceFactor   0.1 \
	alphaTincreaseFactor 3 \
	nAlphaAdjustMax      3 \
	wolfeEnergy          0.0001 \
	wolfeGradient        0.9 \
	fdTest               no
lcao-params 30 1e-06 0.001
pcm-variant CANDLE
spintype z-spin
subspace-rotation-factor 1 yes
symmetries automatic
symmetry-threshold 0.0001
van-der-waals D3



---------- Setting up symmetries ----------

Found 8 point-group symmetries of the bravais lattice
Found 1 space-group symmetries with basis
Applied RMS atom displacement 0 bohrs to make symmetries exact.

---------- Initializing the Grid ----------
R = 
[       10.464            0            0  ]
[            0      25.6314            0  ]
[            0            0      54.3725  ]
unit cell volume = 14583.1
G =
[   0.600458          0          0  ]
[          0   0.245136          0  ]
[          0          0   0.115558  ]
Minimum fftbox size, Smin = [  44  104  220  ]
Chosen fftbox size, S = [  48  108  224  ]

---------- Exchange Correlation functional ----------
Initalized PBE GGA exchange.
Initalized PBE GGA correlation.

---------- Setting up pseudopotentials ----------
Width of ionic core gaussian charges (only for fluid interactions / plotting) set to 0.397384

Reading pseudopotential file '/projects/musgravc/apps/jdftx-1.6.0/build/pseudopotentials/GBRV_v1.5/pt_pbe_v1.4.uspp':
  Title: Pt.  Created by USPP 7.3.6 on 31-3-15
  Reference state energy: -105.002503.  16 valence electrons in orbitals:
    |510>  occupation: 6  eigenvalue: -2.158104
    |520>  occupation: 9.5  eigenvalue: -0.335376
    |600>  occupation: 0  eigenvalue: -0.319640
    |610>  occupation: 0  eigenvalue: -0.122947
  lMax: 2  lLocal: 3  QijEcut: 5.5
  6 projectors sampled on a log grid with 745 points:
    l: 0  eig: -0.319640  rCut: 2.45
    l: 0  eig: 1.500000  rCut: 2.45
    l: 1  eig: -2.158104  rCut: 1.6
    l: 1  eig: -0.122947  rCut: 1.6
    l: 2  eig: -0.500000  rCut: 1.6
    l: 2  eig: -0.335375  rCut: 1.6
  Partial core density with radius 1.1
  Transforming core density to a uniform radial grid of dG=0.02 with 1179 points.
  Transforming local potential to a uniform radial grid of dG=0.02 with 1179 points.
  Transforming nonlocal projectors to a uniform radial grid of dG=0.02 with 432 points.
  Transforming density augmentations to a uniform radial grid of dG=0.02 with 1179 points.
  Transforming atomic orbitals to a uniform radial grid of dG=0.02 with 432 points.
  Core radius for overlap checks: 2.45 bohrs.

Reading pseudopotential file '/projects/musgravc/apps/jdftx-1.6.0/build/pseudopotentials/GBRV_v1.5/c_pbe_v1.2.uspp':
  Title: C.  Created by USPP 7.3.6 on 3-2-2014
  Reference state energy: -5.406344.  4 valence electrons in orbitals:
    |200>  occupation: 2  eigenvalue: -0.504890
    |210>  occupation: 2  eigenvalue: -0.194356
  lMax: 1  lLocal: 2  QijEcut: 5
  4 projectors sampled on a log grid with 503 points:
    l: 0  eig: -0.504890  rCut: 1.3
    l: 0  eig: 0.000000  rCut: 1.3
    l: 1  eig: -0.194357  rCut: 1.3
    l: 1  eig: 0.000000  rCut: 1.3
  Partial core density with radius 1.1
  Transforming core density to a uniform radial grid of dG=0.02 with 1179 points.
  Transforming local potential to a uniform radial grid of dG=0.02 with 1179 points.
  Transforming nonlocal projectors to a uniform radial grid of dG=0.02 with 432 points.
  Transforming density augmentations to a uniform radial grid of dG=0.02 with 1179 points.
  Transforming atomic orbitals to a uniform radial grid of dG=0.02 with 432 points.
  Core radius for overlap checks: 1.30 bohrs.

Reading pseudopotential file '/projects/musgravc/apps/jdftx-1.6.0/build/pseudopotentials/GBRV_v1.5/o_pbe_v1.2.uspp':
  Title: O.  Created by USPP 7.3.6 on 3-2-2014
  Reference state energy: -15.894388.  6 valence electrons in orbitals:
    |200>  occupation: 2  eigenvalue: -0.878823
    |210>  occupation: 4  eigenvalue: -0.332131
  lMax: 2  lLocal: 2  QijEcut: 6
  5 projectors sampled on a log grid with 511 points:
    l: 0  eig: -0.878823  rCut: 1.25
    l: 0  eig: 0.000000  rCut: 1.25
    l: 1  eig: -0.332132  rCut: 1.25
    l: 1  eig: 0.000000  rCut: 1.25
    l: 2  eig: 1.000000  rCut: 1.25
  Partial core density with radius 0.7
  Transforming core density to a uniform radial grid of dG=0.02 with 1179 points.
  Transforming local potential to a uniform radial grid of dG=0.02 with 1179 points.
  Transforming nonlocal projectors to a uniform radial grid of dG=0.02 with 432 points.
  Transforming density augmentations to a uniform radial grid of dG=0.02 with 1179 points.
  Transforming atomic orbitals to a uniform radial grid of dG=0.02 with 432 points.
  Core radius for overlap checks: 1.25 bohrs.

Initialized 3 species with 50 total atoms.

Folded 1 k-points by 6x2x1 to 12 k-points.

---------- Setting up k-points, bands, fillings ----------
Adding inversion symmetry to k-mesh for non-inversion-symmetric unit cell.
Reduced to 8 k-points under symmetry. 
Computing the number of bands and number of electrons
Calculating initial fillings.
nElectrons: 778.000000   nBands: 467   nStates: 16

----- Setting up reduced wavefunction bases (one per k-point) -----
average nbasis = 62290.083 , ideal nbasis = 62300.069

----- Initializing Supercell corresponding to k-point mesh -----
Lattice vector linear combinations in supercell:
[   6   0   0  ]
[   0   2   0  ]
[   0   0   1  ]
Supercell lattice vectors:
[  62.784  0  0  ]
[  0  51.2629  0  ]
[  0  0  54.3725  ]

Initializing DFT-D3 calculator:
	Parameters set for gga-PBE functional
	s6:  1.000  s_r6:  1.217
	s8:  0.722  s_r8:  1.000
	Per-atom parameters loaded for:
	Pt:  sqrtQ[a0]:  5.888  Rcov[a0]:  2.116  CN: [ 0.00 1.92 6.67 ]
	 C:  sqrtQ[a0]:  3.105  Rcov[a0]:  1.417  CN: [ 0.00 0.99 2.00 3.00 3.98 ]
	 O:  sqrtQ[a0]:  2.594  Rcov[a0]:  1.191  CN: [ 0.00 0.99 1.99 ]

Initializing DFT-D2 calculator for fluid / solvation:
	Pt:  C6:  815.23 Eh-a0^6  R0: 3.326 a0 (WARNING: beyond Grimme's data set)
	 C:  C6:   30.35 Eh-a0^6  R0: 2.744 a0
	 O:  C6:   12.14 Eh-a0^6  R0: 2.536 a0

---------- Setting up ewald sum ----------
Optimum gaussian width for ewald sums = 5.078065 bohr.
Real space sum over 455 unit cells with max indices [  6  3  2  ]
Reciprocal space sum over 7733 terms with max indices [  5  9  18  ]

Computing DFT-D3 correction:
# coordination-number Pt 5.928 6.125 5.928 6.970 7.145 7.145 7.145 7.145 9.433 9.433 9.433 9.433 9.344 9.344 9.344 9.344 9.308 9.309 9.308 9.309 7.662 7.662 7.663 7.663 7.666 7.666 7.666 7.666 9.310 9.310 9.310 9.310 9.342 9.342 9.342 9.342 9.434 9.437 9.434 9.435 7.149 7.793 7.149 7.193 5.929 5.929 5.929 5.929
# coordination-number C 2.876
# coordination-number O 1.068
# diagonal-C6 Pt 336.87 336.87 336.87 336.87 336.87 336.87 336.87 336.87 336.87 336.87 336.87 336.87 336.87 336.87 336.87 336.87 336.87 336.87 336.87 336.87 336.87 336.87 336.87 336.87 336.87 336.87 336.87 336.87 336.87 336.87 336.87 336.87 336.87 336.87 336.87 336.87 336.87 336.87 336.87 336.87 336.87 336.87 336.87 336.87 336.87 336.87 336.87 336.87
# diagonal-C6 C 25.88
# diagonal-C6 O 12.76
EvdW_6 =   -0.379172
EvdW_8 =   -0.629896

---------- Allocating electronic variables ----------
Initializing wave functions:  linear combination of atomic orbitals
Pt pseudo-atom occupations:   s ( 0 )  p ( 6 0 )  d ( 10 )
C pseudo-atom occupations:   s ( 2 )  p ( 2 )
O pseudo-atom occupations:   s ( 2 )  p ( 4 )
	FillingsUpdate:  mu: -0.877783169  nElectrons: 778.000000  magneticMoment: [ Abs: 0.00496  Tot: -0.00020 ]
LCAOMinimize: Iter:   0  F: -4269.1331453727743792  |grad|_K:  1.334e-02  alpha:  1.000e+00
LCAOMinimize: 	Step increased F by 2.381885e+02, reducing alpha to 2.028978e-02.
	FillingsUpdate:  mu: -0.379439435  nElectrons: 778.000000  magneticMoment: [ Abs: 0.00428  Tot: -0.00009 ]
LCAOMinimize: Iter:   1  F: -4282.9217023451901696  |grad|_K:  5.763e-03  alpha:  2.029e-02  linmin: -1.398e-01  cgtest:  6.485e-01  t[s]:    327.25
LCAOMinimize: Encountered beta<0, resetting CG.
	FillingsUpdate:  mu: -0.093113315  nElectrons: 778.000000  magneticMoment: [ Abs: 0.00398  Tot: -0.00012 ]
LCAOMinimize: Iter:   2  F: -4285.1377066062959784  |grad|_K:  5.844e-03  alpha:  2.582e-02  linmin:  2.619e-02  cgtest: -9.292e-02  t[s]:    422.68
	FillingsUpdate:  mu: +0.201291761  nElectrons: 778.000000  magneticMoment: [ Abs: 0.00365  Tot: -0.00001 ]
LCAOMinimize: Iter:   3  F: -4286.8977517692364927  |grad|_K:  4.623e-03  alpha:  2.331e-02  linmin:  1.751e-04  cgtest:  4.957e-01  t[s]:    517.97
	FillingsUpdate:  mu: +0.073360739  nElectrons: 778.000000  magneticMoment: [ Abs: 0.00350  Tot: +0.00006 ]
LCAOMinimize: Iter:   4  F: -4288.6675676928070970  |grad|_K:  4.153e-03  alpha:  3.026e-02  linmin: -8.696e-04  cgtest: -5.069e-02  t[s]:    613.35
	FillingsUpdate:  mu: -0.065448563  nElectrons: 778.000000  magneticMoment: [ Abs: 0.00339  Tot: +0.00005 ]
LCAOMinimize: Iter:   5  F: -4289.4171690937055246  |grad|_K:  2.105e-03  alpha:  1.632e-02  linmin:  2.357e-03  cgtest: -2.542e-02  t[s]:    708.86
LCAOMinimize: 	Predicted alpha/alphaT>3.000000, increasing alphaT to 4.897226e-02.
	FillingsUpdate:  mu: +0.128251406  nElectrons: 778.000000  magneticMoment: [ Abs: 0.00314  Tot: +0.00008 ]
LCAOMinimize: Iter:   6  F: -4290.0803387619425848  |grad|_K:  2.610e-03  alpha:  5.512e-02  linmin: -1.266e-03  cgtest:  9.875e-02  t[s]:    829.36
	FillingsUpdate:  mu: +0.160625969  nElectrons: 778.000000  magneticMoment: [ Abs: 0.00301  Tot: +0.00011 ]
LCAOMinimize: Iter:   7  F: -4290.4591562257837722  |grad|_K:  1.773e-03  alpha:  1.930e-02  linmin: -1.398e-03  cgtest: -9.402e-02  t[s]:    925.07
	FillingsUpdate:  mu: +0.158184444  nElectrons: 778.000000  magneticMoment: [ Abs: 0.00292  Tot: +0.00006 ]
LCAOMinimize: Iter:   8  F: -4290.6331683399612302  |grad|_K:  1.294e-03  alpha:  1.994e-02  linmin:  1.962e-03  cgtest: -2.213e-02  t[s]:   1020.69
	FillingsUpdate:  mu: +0.158406351  nElectrons: 778.000000  magneticMoment: [ Abs: 0.00283  Tot: -0.00002 ]
LCAOMinimize: Iter:   9  F: -4290.8015077437621585  |grad|_K:  1.449e-03  alpha:  3.819e-02  linmin:  2.342e-03  cgtest:  3.773e-02  t[s]:   1115.81
	FillingsUpdate:  mu: +0.129207742  nElectrons: 778.000000  magneticMoment: [ Abs: 0.00278  Tot: -0.00001 ]
LCAOMinimize: Iter:  10  F: -4290.8833009825966656  |grad|_K:  9.910e-04  alpha:  1.445e-02  linmin: -1.352e-03  cgtest:  1.147e-01  t[s]:   1211.41
	FillingsUpdate:  mu: +0.166319096  nElectrons: 778.000000  magneticMoment: [ Abs: 0.00270  Tot: -0.00003 ]
LCAOMinimize: Iter:  11  F: -4290.9902958834254605  |grad|_K:  1.044e-03  alpha:  3.961e-02  linmin:  6.456e-04  cgtest: -6.016e-02  t[s]:   1306.67
	FillingsUpdate:  mu: +0.178787318  nElectrons: 778.000000  magneticMoment: [ Abs: 0.00265  Tot: -0.00001 ]
LCAOMinimize: Iter:  12  F: -4291.0461537631190367  |grad|_K:  8.750e-04  alpha:  1.871e-02  linmin: -3.937e-04  cgtest:  5.613e-02  t[s]:   1403.53
	FillingsUpdate:  mu: +0.169734331  nElectrons: 778.000000  magneticMoment: [ Abs: 0.00262  Tot: +0.00002 ]
LCAOMinimize: Iter:  13  F: -4291.0962594212251133  |grad|_K:  7.432e-04  alpha:  2.378e-02  linmin:  1.520e-04  cgtest: -4.176e-02  t[s]:   1498.98
	FillingsUpdate:  mu: +0.141177974  nElectrons: 778.000000  magneticMoment: [ Abs: 0.00259  Tot: +0.00003 ]
LCAOMinimize: Iter:  14  F: -4291.1497182653865821  |grad|_K:  6.525e-04  alpha:  3.562e-02  linmin:  6.546e-04  cgtest:  2.442e-02  t[s]:   1594.49
	FillingsUpdate:  mu: +0.126473098  nElectrons: 778.000000  magneticMoment: [ Abs: 0.00258  Tot: +0.00002 ]
LCAOMinimize: Iter:  15  F: -4291.1645300655409301  |grad|_K:  3.832e-04  alpha:  1.275e-02  linmin: -5.549e-04  cgtest:  4.043e-02  t[s]:   1689.83
	FillingsUpdate:  mu: +0.137093027  nElectrons: 778.000000  magneticMoment: [ Abs: 0.00257  Tot: +0.00003 ]
LCAOMinimize: Iter:  16  F: -4291.1776476295372049  |grad|_K:  2.981e-04  alpha:  3.254e-02  linmin:  5.438e-04  cgtest: -2.739e-02  t[s]:   1785.15
	FillingsUpdate:  mu: +0.139173831  nElectrons: 778.000000  magneticMoment: [ Abs: 0.00256  Tot: +0.00003 ]
LCAOMinimize: Iter:  17  F: -4291.1822563545574667  |grad|_K:  2.415e-04  alpha:  1.900e-02  linmin: -6.702e-05  cgtest:  2.500e-02  t[s]:   1880.20
	FillingsUpdate:  mu: +0.135759695  nElectrons: 778.000000  magneticMoment: [ Abs: 0.00256  Tot: +0.00003 ]
LCAOMinimize: Iter:  18  F: -4291.1859110733612397  |grad|_K:  2.346e-04  alpha:  2.288e-02  linmin:  8.321e-06  cgtest: -7.633e-03  t[s]:   1976.75
	FillingsUpdate:  mu: +0.121890741  nElectrons: 778.000000  magneticMoment: [ Abs: 0.00256  Tot: +0.00002 ]
LCAOMinimize: Iter:  19  F: -4291.1919729098808602  |grad|_K:  1.749e-04  alpha:  4.032e-02  linmin:  3.308e-04  cgtest: -3.258e-03  t[s]:   2072.05
	FillingsUpdate:  mu: +0.122591260  nElectrons: 778.000000  magneticMoment: [ Abs: 0.00256  Tot: +0.00002 ]
LCAOMinimize: Iter:  20  F: -4291.1934360516925153  |grad|_K:  1.587e-04  alpha:  1.754e-02  linmin: -2.317e-05  cgtest:  7.677e-03  t[s]:   2167.56
	FillingsUpdate:  mu: +0.127014686  nElectrons: 778.000000  magneticMoment: [ Abs: 0.00255  Tot: +0.00002 ]
LCAOMinimize: Iter:  21  F: -4291.1952645905894315  |grad|_K:  7.350e-05  alpha:  2.651e-02  linmin:  1.596e-04  cgtest: -2.755e-03  t[s]:   2263.92
	FillingsUpdate:  mu: +0.126073560  nElectrons: 778.000000  magneticMoment: [ Abs: 0.00255  Tot: +0.00002 ]
LCAOMinimize: Iter:  22  F: -4291.1955817605976335  |grad|_K:  6.847e-05  alpha:  2.148e-02  linmin: -2.069e-05  cgtest:  2.773e-04  t[s]:   2359.74
	FillingsUpdate:  mu: +0.124184027  nElectrons: 778.000000  magneticMoment: [ Abs: 0.00255  Tot: +0.00002 ]
LCAOMinimize: Iter:  23  F: -4291.1958609891034939  |grad|_K:  5.358e-05  alpha:  2.175e-02  linmin:  1.649e-05  cgtest: -1.110e-03  t[s]:   2455.21
	FillingsUpdate:  mu: +0.123020010  nElectrons: 778.000000  magneticMoment: [ Abs: 0.00256  Tot: +0.00002 ]
LCAOMinimize: Iter:  24  F: -4291.1960457464047067  |grad|_K:  3.334e-05  alpha:  2.351e-02  linmin: -3.554e-05  cgtest:  1.061e-03  t[s]:   2549.98
	FillingsUpdate:  mu: +0.123913155  nElectrons: 778.000000  magneticMoment: [ Abs: 0.00256  Tot: +0.00002 ]
LCAOMinimize: Iter:  25  F: -4291.1961354090381064  |grad|_K:  3.968e-05  alpha:  2.945e-02  linmin:  4.569e-06  cgtest: -1.289e-03  t[s]:   2645.13
	FillingsUpdate:  mu: +0.124999126  nElectrons: 778.000000  magneticMoment: [ Abs: 0.00256  Tot: +0.00002 ]
LCAOMinimize: Iter:  26  F: -4291.1962144339995575  |grad|_K:  2.038e-05  alpha:  1.833e-02  linmin: -2.912e-07  cgtest:  7.722e-04  t[s]:   2740.54
	FillingsUpdate:  mu: +0.124511251  nElectrons: 778.000000  magneticMoment: [ Abs: 0.00256  Tot: +0.00002 ]
LCAOMinimize: Iter:  27  F: -4291.1962625147207291  |grad|_K:  2.708e-05  alpha:  4.230e-02  linmin:  2.763e-05  cgtest:  7.992e-05  t[s]:   2836.65
	FillingsUpdate:  mu: +0.123917698  nElectrons: 778.000000  magneticMoment: [ Abs: 0.00256  Tot: +0.00002 ]
LCAOMinimize: Iter:  28  F: -4291.1963048561456162  |grad|_K:  2.187e-05  alpha:  2.109e-02  linmin: -1.483e-05  cgtest:  1.774e-03  t[s]:   2932.20
	FillingsUpdate:  mu: +0.123997508  nElectrons: 778.000000  magneticMoment: [ Abs: 0.00257  Tot: +0.00003 ]
LCAOMinimize: Iter:  29  F: -4291.1963337039815087  |grad|_K:  1.704e-05  alpha:  2.203e-02  linmin:  1.524e-05  cgtest: -1.391e-03  t[s]:   3027.63
	FillingsUpdate:  mu: +0.124875329  nElectrons: 778.000000  magneticMoment: [ Abs: 0.00257  Tot: +0.00003 ]
LCAOMinimize: Iter:  30  F: -4291.1963651001278777  |grad|_K:  1.612e-05  alpha:  3.953e-02  linmin:  6.274e-05  cgtest:  1.130e-03  t[s]:   3123.08
LCAOMinimize: None of the convergence criteria satisfied after 30 iterations.
----- createFluidSolver() ----- (Fluid-side solver setup)
   Initializing fluid molecule 'H2O'
     Initializing site 'O'
       Electron density: proportional to exp(-r/0.36935)*erfc((r-0.51523)/0.36823) with norm 6.826
       Charge density: gaussian nuclear width 0.478731 with net site charge 0.826
       Polarizability: cuspless exponential with width 0.32 and norm 3.73
       Hard sphere radius: 2.57003 bohrs
       Positions in reference frame:
         [ +0.000000 +0.000000 +0.000000 ]
     Initializing site 'H'
       Electron density: proportional to exp(-r/0.34641)*erfc((r-0)/0.390882) with norm 0.587
       Charge density: gaussian nuclear width 0.377945 with net site charge -0.413
       Polarizability: cuspless exponential with width 0.39 and norm 3.3
       Positions in reference frame:
         [ +0.000000 -1.441945 +1.122523 ]
         [ +0.000000 +1.441945 +1.122523 ]
     Net charge: 0   dipole magnitude: 0.927204
     Initializing spherical shell mfKernel with radius 2.61727 Bohr
     deltaS corrections:
       site 'O': -7.54299
       site 'H': -6.83917
   Initializing fluid molecule 'Na+'
     Initializing site 'Na'
       Electron density: proportional to exp(-r/0.19682)*erfc((r-0.71491)/0.41314) with norm 8.1383
       Charge density: gaussian nuclear width 0.365347 with net site charge -1
       Hard sphere radius: 1.86327 bohrs
       Positions in reference frame:
         [ +0.000000 +0.000000 +0.000000 ]
     Net charge: -1   dipole magnitude: 0
     Initializing gaussian mfKernel with width: 1.55004 Bohr
     deltaS corrections:
       site 'Na': -22.3555
   Initializing fluid molecule 'F-'
     Initializing site 'F'
       Electron density: proportional to exp(-r/0.38886)*erfc((r-0)/0.438782) with norm 8
       Charge density: gaussian nuclear width 0.374796 with net site charge 1
       Hard sphere radius: 2.39995 bohrs
       Positions in reference frame:
         [ +0.000000 +0.000000 +0.000000 ]
     Net charge: 1   dipole magnitude: 0
     Initializing gaussian mfKernel with width: 1.59012 Bohr
     deltaS corrections:
       site 'F': -9.04335

Correction to mu due to finite nuclear width = -0.0529334
   Cavity determined by nc: 0.00142 and sigma: 0.707107
   Nonlocal vdW cavity from gaussian model electron density with norm = 8 and sigma = 0.993594 bohr
   Charge asymmetry in cavity with sensitivity pCavity = 36.5 e-bohr/Eh
   Electrostatic cavity expanded by eta = 1.46 bohrs
   Weighted density cavitation model constrained by Nbulk: 0.0049383 bohr^-3, Pvap: 3.14029 kPa, Rvdw: 2.61727 bohr and sigmaBulk: 4.62e-05 Eh/bohr^2 at T: 298 K.
   Weighted density dispersion model using vdW pair potentials with single solvent site with sqrtC6eff: 0.77 SI.


---- Citations for features of the code used in this run ----

   Software package:
      R. Sundararaman, K. Letchworth-Weaver, K.A. Schwarz, D. Gunceler, Y. Ozhabes and T.A. Arias, 'JDFTx: software for joint density-functional theory', SoftwareX 6, 278 (2017)

   gga-PBE exchange-correlation functional:
      J.P. Perdew, K. Burke and M. Ernzerhof, Phys. Rev. Lett. 77, 3865 (1996)

   Pseudopotentials:
      KF Garrity, JW Bennett, KM Rabe and D Vanderbilt, Comput. Mater. Sci. 81, 446 (2014)

   DFT-D3 dispersion correction:
      S. Grimme, J. Antony, S. Ehrlich and H. Krieg, J. Chem. Phys. 132, 154104 (2010)

   DFT-D2 dispersion correction:
      S. Grimme, J. Comput. Chem. 27, 1787 (2006)

   Charge-asymmetric nonlocally-determined local-electric (CANDLE) solvation model:
      R. Sundararaman and W.A. Goddard III, J. Chem. Phys. 142, 064107 (2015)

   Total energy minimization with Auxiliary Hamiltonian:
      C. Freysoldt, S. Boeck, and J. Neugebauer, Phys. Rev. B 79, 241103(R) (2009)

   Linear-tetrahedron sampling for density of states:
      G. Lehmann and M. Taut, Phys. status solidi (b) 54, 469 (1972)

This list may not be complete. Please suggest additional citations or
report any other bugs at https://github.com/shankar1729/jdftx/issues

Initialization completed successfully at t[s]:   3154.70


Computing DFT-D3 correction:
# coordination-number Pt 5.928 6.125 5.928 6.970 7.145 7.145 7.145 7.145 9.433 9.433 9.433 9.433 9.344 9.344 9.344 9.344 9.308 9.309 9.308 9.309 7.662 7.662 7.663 7.663 7.666 7.666 7.666 7.666 9.310 9.310 9.310 9.310 9.342 9.342 9.342 9.342 9.434 9.437 9.434 9.435 7.149 7.793 7.149 7.193 5.929 5.929 5.929 5.929
# coordination-number C 2.876
# coordination-number O 1.068
# diagonal-C6 Pt 336.87 336.87 336.87 336.87 336.87 336.87 336.87 336.87 336.87 336.87 336.87 336.87 336.87 336.87 336.87 336.87 336.87 336.87 336.87 336.87 336.87 336.87 336.87 336.87 336.87 336.87 336.87 336.87 336.87 336.87 336.87 336.87 336.87 336.87 336.87 336.87 336.87 336.87 336.87 336.87 336.87 336.87 336.87 336.87 336.87 336.87 336.87 336.87
# diagonal-C6 C 25.88
# diagonal-C6 O 12.76
EvdW_6 =   -0.379172
EvdW_8 =   -0.629896
Fluid solver invoked on fresh (random / LCAO) wavefunctions
Running a vacuum solve first:

-------- Initial electronic minimization -----------
	FillingsUpdate:  mu: +0.124875374  nElectrons: 778.000000  magneticMoment: [ Abs: 0.00257  Tot: +0.00003 ]
ElecMinimize: Iter:   0  F: -4291.196365100128787  |grad|_K:  5.806e-05  alpha:  1.000e+00
	FillingsUpdate:  mu: +0.169607085  nElectrons: 778.000000  magneticMoment: [ Abs: 0.00201  Tot: +0.00004 ]
	SubspaceRotationAdjust: set factor to 0.615
ElecMinimize: Iter:   1  F: -4291.863872456976424  |grad|_K:  6.416e-05  alpha:  4.282e-01  linmin:  3.283e-05  t[s]:   3415.22
	FillingsUpdate:  mu: +0.159796893  nElectrons: 778.000000  magneticMoment: [ Abs: 0.00198  Tot: +0.00003 ]
	SubspaceRotationAdjust: set factor to 0.293
ElecMinimize: Iter:   2  F: -4291.883508644102221  |grad|_K:  3.662e-05  alpha:  1.285e-02  linmin:  5.541e-04  t[s]:   3583.54
ElecMinimize: 	Predicted alpha/alphaT>3.000000, increasing alphaT to 3.855228e-02.
ElecMinimize: 	Predicted alpha/alphaT>3.000000, increasing alphaT to 1.156568e-01.
	FillingsUpdate:  mu: +0.166028763  nElectrons: 778.000000  magneticMoment: [ Abs: 0.00161  Tot: -0.00002 ]
	SubspaceRotationAdjust: set factor to 0.173
ElecMinimize: Iter:   3  F: -4291.999154797686060  |grad|_K:  4.129e-05  alpha:  2.287e-01  linmin: -1.018e-05  t[s]:   3836.89
	FillingsUpdate:  mu: +0.147523867  nElectrons: 778.000000  magneticMoment: [ Abs: 0.00145  Tot: -0.00002 ]
	SubspaceRotationAdjust: set factor to 0.111
	SubspaceRotationAdjust: resetting CG because factor has changed by 0.110751
ElecMinimize: 	State modified externally: resetting search direction.
ElecMinimize: Iter:   4  F: -4292.047023240547787  |grad|_K:  1.603e-05  alpha:  6.066e-02
	FillingsUpdate:  mu: +0.151607767  nElectrons: 778.000000  magneticMoment: [ Abs: 0.00135  Tot: -0.00003 ]
	SubspaceRotationAdjust: set factor to 0.0879
ElecMinimize: Iter:   5  F: -4292.067430649415655  |grad|_K:  1.437e-05  alpha:  1.700e-01  linmin:  8.356e-06  t[s]:   4253.58
	FillingsUpdate:  mu: +0.145240521  nElectrons: 778.000000  magneticMoment: [ Abs: 0.00118  Tot: -0.00003 ]
	SubspaceRotationAdjust: set factor to 0.0662
ElecMinimize: Iter:   6  F: -4292.085876282454592  |grad|_K:  7.120e-06  alpha:  1.913e-01  linmin: -4.160e-06  t[s]:   4422.39
	FillingsUpdate:  mu: +0.146725642  nElectrons: 778.000000  magneticMoment: [ Abs: 0.00094  Tot: -0.00004 ]
	SubspaceRotationAdjust: set factor to 0.0651
ElecMinimize: Iter:   7  F: -4292.096491958240222  |grad|_K:  5.332e-06  alpha:  4.484e-01  linmin:  8.011e-06  t[s]:   4590.81
	FillingsUpdate:  mu: +0.147053618  nElectrons: 778.000000  magneticMoment: [ Abs: 0.00078  Tot: -0.00004 ]
	SubspaceRotationAdjust: set factor to 0.0493
ElecMinimize: Iter:   8  F: -4292.101720727272550  |grad|_K:  4.438e-06  alpha:  3.940e-01  linmin: -1.306e-06  t[s]:   4760.14
	FillingsUpdate:  mu: +0.146674772  nElectrons: 778.000000  magneticMoment: [ Abs: 0.00071  Tot: -0.00004 ]
	SubspaceRotationAdjust: set factor to 0.0391
ElecMinimize: Iter:   9  F: -4292.103927960516558  |grad|_K:  2.273e-06  alpha:  2.400e-01  linmin:  6.763e-07  t[s]:   4929.13
	FillingsUpdate:  mu: +0.147006856  nElectrons: 778.000000  magneticMoment: [ Abs: 0.00067  Tot: -0.00005 ]
	SubspaceRotationAdjust: set factor to 0.0339
ElecMinimize: Iter:  10  F: -4292.104742771696692  |grad|_K:  1.680e-06  alpha:  3.376e-01  linmin: -2.670e-06  t[s]:   5097.61
	FillingsUpdate:  mu: +0.146748928  nElectrons: 778.000000  magneticMoment: [ Abs: 0.00063  Tot: -0.00005 ]
	SubspaceRotationAdjust: set factor to 0.0404
ElecMinimize: Iter:  11  F: -4292.105412954072563  |grad|_K:  1.414e-06  alpha:  5.081e-01  linmin:  2.415e-06  t[s]:   5266.62
	FillingsUpdate:  mu: +0.146177049  nElectrons: 778.000000  magneticMoment: [ Abs: 0.00059  Tot: -0.00005 ]
	SubspaceRotationAdjust: set factor to 0.0411
ElecMinimize: Iter:  12  F: -4292.105889636985921  |grad|_K:  1.289e-06  alpha:  5.108e-01  linmin:  2.027e-06  t[s]:   5435.84
	FillingsUpdate:  mu: +0.145902056  nElectrons: 778.000000  magneticMoment: [ Abs: 0.00058  Tot: -0.00005 ]
	SubspaceRotationAdjust: set factor to 0.0408
ElecMinimize: Iter:  13  F: -4292.106193126658582  |grad|_K:  1.023e-06  alpha:  3.914e-01  linmin:  2.886e-07  t[s]:   5604.46
	FillingsUpdate:  mu: +0.145813175  nElectrons: 778.000000  magneticMoment: [ Abs: 0.00055  Tot: -0.00006 ]
	SubspaceRotationAdjust: set factor to 0.049
ElecMinimize: Iter:  14  F: -4292.106500965724081  |grad|_K:  1.081e-06  alpha:  6.305e-01  linmin:  1.987e-06  t[s]:   5773.53
	FillingsUpdate:  mu: +0.145415589  nElectrons: 778.000000  magneticMoment: [ Abs: 0.00052  Tot: -0.00006 ]
	SubspaceRotationAdjust: set factor to 0.0492
ElecMinimize: Iter:  15  F: -4292.106835826814859  |grad|_K:  1.216e-06  alpha:  6.136e-01  linmin:  1.198e-06  t[s]:   5943.17
	FillingsUpdate:  mu: +0.144910569  nElectrons: 778.000000  magneticMoment: [ Abs: 0.00048  Tot: -0.00006 ]
	SubspaceRotationAdjust: set factor to 0.0424
ElecMinimize: Iter:  16  F: -4292.107127192371081  |grad|_K:  1.149e-06  alpha:  4.225e-01  linmin:  2.219e-07  t[s]:   6112.63
	FillingsUpdate:  mu: +0.144392887  nElectrons: 778.000000  magneticMoment: [ Abs: 0.00044  Tot: -0.00006 ]
	SubspaceRotationAdjust: set factor to 0.0434
ElecMinimize: Iter:  17  F: -4292.107419205886799  |grad|_K:  9.439e-07  alpha:  4.732e-01  linmin:  3.371e-07  t[s]:   6281.59
	FillingsUpdate:  mu: +0.143990833  nElectrons: 778.000000  magneticMoment: [ Abs: 0.00038  Tot: -0.00007 ]
	SubspaceRotationAdjust: set factor to 0.0418
ElecMinimize: Iter:  18  F: -4292.107655088538195  |grad|_K:  8.925e-07  alpha:  5.669e-01  linmin: -6.325e-07  t[s]:   6449.78
	FillingsUpdate:  mu: +0.143554704  nElectrons: 778.000000  magneticMoment: [ Abs: 0.00034  Tot: -0.00007 ]
	SubspaceRotationAdjust: set factor to 0.0379
ElecMinimize: Iter:  19  F: -4292.107810731759855  |grad|_K:  7.095e-07  alpha:  4.182e-01  linmin: -4.960e-07  t[s]:   6618.42
	FillingsUpdate:  mu: +0.143222279  nElectrons: 778.000000  magneticMoment: [ Abs: 0.00031  Tot: -0.00007 ]
	SubspaceRotationAdjust: set factor to 0.0339
ElecMinimize: Iter:  20  F: -4292.107909973249662  |grad|_K:  5.272e-07  alpha:  4.218e-01  linmin: -7.257e-07  t[s]:   6787.75
	FillingsUpdate:  mu: +0.143209644  nElectrons: 778.000000  magneticMoment: [ Abs: 0.00029  Tot: -0.00007 ]
	SubspaceRotationAdjust: set factor to 0.0343
ElecMinimize: Iter:  21  F: -4292.107964020569852  |grad|_K:  3.908e-07  alpha:  4.160e-01  linmin: -2.988e-07  t[s]:   6956.70
	FillingsUpdate:  mu: +0.143305984  nElectrons: 778.000000  magneticMoment: [ Abs: 0.00027  Tot: -0.00007 ]
	SubspaceRotationAdjust: set factor to 0.0372
ElecMinimize: Iter:  22  F: -4292.107998670311645  |grad|_K:  3.135e-07  alpha:  4.856e-01  linmin: -1.646e-07  t[s]:   7125.81
	FillingsUpdate:  mu: +0.143286920  nElectrons: 778.000000  magneticMoment: [ Abs: 0.00026  Tot: -0.00007 ]
	SubspaceRotationAdjust: set factor to 0.0356
ElecMinimize: Iter:  23  F: -4292.108018254821218  |grad|_K:  2.459e-07  alpha:  4.266e-01  linmin: -1.675e-07  t[s]:   7294.58
	FillingsUpdate:  mu: +0.143262027  nElectrons: 778.000000  magneticMoment: [ Abs: 0.00025  Tot: -0.00007 ]
	SubspaceRotationAdjust: set factor to 0.0422
ElecMinimize: Iter:  24  F: -4292.108031249375017  |grad|_K:  1.949e-07  alpha:  4.598e-01  linmin: -3.584e-08  t[s]:   7463.11
	FillingsUpdate:  mu: +0.143319223  nElectrons: 778.000000  magneticMoment: [ Abs: 0.00024  Tot: -0.00007 ]
	SubspaceRotationAdjust: set factor to 0.0497
ElecMinimize: Iter:  25  F: -4292.108041036427494  |grad|_K:  1.907e-07  alpha:  5.516e-01  linmin: -1.126e-07  t[s]:   7632.11
	FillingsUpdate:  mu: +0.143385120  nElectrons: 778.000000  magneticMoment: [ Abs: 0.00022  Tot: -0.00007 ]
	SubspaceRotationAdjust: set factor to 0.0494
ElecMinimize: Iter:  26  F: -4292.108049812272839  |grad|_K:  2.033e-07  alpha:  5.167e-01  linmin: -7.453e-08  t[s]:   7800.59
	FillingsUpdate:  mu: +0.143457243  nElectrons: 778.000000  magneticMoment: [ Abs: 0.00021  Tot: -0.00007 ]
	SubspaceRotationAdjust: set factor to 0.0512
ElecMinimize: Iter:  27  F: -4292.108058874413473  |grad|_K:  1.888e-07  alpha:  4.694e-01  linmin:  8.131e-08  t[s]:   7970.06
	FillingsUpdate:  mu: +0.143582612  nElectrons: 778.000000  magneticMoment: [ Abs: 0.00019  Tot: -0.00007 ]
	SubspaceRotationAdjust: set factor to 0.0557
ElecMinimize: Iter:  28  F: -4292.108069029460239  |grad|_K:  1.846e-07  alpha:  6.102e-01  linmin:  2.698e-07  t[s]:   8138.98
	FillingsUpdate:  mu: +0.143758639  nElectrons: 778.000000  magneticMoment: [ Abs: 0.00017  Tot: -0.00007 ]
	SubspaceRotationAdjust: set factor to 0.0537
ElecMinimize: Iter:  29  F: -4292.108077417265122  |grad|_K:  1.846e-07  alpha:  5.272e-01  linmin:  1.408e-07  t[s]:   8307.64
	FillingsUpdate:  mu: +0.143883190  nElectrons: 778.000000  magneticMoment: [ Abs: 0.00016  Tot: -0.00006 ]
	SubspaceRotationAdjust: set factor to 0.0495
ElecMinimize: Iter:  30  F: -4292.108084786270410  |grad|_K:  1.598e-07  alpha:  4.630e-01  linmin:  1.675e-07  t[s]:   8476.44
	FillingsUpdate:  mu: +0.143907487  nElectrons: 778.000000  magneticMoment: [ Abs: 0.00015  Tot: -0.00006 ]
	SubspaceRotationAdjust: set factor to 0.0407
ElecMinimize: Iter:  31  F: -4292.108089303721499  |grad|_K:  1.351e-07  alpha:  3.788e-01  linmin:  8.101e-08  t[s]:   8646.11
	FillingsUpdate:  mu: +0.143940255  nElectrons: 778.000000  magneticMoment: [ Abs: 0.00013  Tot: -0.00006 ]
	SubspaceRotationAdjust: set factor to 0.0391
ElecMinimize: Iter:  32  F: -4292.108092639236929  |grad|_K:  9.713e-08  alpha:  3.913e-01  linmin: -1.385e-07  t[s]:   8815.55
	FillingsUpdate:  mu: +0.143985861  nElectrons: 778.000000  magneticMoment: [ Abs: 0.00013  Tot: -0.00006 ]
	SubspaceRotationAdjust: set factor to 0.0428
ElecMinimize: Iter:  33  F: -4292.108094828577123  |grad|_K:  7.790e-08  alpha:  4.966e-01  linmin: -1.297e-07  t[s]:   8984.95
	FillingsUpdate:  mu: +0.143987303  nElectrons: 778.000000  magneticMoment: [ Abs: 0.00012  Tot: -0.00006 ]
	SubspaceRotationAdjust: set factor to 0.04
ElecMinimize: Iter:  34  F: -4292.108095994150062  |grad|_K:  6.160e-08  alpha:  4.111e-01  linmin: -1.642e-07  t[s]:   9154.42
	FillingsUpdate:  mu: +0.143981761  nElectrons: 778.000000  magneticMoment: [ Abs: 0.00012  Tot: -0.00006 ]
	SubspaceRotationAdjust: set factor to 0.0412
ElecMinimize: Iter:  35  F: -4292.108096708027006  |grad|_K:  4.614e-08  alpha:  4.027e-01  linmin: -5.399e-07  t[s]:   9323.73
	FillingsUpdate:  mu: +0.143986223  nElectrons: 778.000000  magneticMoment: [ Abs: 0.00011  Tot: -0.00006 ]
	SubspaceRotationAdjust: set factor to 0.0497
ElecMinimize: Iter:  36  F: -4292.108097186044688  |grad|_K:  3.738e-08  alpha:  4.806e-01  linmin:  2.390e-06  t[s]:   9492.95
	FillingsUpdate:  mu: +0.143981593  nElectrons: 778.000000  magneticMoment: [ Abs: 0.00011  Tot: -0.00006 ]
	SubspaceRotationAdjust: set factor to 0.0546
ElecMinimize: Iter:  37  F: -4292.108097508909850  |grad|_K:  3.484e-08  alpha:  4.947e-01  linmin:  6.265e-07  t[s]:   9662.44
	FillingsUpdate:  mu: +0.143967868  nElectrons: 778.000000  magneticMoment: [ Abs: 0.00011  Tot: -0.00006 ]
	SubspaceRotationAdjust: set factor to 0.0555
ElecMinimize: Iter:  38  F: -4292.108097743489452  |grad|_K:  3.148e-08  alpha:  4.146e-01  linmin: -3.245e-06  t[s]:   9831.01
	FillingsUpdate:  mu: +0.143950817  nElectrons: 778.000000  magneticMoment: [ Abs: 0.00010  Tot: -0.00006 ]
	SubspaceRotationAdjust: set factor to 0.0567
ElecMinimize: Iter:  39  F: -4292.108097943384564  |grad|_K:  2.843e-08  alpha:  4.310e-01  linmin: -1.204e-07  t[s]:   9999.12
	FillingsUpdate:  mu: +0.143936824  nElectrons: 778.000000  magneticMoment: [ Abs: 0.00010  Tot: -0.00006 ]
	SubspaceRotationAdjust: set factor to 0.0584
ElecMinimize: Iter:  40  F: -4292.108098124152093  |grad|_K:  2.495e-08  alpha:  4.781e-01  linmin: -7.277e-07  t[s]:  10168.71
	FillingsUpdate:  mu: +0.143920352  nElectrons: 778.000000  magneticMoment: [ Abs: 0.00010  Tot: -0.00006 ]
	SubspaceRotationAdjust: set factor to 0.0621
ElecMinimize: Iter:  41  F: -4292.108098271871313  |grad|_K:  2.147e-08  alpha:  5.074e-01  linmin: -1.184e-06  t[s]:  10337.42
	FillingsUpdate:  mu: +0.143908755  nElectrons: 778.000000  magneticMoment: [ Abs: 0.00009  Tot: -0.00006 ]
	SubspaceRotationAdjust: set factor to 0.0593
ElecMinimize: Iter:  42  F: -4292.108098371107189  |grad|_K:  1.946e-08  alpha:  4.588e-01  linmin: -2.619e-06  t[s]:  10505.94
	FillingsUpdate:  mu: +0.143903239  nElectrons: 778.000000  magneticMoment: [ Abs: 0.00009  Tot: -0.00006 ]
	SubspaceRotationAdjust: set factor to 0.0495
ElecMinimize: Iter:  43  F: -4292.108098431343024  |grad|_K:  1.674e-08  alpha:  3.390e-01  linmin:  6.421e-07  t[s]:  10675.77
ElecMinimize: Converged (|Delta F|<1.000000e-07 for 2 iters).
Setting wave functions to eigenvectors of Hamiltonian
Converging empty states (this may take a while): |deigs|: 2.615e-03
Vacuum energy after initial minimize, F = -4292.108098431343024


-------- Electronic minimization -----------
	Linear fluid (dielectric constant: 78.4, screening length: 8.12261 Bohr) occupying 0.496233 of unit cell:	Completed after 25 iterations at t[s]:  11668.75
	FillingsUpdate:  mu: -0.199228062  nElectrons: 778.000000  magneticMoment: [ Abs: 0.00006  Tot: -0.00005 ]
ElecMinimize: Iter:   0  F: -4292.119670358284566  |grad|_K:  8.959e-07  alpha:  1.000e+00
	Linear fluid (dielectric constant: 78.4, screening length: 8.12261 Bohr) occupying 0.496865 of unit cell:	Completed after 20 iterations at t[s]:  11815.98
	Linear fluid (dielectric constant: 78.4, screening length: 8.12261 Bohr) occupying 0.496541 of unit cell:	Completed after 17 iterations at t[s]:  11866.22
	FillingsUpdate:  mu: -0.198072638  nElectrons: 778.000000  magneticMoment: [ Abs: 0.00006  Tot: -0.00005 ]
	SubspaceRotationAdjust: set factor to 0.0421
ElecMinimize: Iter:   1  F: -4292.119853099691682  |grad|_K:  8.108e-07  alpha:  4.874e-01  linmin:  2.490e-07  t[s]:  11931.29
	Linear fluid (dielectric constant: 78.4, screening length: 8.12261 Bohr) occupying 0.497018 of unit cell:	Completed after 13 iterations at t[s]:  12000.06
	Linear fluid (dielectric constant: 78.4, screening length: 8.12261 Bohr) occupying 0.497205 of unit cell:	Completed after 11 iterations at t[s]:  12049.00
	FillingsUpdate:  mu: -0.196894802  nElectrons: 778.000000  magneticMoment: [ Abs: 0.00006  Tot: -0.00005 ]
	SubspaceRotationAdjust: set factor to 0.0486
ElecMinimize: Iter:   2  F: -4292.120061697240089  |grad|_K:  5.810e-07  alpha:  6.799e-01  linmin:  9.277e-08  t[s]:  12113.83
	Linear fluid (dielectric constant: 78.4, screening length: 8.12261 Bohr) occupying 0.497614 of unit cell:	Completed after 14 iterations at t[s]:  12182.88
	Linear fluid (dielectric constant: 78.4, screening length: 8.12261 Bohr) occupying 0.497519 of unit cell:	Completed after 7 iterations at t[s]:  12230.61
	FillingsUpdate:  mu: -0.196772120  nElectrons: 778.000000  magneticMoment: [ Abs: 0.00006  Tot: -0.00004 ]
	SubspaceRotationAdjust: set factor to 0.0517
ElecMinimize: Iter:   3  F: -4292.120143788633868  |grad|_K:  4.364e-07  alpha:  5.209e-01  linmin:  7.613e-08  t[s]:  12295.35
	Linear fluid (dielectric constant: 78.4, screening length: 8.12261 Bohr) occupying 0.497692 of unit cell:	Completed after 12 iterations at t[s]:  12363.78
	Linear fluid (dielectric constant: 78.4, screening length: 8.12261 Bohr) occupying 0.497717 of unit cell:	Completed after 3 iterations at t[s]:  12410.13
	FillingsUpdate:  mu: -0.196491438  nElectrons: 778.000000  magneticMoment: [ Abs: 0.00006  Tot: -0.00004 ]
	SubspaceRotationAdjust: set factor to 0.0574
ElecMinimize: Iter:   4  F: -4292.120196817888427  |grad|_K:  3.879e-07  alpha:  5.967e-01  linmin:  1.348e-07  t[s]:  12475.98
	Linear fluid (dielectric constant: 78.4, screening length: 8.12261 Bohr) occupying 0.497851 of unit cell:	Completed after 11 iterations at t[s]:  12543.93
	Linear fluid (dielectric constant: 78.4, screening length: 8.12261 Bohr) occupying 0.497878 of unit cell:	Completed after 4 iterations at t[s]:  12591.03
	FillingsUpdate:  mu: -0.195991356  nElectrons: 778.000000  magneticMoment: [ Abs: 0.00005  Tot: -0.00004 ]
	SubspaceRotationAdjust: set factor to 0.0622
ElecMinimize: Iter:   5  F: -4292.120247212914364  |grad|_K:  3.886e-07  alpha:  7.169e-01  linmin: -4.082e-07  t[s]:  12655.91
	Linear fluid (dielectric constant: 78.4, screening length: 8.12261 Bohr) occupying 0.498014 of unit cell:	Completed after 12 iterations at t[s]:  12724.38
	Linear fluid (dielectric constant: 78.4, screening length: 8.12261 Bohr) occupying 0.498007 of unit cell:	Completed after 2 iterations at t[s]:  12770.67
	FillingsUpdate:  mu: -0.195739836  nElectrons: 778.000000  magneticMoment: [ Abs: 0.00005  Tot: -0.00004 ]
	SubspaceRotationAdjust: set factor to 0.063
ElecMinimize: Iter:   6  F: -4292.120295475086095  |grad|_K:  4.021e-07  alpha:  6.809e-01  linmin: -8.249e-08  t[s]:  12835.54
	Linear fluid (dielectric constant: 78.4, screening length: 8.12261 Bohr) occupying 0.498126 of unit cell:	Completed after 11 iterations at t[s]:  12903.99
	Linear fluid (dielectric constant: 78.4, screening length: 8.12261 Bohr) occupying 0.498118 of unit cell:	Completed after 3 iterations at t[s]:  12950.78
	FillingsUpdate:  mu: -0.195535797  nElectrons: 778.000000  magneticMoment: [ Abs: 0.00005  Tot: -0.00004 ]
	SubspaceRotationAdjust: set factor to 0.059
ElecMinimize: Iter:   7  F: -4292.120343225702527  |grad|_K:  3.776e-07  alpha:  6.315e-01  linmin: -9.174e-08  t[s]:  13016.33
	Linear fluid (dielectric constant: 78.4, screening length: 8.12261 Bohr) occupying 0.498206 of unit cell:	Completed after 11 iterations at t[s]:  13084.38
	Linear fluid (dielectric constant: 78.4, screening length: 8.12261 Bohr) occupying 0.498199 of unit cell:	Completed after 3 iterations at t[s]:  13131.03
	FillingsUpdate:  mu: -0.195295510  nElectrons: 778.000000  magneticMoment: [ Abs: 0.00005  Tot: -0.00004 ]
	SubspaceRotationAdjust: set factor to 0.0508
ElecMinimize: Iter:   8  F: -4292.120382077828253  |grad|_K:  3.429e-07  alpha:  5.823e-01  linmin: -5.554e-08  t[s]:  13196.21
	Linear fluid (dielectric constant: 78.4, screening length: 8.12261 Bohr) occupying 0.498260 of unit cell:	Completed after 9 iterations at t[s]:  13263.61
	Linear fluid (dielectric constant: 78.4, screening length: 8.12261 Bohr) occupying 0.498252 of unit cell:	Completed after 3 iterations at t[s]:  13310.51
	FillingsUpdate:  mu: -0.195291902  nElectrons: 778.000000  magneticMoment: [ Abs: 0.00005  Tot: -0.00004 ]
	SubspaceRotationAdjust: set factor to 0.0432
ElecMinimize: Iter:   9  F: -4292.120409759852009  |grad|_K:  2.661e-07  alpha:  5.035e-01  linmin: -2.599e-08  t[s]:  13376.08
	Linear fluid (dielectric constant: 78.4, screening length: 8.12261 Bohr) occupying 0.498284 of unit cell:	Completed after 7 iterations at t[s]:  13443.09
	Linear fluid (dielectric constant: 78.4, screening length: 8.12261 Bohr) occupying 0.498287 of unit cell:	Completed after 2 iterations at t[s]:  13489.44
	FillingsUpdate:  mu: -0.195238256  nElectrons: 778.000000  magneticMoment: [ Abs: 0.00004  Tot: -0.00004 ]
	SubspaceRotationAdjust: set factor to 0.0433
ElecMinimize: Iter:  10  F: -4292.120427905869292  |grad|_K:  1.945e-07  alpha:  5.484e-01  linmin: -1.093e-07  t[s]:  13554.82
	Linear fluid (dielectric constant: 78.4, screening length: 8.12261 Bohr) occupying 0.498306 of unit cell:	Completed after 7 iterations at t[s]:  13622.15
	Linear fluid (dielectric constant: 78.4, screening length: 8.12261 Bohr) occupying 0.498306 of unit cell:	Completed after 0 iterations at t[s]:  13667.35
	FillingsUpdate:  mu: -0.195117694  nElectrons: 778.000000  magneticMoment: [ Abs: 0.00004  Tot: -0.00004 ]
	SubspaceRotationAdjust: set factor to 0.0473
ElecMinimize: Iter:  11  F: -4292.120437960228628  |grad|_K:  1.370e-07  alpha:  5.677e-01  linmin: -2.097e-07  t[s]:  13732.46
	Linear fluid (dielectric constant: 78.4, screening length: 8.12261 Bohr) occupying 0.498317 of unit cell:	Completed after 2 iterations at t[s]:  13797.69
	Linear fluid (dielectric constant: 78.4, screening length: 8.12261 Bohr) occupying 0.498318 of unit cell:	Completed after 0 iterations at t[s]:  13843.11
	FillingsUpdate:  mu: -0.195109424  nElectrons: 778.000000  magneticMoment: [ Abs: 0.00004  Tot: -0.00004 ]
	SubspaceRotationAdjust: set factor to 0.0542
ElecMinimize: Iter:  12  F: -4292.120443171582338  |grad|_K:  1.010e-07  alpha:  5.920e-01  linmin: -1.902e-07  t[s]:  13908.16
	Linear fluid (dielectric constant: 78.4, screening length: 8.12261 Bohr) occupying 0.498326 of unit cell:	Completed after 2 iterations at t[s]:  13974.37
	Linear fluid (dielectric constant: 78.4, screening length: 8.12261 Bohr) occupying 0.498326 of unit cell:	Completed after 0 iterations at t[s]:  14019.68
	FillingsUpdate:  mu: -0.195111154  nElectrons: 778.000000  magneticMoment: [ Abs: 0.00004  Tot: -0.00004 ]
	SubspaceRotationAdjust: set factor to 0.0638
ElecMinimize: Iter:  13  F: -4292.120446076741246  |grad|_K:  8.127e-08  alpha:  6.082e-01  linmin: -1.958e-07  t[s]:  14084.72
	Linear fluid (dielectric constant: 78.4, screening length: 8.12261 Bohr) occupying 0.498333 of unit cell:	Completed after 2 iterations at t[s]:  14149.75
	Linear fluid (dielectric constant: 78.4, screening length: 8.12261 Bohr) occupying 0.498333 of unit cell:	Completed after 0 iterations at t[s]:  14195.46
	FillingsUpdate:  mu: -0.195093268  nElectrons: 778.000000  magneticMoment: [ Abs: 0.00004  Tot: -0.00004 ]
	SubspaceRotationAdjust: set factor to 0.075
ElecMinimize: Iter:  14  F: -4292.120447966181018  |grad|_K:  7.311e-08  alpha:  6.110e-01  linmin: -6.298e-08  t[s]:  14260.48
	Linear fluid (dielectric constant: 78.4, screening length: 8.12261 Bohr) occupying 0.498340 of unit cell:	Completed after 3 iterations at t[s]:  14326.08
	Linear fluid (dielectric constant: 78.4, screening length: 8.12261 Bohr) occupying 0.498339 of unit cell:	Completed after 0 iterations at t[s]:  14371.95
	FillingsUpdate:  mu: -0.195088864  nElectrons: 778.000000  magneticMoment: [ Abs: 0.00004  Tot: -0.00004 ]
	SubspaceRotationAdjust: set factor to 0.0885
ElecMinimize: Iter:  15  F: -4292.120449337479840  |grad|_K:  6.678e-08  alpha:  5.490e-01  linmin:  1.129e-07  t[s]:  14436.87
	Linear fluid (dielectric constant: 78.4, screening length: 8.12261 Bohr) occupying 0.498346 of unit cell:	Completed after 2 iterations at t[s]:  14502.14
	Linear fluid (dielectric constant: 78.4, screening length: 8.12261 Bohr) occupying 0.498346 of unit cell:	Completed after 0 iterations at t[s]:  14548.75
	FillingsUpdate:  mu: -0.195100457  nElectrons: 778.000000  magneticMoment: [ Abs: 0.00004  Tot: -0.00003 ]
	SubspaceRotationAdjust: set factor to 0.104
ElecMinimize: Iter:  16  F: -4292.120450595578404  |grad|_K:  5.916e-08  alpha:  6.051e-01  linmin: -1.938e-07  t[s]:  14613.63
	Linear fluid (dielectric constant: 78.4, screening length: 8.12261 Bohr) occupying 0.498352 of unit cell:	Completed after 2 iterations at t[s]:  14678.60
	Linear fluid (dielectric constant: 78.4, screening length: 8.12261 Bohr) occupying 0.498353 of unit cell:	Completed after 0 iterations at t[s]:  14724.00
	FillingsUpdate:  mu: -0.195104759  nElectrons: 778.000000  magneticMoment: [ Abs: 0.00004  Tot: -0.00003 ]
	SubspaceRotationAdjust: set factor to 0.114
ElecMinimize: Iter:  17  F: -4292.120451661833613  |grad|_K:  5.411e-08  alpha:  6.497e-01  linmin: -4.362e-07  t[s]:  14788.56
	Linear fluid (dielectric constant: 78.4, screening length: 8.12261 Bohr) occupying 0.498359 of unit cell:	Completed after 3 iterations at t[s]:  14853.93
	Linear fluid (dielectric constant: 78.4, screening length: 8.12261 Bohr) occupying 0.498358 of unit cell:	Completed after 1 iterations at t[s]:  14899.82
	FillingsUpdate:  mu: -0.195106389  nElectrons: 778.000000  magneticMoment: [ Abs: 0.00004  Tot: -0.00003 ]
	SubspaceRotationAdjust: set factor to 0.105
ElecMinimize: Iter:  18  F: -4292.120452388126068  |grad|_K:  6.042e-08  alpha:  5.243e-01  linmin:  1.284e-06  t[s]:  14964.85
	Linear fluid (dielectric constant: 78.4, screening length: 8.12261 Bohr) occupying 0.498364 of unit cell:	Completed after 6 iterations at t[s]:  15031.46
	Linear fluid (dielectric constant: 78.4, screening length: 8.12261 Bohr) occupying 0.498361 of unit cell:	Completed after 2 iterations at t[s]:  15077.68
	FillingsUpdate:  mu: -0.195114259  nElectrons: 778.000000  magneticMoment: [ Abs: 0.00004  Tot: -0.00003 ]
	SubspaceRotationAdjust: set factor to 0.076
ElecMinimize: Iter:  19  F: -4292.120452790054514  |grad|_K:  4.702e-08  alpha:  2.470e-01  linmin:  7.583e-07  t[s]:  15142.63
	Linear fluid (dielectric constant: 78.4, screening length: 8.12261 Bohr) occupying 0.498363 of unit cell:	Completed after 2 iterations at t[s]:  15208.13
	Linear fluid (dielectric constant: 78.4, screening length: 8.12261 Bohr) occupying 0.498364 of unit cell:	Completed after 2 iterations at t[s]:  15254.49
	FillingsUpdate:  mu: -0.195115889  nElectrons: 778.000000  magneticMoment: [ Abs: 0.00003  Tot: -0.00003 ]
	SubspaceRotationAdjust: set factor to 0.0743
ElecMinimize: Iter:  20  F: -4292.120453215341513  |grad|_K:  3.233e-08  alpha:  4.062e-01  linmin: -3.189e-06  t[s]:  15319.28
	Linear fluid (dielectric constant: 78.4, screening length: 8.12261 Bohr) occupying 0.498366 of unit cell:	Completed after 1 iterations at t[s]:  15384.09
	Linear fluid (dielectric constant: 78.4, screening length: 8.12261 Bohr) occupying 0.498366 of unit cell:	Completed after 0 iterations at t[s]:  15430.58
	FillingsUpdate:  mu: -0.195117152  nElectrons: 778.000000  magneticMoment: [ Abs: 0.00003  Tot: -0.00003 ]
	SubspaceRotationAdjust: set factor to 0.0833
ElecMinimize: Iter:  21  F: -4292.120453492024353  |grad|_K:  2.619e-08  alpha:  5.327e-01  linmin: -1.144e-06  t[s]:  15495.95
	Linear fluid (dielectric constant: 78.4, screening length: 8.12261 Bohr) occupying 0.498368 of unit cell:	Completed after 2 iterations at t[s]:  15561.57
	Linear fluid (dielectric constant: 78.4, screening length: 8.12261 Bohr) occupying 0.498367 of unit cell:	Completed after 0 iterations at t[s]:  15606.93
	FillingsUpdate:  mu: -0.195129615  nElectrons: 778.000000  magneticMoment: [ Abs: 0.00003  Tot: -0.00003 ]
	SubspaceRotationAdjust: set factor to 0.0815
ElecMinimize: Iter:  22  F: -4292.120453619712862  |grad|_K:  2.596e-08  alpha:  4.014e-01  linmin:  7.124e-08  t[s]:  15671.80
	Linear fluid (dielectric constant: 78.4, screening length: 8.12261 Bohr) occupying 0.498369 of unit cell:	Completed after 2 iterations at t[s]:  15737.19
	Linear fluid (dielectric constant: 78.4, screening length: 8.12261 Bohr) occupying 0.498368 of unit cell:	Completed after 1 iterations at t[s]:  15783.24
	FillingsUpdate:  mu: -0.195128812  nElectrons: 778.000000  magneticMoment: [ Abs: 0.00003  Tot: -0.00003 ]
	SubspaceRotationAdjust: set factor to 0.0653
ElecMinimize: Iter:  23  F: -4292.120453690960858  |grad|_K:  1.965e-08  alpha:  2.379e-01  linmin:  6.000e-06  t[s]:  15848.10
	Linear fluid (dielectric constant: 78.4, screening length: 8.12261 Bohr) occupying 0.498369 of unit cell:	Completed after 0 iterations at t[s]:  15912.90
	Linear fluid (dielectric constant: 78.4, screening length: 8.12261 Bohr) occupying 0.498369 of unit cell:	Completed after 0 iterations at t[s]:  15958.39
	FillingsUpdate:  mu: -0.195129240  nElectrons: 778.000000  magneticMoment: [ Abs: 0.00003  Tot: -0.00003 ]
	SubspaceRotationAdjust: set factor to 0.0926
ElecMinimize: Iter:  24  F: -4292.120453749054832  |grad|_K:  1.481e-08  alpha:  3.446e-01  linmin: -8.510e-06  t[s]:  16023.31
ElecMinimize: Converged (|Delta F|<1.000000e-07 for 2 iters).
Setting wave functions to eigenvectors of Hamiltonian
Converging empty states (this may take a while): |deigs|: 7.237e-05
Single-point solvation energy estimate, DeltaF = -0.012355317711808

Computing DFT-D3 correction:
# coordination-number Pt 5.928 6.125 5.928 6.970 7.145 7.145 7.145 7.145 9.433 9.433 9.433 9.433 9.344 9.344 9.344 9.344 9.308 9.309 9.308 9.309 7.662 7.662 7.663 7.663 7.666 7.666 7.666 7.666 9.310 9.310 9.310 9.310 9.342 9.342 9.342 9.342 9.434 9.437 9.434 9.435 7.149 7.793 7.149 7.193 5.929 5.929 5.929 5.929
# coordination-number C 2.876
# coordination-number O 1.068
# diagonal-C6 Pt 336.87 336.87 336.87 336.87 336.87 336.87 336.87 336.87 336.87 336.87 336.87 336.87 336.87 336.87 336.87 336.87 336.87 336.87 336.87 336.87 336.87 336.87 336.87 336.87 336.87 336.87 336.87 336.87 336.87 336.87 336.87 336.87 336.87 336.87 336.87 336.87 336.87 336.87 336.87 336.87 336.87 336.87 336.87 336.87 336.87 336.87 336.87 336.87
# diagonal-C6 C 25.88
# diagonal-C6 O 12.76
EvdW_6 =   -0.379172
EvdW_8 =   -0.629896

# Ionic positions in cartesian coordinates:
ion Pt   0.000220000000000   0.307628000000000  17.100908000000000 0
ion Pt   0.000220000000000  13.123347000000001  17.100908000000000 0
ion Pt   5.232205000000001   0.307628000000000  17.100908000000000 0
ion Pt   5.232205000000001  13.123347000000001  17.100908000000000 0
ion Pt  10.463699000000000   4.022239000000000   2.178053000000000 0
ion Pt  10.463699000000000  16.837956999999999   2.178053000000000 0
ion Pt   5.231692000000000   4.022239000000000   2.178053000000000 0
ion Pt   5.231692000000000  16.837956999999999   2.178053000000000 0
ion Pt  10.463981000000000   8.528655000000001   5.417403000000000 0
ion Pt  10.463981000000000  21.344373999999998   5.417403000000000 0
ion Pt   5.231975000000000   8.528655000000001   5.417403000000000 0
ion Pt   5.231975000000000  21.344373999999998   5.417403000000000 0
ion Pt  10.463844999999999  25.622132000000001   8.238791000000001 0
ion Pt  10.463844999999999  12.806414000000000   8.238791000000001 0
ion Pt   5.231849000000001  25.622132000000001   8.238791000000001 0
ion Pt   5.231849000000001  12.806414000000000   8.238791000000001 0
ion Pt   0.000157000000000   4.349296000000000  11.332694000000000 0
ion Pt   0.000157000000000  17.165013999999999  11.332694000000000 0
ion Pt   5.232153000000001   4.349296000000000  11.332694000000000 0
ion Pt   5.232153000000001  17.165013999999999  11.332694000000000 0
ion Pt   0.000303000000000   8.653275000000001  14.682311000000000 0
ion Pt   0.000303000000000  21.469018999999999  14.682311000000000 0
ion Pt   5.232310000000000   8.653275000000001  14.682311000000000 0
ion Pt   5.232310000000000  21.469018999999999  14.682311000000000 0
ion Pt   2.615715000000000  25.523040999999999   3.443627000000001 0
ion Pt   2.615715000000000  12.707296999999999   3.443627000000001 0
ion Pt   7.847711000000000  25.523040999999999   3.443627000000001 0
ion Pt   7.847711000000000  12.707296999999999   3.443627000000001 0
ion Pt   2.615810000000000   4.193175000000000   6.787100000000000 0
ion Pt   2.615810000000000  17.008893000000000   6.787100000000000 0
ion Pt   7.847806000000000   4.193175000000000   6.787100000000000 0
ion Pt   7.847806000000000  17.008893000000000   6.787100000000000 0
ion Pt   2.616155000000000   8.553081999999998   9.886386000000000 0
ion Pt   2.616155000000000  21.368799999999997   9.886386000000000 0
ion Pt   7.848151000000000   8.553081999999998   9.886386000000000 0
ion Pt   7.848151000000000  21.368799999999997   9.886386000000000 0
ion Pt   2.615998000000000   0.014841000000000  12.709460000000000 0
ion Pt   2.615998000000000  12.830558999999997  12.709460000000000 0
ion Pt   7.847994000000001   0.014841000000000  12.709460000000000 0
ion Pt   7.847994000000001  12.830558999999997  12.709460000000000 0
ion Pt   2.616322000000000   4.520642000000000  15.941687000000002 0
ion Pt   2.616322000000000  17.336386000000001  15.941687000000002 0
ion Pt   7.848318000000000   4.520642000000000  15.941687000000002 0
ion Pt   7.848318000000000  17.336386000000001  15.941687000000002 0
ion Pt   2.615768000000000   8.237738999999999   1.026553000000000 0
ion Pt   2.615768000000000  21.053457000000002   1.026553000000000 0
ion Pt   7.847764000000001   8.237738999999999   1.026553000000000 0
ion Pt   7.847764000000001  21.053457000000002   1.026553000000000 0
ion C   3.924269000000000  15.229865999999999  19.757003999999998 1  Linear 0 0 1
ion O   3.984353000000000  15.229865999999999  21.912383999999999 1  Linear 0 0 1

# Forces in Cartesian coordinates:
force Pt  -0.000122967257586  -0.000199743043140  -0.000084439678552 0
force Pt  -0.006464221034817  -0.004512209095871  -0.000863761637774 0
force Pt   0.000028199461551  -0.000015851768422  -0.000177661991792 0
force Pt   0.006226753755679  -0.008000401820061  -0.003590329184519 0
force Pt   0.000195187132759   0.001028692922884  -0.000177593255726 0
force Pt   0.000576651348132   0.000419608749547  -0.000189675180758 0
force Pt  -0.000178137772617   0.000644212933496  -0.000346858426038 0
force Pt  -0.000823764577559   0.000606382181084  -0.000840510571458 0
force Pt   0.000308591158313   0.001189127016526  -0.000359032864565 0
force Pt   0.000209260917139   0.000275465204740  -0.000528952966590 0
force Pt  -0.000244852856907   0.000805716282322  -0.000403767893887 0
force Pt  -0.000232924262667  -0.000034732216250  -0.000543711969511 0
force Pt  -0.000214536289527   0.000381580074133  -0.000405647107977 0
force Pt   0.001309538282387   0.001450455613362  -0.004732763502739 0
force Pt   0.000170790378576  -0.000314947716067  -0.000682991922640 0
force Pt  -0.000725679971922   0.000953491634010   0.000114550617966 0
force Pt  -0.000058480663612  -0.000052599837702   0.000103781745304 0
force Pt   0.001342672787043  -0.001502151972588   0.001524168906147 0
force Pt   0.000184153572206   0.000199248542543  -0.000605512021296 0
force Pt  -0.000538458040473  -0.000077744004304  -0.000790964026757 0
force Pt   0.000038033976499  -0.000291528637724  -0.001088555224975 0
force Pt   0.000445680647156  -0.000654890323732  -0.000769249479392 0
force Pt   0.000530482261191   0.001593477312092  -0.001482717379009 0
force Pt   0.000048718863009   0.001519643508719  -0.001469040521569 0
force Pt   0.000027453056708  -0.000668428765611   0.000154959307905 0
force Pt   0.000344210329080  -0.000497040412584  -0.001232148641454 0
force Pt  -0.000001439016437  -0.000345138100313   0.000331926101472 0
force Pt   0.000062132300736  -0.000581585912209   0.000294320428406 0
force Pt   0.000099628151882   0.000545867951023   0.000590797158450 0
force Pt   0.000130383743287  -0.000548898102675   0.001461799078963 0
force Pt  -0.000071486039093   0.000286096842667   0.000584925058770 0
force Pt  -0.000618768945862  -0.000283583708944  -0.001524347069142 0
force Pt  -0.000236855299002  -0.000081029980212   0.000560845065060 0
force Pt   0.000220472457575  -0.000232003034380   0.000363867408324 0
force Pt   0.000228902973171   0.000136797710688   0.000817792536395 0
force Pt  -0.000045218702028  -0.000758851580081   0.000467261501838 0
force Pt  -0.000055061443329  -0.000963533696575   0.000320021827144 0
force Pt  -0.001690812251783  -0.003903698445777  -0.006527424971624 0
force Pt   0.000118850052179  -0.000820301915470   0.000703215788347 0
force Pt   0.000646366748476  -0.002312501597261   0.002380906736835 0
force Pt   0.000276846155401  -0.000362415729269   0.000172466585297 0
force Pt  -0.000993488239385   0.005667776490816   0.018963724694719 0
force Pt  -0.000113468615201  -0.000124276108165   0.000455403437645 0
force Pt   0.006428413895585   0.007022888626366  -0.005086951641998 0
force Pt   0.000462224352476  -0.000293218185150   0.000081748729485 0
force Pt   0.000231549627068  -0.000355421022107   0.000205727822880 0
force Pt  -0.000430540839122  -0.000252209087207   0.000262289194777 0
force Pt  -0.000377710305584  -0.000015383859159   0.000249162835833 0
force C   0.000440437910864  -0.014471214171210  -0.065095112170388 1  Linear 0 0 1
force O  -0.007090108362767   0.018676604014119   0.068134396710306 1  Linear 0 0 1

# Energy components:
   A_diel =       -0.0133118063736895
   Eewald =    24293.3700841245336051
       EH =    28187.0747187267661502
     Eloc =   -57521.5740488205265137
      Enl =      -47.3946584301808471
     EvdW =       -1.0090673762015903
      Exc =    -1370.6043471626726387
 Exc_core =      786.8850488865225543
       KE =     1381.1532504728820641
-------------------------------------
     Etot =    -4292.1123313852522188
       TS =        0.0081223638025228
-------------------------------------
        F =    -4292.1204537490548319


Dumping 'jdft.fillings' ... done
Dumping 'jdft.wfns' ... done
Dumping 'jdft.fluidState' ... done
Dumping 'jdft.ionpos' ... done
Dumping 'jdft.lattice' ... done
Dumping 'jdft.eigenvals' ... done
Dumping 'jdft.eigStats' ... 
	eMin: -2.150903 at state 8 ( [ +0.000000 +0.000000 +0.000000 ] spin -1 )
	HOMO: -0.195168 at state 7 ( [ +0.500000 +0.500000 +0.000000 ] spin 1 )
	mu  : -0.195129
	LUMO: -0.195088 at state 12 ( [ +0.333333 +0.000000 +0.000000 ] spin -1 )
	eMax: +0.086942 at state 5 ( [ +0.333333 +0.500000 +0.000000 ] spin 1 )
	HOMO-LUMO gap: +0.000080
[...]
force Pt   0.000035016346005   0.000001689107962  -0.000332064827922 0
force Pt   0.006253727804526  -0.007759512946195  -0.001855542465535 0
force Pt   0.000193577223716   0.000963738003385  -0.000155799459301 0
force Pt   0.000591061997226   0.000380394965803  -0.000251278776816 0
force Pt  -0.000174052408137   0.000582677101251  -0.000331844366575 0
force Pt  -0.000850063496006   0.000559070776419  -0.000907003486725 0
force Pt   0.000310204637659   0.001138000652708  -0.000323485062218 0
force Pt   0.000212680158420   0.000335795932358  -0.000521039435022 0
force Pt  -0.000247324756907   0.000745439245635  -0.000375429691805 0
force Pt  -0.000235680400190   0.000027801577651  -0.000532763248767 0
force Pt  -0.000213512629739   0.000450096919640  -0.000258702388034 0
force Pt   0.001332738545983   0.001410654387641  -0.004684803732147 0
force Pt   0.000172361197998  -0.000246606000484  -0.000541032839736 0
force Pt  -0.000711176028554   0.000891400878563   0.000192940150370 0
force Pt  -0.000068641208685  -0.000082083392395   0.000169221099793 0
force Pt   0.001373085897946  -0.001458335898736   0.001715897538999 0
force Pt   0.000188368114403   0.000169430909725  -0.000542949508381 0
force Pt  -0.000588430705497  -0.000009900318727  -0.000702511445537 0
force Pt   0.000025153001779  -0.000360716453519  -0.001210702286489 0
force Pt   0.000443056556128  -0.000558152816420  -0.000878894510252 0
force Pt   0.000499280540297   0.001550968854275  -0.001597792966454 0
force Pt   0.000058744464128   0.001619430912797  -0.001605574664818 0
force Pt   0.000028868750673  -0.000613881504745   0.000154200925771 0
force Pt   0.000366883139398  -0.000510990282457  -0.001283127292516 0
force Pt  -0.000005146244672  -0.000287483907754   0.000331107727469 0
force Pt   0.000051533402922  -0.000598461254964   0.000230945487718 0
force Pt   0.000099502567567   0.000510105598416   0.000701535872745 0
force Pt   0.000133624689276  -0.000554907300919   0.001519475643401 0
force Pt  -0.000070987005869   0.000253255135294   0.000697188624101 0
force Pt  -0.000624628043330  -0.000282560160446  -0.001491722420575 0
force Pt  -0.000232693136257  -0.000168662283784   0.000637553664929 0
force Pt   0.000219934373935  -0.000119307128500   0.000450440497353 0
force Pt   0.000231039186220   0.000054639426482   0.000888505787686 0
force Pt  -0.000041712286734  -0.000656407585440   0.000545804331743 0
force Pt  -0.000057412146296  -0.000889075985639   0.000327101260419 0
force Pt  -0.001650465036726  -0.004007182658922  -0.006505919687200 0
force Pt   0.000117773946676  -0.000740779507019   0.000715303486729 0
force Pt   0.000637468521286  -0.002345705223720   0.002516502093175 0
force Pt   0.000278897343790  -0.000403386161642  -0.000035741591910 0
force Pt  -0.000739055670185   0.005323363989467   0.020022410702536 0
force Pt  -0.000114588525835  -0.000160902234463   0.000262208901760 0
force Pt   0.006420542246434   0.007084230830289  -0.005176339794231 0
force Pt   0.000467871661710  -0.000287039931967   0.000031714218682 0
force Pt   0.000231503723913  -0.000303562971153   0.000162052607045 0
force Pt  -0.000430853469843  -0.000248005802438   0.000224464860074 0
force Pt  -0.000375686663951   0.000042020043610   0.000207390278625 0
force C   0.000998280934560  -0.013393189018489   0.000077791018570 1  Linear 0 0 1
force O  -0.008280208114175   0.017419119206564  -0.000220480968731 1  Linear 0 0 1

# Energy components:
   A_diel =       -0.0137916474597485
   Eewald =    24290.0606880753330188
       EH =    28182.9071510812536872
     Eloc =   -57514.0221459487220272
      Enl =      -47.4209657911146394
     EvdW =       -1.0090362094418284
      Exc =    -1370.5760775772687339
 Exc_core =      786.8850537370902885
       KE =     1381.0747005806792913
-------------------------------------
     Etot =    -4292.1144236996497057
       TS =        0.0081252048736859
-------------------------------------
        F =    -4292.1225489045236827


Dumping 'jdft.fillings' ... done
Dumping 'jdft.wfns' ... done
Dumping 'jdft.fluidState' ... done
Dumping 'jdft.ionpos' ... done
Dumping 'jdft.lattice' ... done
Dumping 'jdft.eigenvals' ... done
Dumping 'jdft.eigStats' ... 
	eMin: -2.152496 at state 8 ( [ +0.000000 +0.000000 +0.000000 ] spin -1 )
	HOMO: -0.196072 at state 7 ( [ +0.500000 +0.500000 +0.000000 ] spin 1 )
	mu  : -0.196063
	LUMO: -0.196027 at state 8 ( [ +0.000000 +0.000000 +0.000000 ] spin -1 )
	eMax: +0.086224 at state 5 ( [ +0.333333 +0.500000 +0.000000 ] spin 1 )
	HOMO-LUMO gap: +0.000044
	Optical gap  : +0.000106 at state 15 ( [ +0.500000 +0.500000 +0.000000 ] spin -1 )
Dumping 'jdft.Ecomponents' ... done
IonicMinimize: Iter:   9  F: -4292.122548904523683  |grad|_K:  1.653e-04  alpha:  1.767e-02  linmin:  1.737e-03  t[s]:  46564.15

#--- Lowdin population analysis ---
# oxidation-state Pt +0.058 +0.017 +0.057 -0.044 +0.013 +0.014 +0.012 +0.014 -0.012 -0.011 -0.011 -0.010 +0.017 +0.009 +0.017 +0.017 +0.012 +0.006 +0.010 +0.008 -0.008 -0.008 -0.026 -0.005 -0.009 -0.010 -0.010 -0.008 +0.011 +0.013 +0.012 +0.007 +0.018 +0.016 +0.019 +0.017 -0.011 -0.017 -0.011 -0.033 +0.011 -0.052 +0.012 +0.005 +0.057 +0.058 +0.057 +0.060
# magnetic-moments Pt -0.000 -0.000 -0.000 -0.000 -0.000 -0.000 -0.000 -0.000 -0.000 -0.000 -0.000 -0.000 -0.000 -0.000 -0.000 -0.000 -0.000 -0.000 -0.000 -0.000 -0.000 -0.000 -0.000 -0.000 -0.000 -0.000 -0.000 -0.000 -0.000 -0.000 -0.000 -0.000 -0.000 -0.000 -0.000 -0.000 -0.000 -0.000 -0.000 -0.000 -0.000 -0.000 -0.000 -0.000 -0.000 -0.000 -0.000 -0.000
# oxidation-state C +0.435
# magnetic-moments C +0.000
# oxidation-state O -0.135
# magnetic-moments O -0.000


Computing DFT-D3 correction:
# coordination-number Pt 5.928 6.126 5.928 6.965 7.145 7.145 7.145 7.145 9.433 9.433 9.433 9.433 9.344 9.344 9.344 9.344 9.308 9.309 9.308 9.309 7.662 7.662 7.663 7.663 7.666 7.666 7.666 7.666 9.310 9.310 9.310 9.310 9.342 9.342 9.342 9.342 9.434 9.437 9.434 9.435 7.149 7.798 7.149 7.194 5.929 5.929 5.929 5.929
# coordination-number C 2.884
# coordination-number O 1.061
# diagonal-C6 Pt 336.87 336.87 336.87 336.87 336.87 336.87 336.87 336.87 336.87 336.87 336.87 336.87 336.87 336.87 336.87 336.87 336.87 336.87 336.87 336.87 336.87 336.87 336.87 336.87 336.87 336.87 336.87 336.87 336.87 336.87 336.87 336.87 336.87 336.87 336.87 336.87 336.87 336.87 336.87 336.87 336.87 336.87 336.87 336.87 336.87 336.87 336.87 336.87
# diagonal-C6 C 25.86
# diagonal-C6 O 12.76
EvdW_6 =   -0.379165
EvdW_8 =   -0.629871

-------- Electronic minimization -----------
	Linear fluid (dielectric constant: 78.4, screening length: 8.12261 Bohr) occupying 0.498131 of unit cell:	Completed after 6 iterations at t[s]:  46642.94
	FillingsUpdate:  mu: -0.196144173  nElectrons: 778.000000  magneticMoment: [ Abs: 0.00000  Tot: -0.00000 ]
ElecMinimize: Iter:   0  F: -4292.122548505059967  |grad|_K:  5.445e-08  alpha:  1.000e+00
	Linear fluid (dielectric constant: 78.4, screening length: 8.12261 Bohr) occupying 0.498133 of unit cell:	Completed after 10 iterations at t[s]:  46786.72
	Linear fluid (dielectric constant: 78.4, screening length: 8.12261 Bohr) occupying 0.498132 of unit cell:	Completed after 9 iterations at t[s]:  46835.36
	FillingsUpdate:  mu: -0.196060360  nElectrons: 778.000000  magneticMoment: [ Abs: 0.00000  Tot: -0.00000 ]
	SubspaceRotationAdjust: set factor to 0.0787
ElecMinimize: Iter:   1  F: -4292.122548855638343  |grad|_K:  1.723e-08  alpha:  2.489e-01  linmin:  6.842e-04  t[s]:  46900.41
	Linear fluid (dielectric constant: 78.4, screening length: 8.12261 Bohr) occupying 0.498132 of unit cell:	Completed after 1 iterations at t[s]:  46965.77
	Linear fluid (dielectric constant: 78.4, screening length: 8.12261 Bohr) occupying 0.498132 of unit cell:	Completed after 2 iterations at t[s]:  47012.40
	FillingsUpdate:  mu: -0.196048329  nElectrons: 778.000000  magneticMoment: [ Abs: 0.00000  Tot: -0.00000 ]
	SubspaceRotationAdjust: set factor to 0.0856
ElecMinimize: Iter:   2  F: -4292.122548911751437  |grad|_K:  1.161e-08  alpha:  4.960e-01  linmin:  1.466e-02  t[s]:  47077.52
	Linear fluid (dielectric constant: 78.4, screening length: 8.12261 Bohr) occupying 0.498132 of unit cell:	Completed after 2 iterations at t[s]:  47143.41
	Linear fluid (dielectric constant: 78.4, screening length: 8.12261 Bohr) occupying 0.498132 of unit cell:	Completed after 0 iterations at t[s]:  47189.50
	FillingsUpdate:  mu: -0.196056059  nElectrons: 778.000000  magneticMoment: [ Abs: 0.00000  Tot: -0.00000 ]
	SubspaceRotationAdjust: set factor to 0.0673
ElecMinimize: Iter:   3  F: -4292.122548930507037  |grad|_K:  1.025e-08  alpha:  3.313e-01  linmin:  1.087e-02  t[s]:  47254.90
ElecMinimize: Converged (|Delta F|<1.000000e-07 for 2 iters).
Setting wave functions to eigenvectors of Hamiltonian
Converging empty states (this may take a while): |deigs|: 1.640e-09

Computing DFT-D3 correction:
# coordination-number Pt 5.928 6.126 5.928 6.965 7.145 7.145 7.145 7.145 9.433 9.433 9.433 9.433 9.344 9.344 9.344 9.344 9.308 9.309 9.308 9.309 7.662 7.662 7.663 7.663 7.666 7.666 7.666 7.666 9.310 9.310 9.310 9.310 9.342 9.342 9.342 9.342 9.434 9.437 9.434 9.435 7.149 7.798 7.149 7.194 5.929 5.929 5.929 5.929
# coordination-number C 2.884
# coordination-number O 1.061
# diagonal-C6 Pt 336.87 336.87 336.87 336.87 336.87 336.87 336.87 336.87 336.87 336.87 336.87 336.87 336.87 336.87 336.87 336.87 336.87 336.87 336.87 336.87 336.87 336.87 336.87 336.87 336.87 336.87 336.87 336.87 336.87 336.87 336.87 336.87 336.87 336.87 336.87 336.87 336.87 336.87 336.87 336.87 336.87 336.87 336.87 336.87 336.87 336.87 336.87 336.87
# diagonal-C6 C 25.86
# diagonal-C6 O 12.76
EvdW_6 =   -0.379165
EvdW_8 =   -0.629871

# Ionic positions in cartesian coordinates:
ion Pt   0.000220000000000   0.307628000000000  17.100908000000000 0
ion Pt   0.000220000000000  13.123347000000001  17.100908000000000 0
ion Pt   5.232205000000001   0.307628000000000  17.100908000000000 0
ion Pt   5.232205000000001  13.123347000000001  17.100908000000000 0
ion Pt  10.463699000000000   4.022239000000000   2.178053000000000 0
ion Pt  10.463699000000000  16.837956999999999   2.178053000000000 0
ion Pt   5.231692000000000   4.022239000000000   2.178053000000000 0
ion Pt   5.231692000000000  16.837956999999999   2.178053000000000 0
ion Pt  10.463981000000000   8.528655000000001   5.417403000000000 0
ion Pt  10.463981000000000  21.344373999999998   5.417403000000000 0
ion Pt   5.231975000000000   8.528655000000001   5.417403000000000 0
ion Pt   5.231975000000000  21.344373999999998   5.417403000000000 0
ion Pt  10.463844999999999  25.622132000000001   8.238791000000001 0
ion Pt  10.463844999999999  12.806414000000000   8.238791000000001 0
ion Pt   5.231849000000001  25.622132000000001   8.238791000000001 0
ion Pt   5.231849000000001  12.806414000000000   8.238791000000001 0
ion Pt   0.000157000000000   4.349296000000000  11.332694000000000 0
ion Pt   0.000157000000000  17.165013999999999  11.332694000000000 0
ion Pt   5.232153000000001   4.349296000000000  11.332694000000000 0
ion Pt   5.232153000000001  17.165013999999999  11.332694000000000 0
ion Pt   0.000303000000000   8.653275000000001  14.682311000000000 0
ion Pt   0.000303000000000  21.469018999999999  14.682311000000000 0
ion Pt   5.232310000000000   8.653275000000001  14.682311000000000 0
ion Pt   5.232310000000000  21.469018999999999  14.682311000000000 0
ion Pt   2.615715000000000  25.523040999999999   3.443627000000001 0
ion Pt   2.615715000000000  12.707296999999999   3.443627000000001 0
ion Pt   7.847711000000000  25.523040999999999   3.443627000000001 0
ion Pt   7.847711000000000  12.707296999999999   3.443627000000001 0
ion Pt   2.615810000000000   4.193175000000000   6.787100000000000 0
ion Pt   2.615810000000000  17.008893000000000   6.787100000000000 0
ion Pt   7.847806000000000   4.193175000000000   6.787100000000000 0
ion Pt   7.847806000000000  17.008893000000000   6.787100000000000 0
ion Pt   2.616155000000000   8.553081999999998   9.886386000000000 0
ion Pt   2.616155000000000  21.368799999999997   9.886386000000000 0
ion Pt   7.848151000000000   8.553081999999998   9.886386000000000 0
ion Pt   7.848151000000000  21.368799999999997   9.886386000000000 0
ion Pt   2.615998000000000   0.014841000000000  12.709460000000000 0
ion Pt   2.615998000000000  12.830558999999997  12.709460000000000 0
ion Pt   7.847994000000001   0.014841000000000  12.709460000000000 0
ion Pt   7.847994000000001  12.830558999999997  12.709460000000000 0
ion Pt   2.616322000000000   4.520642000000000  15.941687000000002 0
ion Pt   2.616322000000000  17.336386000000001  15.941687000000002 0
ion Pt   7.848318000000000   4.520642000000000  15.941687000000002 0
ion Pt   7.848318000000000  17.336386000000001  15.941687000000002 0
ion Pt   2.615768000000000   8.237738999999999   1.026553000000000 0
ion Pt   2.615768000000000  21.053457000000002   1.026553000000000 0
ion Pt   7.847764000000001   8.237738999999999   1.026553000000000 0
ion Pt   7.847764000000001  21.053457000000002   1.026553000000000 0
ion C   3.924269000000000  15.229865999999999  19.749564009650452 1  Linear 0 0 1
ion O   3.984353000000000  15.229865999999999  21.969535440485455 1  Linear 0 0 1

# Forces in Cartesian coordinates:
force Pt  -0.000129190416819  -0.000183391788794  -0.000201842658654 0
force Pt  -0.006165007507767  -0.004347294185940  -0.000374652048162 0
force Pt   0.000035040207550   0.000004487298250  -0.000294633135966 0
force Pt   0.006260954012959  -0.007751132414907  -0.001765245030303 0
force Pt   0.000193551942229   0.000960471505543  -0.000127241861909 0
force Pt   0.000590874297162   0.000413188496645  -0.000259711903677 0
force Pt  -0.000174043972671   0.000580151334924  -0.000303258039957 0
force Pt  -0.000849698101551   0.000591681233801  -0.000915611497742 0
force Pt   0.000310475740581   0.001104703015746  -0.000394965457554 0
force Pt   0.000211783649514   0.000351165098550  -0.000530927865249 0
force Pt  -0.000247580370607   0.000711605398161  -0.000446702992824 0
force Pt  -0.000235098139911   0.000043317085250  -0.000543587526525 0
force Pt  -0.000213478855054   0.000408520591818  -0.000285921858478 0
force Pt   0.001332484854817   0.001452443640331  -0.004740242958127 0
force Pt   0.000172377796781  -0.000288050084742  -0.000568156161287 0
force Pt  -0.000710627981501   0.000933722743844   0.000140057817290 0
force Pt  -0.000068649500182  -0.000152165997813   0.000216872651958 0
force Pt   0.001372801572962  -0.001384367845251   0.001757108199352 0
force Pt   0.000188537083322   0.000099295255447  -0.000495874396326 0
force Pt  -0.000588372989799   0.000062155334940  -0.000661597396767 0
force Pt   0.000023693371393  -0.000381656792430  -0.001048007817255 0
force Pt   0.000442667744114  -0.000537676141335  -0.000782592300745 0
force Pt   0.000500740365383   0.001528894501438  -0.001437408715289 0
force Pt   0.000059045456775   0.001640617365353  -0.001510606893059 0
force Pt   0.000029027573754  -0.000653651450019   0.000195425545475 0
force Pt   0.000366711787247  -0.000495982893395  -0.001330653757625 0
force Pt  -0.000005244560736  -0.000327980053543   0.000372518451003 0
force Pt   0.000051699615443  -0.000583443852415   0.000185159090880 0
force Pt   0.000099397843680   0.000447277096319   0.000648362266694 0
force Pt   0.000133508712448  -0.000487751562214   0.001467171806051 0
force Pt  -0.000071166847186   0.000190539789057   0.000643984247308 0
force Pt  -0.000624850198115  -0.000214688428674  -0.001545423549366 0
force Pt  -0.000231901512650  -0.000203244764475   0.000645531781388 0
force Pt   0.000220157668941  -0.000084324945621   0.000444683614835 0
force Pt   0.000230290217757   0.000020829754431   0.000896621146191 0
force Pt  -0.000042142811477  -0.000620925692597   0.000539328316555 0
force Pt  -0.000057797690337  -0.000922247574938   0.000395761398961 0
force Pt  -0.001650434583441  -0.003985078607138  -0.006401446742884 0
force Pt   0.000117904991382  -0.000774597826936   0.000783869965620 0
force Pt   0.000637850159732  -0.002323272097741   0.002624127782263 0
force Pt   0.000278353062880  -0.000430529499591   0.000080343831390 0
force Pt  -0.000745028382386   0.005378602480851   0.020119122821724 0
force Pt  -0.000114084946953  -0.000187488753766   0.000378467470117 0
force Pt   0.006424052751139   0.007133338218318  -0.005064203083877 0
force Pt   0.000467907742143  -0.000277914554689   0.000038516003661 0
force Pt   0.000231152646771  -0.000305387532126   0.000188995561418 0
force Pt  -0.000430863270091  -0.000238575277019   0.000231753332779 0
force Pt  -0.000375366510579   0.000040622121702   0.000233625758782 0
force C   0.001006801242460  -0.013413807359731  -0.000140781771698 1  Linear 0 0 1
force O  -0.008281419073688   0.017429363562001   0.000039510430472 1  Linear 0 0 1

# Energy components:
   A_diel =       -0.0137884847329641
   Eewald =    24290.0774018596857786
       EH =    28182.9270561662742693
     Eloc =   -57514.0590772189243580
      Enl =      -47.4208868431440607
     EvdW =       -1.0090364016945621
      Exc =    -1370.5761989903755875
 Exc_core =      786.8850537467147888
       KE =     1381.0750523970868926
-------------------------------------
     Etot =    -4292.1144237691078160
       TS =        0.0081251613994070
-------------------------------------
        F =    -4292.1225489305070369


Dumping 'jdft.fillings' ... done
Dumping 'jdft.wfns' ... done
Dumping 'jdft.fluidState' ... done
Dumping 'jdft.ionpos' ... done
Dumping 'jdft.lattice' ... done
Dumping 'jdft.eigenvals' ... done
Dumping 'jdft.eigStats' ... 
	eMin: -2.152487 at state 8 ( [ +0.000000 +0.000000 +0.000000 ] spin -1 )
	HOMO: -0.196065 at state 7 ( [ +0.500000 +0.500000 +0.000000 ] spin 1 )
	mu  : -0.196056
	LUMO: -0.196021 at state 8 ( [ +0.000000 +0.000000 +0.000000 ] spin -1 )
	eMax: +0.086230 at state 5 ( [ +0.333333 +0.500000 +0.000000 ] spin 1 )
	HOMO-LUMO gap: +0.000044
	Optical gap  : +0.000106 at state 7 ( [ +0.500000 +0.500000 +0.000000 ] spin 1 )
Dumping 'jdft.Ecomponents' ... done
IonicMinimize: Iter:  10  F: -4292.122548930507037  |grad|_K:  1.034e-04  alpha:  1.000e+00  linmin:  1.041e-03  t[s]:  47440.76
IonicMinimize: Converged (|Delta F|<1.000000e-06 for 2 iters).

#--- Lowdin population analysis ---
# oxidation-state Pt +0.059 +0.017 +0.058 -0.044 +0.013 +0.014 +0.011 +0.014 -0.013 -0.010 -0.012 -0.010 +0.018 +0.009 +0.017 +0.016 +0.012 +0.006 +0.009 +0.008 -0.008 -0.007 -0.026 -0.004 -0.009 -0.011 -0.010 -0.009 +0.010 +0.013 +0.011 +0.007 +0.017 +0.017 +0.018 +0.017 -0.010 -0.017 -0.010 -0.033 +0.012 -0.052 +0.012 +0.006 +0.056 +0.059 +0.057 +0.060
# magnetic-moments Pt -0.000 -0.000 -0.000 -0.000 -0.000 -0.000 -0.000 -0.000 -0.000 -0.000 -0.000 -0.000 -0.000 -0.000 -0.000 -0.000 -0.000 -0.000 -0.000 -0.000 -0.000 -0.000 -0.000 -0.000 -0.000 -0.000 -0.000 -0.000 -0.000 -0.000 -0.000 -0.000 -0.000 -0.000 -0.000 -0.000 -0.000 -0.000 -0.000 -0.000 -0.000 -0.000 -0.000 -0.000 -0.000 -0.000 -0.000 -0.000
# oxidation-state C +0.435
# magnetic-moments C +0.000
# oxidation-state O -0.135
# magnetic-moments O -0.000


Dumping 'jdft.n_up' ... done
Dumping 'jdft.n_dn' ... done
Dumping 'jdft.tau_up' ... done
Dumping 'jdft.tau_dn' ... done
Dumping 'jdft.eigenvals' ... done
Dumping 'jdft.eigStats' ... 
	eMin: -2.152487 at state 8 ( [ +0.000000 +0.000000 +0.000000 ] spin -1 )
	HOMO: -0.196065 at state 7 ( [ +0.500000 +0.500000 +0.000000 ] spin 1 )
	mu  : -0.196056
	LUMO: -0.196021 at state 8 ( [ +0.000000 +0.000000 +0.000000 ] spin -1 )
	eMax: +0.086230 at state 5 ( [ +0.333333 +0.500000 +0.000000 ] spin 1 )
	HOMO-LUMO gap: +0.000044
	Optical gap  : +0.000106 at state 7 ( [ +0.500000 +0.500000 +0.000000 ] spin 1 )
Dumping 'jdft.kPts' ... done
Dumping 'jdft.kMap' ... done
Dumping 'jdft.dosUp' ... done.
Dumping 'jdft.dosDn' ... done.
End date and time: Thu Feb 17 16:13:52 2022  (Duration: 0-13:12:21.35)
Done!
