
*************** JDFTx 1.6.0  ***************

Start date and time: Thu Feb 17 02:26:04 2022
Executable /projects/musgravc/apps/jdftx-1.6.1/build/jdftx with command-line: -i in
Running on hosts (process indices):  shas0844.rc.int.colorado.edu (0-23)
Divided in process groups (process indices):  0 (0)  1 (1)  2 (2)  3 (3)  4 (4)  5 (5)  6 (6)  7 (7)  8 (8)  9 (9)  10 (10)  11 (11)  12 (12)  13 (13)  14 (14)  15 (15)  16 (16)  17 (17)  18 (18)  19 (19)  20 (20)  21 (21)  22 (22)  23 (23)
Resource initialization completed at t[s]:      0.00
Run totals: 24 processes, 24 threads, 0 GPUs


Input parsed successfully to the following command list (including defaults):

basis kpoint-dependent
converge-empty-states yes
coords-type Cartesian
core-overlap-check none
coulomb-interaction Periodic
davidson-band-ratio 1.1
density-of-states Etol 1.000000e-06 Esigma 1.000000e-03 \
		Complete \
	Total \
	OrthoOrbital Cu 1   s \
	OrthoOrbital Cu 1   p \
	OrthoOrbital Cu 1   px \
	OrthoOrbital Cu 1   py \
	OrthoOrbital Cu 1   pz \
	OrthoOrbital Cu 1   d \
	OrthoOrbital Cu 1   dxy \
	OrthoOrbital Cu 1   dyz \
	OrthoOrbital Cu 1   dz2 \
	OrthoOrbital Cu 1   dxz \
	OrthoOrbital Cu 1   dx2-y2 \
	OrthoOrbital Cu 2   s \
	OrthoOrbital Cu 2   p \
	OrthoOrbital Cu 2   px \
	OrthoOrbital Cu 2   py \
	OrthoOrbital Cu 2   pz \
	OrthoOrbital Cu 2   d \
	OrthoOrbital Cu 2   dxy \
	OrthoOrbital Cu 2   dyz \
	OrthoOrbital Cu 2   dz2 \
	OrthoOrbital Cu 2   dxz \
	OrthoOrbital Cu 2   dx2-y2 \
	OrthoOrbital Cu 3   s \
	OrthoOrbital Cu 3   p \
	OrthoOrbital Cu 3   px \
	OrthoOrbital Cu 3   py \
	OrthoOrbital Cu 3   pz \
	OrthoOrbital Cu 3   d \
	OrthoOrbital Cu 3   dxy \
	OrthoOrbital Cu 3   dyz \
	OrthoOrbital Cu 3   dz2 \
	OrthoOrbital Cu 3   dxz \
	OrthoOrbital Cu 3   dx2-y2 \
	OrthoOrbital Cu 4   s \
	OrthoOrbital Cu 4   p \
	OrthoOrbital Cu 4   px \
	OrthoOrbital Cu 4   py \
	OrthoOrbital Cu 4   pz \
	OrthoOrbital Cu 4   d \
	OrthoOrbital Cu 4   dxy \
	OrthoOrbital Cu 4   dyz \
	OrthoOrbital Cu 4   dz2 \
	OrthoOrbital Cu 4   dxz \
	OrthoOrbital Cu 4   dx2-y2 \
	OrthoOrbital Cu 5   s \
	OrthoOrbital Cu 5   p \
	OrthoOrbital Cu 5   px \
	OrthoOrbital Cu 5   py \
	OrthoOrbital Cu 5   pz \
	OrthoOrbital Cu 5   d \
	OrthoOrbital Cu 5   dxy \
	OrthoOrbital Cu 5   dyz \
	OrthoOrbital Cu 5   dz2 \
	OrthoOrbital Cu 5   dxz \
	OrthoOrbital Cu 5   dx2-y2 \
	OrthoOrbital Cu 6   s \
	OrthoOrbital Cu 6   p \
	OrthoOrbital Cu 6   px \
	OrthoOrbital Cu 6   py \
	OrthoOrbital Cu 6   pz \
	OrthoOrbital Cu 6   d \
	OrthoOrbital Cu 6   dxy \
	OrthoOrbital Cu 6   dyz \
	OrthoOrbital Cu 6   dz2 \
	OrthoOrbital Cu 6   dxz \
	OrthoOrbital Cu 6   dx2-y2 \
	OrthoOrbital Cu 7   s \
	OrthoOrbital Cu 7   p \
	OrthoOrbital Cu 7   px \
	OrthoOrbital Cu 7   py \
	OrthoOrbital Cu 7   pz \
	OrthoOrbital Cu 7   d \
	OrthoOrbital Cu 7   dxy \
	OrthoOrbital Cu 7   dyz \
	OrthoOrbital Cu 7   dz2 \
	OrthoOrbital Cu 7   dxz \
	OrthoOrbital Cu 7   dx2-y2 \
	OrthoOrbital Cu 8   s \
	OrthoOrbital Cu 8   p \
	OrthoOrbital Cu 8   px \
	OrthoOrbital Cu 8   py \
	OrthoOrbital Cu 8   pz \
	OrthoOrbital Cu 8   d \
	OrthoOrbital Cu 8   dxy \
	OrthoOrbital Cu 8   dyz \
	OrthoOrbital Cu 8   dz2 \
	OrthoOrbital Cu 8   dxz \
	OrthoOrbital Cu 8   dx2-y2 \
	OrthoOrbital Cu 9   s \
	OrthoOrbital Cu 9   p \
	OrthoOrbital Cu 9   px \
	OrthoOrbital Cu 9   py \
	OrthoOrbital Cu 9   pz \
	OrthoOrbital Cu 9   d \
	OrthoOrbital Cu 9   dxy \
	OrthoOrbital Cu 9   dyz \
	OrthoOrbital Cu 9   dz2 \
	OrthoOrbital Cu 9   dxz \
	OrthoOrbital Cu 9   dx2-y2 \
	OrthoOrbital Cu 10   s \
	OrthoOrbital Cu 10   p \
	OrthoOrbital Cu 10   px \
	OrthoOrbital Cu 10   py \
	OrthoOrbital Cu 10   pz \
	OrthoOrbital Cu 10   d \
	OrthoOrbital Cu 10   dxy \
	OrthoOrbital Cu 10   dyz \
	OrthoOrbital Cu 10   dz2 \
	OrthoOrbital Cu 10   dxz \
	OrthoOrbital Cu 10   dx2-y2 \
	OrthoOrbital Cu 11   s \
	OrthoOrbital Cu 11   p \
	OrthoOrbital Cu 11   px \
	OrthoOrbital Cu 11   py \
	OrthoOrbital Cu 11   pz \
	OrthoOrbital Cu 11   d \
	OrthoOrbital Cu 11   dxy \
	OrthoOrbital Cu 11   dyz \
	OrthoOrbital Cu 11   dz2 \
	OrthoOrbital Cu 11   dxz \
	OrthoOrbital Cu 11   dx2-y2 \
	OrthoOrbital Cu 12   s \
	OrthoOrbital Cu 12   p \
	OrthoOrbital Cu 12   px \
	OrthoOrbital Cu 12   py \
	OrthoOrbital Cu 12   pz \
	OrthoOrbital Cu 12   d \
	OrthoOrbital Cu 12   dxy \
	OrthoOrbital Cu 12   dyz \
	OrthoOrbital Cu 12   dz2 \
	OrthoOrbital Cu 12   dxz \
	OrthoOrbital Cu 12   dx2-y2 \
	OrthoOrbital Cu 13   s \
	OrthoOrbital Cu 13   p \
	OrthoOrbital Cu 13   px \
	OrthoOrbital Cu 13   py \
	OrthoOrbital Cu 13   pz \
	OrthoOrbital Cu 13   d \
	OrthoOrbital Cu 13   dxy \
	OrthoOrbital Cu 13   dyz \
	OrthoOrbital Cu 13   dz2 \
	OrthoOrbital Cu 13   dxz \
	OrthoOrbital Cu 13   dx2-y2 \
	OrthoOrbital Cu 14   s \
	OrthoOrbital Cu 14   p \
	OrthoOrbital Cu 14   px \
	OrthoOrbital Cu 14   py \
	OrthoOrbital Cu 14   pz \
	OrthoOrbital Cu 14   d \
	OrthoOrbital Cu 14   dxy \
	OrthoOrbital Cu 14   dyz \
	OrthoOrbital Cu 14   dz2 \
	OrthoOrbital Cu 14   dxz \
	OrthoOrbital Cu 14   dx2-y2 \
	OrthoOrbital Cu 15   s \
	OrthoOrbital Cu 15   p \
	OrthoOrbital Cu 15   px \
	OrthoOrbital Cu 15   py \
	OrthoOrbital Cu 15   pz \
	OrthoOrbital Cu 15   d \
	OrthoOrbital Cu 15   dxy \
	OrthoOrbital Cu 15   dyz \
	OrthoOrbital Cu 15   dz2 \
	OrthoOrbital Cu 15   dxz \
	OrthoOrbital Cu 15   dx2-y2 \
	OrthoOrbital Cu 16   s \
	OrthoOrbital Cu 16   p \
	OrthoOrbital Cu 16   px \
	OrthoOrbital Cu 16   py \
	OrthoOrbital Cu 16   pz \
	OrthoOrbital Cu 16   d \
	OrthoOrbital Cu 16   dxy \
	OrthoOrbital Cu 16   dyz \
	OrthoOrbital Cu 16   dz2 \
	OrthoOrbital Cu 16   dxz \
	OrthoOrbital Cu 16   dx2-y2 \
	OrthoOrbital Cu 17   s \
	OrthoOrbital Cu 17   p \
	OrthoOrbital Cu 17   px \
	OrthoOrbital Cu 17   py \
	OrthoOrbital Cu 17   pz \
	OrthoOrbital Cu 17   d \
	OrthoOrbital Cu 17   dxy \
	OrthoOrbital Cu 17   dyz \
	OrthoOrbital Cu 17   dz2 \
	OrthoOrbital Cu 17   dxz \
	OrthoOrbital Cu 17   dx2-y2 \
	OrthoOrbital Cu 18   s \
	OrthoOrbital Cu 18   p \
	OrthoOrbital Cu 18   px \
	OrthoOrbital Cu 18   py \
	OrthoOrbital Cu 18   pz \
	OrthoOrbital Cu 18   d \
	OrthoOrbital Cu 18   dxy \
	OrthoOrbital Cu 18   dyz \
	OrthoOrbital Cu 18   dz2 \
	OrthoOrbital Cu 18   dxz \
	OrthoOrbital Cu 18   dx2-y2 \
	OrthoOrbital Cu 19   s \
	OrthoOrbital Cu 19   p \
	OrthoOrbital Cu 19   px \
	OrthoOrbital Cu 19   py \
	OrthoOrbital Cu 19   pz \
	OrthoOrbital Cu 19   d \
	OrthoOrbital Cu 19   dxy \
	OrthoOrbital Cu 19   dyz \
	OrthoOrbital Cu 19   dz2 \
	OrthoOrbital Cu 19   dxz \
	OrthoOrbital Cu 19   dx2-y2 \
	OrthoOrbital Cu 20   s \
	OrthoOrbital Cu 20   p \
	OrthoOrbital Cu 20   px \
	OrthoOrbital Cu 20   py \
	OrthoOrbital Cu 20   pz \
	OrthoOrbital Cu 20   d \
	OrthoOrbital Cu 20   dxy \
	OrthoOrbital Cu 20   dyz \
	OrthoOrbital Cu 20   dz2 \
	OrthoOrbital Cu 20   dxz \
	OrthoOrbital Cu 20   dx2-y2 \
	OrthoOrbital Cu 21   s \
	OrthoOrbital Cu 21   p \
	OrthoOrbital Cu 21   px \
	OrthoOrbital Cu 21   py \
	OrthoOrbital Cu 21   pz \
	OrthoOrbital Cu 21   d \
	OrthoOrbital Cu 21   dxy \
	OrthoOrbital Cu 21   dyz \
	OrthoOrbital Cu 21   dz2 \
	OrthoOrbital Cu 21   dxz \
	OrthoOrbital Cu 21   dx2-y2 \
	OrthoOrbital Cu 22   s \
	OrthoOrbital Cu 22   p \
	OrthoOrbital Cu 22   px \
	OrthoOrbital Cu 22   py \
	OrthoOrbital Cu 22   pz \
	OrthoOrbital Cu 22   d \
	OrthoOrbital Cu 22   dxy \
	OrthoOrbital Cu 22   dyz \
	OrthoOrbital Cu 22   dz2 \
	OrthoOrbital Cu 22   dxz \
	OrthoOrbital Cu 22   dx2-y2 \
	OrthoOrbital Cu 23   s \
	OrthoOrbital Cu 23   p \
	OrthoOrbital Cu 23   px \
	OrthoOrbital Cu 23   py \
	OrthoOrbital Cu 23   pz \
	OrthoOrbital Cu 23   d \
	OrthoOrbital Cu 23   dxy \
	OrthoOrbital Cu 23   dyz \
	OrthoOrbital Cu 23   dz2 \
	OrthoOrbital Cu 23   dxz \
	OrthoOrbital Cu 23   dx2-y2 \
	OrthoOrbital Cu 24   s \
	OrthoOrbital Cu 24   p \
	OrthoOrbital Cu 24   px \
	OrthoOrbital Cu 24   py \
	OrthoOrbital Cu 24   pz \
	OrthoOrbital Cu 24   d \
	OrthoOrbital Cu 24   dxy \
	OrthoOrbital Cu 24   dyz \
	OrthoOrbital Cu 24   dz2 \
	OrthoOrbital Cu 24   dxz \
	OrthoOrbital Cu 24   dx2-y2 \
	OrthoOrbital Cu 25   s \
	OrthoOrbital Cu 25   p \
	OrthoOrbital Cu 25   px \
	OrthoOrbital Cu 25   py \
	OrthoOrbital Cu 25   pz \
	OrthoOrbital Cu 25   d \
	OrthoOrbital Cu 25   dxy \
	OrthoOrbital Cu 25   dyz \
	OrthoOrbital Cu 25   dz2 \
	OrthoOrbital Cu 25   dxz \
	OrthoOrbital Cu 25   dx2-y2 \
	OrthoOrbital Cu 26   s \
	OrthoOrbital Cu 26   p \
	OrthoOrbital Cu 26   px \
	OrthoOrbital Cu 26   py \
	OrthoOrbital Cu 26   pz \
	OrthoOrbital Cu 26   d \
	OrthoOrbital Cu 26   dxy \
	OrthoOrbital Cu 26   dyz \
	OrthoOrbital Cu 26   dz2 \
	OrthoOrbital Cu 26   dxz \
	OrthoOrbital Cu 26   dx2-y2 \
	OrthoOrbital Cu 27   s \
	OrthoOrbital Cu 27   p \
	OrthoOrbital Cu 27   px \
	OrthoOrbital Cu 27   py \
	OrthoOrbital Cu 27   pz \
	OrthoOrbital Cu 27   d \
	OrthoOrbital Cu 27   dxy \
	OrthoOrbital Cu 27   dyz \
	OrthoOrbital Cu 27   dz2 \
	OrthoOrbital Cu 27   dxz \
	OrthoOrbital Cu 27   dx2-y2 \
	OrthoOrbital Cu 28   s \
	OrthoOrbital Cu 28   p \
	OrthoOrbital Cu 28   px \
	OrthoOrbital Cu 28   py \
	OrthoOrbital Cu 28   pz \
	OrthoOrbital Cu 28   d \
	OrthoOrbital Cu 28   dxy \
	OrthoOrbital Cu 28   dyz \
	OrthoOrbital Cu 28   dz2 \
	OrthoOrbital Cu 28   dxz \
	OrthoOrbital Cu 28   dx2-y2 \
	OrthoOrbital Cu 29   s \
	OrthoOrbital Cu 29   p \
	OrthoOrbital Cu 29   px \
	OrthoOrbital Cu 29   py \
	OrthoOrbital Cu 29   pz \
	OrthoOrbital Cu 29   d \
	OrthoOrbital Cu 29   dxy \
	OrthoOrbital Cu 29   dyz \
	OrthoOrbital Cu 29   dz2 \
	OrthoOrbital Cu 29   dxz \
	OrthoOrbital Cu 29   dx2-y2 \
	OrthoOrbital Cu 30   s \
	OrthoOrbital Cu 30   p \
	OrthoOrbital Cu 30   px \
	OrthoOrbital Cu 30   py \
	OrthoOrbital Cu 30   pz \
	OrthoOrbital Cu 30   d \
	OrthoOrbital Cu 30   dxy \
	OrthoOrbital Cu 30   dyz \
	OrthoOrbital Cu 30   dz2 \
	OrthoOrbital Cu 30   dxz \
	OrthoOrbital Cu 30   dx2-y2 \
	OrthoOrbital Cu 31   s \
	OrthoOrbital Cu 31   p \
	OrthoOrbital Cu 31   px \
	OrthoOrbital Cu 31   py \
	OrthoOrbital Cu 31   pz \
	OrthoOrbital Cu 31   d \
	OrthoOrbital Cu 31   dxy \
	OrthoOrbital Cu 31   dyz \
	OrthoOrbital Cu 31   dz2 \
	OrthoOrbital Cu 31   dxz \
	OrthoOrbital Cu 31   dx2-y2 \
	OrthoOrbital Cu 32   s \
	OrthoOrbital Cu 32   p \
	OrthoOrbital Cu 32   px \
	OrthoOrbital Cu 32   py \
	OrthoOrbital Cu 32   pz \
	OrthoOrbital Cu 32   d \
	OrthoOrbital Cu 32   dxy \
	OrthoOrbital Cu 32   dyz \
	OrthoOrbital Cu 32   dz2 \
	OrthoOrbital Cu 32   dxz \
	OrthoOrbital Cu 32   dx2-y2 \
	OrthoOrbital Cu 33   s \
	OrthoOrbital Cu 33   p \
	OrthoOrbital Cu 33   px \
	OrthoOrbital Cu 33   py \
	OrthoOrbital Cu 33   pz \
	OrthoOrbital Cu 33   d \
	OrthoOrbital Cu 33   dxy \
	OrthoOrbital Cu 33   dyz \
	OrthoOrbital Cu 33   dz2 \
	OrthoOrbital Cu 33   dxz \
	OrthoOrbital Cu 33   dx2-y2 \
	OrthoOrbital Cu 34   s \
	OrthoOrbital Cu 34   p \
	OrthoOrbital Cu 34   px \
	OrthoOrbital Cu 34   py \
	OrthoOrbital Cu 34   pz \
	OrthoOrbital Cu 34   d \
	OrthoOrbital Cu 34   dxy \
	OrthoOrbital Cu 34   dyz \
	OrthoOrbital Cu 34   dz2 \
	OrthoOrbital Cu 34   dxz \
	OrthoOrbital Cu 34   dx2-y2 \
	OrthoOrbital Cu 35   s \
	OrthoOrbital Cu 35   p \
	OrthoOrbital Cu 35   px \
	OrthoOrbital Cu 35   py \
	OrthoOrbital Cu 35   pz \
	OrthoOrbital Cu 35   d \
	OrthoOrbital Cu 35   dxy \
	OrthoOrbital Cu 35   dyz \
	OrthoOrbital Cu 35   dz2 \
	OrthoOrbital Cu 35   dxz \
	OrthoOrbital Cu 35   dx2-y2 \
	OrthoOrbital Cu 36   s \
	OrthoOrbital Cu 36   p \
	OrthoOrbital Cu 36   px \
	OrthoOrbital Cu 36   py \
	OrthoOrbital Cu 36   pz \
	OrthoOrbital Cu 36   d \
	OrthoOrbital Cu 36   dxy \
	OrthoOrbital Cu 36   dyz \
	OrthoOrbital Cu 36   dz2 \
	OrthoOrbital Cu 36   dxz \
	OrthoOrbital Cu 36   dx2-y2 \
	OrthoOrbital Cu 37   s \
	OrthoOrbital Cu 37   p \
	OrthoOrbital Cu 37   px \
	OrthoOrbital Cu 37   py \
	OrthoOrbital Cu 37   pz \
	OrthoOrbital Cu 37   d \
	OrthoOrbital Cu 37   dxy \
	OrthoOrbital Cu 37   dyz \
	OrthoOrbital Cu 37   dz2 \
	OrthoOrbital Cu 37   dxz \
	OrthoOrbital Cu 37   dx2-y2 \
	OrthoOrbital Cu 38   s \
	OrthoOrbital Cu 38   p \
	OrthoOrbital Cu 38   px \
	OrthoOrbital Cu 38   py \
	OrthoOrbital Cu 38   pz \
	OrthoOrbital Cu 38   d \
	OrthoOrbital Cu 38   dxy \
	OrthoOrbital Cu 38   dyz \
	OrthoOrbital Cu 38   dz2 \
	OrthoOrbital Cu 38   dxz \
	OrthoOrbital Cu 38   dx2-y2 \
	OrthoOrbital Cu 39   s \
	OrthoOrbital Cu 39   p \
	OrthoOrbital Cu 39   px \
	OrthoOrbital Cu 39   py \
	OrthoOrbital Cu 39   pz \
	OrthoOrbital Cu 39   d \
	OrthoOrbital Cu 39   dxy \
	OrthoOrbital Cu 39   dyz \
	OrthoOrbital Cu 39   dz2 \
	OrthoOrbital Cu 39   dxz \
	OrthoOrbital Cu 39   dx2-y2 \
	OrthoOrbital Cu 40   s \
	OrthoOrbital Cu 40   p \
	OrthoOrbital Cu 40   px \
	OrthoOrbital Cu 40   py \
	OrthoOrbital Cu 40   pz \
	OrthoOrbital Cu 40   d \
	OrthoOrbital Cu 40   dxy \
	OrthoOrbital Cu 40   dyz \
	OrthoOrbital Cu 40   dz2 \
	OrthoOrbital Cu 40   dxz \
	OrthoOrbital Cu 40   dx2-y2 \
	OrthoOrbital C 1   s \
	OrthoOrbital C 1   p \
	OrthoOrbital C 1   px \
	OrthoOrbital C 1   py \
	OrthoOrbital C 1   pz \
	OrthoOrbital O 1   s \
	OrthoOrbital O 1   p \
	OrthoOrbital O 1   px \
	OrthoOrbital O 1   py \
	OrthoOrbital O 1   pz
dump End ElecDensity KEdensity BandEigs EigStats RhoAtom DOS Kpoints
dump Ionic State IonicPositions Lattice EigStats Ecomponents
dump 
dump 
dump 
dump 
dump 
dump 
dump 
dump 
dump-name jdft.$VAR
elec-cutoff 20
elec-eigen-algo Davidson
elec-ex-corr gga-PBE
elec-initial-magnetization 0.000000 no
elec-n-bands 462
elec-smearing Fermi 0.001
electronic-minimize  \
	dirUpdateScheme      FletcherReeves \
	linminMethod         DirUpdateRecommended \
	nIterations          100 \
	history              15 \
	knormThreshold       0 \
	energyDiffThreshold  1e-07 \
	nEnergyDiff          2 \
	alphaTstart          1 \
	alphaTmin            1e-10 \
	updateTestStepSize   yes \
	alphaTreduceFactor   0.1 \
	alphaTincreaseFactor 3 \
	nAlphaAdjustMax      3 \
	wolfeEnergy          0.0001 \
	wolfeGradient        0.9 \
	fdTest               no
exchange-regularization WignerSeitzTruncated
fluid LinearPCM 298.000000 1.013250
fluid-anion F- 0.5 MeanFieldLJ \
	epsBulk 1 \
	pMol 0 \
	epsInf 1 \
	Pvap 0 \
	sigmaBulk 0 \
	Rvdw 2.24877 \
	Res 0 \
	tauNuc 343133
fluid-cation Na+ 0.5 MeanFieldLJ \
	epsBulk 1 \
	pMol 0 \
	epsInf 1 \
	Pvap 0 \
	sigmaBulk 0 \
	Rvdw 2.19208 \
	Res 0 \
	tauNuc 343133
fluid-ex-corr lda-TF lda-PZ
fluid-gummel-loop 10 1.000000e-05
fluid-minimize  \
	dirUpdateScheme      PolakRibiere \
	linminMethod         DirUpdateRecommended \
	nIterations          400 \
	history              15 \
	knormThreshold       1e-11 \
	energyDiffThreshold  0 \
	nEnergyDiff          2 \
	alphaTstart          1 \
	alphaTmin            1e-10 \
	updateTestStepSize   yes \
	alphaTreduceFactor   0.1 \
	alphaTincreaseFactor 3 \
	nAlphaAdjustMax      6 \
	wolfeEnergy          0.0001 \
	wolfeGradient        0.9 \
	fdTest               no
fluid-solvent H2O 55.338 ScalarEOS \
	epsBulk 78.4 \
	pMol 0.92466 \
	epsInf 1.77 \
	Pvap 1.06736e-10 \
	sigmaBulk 4.62e-05 \
	Rvdw 2.61727 \
	Res 1.42 \
	tauNuc 343133 \
	poleEl 15 7 1
forces-output-coords Positions
ion Cu   3.374454999999999   1.518659000000000  11.420712999999997 0
ion Cu   0.003943000000000   9.055351000000002  11.420712999999997 0
ion Cu  10.115479000000001   1.518659000000000  11.420712999999997 0
ion Cu   6.744966999999997   9.055351000000002  11.420712999999997 0
ion Cu   0.000344000000000   2.995850000000000   8.272439999999998 0
ion Cu  -3.370168000000001  10.532543000000000   8.272439999999998 0
ion Cu   6.741367000000000   2.995850000000000   8.272439999999998 0
ion Cu   3.370855999999998  10.532543000000000   8.272439999999998 0
ion Cu   3.367713999999999   4.556338000000000   5.270771000000000 0
ion Cu  -0.002791000000002  12.093015000000001   5.270771000000000 0
ion Cu  10.108750999999998   4.556338000000000   5.270771000000000 0
ion Cu   6.738232999999997  12.093015000000001   5.270771000000000 0
ion Cu  -0.002959000000001   6.045498000000001   2.187299000000000 0
ion Cu  -3.373471000000001  13.582190000000002   2.187299000000000 0
ion Cu   6.738077999999999   6.045498000000001   2.187299000000000 0
ion Cu   3.367565999999998  13.582190000000002   2.187299000000000 0
ion Cu   6.744669999999997  15.039877000000001  14.212244000000000 0
ion Cu  10.115181999999999   7.503185000000001  14.212244000000000 0
ion Cu   0.003646999999998  15.039877000000001  14.212244000000000 0
ion Cu   3.374158999999998   7.503185000000001  14.212244000000000 0
ion Cu   3.373288999999999   5.995801000000001   9.801515000000000 0
ion Cu   0.002770999999998  13.532508999999999   9.801515000000000 0
ion Cu  10.114312999999997   5.995801000000001   9.801515000000000 0
ion Cu   6.743807999999997  13.532508999999999   9.801515000000000 0
ion Cu   3.370235000000000   0.020545000000000   6.798760999999999 0
ion Cu  -0.000276000000001   7.557238000000001   6.798760999999999 0
ion Cu  10.111258999999999   0.020545000000000   6.798760999999999 0
ion Cu   6.740746999999999   7.557238000000001   6.798760999999999 0
ion Cu  -0.004564000000000   1.496471000000000   3.652749000000000 0
ion Cu  -3.375075000000001   9.033163000000002   3.652749000000000 0
ion Cu   6.736459999999999   1.496471000000000   3.652749000000000 0
ion Cu   3.365947999999998   9.033163000000002   3.652749000000000 0
ion Cu   3.366999999999999   3.046346000000001   0.863298000000000 0
ion Cu  -0.003519000000002  10.583054000000001   0.863298000000000 0
ion Cu  10.108022999999998   3.046346000000001   0.863298000000000 0
ion Cu   6.737504999999997  10.583054000000001   0.863298000000000 0
ion Cu   0.003383999999999   4.504741000000000  12.887157999999999 0
ion Cu  -3.367128000000000  12.041434000000001  12.887157999999999 0
ion Cu   6.744406999999997   4.504741000000000  12.887157999999999 0
ion Cu   3.373895999999998  12.041434000000001  12.887157999999999 0
ion C   3.374030999999998   9.772317000000001  16.876932000000000 1  Linear 0 0 1
ion O   3.434119999999999   9.772317000000001  19.032305999999998 1  Linear 0 0 1
ion-species /projects/musgravc/apps/jdftx-1.6.0/build/pseudopotentials/GBRV_v1.5/$ID_pbe_v1.uspp
ion-species /projects/musgravc/apps/jdftx-1.6.0/build/pseudopotentials/GBRV_v1.5/$ID_pbe_v1.2.uspp
ion-species /projects/musgravc/apps/jdftx-1.6.0/build/pseudopotentials/GBRV_v1.5/$ID_pbe_v1.4.uspp
ion-species /projects/musgravc/apps/jdftx-1.6.0/build/pseudopotentials/GBRV_v1.5/$ID_pbe_v1.5.uspp
ion-width Ecut
ionic-minimize  \
	dirUpdateScheme      L-BFGS \
	linminMethod         DirUpdateRecommended \
	nIterations          100 \
	history              15 \
	knormThreshold       0.0001 \
	energyDiffThreshold  1e-06 \
	nEnergyDiff          2 \
	alphaTstart          1 \
	alphaTmin            1e-10 \
	updateTestStepSize   yes \
	alphaTreduceFactor   0.1 \
	alphaTincreaseFactor 3 \
	nAlphaAdjustMax      3 \
	wolfeEnergy          0.0001 \
	wolfeGradient        0.9 \
	fdTest               no
kpoint   0.000000000000   0.000000000000   0.000000000000  1.00000000000000
kpoint-folding 4 3 1 
latt-move-scale 0 0 0
latt-scale 1 1 1 
lattice  \
	  13.482047000000000   -6.741023000000000    0.000000000000000  \
	   0.000000000000000   15.073385000000000    0.000000000000000  \
	   0.000000000000000    0.000000000000000   45.220160000000000 
lattice-minimize  \
	dirUpdateScheme      L-BFGS \
	linminMethod         DirUpdateRecommended \
	nIterations          0 \
	history              15 \
	knormThreshold       0 \
	energyDiffThreshold  1e-06 \
	nEnergyDiff          2 \
	alphaTstart          1 \
	alphaTmin            1e-10 \
	updateTestStepSize   yes \
	alphaTreduceFactor   0.1 \
	alphaTincreaseFactor 3 \
	nAlphaAdjustMax      3 \
	wolfeEnergy          0.0001 \
	wolfeGradient        0.9 \
	fdTest               no
lcao-params 30 1e-06 0.001
pcm-variant CANDLE
spintype z-spin
subspace-rotation-factor 1 yes
symmetries automatic
symmetry-threshold 0.0001
van-der-waals D3



---------- Setting up symmetries ----------

Found 8 point-group symmetries of the bravais lattice
Found 1 space-group symmetries with basis
Applied RMS atom displacement 0 bohrs to make symmetries exact.

---------- Initializing the Grid ----------
R = 
[       13.482     -6.74102            0  ]
[            0      15.0734            0  ]
[            0            0      45.2202  ]
unit cell volume = 9189.64
G =
[   0.466041    0.20842         -0  ]
[          0    0.41684          0  ]
[          0         -0   0.138947  ]
Minimum fftbox size, Smin = [  56  68  184  ]
Chosen fftbox size, S = [  56  70  192  ]

---------- Exchange Correlation functional ----------
Initalized PBE GGA exchange.
Initalized PBE GGA correlation.

---------- Setting up pseudopotentials ----------
Width of ionic core gaussian charges (only for fluid interactions / plotting) set to 0.397384

Reading pseudopotential file '/projects/musgravc/apps/jdftx-1.6.0/build/pseudopotentials/GBRV_v1.5/cu_pbe_v1.2.uspp':
  Title: Cu.  Created by USPP 7.3.6 on 3-2-2014
  Reference state energy: -201.059491.  19 valence electrons in orbitals:
    |300>  occupation: 2  eigenvalue: -5.020764
    |310>  occupation: 6  eigenvalue: -3.445588
    |320>  occupation: 8  eigenvalue: -0.925168
    |400>  occupation: 2  eigenvalue: -0.567638
    |410>  occupation: 0  eigenvalue: -0.326154
  lMax: 2  lLocal: 3  QijEcut: 6
  6 projectors sampled on a log grid with 613 points:
    l: 0  eig: -5.020767  rCut: 1.4
    l: 0  eig: -0.567640  rCut: 1.4
    l: 1  eig: -3.445589  rCut: 1.55
    l: 1  eig: -0.326157  rCut: 1.55
    l: 2  eig: -0.925170  rCut: 1.5
    l: 2  eig: 1.500000  rCut: 1.5
  Partial core density with radius 0.8
  Transforming core density to a uniform radial grid of dG=0.02 with 1389 points.
  Transforming local potential to a uniform radial grid of dG=0.02 with 1389 points.
  Transforming nonlocal projectors to a uniform radial grid of dG=0.02 with 432 points.
  Transforming density augmentations to a uniform radial grid of dG=0.02 with 1389 points.
  Transforming atomic orbitals to a uniform radial grid of dG=0.02 with 432 points.
  Core radius for overlap checks: 1.55 bohrs.

Reading pseudopotential file '/projects/musgravc/apps/jdftx-1.6.0/build/pseudopotentials/GBRV_v1.5/c_pbe_v1.2.uspp':
  Title: C.  Created by USPP 7.3.6 on 3-2-2014
  Reference state energy: -5.406344.  4 valence electrons in orbitals:
    |200>  occupation: 2  eigenvalue: -0.504890
    |210>  occupation: 2  eigenvalue: -0.194356
  lMax: 1  lLocal: 2  QijEcut: 5
  4 projectors sampled on a log grid with 503 points:
    l: 0  eig: -0.504890  rCut: 1.3
    l: 0  eig: 0.000000  rCut: 1.3
    l: 1  eig: -0.194357  rCut: 1.3
    l: 1  eig: 0.000000  rCut: 1.3
  Partial core density with radius 1.1
  Transforming core density to a uniform radial grid of dG=0.02 with 1389 points.
  Transforming local potential to a uniform radial grid of dG=0.02 with 1389 points.
  Transforming nonlocal projectors to a uniform radial grid of dG=0.02 with 432 points.
  Transforming density augmentations to a uniform radial grid of dG=0.02 with 1389 points.
  Transforming atomic orbitals to a uniform radial grid of dG=0.02 with 432 points.
  Core radius for overlap checks: 1.30 bohrs.

Reading pseudopotential file '/projects/musgravc/apps/jdftx-1.6.0/build/pseudopotentials/GBRV_v1.5/o_pbe_v1.2.uspp':
  Title: O.  Created by USPP 7.3.6 on 3-2-2014
  Reference state energy: -15.894388.  6 valence electrons in orbitals:
    |200>  occupation: 2  eigenvalue: -0.878823
    |210>  occupation: 4  eigenvalue: -0.332131
  lMax: 2  lLocal: 2  QijEcut: 6
  5 projectors sampled on a log grid with 511 points:
    l: 0  eig: -0.878823  rCut: 1.25
    l: 0  eig: 0.000000  rCut: 1.25
    l: 1  eig: -0.332132  rCut: 1.25
    l: 1  eig: 0.000000  rCut: 1.25
    l: 2  eig: 1.000000  rCut: 1.25
  Partial core density with radius 0.7
  Transforming core density to a uniform radial grid of dG=0.02 with 1389 points.
  Transforming local potential to a uniform radial grid of dG=0.02 with 1389 points.
  Transforming nonlocal projectors to a uniform radial grid of dG=0.02 with 432 points.
  Transforming density augmentations to a uniform radial grid of dG=0.02 with 1389 points.
  Transforming atomic orbitals to a uniform radial grid of dG=0.02 with 432 points.
  Core radius for overlap checks: 1.25 bohrs.

Initialized 3 species with 42 total atoms.

Folded 1 k-points by 4x3x1 to 12 k-points.

---------- Setting up k-points, bands, fillings ----------
Adding inversion symmetry to k-mesh for non-inversion-symmetric unit cell.
Reduced to 7 k-points under symmetry. 
Computing the number of bands and number of electrons
Calculating initial fillings.
nElectrons: 770.000000   nBands: 462   nStates: 14

----- Setting up reduced wavefunction bases (one per k-point) -----
average nbasis = 39264.583 , ideal nbasis = 39258.863

----- Initializing Supercell corresponding to k-point mesh -----
Lattice vector linear combinations in supercell:
[   4   0   0  ]
[   0   3   0  ]
[   0   0   1  ]
Supercell lattice vectors:
[  53.9282  -20.2231  0  ]
[  0  45.2202  0  ]
[  0  0  45.2202  ]

Initializing DFT-D3 calculator:
	Parameters set for gga-PBE functional
	s6:  1.000  s_r6:  1.217
	s8:  0.722  s_r8:  1.000
	Per-atom parameters loaded for:
	Cu:  sqrtQ[a0]:  5.226  Rcov[a0]:  1.909  CN: [ 0.00 0.96 ]
	 C:  sqrtQ[a0]:  3.105  Rcov[a0]:  1.417  CN: [ 0.00 0.99 2.00 3.00 3.98 ]
	 O:  sqrtQ[a0]:  2.594  Rcov[a0]:  1.191  CN: [ 0.00 0.99 1.99 ]

Initializing DFT-D2 calculator for fluid / solvation:
	Cu:  C6:  187.33 Eh-a0^6  R0: 2.952 a0
	 C:  C6:   30.35 Eh-a0^6  R0: 2.744 a0
	 O:  C6:   12.14 Eh-a0^6  R0: 2.536 a0

---------- Setting up ewald sum ----------
Optimum gaussian width for ewald sums = 4.481961 bohr.
Real space sum over 495 unit cells with max indices [  5  4  2  ]
Reciprocal space sum over 6825 terms with max indices [  6  7  17  ]

Computing DFT-D3 correction:
# coordination-number Cu 8.287 8.294 8.287 8.294 8.917 8.918 8.917 8.918 9.035 9.035 9.035 9.035 6.874 6.874 6.874 6.874 4.947 4.945 4.947 5.955 9.029 9.028 9.028 9.028 8.920 8.920 8.920 8.920 8.294 8.294 8.294 8.294 4.947 4.947 4.947 4.947 6.871 6.871 6.871 7.240
# coordination-number C 2.389
# coordination-number O 1.035
# diagonal-C6 Cu 175.00 175.00 175.00 175.00 175.00 175.00 175.00 175.00 175.00 175.00 175.00 175.00 175.00 175.00 175.00 175.00 175.00 175.00 175.00 175.00 175.00 175.00 175.00 175.00 175.00 175.00 175.00 175.00 175.00 175.00 175.00 175.00 175.00 175.00 175.00 175.00 175.00 175.00 175.00 175.00
# diagonal-C6 C 28.29
# diagonal-C6 O 12.78
EvdW_6 =   -0.208383
EvdW_8 =   -0.326441

---------- Allocating electronic variables ----------
Initializing wave functions:  linear combination of atomic orbitals
Cu pseudo-atom occupations:   s ( 2 1 )  p ( 6 0 )  d ( 10 )
C pseudo-atom occupations:   s ( 2 )  p ( 2 )
O pseudo-atom occupations:   s ( 2 )  p ( 4 )
	FillingsUpdate:  mu: -2.686649564  nElectrons: 770.000000  magneticMoment: [ Abs: 0.46362  Tot: -0.00356 ]
LCAOMinimize: Iter:   0  F: -7880.5873155159288217  |grad|_K:  3.769e-02  alpha:  1.000e+00
LCAOMinimize: 	Step increased F by 1.075070e+03, reducing alpha to 4.078627e-02.
LCAOMinimize: 	Step increased F by 4.479133e+01, reducing alpha to 4.078627e-03.
	FillingsUpdate:  mu: -2.535201849  nElectrons: 770.000000  magneticMoment: [ Abs: 0.46636  Tot: -0.00802 ]
LCAOMinimize: Iter:   1  F: -7900.0861489463013640  |grad|_K:  2.750e-02  alpha:  4.079e-03  linmin: -1.681e-01  cgtest:  9.609e-01  t[s]:    210.30
LCAOMinimize: Encountered beta<0, resetting CG.
LCAOMinimize: 	Predicted alpha/alphaT>3.000000, increasing alphaT to 1.223588e-02.
	FillingsUpdate:  mu: -1.485072062  nElectrons: 770.000000  magneticMoment: [ Abs: 0.51936  Tot: +0.00071 ]
LCAOMinimize: Iter:   2  F: -7930.5331140231073732  |grad|_K:  2.051e-02  alpha:  1.996e-02  linmin: -1.471e-02  cgtest: -4.266e-02  t[s]:    274.51
LCAOMinimize: 	Wrong curvature in test step, increasing alphaT to 5.986799e-02.
	FillingsUpdate:  mu: -0.901309257  nElectrons: 770.000000  magneticMoment: [ Abs: 0.45036  Tot: +0.04581 ]
LCAOMinimize: Iter:   3  F: -7967.9227542822400210  |grad|_K:  2.351e-02  alpha: -1.527e-01  linmin: -7.468e-02  cgtest:  7.878e-01  t[s]:    322.04
	FillingsUpdate:  mu: +2.913687734  nElectrons: 770.000000  magneticMoment: [ Abs: 0.00647  Tot: -0.00326 ]
LCAOMinimize: Iter:   4  F: -7996.6212465098460598  |grad|_K:  8.404e-03  alpha:  4.996e-01  linmin:  1.382e-02  cgtest: -1.437e+00  t[s]:    372.46
	FillingsUpdate:  mu: +2.518205766  nElectrons: 770.000000  magneticMoment: [ Abs: 0.00563  Tot: +0.00098 ]
LCAOMinimize: Iter:   5  F: -8006.1601669478159238  |grad|_K:  5.060e-03  alpha:  4.776e-02  linmin: -4.960e-02  cgtest:  8.430e-01  t[s]:    423.38
LCAOMinimize: Encountered beta<0, resetting CG.
LCAOMinimize: 	Predicted alpha/alphaT>3.000000, increasing alphaT to 1.432876e-01.
	FillingsUpdate:  mu: +1.841032220  nElectrons: 770.000000  magneticMoment: [ Abs: 0.00521  Tot: +0.00111 ]
LCAOMinimize: Iter:   6  F: -8023.6083652723300474  |grad|_K:  1.135e-02  alpha:  2.218e-01  linmin:  1.546e-02  cgtest: -5.008e-01  t[s]:    488.63
LCAOMinimize: 	Bad step direction: g.d > 0.
LCAOMinimize: 	Undoing step.
LCAOMinimize: 	Step failed: resetting search direction.
	FillingsUpdate:  mu: +1.841032220  nElectrons: 770.000000  magneticMoment: [ Abs: 0.00521  Tot: +0.00111 ]
LCAOMinimize: Iter:   7  F: -8023.6083652723300474  |grad|_K:  1.135e-02  alpha:  0.000e+00
	FillingsUpdate:  mu: +1.501375341  nElectrons: 770.000000  magneticMoment: [ Abs: 0.00521  Tot: -0.00138 ]
LCAOMinimize: Iter:   8  F: -8041.6947123045320041  |grad|_K:  1.023e-02  alpha:  4.760e-02  linmin: -5.403e-02  cgtest:  4.155e-01  t[s]:    575.59
	FillingsUpdate:  mu: +0.841686183  nElectrons: 770.000000  magneticMoment: [ Abs: 0.00448  Tot: +0.00006 ]
LCAOMinimize: Iter:   9  F: -8062.2187896020304834  |grad|_K:  4.493e-03  alpha:  6.887e-02  linmin: -3.523e-03  cgtest:  1.063e-01  t[s]:    625.94
LCAOMinimize: 	Predicted alpha/alphaT>3.000000, increasing alphaT to 2.066041e-01.
LCAOMinimize: 	Step increased F by 1.161260e+01, reducing alpha to 3.050243e-02.
	FillingsUpdate:  mu: +0.854462293  nElectrons: 770.000000  magneticMoment: [ Abs: 0.00447  Tot: +0.00059 ]
LCAOMinimize: Iter:  10  F: -8064.5997514494492862  |grad|_K:  4.020e-03  alpha:  3.050e-02  linmin: -8.925e-02  cgtest:  9.782e-01  t[s]:    727.54
LCAOMinimize: Encountered beta<0, resetting CG.
LCAOMinimize: 	Predicted alpha/alphaT>3.000000, increasing alphaT to 9.150728e-02.
LCAOMinimize: 	Predicted alpha/alphaT>3.000000, increasing alphaT to 2.745218e-01.
	FillingsUpdate:  mu: +0.761903680  nElectrons: 770.000000  magneticMoment: [ Abs: 0.00459  Tot: +0.00102 ]
LCAOMinimize: Iter:  11  F: -8070.6962381865669158  |grad|_K:  3.674e-03  alpha:  1.143e-01  linmin: -6.658e-02  cgtest:  4.754e-01  t[s]:    805.16
LCAOMinimize: 	Wrong curvature in test step, increasing alphaT to 3.429547e-01.
	FillingsUpdate:  mu: +0.682155011  nElectrons: 770.000000  magneticMoment: [ Abs: 0.00575  Tot: +0.00082 ]
LCAOMinimize: Iter:  12  F: -8078.6491530400389820  |grad|_K:  2.739e-03  alpha: -1.424e+01  linmin: -1.472e-01  cgtest:  7.046e-01  t[s]:    853.04
	FillingsUpdate:  mu: +0.677280272  nElectrons: 770.000000  magneticMoment: [ Abs: 0.00591  Tot: +0.00077 ]
LCAOMinimize: Iter:  13  F: -8079.3847843270923477  |grad|_K:  2.661e-03  alpha:  2.332e-02  linmin: -1.452e-01  cgtest:  9.585e-01  t[s]:    903.97
LCAOMinimize: 	Wrong curvature in test step, increasing alphaT to 6.995859e-02.
	FillingsUpdate:  mu: +0.668879870  nElectrons: 770.000000  magneticMoment: [ Abs: 0.00608  Tot: +0.00068 ]
LCAOMinimize: Iter:  14  F: -8080.0465176014113240  |grad|_K:  2.605e-03  alpha: -1.483e+00  linmin: -1.517e-01  cgtest:  9.611e-01  t[s]:    952.11
	FillingsUpdate:  mu: +0.660932914  nElectrons: 770.000000  magneticMoment: [ Abs: 0.00624  Tot: +0.00058 ]
LCAOMinimize: Iter:  15  F: -8080.6394024114943022  |grad|_K:  2.558e-03  alpha:  2.170e-02  linmin: -1.594e-01  cgtest:  9.632e-01  t[s]:   1002.60
LCAOMinimize: 	Wrong curvature in test step, increasing alphaT to 6.511479e-02.
	FillingsUpdate:  mu: +0.652093427  nElectrons: 770.000000  magneticMoment: [ Abs: 0.00641  Tot: +0.00050 ]
LCAOMinimize: Iter:  16  F: -8081.2126382317101161  |grad|_K:  2.515e-03  alpha: -1.060e+00  linmin: -1.675e-01  cgtest:  9.620e-01  t[s]:   1050.13
	FillingsUpdate:  mu: +0.642257448  nElectrons: 770.000000  magneticMoment: [ Abs: 0.00659  Tot: +0.00043 ]
LCAOMinimize: Iter:  17  F: -8081.7577052897704561  |grad|_K:  2.475e-03  alpha:  2.128e-02  linmin: -1.752e-01  cgtest:  9.614e-01  t[s]:   1100.66
LCAOMinimize: 	Wrong curvature in test step, increasing alphaT to 6.384158e-02.
	FillingsUpdate:  mu: +0.631201579  nElectrons: 770.000000  magneticMoment: [ Abs: 0.00678  Tot: +0.00038 ]
LCAOMinimize: Iter:  18  F: -8082.2873992008417190  |grad|_K:  2.438e-03  alpha: -8.660e-01  linmin: -1.824e-01  cgtest:  9.601e-01  t[s]:   1148.36
	FillingsUpdate:  mu: +0.618119371  nElectrons: 770.000000  magneticMoment: [ Abs: 0.00698  Tot: +0.00035 ]
LCAOMinimize: Iter:  19  F: -8082.8125969017455645  |grad|_K:  2.400e-03  alpha:  2.169e-02  linmin: -1.892e-01  cgtest:  9.580e-01  t[s]:   1199.33
LCAOMinimize: 	Wrong curvature in test step, increasing alphaT to 6.505861e-02.
	FillingsUpdate:  mu: +0.601381868  nElectrons: 770.000000  magneticMoment: [ Abs: 0.00720  Tot: +0.00033 ]
LCAOMinimize: Iter:  20  F: -8083.3229423804759790  |grad|_K:  2.362e-03  alpha: -7.907e-01  linmin: -1.952e-01  cgtest:  9.568e-01  t[s]:   1247.26
	FillingsUpdate:  mu: +0.582845811  nElectrons: 770.000000  magneticMoment: [ Abs: 0.00746  Tot: +0.00031 ]
LCAOMinimize: Iter:  21  F: -8083.8559138823002286  |grad|_K:  2.317e-03  alpha:  2.336e-02  linmin: -2.010e-01  cgtest:  9.525e-01  t[s]:   1297.88
LCAOMinimize: 	Wrong curvature in test step, increasing alphaT to 7.008289e-02.
	FillingsUpdate:  mu: +0.559188755  nElectrons: 770.000000  magneticMoment: [ Abs: 0.00773  Tot: +0.00030 ]
LCAOMinimize: Iter:  22  F: -8084.3692021021179244  |grad|_K:  2.267e-03  alpha: -8.535e-01  linmin: -2.065e-01  cgtest:  9.519e-01  t[s]:   1345.42
	FillingsUpdate:  mu: +0.537190835  nElectrons: 770.000000  magneticMoment: [ Abs: 0.00805  Tot: +0.00029 ]
LCAOMinimize: Iter:  23  F: -8084.9065409587065005  |grad|_K:  2.206e-03  alpha:  2.560e-02  linmin: -2.122e-01  cgtest:  9.471e-01  t[s]:   1395.84
LCAOMinimize: 	Wrong curvature in test step, increasing alphaT to 7.680120e-02.
	FillingsUpdate:  mu: +0.515491490  nElectrons: 770.000000  magneticMoment: [ Abs: 0.00840  Tot: +0.00027 ]
LCAOMinimize: Iter:  24  F: -8085.4136858348383612  |grad|_K:  2.137e-03  alpha: -1.148e+00  linmin: -2.181e-01  cgtest:  9.473e-01  t[s]:   1443.23
	FillingsUpdate:  mu: +0.494662132  nElectrons: 770.000000  magneticMoment: [ Abs: 0.00881  Tot: +0.00022 ]
LCAOMinimize: Iter:  25  F: -8085.9291856241188725  |grad|_K:  2.057e-03  alpha:  2.786e-02  linmin: -2.237e-01  cgtest:  9.430e-01  t[s]:   1493.66
LCAOMinimize: 	Wrong curvature in test step, increasing alphaT to 8.359460e-02.
	FillingsUpdate:  mu: +0.476970369  nElectrons: 770.000000  magneticMoment: [ Abs: 0.00926  Tot: +0.00015 ]
LCAOMinimize: Iter:  26  F: -8086.4041704915907758  |grad|_K:  1.972e-03  alpha: -1.921e+00  linmin: -2.283e-01  cgtest:  9.437e-01  t[s]:   1541.07
	FillingsUpdate:  mu: +0.462204005  nElectrons: 770.000000  magneticMoment: [ Abs: 0.00973  Tot: +0.00002 ]
LCAOMinimize: Iter:  27  F: -8086.8335796948485950  |grad|_K:  1.882e-03  alpha:  2.763e-02  linmin: -2.317e-01  cgtest:  9.455e-01  t[s]:   1592.13
LCAOMinimize: 	Wrong curvature in test step, increasing alphaT to 8.288259e-02.
	FillingsUpdate:  mu: +0.449178809  nElectrons: 770.000000  magneticMoment: [ Abs: 0.01023  Tot: -0.00018 ]
LCAOMinimize: Iter:  28  F: -8087.2209907126534745  |grad|_K:  1.785e-03  alpha: -1.911e+01  linmin: -2.364e-01  cgtest:  9.478e-01  t[s]:   1639.86
	FillingsUpdate:  mu: +0.433847314  nElectrons: 770.000000  magneticMoment: [ Abs: 0.01072  Tot: -0.00042 ]
LCAOMinimize: Iter:  29  F: -8087.5367040996061405  |grad|_K:  1.687e-03  alpha:  2.539e-02  linmin: -2.449e-01  cgtest:  9.556e-01  t[s]:   1690.55
LCAOMinimize: Encountered beta<0, resetting CG.
LCAOMinimize: 	Predicted alpha/alphaT>3.000000, increasing alphaT to 7.616229e-02.
LCAOMinimize: 	Predicted alpha/alphaT>3.000000, increasing alphaT to 2.284869e-01.
	FillingsUpdate:  mu: +0.346623487  nElectrons: 770.000000  magneticMoment: [ Abs: 0.01283  Tot: -0.00163 ]
LCAOMinimize: Iter:  30  F: -8088.3650450896275288  |grad|_K:  1.266e-03  alpha:  7.936e-02  linmin: -2.572e-01  cgtest:  8.602e-01  t[s]:   1768.54
LCAOMinimize: Encountered beta<0, resetting CG.
LCAOMinimize: None of the convergence criteria satisfied after 30 iterations.
----- createFluidSolver() ----- (Fluid-side solver setup)
   Initializing fluid molecule 'H2O'
     Initializing site 'O'
       Electron density: proportional to exp(-r/0.36935)*erfc((r-0.51523)/0.36823) with norm 6.826
       Charge density: gaussian nuclear width 0.478731 with net site charge 0.826
       Polarizability: cuspless exponential with width 0.32 and norm 3.73
       Hard sphere radius: 2.57003 bohrs
       Positions in reference frame:
         [ +0.000000 +0.000000 +0.000000 ]
     Initializing site 'H'
       Electron density: proportional to exp(-r/0.34641)*erfc((r-0)/0.390882) with norm 0.587
       Charge density: gaussian nuclear width 0.377945 with net site charge -0.413
       Polarizability: cuspless exponential with width 0.39 and norm 3.3
       Positions in reference frame:
         [ +0.000000 -1.441945 +1.122523 ]
         [ +0.000000 +1.441945 +1.122523 ]
     Net charge: 0   dipole magnitude: 0.927204
     Initializing spherical shell mfKernel with radius 2.61727 Bohr
     deltaS corrections:
       site 'O': -7.54299
       site 'H': -6.83917
   Initializing fluid molecule 'Na+'
     Initializing site 'Na'
       Electron density: proportional to exp(-r/0.19682)*erfc((r-0.71491)/0.41314) with norm 8.1383
       Charge density: gaussian nuclear width 0.365347 with net site charge -1
       Hard sphere radius: 1.86327 bohrs
       Positions in reference frame:
         [ +0.000000 +0.000000 +0.000000 ]
     Net charge: -1   dipole magnitude: 0
     Initializing gaussian mfKernel with width: 1.55004 Bohr
     deltaS corrections:
       site 'Na': -22.3555
   Initializing fluid molecule 'F-'
     Initializing site 'F'
       Electron density: proportional to exp(-r/0.38886)*erfc((r-0)/0.438782) with norm 8
       Charge density: gaussian nuclear width 0.374796 with net site charge 1
       Hard sphere radius: 2.39995 bohrs
       Positions in reference frame:
         [ +0.000000 +0.000000 +0.000000 ]
     Net charge: 1   dipole magnitude: 0
     Initializing gaussian mfKernel with width: 1.59012 Bohr
     deltaS corrections:
       site 'F': -9.04335

Correction to mu due to finite nuclear width = -0.0831365
   Cavity determined by nc: 0.00142 and sigma: 0.707107
   Nonlocal vdW cavity from gaussian model electron density with norm = 8 and sigma = 0.993594 bohr
   Charge asymmetry in cavity with sensitivity pCavity = 36.5 e-bohr/Eh
   Electrostatic cavity expanded by eta = 1.46 bohrs
   Weighted density cavitation model constrained by Nbulk: 0.0049383 bohr^-3, Pvap: 3.14029 kPa, Rvdw: 2.61727 bohr and sigmaBulk: 4.62e-05 Eh/bohr^2 at T: 298 K.
   Weighted density dispersion model using vdW pair potentials with single solvent site with sqrtC6eff: 0.77 SI.


---- Citations for features of the code used in this run ----

   Software package:
      R. Sundararaman, K. Letchworth-Weaver, K.A. Schwarz, D. Gunceler, Y. Ozhabes and T.A. Arias, 'JDFTx: software for joint density-functional theory', SoftwareX 6, 278 (2017)

   gga-PBE exchange-correlation functional:
      J.P. Perdew, K. Burke and M. Ernzerhof, Phys. Rev. Lett. 77, 3865 (1996)

   Pseudopotentials:
      KF Garrity, JW Bennett, KM Rabe and D Vanderbilt, Comput. Mater. Sci. 81, 446 (2014)

   DFT-D3 dispersion correction:
      S. Grimme, J. Antony, S. Ehrlich and H. Krieg, J. Chem. Phys. 132, 154104 (2010)

   DFT-D2 dispersion correction:
      S. Grimme, J. Comput. Chem. 27, 1787 (2006)

   Charge-asymmetric nonlocally-determined local-electric (CANDLE) solvation model:
      R. Sundararaman and W.A. Goddard III, J. Chem. Phys. 142, 064107 (2015)

   Total energy minimization with Auxiliary Hamiltonian:
      C. Freysoldt, S. Boeck, and J. Neugebauer, Phys. Rev. B 79, 241103(R) (2009)

   Linear-tetrahedron sampling for density of states:
      G. Lehmann and M. Taut, Phys. status solidi (b) 54, 469 (1972)

This list may not be complete. Please suggest additional citations or
report any other bugs at https://github.com/shankar1729/jdftx/issues

Initialization completed successfully at t[s]:   1786.89


Computing DFT-D3 correction:
# coordination-number Cu 8.287 8.294 8.287 8.294 8.917 8.918 8.917 8.918 9.035 9.035 9.035 9.035 6.874 6.874 6.874 6.874 4.947 4.945 4.947 5.955 9.029 9.028 9.028 9.028 8.920 8.920 8.920 8.920 8.294 8.294 8.294 8.294 4.947 4.947 4.947 4.947 6.871 6.871 6.871 7.240
# coordination-number C 2.389
# coordination-number O 1.035
# diagonal-C6 Cu 175.00 175.00 175.00 175.00 175.00 175.00 175.00 175.00 175.00 175.00 175.00 175.00 175.00 175.00 175.00 175.00 175.00 175.00 175.00 175.00 175.00 175.00 175.00 175.00 175.00 175.00 175.00 175.00 175.00 175.00 175.00 175.00 175.00 175.00 175.00 175.00 175.00 175.00 175.00 175.00
# diagonal-C6 C 28.29
# diagonal-C6 O 12.78
EvdW_6 =   -0.208383
EvdW_8 =   -0.326441
Fluid solver invoked on fresh (random / LCAO) wavefunctions
Running a vacuum solve first:

-------- Initial electronic minimization -----------
	FillingsUpdate:  mu: +0.348537369  nElectrons: 770.000000  magneticMoment: [ Abs: 0.01283  Tot: -0.00163 ]
ElecMinimize: Iter:   0  F: -8088.365045089614796  |grad|_K:  4.435e-04  alpha:  1.000e+00
	FillingsUpdate:  mu: +0.076125623  nElectrons: 770.000000  magneticMoment: [ Abs: 0.01431  Tot: -0.00264 ]
	SubspaceRotationAdjust: set factor to 0.758
ElecMinimize: Iter:   1  F: -8092.414162390889942  |grad|_K:  1.669e-04  alpha:  9.101e-02  linmin:  4.476e-04  t[s]:   1933.66
	FillingsUpdate:  mu: +0.200233790  nElectrons: 770.000000  magneticMoment: [ Abs: 0.00958  Tot: -0.00103 ]
	SubspaceRotationAdjust: set factor to 0.787
ElecMinimize: Iter:   2  F: -8093.930403263801054  |grad|_K:  1.356e-04  alpha:  2.176e-01  linmin: -8.264e-05  t[s]:   2029.95
	FillingsUpdate:  mu: +0.217229616  nElectrons: 770.000000  magneticMoment: [ Abs: 0.00834  Tot: -0.00108 ]
	SubspaceRotationAdjust: set factor to 0.622
ElecMinimize: Iter:   3  F: -8094.710143303142104  |grad|_K:  1.412e-04  alpha:  1.438e-01  linmin: -1.126e-07  t[s]:   2126.12
	FillingsUpdate:  mu: +0.158016595  nElectrons: 770.000000  magneticMoment: [ Abs: 0.00658  Tot: -0.00072 ]
	SubspaceRotationAdjust: set factor to 0.433
ElecMinimize: Iter:   4  F: -8095.158108094992713  |grad|_K:  1.119e-04  alpha:  9.460e-02  linmin: -1.116e-06  t[s]:   2222.14
	FillingsUpdate:  mu: +0.095218958  nElectrons: 770.000000  magneticMoment: [ Abs: 0.00521  Tot: -0.00038 ]
	SubspaceRotationAdjust: set factor to 0.518
ElecMinimize: Iter:   5  F: -8095.432127872365527  |grad|_K:  4.769e-05  alpha:  8.565e-02  linmin: -8.840e-06  t[s]:   2318.33
	FillingsUpdate:  mu: +0.109944643  nElectrons: 770.000000  magneticMoment: [ Abs: 0.00460  Tot: -0.00036 ]
	SubspaceRotationAdjust: set factor to 0.524
ElecMinimize: Iter:   6  F: -8095.508876922942363  |grad|_K:  3.600e-05  alpha:  1.291e-01  linmin: -5.339e-06  t[s]:   2414.56
	FillingsUpdate:  mu: +0.116879199  nElectrons: 770.000000  magneticMoment: [ Abs: 0.00389  Tot: -0.00030 ]
	SubspaceRotationAdjust: set factor to 0.433
ElecMinimize: Iter:   7  F: -8095.563164701175992  |grad|_K:  3.158e-05  alpha:  1.614e-01  linmin: -4.187e-06  t[s]:   2510.85
	FillingsUpdate:  mu: +0.112710276  nElectrons: 770.000000  magneticMoment: [ Abs: 0.00328  Tot: -0.00022 ]
	SubspaceRotationAdjust: set factor to 0.478
ElecMinimize: Iter:   8  F: -8095.593263127921091  |grad|_K:  1.968e-05  alpha:  1.173e-01  linmin: -6.228e-07  t[s]:   2607.08
	FillingsUpdate:  mu: +0.111137808  nElectrons: 770.000000  magneticMoment: [ Abs: 0.00271  Tot: -0.00016 ]
	SubspaceRotationAdjust: set factor to 0.521
ElecMinimize: Iter:   9  F: -8095.609821507503511  |grad|_K:  1.623e-05  alpha:  1.670e-01  linmin: -2.710e-07  t[s]:   2703.43
	FillingsUpdate:  mu: +0.104485311  nElectrons: 770.000000  magneticMoment: [ Abs: 0.00229  Tot: -0.00012 ]
	SubspaceRotationAdjust: set factor to 0.459
ElecMinimize: Iter:  10  F: -8095.619106395697600  |grad|_K:  1.149e-05  alpha:  1.380e-01  linmin: -7.448e-07  t[s]:   2799.48
	FillingsUpdate:  mu: +0.103217539  nElectrons: 770.000000  magneticMoment: [ Abs: 0.00195  Tot: -0.00008 ]
	SubspaceRotationAdjust: set factor to 0.496
ElecMinimize: Iter:  11  F: -8095.623836094659964  |grad|_K:  9.051e-06  alpha:  1.399e-01  linmin: -5.941e-07  t[s]:   2895.60
	FillingsUpdate:  mu: +0.108624330  nElectrons: 770.000000  magneticMoment: [ Abs: 0.00156  Tot: -0.00006 ]
	SubspaceRotationAdjust: set factor to 0.53
ElecMinimize: Iter:  12  F: -8095.627520249895497  |grad|_K:  7.236e-06  alpha:  1.756e-01  linmin: -3.879e-07  t[s]:   2991.57
	FillingsUpdate:  mu: +0.108357793  nElectrons: 770.000000  magneticMoment: [ Abs: 0.00128  Tot: -0.00004 ]
	SubspaceRotationAdjust: set factor to 0.556
ElecMinimize: Iter:  13  F: -8095.629554022947559  |grad|_K:  6.021e-06  alpha:  1.518e-01  linmin:  3.352e-08  t[s]:   3087.75
	FillingsUpdate:  mu: +0.105651581  nElectrons: 770.000000  magneticMoment: [ Abs: 0.00102  Tot: -0.00002 ]
	SubspaceRotationAdjust: set factor to 0.502
ElecMinimize: Iter:  14  F: -8095.630944509628534  |grad|_K:  4.755e-06  alpha:  1.501e-01  linmin: -8.606e-08  t[s]:   3183.82
	FillingsUpdate:  mu: +0.105151785  nElectrons: 770.000000  magneticMoment: [ Abs: 0.00081  Tot: -0.00000 ]
	SubspaceRotationAdjust: set factor to 0.557
ElecMinimize: Iter:  15  F: -8095.631778941637094  |grad|_K:  3.333e-06  alpha:  1.444e-01  linmin:  9.732e-08  t[s]:   3279.67
	FillingsUpdate:  mu: +0.104907321  nElectrons: 770.000000  magneticMoment: [ Abs: 0.00064  Tot: +0.00001 ]
	SubspaceRotationAdjust: set factor to 0.59
ElecMinimize: Iter:  16  F: -8095.632265030201779  |grad|_K:  2.887e-06  alpha:  1.713e-01  linmin:  3.485e-07  t[s]:   3375.43
	FillingsUpdate:  mu: +0.104971138  nElectrons: 770.000000  magneticMoment: [ Abs: 0.00052  Tot: +0.00001 ]
	SubspaceRotationAdjust: set factor to 0.478
ElecMinimize: Iter:  17  F: -8095.632537429228250  |grad|_K:  2.000e-06  alpha:  1.280e-01  linmin:  2.635e-08  t[s]:   3472.39
	FillingsUpdate:  mu: +0.105409739  nElectrons: 770.000000  magneticMoment: [ Abs: 0.00042  Tot: +0.00001 ]
	SubspaceRotationAdjust: set factor to 0.439
ElecMinimize: Iter:  18  F: -8095.632691849395997  |grad|_K:  1.625e-06  alpha:  1.512e-01  linmin:  8.358e-08  t[s]:   3568.44
	FillingsUpdate:  mu: +0.105223105  nElectrons: 770.000000  magneticMoment: [ Abs: 0.00032  Tot: +0.00002 ]
	SubspaceRotationAdjust: set factor to 0.504
ElecMinimize: Iter:  19  F: -8095.632809415177690  |grad|_K:  1.270e-06  alpha:  1.743e-01  linmin:  6.656e-07  t[s]:   3664.58
	FillingsUpdate:  mu: +0.104976228  nElectrons: 770.000000  magneticMoment: [ Abs: 0.00026  Tot: +0.00002 ]
	SubspaceRotationAdjust: set factor to 0.434
ElecMinimize: Iter:  20  F: -8095.632863666482081  |grad|_K:  8.691e-07  alpha:  1.317e-01  linmin:  4.889e-08  t[s]:   3760.72
	FillingsUpdate:  mu: +0.105028187  nElectrons: 770.000000  magneticMoment: [ Abs: 0.00021  Tot: +0.00002 ]
	SubspaceRotationAdjust: set factor to 0.426
ElecMinimize: Iter:  21  F: -8095.632899144974544  |grad|_K:  7.727e-07  alpha:  1.839e-01  linmin:  5.017e-07  t[s]:   3856.71
	FillingsUpdate:  mu: +0.104983016  nElectrons: 770.000000  magneticMoment: [ Abs: 0.00016  Tot: +0.00001 ]
	SubspaceRotationAdjust: set factor to 0.468
ElecMinimize: Iter:  22  F: -8095.632922768969365  |grad|_K:  5.622e-07  alpha:  1.549e-01  linmin:  1.870e-07  t[s]:   3952.81
	FillingsUpdate:  mu: +0.104893533  nElectrons: 770.000000  magneticMoment: [ Abs: 0.00013  Tot: +0.00001 ]
	SubspaceRotationAdjust: set factor to 0.461
ElecMinimize: Iter:  23  F: -8095.632936827480989  |grad|_K:  4.993e-07  alpha:  1.742e-01  linmin:  2.903e-07  t[s]:   4049.02
	FillingsUpdate:  mu: +0.104885460  nElectrons: 770.000000  magneticMoment: [ Abs: 0.00010  Tot: +0.00001 ]
	SubspaceRotationAdjust: set factor to 0.489
ElecMinimize: Iter:  24  F: -8095.632947282208079  |grad|_K:  3.798e-07  alpha:  1.642e-01  linmin:  2.013e-07  t[s]:   4144.97
	FillingsUpdate:  mu: +0.104858264  nElectrons: 770.000000  magneticMoment: [ Abs: 0.00008  Tot: +0.00001 ]
	SubspaceRotationAdjust: set factor to 0.523
ElecMinimize: Iter:  25  F: -8095.632953646797432  |grad|_K:  3.425e-07  alpha:  1.728e-01  linmin:  2.120e-07  t[s]:   4240.88
	FillingsUpdate:  mu: +0.104833264  nElectrons: 770.000000  magneticMoment: [ Abs: 0.00006  Tot: +0.00001 ]
	SubspaceRotationAdjust: set factor to 0.565
ElecMinimize: Iter:  26  F: -8095.632959345541167  |grad|_K:  2.882e-07  alpha:  1.903e-01  linmin:  3.494e-07  t[s]:   4337.04
	FillingsUpdate:  mu: +0.104823320  nElectrons: 770.000000  magneticMoment: [ Abs: 0.00005  Tot: +0.00001 ]
	SubspaceRotationAdjust: set factor to 0.621
ElecMinimize: Iter:  27  F: -8095.632962386026520  |grad|_K:  2.179e-07  alpha:  1.434e-01  linmin:  5.052e-08  t[s]:   4433.09
	FillingsUpdate:  mu: +0.104763462  nElectrons: 770.000000  magneticMoment: [ Abs: 0.00004  Tot: +0.00001 ]
	SubspaceRotationAdjust: set factor to 0.636
ElecMinimize: Iter:  28  F: -8095.632964760466166  |grad|_K:  2.158e-07  alpha:  1.959e-01  linmin:  4.210e-07  t[s]:   4529.10
	FillingsUpdate:  mu: +0.104747065  nElectrons: 770.000000  magneticMoment: [ Abs: 0.00004  Tot: +0.00000 ]
	SubspaceRotationAdjust: set factor to 0.623
ElecMinimize: Iter:  29  F: -8095.632966613814460  |grad|_K:  1.626e-07  alpha:  1.560e-01  linmin:  1.436e-07  t[s]:   4625.03
	FillingsUpdate:  mu: +0.104791189  nElectrons: 770.000000  magneticMoment: [ Abs: 0.00003  Tot: +0.00000 ]
	SubspaceRotationAdjust: set factor to 0.602
ElecMinimize: Iter:  30  F: -8095.632967682729941  |grad|_K:  1.291e-07  alpha:  1.585e-01  linmin:  3.690e-07  t[s]:   4721.26
	FillingsUpdate:  mu: +0.104797470  nElectrons: 770.000000  magneticMoment: [ Abs: 0.00003  Tot: +0.00000 ]
	SubspaceRotationAdjust: set factor to 0.648
ElecMinimize: Iter:  31  F: -8095.632968393814735  |grad|_K:  1.041e-07  alpha:  1.671e-01  linmin:  2.247e-07  t[s]:   4817.54
	FillingsUpdate:  mu: +0.104775809  nElectrons: 770.000000  magneticMoment: [ Abs: 0.00003  Tot: +0.00000 ]
	SubspaceRotationAdjust: set factor to 0.654
ElecMinimize: Iter:  32  F: -8095.632968836984219  |grad|_K:  8.246e-08  alpha:  1.603e-01  linmin:  6.262e-09  t[s]:   4913.68
	FillingsUpdate:  mu: +0.104758327  nElectrons: 770.000000  magneticMoment: [ Abs: 0.00002  Tot: +0.00000 ]
	SubspaceRotationAdjust: set factor to 0.624
ElecMinimize: Iter:  33  F: -8095.632969118373694  |grad|_K:  6.788e-08  alpha:  1.621e-01  linmin: -2.176e-07  t[s]:   5009.86
	FillingsUpdate:  mu: +0.104754297  nElectrons: 770.000000  magneticMoment: [ Abs: 0.00002  Tot: +0.00000 ]
	SubspaceRotationAdjust: set factor to 0.625
ElecMinimize: Iter:  34  F: -8095.632969314812726  |grad|_K:  6.056e-08  alpha:  1.671e-01  linmin:  7.072e-07  t[s]:   5105.73
	FillingsUpdate:  mu: +0.104765232  nElectrons: 770.000000  magneticMoment: [ Abs: 0.00001  Tot: -0.00000 ]
	SubspaceRotationAdjust: set factor to 0.637
ElecMinimize: Iter:  35  F: -8095.632969461528774  |grad|_K:  4.670e-08  alpha:  1.584e-01  linmin:  4.439e-07  t[s]:   5201.99
	FillingsUpdate:  mu: +0.104771920  nElectrons: 770.000000  magneticMoment: [ Abs: 0.00001  Tot: -0.00000 ]
	SubspaceRotationAdjust: set factor to 0.691
ElecMinimize: Iter:  36  F: -8095.632969545612468  |grad|_K:  3.789e-08  alpha:  1.520e-01  linmin:  1.376e-07  t[s]:   5298.90
	FillingsUpdate:  mu: +0.104761733  nElectrons: 770.000000  magneticMoment: [ Abs: 0.00001  Tot: -0.00000 ]
	SubspaceRotationAdjust: set factor to 0.746
ElecMinimize: Iter:  37  F: -8095.632969610145665  |grad|_K:  3.153e-08  alpha:  1.739e-01  linmin: -7.698e-07  t[s]:   5394.99
ElecMinimize: Converged (|Delta F|<1.000000e-07 for 2 iters).
Setting wave functions to eigenvectors of Hamiltonian
Converging empty states (this may take a while): |deigs|: 1.351e-02
Vacuum energy after initial minimize, F = -8095.632969610145665


-------- Electronic minimization -----------
	Linear fluid (dielectric constant: 78.4, screening length: 8.12261 Bohr) occupying 0.444045 of unit cell:	Completed after 24 iterations at t[s]:   5950.95
	FillingsUpdate:  mu: -0.155321918  nElectrons: 770.000000  magneticMoment: [ Abs: 0.00000  Tot: +0.00000 ]
ElecMinimize: Iter:   0  F: -8095.632383560272501  |grad|_K:  1.439e-06  alpha:  1.000e+00
	Linear fluid (dielectric constant: 78.4, screening length: 8.12261 Bohr) occupying 0.446427 of unit cell:	Completed after 19 iterations at t[s]:   6032.69
	Linear fluid (dielectric constant: 78.4, screening length: 8.12261 Bohr) occupying 0.445355 of unit cell:	Completed after 18 iterations at t[s]:   6063.22
	FillingsUpdate:  mu: -0.150718020  nElectrons: 770.000000  magneticMoment: [ Abs: 0.00000  Tot: +0.00000 ]
	SubspaceRotationAdjust: set factor to 0.611
ElecMinimize: Iter:   1  F: -8095.632663060505365  |grad|_K:  1.817e-06  alpha:  5.380e-01  linmin:  2.694e-07  t[s]:   6099.96
	Linear fluid (dielectric constant: 78.4, screening length: 8.12261 Bohr) occupying 0.447461 of unit cell:	Completed after 15 iterations at t[s]:   6140.91
	Linear fluid (dielectric constant: 78.4, screening length: 8.12261 Bohr) occupying 0.445935 of unit cell:	Completed after 15 iterations at t[s]:   6170.06
	FillingsUpdate:  mu: -0.151759409  nElectrons: 770.000000  magneticMoment: [ Abs: 0.00000  Tot: +0.00000 ]
	SubspaceRotationAdjust: set factor to 0.689
ElecMinimize: Iter:   2  F: -8095.632781447877278  |grad|_K:  1.275e-06  alpha:  1.409e-01  linmin: -4.977e-08  t[s]:   6207.33
	Linear fluid (dielectric constant: 78.4, screening length: 8.12261 Bohr) occupying 0.446255 of unit cell:	Completed after 10 iterations at t[s]:   6245.89
	Linear fluid (dielectric constant: 78.4, screening length: 8.12261 Bohr) occupying 0.446281 of unit cell:	Completed after 2 iterations at t[s]:   6272.90
	FillingsUpdate:  mu: -0.152342920  nElectrons: 770.000000  magneticMoment: [ Abs: 0.00000  Tot: +0.00000 ]
	SubspaceRotationAdjust: set factor to 0.815
ElecMinimize: Iter:   3  F: -8095.632844905323509  |grad|_K:  8.565e-07  alpha:  1.525e-01  linmin:  9.736e-09  t[s]:   6310.41
	Linear fluid (dielectric constant: 78.4, screening length: 8.12261 Bohr) occupying 0.446480 of unit cell:	Completed after 11 iterations at t[s]:   6348.88
	Linear fluid (dielectric constant: 78.4, screening length: 8.12261 Bohr) occupying 0.446594 of unit cell:	Completed after 10 iterations at t[s]:   6377.82
	FillingsUpdate:  mu: -0.151769635  nElectrons: 770.000000  magneticMoment: [ Abs: 0.00000  Tot: +0.00000 ]
	SubspaceRotationAdjust: set factor to 0.939
ElecMinimize: Iter:   4  F: -8095.632890072723058  |grad|_K:  5.593e-07  alpha:  2.411e-01  linmin: -4.040e-09  t[s]:   6414.83
	Linear fluid (dielectric constant: 78.4, screening length: 8.12261 Bohr) occupying 0.446741 of unit cell:	Completed after 11 iterations at t[s]:   6453.32
	Linear fluid (dielectric constant: 78.4, screening length: 8.12261 Bohr) occupying 0.446682 of unit cell:	Completed after 10 iterations at t[s]:   6482.13
	FillingsUpdate:  mu: -0.151482788  nElectrons: 770.000000  magneticMoment: [ Abs: 0.00000  Tot: +0.00000 ]
	SubspaceRotationAdjust: set factor to 0.921
ElecMinimize: Iter:   5  F: -8095.632901530653726  |grad|_K:  4.339e-07  alpha:  1.433e-01  linmin:  1.228e-08  t[s]:   6519.03
	Linear fluid (dielectric constant: 78.4, screening length: 8.12261 Bohr) occupying 0.446726 of unit cell:	Completed after 10 iterations at t[s]:   6557.32
	Linear fluid (dielectric constant: 78.4, screening length: 8.12261 Bohr) occupying 0.446735 of unit cell:	Completed after 2 iterations at t[s]:   6584.46
	FillingsUpdate:  mu: -0.151732373  nElectrons: 770.000000  magneticMoment: [ Abs: 0.00000  Tot: +0.00000 ]
	SubspaceRotationAdjust: set factor to 0.833
ElecMinimize: Iter:   6  F: -8095.632909851258773  |grad|_K:  3.214e-07  alpha:  1.729e-01  linmin: -2.144e-07  t[s]:   6621.38
	Linear fluid (dielectric constant: 78.4, screening length: 8.12261 Bohr) occupying 0.446767 of unit cell:	Completed after 7 iterations at t[s]:   6659.29
	Linear fluid (dielectric constant: 78.4, screening length: 8.12261 Bohr) occupying 0.446765 of unit cell:	Completed after 2 iterations at t[s]:   6686.57
	FillingsUpdate:  mu: -0.151795694  nElectrons: 770.000000  magneticMoment: [ Abs: 0.00000  Tot: -0.00000 ]
	SubspaceRotationAdjust: set factor to 0.773
ElecMinimize: Iter:   7  F: -8095.632914187636743  |grad|_K:  2.462e-07  alpha:  1.636e-01  linmin:  2.210e-07  t[s]:   6723.44
	Linear fluid (dielectric constant: 78.4, screening length: 8.12261 Bohr) occupying 0.446782 of unit cell:	Completed after 3 iterations at t[s]:   6760.46
	Linear fluid (dielectric constant: 78.4, screening length: 8.12261 Bohr) occupying 0.446783 of unit cell:	Completed after 0 iterations at t[s]:   6786.83
	FillingsUpdate:  mu: -0.151807634  nElectrons: 770.000000  magneticMoment: [ Abs: 0.00000  Tot: -0.00000 ]
	SubspaceRotationAdjust: set factor to 0.829
ElecMinimize: Iter:   8  F: -8095.632916774961814  |grad|_K:  1.536e-07  alpha:  1.675e-01  linmin: -1.840e-06  t[s]:   6824.20
	Linear fluid (dielectric constant: 78.4, screening length: 8.12261 Bohr) occupying 0.446790 of unit cell:	Completed after 2 iterations at t[s]:   6861.00
	Linear fluid (dielectric constant: 78.4, screening length: 8.12261 Bohr) occupying 0.446790 of unit cell:	Completed after 2 iterations at t[s]:   6888.00
	FillingsUpdate:  mu: -0.151741526  nElectrons: 770.000000  magneticMoment: [ Abs: 0.00000  Tot: -0.00000 ]
	SubspaceRotationAdjust: set factor to 0.849
ElecMinimize: Iter:   9  F: -8095.632917876346255  |grad|_K:  1.502e-07  alpha:  1.825e-01  linmin:  1.595e-06  t[s]:   6924.94
	Linear fluid (dielectric constant: 78.4, screening length: 8.12261 Bohr) occupying 0.446795 of unit cell:	Completed after 5 iterations at t[s]:   6962.30
	Linear fluid (dielectric constant: 78.4, screening length: 8.12261 Bohr) occupying 0.446796 of unit cell:	Completed after 1 iterations at t[s]:   6989.34
	FillingsUpdate:  mu: -0.151729324  nElectrons: 770.000000  magneticMoment: [ Abs: 0.00000  Tot: -0.00000 ]
	SubspaceRotationAdjust: set factor to 0.85
ElecMinimize: Iter:  10  F: -8095.632919030896119  |grad|_K:  1.114e-07  alpha:  2.027e-01  linmin: -1.843e-06  t[s]:   7026.29
	Linear fluid (dielectric constant: 78.4, screening length: 8.12261 Bohr) occupying 0.446798 of unit cell:	Completed after 7 iterations at t[s]:   7064.03
	Linear fluid (dielectric constant: 78.4, screening length: 8.12261 Bohr) occupying 0.446797 of unit cell:	Completed after 3 iterations at t[s]:   7091.39
	FillingsUpdate:  mu: -0.151766541  nElectrons: 770.000000  magneticMoment: [ Abs: 0.00000  Tot: -0.00000 ]
	SubspaceRotationAdjust: set factor to 0.685
ElecMinimize: Iter:  11  F: -8095.632919458306787  |grad|_K:  7.034e-08  alpha:  1.291e-01  linmin:  1.612e-06  t[s]:   7128.66
	Linear fluid (dielectric constant: 78.4, screening length: 8.12261 Bohr) occupying 0.446797 of unit cell:	Completed after 2 iterations at t[s]:   7165.39
	Linear fluid (dielectric constant: 78.4, screening length: 8.12261 Bohr) occupying 0.446797 of unit cell:	Completed after 2 iterations at t[s]:   7192.44
	FillingsUpdate:  mu: -0.151738674  nElectrons: 770.000000  magneticMoment: [ Abs: 0.00000  Tot: -0.00000 ]
	SubspaceRotationAdjust: set factor to 0.71
ElecMinimize: Iter:  12  F: -8095.632919755958028  |grad|_K:  6.673e-08  alpha:  2.373e-01  linmin: -7.619e-07  t[s]:   7229.24
	Linear fluid (dielectric constant: 78.4, screening length: 8.12261 Bohr) occupying 0.446795 of unit cell:	Completed after 2 iterations at t[s]:   7266.00
	Linear fluid (dielectric constant: 78.4, screening length: 8.12261 Bohr) occupying 0.446795 of unit cell:	Completed after 2 iterations at t[s]:   7293.04
	FillingsUpdate:  mu: -0.151747956  nElectrons: 770.000000  magneticMoment: [ Abs: 0.00000  Tot: -0.00000 ]
	SubspaceRotationAdjust: set factor to 0.764
ElecMinimize: Iter:  13  F: -8095.632919923264126  |grad|_K:  4.356e-08  alpha:  1.453e-01  linmin:  4.387e-08  t[s]:   7330.03
	Linear fluid (dielectric constant: 78.4, screening length: 8.12261 Bohr) occupying 0.446795 of unit cell:	Completed after 1 iterations at t[s]:   7366.90
	Linear fluid (dielectric constant: 78.4, screening length: 8.12261 Bohr) occupying 0.446794 of unit cell:	Completed after 0 iterations at t[s]:   7393.48
	FillingsUpdate:  mu: -0.151752072  nElectrons: 770.000000  magneticMoment: [ Abs: 0.00000  Tot: -0.00000 ]
	SubspaceRotationAdjust: set factor to 0.866
ElecMinimize: Iter:  14  F: -8095.632920025741441  |grad|_K:  3.287e-08  alpha:  2.092e-01  linmin: -2.950e-06  t[s]:   7430.41
	Linear fluid (dielectric constant: 78.4, screening length: 8.12261 Bohr) occupying 0.446794 of unit cell:	Completed after 2 iterations at t[s]:   7467.43
	Linear fluid (dielectric constant: 78.4, screening length: 8.12261 Bohr) occupying 0.446794 of unit cell:	Completed after 0 iterations at t[s]:   7493.69
	FillingsUpdate:  mu: -0.151761002  nElectrons: 770.000000  magneticMoment: [ Abs: 0.00000  Tot: -0.00000 ]
	SubspaceRotationAdjust: set factor to 0.885
ElecMinimize: Iter:  15  F: -8095.632920072441266  |grad|_K:  2.760e-08  alpha:  1.601e-01  linmin:  2.031e-06  t[s]:   7530.64
	Linear fluid (dielectric constant: 78.4, screening length: 8.12261 Bohr) occupying 0.446795 of unit cell:	Completed after 2 iterations at t[s]:   7567.51
	Linear fluid (dielectric constant: 78.4, screening length: 8.12261 Bohr) occupying 0.446794 of unit cell:	Completed after 0 iterations at t[s]:   7593.86
	FillingsUpdate:  mu: -0.151759685  nElectrons: 770.000000  magneticMoment: [ Abs: 0.00000  Tot: -0.00000 ]
	SubspaceRotationAdjust: set factor to 0.927
ElecMinimize: Iter:  16  F: -8095.632920098316390  |grad|_K:  2.359e-08  alpha:  1.361e-01  linmin:  3.331e-06  t[s]:   7630.78
ElecMinimize: Converged (|Delta F|<1.000000e-07 for 2 iters).
Setting wave functions to eigenvectors of Hamiltonian
Converging empty states (this may take a while): |deigs|: 1.177e-04
Single-point solvation energy estimate, DeltaF = +0.000049511829275

Computing DFT-D3 correction:
# coordination-number Cu 8.287 8.294 8.287 8.294 8.917 8.918 8.917 8.918 9.035 9.035 9.035 9.035 6.874 6.874 6.874 6.874 4.947 4.945 4.947 5.955 9.029 9.028 9.028 9.028 8.920 8.920 8.920 8.920 8.294 8.294 8.294 8.294 4.947 4.947 4.947 4.947 6.871 6.871 6.871 7.240
# coordination-number C 2.389
# coordination-number O 1.035
# diagonal-C6 Cu 175.00 175.00 175.00 175.00 175.00 175.00 175.00 175.00 175.00 175.00 175.00 175.00 175.00 175.00 175.00 175.00 175.00 175.00 175.00 175.00 175.00 175.00 175.00 175.00 175.00 175.00 175.00 175.00 175.00 175.00 175.00 175.00 175.00 175.00 175.00 175.00 175.00 175.00 175.00 175.00
# diagonal-C6 C 28.29
# diagonal-C6 O 12.78
EvdW_6 =   -0.208383
EvdW_8 =   -0.326441

# Ionic positions in cartesian coordinates:
ion Cu   3.374454999999999   1.518659000000000  11.420712999999997 0
ion Cu   0.003943000000000   9.055351000000002  11.420712999999997 0
ion Cu  10.115479000000001   1.518659000000000  11.420712999999997 0
ion Cu   6.744966999999997   9.055351000000002  11.420712999999997 0
ion Cu   0.000344000000000   2.995850000000000   8.272439999999998 0
ion Cu  -3.370168000000001  10.532543000000000   8.272439999999998 0
ion Cu   6.741367000000000   2.995850000000000   8.272439999999998 0
ion Cu   3.370855999999998  10.532543000000000   8.272439999999998 0
ion Cu   3.367713999999999   4.556338000000000   5.270771000000000 0
ion Cu  -0.002791000000002  12.093015000000001   5.270771000000000 0
ion Cu  10.108750999999998   4.556338000000000   5.270771000000000 0
ion Cu   6.738232999999997  12.093015000000001   5.270771000000000 0
ion Cu  -0.002959000000001   6.045498000000001   2.187299000000000 0
ion Cu  -3.373471000000001  13.582190000000002   2.187299000000000 0
ion Cu   6.738077999999999   6.045498000000001   2.187299000000000 0
ion Cu   3.367565999999998  13.582190000000002   2.187299000000000 0
ion Cu   6.744669999999997  15.039877000000001  14.212244000000000 0
ion Cu  10.115181999999999   7.503185000000001  14.212244000000000 0
ion Cu   0.003646999999998  15.039877000000001  14.212244000000000 0
ion Cu   3.374158999999998   7.503185000000001  14.212244000000000 0
ion Cu   3.373288999999999   5.995801000000001   9.801515000000000 0
ion Cu   0.002770999999998  13.532508999999999   9.801515000000000 0
ion Cu  10.114312999999997   5.995801000000001   9.801515000000000 0
ion Cu   6.743807999999997  13.532508999999999   9.801515000000000 0
ion Cu   3.370235000000000   0.020545000000000   6.798760999999999 0
ion Cu  -0.000276000000001   7.557238000000001   6.798760999999999 0
ion Cu  10.111258999999999   0.020545000000000   6.798760999999999 0
ion Cu   6.740746999999999   7.557238000000001   6.798760999999999 0
ion Cu  -0.004564000000000   1.496471000000000   3.652749000000000 0
ion Cu  -3.375075000000001   9.033163000000002   3.652749000000000 0
ion Cu   6.736459999999999   1.496471000000000   3.652749000000000 0
ion Cu   3.365947999999998   9.033163000000002   3.652749000000000 0
ion Cu   3.366999999999999   3.046346000000001   0.863298000000000 0
ion Cu  -0.003519000000002  10.583054000000001   0.863298000000000 0
ion Cu  10.108022999999998   3.046346000000001   0.863298000000000 0
ion Cu   6.737504999999997  10.583054000000001   0.863298000000000 0
ion Cu   0.003383999999999   4.504741000000000  12.887157999999999 0
ion Cu  -3.367128000000000  12.041434000000001  12.887157999999999 0
ion Cu   6.744406999999997   4.504741000000000  12.887157999999999 0
ion Cu   3.373895999999998  12.041434000000001  12.887157999999999 0
ion C   3.374030999999998   9.772317000000001  16.876932000000000 1  Linear 0 0 1
ion O   3.434119999999999   9.772317000000001  19.032305999999998 1  Linear 0 0 1

# Forces in Cartesian coordinates:
force Cu  -0.000093127031122   0.000791832735776   0.000202309754423 0
force Cu  -0.004619767654739  -0.000408434398606  -0.005546547298162 0
force Cu   0.000057884755313  -0.000434544007746   0.000311387522608 0
force Cu   0.004590547475392  -0.000714077055343  -0.005299807861749 0
force Cu  -0.000500290207613  -0.000561409010566  -0.000271325634158 0
force Cu  -0.000044867408701   0.000273586842414  -0.000021375716676 0
force Cu   0.000079989685717  -0.000694517910143  -0.000270853395631 0
force Cu  -0.000085894297427  -0.000342820455362   0.002740360211618 0
force Cu   0.000191460057793   0.000656194075883   0.000047164604771 0
force Cu   0.000135855101760   0.000808370447794  -0.000534756625160 0
force Cu   0.000122945370547   0.001203706787984  -0.000328462850752 0
force Cu   0.000223926881992   0.000444466023090  -0.000727323992471 0
force Cu  -0.000332659537510  -0.000079516187152  -0.000080503007542 0
force Cu  -0.000225094979323   0.000262328366436   0.000376142304852 0
force Cu   0.000011284111922  -0.000171456663090   0.000073906799855 0
force Cu  -0.000234833005334   0.000174966836379   0.000039150821027 0
force Cu   0.000283527766607   0.000083633014850   0.000410700886006 0
force Cu  -0.000110880922323  -0.000697706378495  -0.000635593704612 0
force Cu  -0.000286599168182  -0.000039990759355  -0.000036931549837 0
force Cu  -0.000188149487506  -0.005117633525047  -0.006098206518389 0
force Cu  -0.000061086167979  -0.000002627846829   0.001658735304338 0
force Cu  -0.000106933244562  -0.001067326011081   0.001084438844692 0
force Cu   0.000066465195809  -0.001124420824508   0.000486273036314 0
force Cu  -0.000112826099495  -0.000814647129773   0.000844277272753 0
force Cu   0.000122868040171   0.000285098443623   0.001103045752926 0
force Cu  -0.000447212300762  -0.000371501835934  -0.000812822874042 0
force Cu   0.000023504983294   0.000142606684980  -0.000368779236761 0
force Cu   0.000418074013208  -0.000189965883539  -0.000860188784818 0
force Cu   0.000274845077210  -0.000766982162183  -0.000178492267828 0
force Cu  -0.000019023182619  -0.000486011398356   0.000169294557342 0
force Cu  -0.000023733871058  -0.000719828091235  -0.000212735069291 0
force Cu   0.000011840950057  -0.000114557903022   0.000937315230550 0
force Cu   0.000052164002970   0.000290532311654  -0.000161709205150 0
force Cu  -0.000316796120954   0.000586121655061   0.000004930341978 0
force Cu   0.000065688768308   0.000580830961705  -0.000147544727751 0
force Cu   0.000309356343821   0.000702781225306  -0.000030062443710 0
force Cu   0.000599565042416  -0.000271835383873  -0.000681981332998 0
force Cu   0.000200698365064  -0.000148270673848  -0.001194988136734 0
force Cu  -0.000319091077851  -0.000140203763879  -0.000608341387879 0
force Cu  -0.000090569101615   0.002640308430753   0.008292200560288 0
force C  -0.000517851226983  -0.004839153532376  -0.043432047881107 1  Linear 0 0 1
force O   0.000971659957404   0.010332765492976   0.050091363408098 1  Linear 0 0 1

# Energy components:
   A_diel =       -0.0006761885306328
   Eewald =    25191.4913058853926486
       EH =    32605.4033481624428532
     Eloc =   -67416.7274489118281053
      Enl =     1468.0827550628575864
     EvdW =       -0.5348240747146817
      Exc =     -781.3846515103655292
 Exc_core =        1.9776363044092480
       KE =      836.0608028370016882
-------------------------------------
     Etot =    -8095.6317524333344409
       TS =        0.0011676649816211
-------------------------------------
        F =    -8095.6329200983163901


Dumping 'jdft.fillings' ... done
Dumping 'jdft.wfns' ... done
Dumping 'jdft.fluidState' ... done
Dumping 'jdft.ionpos' ... done
Dumping 'jdft.lattice' ... done
Dumping 'jdft.eigenvals' ... done
Dumping 'jdft.eigStats' ... 
	eMin: -4.304604 at state 0 ( [ +0.000000 +0.000000 +0.000000 ] spin 1 )
	HOMO: -0.152176 at state 10 ( [ +0.250000 +0.333333 +0.000000 ] spin -1 )
	mu  : -0.151760
	LUMO: -0.151273 at state 13 ( [ +0.500000 +0.333333 +0.000000 ] spin -1 )
	eMax: +0.178379 at state 5 ( [ +0.500000 +0.000000 +0.000000 ] spin 1 )
	HOMO-LUMO gap: +0.000903
	Optical gap  : +0.004396 at state 6 ( [ +0.500000 +0.333333 +0.000000 ] spin 1 )
Dumping 'jdft.Ecomponents' ... done
IonicMinimize: Iter:   0  F: -8095.632920098316390  |grad|_K:  4.688e-02  t[s]:   8077.91

#--- Lowdin population analysis ---
# oxidation-state Cu +0.029 +0.044 +0.026 +0.043 +0.074 +0.075 +0.074 +0.072 +0.045 +0.045 +0.047 +0.046 +0.058 +0.052 +0.059 +0.061 +0.236 +0.241 +0.239 -0.003 +0.051 +0.046 +0.048 +0.047 +0.073 +0.075 +0.075 +0.075 +0.027 +0.027 +0.026 +0.025 +0.240 +0.242 +0.239 +0.243 +0.062 +0.051 +0.064 +0.036
# magnetic-moments Cu +0.000 +0.000 +0.000 +0.000 +0.000 +0.000 +0.000 +0.000 +0.000 +0.000 +0.000 +0.000 -0.000 +0.000 +0.000 +0.000 +0.000 +0.000 +0.000 +0.000 +0.000 +0.000 +0.000 +0.000 +0.000 +0.000 +0.000 +0.000 +0.000 +0.000 +0.000 +0.000 +0.000 +0.000 -0.000 +0.000 +0.000 +0.000 +0.000 +0.000
# oxidation-state C +0.394
# magnetic-moments C +0.000
# oxidation-state O -0.111
# magnetic-moments O -0.000


Computing DFT-D3 correction:
# coordination-number Cu 8.287 8.294 8.287 8.294 8.917 8.918 8.917 8.918 9.035 9.035 9.035 9.035 6.874 6.874 6.874 6.874 4.947 4.945 4.947 5.955 9.029 9.028 9.028 9.028 8.920 8.920 8.920 8.920 8.294 8.294 8.294 8.294 4.947 4.947 4.947 4.947 6.871 6.871 6.871 7.270
# coordination-number C 2.423
# coordination-number O 1.032
# diagonal-C6 Cu 175.00 175.00 175.00 175.00 175.00 175.00 175.00 175.00 175.00 175.00 175.00 175.00 175.00 175.00 175.00 175.00 175.00 175.00 175.00 175.00 175.00 175.00 175.00 175.00 175.00 175.00 175.00 175.00 175.00 175.00 175.00 175.00 175.00 175.00 175.00 175.00 175.00 175.00 175.00 175.00
# diagonal-C6 C 28.07
# diagonal-C6 O 12.78
EvdW_6 =   -0.208351
EvdW_8 =   -0.326436

-------- Electronic minimization -----------
	Linear fluid (dielectric constant: 78.4, screening length: 8.12261 Bohr) occupying 0.446745 of unit cell:	Completed after 18 iterations at t[s]:   8118.33
	FillingsUpdate:  mu: -0.151786720  nElectrons: 770.000000  magneticMoment: [ Abs: 0.00000  Tot: +0.00000 ]
ElecMinimize: Iter:   0  F: -8095.602016660349364  |grad|_K:  1.454e-05  alpha:  1.000e+00
	Linear fluid (dielectric constant: 78.4, screening length: 8.12261 Bohr) occupying 0.446200 of unit cell:	Completed after 16 iterations at t[s]:   8199.65
	Linear fluid (dielectric constant: 78.4, screening length: 8.12261 Bohr) occupying 0.446460 of unit cell:	Completed after 15 iterations at t[s]:   8229.32
	FillingsUpdate:  mu: -0.150014871  nElectrons: 770.000000  magneticMoment: [ Abs: 0.00000  Tot: +0.00000 ]
	SubspaceRotationAdjust: set factor to 0.82
ElecMinimize: Iter:   1  F: -8095.629518664109128  |grad|_K:  6.293e-06  alpha:  5.085e-01  linmin:  1.346e-07  t[s]:   8266.63
	Linear fluid (dielectric constant: 78.4, screening length: 8.12261 Bohr) occupying 0.446232 of unit cell:	Completed after 22 iterations at t[s]:   8307.47
	Linear fluid (dielectric constant: 78.4, screening length: 8.12261 Bohr) occupying 0.446348 of unit cell:	Completed after 20 iterations at t[s]:   8338.17
	FillingsUpdate:  mu: -0.157172821  nElectrons: 770.000000  magneticMoment: [ Abs: 0.00000  Tot: +0.00000 ]
	SubspaceRotationAdjust: set factor to 0.828
ElecMinimize: Iter:   2  F: -8095.631428445539314  |grad|_K:  4.454e-06  alpha:  1.845e-01  linmin: -1.973e-04  t[s]:   8375.26
	Linear fluid (dielectric constant: 78.4, screening length: 8.12261 Bohr) occupying 0.446548 of unit cell:	Completed after 18 iterations at t[s]:   8414.96
	Linear fluid (dielectric constant: 78.4, screening length: 8.12261 Bohr) occupying 0.446486 of unit cell:	Completed after 15 iterations at t[s]:   8444.70
	FillingsUpdate:  mu: -0.155082109  nElectrons: 770.000000  magneticMoment: [ Abs: 0.00000  Tot: +0.00000 ]
	SubspaceRotationAdjust: set factor to 0.844
ElecMinimize: Iter:   3  F: -8095.632100197116415  |grad|_K:  3.241e-06  alpha:  1.301e-01  linmin:  1.262e-06  t[s]:   8482.00
	Linear fluid (dielectric constant: 78.4, screening length: 8.12261 Bohr) occupying 0.446609 of unit cell:	Completed after 16 iterations at t[s]:   8521.53
	Linear fluid (dielectric constant: 78.4, screening length: 8.12261 Bohr) occupying 0.446643 of unit cell:	Completed after 11 iterations at t[s]:   8550.74
	FillingsUpdate:  mu: -0.152687313  nElectrons: 770.000000  magneticMoment: [ Abs: 0.00000  Tot: +0.00000 ]
	SubspaceRotationAdjust: set factor to 0.711
ElecMinimize: Iter:   4  F: -8095.632546685545094  |grad|_K:  1.784e-06  alpha:  1.665e-01  linmin:  9.695e-06  t[s]:   8587.71
	Linear fluid (dielectric constant: 78.4, screening length: 8.12261 Bohr) occupying 0.446670 of unit cell:	Completed after 15 iterations at t[s]:   8626.98
	Linear fluid (dielectric constant: 78.4, screening length: 8.12261 Bohr) occupying 0.446672 of unit cell:	Completed after 6 iterations at t[s]:   8655.00
	FillingsUpdate:  mu: -0.154187214  nElectrons: 770.000000  magneticMoment: [ Abs: 0.00000  Tot: +0.00000 ]
	SubspaceRotationAdjust: set factor to 0.706
ElecMinimize: Iter:   5  F: -8095.632690414785429  |grad|_K:  1.331e-06  alpha:  1.772e-01  linmin:  2.236e-06  t[s]:   8692.20
	Linear fluid (dielectric constant: 78.4, screening length: 8.12261 Bohr) occupying 0.446698 of unit cell:	Completed after 11 iterations at t[s]:   8730.85
	Linear fluid (dielectric constant: 78.4, screening length: 8.12261 Bohr) occupying 0.446696 of unit cell:	Completed after 3 iterations at t[s]:   8758.39
	FillingsUpdate:  mu: -0.154357837  nElectrons: 770.000000  magneticMoment: [ Abs: 0.00000  Tot: +0.00000 ]
	SubspaceRotationAdjust: set factor to 0.722
ElecMinimize: Iter:   6  F: -8095.632764290220621  |grad|_K:  1.109e-06  alpha:  1.633e-01  linmin:  3.009e-06  t[s]:   8795.38
	Linear fluid (dielectric constant: 78.4, screening length: 8.12261 Bohr) occupying 0.446743 of unit cell:	Completed after 12 iterations at t[s]:   8834.09
	Linear fluid (dielectric constant: 78.4, screening length: 8.12261 Bohr) occupying 0.446746 of unit cell:	Completed after 3 iterations at t[s]:   8861.59
	FillingsUpdate:  mu: -0.153697926  nElectrons: 770.000000  magneticMoment: [ Abs: 0.00000  Tot: +0.00000 ]
	SubspaceRotationAdjust: set factor to 0.743
ElecMinimize: Iter:   7  F: -8095.632819389174074  |grad|_K:  5.930e-07  alpha:  1.755e-01  linmin: -3.958e-07  t[s]:   8898.48
	Linear fluid (dielectric constant: 78.4, screening length: 8.12261 Bohr) occupying 0.446769 of unit cell:	Completed after 10 iterations at t[s]:   8937.17
	Linear fluid (dielectric constant: 78.4, screening length: 8.12261 Bohr) occupying 0.446768 of unit cell:	Completed after 2 iterations at t[s]:   8964.07
	FillingsUpdate:  mu: -0.153426219  nElectrons: 770.000000  magneticMoment: [ Abs: 0.00000  Tot: +0.00000 ]
	SubspaceRotationAdjust: set factor to 0.806
ElecMinimize: Iter:   8  F: -8095.632834164175620  |grad|_K:  4.920e-07  alpha:  1.645e-01  linmin: -5.355e-06  t[s]:   9001.10
	Linear fluid (dielectric constant: 78.4, screening length: 8.12261 Bohr) occupying 0.446780 of unit cell:	Completed after 8 iterations at t[s]:   9039.04
	Linear fluid (dielectric constant: 78.4, screening length: 8.12261 Bohr) occupying 0.446782 of unit cell:	Completed after 2 iterations at t[s]:   9066.19
	FillingsUpdate:  mu: -0.153647365  nElectrons: 770.000000  magneticMoment: [ Abs: 0.00000  Tot: +0.00000 ]
	SubspaceRotationAdjust: set factor to 0.806
ElecMinimize: Iter:   9  F: -8095.632845745415580  |grad|_K:  3.397e-07  alpha:  1.871e-01  linmin: -6.316e-06  t[s]:   9103.09
	Linear fluid (dielectric constant: 78.4, screening length: 8.12261 Bohr) occupying 0.446790 of unit cell:	Completed after 7 iterations at t[s]:   9141.32
	Linear fluid (dielectric constant: 78.4, screening length: 8.12261 Bohr) occupying 0.446787 of unit cell:	Completed after 3 iterations at t[s]:   9168.66
	FillingsUpdate:  mu: -0.153777378  nElectrons: 770.000000  magneticMoment: [ Abs: 0.00000  Tot: +0.00000 ]
	SubspaceRotationAdjust: set factor to 0.84
ElecMinimize: Iter:  10  F: -8095.632849626150346  |grad|_K:  2.103e-07  alpha:  1.318e-01  linmin: -1.228e-05  t[s]:   9205.67
	Linear fluid (dielectric constant: 78.4, screening length: 8.12261 Bohr) occupying 0.446794 of unit cell:	Completed after 3 iterations at t[s]:   9242.66
	Linear fluid (dielectric constant: 78.4, screening length: 8.12261 Bohr) occupying 0.446797 of unit cell:	Completed after 3 iterations at t[s]:   9269.87
	FillingsUpdate:  mu: -0.153757681  nElectrons: 770.000000  magneticMoment: [ Abs: 0.00000  Tot: +0.00000 ]
	SubspaceRotationAdjust: set factor to 0.873
ElecMinimize: Iter:  11  F: -8095.632851793460759  |grad|_K:  1.758e-07  alpha:  1.925e-01  linmin:  6.822e-05  t[s]:   9306.72
	Linear fluid (dielectric constant: 78.4, screening length: 8.12261 Bohr) occupying 0.446812 of unit cell:	Completed after 7 iterations at t[s]:   9344.38
	Linear fluid (dielectric constant: 78.4, screening length: 8.12261 Bohr) occupying 0.446812 of unit cell:	Completed after 0 iterations at t[s]:   9370.91
	FillingsUpdate:  mu: -0.153635400  nElectrons: 770.000000  magneticMoment: [ Abs: 0.00000  Tot: +0.00000 ]
	SubspaceRotationAdjust: set factor to 0.766
ElecMinimize: Iter:  12  F: -8095.632853225291910  |grad|_K:  1.400e-07  alpha:  1.828e-01  linmin:  1.162e-04  t[s]:   9407.90
	Linear fluid (dielectric constant: 78.4, screening length: 8.12261 Bohr) occupying 0.446820 of unit cell:	Completed after 2 iterations at t[s]:   9444.74
[...]
ion Cu   3.373895999999998  12.041434000000001  12.887157999999999 0
ion C   3.374030999999998   9.772317000000001  16.930925488014914 1  Linear 0 0 1
ion O   3.434119999999999   9.772317000000001  19.129744808180462 1  Linear 0 0 1

# Forces in Cartesian coordinates:
force Cu  -0.000092403138637   0.000786026642101   0.000163547275134 0
force Cu  -0.004463798185365  -0.000409681920558  -0.005454015305241 0
force Cu   0.000058563700293  -0.000363558081377   0.000295925688320 0
force Cu   0.004443344479417  -0.000710743475586  -0.005209618719691 0
force Cu  -0.000483984191219  -0.000532671695280  -0.000265471866354 0
force Cu  -0.000048451245743   0.000250105547947  -0.000046379216293 0
force Cu   0.000068101795091  -0.000670717668974  -0.000263871860520 0
force Cu  -0.000083652967533  -0.000348743734965   0.002724211527167 0
force Cu   0.000184528718706   0.000664070648919   0.000082868558291 0
force Cu   0.000150765036944   0.000786843737168  -0.000537812716475 0
force Cu   0.000119981932454   0.001176592965135  -0.000361362041468 0
force Cu   0.000198343479106   0.000427695252753  -0.000740707705282 0
force Cu  -0.000334134981075  -0.000071585721860  -0.000095998159749 0
force Cu  -0.000221306438337   0.000262229482110   0.000362271288477 0
force Cu   0.000021071173333  -0.000166294182811   0.000046307653398 0
force Cu  -0.000227328835659   0.000171207841252   0.000040096295291 0
force Cu   0.000249096880055   0.000038561715306   0.000536012866170 0
force Cu  -0.000105282453607  -0.000693554596881  -0.000531478948607 0
force Cu  -0.000249012045765  -0.000099816138595   0.000090107196989 0
force Cu  -0.000158794922634  -0.001850017662219  -0.000964397425250 0
force Cu  -0.000063578429759   0.000078441084868   0.001705613458621 0
force Cu  -0.000100388002376  -0.001079621436384   0.001059061523531 0
force Cu   0.000074137574936  -0.001079231089179   0.000471859347351 0
force Cu  -0.000110516391739  -0.000831010815622   0.000809183632760 0
force Cu   0.000122079151458   0.000257012626329   0.001045740531064 0
force Cu  -0.000428227277627  -0.000352632609730  -0.000804998634492 0
force Cu   0.000021127310008   0.000109308102051  -0.000399243393471 0
force Cu   0.000400537305716  -0.000172302452371  -0.000850835407753 0
force Cu   0.000269355567830  -0.000780763676720  -0.000195188230182 0
force Cu  -0.000020270399673  -0.000463319358352   0.000133625211986 0
force Cu  -0.000022194225117  -0.000724963181433  -0.000228905549354 0
force Cu   0.000006944210620  -0.000084109056649   0.000953824598536 0
force Cu   0.000058765165303   0.000263504521702  -0.000204615800970 0
force Cu  -0.000326293844776   0.000594232819941  -0.000051684030044 0
force Cu   0.000058348182219   0.000578456048585  -0.000202105515297 0
force Cu   0.000313396483491   0.000714511349526  -0.000080742392254 0
force Cu   0.000596884072377  -0.000210070931701  -0.000628634805252 0
force Cu   0.000196030530066  -0.000196919819820  -0.001187568818747 0
force Cu  -0.000324357551743  -0.000077739450574  -0.000556268920666 0
force Cu  -0.000084388785719   0.002569518011387   0.008533272565229 0
force C   0.000767243886826  -0.007065883093436  -0.000227421869491 1  Linear 0 0 1
force O  -0.000329433264175   0.009279393250662   0.000496957553299 1  Linear 0 0 1

# Energy components:
   A_diel =       -0.0009684946813328
   Eewald =    25181.5548635740306054
       EH =    32594.8296353990299394
     Eloc =   -67396.1639622936199885
      Enl =     1468.0696498200759379
     EvdW =       -0.5347520145605160
      Exc =     -781.3610686949789397
 Exc_core =        1.9776376485997513
       KE =      835.9959539184152391
-------------------------------------
     Etot =    -8095.6330111376892091
       TS =        0.0011683029965941
-------------------------------------
        F =    -8095.6341794406862391


Dumping 'jdft.fillings' ... done
Dumping 'jdft.wfns' ... done
Dumping 'jdft.fluidState' ... done
Dumping 'jdft.ionpos' ... done
Dumping 'jdft.lattice' ... done
Dumping 'jdft.eigenvals' ... done
Dumping 'jdft.eigStats' ... 
	eMin: -4.303912 at state 0 ( [ +0.000000 +0.000000 +0.000000 ] spin 1 )
	HOMO: -0.152990 at state 10 ( [ +0.250000 +0.333333 +0.000000 ] spin -1 )
	mu  : -0.152551
	LUMO: -0.152001 at state 6 ( [ +0.500000 +0.333333 +0.000000 ] spin 1 )
	eMax: +0.177988 at state 5 ( [ +0.500000 +0.000000 +0.000000 ] spin 1 )
	HOMO-LUMO gap: +0.000989
	Optical gap  : +0.004434 at state 6 ( [ +0.500000 +0.333333 +0.000000 ] spin 1 )
Dumping 'jdft.Ecomponents' ... done
IonicMinimize: Iter:   3  F: -8095.634179440686239  |grad|_K:  3.865e-04  alpha:  1.000e+00  linmin: -9.985e-03  t[s]:  17321.98

#--- Lowdin population analysis ---
# oxidation-state Cu +0.029 +0.043 +0.026 +0.042 +0.074 +0.075 +0.074 +0.072 +0.045 +0.046 +0.047 +0.046 +0.058 +0.053 +0.060 +0.061 +0.237 +0.243 +0.240 +0.002 +0.052 +0.046 +0.048 +0.047 +0.074 +0.075 +0.075 +0.075 +0.027 +0.027 +0.026 +0.026 +0.242 +0.244 +0.241 +0.244 +0.063 +0.052 +0.064 +0.038
# magnetic-moments Cu +0.000 +0.000 +0.000 +0.000 +0.000 +0.000 +0.000 +0.000 +0.000 +0.000 +0.000 +0.000 +0.000 +0.000 +0.000 +0.000 +0.000 +0.000 +0.000 +0.000 +0.000 +0.000 +0.000 +0.000 +0.000 +0.000 +0.000 +0.000 +0.000 +0.000 +0.000 +0.000 +0.000 +0.000 +0.000 +0.000 +0.000 +0.000 +0.000 +0.000
# oxidation-state C +0.381
# magnetic-moments C +0.000
# oxidation-state O -0.128
# magnetic-moments O +0.000


Computing DFT-D3 correction:
# coordination-number Cu 8.287 8.293 8.287 8.293 8.917 8.918 8.917 8.918 9.035 9.035 9.035 9.035 6.874 6.874 6.874 6.874 4.947 4.945 4.947 5.947 9.029 9.028 9.028 9.028 8.920 8.920 8.920 8.920 8.294 8.294 8.294 8.294 4.947 4.947 4.947 4.947 6.871 6.871 6.871 7.202
# coordination-number C 2.346
# coordination-number O 1.030
# diagonal-C6 Cu 175.00 175.00 175.00 175.00 175.00 175.00 175.00 175.00 175.00 175.00 175.00 175.00 175.00 175.00 175.00 175.00 175.00 175.00 175.00 175.00 175.00 175.00 175.00 175.00 175.00 175.00 175.00 175.00 175.00 175.00 175.00 175.00 175.00 175.00 175.00 175.00 175.00 175.00 175.00 175.00
# diagonal-C6 C 28.53
# diagonal-C6 O 12.79
EvdW_6 =   -0.208360
EvdW_8 =   -0.326389

-------- Electronic minimization -----------
	Linear fluid (dielectric constant: 78.4, screening length: 8.12261 Bohr) occupying 0.446041 of unit cell:	Completed after 7 iterations at t[s]:  17365.41
	FillingsUpdate:  mu: -0.152430340  nElectrons: 770.000000  magneticMoment: [ Abs: 0.00000  Tot: +0.00000 ]
ElecMinimize: Iter:   0  F: -8095.634177133779303  |grad|_K:  1.966e-07  alpha:  1.000e+00
	Linear fluid (dielectric constant: 78.4, screening length: 8.12261 Bohr) occupying 0.445997 of unit cell:	Completed after 14 iterations at t[s]:  17446.80
	Linear fluid (dielectric constant: 78.4, screening length: 8.12261 Bohr) occupying 0.446035 of unit cell:	Completed after 16 iterations at t[s]:  17476.72
	FillingsUpdate:  mu: -0.152597631  nElectrons: 770.000000  magneticMoment: [ Abs: 0.00000  Tot: +0.00000 ]
	SubspaceRotationAdjust: set factor to 0.789
ElecMinimize: Iter:   1  F: -8095.634178414844428  |grad|_K:  1.763e-07  alpha:  1.280e-01  linmin: -3.184e-05  t[s]:  17514.09
	Linear fluid (dielectric constant: 78.4, screening length: 8.12261 Bohr) occupying 0.446035 of unit cell:	Completed after 2 iterations at t[s]:  17551.00
	Linear fluid (dielectric constant: 78.4, screening length: 8.12261 Bohr) occupying 0.446035 of unit cell:	Completed after 2 iterations at t[s]:  17578.21
	FillingsUpdate:  mu: -0.152622379  nElectrons: 770.000000  magneticMoment: [ Abs: 0.00000  Tot: +0.00000 ]
	SubspaceRotationAdjust: set factor to 1.01
ElecMinimize: Iter:   2  F: -8095.634179792865325  |grad|_K:  1.069e-07  alpha:  1.734e-01  linmin:  8.528e-05  t[s]:  17615.01
	Linear fluid (dielectric constant: 78.4, screening length: 8.12261 Bohr) occupying 0.446038 of unit cell:	Completed after 5 iterations at t[s]:  17652.45
	Linear fluid (dielectric constant: 78.4, screening length: 8.12261 Bohr) occupying 0.446037 of unit cell:	Completed after 0 iterations at t[s]:  17679.15
	FillingsUpdate:  mu: -0.152546243  nElectrons: 770.000000  magneticMoment: [ Abs: 0.00000  Tot: +0.00000 ]
	SubspaceRotationAdjust: set factor to 1.22
ElecMinimize: Iter:   3  F: -8095.634180253549857  |grad|_K:  7.866e-08  alpha:  1.595e-01  linmin:  1.440e-04  t[s]:  17716.11
	Linear fluid (dielectric constant: 78.4, screening length: 8.12261 Bohr) occupying 0.446038 of unit cell:	Completed after 2 iterations at t[s]:  17752.98
	Linear fluid (dielectric constant: 78.4, screening length: 8.12261 Bohr) occupying 0.446038 of unit cell:	Completed after 0 iterations at t[s]:  17779.40
	FillingsUpdate:  mu: -0.152537144  nElectrons: 770.000000  magneticMoment: [ Abs: 0.00000  Tot: +0.00000 ]
	SubspaceRotationAdjust: set factor to 1.35
ElecMinimize: Iter:   4  F: -8095.634180543430375  |grad|_K:  5.117e-08  alpha:  1.849e-01  linmin: -6.370e-04  t[s]:  17816.45
	Linear fluid (dielectric constant: 78.4, screening length: 8.12261 Bohr) occupying 0.446036 of unit cell:	Completed after 6 iterations at t[s]:  17854.21
	Linear fluid (dielectric constant: 78.4, screening length: 8.12261 Bohr) occupying 0.446037 of unit cell:	Completed after 2 iterations at t[s]:  17881.33
	FillingsUpdate:  mu: -0.152546171  nElectrons: 770.000000  magneticMoment: [ Abs: 0.00000  Tot: +0.00000 ]
	SubspaceRotationAdjust: set factor to 0.985
ElecMinimize: Iter:   5  F: -8095.634180616611047  |grad|_K:  3.820e-08  alpha:  1.020e-01  linmin:  1.793e-04  t[s]:  17918.35
	Linear fluid (dielectric constant: 78.4, screening length: 8.12261 Bohr) occupying 0.446037 of unit cell:	Completed after 2 iterations at t[s]:  17955.22
	Linear fluid (dielectric constant: 78.4, screening length: 8.12261 Bohr) occupying 0.446037 of unit cell:	Completed after 0 iterations at t[s]:  17981.73
	FillingsUpdate:  mu: -0.152548836  nElectrons: 770.000000  magneticMoment: [ Abs: 0.00000  Tot: +0.00000 ]
	SubspaceRotationAdjust: set factor to 1.16
ElecMinimize: Iter:   6  F: -8095.634180658043988  |grad|_K:  2.730e-08  alpha:  1.121e-01  linmin: -6.296e-04  t[s]:  18018.77
ElecMinimize: Converged (|Delta F|<1.000000e-07 for 2 iters).
Setting wave functions to eigenvectors of Hamiltonian
Converging empty states (this may take a while): |deigs|: 3.677e-09

Computing DFT-D3 correction:
# coordination-number Cu 8.287 8.293 8.287 8.293 8.917 8.918 8.917 8.918 9.035 9.035 9.035 9.035 6.874 6.874 6.874 6.874 4.947 4.945 4.947 5.947 9.029 9.028 9.028 9.028 8.920 8.920 8.920 8.920 8.294 8.294 8.294 8.294 4.947 4.947 4.947 4.947 6.871 6.871 6.871 7.202
# coordination-number C 2.346
# coordination-number O 1.030
# diagonal-C6 Cu 175.00 175.00 175.00 175.00 175.00 175.00 175.00 175.00 175.00 175.00 175.00 175.00 175.00 175.00 175.00 175.00 175.00 175.00 175.00 175.00 175.00 175.00 175.00 175.00 175.00 175.00 175.00 175.00 175.00 175.00 175.00 175.00 175.00 175.00 175.00 175.00 175.00 175.00 175.00 175.00
# diagonal-C6 C 28.53
# diagonal-C6 O 12.79
EvdW_6 =   -0.208360
EvdW_8 =   -0.326389

# Ionic positions in cartesian coordinates:
ion Cu   3.374454999999999   1.518659000000000  11.420712999999997 0
ion Cu   0.003943000000000   9.055351000000002  11.420712999999997 0
ion Cu  10.115479000000001   1.518659000000000  11.420712999999997 0
ion Cu   6.744966999999997   9.055351000000002  11.420712999999997 0
ion Cu   0.000344000000000   2.995850000000000   8.272439999999998 0
ion Cu  -3.370168000000001  10.532543000000000   8.272439999999998 0
ion Cu   6.741367000000000   2.995850000000000   8.272439999999998 0
ion Cu   3.370855999999998  10.532543000000000   8.272439999999998 0
ion Cu   3.367713999999999   4.556338000000000   5.270771000000000 0
ion Cu  -0.002791000000002  12.093015000000001   5.270771000000000 0
ion Cu  10.108750999999998   4.556338000000000   5.270771000000000 0
ion Cu   6.738232999999997  12.093015000000001   5.270771000000000 0
ion Cu  -0.002959000000001   6.045498000000001   2.187299000000000 0
ion Cu  -3.373471000000001  13.582190000000002   2.187299000000000 0
ion Cu   6.738077999999999   6.045498000000001   2.187299000000000 0
ion Cu   3.367565999999998  13.582190000000002   2.187299000000000 0
ion Cu   6.744669999999997  15.039877000000001  14.212244000000000 0
ion Cu  10.115181999999999   7.503185000000001  14.212244000000000 0
ion Cu   0.003646999999998  15.039877000000001  14.212244000000000 0
ion Cu   3.374158999999998   7.503185000000001  14.212244000000000 0
ion Cu   3.373288999999999   5.995801000000001   9.801515000000000 0
ion Cu   0.002770999999998  13.532508999999999   9.801515000000000 0
ion Cu  10.114312999999997   5.995801000000001   9.801515000000000 0
ion Cu   6.743807999999997  13.532508999999999   9.801515000000000 0
ion Cu   3.370235000000000   0.020545000000000   6.798760999999999 0
ion Cu  -0.000276000000001   7.557238000000001   6.798760999999999 0
ion Cu  10.111258999999999   0.020545000000000   6.798760999999999 0
ion Cu   6.740746999999999   7.557238000000001   6.798760999999999 0
ion Cu  -0.004564000000000   1.496471000000000   3.652749000000000 0
ion Cu  -3.375075000000001   9.033163000000002   3.652749000000000 0
ion Cu   6.736459999999999   1.496471000000000   3.652749000000000 0
ion Cu   3.365947999999998   9.033163000000002   3.652749000000000 0
ion Cu   3.366999999999999   3.046346000000001   0.863298000000000 0
ion Cu  -0.003519000000002  10.583054000000001   0.863298000000000 0
ion Cu  10.108022999999998   3.046346000000001   0.863298000000000 0
ion Cu   6.737504999999997  10.583054000000001   0.863298000000000 0
ion Cu   0.003383999999999   4.504741000000000  12.887157999999999 0
ion Cu  -3.367128000000000  12.041434000000001  12.887157999999999 0
ion Cu   6.744406999999997   4.504741000000000  12.887157999999999 0
ion Cu   3.373895999999998  12.041434000000001  12.887157999999999 0
ion C   3.374030999999998   9.772317000000001  16.934073374386148 1  Linear 0 0 1
ion O   3.434119999999999   9.772317000000001  19.133217199280178 1  Linear 0 0 1

# Forces in Cartesian coordinates:
force Cu  -0.000090419601238   0.000773615471462   0.000166977516443 0
force Cu  -0.004435766256088  -0.000399876389858  -0.005379427280739 0
force Cu   0.000058035836123  -0.000368451916129   0.000306682576522 0
force Cu   0.004414359671146  -0.000701360666844  -0.005131155332568 0
force Cu  -0.000492849563388  -0.000540804313852  -0.000230816387316 0
force Cu  -0.000048300578260   0.000254698435020  -0.000038350226418 0
force Cu   0.000077668910582  -0.000679838412801  -0.000226500450144 0
force Cu  -0.000083794244140  -0.000338461778264   0.002759685957783 0
force Cu   0.000183304030901   0.000645260563480   0.000057081448826 0
force Cu   0.000121566150444   0.000788435973855  -0.000572922382186 0
force Cu   0.000121055932685   0.001181841500931  -0.000378975686608 0
force Cu   0.000226627703335   0.000431559147856  -0.000776490010824 0
force Cu  -0.000349688900407  -0.000059410649040  -0.000054856281029 0
force Cu  -0.000220590800778   0.000233182517728   0.000398196727225 0
force Cu   0.000037567632828  -0.000155712868937   0.000087741367523 0
force Cu  -0.000226719287185   0.000156757294951   0.000066724374089 0
force Cu   0.000218958053916   0.000005931370748   0.000471831810122 0
force Cu  -0.000109036354039  -0.000682331691859  -0.000567296259591 0
force Cu  -0.000220351709481  -0.000128774653736   0.000028933512152 0
force Cu  -0.000153014197585  -0.001675230819594  -0.000798993982473 0
force Cu  -0.000061976566003   0.000047783265148   0.001758998007356 0
force Cu  -0.000110901330538  -0.001048069598616   0.001116099086650 0
force Cu   0.000073156693212  -0.001100279767327   0.000499730621487 0
force Cu  -0.000099840267502  -0.000800796709635   0.000866310898680 0
force Cu   0.000122044987842   0.000260609929241   0.001048005549131 0
force Cu  -0.000459751998536  -0.000375548930249  -0.000821166139566 0
force Cu   0.000021226701622   0.000145952729771  -0.000379289142806 0
force Cu   0.000433533463409  -0.000196182123677  -0.000867402549068 0
force Cu   0.000272099682310  -0.000765311385618  -0.000185248712740 0
force Cu  -0.000021217411083  -0.000459312064140   0.000119464473959 0
force Cu  -0.000025658747712  -0.000709624262070  -0.000218850220876 0
force Cu   0.000006921332543  -0.000082445356212   0.000914074960746 0
force Cu   0.000058063687791   0.000263027325333  -0.000160627726736 0
force Cu  -0.000339798321196   0.000585656725543  -0.000014210729734 0
force Cu   0.000057760957247   0.000596201125345  -0.000159116134106 0
force Cu   0.000326139614213   0.000706079892116  -0.000041171817242 0
force Cu   0.000591107634173  -0.000215197141957  -0.000660872252619 0
force Cu   0.000194467368647  -0.000180327482662  -0.001201302978067 0
force Cu  -0.000319416180261  -0.000082723237205  -0.000585685657816 0
force Cu  -0.000082829520056   0.002546329021350   0.008566978216652 0
force C   0.000747739288902  -0.007142815002989   0.000028579881984 1  Linear 0 0 1
force O  -0.000366541488312   0.009284778123048  -0.000135110660800 1  Linear 0 0 1

# Energy components:
   A_diel =       -0.0009667008568592
   Eewald =    25181.1409387191379210
       EH =    32594.4275217377653462
     Eloc =   -67395.3485858814092353
      Enl =     1468.0716230464026921
     EvdW =       -0.5347488702541850
      Exc =     -781.3610795533339797
 Exc_core =        1.9776381291221254
       KE =      835.9946472727729088
-------------------------------------
     Etot =    -8095.6330121006540139
       TS =        0.0011685573903098
-------------------------------------
        F =    -8095.6341806580439879


Dumping 'jdft.fillings' ... done
Dumping 'jdft.wfns' ... done
Dumping 'jdft.fluidState' ... done
Dumping 'jdft.ionpos' ... done
Dumping 'jdft.lattice' ... done
Dumping 'jdft.eigenvals' ... done
Dumping 'jdft.eigStats' ... 
	eMin: -4.303785 at state 7 ( [ +0.000000 +0.000000 +0.000000 ] spin -1 )
	HOMO: -0.152992 at state 3 ( [ +0.250000 +0.333333 +0.000000 ] spin 1 )
	mu  : -0.152549
	LUMO: -0.151995 at state 6 ( [ +0.500000 +0.333333 +0.000000 ] spin 1 )
	eMax: +0.177986 at state 5 ( [ +0.500000 +0.000000 +0.000000 ] spin 1 )
	HOMO-LUMO gap: +0.000997
	Optical gap  : +0.004434 at state 6 ( [ +0.500000 +0.333333 +0.000000 ] spin 1 )
Dumping 'jdft.Ecomponents' ... done
IonicMinimize: Iter:   4  F: -8095.634180658043988  |grad|_K:  9.765e-05  alpha:  1.000e+00  linmin:  4.325e-03  t[s]:  18125.29
IonicMinimize: Converged (|grad|_K<1.000000e-04).

#--- Lowdin population analysis ---
# oxidation-state Cu +0.029 +0.043 +0.026 +0.042 +0.074 +0.075 +0.074 +0.072 +0.045 +0.045 +0.047 +0.046 +0.058 +0.053 +0.060 +0.061 +0.237 +0.243 +0.240 +0.002 +0.052 +0.046 +0.048 +0.047 +0.074 +0.075 +0.075 +0.075 +0.027 +0.027 +0.026 +0.026 +0.242 +0.244 +0.240 +0.244 +0.063 +0.052 +0.064 +0.039
# magnetic-moments Cu +0.000 -0.000 +0.000 -0.000 +0.000 +0.000 -0.000 +0.000 -0.000 +0.000 +0.000 -0.000 +0.000 +0.000 +0.000 +0.000 +0.000 +0.000 +0.000 +0.000 -0.000 +0.000 -0.000 +0.000 -0.000 +0.000 -0.000 -0.000 -0.000 +0.000 -0.000 +0.000 +0.000 -0.000 +0.000 +0.000 +0.000 -0.000 +0.000 -0.000
# oxidation-state C +0.381
# magnetic-moments C -0.000
# oxidation-state O -0.129
# magnetic-moments O +0.000


Dumping 'jdft.n_up' ... done
Dumping 'jdft.n_dn' ... done
Dumping 'jdft.tau_up' ... done
Dumping 'jdft.tau_dn' ... done
Dumping 'jdft.eigenvals' ... done
Dumping 'jdft.eigStats' ... 
	eMin: -4.303785 at state 7 ( [ +0.000000 +0.000000 +0.000000 ] spin -1 )
	HOMO: -0.152992 at state 3 ( [ +0.250000 +0.333333 +0.000000 ] spin 1 )
	mu  : -0.152549
	LUMO: -0.151995 at state 6 ( [ +0.500000 +0.333333 +0.000000 ] spin 1 )
	eMax: +0.177986 at state 5 ( [ +0.500000 +0.000000 +0.000000 ] spin 1 )
	HOMO-LUMO gap: +0.000997
	Optical gap  : +0.004434 at state 6 ( [ +0.500000 +0.333333 +0.000000 ] spin 1 )
Dumping 'jdft.kPts' ... done
Dumping 'jdft.kMap' ... done
Dumping 'jdft.dosUp' ... done.
Dumping 'jdft.dosDn' ... done.
End date and time: Thu Feb 17 07:29:08 2022  (Duration: 0-5:03:04.49)
Done!
