
*************** JDFTx 1.6.0  ***************

Start date and time: Wed Feb 16 14:13:04 2022
Executable /projects/musgravc/apps/jdftx-1.6.1/build/jdftx with command-line: -i in
Running on hosts (process indices):  shas0860.rc.int.colorado.edu (0-23)
Divided in process groups (process indices):  0 (0)  1 (1)  2 (2)  3 (3)  4 (4)  5 (5)  6 (6)  7 (7)  8 (8)  9 (9)  10 (10)  11 (11)  12 (12)  13 (13)  14 (14)  15 (15)  16 (16)  17 (17)  18 (18)  19 (19)  20 (20)  21 (21)  22 (22)  23 (23)
Resource initialization completed at t[s]:      0.00
Run totals: 24 processes, 24 threads, 0 GPUs


Input parsed successfully to the following command list (including defaults):

basis kpoint-dependent
converge-empty-states yes
coords-type Cartesian
core-overlap-check none
coulomb-interaction Periodic
davidson-band-ratio 1.1
density-of-states Etol 1.000000e-06 Esigma 1.000000e-03 \
		Complete \
	Total \
	OrthoOrbital Cu 1   s \
	OrthoOrbital Cu 1   p \
	OrthoOrbital Cu 1   px \
	OrthoOrbital Cu 1   py \
	OrthoOrbital Cu 1   pz \
	OrthoOrbital Cu 1   d \
	OrthoOrbital Cu 1   dxy \
	OrthoOrbital Cu 1   dyz \
	OrthoOrbital Cu 1   dz2 \
	OrthoOrbital Cu 1   dxz \
	OrthoOrbital Cu 1   dx2-y2 \
	OrthoOrbital Cu 2   s \
	OrthoOrbital Cu 2   p \
	OrthoOrbital Cu 2   px \
	OrthoOrbital Cu 2   py \
	OrthoOrbital Cu 2   pz \
	OrthoOrbital Cu 2   d \
	OrthoOrbital Cu 2   dxy \
	OrthoOrbital Cu 2   dyz \
	OrthoOrbital Cu 2   dz2 \
	OrthoOrbital Cu 2   dxz \
	OrthoOrbital Cu 2   dx2-y2 \
	OrthoOrbital Cu 3   s \
	OrthoOrbital Cu 3   p \
	OrthoOrbital Cu 3   px \
	OrthoOrbital Cu 3   py \
	OrthoOrbital Cu 3   pz \
	OrthoOrbital Cu 3   d \
	OrthoOrbital Cu 3   dxy \
	OrthoOrbital Cu 3   dyz \
	OrthoOrbital Cu 3   dz2 \
	OrthoOrbital Cu 3   dxz \
	OrthoOrbital Cu 3   dx2-y2 \
	OrthoOrbital Cu 4   s \
	OrthoOrbital Cu 4   p \
	OrthoOrbital Cu 4   px \
	OrthoOrbital Cu 4   py \
	OrthoOrbital Cu 4   pz \
	OrthoOrbital Cu 4   d \
	OrthoOrbital Cu 4   dxy \
	OrthoOrbital Cu 4   dyz \
	OrthoOrbital Cu 4   dz2 \
	OrthoOrbital Cu 4   dxz \
	OrthoOrbital Cu 4   dx2-y2 \
	OrthoOrbital Cu 5   s \
	OrthoOrbital Cu 5   p \
	OrthoOrbital Cu 5   px \
	OrthoOrbital Cu 5   py \
	OrthoOrbital Cu 5   pz \
	OrthoOrbital Cu 5   d \
	OrthoOrbital Cu 5   dxy \
	OrthoOrbital Cu 5   dyz \
	OrthoOrbital Cu 5   dz2 \
	OrthoOrbital Cu 5   dxz \
	OrthoOrbital Cu 5   dx2-y2 \
	OrthoOrbital Cu 6   s \
	OrthoOrbital Cu 6   p \
	OrthoOrbital Cu 6   px \
	OrthoOrbital Cu 6   py \
	OrthoOrbital Cu 6   pz \
	OrthoOrbital Cu 6   d \
	OrthoOrbital Cu 6   dxy \
	OrthoOrbital Cu 6   dyz \
	OrthoOrbital Cu 6   dz2 \
	OrthoOrbital Cu 6   dxz \
	OrthoOrbital Cu 6   dx2-y2 \
	OrthoOrbital Cu 7   s \
	OrthoOrbital Cu 7   p \
	OrthoOrbital Cu 7   px \
	OrthoOrbital Cu 7   py \
	OrthoOrbital Cu 7   pz \
	OrthoOrbital Cu 7   d \
	OrthoOrbital Cu 7   dxy \
	OrthoOrbital Cu 7   dyz \
	OrthoOrbital Cu 7   dz2 \
	OrthoOrbital Cu 7   dxz \
	OrthoOrbital Cu 7   dx2-y2 \
	OrthoOrbital Cu 8   s \
	OrthoOrbital Cu 8   p \
	OrthoOrbital Cu 8   px \
	OrthoOrbital Cu 8   py \
	OrthoOrbital Cu 8   pz \
	OrthoOrbital Cu 8   d \
	OrthoOrbital Cu 8   dxy \
	OrthoOrbital Cu 8   dyz \
	OrthoOrbital Cu 8   dz2 \
	OrthoOrbital Cu 8   dxz \
	OrthoOrbital Cu 8   dx2-y2 \
	OrthoOrbital Cu 9   s \
	OrthoOrbital Cu 9   p \
	OrthoOrbital Cu 9   px \
	OrthoOrbital Cu 9   py \
	OrthoOrbital Cu 9   pz \
	OrthoOrbital Cu 9   d \
	OrthoOrbital Cu 9   dxy \
	OrthoOrbital Cu 9   dyz \
	OrthoOrbital Cu 9   dz2 \
	OrthoOrbital Cu 9   dxz \
	OrthoOrbital Cu 9   dx2-y2 \
	OrthoOrbital Cu 10   s \
	OrthoOrbital Cu 10   p \
	OrthoOrbital Cu 10   px \
	OrthoOrbital Cu 10   py \
	OrthoOrbital Cu 10   pz \
	OrthoOrbital Cu 10   d \
	OrthoOrbital Cu 10   dxy \
	OrthoOrbital Cu 10   dyz \
	OrthoOrbital Cu 10   dz2 \
	OrthoOrbital Cu 10   dxz \
	OrthoOrbital Cu 10   dx2-y2 \
	OrthoOrbital Cu 11   s \
	OrthoOrbital Cu 11   p \
	OrthoOrbital Cu 11   px \
	OrthoOrbital Cu 11   py \
	OrthoOrbital Cu 11   pz \
	OrthoOrbital Cu 11   d \
	OrthoOrbital Cu 11   dxy \
	OrthoOrbital Cu 11   dyz \
	OrthoOrbital Cu 11   dz2 \
	OrthoOrbital Cu 11   dxz \
	OrthoOrbital Cu 11   dx2-y2 \
	OrthoOrbital Cu 12   s \
	OrthoOrbital Cu 12   p \
	OrthoOrbital Cu 12   px \
	OrthoOrbital Cu 12   py \
	OrthoOrbital Cu 12   pz \
	OrthoOrbital Cu 12   d \
	OrthoOrbital Cu 12   dxy \
	OrthoOrbital Cu 12   dyz \
	OrthoOrbital Cu 12   dz2 \
	OrthoOrbital Cu 12   dxz \
	OrthoOrbital Cu 12   dx2-y2 \
	OrthoOrbital Cu 13   s \
	OrthoOrbital Cu 13   p \
	OrthoOrbital Cu 13   px \
	OrthoOrbital Cu 13   py \
	OrthoOrbital Cu 13   pz \
	OrthoOrbital Cu 13   d \
	OrthoOrbital Cu 13   dxy \
	OrthoOrbital Cu 13   dyz \
	OrthoOrbital Cu 13   dz2 \
	OrthoOrbital Cu 13   dxz \
	OrthoOrbital Cu 13   dx2-y2 \
	OrthoOrbital Cu 14   s \
	OrthoOrbital Cu 14   p \
	OrthoOrbital Cu 14   px \
	OrthoOrbital Cu 14   py \
	OrthoOrbital Cu 14   pz \
	OrthoOrbital Cu 14   d \
	OrthoOrbital Cu 14   dxy \
	OrthoOrbital Cu 14   dyz \
	OrthoOrbital Cu 14   dz2 \
	OrthoOrbital Cu 14   dxz \
	OrthoOrbital Cu 14   dx2-y2 \
	OrthoOrbital Cu 15   s \
	OrthoOrbital Cu 15   p \
	OrthoOrbital Cu 15   px \
	OrthoOrbital Cu 15   py \
	OrthoOrbital Cu 15   pz \
	OrthoOrbital Cu 15   d \
	OrthoOrbital Cu 15   dxy \
	OrthoOrbital Cu 15   dyz \
	OrthoOrbital Cu 15   dz2 \
	OrthoOrbital Cu 15   dxz \
	OrthoOrbital Cu 15   dx2-y2 \
	OrthoOrbital Cu 16   s \
	OrthoOrbital Cu 16   p \
	OrthoOrbital Cu 16   px \
	OrthoOrbital Cu 16   py \
	OrthoOrbital Cu 16   pz \
	OrthoOrbital Cu 16   d \
	OrthoOrbital Cu 16   dxy \
	OrthoOrbital Cu 16   dyz \
	OrthoOrbital Cu 16   dz2 \
	OrthoOrbital Cu 16   dxz \
	OrthoOrbital Cu 16   dx2-y2 \
	OrthoOrbital Cu 17   s \
	OrthoOrbital Cu 17   p \
	OrthoOrbital Cu 17   px \
	OrthoOrbital Cu 17   py \
	OrthoOrbital Cu 17   pz \
	OrthoOrbital Cu 17   d \
	OrthoOrbital Cu 17   dxy \
	OrthoOrbital Cu 17   dyz \
	OrthoOrbital Cu 17   dz2 \
	OrthoOrbital Cu 17   dxz \
	OrthoOrbital Cu 17   dx2-y2 \
	OrthoOrbital Cu 18   s \
	OrthoOrbital Cu 18   p \
	OrthoOrbital Cu 18   px \
	OrthoOrbital Cu 18   py \
	OrthoOrbital Cu 18   pz \
	OrthoOrbital Cu 18   d \
	OrthoOrbital Cu 18   dxy \
	OrthoOrbital Cu 18   dyz \
	OrthoOrbital Cu 18   dz2 \
	OrthoOrbital Cu 18   dxz \
	OrthoOrbital Cu 18   dx2-y2 \
	OrthoOrbital Cu 19   s \
	OrthoOrbital Cu 19   p \
	OrthoOrbital Cu 19   px \
	OrthoOrbital Cu 19   py \
	OrthoOrbital Cu 19   pz \
	OrthoOrbital Cu 19   d \
	OrthoOrbital Cu 19   dxy \
	OrthoOrbital Cu 19   dyz \
	OrthoOrbital Cu 19   dz2 \
	OrthoOrbital Cu 19   dxz \
	OrthoOrbital Cu 19   dx2-y2 \
	OrthoOrbital Cu 20   s \
	OrthoOrbital Cu 20   p \
	OrthoOrbital Cu 20   px \
	OrthoOrbital Cu 20   py \
	OrthoOrbital Cu 20   pz \
	OrthoOrbital Cu 20   d \
	OrthoOrbital Cu 20   dxy \
	OrthoOrbital Cu 20   dyz \
	OrthoOrbital Cu 20   dz2 \
	OrthoOrbital Cu 20   dxz \
	OrthoOrbital Cu 20   dx2-y2 \
	OrthoOrbital Cu 21   s \
	OrthoOrbital Cu 21   p \
	OrthoOrbital Cu 21   px \
	OrthoOrbital Cu 21   py \
	OrthoOrbital Cu 21   pz \
	OrthoOrbital Cu 21   d \
	OrthoOrbital Cu 21   dxy \
	OrthoOrbital Cu 21   dyz \
	OrthoOrbital Cu 21   dz2 \
	OrthoOrbital Cu 21   dxz \
	OrthoOrbital Cu 21   dx2-y2 \
	OrthoOrbital Cu 22   s \
	OrthoOrbital Cu 22   p \
	OrthoOrbital Cu 22   px \
	OrthoOrbital Cu 22   py \
	OrthoOrbital Cu 22   pz \
	OrthoOrbital Cu 22   d \
	OrthoOrbital Cu 22   dxy \
	OrthoOrbital Cu 22   dyz \
	OrthoOrbital Cu 22   dz2 \
	OrthoOrbital Cu 22   dxz \
	OrthoOrbital Cu 22   dx2-y2 \
	OrthoOrbital Cu 23   s \
	OrthoOrbital Cu 23   p \
	OrthoOrbital Cu 23   px \
	OrthoOrbital Cu 23   py \
	OrthoOrbital Cu 23   pz \
	OrthoOrbital Cu 23   d \
	OrthoOrbital Cu 23   dxy \
	OrthoOrbital Cu 23   dyz \
	OrthoOrbital Cu 23   dz2 \
	OrthoOrbital Cu 23   dxz \
	OrthoOrbital Cu 23   dx2-y2 \
	OrthoOrbital Cu 24   s \
	OrthoOrbital Cu 24   p \
	OrthoOrbital Cu 24   px \
	OrthoOrbital Cu 24   py \
	OrthoOrbital Cu 24   pz \
	OrthoOrbital Cu 24   d \
	OrthoOrbital Cu 24   dxy \
	OrthoOrbital Cu 24   dyz \
	OrthoOrbital Cu 24   dz2 \
	OrthoOrbital Cu 24   dxz \
	OrthoOrbital Cu 24   dx2-y2 \
	OrthoOrbital Cu 25   s \
	OrthoOrbital Cu 25   p \
	OrthoOrbital Cu 25   px \
	OrthoOrbital Cu 25   py \
	OrthoOrbital Cu 25   pz \
	OrthoOrbital Cu 25   d \
	OrthoOrbital Cu 25   dxy \
	OrthoOrbital Cu 25   dyz \
	OrthoOrbital Cu 25   dz2 \
	OrthoOrbital Cu 25   dxz \
	OrthoOrbital Cu 25   dx2-y2 \
	OrthoOrbital Cu 26   s \
	OrthoOrbital Cu 26   p \
	OrthoOrbital Cu 26   px \
	OrthoOrbital Cu 26   py \
	OrthoOrbital Cu 26   pz \
	OrthoOrbital Cu 26   d \
	OrthoOrbital Cu 26   dxy \
	OrthoOrbital Cu 26   dyz \
	OrthoOrbital Cu 26   dz2 \
	OrthoOrbital Cu 26   dxz \
	OrthoOrbital Cu 26   dx2-y2 \
	OrthoOrbital Cu 27   s \
	OrthoOrbital Cu 27   p \
	OrthoOrbital Cu 27   px \
	OrthoOrbital Cu 27   py \
	OrthoOrbital Cu 27   pz \
	OrthoOrbital Cu 27   d \
	OrthoOrbital Cu 27   dxy \
	OrthoOrbital Cu 27   dyz \
	OrthoOrbital Cu 27   dz2 \
	OrthoOrbital Cu 27   dxz \
	OrthoOrbital Cu 27   dx2-y2 \
	OrthoOrbital Cu 28   s \
	OrthoOrbital Cu 28   p \
	OrthoOrbital Cu 28   px \
	OrthoOrbital Cu 28   py \
	OrthoOrbital Cu 28   pz \
	OrthoOrbital Cu 28   d \
	OrthoOrbital Cu 28   dxy \
	OrthoOrbital Cu 28   dyz \
	OrthoOrbital Cu 28   dz2 \
	OrthoOrbital Cu 28   dxz \
	OrthoOrbital Cu 28   dx2-y2 \
	OrthoOrbital Cu 29   s \
	OrthoOrbital Cu 29   p \
	OrthoOrbital Cu 29   px \
	OrthoOrbital Cu 29   py \
	OrthoOrbital Cu 29   pz \
	OrthoOrbital Cu 29   d \
	OrthoOrbital Cu 29   dxy \
	OrthoOrbital Cu 29   dyz \
	OrthoOrbital Cu 29   dz2 \
	OrthoOrbital Cu 29   dxz \
	OrthoOrbital Cu 29   dx2-y2 \
	OrthoOrbital Cu 30   s \
	OrthoOrbital Cu 30   p \
	OrthoOrbital Cu 30   px \
	OrthoOrbital Cu 30   py \
	OrthoOrbital Cu 30   pz \
	OrthoOrbital Cu 30   d \
	OrthoOrbital Cu 30   dxy \
	OrthoOrbital Cu 30   dyz \
	OrthoOrbital Cu 30   dz2 \
	OrthoOrbital Cu 30   dxz \
	OrthoOrbital Cu 30   dx2-y2 \
	OrthoOrbital Cu 31   s \
	OrthoOrbital Cu 31   p \
	OrthoOrbital Cu 31   px \
	OrthoOrbital Cu 31   py \
	OrthoOrbital Cu 31   pz \
	OrthoOrbital Cu 31   d \
	OrthoOrbital Cu 31   dxy \
	OrthoOrbital Cu 31   dyz \
	OrthoOrbital Cu 31   dz2 \
	OrthoOrbital Cu 31   dxz \
	OrthoOrbital Cu 31   dx2-y2 \
	OrthoOrbital Cu 32   s \
	OrthoOrbital Cu 32   p \
	OrthoOrbital Cu 32   px \
	OrthoOrbital Cu 32   py \
	OrthoOrbital Cu 32   pz \
	OrthoOrbital Cu 32   d \
	OrthoOrbital Cu 32   dxy \
	OrthoOrbital Cu 32   dyz \
	OrthoOrbital Cu 32   dz2 \
	OrthoOrbital Cu 32   dxz \
	OrthoOrbital Cu 32   dx2-y2 \
	OrthoOrbital Cu 33   s \
	OrthoOrbital Cu 33   p \
	OrthoOrbital Cu 33   px \
	OrthoOrbital Cu 33   py \
	OrthoOrbital Cu 33   pz \
	OrthoOrbital Cu 33   d \
	OrthoOrbital Cu 33   dxy \
	OrthoOrbital Cu 33   dyz \
	OrthoOrbital Cu 33   dz2 \
	OrthoOrbital Cu 33   dxz \
	OrthoOrbital Cu 33   dx2-y2 \
	OrthoOrbital Cu 34   s \
	OrthoOrbital Cu 34   p \
	OrthoOrbital Cu 34   px \
	OrthoOrbital Cu 34   py \
	OrthoOrbital Cu 34   pz \
	OrthoOrbital Cu 34   d \
	OrthoOrbital Cu 34   dxy \
	OrthoOrbital Cu 34   dyz \
	OrthoOrbital Cu 34   dz2 \
	OrthoOrbital Cu 34   dxz \
	OrthoOrbital Cu 34   dx2-y2 \
	OrthoOrbital Cu 35   s \
	OrthoOrbital Cu 35   p \
	OrthoOrbital Cu 35   px \
	OrthoOrbital Cu 35   py \
	OrthoOrbital Cu 35   pz \
	OrthoOrbital Cu 35   d \
	OrthoOrbital Cu 35   dxy \
	OrthoOrbital Cu 35   dyz \
	OrthoOrbital Cu 35   dz2 \
	OrthoOrbital Cu 35   dxz \
	OrthoOrbital Cu 35   dx2-y2 \
	OrthoOrbital Cu 36   s \
	OrthoOrbital Cu 36   p \
	OrthoOrbital Cu 36   px \
	OrthoOrbital Cu 36   py \
	OrthoOrbital Cu 36   pz \
	OrthoOrbital Cu 36   d \
	OrthoOrbital Cu 36   dxy \
	OrthoOrbital Cu 36   dyz \
	OrthoOrbital Cu 36   dz2 \
	OrthoOrbital Cu 36   dxz \
	OrthoOrbital Cu 36   dx2-y2 \
	OrthoOrbital Cu 37   s \
	OrthoOrbital Cu 37   p \
	OrthoOrbital Cu 37   px \
	OrthoOrbital Cu 37   py \
	OrthoOrbital Cu 37   pz \
	OrthoOrbital Cu 37   d \
	OrthoOrbital Cu 37   dxy \
	OrthoOrbital Cu 37   dyz \
	OrthoOrbital Cu 37   dz2 \
	OrthoOrbital Cu 37   dxz \
	OrthoOrbital Cu 37   dx2-y2 \
	OrthoOrbital Cu 38   s \
	OrthoOrbital Cu 38   p \
	OrthoOrbital Cu 38   px \
	OrthoOrbital Cu 38   py \
	OrthoOrbital Cu 38   pz \
	OrthoOrbital Cu 38   d \
	OrthoOrbital Cu 38   dxy \
	OrthoOrbital Cu 38   dyz \
	OrthoOrbital Cu 38   dz2 \
	OrthoOrbital Cu 38   dxz \
	OrthoOrbital Cu 38   dx2-y2 \
	OrthoOrbital Cu 39   s \
	OrthoOrbital Cu 39   p \
	OrthoOrbital Cu 39   px \
	OrthoOrbital Cu 39   py \
	OrthoOrbital Cu 39   pz \
	OrthoOrbital Cu 39   d \
	OrthoOrbital Cu 39   dxy \
	OrthoOrbital Cu 39   dyz \
	OrthoOrbital Cu 39   dz2 \
	OrthoOrbital Cu 39   dxz \
	OrthoOrbital Cu 39   dx2-y2 \
	OrthoOrbital Cu 40   s \
	OrthoOrbital Cu 40   p \
	OrthoOrbital Cu 40   px \
	OrthoOrbital Cu 40   py \
	OrthoOrbital Cu 40   pz \
	OrthoOrbital Cu 40   d \
	OrthoOrbital Cu 40   dxy \
	OrthoOrbital Cu 40   dyz \
	OrthoOrbital Cu 40   dz2 \
	OrthoOrbital Cu 40   dxz \
	OrthoOrbital Cu 40   dx2-y2 \
	OrthoOrbital Cu 41   s \
	OrthoOrbital Cu 41   p \
	OrthoOrbital Cu 41   px \
	OrthoOrbital Cu 41   py \
	OrthoOrbital Cu 41   pz \
	OrthoOrbital Cu 41   d \
	OrthoOrbital Cu 41   dxy \
	OrthoOrbital Cu 41   dyz \
	OrthoOrbital Cu 41   dz2 \
	OrthoOrbital Cu 41   dxz \
	OrthoOrbital Cu 41   dx2-y2 \
	OrthoOrbital Cu 42   s \
	OrthoOrbital Cu 42   p \
	OrthoOrbital Cu 42   px \
	OrthoOrbital Cu 42   py \
	OrthoOrbital Cu 42   pz \
	OrthoOrbital Cu 42   d \
	OrthoOrbital Cu 42   dxy \
	OrthoOrbital Cu 42   dyz \
	OrthoOrbital Cu 42   dz2 \
	OrthoOrbital Cu 42   dxz \
	OrthoOrbital Cu 42   dx2-y2 \
	OrthoOrbital Cu 43   s \
	OrthoOrbital Cu 43   p \
	OrthoOrbital Cu 43   px \
	OrthoOrbital Cu 43   py \
	OrthoOrbital Cu 43   pz \
	OrthoOrbital Cu 43   d \
	OrthoOrbital Cu 43   dxy \
	OrthoOrbital Cu 43   dyz \
	OrthoOrbital Cu 43   dz2 \
	OrthoOrbital Cu 43   dxz \
	OrthoOrbital Cu 43   dx2-y2 \
	OrthoOrbital Cu 44   s \
	OrthoOrbital Cu 44   p \
	OrthoOrbital Cu 44   px \
	OrthoOrbital Cu 44   py \
	OrthoOrbital Cu 44   pz \
	OrthoOrbital Cu 44   d \
	OrthoOrbital Cu 44   dxy \
	OrthoOrbital Cu 44   dyz \
	OrthoOrbital Cu 44   dz2 \
	OrthoOrbital Cu 44   dxz \
	OrthoOrbital Cu 44   dx2-y2 \
	OrthoOrbital Cu 45   s \
	OrthoOrbital Cu 45   p \
	OrthoOrbital Cu 45   px \
	OrthoOrbital Cu 45   py \
	OrthoOrbital Cu 45   pz \
	OrthoOrbital Cu 45   d \
	OrthoOrbital Cu 45   dxy \
	OrthoOrbital Cu 45   dyz \
	OrthoOrbital Cu 45   dz2 \
	OrthoOrbital Cu 45   dxz \
	OrthoOrbital Cu 45   dx2-y2 \
	OrthoOrbital Cu 46   s \
	OrthoOrbital Cu 46   p \
	OrthoOrbital Cu 46   px \
	OrthoOrbital Cu 46   py \
	OrthoOrbital Cu 46   pz \
	OrthoOrbital Cu 46   d \
	OrthoOrbital Cu 46   dxy \
	OrthoOrbital Cu 46   dyz \
	OrthoOrbital Cu 46   dz2 \
	OrthoOrbital Cu 46   dxz \
	OrthoOrbital Cu 46   dx2-y2 \
	OrthoOrbital Cu 47   s \
	OrthoOrbital Cu 47   p \
	OrthoOrbital Cu 47   px \
	OrthoOrbital Cu 47   py \
	OrthoOrbital Cu 47   pz \
	OrthoOrbital Cu 47   d \
	OrthoOrbital Cu 47   dxy \
	OrthoOrbital Cu 47   dyz \
	OrthoOrbital Cu 47   dz2 \
	OrthoOrbital Cu 47   dxz \
	OrthoOrbital Cu 47   dx2-y2 \
	OrthoOrbital Cu 48   s \
	OrthoOrbital Cu 48   p \
	OrthoOrbital Cu 48   px \
	OrthoOrbital Cu 48   py \
	OrthoOrbital Cu 48   pz \
	OrthoOrbital Cu 48   d \
	OrthoOrbital Cu 48   dxy \
	OrthoOrbital Cu 48   dyz \
	OrthoOrbital Cu 48   dz2 \
	OrthoOrbital Cu 48   dxz \
	OrthoOrbital Cu 48   dx2-y2 \
	OrthoOrbital C 1   s \
	OrthoOrbital C 1   p \
	OrthoOrbital C 1   px \
	OrthoOrbital C 1   py \
	OrthoOrbital C 1   pz \
	OrthoOrbital O 1   s \
	OrthoOrbital O 1   p \
	OrthoOrbital O 1   px \
	OrthoOrbital O 1   py \
	OrthoOrbital O 1   pz
dump End ElecDensity KEdensity BandEigs EigStats RhoAtom DOS Kpoints
dump Ionic State IonicPositions Lattice EigStats Ecomponents
dump 
dump 
dump 
dump 
dump 
dump 
dump 
dump 
dump-name jdft.$VAR
elec-cutoff 20
elec-eigen-algo Davidson
elec-ex-corr gga-PBE
elec-initial-magnetization 0.000000 no
elec-n-bands 554
elec-smearing Fermi 0.001
electronic-minimize  \
	dirUpdateScheme      FletcherReeves \
	linminMethod         DirUpdateRecommended \
	nIterations          100 \
	history              15 \
	knormThreshold       0 \
	energyDiffThreshold  1e-07 \
	nEnergyDiff          2 \
	alphaTstart          1 \
	alphaTmin            1e-10 \
	updateTestStepSize   yes \
	alphaTreduceFactor   0.1 \
	alphaTincreaseFactor 3 \
	nAlphaAdjustMax      3 \
	wolfeEnergy          0.0001 \
	wolfeGradient        0.9 \
	fdTest               no
exchange-regularization WignerSeitzTruncated
fluid LinearPCM 298.000000 1.013250
fluid-anion F- 0.5 MeanFieldLJ \
	epsBulk 1 \
	pMol 0 \
	epsInf 1 \
	Pvap 0 \
	sigmaBulk 0 \
	Rvdw 2.24877 \
	Res 0 \
	tauNuc 343133
fluid-cation Na+ 0.5 MeanFieldLJ \
	epsBulk 1 \
	pMol 0 \
	epsInf 1 \
	Pvap 0 \
	sigmaBulk 0 \
	Rvdw 2.19208 \
	Res 0 \
	tauNuc 343133
fluid-ex-corr lda-TF lda-PZ
fluid-gummel-loop 10 1.000000e-05
fluid-minimize  \
	dirUpdateScheme      PolakRibiere \
	linminMethod         DirUpdateRecommended \
	nIterations          400 \
	history              15 \
	knormThreshold       1e-11 \
	energyDiffThreshold  0 \
	nEnergyDiff          2 \
	alphaTstart          1 \
	alphaTmin            1e-10 \
	updateTestStepSize   yes \
	alphaTreduceFactor   0.1 \
	alphaTincreaseFactor 3 \
	nAlphaAdjustMax      6 \
	wolfeEnergy          0.0001 \
	wolfeGradient        0.9 \
	fdTest               no
fluid-solvent H2O 55.338 ScalarEOS \
	epsBulk 78.4 \
	pMol 0.92466 \
	epsInf 1.77 \
	Pvap 1.06736e-10 \
	sigmaBulk 4.62e-05 \
	Rvdw 2.61727 \
	Res 1.42 \
	tauNuc 343133 \
	poleEl 15 7 1
forces-output-coords Positions
ion Cu   9.533169000000001   0.029049000000000  15.714320000000001 0
ion Cu   9.533169000000001  11.704867999999999  15.714320000000001 0
ion Cu   4.766546000000001   0.029049000000000  15.714320000000001 0
ion Cu   4.766546000000001  11.704867999999999  15.714320000000001 0
ion Cu   0.000000000000000   3.882763000000000   2.011863000000000 0
ion Cu   0.000000000000000  15.558558000000000   2.011863000000000 0
ion Cu   4.766623000000001   3.882763000000000   2.011863000000000 0
ion Cu   4.766623000000001  15.558558000000000   2.011863000000000 0
ion Cu   0.000048000000000   7.846205000000000   4.822845000000000 0
ion Cu   0.000048000000000  19.521999999999998   4.822845000000000 0
ion Cu   4.766661000000001   7.846205000000000   4.822845000000000 0
ion Cu   4.766661000000001  19.521999999999998   4.822845000000000 0
ion Cu   0.000019000000000   0.010648000000000   7.572401000000000 0
ion Cu   0.000019000000000  11.686444000000000   7.572401000000000 0
ion Cu   4.766642000000000   0.010648000000000   7.572401000000000 0
ion Cu   4.766642000000000  11.686444000000000   7.572401000000000 0
ion Cu   0.000048000000000   3.891052000000000  10.322502999999999 0
ion Cu   0.000048000000000  15.566848000000002  10.322502999999999 0
ion Cu   4.766661000000001   3.891052000000000  10.322502999999999 0
ion Cu   4.766661000000001  15.566848000000002  10.322502999999999 0
ion Cu   9.533188000000003   7.731151000000000  13.180692000000001 0
ion Cu   9.533188000000003  19.406946999999999  13.180692000000001 0
ion Cu   4.766565000000001   7.731151000000000  13.180692000000001 0
ion Cu   4.766565000000001  19.406946999999999  13.180692000000001 0
ion Cu   2.383292000000000   0.052658000000000   3.331310000000000 0
ion Cu   2.383292000000000  11.728453999999999   3.331310000000000 0
ion Cu   7.149905000000001   0.052658000000000   3.331310000000000 0
ion Cu   7.149905000000001  11.728453999999999   3.331310000000000 0
ion Cu   2.383321000000000   3.893061000000000   6.189945000000000 0
ion Cu   2.383321000000000  15.568833000000000   6.189945000000000 0
ion Cu   7.149943000000000   3.893061000000000   6.189945000000000 0
ion Cu   7.149943000000000  15.568833000000000   6.189945000000000 0
ion Cu   2.383359000000000   7.773301000000000   8.939650000000000 0
ion Cu   2.383359000000000  19.449120000000001   8.939650000000000 0
ion Cu   7.149981000000001   7.773301000000000   8.939650000000000 0
ion Cu   7.149981000000001  19.449120000000001   8.939650000000000 0
ion Cu   2.383292000000000  23.288868999999998  11.688513000000000 0
ion Cu   2.383292000000000  11.613097000000000  11.688513000000000 0
ion Cu   7.149905000000001  23.288868999999998  11.688513000000000 0
ion Cu   7.149905000000001  11.613097000000000  11.688513000000000 0
ion Cu   2.383302000000000   3.900837000000000  14.500237000000000 0
ion Cu   2.383302000000000  15.576631999999998  14.500237000000000 0
ion Cu   7.149924000000001   3.900837000000000  14.500237000000000 0
ion Cu   7.149924000000001  15.576631999999998  14.500237000000000 0
ion Cu   2.383321000000000   7.755134000000001   0.798177000000000 0
ion Cu   2.383321000000000  19.430952999999999   0.798177000000000 0
ion Cu   7.149943000000000   7.755134000000001   0.798177000000000 0
ion Cu   7.149943000000000  19.430952999999999   0.798177000000000 0
ion C   4.766594000000001  14.286037000000000  18.189000000000000 1  Linear 0 0 1
ion O   4.826682000000001  14.286037000000000  20.344370000000001 1  Linear 0 0 1
ion-species /projects/musgravc/apps/jdftx-1.6.0/build/pseudopotentials/GBRV_v1.5/$ID_pbe_v1.uspp
ion-species /projects/musgravc/apps/jdftx-1.6.0/build/pseudopotentials/GBRV_v1.5/$ID_pbe_v1.2.uspp
ion-species /projects/musgravc/apps/jdftx-1.6.0/build/pseudopotentials/GBRV_v1.5/$ID_pbe_v1.4.uspp
ion-species /projects/musgravc/apps/jdftx-1.6.0/build/pseudopotentials/GBRV_v1.5/$ID_pbe_v1.5.uspp
ion-width Ecut
ionic-minimize  \
	dirUpdateScheme      L-BFGS \
	linminMethod         DirUpdateRecommended \
	nIterations          100 \
	history              15 \
	knormThreshold       0.0001 \
	energyDiffThreshold  1e-06 \
	nEnergyDiff          2 \
	alphaTstart          1 \
	alphaTmin            1e-10 \
	updateTestStepSize   yes \
	alphaTreduceFactor   0.1 \
	alphaTincreaseFactor 3 \
	nAlphaAdjustMax      3 \
	wolfeEnergy          0.0001 \
	wolfeGradient        0.9 \
	fdTest               no
kpoint   0.000000000000   0.000000000000   0.000000000000  1.00000000000000
kpoint-folding 6 2 1 
latt-move-scale 0 0 0
latt-scale 1 1 1 
lattice  \
	   9.533245000000001    0.000000000000000    0.000000000000000  \
	   0.000000000000000   23.351590999999999    0.000000000000000  \
	   0.000000000000000    0.000000000000000   49.536203999999998 
lattice-minimize  \
	dirUpdateScheme      L-BFGS \
	linminMethod         DirUpdateRecommended \
	nIterations          0 \
	history              15 \
	knormThreshold       0 \
	energyDiffThreshold  1e-06 \
	nEnergyDiff          2 \
	alphaTstart          1 \
	alphaTmin            1e-10 \
	updateTestStepSize   yes \
	alphaTreduceFactor   0.1 \
	alphaTincreaseFactor 3 \
	nAlphaAdjustMax      3 \
	wolfeEnergy          0.0001 \
	wolfeGradient        0.9 \
	fdTest               no
lcao-params 30 1e-06 0.001
pcm-variant CANDLE
spintype z-spin
subspace-rotation-factor 1 yes
symmetries automatic
symmetry-threshold 0.0001
van-der-waals D3



---------- Setting up symmetries ----------

Found 8 point-group symmetries of the bravais lattice
Found 1 space-group symmetries with basis
Applied RMS atom displacement 0 bohrs to make symmetries exact.

---------- Initializing the Grid ----------
R = 
[      9.53325            0            0  ]
[            0      23.3516            0  ]
[            0            0      49.5362  ]
unit cell volume = 11027.6
G =
[   0.659081          0          0  ]
[          0   0.269069          0  ]
[          0          0    0.12684  ]
Minimum fftbox size, Smin = [  40  96  200  ]
Chosen fftbox size, S = [  40  96  200  ]

---------- Exchange Correlation functional ----------
Initalized PBE GGA exchange.
Initalized PBE GGA correlation.

---------- Setting up pseudopotentials ----------
Width of ionic core gaussian charges (only for fluid interactions / plotting) set to 0.397384

Reading pseudopotential file '/projects/musgravc/apps/jdftx-1.6.0/build/pseudopotentials/GBRV_v1.5/cu_pbe_v1.2.uspp':
  Title: Cu.  Created by USPP 7.3.6 on 3-2-2014
  Reference state energy: -201.059491.  19 valence electrons in orbitals:
    |300>  occupation: 2  eigenvalue: -5.020764
    |310>  occupation: 6  eigenvalue: -3.445588
    |320>  occupation: 8  eigenvalue: -0.925168
    |400>  occupation: 2  eigenvalue: -0.567638
    |410>  occupation: 0  eigenvalue: -0.326154
  lMax: 2  lLocal: 3  QijEcut: 6
  6 projectors sampled on a log grid with 613 points:
    l: 0  eig: -5.020767  rCut: 1.4
    l: 0  eig: -0.567640  rCut: 1.4
    l: 1  eig: -3.445589  rCut: 1.55
    l: 1  eig: -0.326157  rCut: 1.55
    l: 2  eig: -0.925170  rCut: 1.5
    l: 2  eig: 1.500000  rCut: 1.5
  Partial core density with radius 0.8
  Transforming core density to a uniform radial grid of dG=0.02 with 1125 points.
  Transforming local potential to a uniform radial grid of dG=0.02 with 1125 points.
  Transforming nonlocal projectors to a uniform radial grid of dG=0.02 with 432 points.
  Transforming density augmentations to a uniform radial grid of dG=0.02 with 1125 points.
  Transforming atomic orbitals to a uniform radial grid of dG=0.02 with 432 points.
  Core radius for overlap checks: 1.55 bohrs.

Reading pseudopotential file '/projects/musgravc/apps/jdftx-1.6.0/build/pseudopotentials/GBRV_v1.5/c_pbe_v1.2.uspp':
  Title: C.  Created by USPP 7.3.6 on 3-2-2014
  Reference state energy: -5.406344.  4 valence electrons in orbitals:
    |200>  occupation: 2  eigenvalue: -0.504890
    |210>  occupation: 2  eigenvalue: -0.194356
  lMax: 1  lLocal: 2  QijEcut: 5
  4 projectors sampled on a log grid with 503 points:
    l: 0  eig: -0.504890  rCut: 1.3
    l: 0  eig: 0.000000  rCut: 1.3
    l: 1  eig: -0.194357  rCut: 1.3
    l: 1  eig: 0.000000  rCut: 1.3
  Partial core density with radius 1.1
  Transforming core density to a uniform radial grid of dG=0.02 with 1125 points.
  Transforming local potential to a uniform radial grid of dG=0.02 with 1125 points.
  Transforming nonlocal projectors to a uniform radial grid of dG=0.02 with 432 points.
  Transforming density augmentations to a uniform radial grid of dG=0.02 with 1125 points.
  Transforming atomic orbitals to a uniform radial grid of dG=0.02 with 432 points.
  Core radius for overlap checks: 1.30 bohrs.

Reading pseudopotential file '/projects/musgravc/apps/jdftx-1.6.0/build/pseudopotentials/GBRV_v1.5/o_pbe_v1.2.uspp':
  Title: O.  Created by USPP 7.3.6 on 3-2-2014
  Reference state energy: -15.894388.  6 valence electrons in orbitals:
    |200>  occupation: 2  eigenvalue: -0.878823
    |210>  occupation: 4  eigenvalue: -0.332131
  lMax: 2  lLocal: 2  QijEcut: 6
  5 projectors sampled on a log grid with 511 points:
    l: 0  eig: -0.878823  rCut: 1.25
    l: 0  eig: 0.000000  rCut: 1.25
    l: 1  eig: -0.332132  rCut: 1.25
    l: 1  eig: 0.000000  rCut: 1.25
    l: 2  eig: 1.000000  rCut: 1.25
  Partial core density with radius 0.7
  Transforming core density to a uniform radial grid of dG=0.02 with 1125 points.
  Transforming local potential to a uniform radial grid of dG=0.02 with 1125 points.
  Transforming nonlocal projectors to a uniform radial grid of dG=0.02 with 432 points.
  Transforming density augmentations to a uniform radial grid of dG=0.02 with 1125 points.
  Transforming atomic orbitals to a uniform radial grid of dG=0.02 with 432 points.
  Core radius for overlap checks: 1.25 bohrs.

Initialized 3 species with 50 total atoms.

Folded 1 k-points by 6x2x1 to 12 k-points.

---------- Setting up k-points, bands, fillings ----------
Adding inversion symmetry to k-mesh for non-inversion-symmetric unit cell.
Reduced to 8 k-points under symmetry. 
Computing the number of bands and number of electrons
Calculating initial fillings.
nElectrons: 922.000000   nBands: 554   nStates: 16

----- Setting up reduced wavefunction bases (one per k-point) -----
average nbasis = 47121.583 , ideal nbasis = 47110.633

----- Initializing Supercell corresponding to k-point mesh -----
Lattice vector linear combinations in supercell:
[   6   0   0  ]
[   0   2   0  ]
[   0   0   1  ]
Supercell lattice vectors:
[  57.1995  0  0  ]
[  0  46.7032  0  ]
[  0  0  49.5362  ]

Initializing DFT-D3 calculator:
	Parameters set for gga-PBE functional
	s6:  1.000  s_r6:  1.217
	s8:  0.722  s_r8:  1.000
	Per-atom parameters loaded for:
	Cu:  sqrtQ[a0]:  5.226  Rcov[a0]:  1.909  CN: [ 0.00 0.96 ]
	 C:  sqrtQ[a0]:  3.105  Rcov[a0]:  1.417  CN: [ 0.00 0.99 2.00 3.00 3.98 ]
	 O:  sqrtQ[a0]:  2.594  Rcov[a0]:  1.191  CN: [ 0.00 0.99 1.99 ]

Initializing DFT-D2 calculator for fluid / solvation:
	Cu:  C6:  187.33 Eh-a0^6  R0: 2.952 a0
	 C:  C6:   30.35 Eh-a0^6  R0: 2.744 a0
	 O:  C6:   12.14 Eh-a0^6  R0: 2.536 a0

---------- Setting up ewald sum ----------
Optimum gaussian width for ewald sums = 4.626384 bohr.
Real space sum over 455 unit cells with max indices [  6  3  2  ]
Reciprocal space sum over 7733 terms with max indices [  5  9  18  ]

Computing DFT-D3 correction:
# coordination-number Cu 5.564 5.599 5.564 6.572 6.865 6.865 6.865 6.865 9.103 9.103 9.103 9.103 9.045 9.045 9.045 9.045 9.019 9.019 9.019 9.020 7.549 7.550 7.550 7.551 7.549 7.549 7.549 7.549 9.019 9.019 9.019 9.019 9.045 9.045 9.045 9.045 9.103 9.105 9.103 9.105 6.866 7.247 6.866 7.247 5.565 5.565 5.565 5.565
# coordination-number C 2.782
# coordination-number O 1.042
# diagonal-C6 Cu 175.00 175.00 175.00 175.00 175.00 175.00 175.00 175.00 175.00 175.00 175.00 175.00 175.00 175.00 175.00 175.00 175.00 175.00 175.00 175.00 175.00 175.00 175.00 175.00 175.00 175.00 175.00 175.00 175.00 175.00 175.00 175.00 175.00 175.00 175.00 175.00 175.00 175.00 175.00 175.00 175.00 175.00 175.00 175.00 175.00 175.00 175.00 175.00
# diagonal-C6 C 26.08
# diagonal-C6 O 12.78
EvdW_6 =   -0.260527
EvdW_8 =   -0.398542

---------- Allocating electronic variables ----------
Initializing wave functions:  linear combination of atomic orbitals
Cu pseudo-atom occupations:   s ( 2 1 )  p ( 6 0 )  d ( 10 )
C pseudo-atom occupations:   s ( 2 )  p ( 2 )
O pseudo-atom occupations:   s ( 2 )  p ( 4 )
	FillingsUpdate:  mu: -2.648396548  nElectrons: 922.000000  magneticMoment: [ Abs: 0.44725  Tot: -0.00571 ]
LCAOMinimize: Iter:   0  F: -9471.2439718382138381  |grad|_K:  3.347e-02  alpha:  1.000e+00
LCAOMinimize: 	Step increased F by 1.441101e+03, reducing alpha to 4.069556e-02.
LCAOMinimize: 	Step increased F by 7.384463e+01, reducing alpha to 4.069556e-03.
	FillingsUpdate:  mu: -2.487176007  nElectrons: 922.000000  magneticMoment: [ Abs: 0.45000  Tot: +0.00071 ]
LCAOMinimize: Iter:   1  F: -9495.7516211790807574  |grad|_K:  2.266e-02  alpha:  4.070e-03  linmin: -1.533e-01  cgtest:  9.310e-01  t[s]:    299.46
LCAOMinimize: Encountered beta<0, resetting CG.
LCAOMinimize: 	Predicted alpha/alphaT>3.000000, increasing alphaT to 1.220867e-02.
	FillingsUpdate:  mu: -1.447865352  nElectrons: 922.000000  magneticMoment: [ Abs: 0.46082  Tot: +0.00198 ]
LCAOMinimize: Iter:   2  F: -9522.0163181270891073  |grad|_K:  1.565e-02  alpha:  1.562e-02  linmin: -2.071e-02  cgtest:  2.904e-02  t[s]:    388.68
LCAOMinimize: 	Wrong curvature in test step, increasing alphaT to 4.686438e-02.
	FillingsUpdate:  mu: -1.262413986  nElectrons: 922.000000  magneticMoment: [ Abs: 0.49006  Tot: +0.00135 ]
LCAOMinimize: Iter:   3  F: -9552.2638295070519234  |grad|_K:  1.718e-02  alpha: -5.232e-02  linmin: -1.063e-01  cgtest:  7.636e-01  t[s]:    454.85
	FillingsUpdate:  mu: +3.559907232  nElectrons: 922.000000  magneticMoment: [ Abs: 0.00396  Tot: -0.00108 ]
LCAOMinimize: Iter:   4  F: -9580.5157995496883814  |grad|_K:  1.272e-02  alpha:  4.915e-01  linmin:  1.216e-02  cgtest: -1.899e+00  t[s]:    525.39
LCAOMinimize: 	Step increased F by 2.249204e+01, reducing alpha to 1.798453e-02.
	FillingsUpdate:  mu: +3.275425314  nElectrons: 922.000000  magneticMoment: [ Abs: 0.00355  Tot: +0.00027 ]
LCAOMinimize: Iter:   5  F: -9591.4041022073106433  |grad|_K:  1.020e-02  alpha:  1.798e-02  linmin: -1.963e-02  cgtest:  9.805e-01  t[s]:    649.34
LCAOMinimize: Encountered beta<0, resetting CG.
	FillingsUpdate:  mu: +2.829170155  nElectrons: 922.000000  magneticMoment: [ Abs: 0.00432  Tot: +0.00124 ]
LCAOMinimize: Iter:   6  F: -9606.5698806136824714  |grad|_K:  6.208e-03  alpha:  3.307e-02  linmin: -5.834e-02  cgtest:  9.600e-01  t[s]:    720.56
LCAOMinimize: Encountered beta<0, resetting CG.
LCAOMinimize: 	Predicted alpha/alphaT>3.000000, increasing alphaT to 9.919947e-02.
	FillingsUpdate:  mu: +2.262029853  nElectrons: 922.000000  magneticMoment: [ Abs: 0.00369  Tot: +0.00036 ]
LCAOMinimize: Iter:   7  F: -9619.6976513109493681  |grad|_K:  5.185e-03  alpha:  1.085e-01  linmin:  7.452e-03  cgtest: -3.517e-01  t[s]:    810.14
	FillingsUpdate:  mu: +2.220545503  nElectrons: 922.000000  magneticMoment: [ Abs: 0.00404  Tot: +0.00088 ]
LCAOMinimize: Iter:   8  F: -9622.8902981668161374  |grad|_K:  5.753e-03  alpha:  2.167e-02  linmin: -1.874e-02  cgtest:  9.771e-01  t[s]:    880.71
LCAOMinimize: 	Wrong curvature in test step, increasing alphaT to 6.499525e-02.
	FillingsUpdate:  mu: +1.863049427  nElectrons: 922.000000  magneticMoment: [ Abs: 0.00431  Tot: -0.00078 ]
LCAOMinimize: Iter:   9  F: -9638.8455804608111066  |grad|_K:  1.052e-02  alpha: -5.127e-03  linmin: -7.093e-02  cgtest:  4.565e-01  t[s]:    948.49
LCAOMinimize: 	Step increased F by 2.746817e+03, reducing alpha to 1.800379e-02.
	FillingsUpdate:  mu: +1.633238192  nElectrons: 922.000000  magneticMoment: [ Abs: 0.00388  Tot: -0.00064 ]
LCAOMinimize: Iter:  10  F: -9651.1162596035537717  |grad|_K:  4.829e-03  alpha:  1.800e-02  linmin: -7.797e-02  cgtest:  1.586e+00  t[s]:   1072.34
LCAOMinimize: Encountered beta<0, resetting CG.
LCAOMinimize: 	Wrong curvature in test step, increasing alphaT to 5.401138e-02.
	FillingsUpdate:  mu: +1.369600912  nElectrons: 922.000000  magneticMoment: [ Abs: 0.00354  Tot: -0.00041 ]
LCAOMinimize: Iter:  11  F: -9659.9812511805503163  |grad|_K:  4.890e-03  alpha: -3.925e-03  linmin: -7.910e-02  cgtest:  7.923e-01  t[s]:   1137.96
	FillingsUpdate:  mu: +0.756594636  nElectrons: 922.000000  magneticMoment: [ Abs: 0.00356  Tot: -0.00001 ]
LCAOMinimize: Iter:  12  F: -9674.6491126260043529  |grad|_K:  3.602e-03  alpha:  8.951e-02  linmin: -5.306e-02  cgtest:  4.122e-01  t[s]:   1208.54
LCAOMinimize: 	Predicted alpha/alphaT>3.000000, increasing alphaT to 2.685173e-01.
	FillingsUpdate:  mu: +0.807980625  nElectrons: 922.000000  magneticMoment: [ Abs: 0.00354  Tot: -0.00002 ]
LCAOMinimize: Iter:  13  F: -9677.6085943261605280  |grad|_K:  3.231e-03  alpha:  2.850e-02  linmin: -8.530e-02  cgtest:  9.104e-01  t[s]:   1298.31
LCAOMinimize: Encountered beta<0, resetting CG.
LCAOMinimize: 	Predicted alpha/alphaT>3.000000, increasing alphaT to 8.550024e-02.
LCAOMinimize: 	Predicted alpha/alphaT>3.000000, increasing alphaT to 2.565007e-01.
LCAOMinimize: 	Step increased F by 6.272022e+02, reducing alpha to 5.969894e-02.
	FillingsUpdate:  mu: +0.840097886  nElectrons: 922.000000  magneticMoment: [ Abs: 0.00358  Tot: +0.00019 ]
LCAOMinimize: Iter:  14  F: -9681.4221685483207693  |grad|_K:  2.906e-03  alpha:  5.970e-02  linmin: -1.413e-01  cgtest:  8.953e-01  t[s]:   1458.71
LCAOMinimize: 	Wrong curvature in test step, increasing alphaT to 1.790968e-01.
	FillingsUpdate:  mu: +0.814041338  nElectrons: 922.000000  magneticMoment: [ Abs: 0.00380  Tot: +0.00018 ]
LCAOMinimize: Iter:  15  F: -9684.7173366010047175  |grad|_K:  2.758e-03  alpha: -1.950e+00  linmin: -1.479e-01  cgtest:  9.165e-01  t[s]:   1524.64
	FillingsUpdate:  mu: +0.796634471  nElectrons: 922.000000  magneticMoment: [ Abs: 0.00394  Tot: +0.00011 ]
LCAOMinimize: Iter:  16  F: -9686.2127031722629908  |grad|_K:  2.688e-03  alpha:  2.938e-02  linmin: -1.538e-01  cgtest:  9.572e-01  t[s]:   1595.84
LCAOMinimize: 	Wrong curvature in test step, increasing alphaT to 8.812870e-02.
	FillingsUpdate:  mu: +0.776500044  nElectrons: 922.000000  magneticMoment: [ Abs: 0.00411  Tot: -0.00003 ]
LCAOMinimize: Iter:  17  F: -9687.6148429499280610  |grad|_K:  2.624e-03  alpha: -1.351e+00  linmin: -1.485e-01  cgtest:  9.557e-01  t[s]:   1661.72
	FillingsUpdate:  mu: +0.755143465  nElectrons: 922.000000  magneticMoment: [ Abs: 0.00427  Tot: -0.00000 ]
LCAOMinimize: Iter:  18  F: -9688.8724611872767127  |grad|_K:  2.550e-03  alpha:  2.778e-02  linmin: -1.686e-01  cgtest:  9.627e-01  t[s]:   1732.47
LCAOMinimize: 	Wrong curvature in test step, increasing alphaT to 8.332930e-02.
	FillingsUpdate:  mu: +0.732113507  nElectrons: 922.000000  magneticMoment: [ Abs: 0.00444  Tot: +0.00001 ]
LCAOMinimize: Iter:  19  F: -9690.0495180209818500  |grad|_K:  2.487e-03  alpha: -1.910e+00  linmin: -1.811e-01  cgtest:  9.594e-01  t[s]:   1798.19
	FillingsUpdate:  mu: +0.710017696  nElectrons: 922.000000  magneticMoment: [ Abs: 0.00462  Tot: +0.00003 ]
LCAOMinimize: Iter:  20  F: -9691.1298862785988604  |grad|_K:  2.432e-03  alpha:  2.655e-02  linmin: -1.866e-01  cgtest:  9.583e-01  t[s]:   1869.38
LCAOMinimize: 	Wrong curvature in test step, increasing alphaT to 7.964691e-02.
	FillingsUpdate:  mu: +0.688175346  nElectrons: 922.000000  magneticMoment: [ Abs: 0.00481  Tot: +0.00009 ]
LCAOMinimize: Iter:  21  F: -9692.1694714107761683  |grad|_K:  2.381e-03  alpha: -1.171e+00  linmin: -1.860e-01  cgtest:  9.558e-01  t[s]:   1935.04
	FillingsUpdate:  mu: +0.666905346  nElectrons: 922.000000  magneticMoment: [ Abs: 0.00501  Tot: +0.00017 ]
LCAOMinimize: Iter:  22  F: -9693.1543371350981033  |grad|_K:  2.332e-03  alpha:  2.612e-02  linmin: -1.794e-01  cgtest:  9.543e-01  t[s]:   2005.76
LCAOMinimize: 	Wrong curvature in test step, increasing alphaT to 7.837186e-02.
	FillingsUpdate:  mu: +0.646096646  nElectrons: 922.000000  magneticMoment: [ Abs: 0.00521  Tot: +0.00024 ]
LCAOMinimize: Iter:  23  F: -9694.1012948980551300  |grad|_K:  2.280e-03  alpha: -1.012e+00  linmin: -1.726e-01  cgtest:  9.528e-01  t[s]:   2071.95
	FillingsUpdate:  mu: +0.627665446  nElectrons: 922.000000  magneticMoment: [ Abs: 0.00540  Tot: +0.00028 ]
LCAOMinimize: Iter:  24  F: -9694.9952965167667571  |grad|_K:  2.226e-03  alpha:  2.580e-02  linmin: -1.755e-01  cgtest:  9.528e-01  t[s]:   2143.20
LCAOMinimize: 	Wrong curvature in test step, increasing alphaT to 7.738745e-02.
	FillingsUpdate:  mu: +0.610197223  nElectrons: 922.000000  magneticMoment: [ Abs: 0.00560  Tot: +0.00028 ]
LCAOMinimize: Iter:  25  F: -9695.8441647151885263  |grad|_K:  2.167e-03  alpha: -1.207e+00  linmin: -1.858e-01  cgtest:  9.526e-01  t[s]:   2208.84
	FillingsUpdate:  mu: +0.591334167  nElectrons: 922.000000  magneticMoment: [ Abs: 0.00580  Tot: +0.00028 ]
LCAOMinimize: Iter:  26  F: -9696.6335529379339278  |grad|_K:  2.103e-03  alpha:  2.544e-02  linmin: -1.973e-01  cgtest:  9.535e-01  t[s]:   2279.79
LCAOMinimize: 	Wrong curvature in test step, increasing alphaT to 7.631125e-02.
	FillingsUpdate:  mu: +0.571528909  nElectrons: 922.000000  magneticMoment: [ Abs: 0.00600  Tot: +0.00029 ]
LCAOMinimize: Iter:  27  F: -9697.3735531424445071  |grad|_K:  2.036e-03  alpha: -1.689e+00  linmin: -2.045e-01  cgtest:  9.532e-01  t[s]:   2345.28
	FillingsUpdate:  mu: +0.548397310  nElectrons: 922.000000  magneticMoment: [ Abs: 0.00620  Tot: +0.00032 ]
LCAOMinimize: Iter:  28  F: -9698.0836122153432370  |grad|_K:  1.962e-03  alpha:  2.614e-02  linmin: -2.090e-01  cgtest:  9.515e-01  t[s]:   2417.06
LCAOMinimize: 	Wrong curvature in test step, increasing alphaT to 7.841884e-02.
	FillingsUpdate:  mu: +0.521694854  nElectrons: 922.000000  magneticMoment: [ Abs: 0.00642  Tot: +0.00035 ]
LCAOMinimize: Iter:  29  F: -9698.7396933564541541  |grad|_K:  1.882e-03  alpha: -3.692e+00  linmin: -2.166e-01  cgtest:  9.526e-01  t[s]:   2482.57
	FillingsUpdate:  mu: +0.490148893  nElectrons: 922.000000  magneticMoment: [ Abs: 0.00663  Tot: +0.00038 ]
LCAOMinimize: Iter:  30  F: -9699.3670817983911547  |grad|_K:  1.789e-03  alpha:  2.748e-02  linmin: -2.285e-01  cgtest:  9.525e-01  t[s]:   2553.73
LCAOMinimize: Encountered beta<0, resetting CG.
LCAOMinimize: None of the convergence criteria satisfied after 30 iterations.
----- createFluidSolver() ----- (Fluid-side solver setup)
   Initializing fluid molecule 'H2O'
     Initializing site 'O'
       Electron density: proportional to exp(-r/0.36935)*erfc((r-0.51523)/0.36823) with norm 6.826
       Charge density: gaussian nuclear width 0.478731 with net site charge 0.826
       Polarizability: cuspless exponential with width 0.32 and norm 3.73
       Hard sphere radius: 2.57003 bohrs
       Positions in reference frame:
         [ +0.000000 +0.000000 +0.000000 ]
     Initializing site 'H'
       Electron density: proportional to exp(-r/0.34641)*erfc((r-0)/0.390882) with norm 0.587
       Charge density: gaussian nuclear width 0.377945 with net site charge -0.413
       Polarizability: cuspless exponential with width 0.39 and norm 3.3
       Positions in reference frame:
         [ +0.000000 -1.441945 +1.122523 ]
         [ +0.000000 +1.441945 +1.122523 ]
     Net charge: 0   dipole magnitude: 0.927204
     Initializing spherical shell mfKernel with radius 2.61727 Bohr
     deltaS corrections:
       site 'O': -7.54299
       site 'H': -6.83917
   Initializing fluid molecule 'Na+'
     Initializing site 'Na'
       Electron density: proportional to exp(-r/0.19682)*erfc((r-0.71491)/0.41314) with norm 8.1383
       Charge density: gaussian nuclear width 0.365347 with net site charge -1
       Hard sphere radius: 1.86327 bohrs
       Positions in reference frame:
         [ +0.000000 +0.000000 +0.000000 ]
     Net charge: -1   dipole magnitude: 0
     Initializing gaussian mfKernel with width: 1.55004 Bohr
     deltaS corrections:
       site 'Na': -22.3555
   Initializing fluid molecule 'F-'
     Initializing site 'F'
       Electron density: proportional to exp(-r/0.38886)*erfc((r-0)/0.438782) with norm 8
       Charge density: gaussian nuclear width 0.374796 with net site charge 1
       Hard sphere radius: 2.39995 bohrs
       Positions in reference frame:
         [ +0.000000 +0.000000 +0.000000 ]
     Net charge: 1   dipole magnitude: 0
     Initializing gaussian mfKernel with width: 1.59012 Bohr
     deltaS corrections:
       site 'F': -9.04335

Correction to mu due to finite nuclear width = -0.0829565
   Cavity determined by nc: 0.00142 and sigma: 0.707107
   Nonlocal vdW cavity from gaussian model electron density with norm = 8 and sigma = 0.993594 bohr
   Charge asymmetry in cavity with sensitivity pCavity = 36.5 e-bohr/Eh
   Electrostatic cavity expanded by eta = 1.46 bohrs
   Weighted density cavitation model constrained by Nbulk: 0.0049383 bohr^-3, Pvap: 3.14029 kPa, Rvdw: 2.61727 bohr and sigmaBulk: 4.62e-05 Eh/bohr^2 at T: 298 K.
   Weighted density dispersion model using vdW pair potentials with single solvent site with sqrtC6eff: 0.77 SI.


---- Citations for features of the code used in this run ----

   Software package:
      R. Sundararaman, K. Letchworth-Weaver, K.A. Schwarz, D. Gunceler, Y. Ozhabes and T.A. Arias, 'JDFTx: software for joint density-functional theory', SoftwareX 6, 278 (2017)

   gga-PBE exchange-correlation functional:
      J.P. Perdew, K. Burke and M. Ernzerhof, Phys. Rev. Lett. 77, 3865 (1996)

   Pseudopotentials:
      KF Garrity, JW Bennett, KM Rabe and D Vanderbilt, Comput. Mater. Sci. 81, 446 (2014)

   DFT-D3 dispersion correction:
      S. Grimme, J. Antony, S. Ehrlich and H. Krieg, J. Chem. Phys. 132, 154104 (2010)

   DFT-D2 dispersion correction:
      S. Grimme, J. Comput. Chem. 27, 1787 (2006)

   Charge-asymmetric nonlocally-determined local-electric (CANDLE) solvation model:
      R. Sundararaman and W.A. Goddard III, J. Chem. Phys. 142, 064107 (2015)

   Total energy minimization with Auxiliary Hamiltonian:
      C. Freysoldt, S. Boeck, and J. Neugebauer, Phys. Rev. B 79, 241103(R) (2009)

   Linear-tetrahedron sampling for density of states:
      G. Lehmann and M. Taut, Phys. status solidi (b) 54, 469 (1972)

This list may not be complete. Please suggest additional citations or
report any other bugs at https://github.com/shankar1729/jdftx/issues

Initialization completed successfully at t[s]:   2582.77


Computing DFT-D3 correction:
# coordination-number Cu 5.564 5.599 5.564 6.572 6.865 6.865 6.865 6.865 9.103 9.103 9.103 9.103 9.045 9.045 9.045 9.045 9.019 9.019 9.019 9.020 7.549 7.550 7.550 7.551 7.549 7.549 7.549 7.549 9.019 9.019 9.019 9.019 9.045 9.045 9.045 9.045 9.103 9.105 9.103 9.105 6.866 7.247 6.866 7.247 5.565 5.565 5.565 5.565
# coordination-number C 2.782
# coordination-number O 1.042
# diagonal-C6 Cu 175.00 175.00 175.00 175.00 175.00 175.00 175.00 175.00 175.00 175.00 175.00 175.00 175.00 175.00 175.00 175.00 175.00 175.00 175.00 175.00 175.00 175.00 175.00 175.00 175.00 175.00 175.00 175.00 175.00 175.00 175.00 175.00 175.00 175.00 175.00 175.00 175.00 175.00 175.00 175.00 175.00 175.00 175.00 175.00 175.00 175.00 175.00 175.00
# diagonal-C6 C 26.08
# diagonal-C6 O 12.78
EvdW_6 =   -0.260527
EvdW_8 =   -0.398542
Fluid solver invoked on fresh (random / LCAO) wavefunctions
Running a vacuum solve first:

-------- Initial electronic minimization -----------
	FillingsUpdate:  mu: +0.493798238  nElectrons: 922.000000  magneticMoment: [ Abs: 0.00663  Tot: +0.00038 ]
ElecMinimize: Iter:   0  F: -9699.367081798391155  |grad|_K:  4.782e-04  alpha:  1.000e+00
	FillingsUpdate:  mu: +0.120427464  nElectrons: 922.000000  magneticMoment: [ Abs: 0.00709  Tot: +0.00032 ]
	SubspaceRotationAdjust: set factor to 0.796
ElecMinimize: Iter:   1  F: -9706.867328926380651  |grad|_K:  1.694e-04  alpha:  9.394e-02  linmin:  7.419e-04  t[s]:   2808.03
	FillingsUpdate:  mu: +0.195492191  nElectrons: 922.000000  magneticMoment: [ Abs: 0.00588  Tot: +0.00031 ]
	SubspaceRotationAdjust: set factor to 0.753
ElecMinimize: Iter:   2  F: -9708.408612810320847  |grad|_K:  1.200e-04  alpha:  1.557e-01  linmin: -2.179e-05  t[s]:   2956.43
	FillingsUpdate:  mu: +0.229286857  nElectrons: 922.000000  magneticMoment: [ Abs: 0.00512  Tot: +0.00029 ]
	SubspaceRotationAdjust: set factor to 0.579
ElecMinimize: Iter:   3  F: -9709.298729633275798  |grad|_K:  1.210e-04  alpha:  1.425e-01  linmin:  2.780e-06  t[s]:   3105.61
	FillingsUpdate:  mu: +0.150851874  nElectrons: 922.000000  magneticMoment: [ Abs: 0.00444  Tot: +0.00028 ]
	SubspaceRotationAdjust: set factor to 0.393
ElecMinimize: Iter:   4  F: -9709.789992509537115  |grad|_K:  9.696e-05  alpha:  8.109e-02  linmin:  1.404e-07  t[s]:   3253.41
	FillingsUpdate:  mu: +0.060507158  nElectrons: 922.000000  magneticMoment: [ Abs: 0.00383  Tot: +0.00034 ]
	SubspaceRotationAdjust: set factor to 0.361
ElecMinimize: Iter:   5  F: -9710.101536023834342  |grad|_K:  4.732e-05  alpha:  7.893e-02  linmin: -1.995e-06  t[s]:   3401.52
	FillingsUpdate:  mu: +0.093575102  nElectrons: 922.000000  magneticMoment: [ Abs: 0.00329  Tot: +0.00027 ]
	SubspaceRotationAdjust: set factor to 0.433
ElecMinimize: Iter:   6  F: -9710.244173104592846  |grad|_K:  3.978e-05  alpha:  1.497e-01  linmin: -5.683e-06  t[s]:   3550.09
	FillingsUpdate:  mu: +0.106500233  nElectrons: 922.000000  magneticMoment: [ Abs: 0.00271  Tot: +0.00018 ]
	SubspaceRotationAdjust: set factor to 0.353
ElecMinimize: Iter:   7  F: -9710.351962702243327  |grad|_K:  3.377e-05  alpha:  1.590e-01  linmin: -6.511e-06  t[s]:   3699.12
	FillingsUpdate:  mu: +0.105590126  nElectrons: 922.000000  magneticMoment: [ Abs: 0.00227  Tot: +0.00016 ]
	SubspaceRotationAdjust: set factor to 0.374
ElecMinimize: Iter:   8  F: -9710.408466990178567  |grad|_K:  2.157e-05  alpha:  1.165e-01  linmin: -9.187e-07  t[s]:   3847.46
	FillingsUpdate:  mu: +0.106903298  nElectrons: 922.000000  magneticMoment: [ Abs: 0.00188  Tot: +0.00014 ]
	SubspaceRotationAdjust: set factor to 0.442
ElecMinimize: Iter:   9  F: -9710.443048172048293  |grad|_K:  1.692e-05  alpha:  1.759e-01  linmin: -1.655e-06  t[s]:   3995.52
	FillingsUpdate:  mu: +0.101033272  nElectrons: 922.000000  magneticMoment: [ Abs: 0.00161  Tot: +0.00012 ]
	SubspaceRotationAdjust: set factor to 0.433
ElecMinimize: Iter:  10  F: -9710.461003562202677  |grad|_K:  1.254e-05  alpha:  1.485e-01  linmin: -5.535e-07  t[s]:   4143.45
	FillingsUpdate:  mu: +0.101702149  nElectrons: 922.000000  magneticMoment: [ Abs: 0.00139  Tot: +0.00010 ]
	SubspaceRotationAdjust: set factor to 0.39
ElecMinimize: Iter:  11  F: -9710.470703190972927  |grad|_K:  1.036e-05  alpha:  1.465e-01  linmin: -1.385e-06  t[s]:   4291.78
	FillingsUpdate:  mu: +0.108594081  nElectrons: 922.000000  magneticMoment: [ Abs: 0.00118  Tot: +0.00008 ]
	SubspaceRotationAdjust: set factor to 0.367
ElecMinimize: Iter:  12  F: -9710.477347716128861  |grad|_K:  7.165e-06  alpha:  1.464e-01  linmin: -1.054e-06  t[s]:   4439.85
	FillingsUpdate:  mu: +0.108282721  nElectrons: 922.000000  magneticMoment: [ Abs: 0.00101  Tot: +0.00006 ]
	SubspaceRotationAdjust: set factor to 0.429
ElecMinimize: Iter:  13  F: -9710.481035317328860  |grad|_K:  5.974e-06  alpha:  1.702e-01  linmin:  4.087e-08  t[s]:   4587.97
	FillingsUpdate:  mu: +0.104751436  nElectrons: 922.000000  magneticMoment: [ Abs: 0.00085  Tot: +0.00005 ]
	SubspaceRotationAdjust: set factor to 0.425
ElecMinimize: Iter:  14  F: -9710.483578443698207  |grad|_K:  4.653e-06  alpha:  1.696e-01  linmin: -6.598e-08  t[s]:   4736.28
	FillingsUpdate:  mu: +0.104058091  nElectrons: 922.000000  magneticMoment: [ Abs: 0.00073  Tot: +0.00004 ]
	SubspaceRotationAdjust: set factor to 0.369
ElecMinimize: Iter:  15  F: -9710.484858525076561  |grad|_K:  3.614e-06  alpha:  1.408e-01  linmin: -1.907e-07  t[s]:   4884.79
	FillingsUpdate:  mu: +0.104391931  nElectrons: 922.000000  magneticMoment: [ Abs: 0.00060  Tot: +0.00003 ]
	SubspaceRotationAdjust: set factor to 0.381
ElecMinimize: Iter:  16  F: -9710.485860061116909  |grad|_K:  2.971e-06  alpha:  1.824e-01  linmin:  1.027e-07  t[s]:   5033.84
	FillingsUpdate:  mu: +0.103993568  nElectrons: 922.000000  magneticMoment: [ Abs: 0.00051  Tot: +0.00002 ]
	SubspaceRotationAdjust: set factor to 0.453
ElecMinimize: Iter:  17  F: -9710.486418305124971  |grad|_K:  2.144e-06  alpha:  1.506e-01  linmin:  6.174e-08  t[s]:   5182.18
	FillingsUpdate:  mu: +0.104225955  nElectrons: 922.000000  magneticMoment: [ Abs: 0.00043  Tot: +0.00002 ]
	SubspaceRotationAdjust: set factor to 0.438
ElecMinimize: Iter:  18  F: -9710.486768076090812  |grad|_K:  1.951e-06  alpha:  1.811e-01  linmin:  2.148e-09  t[s]:   5330.61
	FillingsUpdate:  mu: +0.104151413  nElectrons: 922.000000  magneticMoment: [ Abs: 0.00035  Tot: +0.00001 ]
	SubspaceRotationAdjust: set factor to 0.373
ElecMinimize: Iter:  19  F: -9710.487005772183693  |grad|_K:  1.426e-06  alpha:  1.486e-01  linmin:  6.854e-08  t[s]:   5479.60
	FillingsUpdate:  mu: +0.103697209  nElectrons: 922.000000  magneticMoment: [ Abs: 0.00029  Tot: +0.00001 ]
	SubspaceRotationAdjust: set factor to 0.368
ElecMinimize: Iter:  20  F: -9710.487131852019957  |grad|_K:  1.087e-06  alpha:  1.477e-01  linmin:  1.072e-07  t[s]:   5627.90
	FillingsUpdate:  mu: +0.103845419  nElectrons: 922.000000  magneticMoment: [ Abs: 0.00024  Tot: +0.00001 ]
	SubspaceRotationAdjust: set factor to 0.414
ElecMinimize: Iter:  21  F: -9710.487219614098649  |grad|_K:  8.563e-07  alpha:  1.770e-01  linmin:  1.361e-07  t[s]:   5776.24
	FillingsUpdate:  mu: +0.103846342  nElectrons: 922.000000  magneticMoment: [ Abs: 0.00020  Tot: +0.00000 ]
	SubspaceRotationAdjust: set factor to 0.402
ElecMinimize: Iter:  22  F: -9710.487266554864618  |grad|_K:  6.614e-07  alpha:  1.524e-01  linmin:  9.370e-08  t[s]:   5924.82
	FillingsUpdate:  mu: +0.103590155  nElectrons: 922.000000  magneticMoment: [ Abs: 0.00016  Tot: +0.00000 ]
	SubspaceRotationAdjust: set factor to 0.362
ElecMinimize: Iter:  23  F: -9710.487296821553173  |grad|_K:  5.235e-07  alpha:  1.647e-01  linmin:  2.371e-07  t[s]:   6073.04
	FillingsUpdate:  mu: +0.103606207  nElectrons: 922.000000  magneticMoment: [ Abs: 0.00013  Tot: +0.00000 ]
	SubspaceRotationAdjust: set factor to 0.383
ElecMinimize: Iter:  24  F: -9710.487314086860351  |grad|_K:  3.687e-07  alpha:  1.500e-01  linmin:  7.649e-08  t[s]:   6221.42
	FillingsUpdate:  mu: +0.103639660  nElectrons: 922.000000  magneticMoment: [ Abs: 0.00011  Tot: +0.00000 ]
	SubspaceRotationAdjust: set factor to 0.403
ElecMinimize: Iter:  25  F: -9710.487323993156679  |grad|_K:  3.169e-07  alpha:  1.734e-01  linmin:  1.316e-07  t[s]:   6370.83
	FillingsUpdate:  mu: +0.103619411  nElectrons: 922.000000  magneticMoment: [ Abs: 0.00009  Tot: +0.00000 ]
	SubspaceRotationAdjust: set factor to 0.405
ElecMinimize: Iter:  26  F: -9710.487330834288514  |grad|_K:  2.376e-07  alpha:  1.621e-01  linmin:  7.963e-08  t[s]:   6519.40
	FillingsUpdate:  mu: +0.103636329  nElectrons: 922.000000  magneticMoment: [ Abs: 0.00007  Tot: -0.00000 ]
	SubspaceRotationAdjust: set factor to 0.397
ElecMinimize: Iter:  27  F: -9710.487334391978948  |grad|_K:  1.819e-07  alpha:  1.501e-01  linmin: -9.924e-08  t[s]:   6669.42
	FillingsUpdate:  mu: +0.103593727  nElectrons: 922.000000  magneticMoment: [ Abs: 0.00006  Tot: -0.00000 ]
	SubspaceRotationAdjust: set factor to 0.408
ElecMinimize: Iter:  28  F: -9710.487336893438624  |grad|_K:  1.581e-07  alpha:  1.798e-01  linmin:  1.904e-07  t[s]:   6817.73
	FillingsUpdate:  mu: +0.103564025  nElectrons: 922.000000  magneticMoment: [ Abs: 0.00005  Tot: -0.00000 ]
	SubspaceRotationAdjust: set factor to 0.461
ElecMinimize: Iter:  29  F: -9710.487338739363622  |grad|_K:  1.331e-07  alpha:  1.761e-01  linmin:  2.699e-07  t[s]:   6967.82
	FillingsUpdate:  mu: +0.103610814  nElectrons: 922.000000  magneticMoment: [ Abs: 0.00004  Tot: -0.00000 ]
	SubspaceRotationAdjust: set factor to 0.474
ElecMinimize: Iter:  30  F: -9710.487339974990391  |grad|_K:  1.087e-07  alpha:  1.661e-01  linmin:  8.318e-08  t[s]:   7115.78
	FillingsUpdate:  mu: +0.103620756  nElectrons: 922.000000  magneticMoment: [ Abs: 0.00003  Tot: -0.00000 ]
	SubspaceRotationAdjust: set factor to 0.44
ElecMinimize: Iter:  31  F: -9710.487340773535834  |grad|_K:  9.534e-08  alpha:  1.608e-01  linmin:  3.155e-07  t[s]:   7263.84
	FillingsUpdate:  mu: +0.103596565  nElectrons: 922.000000  magneticMoment: [ Abs: 0.00002  Tot: -0.00000 ]
	SubspaceRotationAdjust: set factor to 0.401
ElecMinimize: Iter:  32  F: -9710.487341424388433  |grad|_K:  8.044e-08  alpha:  1.711e-01  linmin:  2.888e-07  t[s]:   7411.79
	FillingsUpdate:  mu: +0.103579542  nElectrons: 922.000000  magneticMoment: [ Abs: 0.00002  Tot: -0.00000 ]
	SubspaceRotationAdjust: set factor to 0.433
ElecMinimize: Iter:  33  F: -9710.487341849195218  |grad|_K:  6.202e-08  alpha:  1.571e-01  linmin:  1.397e-07  t[s]:   7560.11
	FillingsUpdate:  mu: +0.103566316  nElectrons: 922.000000  magneticMoment: [ Abs: 0.00001  Tot: -0.00000 ]
	SubspaceRotationAdjust: set factor to 0.456
ElecMinimize: Iter:  34  F: -9710.487342129141325  |grad|_K:  5.344e-08  alpha:  1.734e-01  linmin:  7.619e-07  t[s]:   7708.32
	FillingsUpdate:  mu: +0.103572015  nElectrons: 922.000000  magneticMoment: [ Abs: 0.00001  Tot: -0.00000 ]
	SubspaceRotationAdjust: set factor to 0.419
ElecMinimize: Iter:  35  F: -9710.487342327232909  |grad|_K:  4.393e-08  alpha:  1.662e-01  linmin: -4.160e-07  t[s]:   7856.66
	FillingsUpdate:  mu: +0.103585312  nElectrons: 922.000000  magneticMoment: [ Abs: 0.00001  Tot: -0.00000 ]
	SubspaceRotationAdjust: set factor to 0.376
ElecMinimize: Iter:  36  F: -9710.487342453196106  |grad|_K:  3.504e-08  alpha:  1.543e-01  linmin:  5.947e-07  t[s]:   8004.92
	FillingsUpdate:  mu: +0.103582897  nElectrons: 922.000000  magneticMoment: [ Abs: 0.00001  Tot: -0.00000 ]
	SubspaceRotationAdjust: set factor to 0.399
ElecMinimize: Iter:  37  F: -9710.487342532705952  |grad|_K:  2.664e-08  alpha:  1.547e-01  linmin: -1.290e-06  t[s]:   8153.42
	FillingsUpdate:  mu: +0.103571833  nElectrons: 922.000000  magneticMoment: [ Abs: 0.00001  Tot: -0.00000 ]
	SubspaceRotationAdjust: set factor to 0.423
ElecMinimize: Iter:  38  F: -9710.487342587135572  |grad|_K:  2.428e-08  alpha:  1.790e-01  linmin:  1.424e-06  t[s]:   8301.61
ElecMinimize: Converged (|Delta F|<1.000000e-07 for 2 iters).
Setting wave functions to eigenvectors of Hamiltonian
Converging empty states (this may take a while): |deigs|: 1.450e-02
Vacuum energy after initial minimize, F = -9710.487342587135572


-------- Electronic minimization -----------
	Linear fluid (dielectric constant: 78.4, screening length: 8.12261 Bohr) occupying 0.470934 of unit cell:	Completed after 26 iterations at t[s]:   9218.26
	FillingsUpdate:  mu: -0.158504328  nElectrons: 922.000000  magneticMoment: [ Abs: 0.00000  Tot: -0.00000 ]
ElecMinimize: Iter:   0  F: -9710.487228934656741  |grad|_K:  1.073e-06  alpha:  1.000e+00
	Linear fluid (dielectric constant: 78.4, screening length: 8.12261 Bohr) occupying 0.472366 of unit cell:	Completed after 19 iterations at t[s]:   9343.51
	Linear fluid (dielectric constant: 78.4, screening length: 8.12261 Bohr) occupying 0.471826 of unit cell:	Completed after 16 iterations at t[s]:   9386.46
	FillingsUpdate:  mu: -0.154313111  nElectrons: 922.000000  magneticMoment: [ Abs: 0.00000  Tot: -0.00000 ]
	SubspaceRotationAdjust: set factor to 0.397
ElecMinimize: Iter:   1  F: -9710.487520767819660  |grad|_K:  1.422e-06  alpha:  6.132e-01  linmin:  1.203e-07  t[s]:   9442.58
	Linear fluid (dielectric constant: 78.4, screening length: 8.12261 Bohr) occupying 0.473550 of unit cell:	Completed after 18 iterations at t[s]:   9503.05
	Linear fluid (dielectric constant: 78.4, screening length: 8.12261 Bohr) occupying 0.472354 of unit cell:	Completed after 18 iterations at t[s]:   9546.01
	FillingsUpdate:  mu: -0.154394436  nElectrons: 922.000000  magneticMoment: [ Abs: 0.00000  Tot: -0.00000 ]
	SubspaceRotationAdjust: set factor to 0.483
ElecMinimize: Iter:   2  F: -9710.487673699841253  |grad|_K:  1.246e-06  alpha:  1.807e-01  linmin:  3.504e-08  t[s]:   9602.34
	Linear fluid (dielectric constant: 78.4, screening length: 8.12261 Bohr) occupying 0.472798 of unit cell:	Completed after 12 iterations at t[s]:   9661.67
	Linear fluid (dielectric constant: 78.4, screening length: 8.12261 Bohr) occupying 0.472743 of unit cell:	Completed after 6 iterations at t[s]:   9702.28
	FillingsUpdate:  mu: -0.155193345  nElectrons: 922.000000  magneticMoment: [ Abs: 0.00000  Tot: -0.00000 ]
	SubspaceRotationAdjust: set factor to 0.527
ElecMinimize: Iter:   3  F: -9710.487776715788641  |grad|_K:  7.657e-07  alpha:  1.581e-01  linmin:  1.530e-08  t[s]:   9758.34
	Linear fluid (dielectric constant: 78.4, screening length: 8.12261 Bohr) occupying 0.472930 of unit cell:	Completed after 11 iterations at t[s]:   9817.04
	Linear fluid (dielectric constant: 78.4, screening length: 8.12261 Bohr) occupying 0.473098 of unit cell:	Completed after 11 iterations at t[s]:   9859.25
	FillingsUpdate:  mu: -0.154863136  nElectrons: 922.000000  magneticMoment: [ Abs: 0.00000  Tot: -0.00000 ]
	SubspaceRotationAdjust: set factor to 0.566
ElecMinimize: Iter:   4  F: -9710.487851267473161  |grad|_K:  6.317e-07  alpha:  3.022e-01  linmin: -9.225e-08  t[s]:   9915.28
	Linear fluid (dielectric constant: 78.4, screening length: 8.12261 Bohr) occupying 0.473371 of unit cell:	Completed after 12 iterations at t[s]:   9974.40
	Linear fluid (dielectric constant: 78.4, screening length: 8.12261 Bohr) occupying 0.473232 of unit cell:	Completed after 9 iterations at t[s]:  10015.95
	FillingsUpdate:  mu: -0.154521664  nElectrons: 922.000000  magneticMoment: [ Abs: 0.00000  Tot: -0.00000 ]
	SubspaceRotationAdjust: set factor to 0.658
ElecMinimize: Iter:   5  F: -9710.487875858547341  |grad|_K:  4.123e-07  alpha:  1.464e-01  linmin:  2.298e-08  t[s]:  10071.89
	Linear fluid (dielectric constant: 78.4, screening length: 8.12261 Bohr) occupying 0.473294 of unit cell:	Completed after 7 iterations at t[s]:  10129.88
	Linear fluid (dielectric constant: 78.4, screening length: 8.12261 Bohr) occupying 0.473319 of unit cell:	Completed after 5 iterations at t[s]:  10170.45
	FillingsUpdate:  mu: -0.154498202  nElectrons: 922.000000  magneticMoment: [ Abs: 0.00000  Tot: -0.00000 ]
	SubspaceRotationAdjust: set factor to 0.715
ElecMinimize: Iter:   6  F: -9710.487890519239954  |grad|_K:  3.378e-07  alpha:  2.053e-01  linmin: -5.019e-08  t[s]:  10226.58
	Linear fluid (dielectric constant: 78.4, screening length: 8.12261 Bohr) occupying 0.473377 of unit cell:	Completed after 6 iterations at t[s]:  10284.51
	Linear fluid (dielectric constant: 78.4, screening length: 8.12261 Bohr) occupying 0.473366 of unit cell:	Completed after 2 iterations at t[s]:  10324.54
	FillingsUpdate:  mu: -0.154554460  nElectrons: 922.000000  magneticMoment: [ Abs: 0.00000  Tot: -0.00000 ]
	SubspaceRotationAdjust: set factor to 0.813
ElecMinimize: Iter:   7  F: -9710.487898431827489  |grad|_K:  2.756e-07  alpha:  1.648e-01  linmin:  1.456e-08  t[s]:  10380.50
	Linear fluid (dielectric constant: 78.4, screening length: 8.12261 Bohr) occupying 0.473397 of unit cell:	Completed after 7 iterations at t[s]:  10438.81
	Linear fluid (dielectric constant: 78.4, screening length: 8.12261 Bohr) occupying 0.473396 of unit cell:	Completed after 0 iterations at t[s]:  10478.10
	FillingsUpdate:  mu: -0.154562497  nElectrons: 922.000000  magneticMoment: [ Abs: 0.00000  Tot: +0.00000 ]
	SubspaceRotationAdjust: set factor to 0.832
ElecMinimize: Iter:   8  F: -9710.487903614768584  |grad|_K:  1.713e-07  alpha:  1.625e-01  linmin:  1.174e-07  t[s]:  10534.19
	Linear fluid (dielectric constant: 78.4, screening length: 8.12261 Bohr) occupying 0.473407 of unit cell:	Completed after 7 iterations at t[s]:  10592.34
	Linear fluid (dielectric constant: 78.4, screening length: 8.12261 Bohr) occupying 0.473406 of unit cell:	Completed after 1 iterations at t[s]:  10632.29
	FillingsUpdate:  mu: -0.154510132  nElectrons: 922.000000  magneticMoment: [ Abs: 0.00000  Tot: +0.00000 ]
	SubspaceRotationAdjust: set factor to 0.768
ElecMinimize: Iter:   9  F: -9710.487905457313900  |grad|_K:  1.278e-07  alpha:  1.499e-01  linmin:  3.434e-07  t[s]:  10688.16
	Linear fluid (dielectric constant: 78.4, screening length: 8.12261 Bohr) occupying 0.473408 of unit cell:	Completed after 2 iterations at t[s]:  10745.40
	Linear fluid (dielectric constant: 78.4, screening length: 8.12261 Bohr) occupying 0.473408 of unit cell:	Completed after 2 iterations at t[s]:  10785.46
	FillingsUpdate:  mu: -0.154531848  nElectrons: 922.000000  magneticMoment: [ Abs: 0.00000  Tot: +0.00000 ]
	SubspaceRotationAdjust: set factor to 0.772
ElecMinimize: Iter:  10  F: -9710.487906875825502  |grad|_K:  1.142e-07  alpha:  2.079e-01  linmin: -3.488e-07  t[s]:  10841.46
	Linear fluid (dielectric constant: 78.4, screening length: 8.12261 Bohr) occupying 0.473406 of unit cell:	Completed after 3 iterations at t[s]:  10898.98
	Linear fluid (dielectric constant: 78.4, screening length: 8.12261 Bohr) occupying 0.473407 of unit cell:	Completed after 2 iterations at t[s]:  10938.90
	FillingsUpdate:  mu: -0.154559516  nElectrons: 922.000000  magneticMoment: [ Abs: 0.00000  Tot: +0.00000 ]
	SubspaceRotationAdjust: set factor to 0.788
ElecMinimize: Iter:  11  F: -9710.487907519836881  |grad|_K:  6.305e-08  alpha:  1.174e-01  linmin:  2.982e-07  t[s]:  10994.74
	Linear fluid (dielectric constant: 78.4, screening length: 8.12261 Bohr) occupying 0.473405 of unit cell:	Completed after 2 iterations at t[s]:  11052.12
	Linear fluid (dielectric constant: 78.4, screening length: 8.12261 Bohr) occupying 0.473404 of unit cell:	Completed after 2 iterations at t[s]:  11092.04
	FillingsUpdate:  mu: -0.154551475  nElectrons: 922.000000  magneticMoment: [ Abs: 0.00000  Tot: +0.00000 ]
	SubspaceRotationAdjust: set factor to 0.764
ElecMinimize: Iter:  12  F: -9710.487907807895681  |grad|_K:  5.082e-08  alpha:  1.729e-01  linmin: -1.823e-06  t[s]:  11147.85
	Linear fluid (dielectric constant: 78.4, screening length: 8.12261 Bohr) occupying 0.473400 of unit cell:	Completed after 2 iterations at t[s]:  11205.00
	Linear fluid (dielectric constant: 78.4, screening length: 8.12261 Bohr) occupying 0.473401 of unit cell:	Completed after 0 iterations at t[s]:  11244.32
	FillingsUpdate:  mu: -0.154543977  nElectrons: 922.000000  magneticMoment: [ Abs: 0.00000  Tot: +0.00000 ]
	SubspaceRotationAdjust: set factor to 0.723
ElecMinimize: Iter:  13  F: -9710.487907976626957  |grad|_K:  3.743e-08  alpha:  1.532e-01  linmin:  2.043e-06  t[s]:  11300.18
	Linear fluid (dielectric constant: 78.4, screening length: 8.12261 Bohr) occupying 0.473397 of unit cell:	Completed after 2 iterations at t[s]:  11357.54
	Linear fluid (dielectric constant: 78.4, screening length: 8.12261 Bohr) occupying 0.473397 of unit cell:	Completed after 0 iterations at t[s]:  11396.99
	FillingsUpdate:  mu: -0.154549573  nElectrons: 922.000000  magneticMoment: [ Abs: 0.00000  Tot: +0.00000 ]
	SubspaceRotationAdjust: set factor to 0.739
ElecMinimize: Iter:  14  F: -9710.487908069277182  |grad|_K:  2.985e-08  alpha:  1.605e-01  linmin: -1.538e-06  t[s]:  11452.92
	Linear fluid (dielectric constant: 78.4, screening length: 8.12261 Bohr) occupying 0.473392 of unit cell:	Completed after 2 iterations at t[s]:  11510.26
	Linear fluid (dielectric constant: 78.4, screening length: 8.12261 Bohr) occupying 0.473392 of unit cell:	Completed after 0 iterations at t[s]:  11549.68
	FillingsUpdate:  mu: -0.154559861  nElectrons: 922.000000  magneticMoment: [ Abs: 0.00000  Tot: -0.00000 ]
	SubspaceRotationAdjust: set factor to 0.803
ElecMinimize: Iter:  15  F: -9710.487908133412930  |grad|_K:  2.028e-08  alpha:  1.633e-01  linmin: -8.586e-07  t[s]:  11605.59
ElecMinimize: Converged (|Delta F|<1.000000e-07 for 2 iters).
Setting wave functions to eigenvectors of Hamiltonian
Converging empty states (this may take a while): |deigs|: 8.848e-05
Single-point solvation energy estimate, DeltaF = -0.000565546277357

Computing DFT-D3 correction:
# coordination-number Cu 5.564 5.599 5.564 6.572 6.865 6.865 6.865 6.865 9.103 9.103 9.103 9.103 9.045 9.045 9.045 9.045 9.019 9.019 9.019 9.020 7.549 7.550 7.550 7.551 7.549 7.549 7.549 7.549 9.019 9.019 9.019 9.019 9.045 9.045 9.045 9.045 9.103 9.105 9.103 9.105 6.866 7.247 6.866 7.247 5.565 5.565 5.565 5.565
# coordination-number C 2.782
# coordination-number O 1.042
# diagonal-C6 Cu 175.00 175.00 175.00 175.00 175.00 175.00 175.00 175.00 175.00 175.00 175.00 175.00 175.00 175.00 175.00 175.00 175.00 175.00 175.00 175.00 175.00 175.00 175.00 175.00 175.00 175.00 175.00 175.00 175.00 175.00 175.00 175.00 175.00 175.00 175.00 175.00 175.00 175.00 175.00 175.00 175.00 175.00 175.00 175.00 175.00 175.00 175.00 175.00
# diagonal-C6 C 26.08
# diagonal-C6 O 12.78
EvdW_6 =   -0.260527
EvdW_8 =   -0.398542

# Ionic positions in cartesian coordinates:
ion Cu   9.533169000000001   0.029049000000000  15.714320000000001 0
ion Cu   9.533169000000001  11.704867999999999  15.714320000000001 0
ion Cu   4.766546000000001   0.029049000000000  15.714320000000001 0
ion Cu   4.766546000000001  11.704867999999999  15.714320000000001 0
ion Cu   0.000000000000000   3.882763000000000   2.011863000000000 0
ion Cu   0.000000000000000  15.558558000000000   2.011863000000000 0
ion Cu   4.766623000000001   3.882763000000000   2.011863000000000 0
ion Cu   4.766623000000001  15.558558000000000   2.011863000000000 0
ion Cu   0.000048000000000   7.846205000000000   4.822845000000000 0
ion Cu   0.000048000000000  19.521999999999998   4.822845000000000 0
ion Cu   4.766661000000001   7.846205000000000   4.822845000000000 0
ion Cu   4.766661000000001  19.521999999999998   4.822845000000000 0
ion Cu   0.000019000000000   0.010648000000000   7.572401000000000 0
ion Cu   0.000019000000000  11.686444000000000   7.572401000000000 0
ion Cu   4.766642000000000   0.010648000000000   7.572401000000000 0
ion Cu   4.766642000000000  11.686444000000000   7.572401000000000 0
ion Cu   0.000048000000000   3.891052000000000  10.322502999999999 0
ion Cu   0.000048000000000  15.566848000000002  10.322502999999999 0
ion Cu   4.766661000000001   3.891052000000000  10.322502999999999 0
ion Cu   4.766661000000001  15.566848000000002  10.322502999999999 0
ion Cu   9.533188000000003   7.731151000000000  13.180692000000001 0
ion Cu   9.533188000000003  19.406946999999999  13.180692000000001 0
ion Cu   4.766565000000001   7.731151000000000  13.180692000000001 0
ion Cu   4.766565000000001  19.406946999999999  13.180692000000001 0
ion Cu   2.383292000000000   0.052658000000000   3.331310000000000 0
ion Cu   2.383292000000000  11.728453999999999   3.331310000000000 0
ion Cu   7.149905000000001   0.052658000000000   3.331310000000000 0
ion Cu   7.149905000000001  11.728453999999999   3.331310000000000 0
ion Cu   2.383321000000000   3.893061000000000   6.189945000000000 0
ion Cu   2.383321000000000  15.568833000000000   6.189945000000000 0
ion Cu   7.149943000000000   3.893061000000000   6.189945000000000 0
ion Cu   7.149943000000000  15.568833000000000   6.189945000000000 0
ion Cu   2.383359000000000   7.773301000000000   8.939650000000000 0
ion Cu   2.383359000000000  19.449120000000001   8.939650000000000 0
ion Cu   7.149981000000001   7.773301000000000   8.939650000000000 0
ion Cu   7.149981000000001  19.449120000000001   8.939650000000000 0
ion Cu   2.383292000000000  23.288868999999998  11.688513000000000 0
ion Cu   2.383292000000000  11.613097000000000  11.688513000000000 0
ion Cu   7.149905000000001  23.288868999999998  11.688513000000000 0
ion Cu   7.149905000000001  11.613097000000000  11.688513000000000 0
ion Cu   2.383302000000000   3.900837000000000  14.500237000000000 0
ion Cu   2.383302000000000  15.576631999999998  14.500237000000000 0
ion Cu   7.149924000000001   3.900837000000000  14.500237000000000 0
ion Cu   7.149924000000001  15.576631999999998  14.500237000000000 0
ion Cu   2.383321000000000   7.755134000000001   0.798177000000000 0
ion Cu   2.383321000000000  19.430952999999999   0.798177000000000 0
ion Cu   7.149943000000000   7.755134000000001   0.798177000000000 0
ion Cu   7.149943000000000  19.430952999999999   0.798177000000000 0
ion C   4.766594000000001  14.286037000000000  18.189000000000000 1  Linear 0 0 1
ion O   4.826682000000001  14.286037000000000  20.344370000000001 1  Linear 0 0 1

# Forces in Cartesian coordinates:
force Cu  -0.000005683267705  -0.000191402238897  -0.000157450421132 0
force Cu  -0.000021851716012  -0.004416802674880  -0.001474910273710 0
force Cu   0.000001223433362  -0.000357003355767  -0.000182848178739 0
force Cu  -0.000276576318512  -0.007040762518686  -0.006120090072684 0
force Cu   0.000002830522731   0.000572652895599   0.000379060397772 0
force Cu  -0.000007823143305   0.000945282304089   0.000411988847811 0
force Cu  -0.000011701024623   0.000463294964620   0.000612303213323 0
force Cu   0.000004913602471   0.000398574331680   0.000293738338627 0
force Cu  -0.000009881552676  -0.000281552339954  -0.001012828092780 0
force Cu  -0.000005280345104  -0.000009108406652  -0.000506331369334 0
force Cu   0.000000453802117   0.000050353715936   0.000003767358658 0
force Cu  -0.000008716289426  -0.000166983217172  -0.000044102877739 0
force Cu  -0.000006117826981   0.000490310529254  -0.000448164744831 0
force Cu  -0.000012408754178   0.000139804374561  -0.000244047885880 0
force Cu  -0.000007142262120   0.000213696423257   0.000116184762349 0
force Cu   0.000007571147862  -0.000031205660980  -0.001149307515047 0
force Cu   0.000007019080315   0.000617138722617   0.000620868465351 0
force Cu   0.000052878466656  -0.000531086577498   0.002522102927551 0
force Cu   0.000004463891933   0.000775859235567   0.000542784779362 0
force Cu  -0.000042078349075  -0.000585538813607   0.000317132747870 0
force Cu   0.000027420657281   0.000398993323582   0.000051771178741 0
force Cu   0.000007335903882  -0.000357710428478  -0.000354218577785 0
force Cu  -0.000024808211356   0.002396312453654   0.000974149205133 0
force Cu   0.000000975943646   0.001067512277926  -0.001202674527421 0
force Cu   0.000126435692100   0.000032900255515   0.000299421126502 0
force Cu   0.000128402754374  -0.000073025061710  -0.000299291497973 0
force Cu  -0.000118361226304   0.000020542377960   0.000307479104628 0
force Cu  -0.000138606210291  -0.000082199448965  -0.000323847769860 0
force Cu   0.000171181675551  -0.000251202974089  -0.000274876703299 0
force Cu  -0.000052842363292  -0.000002673868422   0.000274412964443 0
force Cu  -0.000177525794853  -0.000250476719604  -0.000266910408404 0
force Cu   0.000042017022369  -0.000017994693701   0.000339533348828 0
force Cu  -0.000433583783556  -0.000148170859913  -0.000001755164946 0
force Cu  -0.000208782736225  -0.000095995769852  -0.000041803762032 0
force Cu   0.000419758099984  -0.000134867561634   0.000015131617975 0
force Cu   0.000207166721929  -0.000104566737940  -0.000038719706039 0
force Cu  -0.000082349626444  -0.000120211897215   0.000493847726484 0
force Cu   0.000213639631707  -0.000811570272699  -0.002225198955102 0
force Cu   0.000087992498028  -0.000121990368340   0.000494938629614 0
force Cu  -0.000208048508067  -0.000755266691557  -0.002056145632696 0
force Cu  -0.000096222349426  -0.000411891158308  -0.000694215654443 0
force Cu  -0.000053791366803   0.002426804781741   0.005212138667506 0
force Cu   0.000094328362060  -0.000417458879128  -0.000694115423637 0
force Cu   0.000186100472934   0.002400193972328   0.004764186741480 0
force Cu  -0.000130036856141   0.000295190642450   0.000018755928704 0
force Cu  -0.000249617343860  -0.000493854046589  -0.000314289267887 0
force Cu   0.000130381836758   0.000302943816190   0.000012605184105 0
force Cu   0.000255801777947  -0.000495868034699  -0.000329553420186 0
force C  -0.000969608209203  -0.007910910172087  -0.063999179765814 1  Linear 0 0 1
force O   0.000952604931667   0.012658919561955   0.064587197344135 1  Linear 0 0 1

# Energy components:
   A_diel =       -0.0014598662120316
   Eewald =    37511.5807021777873160
       EH =    46399.4381081066821935
     Eloc =   -95448.6839167521829950
      Enl =     1761.0326817453246804
     EvdW =       -0.6590694902319493
      Exc =     -936.7021824822219287
 Exc_core =        2.3531886399574100
       KE =     1001.1558174226921665
-------------------------------------
     Etot =    -9710.4861304984024173
       TS =        0.0017776350099006
-------------------------------------
        F =    -9710.4879081334129296


Dumping 'jdft.fillings' ... done
Dumping 'jdft.wfns' ... done
Dumping 'jdft.fluidState' ... done
Dumping 'jdft.ionpos' ... done
Dumping 'jdft.lattice' ... done
Dumping 'jdft.eigenvals' ... done
Dumping 'jdft.eigStats' ... 
	eMin: -4.311613 at state 0 ( [ +0.000000 +0.000000 +0.000000 ] spin 1 )
	HOMO: -0.156859 at state 4 ( [ +0.333333 +0.000000 +0.000000 ] spin 1 )
	mu  : -0.154560
	LUMO: -0.154414 at state 14 ( [ +0.500000 +0.000000 +0.000000 ] spin -1 )
	eMax: +0.182274 at state 12 ( [ +0.333333 +0.000000 +0.000000 ] spin -1 )
	HOMO-LUMO gap: +0.002444
	Optical gap  : +0.002805 at state 14 ( [ +0.500000 +0.000000 +0.000000 ] spin -1 )
Dumping 'jdft.Ecomponents' ... done
IonicMinimize: Iter:   0  F: -9710.487908133412930  |grad|_K:  6.429e-02  t[s]:  12320.53

#--- Lowdin population analysis ---
# oxidation-state Cu +0.189 +0.205 +0.190 +0.009 +0.094 +0.085 +0.092 +0.086 +0.039 +0.040 +0.039 +0.040 +0.072 +0.069 +0.072 +0.074 +0.069 +0.072 +0.067 +0.063 +0.068 +0.069 +0.066 +0.067 +0.066 +0.067 +0.066 +0.067 +0.067 +0.068 +0.067 +0.068 +0.070 +0.072 +0.070 +0.072 +0.039 +0.039 +0.039 +0.039 +0.095 +0.071 +0.095 +0.071 +0.186 +0.181 +0.186 +0.181
# magnetic-moments Cu +0.000 -0.000 -0.000 -0.000 -0.000 +0.000 -0.000 +0.000 -0.000 -0.000 -0.000 -0.000 -0.000 -0.000 +0.000 +0.000 +0.000 +0.000 -0.000 -0.000 -0.000 -0.000 +0.000 +0.000 +0.000 -0.000 -0.000 -0.000 -0.000 -0.000 -0.000 -0.000 +0.000 -0.000 -0.000 -0.000 +0.000 -0.000 -0.000 -0.000 -0.000 -0.000 -0.000 -0.000 -0.000 -0.000 -0.000 +0.000
# oxidation-state C +0.371
# magnetic-moments C +0.000
# oxidation-state O -0.117
# magnetic-moments O -0.000


Computing DFT-D3 correction:
# coordination-number Cu 5.564 5.601 5.564 6.573 6.865 6.865 6.865 6.865 9.103 9.103 9.103 9.103 9.045 9.045 9.045 9.045 9.019 9.019 9.019 9.020 7.549 7.550 7.550 7.551 7.549 7.549 7.549 7.549 9.019 9.019 9.019 9.019 9.045 9.045 9.045 9.045 9.103 9.105 9.103 9.105 6.866 7.289 6.866 7.289 5.565 5.565 5.565 5.565
# coordination-number C 2.874
# coordination-number O 1.037
# diagonal-C6 Cu 175.00 175.00 175.00 175.00 175.00 175.00 175.00 175.00 175.00 175.00 175.00 175.00 175.00 175.00 175.00 175.00 175.00 175.00 175.00 175.00 175.00 175.00 175.00 175.00 175.00 175.00 175.00 175.00 175.00 175.00 175.00 175.00 175.00 175.00 175.00 175.00 175.00 175.00 175.00 175.00 175.00 175.00 175.00 175.00 175.00 175.00 175.00 175.00
# diagonal-C6 C 25.88
# diagonal-C6 O 12.78
EvdW_6 =   -0.260507
EvdW_8 =   -0.398552

-------- Electronic minimization -----------
	Linear fluid (dielectric constant: 78.4, screening length: 8.12261 Bohr) occupying 0.473357 of unit cell:	Completed after 17 iterations at t[s]:  12381.30
	FillingsUpdate:  mu: -0.155338074  nElectrons: 922.000000  magneticMoment: [ Abs: 0.00000  Tot: -0.00000 ]
ElecMinimize: Iter:   0  F: -9710.433202109747072  |grad|_K:  1.513e-05  alpha:  1.000e+00
	Linear fluid (dielectric constant: 78.4, screening length: 8.12261 Bohr) occupying 0.472843 of unit cell:	Completed after 23 iterations at t[s]:  12507.68
	Linear fluid (dielectric constant: 78.4, screening length: 8.12261 Bohr) occupying 0.473096 of unit cell:	Completed after 19 iterations at t[s]:  12551.31
	FillingsUpdate:  mu: -0.151725788  nElectrons: 922.000000  magneticMoment: [ Abs: 0.00000  Tot: +0.00000 ]
	SubspaceRotationAdjust: set factor to 0.738
ElecMinimize: Iter:   1  F: -9710.482064065316081  |grad|_K:  6.841e-06  alpha:  5.098e-01  linmin:  6.229e-05  t[s]:  12607.67
	Linear fluid (dielectric constant: 78.4, screening length: 8.12261 Bohr) occupying 0.472766 of unit cell:	Completed after 20 iterations at t[s]:  12668.58
	Linear fluid (dielectric constant: 78.4, screening length: 8.12261 Bohr) occupying 0.472937 of unit cell:	Completed after 19 iterations at t[s]:  12712.43
	FillingsUpdate:  mu: -0.162280396  nElectrons: 922.000000  magneticMoment: [ Abs: 0.00000  Tot: +0.00000 ]
	SubspaceRotationAdjust: set factor to 0.668
ElecMinimize: Iter:   2  F: -9710.485358814470601  |grad|_K:  4.853e-06  alpha:  1.623e-01  linmin: -2.865e-04  t[s]:  12768.55
	Linear fluid (dielectric constant: 78.4, screening length: 8.12261 Bohr) occupying 0.473158 of unit cell:	Completed after 20 iterations at t[s]:  12829.98
	Linear fluid (dielectric constant: 78.4, screening length: 8.12261 Bohr) occupying 0.473108 of unit cell:	Completed after 12 iterations at t[s]:  12872.31
	FillingsUpdate:  mu: -0.159076138  nElectrons: 922.000000  magneticMoment: [ Abs: 0.00000  Tot: +0.00000 ]
	SubspaceRotationAdjust: set factor to 0.659
ElecMinimize: Iter:   3  F: -9710.486684163272002  |grad|_K:  3.493e-06  alpha:  1.300e-01  linmin:  7.502e-06  t[s]:  12928.61
	Linear fluid (dielectric constant: 78.4, screening length: 8.12261 Bohr) occupying 0.473238 of unit cell:	Completed after 14 iterations at t[s]:  12988.98
	Linear fluid (dielectric constant: 78.4, screening length: 8.12261 Bohr) occupying 0.473285 of unit cell:	Completed after 11 iterations at t[s]:  13030.76
	FillingsUpdate:  mu: -0.155708713  nElectrons: 922.000000  magneticMoment: [ Abs: 0.00000  Tot: +0.00000 ]
	SubspaceRotationAdjust: set factor to 0.626
ElecMinimize: Iter:   4  F: -9710.487585471013517  |grad|_K:  2.135e-06  alpha:  1.761e-01  linmin:  4.156e-06  t[s]:  13086.81
	Linear fluid (dielectric constant: 78.4, screening length: 8.12261 Bohr) occupying 0.473306 of unit cell:	Completed after 12 iterations at t[s]:  13146.32
	Linear fluid (dielectric constant: 78.4, screening length: 8.12261 Bohr) occupying 0.473304 of unit cell:	Completed after 6 iterations at t[s]:  13187.45
	FillingsUpdate:  mu: -0.157688093  nElectrons: 922.000000  magneticMoment: [ Abs: 0.00000  Tot: +0.00000 ]
	SubspaceRotationAdjust: set factor to 0.716
ElecMinimize: Iter:   5  F: -9710.487895702341120  |grad|_K:  1.485e-06  alpha:  1.621e-01  linmin:  4.187e-06  t[s]:  13243.83
[...]
Dumping 'jdft.lattice' ... done
Dumping 'jdft.eigenvals' ... done
Dumping 'jdft.eigStats' ... 
	eMin: -4.314260 at state 0 ( [ +0.000000 +0.000000 +0.000000 ] spin 1 )
	HOMO: -0.158197 at state 12 ( [ +0.333333 +0.000000 +0.000000 ] spin -1 )
	mu  : -0.155960
	LUMO: -0.155791 at state 9 ( [ +0.000000 +0.500000 +0.000000 ] spin -1 )
	eMax: +0.181264 at state 4 ( [ +0.333333 +0.000000 +0.000000 ] spin 1 )
	HOMO-LUMO gap: +0.002407
	Optical gap  : +0.002824 at state 12 ( [ +0.333333 +0.000000 +0.000000 ] spin -1 )
Dumping 'jdft.Ecomponents' ... done
IonicMinimize: Iter:   9  F: -9710.489899835805772  |grad|_K:  3.504e-04  alpha:  1.000e+00  linmin: -1.125e-02  t[s]:  29829.68

#--- Lowdin population analysis ---
# oxidation-state Cu +0.192 +0.210 +0.194 +0.010 +0.095 +0.086 +0.093 +0.088 +0.039 +0.040 +0.039 +0.040 +0.072 +0.069 +0.072 +0.074 +0.069 +0.072 +0.067 +0.063 +0.068 +0.070 +0.066 +0.068 +0.067 +0.067 +0.067 +0.067 +0.067 +0.069 +0.067 +0.069 +0.070 +0.072 +0.070 +0.072 +0.039 +0.039 +0.039 +0.039 +0.097 +0.072 +0.097 +0.072 +0.189 +0.184 +0.189 +0.184
# magnetic-moments Cu -0.000 -0.000 -0.000 -0.000 +0.000 -0.000 -0.000 +0.000 +0.000 +0.000 +0.000 +0.000 +0.000 +0.000 -0.000 +0.000 -0.000 +0.000 +0.000 -0.000 -0.000 +0.000 +0.000 +0.000 -0.000 +0.000 -0.000 +0.000 +0.000 +0.000 +0.000 +0.000 +0.000 -0.000 -0.000 -0.000 +0.000 -0.000 +0.000 -0.000 +0.000 -0.000 +0.000 -0.000 -0.000 -0.000 -0.000 -0.000
# oxidation-state C +0.353
# magnetic-moments C +0.000
# oxidation-state O -0.152
# magnetic-moments O -0.000


Computing DFT-D3 correction:
# coordination-number Cu 5.564 5.601 5.564 6.575 6.865 6.865 6.865 6.865 9.103 9.103 9.103 9.103 9.045 9.045 9.045 9.045 9.019 9.019 9.019 9.020 7.549 7.550 7.550 7.551 7.549 7.549 7.549 7.549 9.019 9.019 9.019 9.019 9.045 9.045 9.045 9.045 9.103 9.105 9.103 9.105 6.866 7.285 6.866 7.285 5.565 5.565 5.565 5.565
# coordination-number C 2.864
# coordination-number O 1.041
# diagonal-C6 Cu 175.00 175.00 175.00 175.00 175.00 175.00 175.00 175.00 175.00 175.00 175.00 175.00 175.00 175.00 175.00 175.00 175.00 175.00 175.00 175.00 175.00 175.00 175.00 175.00 175.00 175.00 175.00 175.00 175.00 175.00 175.00 175.00 175.00 175.00 175.00 175.00 175.00 175.00 175.00 175.00 175.00 175.00 175.00 175.00 175.00 175.00 175.00 175.00
# diagonal-C6 C 25.90
# diagonal-C6 O 12.78
EvdW_6 =   -0.260522
EvdW_8 =   -0.398567

-------- Electronic minimization -----------
	Linear fluid (dielectric constant: 78.4, screening length: 8.12261 Bohr) occupying 0.473612 of unit cell:	Completed after 6 iterations at t[s]:  29896.83
	FillingsUpdate:  mu: -0.156020164  nElectrons: 922.000000  magneticMoment: [ Abs: 0.00000  Tot: -0.00000 ]
ElecMinimize: Iter:   0  F: -9710.489899249161681  |grad|_K:  1.203e-07  alpha:  1.000e+00
	Linear fluid (dielectric constant: 78.4, screening length: 8.12261 Bohr) occupying 0.473611 of unit cell:	Completed after 16 iterations at t[s]:  30022.44
	Linear fluid (dielectric constant: 78.4, screening length: 8.12261 Bohr) occupying 0.473612 of unit cell:	Completed after 16 iterations at t[s]:  30065.39
	FillingsUpdate:  mu: -0.155947342  nElectrons: 922.000000  magneticMoment: [ Abs: 0.00000  Tot: -0.00000 ]
	SubspaceRotationAdjust: set factor to 1.24
ElecMinimize: Iter:   1  F: -9710.489899668775251  |grad|_K:  3.601e-08  alpha:  6.818e-02  linmin: -4.607e-05  t[s]:  30121.58
	Linear fluid (dielectric constant: 78.4, screening length: 8.12261 Bohr) occupying 0.473612 of unit cell:	Completed after 2 iterations at t[s]:  30179.40
	Linear fluid (dielectric constant: 78.4, screening length: 8.12261 Bohr) occupying 0.473612 of unit cell:	Completed after 2 iterations at t[s]:  30219.52
	FillingsUpdate:  mu: -0.155956555  nElectrons: 922.000000  magneticMoment: [ Abs: 0.00000  Tot: -0.00000 ]
	SubspaceRotationAdjust: set factor to 1.42
ElecMinimize: Iter:   2  F: -9710.489899731523110  |grad|_K:  2.249e-08  alpha:  1.234e-01  linmin:  5.941e-04  t[s]:  30275.83
	Linear fluid (dielectric constant: 78.4, screening length: 8.12261 Bohr) occupying 0.473611 of unit cell:	Completed after 1 iterations at t[s]:  30333.48
	Linear fluid (dielectric constant: 78.4, screening length: 8.12261 Bohr) occupying 0.473611 of unit cell:	Completed after 1 iterations at t[s]:  30373.43
	FillingsUpdate:  mu: -0.155951503  nElectrons: 922.000000  magneticMoment: [ Abs: 0.00000  Tot: -0.00000 ]
	SubspaceRotationAdjust: set factor to 1.41
ElecMinimize: Iter:   3  F: -9710.489899770251213  |grad|_K:  1.933e-08  alpha:  1.935e-01  linmin: -3.392e-04  t[s]:  30429.45
ElecMinimize: Converged (|Delta F|<1.000000e-07 for 2 iters).
Setting wave functions to eigenvectors of Hamiltonian
Converging empty states (this may take a while): |deigs|: 3.541e-10

Computing DFT-D3 correction:
# coordination-number Cu 5.564 5.601 5.564 6.575 6.865 6.865 6.865 6.865 9.103 9.103 9.103 9.103 9.045 9.045 9.045 9.045 9.019 9.019 9.019 9.020 7.549 7.550 7.550 7.551 7.549 7.549 7.549 7.549 9.019 9.019 9.019 9.019 9.045 9.045 9.045 9.045 9.103 9.105 9.103 9.105 6.866 7.285 6.866 7.285 5.565 5.565 5.565 5.565
# coordination-number C 2.864
# coordination-number O 1.041
# diagonal-C6 Cu 175.00 175.00 175.00 175.00 175.00 175.00 175.00 175.00 175.00 175.00 175.00 175.00 175.00 175.00 175.00 175.00 175.00 175.00 175.00 175.00 175.00 175.00 175.00 175.00 175.00 175.00 175.00 175.00 175.00 175.00 175.00 175.00 175.00 175.00 175.00 175.00 175.00 175.00 175.00 175.00 175.00 175.00 175.00 175.00 175.00 175.00 175.00 175.00
# diagonal-C6 C 25.90
# diagonal-C6 O 12.78
EvdW_6 =   -0.260522
EvdW_8 =   -0.398567
IonicMinimize: 	Wolfe criterion not satisfied: alpha: 1  (E-E0)/|gdotd0|: 0.371917  gdotd/gdotd0: -1.24138 (taking cubic step)

Computing DFT-D3 correction:
# coordination-number Cu 5.564 5.601 5.564 6.575 6.865 6.865 6.865 6.865 9.103 9.103 9.103 9.103 9.045 9.045 9.045 9.045 9.019 9.019 9.019 9.020 7.549 7.550 7.550 7.551 7.549 7.549 7.549 7.549 9.019 9.019 9.019 9.019 9.045 9.045 9.045 9.045 9.103 9.105 9.103 9.105 6.866 7.285 6.866 7.285 5.565 5.565 5.565 5.565
# coordination-number C 2.864
# coordination-number O 1.041
# diagonal-C6 Cu 175.00 175.00 175.00 175.00 175.00 175.00 175.00 175.00 175.00 175.00 175.00 175.00 175.00 175.00 175.00 175.00 175.00 175.00 175.00 175.00 175.00 175.00 175.00 175.00 175.00 175.00 175.00 175.00 175.00 175.00 175.00 175.00 175.00 175.00 175.00 175.00 175.00 175.00 175.00 175.00 175.00 175.00 175.00 175.00 175.00 175.00 175.00 175.00
# diagonal-C6 C 25.90
# diagonal-C6 O 12.78
EvdW_6 =   -0.260522
EvdW_8 =   -0.398567

-------- Electronic minimization -----------
	Linear fluid (dielectric constant: 78.4, screening length: 8.12261 Bohr) occupying 0.473609 of unit cell:	Completed after 6 iterations at t[s]:  30661.17
	FillingsUpdate:  mu: -0.156043214  nElectrons: 922.000000  magneticMoment: [ Abs: 0.00000  Tot: -0.00000 ]
ElecMinimize: Iter:   0  F: -9710.489899357504328  |grad|_K:  1.541e-07  alpha:  1.000e+00
	Linear fluid (dielectric constant: 78.4, screening length: 8.12261 Bohr) occupying 0.473641 of unit cell:	Completed after 15 iterations at t[s]:  30785.53
	Linear fluid (dielectric constant: 78.4, screening length: 8.12261 Bohr) occupying 0.473611 of unit cell:	Completed after 16 iterations at t[s]:  30828.72
	FillingsUpdate:  mu: -0.155949733  nElectrons: 922.000000  magneticMoment: [ Abs: 0.00000  Tot: -0.00000 ]
	SubspaceRotationAdjust: set factor to 1.15
ElecMinimize: Iter:   1  F: -9710.489899790423806  |grad|_K:  3.462e-08  alpha:  4.378e-02  linmin:  7.452e-05  t[s]:  30885.19
	Linear fluid (dielectric constant: 78.4, screening length: 8.12261 Bohr) occupying 0.473610 of unit cell:	Completed after 1 iterations at t[s]:  30943.24
	Linear fluid (dielectric constant: 78.4, screening length: 8.12261 Bohr) occupying 0.473610 of unit cell:	Completed after 2 iterations at t[s]:  30983.22
	FillingsUpdate:  mu: -0.155957721  nElectrons: 922.000000  magneticMoment: [ Abs: 0.00000  Tot: -0.00000 ]
	SubspaceRotationAdjust: set factor to 0.853
ElecMinimize: Iter:   2  F: -9710.489899829439310  |grad|_K:  1.784e-08  alpha:  8.118e-02  linmin: -1.406e-04  t[s]:  31039.40
	Linear fluid (dielectric constant: 78.4, screening length: 8.12261 Bohr) occupying 0.473610 of unit cell:	Completed after 2 iterations at t[s]:  31097.29
	Linear fluid (dielectric constant: 78.4, screening length: 8.12261 Bohr) occupying 0.473610 of unit cell:	Completed after 0 iterations at t[s]:  31136.86
	FillingsUpdate:  mu: -0.155960222  nElectrons: 922.000000  magneticMoment: [ Abs: 0.00000  Tot: -0.00000 ]
	SubspaceRotationAdjust: set factor to 1.21
ElecMinimize: Iter:   3  F: -9710.489899843681997  |grad|_K:  1.166e-08  alpha:  1.048e-01  linmin: -1.322e-03  t[s]:  31193.12
ElecMinimize: Converged (|Delta F|<1.000000e-07 for 2 iters).
Setting wave functions to eigenvectors of Hamiltonian
Converging empty states (this may take a while): |deigs|: 1.923e-10

Computing DFT-D3 correction:
# coordination-number Cu 5.564 5.601 5.564 6.575 6.865 6.865 6.865 6.865 9.103 9.103 9.103 9.103 9.045 9.045 9.045 9.045 9.019 9.019 9.019 9.020 7.549 7.550 7.550 7.551 7.549 7.549 7.549 7.549 9.019 9.019 9.019 9.019 9.045 9.045 9.045 9.045 9.103 9.105 9.103 9.105 6.866 7.285 6.866 7.285 5.565 5.565 5.565 5.565
# coordination-number C 2.864
# coordination-number O 1.041
# diagonal-C6 Cu 175.00 175.00 175.00 175.00 175.00 175.00 175.00 175.00 175.00 175.00 175.00 175.00 175.00 175.00 175.00 175.00 175.00 175.00 175.00 175.00 175.00 175.00 175.00 175.00 175.00 175.00 175.00 175.00 175.00 175.00 175.00 175.00 175.00 175.00 175.00 175.00 175.00 175.00 175.00 175.00 175.00 175.00 175.00 175.00 175.00 175.00 175.00 175.00
# diagonal-C6 C 25.90
# diagonal-C6 O 12.78
EvdW_6 =   -0.260522
EvdW_8 =   -0.398567

# Ionic positions in cartesian coordinates:
ion Cu   9.533169000000001   0.029049000000000  15.714320000000001 0
ion Cu   9.533169000000001  11.704867999999999  15.714320000000001 0
ion Cu   4.766546000000001   0.029049000000000  15.714320000000001 0
ion Cu   4.766546000000001  11.704867999999999  15.714320000000001 0
ion Cu   0.000000000000000   3.882763000000000   2.011863000000000 0
ion Cu   0.000000000000000  15.558558000000000   2.011863000000000 0
ion Cu   4.766623000000001   3.882763000000000   2.011863000000000 0
ion Cu   4.766623000000001  15.558558000000000   2.011863000000000 0
ion Cu   0.000048000000000   7.846205000000000   4.822845000000000 0
ion Cu   0.000048000000000  19.521999999999998   4.822845000000000 0
ion Cu   4.766661000000001   7.846205000000000   4.822845000000000 0
ion Cu   4.766661000000001  19.521999999999998   4.822845000000000 0
ion Cu   0.000019000000000   0.010648000000000   7.572401000000000 0
ion Cu   0.000019000000000  11.686444000000000   7.572401000000000 0
ion Cu   4.766642000000000   0.010648000000000   7.572401000000000 0
ion Cu   4.766642000000000  11.686444000000000   7.572401000000000 0
ion Cu   0.000048000000000   3.891052000000000  10.322502999999999 0
ion Cu   0.000048000000000  15.566848000000002  10.322502999999999 0
ion Cu   4.766661000000001   3.891052000000000  10.322502999999999 0
ion Cu   4.766661000000001  15.566848000000002  10.322502999999999 0
ion Cu   9.533188000000003   7.731151000000000  13.180692000000001 0
ion Cu   9.533188000000003  19.406946999999999  13.180692000000001 0
ion Cu   4.766565000000001   7.731151000000000  13.180692000000001 0
ion Cu   4.766565000000001  19.406946999999999  13.180692000000001 0
ion Cu   2.383292000000000   0.052658000000000   3.331310000000000 0
ion Cu   2.383292000000000  11.728453999999999   3.331310000000000 0
ion Cu   7.149905000000001   0.052658000000000   3.331310000000000 0
ion Cu   7.149905000000001  11.728453999999999   3.331310000000000 0
ion Cu   2.383321000000000   3.893061000000000   6.189945000000000 0
ion Cu   2.383321000000000  15.568833000000000   6.189945000000000 0
ion Cu   7.149943000000000   3.893061000000000   6.189945000000000 0
ion Cu   7.149943000000000  15.568833000000000   6.189945000000000 0
ion Cu   2.383359000000000   7.773301000000000   8.939650000000000 0
ion Cu   2.383359000000000  19.449120000000001   8.939650000000000 0
ion Cu   7.149981000000001   7.773301000000000   8.939650000000000 0
ion Cu   7.149981000000001  19.449120000000001   8.939650000000000 0
ion Cu   2.383292000000000  23.288868999999998  11.688513000000000 0
ion Cu   2.383292000000000  11.613097000000000  11.688513000000000 0
ion Cu   7.149905000000001  23.288868999999998  11.688513000000000 0
ion Cu   7.149905000000001  11.613097000000000  11.688513000000000 0
ion Cu   2.383302000000000   3.900837000000000  14.500237000000000 0
ion Cu   2.383302000000000  15.576631999999998  14.500237000000000 0
ion Cu   7.149924000000001   3.900837000000000  14.500237000000000 0
ion Cu   7.149924000000001  15.576631999999998  14.500237000000000 0
ion Cu   2.383321000000000   7.755134000000001   0.798177000000000 0
ion Cu   2.383321000000000  19.430952999999999   0.798177000000000 0
ion Cu   7.149943000000000   7.755134000000001   0.798177000000000 0
ion Cu   7.149943000000000  19.430952999999999   0.798177000000000 0
ion C   4.766594000000001  14.286037000000000  18.131414981190197 1  Linear 0 0 1
ion O   4.826682000000001  14.286037000000000  20.351900681284736 1  Linear 0 0 1

# Forces in Cartesian coordinates:
force Cu  -0.000005881309285  -0.000186018901190  -0.000175156934329 0
force Cu  -0.000020133498399  -0.004311176136157  -0.001220721396862 0
force Cu   0.000001319872829  -0.000346756725339  -0.000189045562644 0
force Cu  -0.000276843909376  -0.009641246710818  -0.007776323850610 0
force Cu   0.000002281862781   0.000579646368411   0.000402443461954 0
force Cu  -0.000008338978381   0.000949122601343   0.000416678706440 0
force Cu  -0.000012014195474   0.000470934262431   0.000611924705391 0
force Cu   0.000005790870674   0.000403591030135   0.000327280022625 0
force Cu  -0.000009703935334  -0.000231251411017  -0.001008250872641 0
force Cu  -0.000005955655030  -0.000043028813785  -0.000486202877936 0
force Cu  -0.000000295078646   0.000094458956123  -0.000006530850016 0
force Cu  -0.000009947477015  -0.000199878550079  -0.000027576702045 0
force Cu  -0.000008586473853   0.000426153499986  -0.000443320391457 0
force Cu  -0.000012970218399   0.000113735388448  -0.000287493409920 0
force Cu  -0.000008416459406   0.000117214488798   0.000133286739867 0
force Cu   0.000008245443881  -0.000028945099706  -0.001107287125764 0
force Cu   0.000007360626696   0.000602350014116   0.000635352347609 0
force Cu   0.000053382685315  -0.000521824784483   0.002615912775755 0
force Cu   0.000005450231635   0.000755777525628   0.000553594129494 0
force Cu  -0.000042577859062  -0.000546806958489   0.000103343875484 0
force Cu   0.000028431794329   0.000425801107503  -0.000004906703536 0
force Cu   0.000008243368465  -0.000324858766686  -0.000474814402858 0
force Cu  -0.000024172024408   0.002373038895138   0.000871761464527 0
force Cu   0.000000555997774   0.001164072033961  -0.001310848448581 0
force Cu   0.000132911000417  -0.000012861296334   0.000326700679310 0
force Cu   0.000152572003572  -0.000082991167641  -0.000256857668241 0
force Cu  -0.000121468329221  -0.000024578814824   0.000335254846640 0
force Cu  -0.000163140883830  -0.000092450437213  -0.000282322824297 0
force Cu   0.000168479896411  -0.000235746976148  -0.000253073477688 0
force Cu  -0.000069883145822   0.000014080337565   0.000276417150085 0
force Cu  -0.000173225853978  -0.000235462101808  -0.000244709934612 0
force Cu   0.000058171643153  -0.000002121712292   0.000342710412916 0
force Cu  -0.000422604434379  -0.000095748969524  -0.000012111083095 0
force Cu  -0.000195556357881  -0.000096344223711  -0.000037722009372 0
force Cu   0.000406341184734  -0.000082947708680   0.000004446822812 0
force Cu   0.000193341730283  -0.000104960182409  -0.000034372183294 0
force Cu  -0.000098265541360  -0.000155306302501   0.000542027391816 0
force Cu   0.000112014496125  -0.000867488420547  -0.002425672075979 0
force Cu   0.000104866448338  -0.000156394808582   0.000543235331119 0
force Cu  -0.000104243815403  -0.000809165922047  -0.002250342898315 0
force Cu  -0.000103571384591  -0.000451489871637  -0.000694601568500 0
force Cu   0.000517301103442   0.002341627076949   0.006319635288217 0
force Cu   0.000101390545764  -0.000457524757462  -0.000694318729575 0
force Cu  -0.000380973353908   0.002308795199027   0.005879495950423 0
force Cu  -0.000124219450125   0.000340820311525   0.000015877959817 0
force Cu  -0.000252510263943  -0.000492627566950  -0.000321292509217 0
force Cu   0.000124736050302   0.000348812386353   0.000009954567841 0
force Cu   0.000260197470846  -0.000496071681249  -0.000337103745210 0
force C   0.000792710615893  -0.004711030312596   0.000136585074739 1  Linear 0 0 1
force O  -0.000822929523578   0.012228161749373  -0.000192803812807 1  Linear 0 0 1

# Energy components:
   A_diel =       -0.0021830584468715
   Eewald =    37514.2397427208270528
       EH =    46400.5506000499881338
     Eloc =   -95452.3898073783784639
      Enl =     1761.0104063079227217
     EvdW =       -0.6590888359357940
      Exc =     -936.6814757955048663
 Exc_core =        2.3531895797127826
       KE =     1001.0904788646876113
-------------------------------------
     Etot =    -9710.4881375451313943
       TS =        0.0017622985497134
-------------------------------------
        F =    -9710.4898998436819966


Dumping 'jdft.fillings' ... done
Dumping 'jdft.wfns' ... done
Dumping 'jdft.fluidState' ... done
Dumping 'jdft.ionpos' ... done
Dumping 'jdft.lattice' ... done
Dumping 'jdft.eigenvals' ... done
Dumping 'jdft.eigStats' ... 
	eMin: -4.314250 at state 8 ( [ +0.000000 +0.000000 +0.000000 ] spin -1 )
	HOMO: -0.158199 at state 4 ( [ +0.333333 +0.000000 +0.000000 ] spin 1 )
	mu  : -0.155960
	LUMO: -0.155787 at state 9 ( [ +0.000000 +0.500000 +0.000000 ] spin -1 )
	eMax: +0.181262 at state 4 ( [ +0.333333 +0.000000 +0.000000 ] spin 1 )
	HOMO-LUMO gap: +0.002412
	Optical gap  : +0.002824 at state 4 ( [ +0.333333 +0.000000 +0.000000 ] spin 1 )
Dumping 'jdft.Ecomponents' ... done
IonicMinimize: Iter:  10  F: -9710.489899843681997  |grad|_K:  1.671e-04  alpha:  3.039e-01  linmin: -9.325e-03  t[s]:  31358.94
IonicMinimize: Converged (|Delta F|<1.000000e-06 for 2 iters).

#--- Lowdin population analysis ---
# oxidation-state Cu +0.192 +0.210 +0.194 +0.010 +0.095 +0.086 +0.093 +0.087 +0.039 +0.039 +0.039 +0.040 +0.072 +0.069 +0.072 +0.074 +0.069 +0.072 +0.067 +0.063 +0.068 +0.070 +0.066 +0.068 +0.067 +0.067 +0.067 +0.067 +0.067 +0.068 +0.067 +0.068 +0.070 +0.072 +0.070 +0.072 +0.039 +0.039 +0.039 +0.039 +0.097 +0.072 +0.097 +0.072 +0.189 +0.184 +0.189 +0.184
# magnetic-moments Cu -0.000 -0.000 +0.000 +0.000 +0.000 +0.000 -0.000 +0.000 -0.000 -0.000 -0.000 -0.000 +0.000 +0.000 -0.000 +0.000 +0.000 +0.000 +0.000 -0.000 +0.000 -0.000 -0.000 -0.000 +0.000 -0.000 +0.000 -0.000 -0.000 -0.000 -0.000 -0.000 +0.000 +0.000 -0.000 +0.000 +0.000 -0.000 +0.000 -0.000 -0.000 -0.000 -0.000 -0.000 +0.000 -0.000 +0.000 -0.000
# oxidation-state C +0.353
# magnetic-moments C -0.000
# oxidation-state O -0.152
# magnetic-moments O +0.000


Dumping 'jdft.n_up' ... done
Dumping 'jdft.n_dn' ... done
Dumping 'jdft.tau_up' ... done
Dumping 'jdft.tau_dn' ... done
Dumping 'jdft.eigenvals' ... done
Dumping 'jdft.eigStats' ... 
	eMin: -4.314250 at state 8 ( [ +0.000000 +0.000000 +0.000000 ] spin -1 )
	HOMO: -0.158199 at state 4 ( [ +0.333333 +0.000000 +0.000000 ] spin 1 )
	mu  : -0.155960
	LUMO: -0.155787 at state 9 ( [ +0.000000 +0.500000 +0.000000 ] spin -1 )
	eMax: +0.181262 at state 4 ( [ +0.333333 +0.000000 +0.000000 ] spin 1 )
	HOMO-LUMO gap: +0.002412
	Optical gap  : +0.002824 at state 4 ( [ +0.333333 +0.000000 +0.000000 ] spin 1 )
Dumping 'jdft.kPts' ... done
Dumping 'jdft.kMap' ... done
Dumping 'jdft.dosUp' ... done.
Dumping 'jdft.dosDn' ... done.
End date and time: Wed Feb 16 22:57:11 2022  (Duration: 0-8:44:07.11)
Done!
