
*************** JDFTx 1.6.0  ***************

Start date and time: Mon Dec  6 17:01:25 2021
Executable /projects/musgravc/apps/jdftx-1.6.1/build/jdftx with command-line: -i in
Running on hosts (process indices):  shas0549.rc.int.colorado.edu (0-23)
Divided in process groups (process indices):  0 (0)  1 (1)  2 (2)  3 (3)  4 (4)  5 (5)  6 (6)  7 (7)  8 (8)  9 (9)  10 (10)  11 (11)  12 (12)  13 (13)  14 (14)  15 (15)  16 (16)  17 (17)  18 (18)  19 (19)  20 (20)  21 (21)  22 (22)  23 (23)
Resource initialization completed at t[s]:      0.00
Run totals: 24 processes, 24 threads, 0 GPUs


Input parsed successfully to the following command list (including defaults):

basis kpoint-dependent
converge-empty-states yes
coords-type Cartesian
core-overlap-check none
coulomb-interaction Periodic
davidson-band-ratio 1.1
density-of-states Etol 1.000000e-06 Esigma 1.000000e-03 \
		Complete \
	Total \
	OrthoOrbital Ag 1   s \
	OrthoOrbital Ag 1   p \
	OrthoOrbital Ag 1   px \
	OrthoOrbital Ag 1   py \
	OrthoOrbital Ag 1   pz \
	OrthoOrbital Ag 1   d \
	OrthoOrbital Ag 1   dxy \
	OrthoOrbital Ag 1   dyz \
	OrthoOrbital Ag 1   dz2 \
	OrthoOrbital Ag 1   dxz \
	OrthoOrbital Ag 1   dx2-y2 \
	OrthoOrbital Ag 2   s \
	OrthoOrbital Ag 2   p \
	OrthoOrbital Ag 2   px \
	OrthoOrbital Ag 2   py \
	OrthoOrbital Ag 2   pz \
	OrthoOrbital Ag 2   d \
	OrthoOrbital Ag 2   dxy \
	OrthoOrbital Ag 2   dyz \
	OrthoOrbital Ag 2   dz2 \
	OrthoOrbital Ag 2   dxz \
	OrthoOrbital Ag 2   dx2-y2 \
	OrthoOrbital Ag 3   s \
	OrthoOrbital Ag 3   p \
	OrthoOrbital Ag 3   px \
	OrthoOrbital Ag 3   py \
	OrthoOrbital Ag 3   pz \
	OrthoOrbital Ag 3   d \
	OrthoOrbital Ag 3   dxy \
	OrthoOrbital Ag 3   dyz \
	OrthoOrbital Ag 3   dz2 \
	OrthoOrbital Ag 3   dxz \
	OrthoOrbital Ag 3   dx2-y2 \
	OrthoOrbital Ag 4   s \
	OrthoOrbital Ag 4   p \
	OrthoOrbital Ag 4   px \
	OrthoOrbital Ag 4   py \
	OrthoOrbital Ag 4   pz \
	OrthoOrbital Ag 4   d \
	OrthoOrbital Ag 4   dxy \
	OrthoOrbital Ag 4   dyz \
	OrthoOrbital Ag 4   dz2 \
	OrthoOrbital Ag 4   dxz \
	OrthoOrbital Ag 4   dx2-y2 \
	OrthoOrbital Ag 5   s \
	OrthoOrbital Ag 5   p \
	OrthoOrbital Ag 5   px \
	OrthoOrbital Ag 5   py \
	OrthoOrbital Ag 5   pz \
	OrthoOrbital Ag 5   d \
	OrthoOrbital Ag 5   dxy \
	OrthoOrbital Ag 5   dyz \
	OrthoOrbital Ag 5   dz2 \
	OrthoOrbital Ag 5   dxz \
	OrthoOrbital Ag 5   dx2-y2 \
	OrthoOrbital Ag 6   s \
	OrthoOrbital Ag 6   p \
	OrthoOrbital Ag 6   px \
	OrthoOrbital Ag 6   py \
	OrthoOrbital Ag 6   pz \
	OrthoOrbital Ag 6   d \
	OrthoOrbital Ag 6   dxy \
	OrthoOrbital Ag 6   dyz \
	OrthoOrbital Ag 6   dz2 \
	OrthoOrbital Ag 6   dxz \
	OrthoOrbital Ag 6   dx2-y2 \
	OrthoOrbital Ag 7   s \
	OrthoOrbital Ag 7   p \
	OrthoOrbital Ag 7   px \
	OrthoOrbital Ag 7   py \
	OrthoOrbital Ag 7   pz \
	OrthoOrbital Ag 7   d \
	OrthoOrbital Ag 7   dxy \
	OrthoOrbital Ag 7   dyz \
	OrthoOrbital Ag 7   dz2 \
	OrthoOrbital Ag 7   dxz \
	OrthoOrbital Ag 7   dx2-y2 \
	OrthoOrbital Ag 8   s \
	OrthoOrbital Ag 8   p \
	OrthoOrbital Ag 8   px \
	OrthoOrbital Ag 8   py \
	OrthoOrbital Ag 8   pz \
	OrthoOrbital Ag 8   d \
	OrthoOrbital Ag 8   dxy \
	OrthoOrbital Ag 8   dyz \
	OrthoOrbital Ag 8   dz2 \
	OrthoOrbital Ag 8   dxz \
	OrthoOrbital Ag 8   dx2-y2 \
	OrthoOrbital Ag 9   s \
	OrthoOrbital Ag 9   p \
	OrthoOrbital Ag 9   px \
	OrthoOrbital Ag 9   py \
	OrthoOrbital Ag 9   pz \
	OrthoOrbital Ag 9   d \
	OrthoOrbital Ag 9   dxy \
	OrthoOrbital Ag 9   dyz \
	OrthoOrbital Ag 9   dz2 \
	OrthoOrbital Ag 9   dxz \
	OrthoOrbital Ag 9   dx2-y2 \
	OrthoOrbital Ag 10   s \
	OrthoOrbital Ag 10   p \
	OrthoOrbital Ag 10   px \
	OrthoOrbital Ag 10   py \
	OrthoOrbital Ag 10   pz \
	OrthoOrbital Ag 10   d \
	OrthoOrbital Ag 10   dxy \
	OrthoOrbital Ag 10   dyz \
	OrthoOrbital Ag 10   dz2 \
	OrthoOrbital Ag 10   dxz \
	OrthoOrbital Ag 10   dx2-y2 \
	OrthoOrbital Ag 11   s \
	OrthoOrbital Ag 11   p \
	OrthoOrbital Ag 11   px \
	OrthoOrbital Ag 11   py \
	OrthoOrbital Ag 11   pz \
	OrthoOrbital Ag 11   d \
	OrthoOrbital Ag 11   dxy \
	OrthoOrbital Ag 11   dyz \
	OrthoOrbital Ag 11   dz2 \
	OrthoOrbital Ag 11   dxz \
	OrthoOrbital Ag 11   dx2-y2 \
	OrthoOrbital Ag 12   s \
	OrthoOrbital Ag 12   p \
	OrthoOrbital Ag 12   px \
	OrthoOrbital Ag 12   py \
	OrthoOrbital Ag 12   pz \
	OrthoOrbital Ag 12   d \
	OrthoOrbital Ag 12   dxy \
	OrthoOrbital Ag 12   dyz \
	OrthoOrbital Ag 12   dz2 \
	OrthoOrbital Ag 12   dxz \
	OrthoOrbital Ag 12   dx2-y2 \
	OrthoOrbital Ag 13   s \
	OrthoOrbital Ag 13   p \
	OrthoOrbital Ag 13   px \
	OrthoOrbital Ag 13   py \
	OrthoOrbital Ag 13   pz \
	OrthoOrbital Ag 13   d \
	OrthoOrbital Ag 13   dxy \
	OrthoOrbital Ag 13   dyz \
	OrthoOrbital Ag 13   dz2 \
	OrthoOrbital Ag 13   dxz \
	OrthoOrbital Ag 13   dx2-y2 \
	OrthoOrbital Ag 14   s \
	OrthoOrbital Ag 14   p \
	OrthoOrbital Ag 14   px \
	OrthoOrbital Ag 14   py \
	OrthoOrbital Ag 14   pz \
	OrthoOrbital Ag 14   d \
	OrthoOrbital Ag 14   dxy \
	OrthoOrbital Ag 14   dyz \
	OrthoOrbital Ag 14   dz2 \
	OrthoOrbital Ag 14   dxz \
	OrthoOrbital Ag 14   dx2-y2 \
	OrthoOrbital Ag 15   s \
	OrthoOrbital Ag 15   p \
	OrthoOrbital Ag 15   px \
	OrthoOrbital Ag 15   py \
	OrthoOrbital Ag 15   pz \
	OrthoOrbital Ag 15   d \
	OrthoOrbital Ag 15   dxy \
	OrthoOrbital Ag 15   dyz \
	OrthoOrbital Ag 15   dz2 \
	OrthoOrbital Ag 15   dxz \
	OrthoOrbital Ag 15   dx2-y2 \
	OrthoOrbital Ag 16   s \
	OrthoOrbital Ag 16   p \
	OrthoOrbital Ag 16   px \
	OrthoOrbital Ag 16   py \
	OrthoOrbital Ag 16   pz \
	OrthoOrbital Ag 16   d \
	OrthoOrbital Ag 16   dxy \
	OrthoOrbital Ag 16   dyz \
	OrthoOrbital Ag 16   dz2 \
	OrthoOrbital Ag 16   dxz \
	OrthoOrbital Ag 16   dx2-y2 \
	OrthoOrbital Ag 17   s \
	OrthoOrbital Ag 17   p \
	OrthoOrbital Ag 17   px \
	OrthoOrbital Ag 17   py \
	OrthoOrbital Ag 17   pz \
	OrthoOrbital Ag 17   d \
	OrthoOrbital Ag 17   dxy \
	OrthoOrbital Ag 17   dyz \
	OrthoOrbital Ag 17   dz2 \
	OrthoOrbital Ag 17   dxz \
	OrthoOrbital Ag 17   dx2-y2 \
	OrthoOrbital Ag 18   s \
	OrthoOrbital Ag 18   p \
	OrthoOrbital Ag 18   px \
	OrthoOrbital Ag 18   py \
	OrthoOrbital Ag 18   pz \
	OrthoOrbital Ag 18   d \
	OrthoOrbital Ag 18   dxy \
	OrthoOrbital Ag 18   dyz \
	OrthoOrbital Ag 18   dz2 \
	OrthoOrbital Ag 18   dxz \
	OrthoOrbital Ag 18   dx2-y2 \
	OrthoOrbital Ag 19   s \
	OrthoOrbital Ag 19   p \
	OrthoOrbital Ag 19   px \
	OrthoOrbital Ag 19   py \
	OrthoOrbital Ag 19   pz \
	OrthoOrbital Ag 19   d \
	OrthoOrbital Ag 19   dxy \
	OrthoOrbital Ag 19   dyz \
	OrthoOrbital Ag 19   dz2 \
	OrthoOrbital Ag 19   dxz \
	OrthoOrbital Ag 19   dx2-y2
dump End ElecDensity KEdensity BandEigs EigStats RhoAtom DOS Kpoints
dump Ionic State IonicPositions Lattice EigStats Ecomponents
dump 
dump 
dump 
dump 
dump 
dump 
dump 
dump 
dump-name jdft.$VAR
elec-cutoff 20
elec-eigen-algo Davidson
elec-ex-corr gga-PBE
elec-initial-magnetization 0.000000 no
elec-n-bands 217
elec-smearing Fermi 0.001
electronic-minimize  \
	dirUpdateScheme      FletcherReeves \
	linminMethod         DirUpdateRecommended \
	nIterations          100 \
	history              15 \
	knormThreshold       0 \
	energyDiffThreshold  1e-07 \
	nEnergyDiff          2 \
	alphaTstart          1 \
	alphaTmin            1e-10 \
	updateTestStepSize   yes \
	alphaTreduceFactor   0.1 \
	alphaTincreaseFactor 3 \
	nAlphaAdjustMax      3 \
	wolfeEnergy          0.0001 \
	wolfeGradient        0.9 \
	fdTest               no
exchange-regularization WignerSeitzTruncated
fluid None
fluid-ex-corr lda-TF lda-PZ
fluid-gummel-loop 10 1.000000e-05
fluid-minimize  \
	dirUpdateScheme      PolakRibiere \
	linminMethod         DirUpdateRecommended \
	nIterations          100 \
	history              15 \
	knormThreshold       0 \
	energyDiffThreshold  0 \
	nEnergyDiff          2 \
	alphaTstart          1 \
	alphaTmin            1e-10 \
	updateTestStepSize   yes \
	alphaTreduceFactor   0.1 \
	alphaTincreaseFactor 3 \
	nAlphaAdjustMax      3 \
	wolfeEnergy          0.0001 \
	wolfeGradient        0.9 \
	fdTest               no
fluid-solvent H2O 55.338 ScalarEOS \
	epsBulk 78.4 \
	pMol 0.92466 \
	epsInf 1.77 \
	Pvap 1.06736e-10 \
	sigmaBulk 4.62e-05 \
	Rvdw 2.61727 \
	Res 1.42 \
	tauNuc 343133 \
	poleEl 15 7 1
forces-output-coords Positions
ion Ag -22.996998000000005 -22.996994000000004   0.000003999999999 1
ion Ag -19.164176000000005 -22.997010000000003  -3.832834000000001 1
ion Ag -19.164169000000005 -22.996998000000005   3.832839000000000 1
ion Ag  -0.000002000000000  -3.832835000000000  11.498502999999999 1
ion Ag -19.164179000000001 -19.164179000000001  -0.000000000000000 1
ion Ag -15.331337000000000 -19.164168000000000  -3.832830000000000 1
ion Ag -15.331350000000002 -19.164183000000001   3.832835000000000 1
ion Ag -15.331341000000000 -15.331337000000003   0.000003999999999 1
ion Ag -11.498495000000002 -15.331330000000005  -3.832826000000001 1
ion Ag -11.498512000000002 -15.331341000000004   3.832839000000000 1
ion Ag -11.498495000000002 -11.498499000000002  -0.000004000000000 1
ion Ag -11.498512000000000 -11.498511000000002   7.665662000000002 1
ion Ag  -7.665666000000001 -11.498503000000001   3.832831000000001 1
ion Ag  -7.665657000000000  -7.665657000000001  -0.000000000000000 1
ion Ag  -7.665670000000001  -7.665673000000002   7.665665000000002 1
ion Ag  -3.832828000000001  -7.665661000000001   3.832835000000001 1
ion Ag  -3.832838000000000  -3.832842000000000  -0.000004000000000 1
ion Ag  -3.832831000000001  -3.832831000000001   7.665669000000001 1
ion Ag  -0.000008999999999  -3.832846000000000   3.832831000000000 1
ion-species /projects/musgravc/apps/jdftx-1.6.0/build/pseudopotentials/GBRV_v1.5/$ID_pbe_v1.uspp
ion-species /projects/musgravc/apps/jdftx-1.6.0/build/pseudopotentials/GBRV_v1.5/$ID_pbe_v1.2.uspp
ion-species /projects/musgravc/apps/jdftx-1.6.0/build/pseudopotentials/GBRV_v1.5/$ID_pbe_v1.4.uspp
ion-species /projects/musgravc/apps/jdftx-1.6.0/build/pseudopotentials/GBRV_v1.5/$ID_pbe_v1.5.uspp
ion-width 0
ionic-minimize  \
	dirUpdateScheme      L-BFGS \
	linminMethod         DirUpdateRecommended \
	nIterations          0 \
	history              15 \
	knormThreshold       0.0001 \
	energyDiffThreshold  1e-06 \
	nEnergyDiff          2 \
	alphaTstart          1 \
	alphaTmin            1e-10 \
	updateTestStepSize   yes \
	alphaTreduceFactor   0.1 \
	alphaTincreaseFactor 3 \
	nAlphaAdjustMax      3 \
	wolfeEnergy          0.0001 \
	wolfeGradient        0.9 \
	fdTest               no
kpoint   0.000000000000   0.000000000000   0.000000000000  1.00000000000000
kpoint-folding 9 4 1 
latt-move-scale 0 0 0
latt-scale 1 1 1 
lattice  \
	   3.832833000000000   -3.832835000000000  -22.997005000000001  \
	  -3.832835000000000    0.000000000000000  -22.997005000000001  \
	   0.000000000000000   11.498502999999999   -7.665668000000000 
lattice-minimize  \
	dirUpdateScheme      L-BFGS \
	linminMethod         DirUpdateRecommended \
	nIterations          0 \
	history              15 \
	knormThreshold       0 \
	energyDiffThreshold  1e-06 \
	nEnergyDiff          2 \
	alphaTstart          1 \
	alphaTmin            1e-10 \
	updateTestStepSize   yes \
	alphaTreduceFactor   0.1 \
	alphaTincreaseFactor 3 \
	nAlphaAdjustMax      3 \
	wolfeEnergy          0.0001 \
	wolfeGradient        0.9 \
	fdTest               no
lcao-params 30 1e-06 0.001
pcm-variant GLSSA13
spintype z-spin
subspace-rotation-factor 1 yes
symmetries none
symmetry-threshold 0.0001
van-der-waals D3


Applied RMS atom displacement 0 bohrs to make symmetries exact.

---------- Initializing the Grid ----------
R = 
[      3.83283     -3.83284      -22.997  ]
[     -3.83284            0      -22.997  ]
[            0      11.4985     -7.66567  ]
unit cell volume = 2139.65
G =
[   0.776513  -0.862792   0.258838  ]
[ -0.0862792 -0.0862792   0.517675  ]
[  -0.129419  -0.129419 -0.0431396  ]
Minimum fftbox size, Smin = [  24  52  136  ]
Chosen fftbox size, S = [  24  54  140  ]

---------- Exchange Correlation functional ----------
Initalized PBE GGA exchange.
Initalized PBE GGA correlation.

---------- Setting up pseudopotentials ----------
Width of ionic core gaussian charges (only for fluid interactions / plotting) set to 0

Reading pseudopotential file '/projects/musgravc/apps/jdftx-1.6.0/build/pseudopotentials/GBRV_v1.5/ag_pbe_v1.4.uspp':
  Title: Ag.  Created by USPP 7.3.6 on 1-4-15
  Reference state energy: -147.606242.  19 valence electrons in orbitals:
    |400>  occupation: 2  eigenvalue: -3.637437
    |410>  occupation: 6  eigenvalue: -2.297267
    |420>  occupation: 10  eigenvalue: -0.417763
    |500>  occupation: 0.5  eigenvalue: -0.283525
    |510>  occupation: 0  eigenvalue: -0.122889
  lMax: 2  lLocal: 0  QijEcut: 5.5
  6 projectors sampled on a log grid with 717 points:
    l: 0  eig: -0.283528  rCut: 1.5
    l: 0  eig: -3.637440  rCut: 1.5
    l: 1  eig: -0.122892  rCut: 1.5
    l: 1  eig: -2.297267  rCut: 1.5
    l: 2  eig: -0.417762  rCut: 1.7
    l: 2  eig: -1.000000  rCut: 1.7
  Partial core density with radius 1.2
  Transforming core density to a uniform radial grid of dG=0.02 with 1304 points.
  Transforming local potential to a uniform radial grid of dG=0.02 with 1304 points.
  Transforming nonlocal projectors to a uniform radial grid of dG=0.02 with 432 points.
  Transforming density augmentations to a uniform radial grid of dG=0.02 with 1304 points.
  Transforming atomic orbitals to a uniform radial grid of dG=0.02 with 432 points.
  Core radius for overlap checks: 1.70 bohrs.

Initialized 1 species with 19 total atoms.

Folded 1 k-points by 9x4x1 to 36 k-points.

---------- Setting up k-points, bands, fillings ----------
No reducable k-points. 
Computing the number of bands and number of electrons
Calculating initial fillings.
nElectrons: 361.000000   nBands: 217   nStates: 72

----- Setting up reduced wavefunction bases (one per k-point) -----
average nbasis = 9142.083 , ideal nbasis = 9140.768

----- Initializing Supercell corresponding to k-point mesh -----
Lattice vector linear combinations in supercell:
[   9   0   0  ]
[   0   4   0  ]
[   0   0   1  ]
Supercell lattice vectors:
[  34.4955  -15.3313  -22.997  ]
[  -34.4955  0  -22.997  ]
[  0  45.994  -7.66567  ]

Initializing DFT-D3 calculator:
	Parameters set for gga-PBE functional
	s6:  1.000  s_r6:  1.217
	s8:  0.722  s_r8:  1.000
	Per-atom parameters loaded for:
	Ag:  sqrtQ[a0]:  5.443  Rcov[a0]:  2.173  CN: [ 0.00 0.97 ]

---------- Setting up ewald sum ----------
Optimum gaussian width for ewald sums = 3.147017 bohr.
Real space sum over 675 unit cells with max indices [  7  4  2  ]
Reciprocal space sum over 4995 terms with max indices [  4  7  18  ]

Computing DFT-D3 correction:
# coordination-number Ag 9.216 9.216 9.216 9.216 9.216 9.216 9.216 9.216 9.216 9.216 9.216 9.216 9.216 9.216 9.216 9.216 9.216 9.216 9.216
# diagonal-C6 Ag 268.61 268.61 268.61 268.61 268.61 268.61 268.61 268.61 268.61 268.61 268.61 268.61 268.61 268.61 268.61 268.61 268.61 268.61 268.61
EvdW_6 =   -0.159760
EvdW_8 =   -0.198336

---------- Allocating electronic variables ----------
Initializing wave functions:  linear combination of atomic orbitals
Ag pseudo-atom occupations:   s ( 2 1 )  p ( 6 0 )  d ( 10 )
	FillingsUpdate:  mu: +0.646311271  nElectrons: 361.000000  magneticMoment: [ Abs: 0.01216  Tot: +0.00017 ]
LCAOMinimize: Iter:   0  F: -2804.4606859173468365  |grad|_K:  4.325e-04  alpha:  1.000e+00
	FillingsUpdate:  mu: +0.662784755  nElectrons: 361.000000  magneticMoment: [ Abs: 0.00524  Tot: +0.00006 ]
LCAOMinimize: Iter:   1  F: -2804.6766474161545375  |grad|_K:  1.499e-05  alpha:  5.761e-01  linmin:  3.298e-01  cgtest: -1.049e+00  t[s]:     33.07
	FillingsUpdate:  mu: +0.662787308  nElectrons: 361.000000  magneticMoment: [ Abs: 0.00523  Tot: +0.00006 ]
LCAOMinimize: Iter:   2  F: -2804.6766512789913577  |grad|_K:  1.533e-05  alpha:  2.611e-01  linmin:  8.185e-06  cgtest:  9.544e-01  t[s]:     46.54
	FillingsUpdate:  mu: +0.662215800  nElectrons: 361.000000  magneticMoment: [ Abs: 0.00536  Tot: +0.00006 ]
LCAOMinimize: Iter:   3  F: -2804.6768478271619642  |grad|_K:  2.292e-05  alpha:  3.779e-01  linmin:  2.358e-04  cgtest: -5.355e-03  t[s]:     59.55
	FillingsUpdate:  mu: +0.662096932  nElectrons: 361.000000  magneticMoment: [ Abs: 0.00544  Tot: +0.00006 ]
LCAOMinimize: Iter:   4  F: -2804.6769405485561037  |grad|_K:  7.466e-07  alpha:  7.903e-02  linmin: -4.078e-02  cgtest:  4.245e-01  t[s]:     72.53
LCAOMinimize: Encountered beta<0, resetting CG.
	FillingsUpdate:  mu: +0.662098178  nElectrons: 361.000000  magneticMoment: [ Abs: 0.00544  Tot: +0.00006 ]
LCAOMinimize: Iter:   5  F: -2804.6769408059349189  |grad|_K:  1.065e-06  alpha:  2.085e-01  linmin: -5.026e-06  cgtest:  4.505e-05  t[s]:     85.54
	FillingsUpdate:  mu: +0.662101357  nElectrons: 361.000000  magneticMoment: [ Abs: 0.00543  Tot: +0.00006 ]
LCAOMinimize: Iter:   6  F: -2804.6769412483467931  |grad|_K:  6.003e-07  alpha:  1.763e-01  linmin: -8.766e-06  cgtest: -4.860e-04  t[s]:     98.74
LCAOMinimize: Converged (|Delta F|<1.000000e-06 for 2 iters).


---- Citations for features of the code used in this run ----

   Software package:
      R. Sundararaman, K. Letchworth-Weaver, K.A. Schwarz, D. Gunceler, Y. Ozhabes and T.A. Arias, 'JDFTx: software for joint density-functional theory', SoftwareX 6, 278 (2017)

   gga-PBE exchange-correlation functional:
      J.P. Perdew, K. Burke and M. Ernzerhof, Phys. Rev. Lett. 77, 3865 (1996)

   Pseudopotentials:
      KF Garrity, JW Bennett, KM Rabe and D Vanderbilt, Comput. Mater. Sci. 81, 446 (2014)

   DFT-D3 dispersion correction:
      S. Grimme, J. Antony, S. Ehrlich and H. Krieg, J. Chem. Phys. 132, 154104 (2010)

   Total energy minimization with Auxiliary Hamiltonian:
      C. Freysoldt, S. Boeck, and J. Neugebauer, Phys. Rev. B 79, 241103(R) (2009)

   Linear-tetrahedron sampling for density of states:
      G. Lehmann and M. Taut, Phys. status solidi (b) 54, 469 (1972)

This list may not be complete. Please suggest additional citations or
report any other bugs at https://github.com/shankar1729/jdftx/issues

Initialization completed successfully at t[s]:    101.68


Computing DFT-D3 correction:
# coordination-number Ag 9.216 9.216 9.216 9.216 9.216 9.216 9.216 9.216 9.216 9.216 9.216 9.216 9.216 9.216 9.216 9.216 9.216 9.216 9.216
# diagonal-C6 Ag 268.61 268.61 268.61 268.61 268.61 268.61 268.61 268.61 268.61 268.61 268.61 268.61 268.61 268.61 268.61 268.61 268.61 268.61 268.61
EvdW_6 =   -0.159760
EvdW_8 =   -0.198336

-------- Electronic minimization -----------
	FillingsUpdate:  mu: +0.662101358  nElectrons: 361.000000  magneticMoment: [ Abs: 0.00543  Tot: +0.00006 ]
ElecMinimize: Iter:   0  F: -2804.676941248346338  |grad|_K:  3.674e-05  alpha:  1.000e+00
	FillingsUpdate:  mu: +0.666453033  nElectrons: 361.000000  magneticMoment: [ Abs: 0.00396  Tot: +0.00006 ]
	SubspaceRotationAdjust: set factor to 1
ElecMinimize: Iter:   1  F: -2804.755425288171409  |grad|_K:  2.396e-05  alpha:  4.034e-01  linmin:  4.840e-05  t[s]:    135.14
	FillingsUpdate:  mu: +0.661432564  nElectrons: 361.000000  magneticMoment: [ Abs: 0.00276  Tot: +0.00005 ]
	SubspaceRotationAdjust: set factor to 0.971
ElecMinimize: Iter:   2  F: -2804.778388092068781  |grad|_K:  9.989e-06  alpha:  2.767e-01  linmin:  4.558e-06  t[s]:    156.53
	FillingsUpdate:  mu: +0.660435405  nElectrons: 361.000000  magneticMoment: [ Abs: 0.00168  Tot: +0.00003 ]
	SubspaceRotationAdjust: set factor to 0.962
ElecMinimize: Iter:   3  F: -2804.784002675843567  |grad|_K:  5.623e-06  alpha:  3.896e-01  linmin:  2.145e-05  t[s]:    177.82
	FillingsUpdate:  mu: +0.660106246  nElectrons: 361.000000  magneticMoment: [ Abs: 0.00143  Tot: +0.00003 ]
	SubspaceRotationAdjust: set factor to 0.679
ElecMinimize: Iter:   4  F: -2804.784582872869578  |grad|_K:  5.832e-06  alpha:  1.273e-01  linmin:  5.492e-06  t[s]:    199.26
	FillingsUpdate:  mu: +0.660918740  nElectrons: 361.000000  magneticMoment: [ Abs: 0.00084  Tot: +0.00002 ]
	SubspaceRotationAdjust: set factor to 0.698
ElecMinimize: Iter:   5  F: -2804.785520933182397  |grad|_K:  2.096e-06  alpha:  1.909e-01  linmin: -8.240e-06  t[s]:    220.70
	FillingsUpdate:  mu: +0.660902093  nElectrons: 361.000000  magneticMoment: [ Abs: 0.00045  Tot: +0.00001 ]
	SubspaceRotationAdjust: set factor to 0.779
ElecMinimize: Iter:   6  F: -2804.785807545803436  |grad|_K:  1.198e-06  alpha:  4.512e-01  linmin:  7.389e-06  t[s]:    242.00
	FillingsUpdate:  mu: +0.660950393  nElectrons: 361.000000  magneticMoment: [ Abs: 0.00036  Tot: +0.00001 ]
	SubspaceRotationAdjust: set factor to 0.54
ElecMinimize: Iter:   7  F: -2804.785842288996264  |grad|_K:  1.090e-06  alpha:  1.676e-01  linmin:  5.430e-06  t[s]:    263.49
	FillingsUpdate:  mu: +0.661023991  nElectrons: 361.000000  magneticMoment: [ Abs: 0.00026  Tot: +0.00001 ]
	SubspaceRotationAdjust: set factor to 0.346
ElecMinimize: Iter:   8  F: -2804.785869246871698  |grad|_K:  5.160e-07  alpha:  1.571e-01  linmin: -9.474e-07  t[s]:    284.91
	FillingsUpdate:  mu: +0.660996571  nElectrons: 361.000000  magneticMoment: [ Abs: 0.00018  Tot: +0.00001 ]
	SubspaceRotationAdjust: set factor to 0.378
ElecMinimize: Iter:   9  F: -2804.785881814254935  |grad|_K:  2.691e-07  alpha:  3.267e-01  linmin:  3.863e-06  t[s]:    306.47
	FillingsUpdate:  mu: +0.661007804  nElectrons: 361.000000  magneticMoment: [ Abs: 0.00012  Tot: +0.00000 ]
	SubspaceRotationAdjust: set factor to 0.352
ElecMinimize: Iter:  10  F: -2804.785886004347049  |grad|_K:  1.671e-07  alpha:  4.006e-01  linmin:  1.957e-07  t[s]:    328.00
	FillingsUpdate:  mu: +0.661003696  nElectrons: 361.000000  magneticMoment: [ Abs: 0.00009  Tot: +0.00000 ]
	SubspaceRotationAdjust: set factor to 0.239
ElecMinimize: Iter:  11  F: -2804.785887106434075  |grad|_K:  1.233e-07  alpha:  2.729e-01  linmin: -1.304e-08  t[s]:    350.06
	FillingsUpdate:  mu: +0.660999013  nElectrons: 361.000000  magneticMoment: [ Abs: 0.00007  Tot: +0.00000 ]
	SubspaceRotationAdjust: set factor to 0.199
ElecMinimize: Iter:  12  F: -2804.785887765572625  |grad|_K:  7.198e-08  alpha:  3.001e-01  linmin:  3.870e-07  t[s]:    371.47
	FillingsUpdate:  mu: +0.661003244  nElectrons: 361.000000  magneticMoment: [ Abs: 0.00005  Tot: +0.00000 ]
	SubspaceRotationAdjust: set factor to 0.229
ElecMinimize: Iter:  13  F: -2804.785888044069452  |grad|_K:  4.586e-08  alpha:  3.719e-01  linmin: -2.383e-07  t[s]:    392.76
	FillingsUpdate:  mu: +0.661001357  nElectrons: 361.000000  magneticMoment: [ Abs: 0.00004  Tot: +0.00000 ]
	SubspaceRotationAdjust: set factor to 0.207
ElecMinimize: Iter:  14  F: -2804.785888150303890  |grad|_K:  2.857e-08  alpha:  3.497e-01  linmin: -2.465e-08  t[s]:    414.24
	FillingsUpdate:  mu: +0.661000009  nElectrons: 361.000000  magneticMoment: [ Abs: 0.00003  Tot: +0.00000 ]
	SubspaceRotationAdjust: set factor to 0.208
ElecMinimize: Iter:  15  F: -2804.785888199097371  |grad|_K:  1.922e-08  alpha:  4.139e-01  linmin:  8.495e-06  t[s]:    435.74
	FillingsUpdate:  mu: +0.661000559  nElectrons: 361.000000  magneticMoment: [ Abs: 0.00003  Tot: +0.00000 ]
	SubspaceRotationAdjust: set factor to 0.242
ElecMinimize: Iter:  16  F: -2804.785888219135359  |grad|_K:  1.380e-08  alpha:  3.764e-01  linmin: -4.396e-07  t[s]:    457.36
ElecMinimize: Converged (|Delta F|<1.000000e-07 for 2 iters).
Setting wave functions to eigenvectors of Hamiltonian
Converging empty states (this may take a while): |deigs|: 5.474e-04

Computing DFT-D3 correction:
# coordination-number Ag 9.216 9.216 9.216 9.216 9.216 9.216 9.216 9.216 9.216 9.216 9.216 9.216 9.216 9.216 9.216 9.216 9.216 9.216 9.216
# diagonal-C6 Ag 268.61 268.61 268.61 268.61 268.61 268.61 268.61 268.61 268.61 268.61 268.61 268.61 268.61 268.61 268.61 268.61 268.61 268.61 268.61
EvdW_6 =   -0.159760
EvdW_8 =   -0.198336

# Ionic positions in cartesian coordinates:
ion Ag -22.996998000000005 -22.996994000000004   0.000003999999999 1
ion Ag -19.164176000000005 -22.997010000000003  -3.832834000000001 1
ion Ag -19.164169000000005 -22.996998000000005   3.832839000000000 1
ion Ag  -0.000002000000000  -3.832835000000000  11.498502999999999 1
ion Ag -19.164179000000001 -19.164179000000001  -0.000000000000000 1
ion Ag -15.331337000000000 -19.164168000000000  -3.832830000000000 1
ion Ag -15.331350000000002 -19.164183000000001   3.832835000000000 1
ion Ag -15.331341000000000 -15.331337000000003   0.000003999999999 1
ion Ag -11.498495000000002 -15.331330000000005  -3.832826000000001 1
ion Ag -11.498512000000002 -15.331341000000004   3.832839000000000 1
ion Ag -11.498495000000002 -11.498499000000002  -0.000004000000000 1
ion Ag -11.498512000000000 -11.498511000000002   7.665662000000002 1
ion Ag  -7.665666000000001 -11.498503000000001   3.832831000000001 1
ion Ag  -7.665657000000000  -7.665657000000001  -0.000000000000000 1
ion Ag  -7.665670000000001  -7.665673000000002   7.665665000000002 1
ion Ag  -3.832828000000001  -7.665661000000001   3.832835000000001 1
ion Ag  -3.832838000000000  -3.832842000000000  -0.000004000000000 1
ion Ag  -3.832831000000001  -3.832831000000001   7.665669000000001 1
ion Ag  -0.000008999999999  -3.832846000000000   3.832831000000000 1

# Forces in Cartesian coordinates:
force Ag   0.000002018845888  -0.000018724580602  -0.000019136663242 1
force Ag   0.000035444657890   0.000075087812735  -0.000024365823894 1
force Ag   0.000024452650911  -0.000025799026626  -0.000026803513129 1
force Ag   0.000010678760081   0.000010440629463   0.000003315475412 1
force Ag  -0.000003359534486   0.000031816675234  -0.000017874586939 1
force Ag   0.000051976544917   0.000024947493346   0.000027350001694 1
force Ag  -0.000017691883041  -0.000014259312340   0.000016922553330 1
force Ag   0.000011388266660   0.000028715740191   0.000039517020379 1
force Ag   0.000030872890273  -0.000017144449875   0.000038644733064 1
force Ag  -0.000063717010956  -0.000013064887025  -0.000007046916573 1
force Ag   0.000045826634840  -0.000004454159301   0.000001581584834 1
force Ag  -0.000047206718107   0.000001337735688  -0.000043981638596 1
force Ag  -0.000024819124973  -0.000041819377139  -0.000043828990741 1
force Ag   0.000008879703887   0.000005486947930  -0.000019849389374 1
force Ag  -0.000055168554280  -0.000028039739521  -0.000028436178924 1
force Ag   0.000006845261313  -0.000028628219801   0.000018809882889 1
force Ag  -0.000014403503661   0.000035544724227   0.000029918012181 1
force Ag  -0.000019652874819  -0.000059488019219   0.000029443321900 1
force Ag   0.000017516700998   0.000037948417781   0.000025654734246 1

# Energy components:
   Eewald =    -2051.1954980788800640
       EH =      673.1306714084226996
     Eloc =    -1867.1021954029733934
      Enl =       74.8931636383568105
     EvdW =       -0.3580963756125616
      Exc =     -275.5490595885671041
 Exc_core =        3.9552371476264727
       KE =      637.4401305783552516
-------------------------------------
     Etot =    -2804.7856466732719127
       TS =        0.0002415458636684
-------------------------------------
        F =    -2804.7858882191353587


Dumping 'jdft.fillings' ... done
Dumping 'jdft.wfns' ... done
Dumping 'jdft.ionpos' ... done
Dumping 'jdft.lattice' ... done
Dumping 'jdft.eigenvals' ... done
Dumping 'jdft.eigStats' ... 
	eMin: -2.726063 at state 36 ( [ +0.000000 +0.000000 +0.000000 ] spin -1 )
	HOMO: +0.658922 at state 60 ( [ -0.333333 +0.000000 +0.000000 ] spin -1 )
	mu  : +0.661001
	LUMO: +0.661350 at state 6 ( [ +0.111111 +0.500000 +0.000000 ] spin 1 )
	eMax: +1.190048 at state 39 ( [ +0.000000 -0.250000 +0.000000 ] spin -1 )
	HOMO-LUMO gap: +0.002428
	Optical gap  : +0.009789 at state 70 ( [ -0.111111 +0.500000 +0.000000 ] spin -1 )
Dumping 'jdft.Ecomponents' ... done
IonicMinimize: Iter:   0  F: -2804.785888219135359  |grad|_K:  3.040e-05  t[s]:    532.79
IonicMinimize: Converged (|grad|_K<1.000000e-04).

#--- Lowdin population analysis ---
# oxidation-state Ag +0.004 +0.004 +0.004 +0.004 +0.004 +0.004 +0.004 +0.004 +0.004 +0.004 +0.004 +0.004 +0.004 +0.004 +0.004 +0.004 +0.004 +0.004 +0.004
# magnetic-moments Ag +0.000 +0.000 -0.000 -0.000 +0.000 -0.000 +0.000 +0.000 +0.000 +0.000 +0.000 +0.000 +0.000 +0.000 +0.000 +0.000 +0.000 +0.000 +0.000


Dumping 'jdft.n_up' ... done
Dumping 'jdft.n_dn' ... done
Dumping 'jdft.tau_up' ... done
Dumping 'jdft.tau_dn' ... done
Dumping 'jdft.eigenvals' ... done
Dumping 'jdft.eigStats' ... 
	eMin: -2.726063 at state 36 ( [ +0.000000 +0.000000 +0.000000 ] spin -1 )
	HOMO: +0.658922 at state 60 ( [ -0.333333 +0.000000 +0.000000 ] spin -1 )
	mu  : +0.661001
	LUMO: +0.661350 at state 6 ( [ +0.111111 +0.500000 +0.000000 ] spin 1 )
	eMax: +1.190048 at state 39 ( [ +0.000000 -0.250000 +0.000000 ] spin -1 )
	HOMO-LUMO gap: +0.002428
	Optical gap  : +0.009789 at state 70 ( [ -0.111111 +0.500000 +0.000000 ] spin -1 )
Dumping 'jdft.kPts' ... done
Dumping 'jdft.dosUp' ... done.
Dumping 'jdft.dosDn' ... done.
End date and time: Mon Dec  6 17:10:35 2021  (Duration: 0-0:09:09.50)
Done!
