
*************** JDFTx 1.7.0 (git hash 5f12716a) ***************

Start date and time: Thu Sep  8 20:57:22 2022
Executable /home/nisi6161/jdftx_alpine/build/jdftx with command-line: -i in
Running on hosts (process indices):  c3cpu-a2-u7-2.rc.int.colorado.edu (0-17)
Divided in process groups (process indices):  0 (0)  1 (1)  2 (2)  3 (3)  4 (4)  5 (5)  6 (6)  7 (7)  8 (8)  9 (9)  10 (10)  11 (11)  12 (12)  13 (13)  14 (14)  15 (15)  16 (16)  17 (17)
Resource initialization completed at t[s]:      0.00
Run totals: 18 processes, 64 threads, 0 GPUs


Input parsed successfully to the following command list (including defaults):

basis kpoint-dependent
converge-empty-states yes
coords-type Cartesian
core-overlap-check none
coulomb-interaction Periodic
davidson-band-ratio 1.1
density-of-states Etol 1.000000e-06 Esigma 1.000000e-03 \
		Complete \
	Total \
	OrthoOrbital Cu 1   s \
	OrthoOrbital Cu 1   p \
	OrthoOrbital Cu 1   px \
	OrthoOrbital Cu 1   py \
	OrthoOrbital Cu 1   pz \
	OrthoOrbital Cu 1   d \
	OrthoOrbital Cu 1   dxy \
	OrthoOrbital Cu 1   dyz \
	OrthoOrbital Cu 1   dz2 \
	OrthoOrbital Cu 1   dxz \
	OrthoOrbital Cu 1   dx2-y2 \
	OrthoOrbital Cu 2   s \
	OrthoOrbital Cu 2   p \
	OrthoOrbital Cu 2   px \
	OrthoOrbital Cu 2   py \
	OrthoOrbital Cu 2   pz \
	OrthoOrbital Cu 2   d \
	OrthoOrbital Cu 2   dxy \
	OrthoOrbital Cu 2   dyz \
	OrthoOrbital Cu 2   dz2 \
	OrthoOrbital Cu 2   dxz \
	OrthoOrbital Cu 2   dx2-y2 \
	OrthoOrbital Cu 3   s \
	OrthoOrbital Cu 3   p \
	OrthoOrbital Cu 3   px \
	OrthoOrbital Cu 3   py \
	OrthoOrbital Cu 3   pz \
	OrthoOrbital Cu 3   d \
	OrthoOrbital Cu 3   dxy \
	OrthoOrbital Cu 3   dyz \
	OrthoOrbital Cu 3   dz2 \
	OrthoOrbital Cu 3   dxz \
	OrthoOrbital Cu 3   dx2-y2 \
	OrthoOrbital Cu 4   s \
	OrthoOrbital Cu 4   p \
	OrthoOrbital Cu 4   px \
	OrthoOrbital Cu 4   py \
	OrthoOrbital Cu 4   pz \
	OrthoOrbital Cu 4   d \
	OrthoOrbital Cu 4   dxy \
	OrthoOrbital Cu 4   dyz \
	OrthoOrbital Cu 4   dz2 \
	OrthoOrbital Cu 4   dxz \
	OrthoOrbital Cu 4   dx2-y2 \
	OrthoOrbital Cu 5   s \
	OrthoOrbital Cu 5   p \
	OrthoOrbital Cu 5   px \
	OrthoOrbital Cu 5   py \
	OrthoOrbital Cu 5   pz \
	OrthoOrbital Cu 5   d \
	OrthoOrbital Cu 5   dxy \
	OrthoOrbital Cu 5   dyz \
	OrthoOrbital Cu 5   dz2 \
	OrthoOrbital Cu 5   dxz \
	OrthoOrbital Cu 5   dx2-y2 \
	OrthoOrbital Cu 6   s \
	OrthoOrbital Cu 6   p \
	OrthoOrbital Cu 6   px \
	OrthoOrbital Cu 6   py \
	OrthoOrbital Cu 6   pz \
	OrthoOrbital Cu 6   d \
	OrthoOrbital Cu 6   dxy \
	OrthoOrbital Cu 6   dyz \
	OrthoOrbital Cu 6   dz2 \
	OrthoOrbital Cu 6   dxz \
	OrthoOrbital Cu 6   dx2-y2 \
	OrthoOrbital Cu 7   s \
	OrthoOrbital Cu 7   p \
	OrthoOrbital Cu 7   px \
	OrthoOrbital Cu 7   py \
	OrthoOrbital Cu 7   pz \
	OrthoOrbital Cu 7   d \
	OrthoOrbital Cu 7   dxy \
	OrthoOrbital Cu 7   dyz \
	OrthoOrbital Cu 7   dz2 \
	OrthoOrbital Cu 7   dxz \
	OrthoOrbital Cu 7   dx2-y2 \
	OrthoOrbital Cu 8   s \
	OrthoOrbital Cu 8   p \
	OrthoOrbital Cu 8   px \
	OrthoOrbital Cu 8   py \
	OrthoOrbital Cu 8   pz \
	OrthoOrbital Cu 8   d \
	OrthoOrbital Cu 8   dxy \
	OrthoOrbital Cu 8   dyz \
	OrthoOrbital Cu 8   dz2 \
	OrthoOrbital Cu 8   dxz \
	OrthoOrbital Cu 8   dx2-y2 \
	OrthoOrbital Cu 9   s \
	OrthoOrbital Cu 9   p \
	OrthoOrbital Cu 9   px \
	OrthoOrbital Cu 9   py \
	OrthoOrbital Cu 9   pz \
	OrthoOrbital Cu 9   d \
	OrthoOrbital Cu 9   dxy \
	OrthoOrbital Cu 9   dyz \
	OrthoOrbital Cu 9   dz2 \
	OrthoOrbital Cu 9   dxz \
	OrthoOrbital Cu 9   dx2-y2 \
	OrthoOrbital Cu 10   s \
	OrthoOrbital Cu 10   p \
	OrthoOrbital Cu 10   px \
	OrthoOrbital Cu 10   py \
	OrthoOrbital Cu 10   pz \
	OrthoOrbital Cu 10   d \
	OrthoOrbital Cu 10   dxy \
	OrthoOrbital Cu 10   dyz \
	OrthoOrbital Cu 10   dz2 \
	OrthoOrbital Cu 10   dxz \
	OrthoOrbital Cu 10   dx2-y2 \
	OrthoOrbital Cu 11   s \
	OrthoOrbital Cu 11   p \
	OrthoOrbital Cu 11   px \
	OrthoOrbital Cu 11   py \
	OrthoOrbital Cu 11   pz \
	OrthoOrbital Cu 11   d \
	OrthoOrbital Cu 11   dxy \
	OrthoOrbital Cu 11   dyz \
	OrthoOrbital Cu 11   dz2 \
	OrthoOrbital Cu 11   dxz \
	OrthoOrbital Cu 11   dx2-y2
dump End ElecDensity KEdensity BandEigs EigStats RhoAtom DOS Kpoints
dump Ionic State IonicPositions Lattice EigStats Ecomponents
dump 
dump 
dump 
dump 
dump 
dump 
dump 
dump 
dump-name jdft.$VAR
elec-cutoff 20
elec-eigen-algo Davidson
elec-ex-corr gga-PBE
elec-initial-magnetization 0.000000 no
elec-n-bands 126
elec-smearing Fermi 0.001
electronic-minimize  \
	dirUpdateScheme      FletcherReeves \
	linminMethod         DirUpdateRecommended \
	nIterations          100 \
	history              15 \
	knormThreshold       0 \
	energyDiffThreshold  1e-07 \
	nEnergyDiff          2 \
	alphaTstart          1 \
	alphaTmin            1e-10 \
	updateTestStepSize   yes \
	alphaTreduceFactor   0.1 \
	alphaTincreaseFactor 3 \
	nAlphaAdjustMax      3 \
	wolfeEnergy          0.0001 \
	wolfeGradient        0.9 \
	fdTest               no
exchange-regularization WignerSeitzTruncated
fluid LinearPCM 298.000000 1.013250
fluid-anion F- 0.5 MeanFieldLJ \
	epsBulk 1 \
	pMol 0 \
	epsInf 1 \
	Pvap 0 \
	sigmaBulk 0 \
	Rvdw 2.24877 \
	Res 0 \
	tauNuc 343133
fluid-cation Na+ 0.5 MeanFieldLJ \
	epsBulk 1 \
	pMol 0 \
	epsInf 1 \
	Pvap 0 \
	sigmaBulk 0 \
	Rvdw 2.19208 \
	Res 0 \
	tauNuc 343133
fluid-ex-corr lda-TF lda-PZ
fluid-gummel-loop 10 1.000000e-05
fluid-minimize  \
	dirUpdateScheme      PolakRibiere \
	linminMethod         DirUpdateRecommended \
	nIterations          400 \
	history              15 \
	knormThreshold       1e-11 \
	energyDiffThreshold  0 \
	nEnergyDiff          2 \
	alphaTstart          1 \
	alphaTmin            1e-10 \
	updateTestStepSize   yes \
	alphaTreduceFactor   0.1 \
	alphaTincreaseFactor 3 \
	nAlphaAdjustMax      6 \
	wolfeEnergy          0.0001 \
	wolfeGradient        0.9 \
	fdTest               no
fluid-solvent H2O 55.338 ScalarEOS \
	epsBulk 78.4 \
	pMol 0.92466 \
	epsInf 1.77 \
	Pvap 1.06736e-10 \
	sigmaBulk 4.62e-05 \
	Rvdw 2.61727 \
	Res 1.42 \
	tauNuc 343133 \
	poleEl 15 7 1
forces-output-coords Positions
ion Cu   0.001580000000000  -0.002806000000000  21.263675000000003 1
ion Cu  -0.002228000000000   4.314517000000000   1.091669000000000 1
ion Cu   2.381829000000001   0.714888000000000   2.936762000000000 1
ion Cu   2.382684000000001   5.058367000000000   5.057120000000001 1
ion Cu   0.002734000000000   1.433387000000000   7.105375000000001 1
ion Cu   0.000074000000001   5.739328000000000   9.137264000000002 1
ion Cu   2.383383000000000   2.155682000000000  11.181026000000001 1
ion Cu   2.382813000000001   6.476175000000000  13.219086000000003 1
ion Cu  -0.002023000000000   2.878181000000000  15.255402000000002 1
ion Cu   0.000674000000001   7.157452000000001  17.298358000000004 1
ion Cu   2.385034000000000   3.597574000000000  19.420460000000002 1
ion-species /projects/musgravc/apps/jdftx-1.6.0/build/pseudopotentials/GBRV_v1.5/$ID_pbe_v1.uspp
ion-species /projects/musgravc/apps/jdftx-1.6.0/build/pseudopotentials/GBRV_v1.5/$ID_pbe_v1.2.uspp
ion-species /projects/musgravc/apps/jdftx-1.6.0/build/pseudopotentials/GBRV_v1.5/$ID_pbe_v1.4.uspp
ion-species /projects/musgravc/apps/jdftx-1.6.0/build/pseudopotentials/GBRV_v1.5/$ID_pbe_v1.5.uspp
ion-width Ecut
ionic-minimize  \
	dirUpdateScheme      L-BFGS \
	linminMethod         DirUpdateRecommended \
	nIterations          100 \
	history              15 \
	knormThreshold       0.0001 \
	energyDiffThreshold  0.0001 \
	nEnergyDiff          2 \
	alphaTstart          1 \
	alphaTmin            1e-10 \
	updateTestStepSize   yes \
	alphaTreduceFactor   0.1 \
	alphaTincreaseFactor 3 \
	nAlphaAdjustMax      3 \
	wolfeEnergy          0.0001 \
	wolfeGradient        0.9 \
	fdTest               no
kpoint   0.000000000000   0.000000000000   0.000000000000  1.00000000000000
kpoint-folding 13 7 1 
latt-move-scale 0 0 0
latt-scale 1 1 1 
lattice  \
	   4.766623000000000   -2.383311000000000    0.000000000000000  \
	   0.000000000000000    7.904551000000000    0.000000000000000  \
	   0.000000000000000    0.000000000000000   67.072337000000005 
lattice-minimize  \
	dirUpdateScheme      L-BFGS \
	linminMethod         DirUpdateRecommended \
	nIterations          0 \
	history              15 \
	knormThreshold       0 \
	energyDiffThreshold  1e-06 \
	nEnergyDiff          2 \
	alphaTstart          1 \
	alphaTmin            1e-10 \
	updateTestStepSize   yes \
	alphaTreduceFactor   0.1 \
	alphaTincreaseFactor 3 \
	nAlphaAdjustMax      3 \
	wolfeEnergy          0.0001 \
	wolfeGradient        0.9 \
	fdTest               no
lcao-params 30 1e-06 0.001
pcm-variant CANDLE
spintype z-spin
subspace-rotation-factor 1 yes
symmetries automatic
symmetry-threshold 0.0001
target-mu -0.24475 no

van-der-waals D3



---------- Setting up symmetries ----------

Found 8 point-group symmetries of the bravais lattice
Found 1 space-group symmetries with basis
Applied RMS atom displacement 0 bohrs to make symmetries exact.

---------- Initializing the Grid ----------
R = 
[      4.76662     -2.38331            0  ]
[            0      7.90455            0  ]
[            0            0      67.0723  ]
unit cell volume = 2527.15
G =
[    1.31816   0.397441         -0  ]
[          0   0.794882          0  ]
[          0         -0  0.0936777  ]
Minimum fftbox size, Smin = [  20  36  272  ]
Chosen fftbox size, S = [  20  36  280  ]

---------- Exchange Correlation functional ----------
Initalized PBE GGA exchange.
Initalized PBE GGA correlation.

---------- Setting up pseudopotentials ----------
Width of ionic core gaussian charges (only for fluid interactions / plotting) set to 0.397384

Reading pseudopotential file '/projects/musgravc/apps/jdftx-1.6.0/build/pseudopotentials/GBRV_v1.5/cu_pbe_v1.2.uspp':
  Title: Cu.  Created by USPP 7.3.6 on 3-2-2014
  Reference state energy: -201.059491.  19 valence electrons in orbitals:
    |300>  occupation: 2  eigenvalue: -5.020764
    |310>  occupation: 6  eigenvalue: -3.445588
    |320>  occupation: 8  eigenvalue: -0.925168
    |400>  occupation: 2  eigenvalue: -0.567638
    |410>  occupation: 0  eigenvalue: -0.326154
  lMax: 2  lLocal: 3  QijEcut: 6
  6 projectors sampled on a log grid with 613 points:
    l: 0  eig: -5.020767  rCut: 1.4
    l: 0  eig: -0.567640  rCut: 1.4
    l: 1  eig: -3.445589  rCut: 1.55
    l: 1  eig: -0.326157  rCut: 1.55
    l: 2  eig: -0.925170  rCut: 1.5
    l: 2  eig: 1.500000  rCut: 1.5
  Partial core density with radius 0.8
  Transforming core density to a uniform radial grid of dG=0.02 with 1309 points.
  Transforming local potential to a uniform radial grid of dG=0.02 with 1309 points.
  Transforming nonlocal projectors to a uniform radial grid of dG=0.02 with 432 points.
  Transforming density augmentations to a uniform radial grid of dG=0.02 with 1309 points.
  Transforming atomic orbitals to a uniform radial grid of dG=0.02 with 432 points.
  Core radius for overlap checks: 1.55 bohrs.

Initialized 1 species with 11 total atoms.

Folded 1 k-points by 13x7x1 to 91 k-points.

---------- Setting up k-points, bands, fillings ----------
Adding inversion symmetry to k-mesh for non-inversion-symmetric unit cell.
Reduced to 46 k-points under symmetry. 
Computing the number of bands and number of electrons
Calculating initial fillings.
nElectrons: 209.000000   nBands: 126   nStates: 92

----- Setting up reduced wavefunction bases (one per k-point) -----
average nbasis = 10795.527 , ideal nbasis = 10796.188

----- Initializing Supercell corresponding to k-point mesh -----
Lattice vector linear combinations in supercell:
[  13   0   0  ]
[   0   7   0  ]
[   0   0   1  ]
Supercell lattice vectors:
[  61.9661  -16.6832  0  ]
[  0  55.3319  0  ]
[  0  0  67.0723  ]

Initializing DFT-D3 calculator:
	Parameters set for gga-PBE functional
	s6:  1.000  s_r6:  1.217
	s8:  0.722  s_r8:  1.000
	Per-atom parameters loaded for:
	Cu:  sqrtQ[a0]:  5.226  Rcov[a0]:  1.909  CN: [ 0.00 0.96 ]

Initializing DFT-D2 calculator for fluid / solvation:
	Cu:  C6:  187.33 Eh-a0^6  R0: 2.952 a0

---------- Setting up ewald sum ----------
Optimum gaussian width for ewald sums = 3.643805 bohr.
Real space sum over 1235 unit cells with max indices [  9  6  2  ]
Reciprocal space sum over 4543 terms with max indices [  3  5  29  ]

Computing DFT-D3 correction:
# coordination-number Cu 5.593 5.591 7.569 9.120 8.988 9.112 9.122 9.115 8.995 9.125 7.574
# diagonal-C6 Cu 175.00 175.00 175.00 175.00 175.00 175.00 175.00 175.00 175.00 175.00 175.00
EvdW_6 =   -0.066521
EvdW_8 =   -0.099012

---------- Allocating electronic variables ----------
Initializing wave functions:  linear combination of atomic orbitals
Cu pseudo-atom occupations:   s ( 2 1 )  p ( 6 0 )  d ( 10 )
	FillingsUpdate:  mu: -0.244750000  nElectrons: 209.000000  magneticMoment: [ Abs: 0.16161  Tot: +0.00416 ]
LCAOMinimize: Iter:   0  G: -2111.5643919339818240  |grad|_K:  3.877e-02  alpha:  1.000e+00
LCAOMinimize: 	Step increased G by 6.332777e+02, reducing alpha to 4.088768e-02.
LCAOMinimize: 	Step increased G by 6.850627e+01, reducing alpha to 4.088768e-03.
	FillingsUpdate:  mu: -0.244750000  nElectrons: 209.000000  magneticMoment: [ Abs: 0.16415  Tot: +0.00571 ]
LCAOMinimize: Iter:   1  G: -2120.5647288506725090  |grad|_K:  1.992e-02  alpha:  4.089e-03  linmin: -1.799e-01  cgtest:  8.486e-01  t[s]:    160.11
LCAOMinimize: Encountered beta<0, resetting CG.
	FillingsUpdate:  mu: -0.244750000  nElectrons: 209.000000  magneticMoment: [ Abs: 0.16955  Tot: +0.00794 ]
LCAOMinimize: Iter:   2  G: -2124.6431361629120147  |grad|_K:  1.310e-02  alpha:  1.004e-02  linmin: -6.591e-02  cgtest:  1.391e-01  t[s]:    200.76
LCAOMinimize: 	Wrong curvature in test step, increasing alphaT to 3.010863e-02.
	FillingsUpdate:  mu: -0.244750000  nElectrons: 209.000000  magneticMoment: [ Abs: 0.17910  Tot: +0.01497 ]
LCAOMinimize: Iter:   3  G: -2128.6663509370546308  |grad|_K:  1.383e-02  alpha: -7.653e-02  linmin: -1.883e-01  cgtest:  7.927e-01  t[s]:    240.46
	FillingsUpdate:  mu: -0.244750000  nElectrons: 209.000000  magneticMoment: [ Abs: 0.00066  Tot: -0.00005 ]
LCAOMinimize: Iter:   4  G: -2156.2025836402217465  |grad|_K:  3.429e-03  alpha:  5.201e-01  linmin:  3.850e-02  cgtest: -3.245e+00  t[s]:    281.31
	FillingsUpdate:  mu: -0.244750000  nElectrons: 209.000000  magneticMoment: [ Abs: 0.00067  Tot: +0.00003 ]
LCAOMinimize: Iter:   5  G: -2156.3421299630367685  |grad|_K:  3.126e-03  alpha:  1.870e-02  linmin: -6.907e-03  cgtest:  8.597e-01  t[s]:    321.87
LCAOMinimize: 	Predicted alpha/alphaT>3.000000, increasing alphaT to 5.610757e-02.
	FillingsUpdate:  mu: -0.244750000  nElectrons: 209.000000  magneticMoment: [ Abs: 0.00087  Tot: +0.00061 ]
LCAOMinimize: Iter:   6  G: -2157.7850713670318328  |grad|_K:  5.073e-03  alpha:  1.239e-01  linmin: -9.820e-04  cgtest:  3.459e-02  t[s]:    373.07
	FillingsUpdate:  mu: -0.244750000  nElectrons: 209.000000  magneticMoment: [ Abs: 0.00077  Tot: +0.00045 ]
LCAOMinimize: Iter:   7  G: -2158.1875340341157425  |grad|_K:  4.418e-03  alpha:  7.370e-03  linmin: -1.812e-02  cgtest:  1.134e+00  t[s]:    414.08
LCAOMinimize: Encountered beta<0, resetting CG.
LCAOMinimize: 	Predicted alpha/alphaT>3.000000, increasing alphaT to 2.211037e-02.
	FillingsUpdate:  mu: -0.244750000  nElectrons: 209.000000  magneticMoment: [ Abs: 0.00064  Tot: +0.00026 ]
LCAOMinimize: Iter:   8  G: -2159.2250964025943176  |grad|_K:  2.942e-03  alpha:  5.247e-02  linmin: -1.579e-02  cgtest:  9.195e-02  t[s]:    464.96
LCAOMinimize: 	Wrong curvature in test step, increasing alphaT to 1.573961e-01.
	FillingsUpdate:  mu: -0.244750000  nElectrons: 209.000000  magneticMoment: [ Abs: 0.00067  Tot: +0.00023 ]
LCAOMinimize: Iter:   9  G: -2160.2462269036814178  |grad|_K:  3.005e-03  alpha: -4.181e-01  linmin: -4.150e-02  cgtest:  8.835e-01  t[s]:    504.85
	FillingsUpdate:  mu: -0.244750000  nElectrons: 209.000000  magneticMoment: [ Abs: 0.00073  Tot: +0.00041 ]
LCAOMinimize: Iter:  10  G: -2160.4779874625910452  |grad|_K:  2.726e-03  alpha:  1.219e-02  linmin: -1.026e-01  cgtest:  9.787e-01  t[s]:    545.96
LCAOMinimize: Encountered beta<0, resetting CG.
LCAOMinimize: 	Predicted alpha/alphaT>3.000000, increasing alphaT to 3.656539e-02.
LCAOMinimize: 	Predicted alpha/alphaT>3.000000, increasing alphaT to 1.096962e-01.
LCAOMinimize: 	Predicted alpha/alphaT>3.000000, increasing alphaT to 3.290885e-01.
LCAOMinimize: 	Step increased G by 6.190094e+02, reducing alpha to 1.224528e-01.
	FillingsUpdate:  mu: -0.244750000  nElectrons: 209.000000  magneticMoment: [ Abs: 0.00073  Tot: +0.00021 ]
LCAOMinimize: Iter:  11  G: -2162.1218258989219976  |grad|_K:  3.326e-03  alpha:  1.225e-01  linmin: -3.440e-02  cgtest:  3.714e-01  t[s]:    637.88
	FillingsUpdate:  mu: -0.244750000  nElectrons: 209.000000  magneticMoment: [ Abs: 0.00154  Tot: +0.00025 ]
LCAOMinimize: Iter:  12  G: -2164.4598164230847033  |grad|_K:  8.771e-03  alpha:  1.181e-01  linmin:  3.036e-02  cgtest: -2.969e-01  t[s]:    678.95
LCAOMinimize: 	Bad step direction: g.d > 0.
LCAOMinimize: 	Undoing step.
LCAOMinimize: 	Step failed: resetting search direction.
	FillingsUpdate:  mu: -0.244750000  nElectrons: 209.000000  magneticMoment: [ Abs: 0.00154  Tot: +0.00025 ]
LCAOMinimize: Iter:  13  G: -2164.4598164230847033  |grad|_K:  8.771e-03  alpha:  0.000e+00
	FillingsUpdate:  mu: -0.244750000  nElectrons: 209.000000  magneticMoment: [ Abs: 0.00151  Tot: -0.00011 ]
LCAOMinimize: Iter:  14  G: -2165.5627319855157111  |grad|_K:  2.644e-03  alpha:  1.417e-02  linmin: -6.813e-02  cgtest:  4.779e-01  t[s]:    750.03
LCAOMinimize: Encountered beta<0, resetting CG.
LCAOMinimize: 	Predicted alpha/alphaT>3.000000, increasing alphaT to 4.251378e-02.
	FillingsUpdate:  mu: -0.244750000  nElectrons: 209.000000  magneticMoment: [ Abs: 0.00158  Tot: +0.00012 ]
LCAOMinimize: Iter:  15  G: -2166.2535713361085072  |grad|_K:  2.444e-03  alpha:  1.063e-01  linmin:  2.034e-02  cgtest: -4.070e-01  t[s]:    801.34
	FillingsUpdate:  mu: -0.244750000  nElectrons: 209.000000  magneticMoment: [ Abs: 0.00161  Tot: +0.00014 ]
LCAOMinimize: Iter:  16  G: -2166.2832433945741286  |grad|_K:  2.493e-03  alpha:  3.920e-03  linmin: -3.826e-02  cgtest:  9.919e-01  t[s]:    842.08
LCAOMinimize: 	Predicted alpha/alphaT>3.000000, increasing alphaT to 1.175954e-02.
LCAOMinimize: 	Predicted alpha/alphaT>3.000000, increasing alphaT to 3.527861e-02.
	FillingsUpdate:  mu: -0.244750000  nElectrons: 209.000000  magneticMoment: [ Abs: 0.00182  Tot: +0.00022 ]
LCAOMinimize: Iter:  17  G: -2166.6400909600661180  |grad|_K:  2.690e-03  alpha:  7.804e-02  linmin:  7.585e-02  cgtest: -3.725e-01  t[s]:    903.55
	FillingsUpdate:  mu: -0.244750000  nElectrons: 209.000000  magneticMoment: [ Abs: 0.00188  Tot: +0.00014 ]
LCAOMinimize: Iter:  18  G: -2166.6575368946887465  |grad|_K:  3.181e-03  alpha:  1.049e-02  linmin: -1.081e-03  cgtest:  9.396e-01  t[s]:    944.11
LCAOMinimize: 	Predicted alpha/alphaT>3.000000, increasing alphaT to 3.146365e-02.
	FillingsUpdate:  mu: -0.244750000  nElectrons: 209.000000  magneticMoment: [ Abs: 0.00209  Tot: +0.00030 ]
LCAOMinimize: Iter:  19  G: -2167.0920402110100440  |grad|_K:  2.858e-03  alpha:  4.811e-02  linmin:  1.906e-02  cgtest: -3.635e-01  t[s]:    995.45
	FillingsUpdate:  mu: -0.244750000  nElectrons: 209.000000  magneticMoment: [ Abs: 0.00212  Tot: +0.00033 ]
LCAOMinimize: Iter:  20  G: -2167.1273961526339917  |grad|_K:  2.663e-03  alpha:  3.574e-03  linmin: -3.489e-02  cgtest:  9.763e-01  t[s]:   1036.23
LCAOMinimize: Encountered beta<0, resetting CG.
LCAOMinimize: 	Predicted alpha/alphaT>3.000000, increasing alphaT to 1.072255e-02.
	FillingsUpdate:  mu: -0.244750000  nElectrons: 209.000000  magneticMoment: [ Abs: 0.00215  Tot: +0.00040 ]
LCAOMinimize: Iter:  21  G: -2167.2375610527451499  |grad|_K:  1.289e-03  alpha:  1.622e-02  linmin: -3.327e-03  cgtest: -4.353e-03  t[s]:   1087.47
LCAOMinimize: 	Predicted alpha/alphaT>3.000000, increasing alphaT to 4.864735e-02.
	FillingsUpdate:  mu: -0.244750000  nElectrons: 209.000000  magneticMoment: [ Abs: 0.00221  Tot: +0.00016 ]
LCAOMinimize: Iter:  22  G: -2167.3472337019065890  |grad|_K:  1.474e-03  alpha:  6.935e-02  linmin:  4.978e-03  cgtest: -5.467e-02  t[s]:   1138.57
	FillingsUpdate:  mu: -0.244750000  nElectrons: 209.000000  magneticMoment: [ Abs: 0.00243  Tot: +0.00002 ]
LCAOMinimize: Iter:  23  G: -2167.4689904027377452  |grad|_K:  8.844e-04  alpha:  3.967e-02  linmin: -3.947e-02  cgtest:  6.713e-01  t[s]:   1179.17
LCAOMinimize: Encountered beta<0, resetting CG.
	FillingsUpdate:  mu: -0.244750000  nElectrons: 209.000000  magneticMoment: [ Abs: 0.00246  Tot: +0.00005 ]
LCAOMinimize: Iter:  24  G: -2167.4882336935675085  |grad|_K:  8.486e-04  alpha:  2.480e-02  linmin: -1.229e-03  cgtest:  2.290e-02  t[s]:   1220.14
	FillingsUpdate:  mu: -0.244750000  nElectrons: 209.000000  magneticMoment: [ Abs: 0.00249  Tot: +0.00018 ]
LCAOMinimize: Iter:  25  G: -2167.5052106441044089  |grad|_K:  4.919e-04  alpha:  2.446e-02  linmin:  5.875e-03  cgtest: -7.806e-02  t[s]:   1261.23
	FillingsUpdate:  mu: -0.244750000  nElectrons: 209.000000  magneticMoment: [ Abs: 0.00252  Tot: +0.00027 ]
LCAOMinimize: Iter:  26  G: -2167.5139111812886767  |grad|_K:  3.408e-04  alpha:  3.931e-02  linmin:  7.133e-04  cgtest:  1.227e-01  t[s]:   1301.82
	FillingsUpdate:  mu: -0.244750000  nElectrons: 209.000000  magneticMoment: [ Abs: 0.00258  Tot: +0.00033 ]
LCAOMinimize: Iter:  27  G: -2167.5222148890056815  |grad|_K:  6.147e-04  alpha:  7.923e-02  linmin:  3.001e-03  cgtest: -4.087e-02  t[s]:   1342.61
	FillingsUpdate:  mu: -0.244750000  nElectrons: 209.000000  magneticMoment: [ Abs: 0.00260  Tot: +0.00033 ]
LCAOMinimize: Iter:  28  G: -2167.5251301497632994  |grad|_K:  3.660e-04  alpha:  6.045e-03  linmin: -1.940e-02  cgtest:  9.480e-01  t[s]:   1383.71
LCAOMinimize: Encountered beta<0, resetting CG.
	FillingsUpdate:  mu: -0.244750000  nElectrons: 209.000000  magneticMoment: [ Abs: 0.00260  Tot: +0.00031 ]
LCAOMinimize: Iter:  29  G: -2167.5263332918129890  |grad|_K:  1.629e-04  alpha:  9.462e-03  linmin:  3.169e-03  cgtest: -2.617e-02  t[s]:   1424.35
	FillingsUpdate:  mu: -0.244750000  nElectrons: 209.000000  magneticMoment: [ Abs: 0.00260  Tot: +0.00030 ]
LCAOMinimize: Iter:  30  G: -2167.5270169416698991  |grad|_K:  1.123e-04  alpha:  2.685e-02  linmin: -3.465e-03  cgtest:  7.998e-02  t[s]:   1465.19
LCAOMinimize: None of the convergence criteria satisfied after 30 iterations.
----- createFluidSolver() ----- (Fluid-side solver setup)
   Initializing fluid molecule 'H2O'
     Initializing site 'O'
       Electron density: proportional to exp(-r/0.36935)*erfc((r-0.51523)/0.36823) with norm 6.826
       Charge density: gaussian nuclear width 0.478731 with net site charge 0.826
       Polarizability: cuspless exponential with width 0.32 and norm 3.73
       Hard sphere radius: 2.57003 bohrs
       Positions in reference frame:
         [ +0.000000 +0.000000 +0.000000 ]
     Initializing site 'H'
       Electron density: proportional to exp(-r/0.34641)*erfc((r-0)/0.390882) with norm 0.587
       Charge density: gaussian nuclear width 0.377945 with net site charge -0.413
       Polarizability: cuspless exponential with width 0.39 and norm 3.3
       Positions in reference frame:
         [ +0.000000 -1.441945 +1.122523 ]
         [ +0.000000 +1.441945 +1.122523 ]
     Net charge: 0   dipole magnitude: 0.927204
     Initializing spherical shell mfKernel with radius 2.61727 Bohr
     deltaS corrections:
       site 'O': -7.54299
       site 'H': -6.83917
   Initializing fluid molecule 'Na+'
     Initializing site 'Na'
       Electron density: proportional to exp(-r/0.19682)*erfc((r-0.71491)/0.41314) with norm 8.1383
       Charge density: gaussian nuclear width 0.365347 with net site charge -1
       Hard sphere radius: 1.86327 bohrs
       Positions in reference frame:
         [ +0.000000 +0.000000 +0.000000 ]
     Net charge: -1   dipole magnitude: 0
     Initializing gaussian mfKernel with width: 1.55004 Bohr
     deltaS corrections:
       site 'Na': -22.3555
   Initializing fluid molecule 'F-'
     Initializing site 'F'
       Electron density: proportional to exp(-r/0.38886)*erfc((r-0)/0.438782) with norm 8
       Charge density: gaussian nuclear width 0.374796 with net site charge 1
       Hard sphere radius: 2.39995 bohrs
       Positions in reference frame:
         [ +0.000000 +0.000000 +0.000000 ]
     Net charge: 1   dipole magnitude: 0
     Initializing gaussian mfKernel with width: 1.59012 Bohr
     deltaS corrections:
       site 'F': -9.04335

Correction to mu due to finite nuclear width = -0.0820568
   Cavity determined by nc: 0.00142 and sigma: 0.707107
   Nonlocal vdW cavity from gaussian model electron density with norm = 8 and sigma = 0.993594 bohr
   Charge asymmetry in cavity with sensitivity pCavity = 36.5 e-bohr/Eh
   Electrostatic cavity expanded by eta = 1.46 bohrs
   Weighted density cavitation model constrained by Nbulk: 0.0049383 bohr^-3, Pvap: 3.14029 kPa, Rvdw: 2.61727 bohr and sigmaBulk: 4.62e-05 Eh/bohr^2 at T: 298 K.
   Weighted density dispersion model using vdW pair potentials with single solvent site with sqrtC6eff: 0.77 SI.


---- Citations for features of the code used in this run ----

   Software package:
      R. Sundararaman, K. Letchworth-Weaver, K.A. Schwarz, D. Gunceler, Y. Ozhabes and T.A. Arias, 'JDFTx: software for joint density-functional theory', SoftwareX 6, 278 (2017)

   gga-PBE exchange-correlation functional:
      J.P. Perdew, K. Burke and M. Ernzerhof, Phys. Rev. Lett. 77, 3865 (1996)

   Pseudopotentials:
      KF Garrity, JW Bennett, KM Rabe and D Vanderbilt, Comput. Mater. Sci. 81, 446 (2014)

   DFT-D3 dispersion correction:
      S. Grimme, J. Antony, S. Ehrlich and H. Krieg, J. Chem. Phys. 132, 154104 (2010)

   DFT-D2 dispersion correction:
      S. Grimme, J. Comput. Chem. 27, 1787 (2006)

   Charge-asymmetric nonlocally-determined local-electric (CANDLE) solvation model:
      R. Sundararaman and W.A. Goddard III, J. Chem. Phys. 142, 064107 (2015)

   Total energy minimization with Auxiliary Hamiltonian:
      C. Freysoldt, S. Boeck, and J. Neugebauer, Phys. Rev. B 79, 241103(R) (2009)

   Grand-canonical (fixed-potential) DFT:
      R. Sundararaman, W. A. Goddard III and T. A. Arias, J. Chem. Phys. 146, 114104 (2017)

   Linear-tetrahedron sampling for density of states:
      G. Lehmann and M. Taut, Phys. status solidi (b) 54, 469 (1972)

This list may not be complete. Please suggest additional citations or
report any other bugs at https://github.com/shankar1729/jdftx/issues

Initialization completed successfully at t[s]:   1472.39


Computing DFT-D3 correction:
# coordination-number Cu 5.593 5.591 7.569 9.120 8.988 9.112 9.122 9.115 8.995 9.125 7.574
# diagonal-C6 Cu 175.00 175.00 175.00 175.00 175.00 175.00 175.00 175.00 175.00 175.00 175.00
EvdW_6 =   -0.066521
EvdW_8 =   -0.099012
Fluid solver invoked on fresh (random / LCAO) wavefunctions
Running a vacuum solve first:

-------- Initial electronic minimization -----------
	FillingsUpdate:  mu: +0.157127293  nElectrons: 209.000000  magneticMoment: [ Abs: 0.00260  Tot: +0.00030 ]
ElecMinimize: Iter:   0  G: -2167.527792874871921  |grad|_K:  2.427e-04  alpha:  1.000e+00
	FillingsUpdate:  mu: +0.002378459  nElectrons: 209.000000  magneticMoment: [ Abs: 0.00246  Tot: +0.00028 ]
	SubspaceRotationAdjust: set factor to 0.922
ElecMinimize: Iter:   1  G: -2168.237504438482574  |grad|_K:  1.252e-04  alpha:  1.001e-01  linmin:  2.635e-04  t[s]:   1556.06
	FillingsUpdate:  mu: +0.438944486  nElectrons: 209.000000  magneticMoment: [ Abs: 0.00191  Tot: +0.00022 ]
	SubspaceRotationAdjust: set factor to 0.523
ElecMinimize: Iter:   2  G: -2168.600293021083417  |grad|_K:  2.074e-04  alpha:  1.776e-01  linmin: -2.181e-04  t[s]:   1607.07
	FillingsUpdate:  mu: +0.256927821  nElectrons: 209.000000  magneticMoment: [ Abs: 0.00113  Tot: +0.00001 ]
	SubspaceRotationAdjust: set factor to 0.311
ElecMinimize: Iter:   3  G: -2168.999418583352053  |grad|_K:  1.027e-04  alpha:  9.459e-02  linmin:  6.131e-05  t[s]:   1657.84
	FillingsUpdate:  mu: +0.245784165  nElectrons: 209.000000  magneticMoment: [ Abs: 0.00097  Tot: +0.00001 ]
	SubspaceRotationAdjust: set factor to 0.213
ElecMinimize: Iter:   4  G: -2169.103456563868349  |grad|_K:  5.822e-05  alpha:  8.494e-02  linmin: -2.330e-05  t[s]:   1708.64
	FillingsUpdate:  mu: +0.155141572  nElectrons: 209.000000  magneticMoment: [ Abs: 0.00086  Tot: +0.00002 ]
	SubspaceRotationAdjust: set factor to 0.164
ElecMinimize: Iter:   5  G: -2169.157834352282862  |grad|_K:  4.414e-05  alpha:  1.251e-01  linmin: -1.511e-05  t[s]:   1759.86
	FillingsUpdate:  mu: +0.169456432  nElectrons: 209.000000  magneticMoment: [ Abs: 0.00080  Tot: +0.00003 ]
	SubspaceRotationAdjust: set factor to 0.219
ElecMinimize: Iter:   6  G: -2169.187115320492467  |grad|_K:  2.466e-05  alpha:  1.179e-01  linmin:  7.976e-07  t[s]:   1811.20
	FillingsUpdate:  mu: +0.130332837  nElectrons: 209.000000  magneticMoment: [ Abs: 0.00071  Tot: +0.00003 ]
	SubspaceRotationAdjust: set factor to 0.188
ElecMinimize: Iter:   7  G: -2169.199151157624783  |grad|_K:  1.816e-05  alpha:  1.573e-01  linmin:  2.957e-06  t[s]:   1862.18
	FillingsUpdate:  mu: +0.110320445  nElectrons: 209.000000  magneticMoment: [ Abs: 0.00063  Tot: +0.00004 ]
	SubspaceRotationAdjust: set factor to 0.231
ElecMinimize: Iter:   8  G: -2169.205628392244762  |grad|_K:  1.441e-05  alpha:  1.561e-01  linmin:  1.085e-05  t[s]:   1913.49
	FillingsUpdate:  mu: +0.105565061  nElectrons: 209.000000  magneticMoment: [ Abs: 0.00057  Tot: +0.00004 ]
	SubspaceRotationAdjust: set factor to 0.224
ElecMinimize: Iter:   9  G: -2169.209934950821207  |grad|_K:  1.058e-05  alpha:  1.656e-01  linmin:  6.562e-06  t[s]:   1964.27
	FillingsUpdate:  mu: +0.106495753  nElectrons: 209.000000  magneticMoment: [ Abs: 0.00053  Tot: +0.00003 ]
	SubspaceRotationAdjust: set factor to 0.257
ElecMinimize: Iter:  10  G: -2169.212350926115050  |grad|_K:  8.824e-06  alpha:  1.719e-01  linmin:  6.199e-06  t[s]:   2014.79
	FillingsUpdate:  mu: +0.105584718  nElectrons: 209.000000  magneticMoment: [ Abs: 0.00050  Tot: +0.00003 ]
	SubspaceRotationAdjust: set factor to 0.295
ElecMinimize: Iter:  11  G: -2169.213903267561818  |grad|_K:  6.834e-06  alpha:  1.590e-01  linmin:  5.651e-06  t[s]:   2065.35
	FillingsUpdate:  mu: +0.103440911  nElectrons: 209.000000  magneticMoment: [ Abs: 0.00046  Tot: +0.00003 ]
	SubspaceRotationAdjust: set factor to 0.331
ElecMinimize: Iter:  12  G: -2169.215081300023485  |grad|_K:  6.657e-06  alpha:  2.012e-01  linmin:  1.864e-06  t[s]:   2115.86
	FillingsUpdate:  mu: +0.100136615  nElectrons: 209.000000  magneticMoment: [ Abs: 0.00042  Tot: +0.00002 ]
	SubspaceRotationAdjust: set factor to 0.381
ElecMinimize: Iter:  13  G: -2169.216046866465604  |grad|_K:  5.742e-06  alpha:  1.734e-01  linmin:  2.254e-06  t[s]:   2167.46
	FillingsUpdate:  mu: +0.095756505  nElectrons: 209.000000  magneticMoment: [ Abs: 0.00038  Tot: +0.00002 ]
	SubspaceRotationAdjust: set factor to 0.414
ElecMinimize: Iter:  14  G: -2169.216844051052249  |grad|_K:  5.649e-06  alpha:  1.928e-01  linmin:  2.617e-06  t[s]:   2218.64
	FillingsUpdate:  mu: +0.094774873  nElectrons: 209.000000  magneticMoment: [ Abs: 0.00032  Tot: +0.00002 ]
	SubspaceRotationAdjust: set factor to 0.447
ElecMinimize: Iter:  15  G: -2169.217546937097268  |grad|_K:  4.508e-06  alpha:  1.758e-01  linmin:  7.837e-07  t[s]:   2269.08
	FillingsUpdate:  mu: +0.096025061  nElectrons: 209.000000  magneticMoment: [ Abs: 0.00029  Tot: +0.00001 ]
	SubspaceRotationAdjust: set factor to 0.415
ElecMinimize: Iter:  16  G: -2169.217872008011000  |grad|_K:  3.474e-06  alpha:  1.272e-01  linmin:  8.866e-08  t[s]:   2320.21
	FillingsUpdate:  mu: +0.095056036  nElectrons: 209.000000  magneticMoment: [ Abs: 0.00024  Tot: +0.00001 ]
	SubspaceRotationAdjust: set factor to 0.368
ElecMinimize: Iter:  17  G: -2169.218129773779310  |grad|_K:  3.644e-06  alpha:  1.698e-01  linmin:  1.061e-06  t[s]:   2370.96
	FillingsUpdate:  mu: +0.094142175  nElectrons: 209.000000  magneticMoment: [ Abs: 0.00020  Tot: +0.00001 ]
	SubspaceRotationAdjust: set factor to 0.308
ElecMinimize: Iter:  18  G: -2169.218315353155049  |grad|_K:  2.545e-06  alpha:  1.113e-01  linmin:  4.542e-08  t[s]:   2422.69
	FillingsUpdate:  mu: +0.095201792  nElectrons: 209.000000  magneticMoment: [ Abs: 0.00016  Tot: +0.00001 ]
	SubspaceRotationAdjust: set factor to 0.329
ElecMinimize: Iter:  19  G: -2169.218426786605960  |grad|_K:  1.987e-06  alpha:  1.367e-01  linmin: -1.168e-07  t[s]:   2473.73
	FillingsUpdate:  mu: +0.096480123  nElectrons: 209.000000  magneticMoment: [ Abs: 0.00013  Tot: +0.00001 ]
	SubspaceRotationAdjust: set factor to 0.347
ElecMinimize: Iter:  20  G: -2169.218503799844257  |grad|_K:  1.599e-06  alpha:  1.549e-01  linmin:  5.856e-07  t[s]:   2525.11
	FillingsUpdate:  mu: +0.096524293  nElectrons: 209.000000  magneticMoment: [ Abs: 0.00010  Tot: +0.00001 ]
	SubspaceRotationAdjust: set factor to 0.337
ElecMinimize: Iter:  21  G: -2169.218548264316723  |grad|_K:  1.376e-06  alpha:  1.383e-01  linmin:  3.087e-07  t[s]:   2576.04
	FillingsUpdate:  mu: +0.096375778  nElectrons: 209.000000  magneticMoment: [ Abs: 0.00008  Tot: +0.00001 ]
	SubspaceRotationAdjust: set factor to 0.313
ElecMinimize: Iter:  22  G: -2169.218581748740689  |grad|_K:  1.070e-06  alpha:  1.406e-01  linmin: -3.806e-08  t[s]:   2628.01
	FillingsUpdate:  mu: +0.096764957  nElectrons: 209.000000  magneticMoment: [ Abs: 0.00006  Tot: +0.00001 ]
	SubspaceRotationAdjust: set factor to 0.369
ElecMinimize: Iter:  23  G: -2169.218601016897992  |grad|_K:  7.592e-07  alpha:  1.336e-01  linmin:  1.836e-06  t[s]:   2679.44
	FillingsUpdate:  mu: +0.097281084  nElectrons: 209.000000  magneticMoment: [ Abs: 0.00004  Tot: +0.00001 ]
	SubspaceRotationAdjust: set factor to 0.38
ElecMinimize: Iter:  24  G: -2169.218614013854221  |grad|_K:  8.055e-07  alpha:  1.793e-01  linmin:  2.712e-06  t[s]:   2731.09
	FillingsUpdate:  mu: +0.097629340  nElectrons: 209.000000  magneticMoment: [ Abs: 0.00004  Tot: +0.00001 ]
	SubspaceRotationAdjust: set factor to 0.33
ElecMinimize: Iter:  25  G: -2169.218624786069995  |grad|_K:  6.310e-07  alpha:  1.321e-01  linmin:  2.607e-06  t[s]:   2782.04
	FillingsUpdate:  mu: +0.097618729  nElectrons: 209.000000  magneticMoment: [ Abs: 0.00003  Tot: +0.00001 ]
	SubspaceRotationAdjust: set factor to 0.353
ElecMinimize: Iter:  26  G: -2169.218631369359173  |grad|_K:  4.975e-07  alpha:  1.315e-01  linmin:  1.305e-06  t[s]:   2833.32
	FillingsUpdate:  mu: +0.097419861  nElectrons: 209.000000  magneticMoment: [ Abs: 0.00003  Tot: +0.00001 ]
	SubspaceRotationAdjust: set factor to 0.414
ElecMinimize: Iter:  27  G: -2169.218636816454818  |grad|_K:  4.320e-07  alpha:  1.751e-01  linmin:  1.435e-06  t[s]:   2884.97
	FillingsUpdate:  mu: +0.097437013  nElectrons: 209.000000  magneticMoment: [ Abs: 0.00003  Tot: +0.00000 ]
	SubspaceRotationAdjust: set factor to 0.407
ElecMinimize: Iter:  28  G: -2169.218640244489052  |grad|_K:  4.046e-07  alpha:  1.461e-01  linmin:  5.163e-07  t[s]:   2935.56
	FillingsUpdate:  mu: +0.097679741  nElectrons: 209.000000  magneticMoment: [ Abs: 0.00003  Tot: +0.00000 ]
	SubspaceRotationAdjust: set factor to 0.36
ElecMinimize: Iter:  29  G: -2169.218642954170264  |grad|_K:  3.589e-07  alpha:  1.316e-01  linmin:  4.106e-07  t[s]:   2986.87
	FillingsUpdate:  mu: +0.097826417  nElectrons: 209.000000  magneticMoment: [ Abs: 0.00003  Tot: +0.00000 ]
	SubspaceRotationAdjust: set factor to 0.383
ElecMinimize: Iter:  30  G: -2169.218645250097325  |grad|_K:  2.893e-07  alpha:  1.417e-01  linmin:  4.801e-07  t[s]:   3039.11
	FillingsUpdate:  mu: +0.097619253  nElectrons: 209.000000  magneticMoment: [ Abs: 0.00002  Tot: +0.00000 ]
	SubspaceRotationAdjust: set factor to 0.424
ElecMinimize: Iter:  31  G: -2169.218647078026152  |grad|_K:  2.556e-07  alpha:  1.737e-01  linmin:  2.401e-07  t[s]:   3090.23
	FillingsUpdate:  mu: +0.097468480  nElectrons: 209.000000  magneticMoment: [ Abs: 0.00002  Tot: +0.00000 ]
	SubspaceRotationAdjust: set factor to 0.405
ElecMinimize: Iter:  32  G: -2169.218648286525422  |grad|_K:  2.126e-07  alpha:  1.470e-01  linmin:  2.129e-09  t[s]:   3141.78
	FillingsUpdate:  mu: +0.097525804  nElectrons: 209.000000  magneticMoment: [ Abs: 0.00002  Tot: +0.00000 ]
	SubspaceRotationAdjust: set factor to 0.345
ElecMinimize: Iter:  33  G: -2169.218648955643857  |grad|_K:  1.861e-07  alpha:  1.176e-01  linmin:  9.220e-08  t[s]:   3193.28
	FillingsUpdate:  mu: +0.097635780  nElectrons: 209.000000  magneticMoment: [ Abs: 0.00001  Tot: +0.00000 ]
	SubspaceRotationAdjust: set factor to 0.304
ElecMinimize: Iter:  34  G: -2169.218649577213455  |grad|_K:  1.524e-07  alpha:  1.426e-01  linmin:  1.644e-07  t[s]:   3244.48
	FillingsUpdate:  mu: +0.097626158  nElectrons: 209.000000  magneticMoment: [ Abs: 0.00001  Tot: -0.00000 ]
	SubspaceRotationAdjust: set factor to 0.346
ElecMinimize: Iter:  35  G: -2169.218650019893175  |grad|_K:  1.247e-07  alpha:  1.515e-01  linmin:  8.347e-08  t[s]:   3295.60
	FillingsUpdate:  mu: +0.097565917  nElectrons: 209.000000  magneticMoment: [ Abs: 0.00001  Tot: -0.00000 ]
	SubspaceRotationAdjust: set factor to 0.328
ElecMinimize: Iter:  36  G: -2169.218650308880569  |grad|_K:  1.022e-07  alpha:  1.477e-01  linmin:  1.149e-07  t[s]:   3346.37
	FillingsUpdate:  mu: +0.097523348  nElectrons: 209.000000  magneticMoment: [ Abs: 0.00001  Tot: -0.00000 ]
	SubspaceRotationAdjust: set factor to 0.293
ElecMinimize: Iter:  37  G: -2169.218650482412613  |grad|_K:  8.294e-08  alpha:  1.318e-01  linmin: -2.330e-07  t[s]:   3397.73
	FillingsUpdate:  mu: +0.097522083  nElectrons: 209.000000  magneticMoment: [ Abs: 0.00001  Tot: -0.00000 ]
	SubspaceRotationAdjust: set factor to 0.334
ElecMinimize: Iter:  38  G: -2169.218650619508935  |grad|_K:  6.710e-08  alpha:  1.580e-01  linmin: -3.136e-07  t[s]:   3448.85
	FillingsUpdate:  mu: +0.097547750  nElectrons: 209.000000  magneticMoment: [ Abs: 0.00001  Tot: -0.00000 ]
	SubspaceRotationAdjust: set factor to 0.355
ElecMinimize: Iter:  39  G: -2169.218650704654920  |grad|_K:  5.562e-08  alpha:  1.502e-01  linmin:  6.633e-07  t[s]:   3499.97
	FillingsUpdate:  mu: +0.097548953  nElectrons: 209.000000  magneticMoment: [ Abs: 0.00000  Tot: -0.00000 ]
	SubspaceRotationAdjust: set factor to 0.338
ElecMinimize: Iter:  40  G: -2169.218650766511018  |grad|_K:  5.444e-08  alpha:  1.593e-01  linmin: -3.310e-07  t[s]:   3551.05
ElecMinimize: Converged (|Delta G|<1.000000e-07 for 2 iters).
Setting wave functions to eigenvectors of Hamiltonian
Converging empty states (this may take a while): |deigs|: 2.089e-02
Vacuum energy after initial minimize, F = -2169.218650766511018

Shifting auxilliary hamiltonian by -0.342299 to set nElectrons=209.000000

-------- Electronic minimization -----------
	Linear fluid (dielectric constant: 78.4, screening length: 8.12261 Bohr) occupying 0.535802 of unit cell:	Completed after 23 iterations at t[s]:   3709.44
	FillingsUpdate:  mu: -0.244750000  nElectrons: 209.000000  magneticMoment: [ Abs: 0.00000  Tot: -0.00000 ]
ElecMinimize: Iter:   0  G: -2169.218849074793070  |grad|_K:  3.089e-05  alpha:  1.000e+00
	Linear fluid (dielectric constant: 78.4, screening length: 8.12261 Bohr) occupying 0.544497 of unit cell:	Completed after 26 iterations at t[s]:   3753.33
	Linear fluid (dielectric constant: 78.4, screening length: 8.12261 Bohr) occupying 0.536270 of unit cell:	Completed after 24 iterations at t[s]:   3767.92
	FillingsUpdate:  mu: -0.244750000  nElectrons: 208.911715  magneticMoment: [ Abs: 0.00000  Tot: -0.00000 ]
	SubspaceRotationAdjust: set factor to 0.195
ElecMinimize: Iter:   1  G: -2169.222796308951274  |grad|_K:  1.180e-05  alpha:  3.060e-02  linmin: -6.212e-03  t[s]:   3789.86
	Linear fluid (dielectric constant: 78.4, screening length: 8.12261 Bohr) occupying 0.536660 of unit cell:	Completed after 15 iterations at t[s]:   3807.33
ElecMinimize: 	Predicted alpha/alphaT>3.000000, increasing alphaT to 9.180663e-02.
	Linear fluid (dielectric constant: 78.4, screening length: 8.12261 Bohr) occupying 0.537454 of unit cell:	Completed after 16 iterations at t[s]:   3821.35
	Linear fluid (dielectric constant: 78.4, screening length: 8.12261 Bohr) occupying 0.539657 of unit cell:	Completed after 21 iterations at t[s]:   3835.85
	FillingsUpdate:  mu: -0.244750000  nElectrons: 208.748263  magneticMoment: [ Abs: 0.00000  Tot: -0.00000 ]
	SubspaceRotationAdjust: set factor to 0.124
ElecMinimize: Iter:   2  G: -2169.227617206411196  |grad|_K:  1.533e-05  alpha:  2.678e-01  linmin:  5.166e-04  t[s]:   3858.50
	Linear fluid (dielectric constant: 78.4, screening length: 8.12261 Bohr) occupying 0.544795 of unit cell:	Completed after 21 iterations at t[s]:   3876.35
	Linear fluid (dielectric constant: 78.4, screening length: 8.12261 Bohr) occupying 0.540951 of unit cell:	Completed after 20 iterations at t[s]:   3890.93
	FillingsUpdate:  mu: -0.244750000  nElectrons: 208.741672  magneticMoment: [ Abs: 0.00000  Tot: -0.00000 ]
	SubspaceRotationAdjust: set factor to 0.184
ElecMinimize: Iter:   3  G: -2169.229572406741681  |grad|_K:  7.970e-06  alpha:  5.878e-02  linmin: -2.125e-03  t[s]:   3913.49
	Linear fluid (dielectric constant: 78.4, screening length: 8.12261 Bohr) occupying 0.541455 of unit cell:	Completed after 16 iterations at t[s]:   3930.93
	Linear fluid (dielectric constant: 78.4, screening length: 8.12261 Bohr) occupying 0.541908 of unit cell:	Completed after 13 iterations at t[s]:   3944.93
	FillingsUpdate:  mu: -0.244750000  nElectrons: 208.744099  magneticMoment: [ Abs: 0.00000  Tot: -0.00000 ]
	SubspaceRotationAdjust: set factor to 0.144
ElecMinimize: Iter:   4  G: -2169.230584666170671  |grad|_K:  9.325e-06  alpha:  1.132e-01  linmin:  2.926e-04  t[s]:   3967.42
	Linear fluid (dielectric constant: 78.4, screening length: 8.12261 Bohr) occupying 0.543558 of unit cell:	Completed after 19 iterations at t[s]:   3985.37
	Linear fluid (dielectric constant: 78.4, screening length: 8.12261 Bohr) occupying 0.543765 of unit cell:	Completed after 13 iterations at t[s]:   3999.27
	FillingsUpdate:  mu: -0.244750000  nElectrons: 208.712029  magneticMoment: [ Abs: 0.00001  Tot: -0.00000 ]
	SubspaceRotationAdjust: set factor to 0.174
ElecMinimize: Iter:   5  G: -2169.231968080669958  |grad|_K:  1.191e-05  alpha:  1.280e-01  linmin: -1.620e-04  t[s]:   4021.76
	Linear fluid (dielectric constant: 78.4, screening length: 8.12261 Bohr) occupying 0.547031 of unit cell:	Completed after 21 iterations at t[s]:   4039.61
	Linear fluid (dielectric constant: 78.4, screening length: 8.12261 Bohr) occupying 0.546501 of unit cell:	Completed after 15 iterations at t[s]:   4053.62
	FillingsUpdate:  mu: -0.244750000  nElectrons: 208.655500  magneticMoment: [ Abs: 0.00001  Tot: +0.00000 ]
	SubspaceRotationAdjust: set factor to 0.169
ElecMinimize: Iter:   6  G: -2169.233969935041387  |grad|_K:  1.076e-05  alpha:  1.074e-01  linmin:  1.058e-04  t[s]:   4076.05
	Linear fluid (dielectric constant: 78.4, screening length: 8.12261 Bohr) occupying 0.549017 of unit cell:	Completed after 16 iterations at t[s]:   4093.88
	Linear fluid (dielectric constant: 78.4, screening length: 8.12261 Bohr) occupying 0.548446 of unit cell:	Completed after 12 iterations at t[s]:   4107.83
	FillingsUpdate:  mu: -0.244750000  nElectrons: 208.637855  magneticMoment: [ Abs: 0.00001  Tot: +0.00001 ]
	SubspaceRotationAdjust: set factor to 0.207
ElecMinimize: Iter:   7  G: -2169.235142629372149  |grad|_K:  9.325e-06  alpha:  8.202e-02  linmin: -2.762e-05  t[s]:   4130.19
	Linear fluid (dielectric constant: 78.4, screening length: 8.12261 Bohr) occupying 0.550019 of unit cell:	Completed after 19 iterations at t[s]:   4148.12
	Linear fluid (dielectric constant: 78.4, screening length: 8.12261 Bohr) occupying 0.550418 of unit cell:	Completed after 13 iterations at t[s]:   4162.24
	FillingsUpdate:  mu: -0.244750000  nElectrons: 208.636198  magneticMoment: [ Abs: 0.00001  Tot: +0.00001 ]
	SubspaceRotationAdjust: set factor to 0.198
ElecMinimize: Iter:   8  G: -2169.236274093163502  |grad|_K:  1.049e-05  alpha:  1.043e-01  linmin:  2.543e-04  t[s]:   4184.29
	Linear fluid (dielectric constant: 78.4, screening length: 8.12261 Bohr) occupying 0.552788 of unit cell:	Completed after 18 iterations at t[s]:   4202.23
	Linear fluid (dielectric constant: 78.4, screening length: 8.12261 Bohr) occupying 0.552125 of unit cell:	Completed after 15 iterations at t[s]:   4216.44
	FillingsUpdate:  mu: -0.244750000  nElectrons: 208.612009  magneticMoment: [ Abs: 0.00001  Tot: +0.00000 ]
	SubspaceRotationAdjust: set factor to 0.258
ElecMinimize: Iter:   9  G: -2169.237226169010682  |grad|_K:  8.307e-06  alpha:  7.308e-02  linmin: -2.803e-05  t[s]:   4238.86
	Linear fluid (dielectric constant: 78.4, screening length: 8.12261 Bohr) occupying 0.553219 of unit cell:	Completed after 19 iterations at t[s]:   4256.78
	Linear fluid (dielectric constant: 78.4, screening length: 8.12261 Bohr) occupying 0.553159 of unit cell:	Completed after 13 iterations at t[s]:   4270.82
	FillingsUpdate:  mu: -0.244750000  nElectrons: 208.577680  magneticMoment: [ Abs: 0.00001  Tot: -0.00000 ]
	SubspaceRotationAdjust: set factor to 0.236
ElecMinimize: Iter:  10  G: -2169.237826427238815  |grad|_K:  7.984e-06  alpha:  6.886e-02  linmin: -3.296e-05  t[s]:   4293.03
	Linear fluid (dielectric constant: 78.4, screening length: 8.12261 Bohr) occupying 0.554196 of unit cell:	Completed after 18 iterations at t[s]:   4310.74
	Linear fluid (dielectric constant: 78.4, screening length: 8.12261 Bohr) occupying 0.555205 of unit cell:	Completed after 17 iterations at t[s]:   4325.08
	FillingsUpdate:  mu: -0.244750000  nElectrons: 208.535159  magneticMoment: [ Abs: 0.00001  Tot: -0.00000 ]
	SubspaceRotationAdjust: set factor to 0.218
ElecMinimize: Iter:  11  G: -2169.238960262771798  |grad|_K:  1.008e-05  alpha:  1.412e-01  linmin:  3.913e-05  t[s]:   4347.60
	Linear fluid (dielectric constant: 78.4, screening length: 8.12261 Bohr) occupying 0.558068 of unit cell:	Completed after 18 iterations at t[s]:   4365.33
	Linear fluid (dielectric constant: 78.4, screening length: 8.12261 Bohr) occupying 0.556457 of unit cell:	Completed after 16 iterations at t[s]:   4379.72
	FillingsUpdate:  mu: -0.244750000  nElectrons: 208.537144  magneticMoment: [ Abs: 0.00001  Tot: -0.00000 ]
	SubspaceRotationAdjust: set factor to 0.228
ElecMinimize: Iter:  12  G: -2169.239673403425968  |grad|_K:  5.825e-06  alpha:  5.735e-02  linmin:  4.689e-05  t[s]:   4402.05
	Linear fluid (dielectric constant: 78.4, screening length: 8.12261 Bohr) occupying 0.556890 of unit cell:	Completed after 18 iterations at t[s]:   4419.92
	Linear fluid (dielectric constant: 78.4, screening length: 8.12261 Bohr) occupying 0.557036 of unit cell:	Completed after 13 iterations at t[s]:   4433.86
	FillingsUpdate:  mu: -0.244750000  nElectrons: 208.538354  magneticMoment: [ Abs: 0.00001  Tot: -0.00000 ]
	SubspaceRotationAdjust: set factor to 0.218
ElecMinimize: Iter:  13  G: -2169.240000888068607  |grad|_K:  5.105e-06  alpha:  7.723e-02  linmin: -3.313e-05  t[s]:   4456.27
	Linear fluid (dielectric constant: 78.4, screening length: 8.12261 Bohr) occupying 0.557492 of unit cell:	Completed after 18 iterations at t[s]:   4474.19
	Linear fluid (dielectric constant: 78.4, screening length: 8.12261 Bohr) occupying 0.557488 of unit cell:	Completed after 7 iterations at t[s]:   4487.96
	FillingsUpdate:  mu: -0.244750000  nElectrons: 208.522663  magneticMoment: [ Abs: 0.00001  Tot: -0.00000 ]
	SubspaceRotationAdjust: set factor to 0.22
ElecMinimize: Iter:  14  G: -2169.240252582685116  |grad|_K:  4.777e-06  alpha:  7.644e-02  linmin:  1.537e-05  t[s]:   4510.46
	Linear fluid (dielectric constant: 78.4, screening length: 8.12261 Bohr) occupying 0.557887 of unit cell:	Completed after 18 iterations at t[s]:   4528.05
	Linear fluid (dielectric constant: 78.4, screening length: 8.12261 Bohr) occupying 0.558214 of unit cell:	Completed after 19 iterations at t[s]:   4542.63
	FillingsUpdate:  mu: -0.244750000  nElectrons: 208.505775  magneticMoment: [ Abs: 0.00000  Tot: +0.00000 ]
	SubspaceRotationAdjust: set factor to 0.186
ElecMinimize: Iter:  15  G: -2169.240662977870670  |grad|_K:  6.518e-06  alpha:  1.437e-01  linmin:  2.060e-05  t[s]:   4565.17
	Linear fluid (dielectric constant: 78.4, screening length: 8.12261 Bohr) occupying 0.559324 of unit cell:	Completed after 20 iterations at t[s]:   4583.00
	Linear fluid (dielectric constant: 78.4, screening length: 8.12261 Bohr) occupying 0.558744 of unit cell:	Completed after 19 iterations at t[s]:   4597.60
	FillingsUpdate:  mu: -0.244750000  nElectrons: 208.514608  magneticMoment: [ Abs: 0.00000  Tot: +0.00000 ]
	SubspaceRotationAdjust: set factor to 0.255
ElecMinimize: Iter:  16  G: -2169.240996881561387  |grad|_K:  3.563e-06  alpha:  6.302e-02  linmin:  9.203e-06  t[s]:   4620.17
	Linear fluid (dielectric constant: 78.4, screening length: 8.12261 Bohr) occupying 0.558888 of unit cell:	Completed after 16 iterations at t[s]:   4637.98
	Linear fluid (dielectric constant: 78.4, screening length: 8.12261 Bohr) occupying 0.558908 of unit cell:	Completed after 12 iterations at t[s]:   4651.90
	FillingsUpdate:  mu: -0.244750000  nElectrons: 208.520533  magneticMoment: [ Abs: 0.00000  Tot: +0.00000 ]
	SubspaceRotationAdjust: set factor to 0.247
ElecMinimize: Iter:  17  G: -2169.241111566895142  |grad|_K:  3.245e-06  alpha:  7.187e-02  linmin: -5.337e-06  t[s]:   4674.41
	Linear fluid (dielectric constant: 78.4, screening length: 8.12261 Bohr) occupying 0.559038 of unit cell:	Completed after 18 iterations at t[s]:   4691.68
	Linear fluid (dielectric constant: 78.4, screening length: 8.12261 Bohr) occupying 0.559055 of unit cell:	Completed after 13 iterations at t[s]:   4705.81
	FillingsUpdate:  mu: -0.244750000  nElectrons: 208.512271  magneticMoment: [ Abs: 0.00000  Tot: +0.00000 ]
	SubspaceRotationAdjust: set factor to 0.262
ElecMinimize: Iter:  18  G: -2169.241219558989087  |grad|_K:  2.876e-06  alpha:  8.143e-02  linmin:  3.622e-06  t[s]:   4728.32
	Linear fluid (dielectric constant: 78.4, screening length: 8.12261 Bohr) occupying 0.559166 of unit cell:	Completed after 19 iterations at t[s]:   4746.11
	Linear fluid (dielectric constant: 78.4, screening length: 8.12261 Bohr) occupying 0.559211 of unit cell:	Completed after 16 iterations at t[s]:   4760.23
	FillingsUpdate:  mu: -0.244750000  nElectrons: 208.503157  magneticMoment: [ Abs: 0.00000  Tot: +0.00000 ]
	SubspaceRotationAdjust: set factor to 0.202
ElecMinimize: Iter:  19  G: -2169.241340501503601  |grad|_K:  3.296e-06  alpha:  1.163e-01  linmin:  1.247e-05  t[s]:   4782.59
	Linear fluid (dielectric constant: 78.4, screening length: 8.12261 Bohr) occupying 0.559402 of unit cell:	Completed after 19 iterations at t[s]:   4800.32
	Linear fluid (dielectric constant: 78.4, screening length: 8.12261 Bohr) occupying 0.559304 of unit cell:	Completed after 19 iterations at t[s]:   4814.90
	FillingsUpdate:  mu: -0.244750000  nElectrons: 208.508137  magneticMoment: [ Abs: 0.00001  Tot: +0.00000 ]
	SubspaceRotationAdjust: set factor to 0.246
ElecMinimize: Iter:  20  G: -2169.241414147127671  |grad|_K:  1.794e-06  alpha:  5.395e-02  linmin:  1.106e-06  t[s]:   4837.38
	Linear fluid (dielectric constant: 78.4, screening length: 8.12261 Bohr) occupying 0.559333 of unit cell:	Completed after 13 iterations at t[s]:   4854.85
	Linear fluid (dielectric constant: 78.4, screening length: 8.12261 Bohr) occupying 0.559360 of unit cell:	Completed after 13 iterations at t[s]:   4868.87
	FillingsUpdate:  mu: -0.244750000  nElectrons: 208.510921  magneticMoment: [ Abs: 0.00001  Tot: +0.00000 ]
	SubspaceRotationAdjust: set factor to 0.21
ElecMinimize: Iter:  21  G: -2169.241456691965141  |grad|_K:  2.073e-06  alpha:  1.050e-01  linmin: -6.125e-06  t[s]:   4891.19
	Linear fluid (dielectric constant: 78.4, screening length: 8.12261 Bohr) occupying 0.559438 of unit cell:	Completed after 19 iterations at t[s]:   4908.99
	Linear fluid (dielectric constant: 78.4, screening length: 8.12261 Bohr) occupying 0.559415 of unit cell:	Completed after 16 iterations at t[s]:   4923.45
	FillingsUpdate:  mu: -0.244750000  nElectrons: 208.505126  magneticMoment: [ Abs: 0.00001  Tot: +0.00000 ]
	SubspaceRotationAdjust: set factor to 0.209
ElecMinimize: Iter:  22  G: -2169.241496512259801  |grad|_K:  1.539e-06  alpha:  7.348e-02  linmin:  3.493e-06  t[s]:   4946.10
	Linear fluid (dielectric constant: 78.4, screening length: 8.12261 Bohr) occupying 0.559450 of unit cell:	Completed after 18 iterations at t[s]:   4963.92
	Linear fluid (dielectric constant: 78.4, screening length: 8.12261 Bohr) occupying 0.559456 of unit cell:	Completed after 10 iterations at t[s]:   4977.59
	FillingsUpdate:  mu: -0.244750000  nElectrons: 208.502124  magneticMoment: [ Abs: 0.00001  Tot: +0.00000 ]
	SubspaceRotationAdjust: set factor to 0.206
ElecMinimize: Iter:  23  G: -2169.241522338411414  |grad|_K:  1.278e-06  alpha:  8.666e-02  linmin: -4.578e-07  t[s]:   5000.18
	Linear fluid (dielectric constant: 78.4, screening length: 8.12261 Bohr) occupying 0.559491 of unit cell:	Completed after 15 iterations at t[s]:   5017.92
	Linear fluid (dielectric constant: 78.4, screening length: 8.12261 Bohr) occupying 0.559484 of unit cell:	Completed after 11 iterations at t[s]:   5032.11
	FillingsUpdate:  mu: -0.244750000  nElectrons: 208.504861  magneticMoment: [ Abs: 0.00001  Tot: +0.00000 ]
	SubspaceRotationAdjust: set factor to 0.208
ElecMinimize: Iter:  24  G: -2169.241536879364048  |grad|_K:  1.036e-06  alpha:  7.071e-02  linmin:  4.015e-06  t[s]:   5054.60
	Linear fluid (dielectric constant: 78.4, screening length: 8.12261 Bohr) occupying 0.559507 of unit cell:	Completed after 12 iterations at t[s]:   5071.63
	Linear fluid (dielectric constant: 78.4, screening length: 8.12261 Bohr) occupying 0.559527 of unit cell:	Completed after 12 iterations at t[s]:   5085.55
	FillingsUpdate:  mu: -0.244750000  nElectrons: 208.507260  magneticMoment: [ Abs: 0.00001  Tot: +0.00000 ]
	SubspaceRotationAdjust: set factor to 0.179
ElecMinimize: Iter:  25  G: -2169.241554670496498  |grad|_K:  1.203e-06  alpha:  1.317e-01  linmin: -2.718e-06  t[s]:   5108.11
	Linear fluid (dielectric constant: 78.4, screening length: 8.12261 Bohr) occupying 0.559589 of unit cell:	Completed after 18 iterations at t[s]:   5126.02
	Linear fluid (dielectric constant: 78.4, screening length: 8.12261 Bohr) occupying 0.559558 of unit cell:	Completed after 16 iterations at t[s]:   5140.15
	FillingsUpdate:  mu: -0.244750000  nElectrons: 208.504783  magneticMoment: [ Abs: 0.00001  Tot: +0.00000 ]
	SubspaceRotationAdjust: set factor to 0.209
ElecMinimize: Iter:  26  G: -2169.241566580687504  |grad|_K:  7.411e-07  alpha:  6.534e-02  linmin: -1.777e-06  t[s]:   5162.56
	Linear fluid (dielectric constant: 78.4, screening length: 8.12261 Bohr) occupying 0.559574 of unit cell:	Completed after 13 iterations at t[s]:   5180.03
	Linear fluid (dielectric constant: 78.4, screening length: 8.12261 Bohr) occupying 0.559580 of unit cell:	Completed after 10 iterations at t[s]:   5194.07
	FillingsUpdate:  mu: -0.244750000  nElectrons: 208.503146  magneticMoment: [ Abs: 0.00001  Tot: +0.00000 ]
	SubspaceRotationAdjust: set factor to 0.213
ElecMinimize: Iter:  27  G: -2169.241572808700312  |grad|_K:  6.937e-07  alpha:  9.006e-02  linmin:  1.721e-07  t[s]:   5216.36
	Linear fluid (dielectric constant: 78.4, screening length: 8.12261 Bohr) occupying 0.559606 of unit cell:	Completed after 13 iterations at t[s]:   5233.59
	Linear fluid (dielectric constant: 78.4, screening length: 8.12261 Bohr) occupying 0.559604 of unit cell:	Completed after 6 iterations at t[s]:   5247.19
	FillingsUpdate:  mu: -0.244750000  nElectrons: 208.504161  magneticMoment: [ Abs: 0.00000  Tot: +0.00000 ]
	SubspaceRotationAdjust: set factor to 0.213
ElecMinimize: Iter:  28  G: -2169.241577927041362  |grad|_K:  6.243e-07  alpha:  8.451e-02  linmin:  2.078e-06  t[s]:   5269.92
	Linear fluid (dielectric constant: 78.4, screening length: 8.12261 Bohr) occupying 0.559630 of unit cell:	Completed after 11 iterations at t[s]:   5287.16
	Linear fluid (dielectric constant: 78.4, screening length: 8.12261 Bohr) occupying 0.559638 of unit cell:	Completed after 10 iterations at t[s]:   5300.84
	FillingsUpdate:  mu: -0.244750000  nElectrons: 208.504463  magneticMoment: [ Abs: 0.00000  Tot: +0.00000 ]
	SubspaceRotationAdjust: set factor to 0.207
ElecMinimize: Iter:  29  G: -2169.241583425455701  |grad|_K:  5.982e-07  alpha:  1.121e-01  linmin:  1.972e-06  t[s]:   5323.54
	Linear fluid (dielectric constant: 78.4, screening length: 8.12261 Bohr) occupying 0.559673 of unit cell:	Completed after 12 iterations at t[s]:   5341.14
	Linear fluid (dielectric constant: 78.4, screening length: 8.12261 Bohr) occupying 0.559658 of unit cell:	Completed after 13 iterations at t[s]:   5355.13
	FillingsUpdate:  mu: -0.244750000  nElectrons: 208.502727  magneticMoment: [ Abs: 0.00000  Tot: +0.00000 ]
	SubspaceRotationAdjust: set factor to 0.215
ElecMinimize: Iter:  30  G: -2169.241586290761461  |grad|_K:  4.198e-07  alpha:  6.363e-02  linmin: -8.429e-08  t[s]:   5377.51
	Linear fluid (dielectric constant: 78.4, screening length: 8.12261 Bohr) occupying 0.559671 of unit cell:	Completed after 10 iterations at t[s]:   5394.61
	Linear fluid (dielectric constant: 78.4, screening length: 8.12261 Bohr) occupying 0.559685 of unit cell:	Completed after 10 iterations at t[s]:   5408.70
	FillingsUpdate:  mu: -0.244750000  nElectrons: 208.501287  magneticMoment: [ Abs: 0.00000  Tot: +0.00000 ]
	SubspaceRotationAdjust: set factor to 0.237
ElecMinimize: Iter:  31  G: -2169.241589187100999  |grad|_K:  5.121e-07  alpha:  1.305e-01  linmin: -4.910e-07  t[s]:   5431.28
	Linear fluid (dielectric constant: 78.4, screening length: 8.12261 Bohr) occupying 0.559731 of unit cell:	Completed after 14 iterations at t[s]:   5448.51
	Linear fluid (dielectric constant: 78.4, screening length: 8.12261 Bohr) occupying 0.559712 of unit cell:	Completed after 13 iterations at t[s]:   5462.56
	FillingsUpdate:  mu: -0.244750000  nElectrons: 208.501826  magneticMoment: [ Abs: 0.00000  Tot: +0.00000 ]
	SubspaceRotationAdjust: set factor to 0.222
ElecMinimize: Iter:  32  G: -2169.241591692501515  |grad|_K:  3.775e-07  alpha:  7.582e-02  linmin:  2.532e-06  t[s]:   5485.16
	Linear fluid (dielectric constant: 78.4, screening length: 8.12261 Bohr) occupying 0.559730 of unit cell:	Completed after 10 iterations at t[s]:   5502.29
	Linear fluid (dielectric constant: 78.4, screening length: 8.12261 Bohr) occupying 0.559733 of unit cell:	Completed after 3 iterations at t[s]:   5515.64
	FillingsUpdate:  mu: -0.244750000  nElectrons: 208.501837  magneticMoment: [ Abs: 0.00000  Tot: +0.00000 ]
	SubspaceRotationAdjust: set factor to 0.269
ElecMinimize: Iter:  33  G: -2169.241593292094876  |grad|_K:  3.138e-07  alpha:  8.921e-02  linmin: -1.216e-05  t[s]:   5538.01
	Linear fluid (dielectric constant: 78.4, screening length: 8.12261 Bohr) occupying 0.559751 of unit cell:	Completed after 12 iterations at t[s]:   5555.68
	Linear fluid (dielectric constant: 78.4, screening length: 8.12261 Bohr) occupying 0.559751 of unit cell:	Completed after 0 iterations at t[s]:   5569.05
	FillingsUpdate:  mu: -0.244750000  nElectrons: 208.500805  magneticMoment: [ Abs: 0.00000  Tot: +0.00000 ]
	SubspaceRotationAdjust: set factor to 0.244
ElecMinimize: Iter:  34  G: -2169.241594378188893  |grad|_K:  3.239e-07  alpha:  8.736e-02  linmin:  5.817e-05  t[s]:   5591.32
	Linear fluid (dielectric constant: 78.4, screening length: 8.12261 Bohr) occupying 0.559773 of unit cell:	Completed after 9 iterations at t[s]:   5608.70
	Linear fluid (dielectric constant: 78.4, screening length: 8.12261 Bohr) occupying 0.559786 of unit cell:	Completed after 8 iterations at t[s]:   5622.52
	FillingsUpdate:  mu: -0.244750000  nElectrons: 208.500536  magneticMoment: [ Abs: 0.00000  Tot: +0.00000 ]
	SubspaceRotationAdjust: set factor to 0.298
ElecMinimize: Iter:  35  G: -2169.241596180298984  |grad|_K:  2.939e-07  alpha:  1.393e-01  linmin:  5.374e-06  t[s]:   5645.00
	Linear fluid (dielectric constant: 78.4, screening length: 8.12261 Bohr) occupying 0.559820 of unit cell:	Completed after 12 iterations at t[s]:   5662.05
	Linear fluid (dielectric constant: 78.4, screening length: 8.12261 Bohr) occupying 0.559804 of unit cell:	Completed after 11 iterations at t[s]:   5676.02
	FillingsUpdate:  mu: -0.244750000  nElectrons: 208.501009  magneticMoment: [ Abs: 0.00000  Tot: +0.00000 ]
	SubspaceRotationAdjust: set factor to 0.251
ElecMinimize: Iter:  36  G: -2169.241596951914744  |grad|_K:  2.360e-07  alpha:  7.152e-02  linmin:  1.226e-06  t[s]:   5698.53
	Linear fluid (dielectric constant: 78.4, screening length: 8.12261 Bohr) occupying 0.559817 of unit cell:	Completed after 10 iterations at t[s]:   5715.79
	Linear fluid (dielectric constant: 78.4, screening length: 8.12261 Bohr) occupying 0.559819 of unit cell:	Completed after 2 iterations at t[s]:   5728.85
	FillingsUpdate:  mu: -0.244750000  nElectrons: 208.500392  magneticMoment: [ Abs: 0.00000  Tot: +0.00000 ]
	SubspaceRotationAdjust: set factor to 0.249
ElecMinimize: Iter:  37  G: -2169.241597514459954  |grad|_K:  1.945e-07  alpha:  8.023e-02  linmin: -1.487e-05  t[s]:   5751.47
	Linear fluid (dielectric constant: 78.4, screening length: 8.12261 Bohr) occupying 0.559830 of unit cell:	Completed after 9 iterations at t[s]:   5768.64
	Linear fluid (dielectric constant: 78.4, screening length: 8.12261 Bohr) occupying 0.559841 of unit cell:	Completed after 9 iterations at t[s]:   5782.26
	FillingsUpdate:  mu: -0.244750000  nElectrons: 208.499892  magneticMoment: [ Abs: 0.00000  Tot: +0.00000 ]
	SubspaceRotationAdjust: set factor to 0.279
ElecMinimize: Iter:  38  G: -2169.241598257302485  |grad|_K:  2.136e-07  alpha:  1.541e-01  linmin: -2.216e-05  t[s]:   5804.63
	Linear fluid (dielectric constant: 78.4, screening length: 8.12261 Bohr) occupying 0.559872 of unit cell:	Completed after 12 iterations at t[s]:   5822.31
	Linear fluid (dielectric constant: 78.4, screening length: 8.12261 Bohr) occupying 0.559855 of unit cell:	Completed after 10 iterations at t[s]:   5835.66
	FillingsUpdate:  mu: -0.244750000  nElectrons: 208.500220  magneticMoment: [ Abs: 0.00000  Tot: +0.00000 ]
	SubspaceRotationAdjust: set factor to 0.215
ElecMinimize: Iter:  39  G: -2169.241598658906241  |grad|_K:  1.549e-07  alpha:  6.882e-02  linmin:  1.579e-06  t[s]:   5857.97
	Linear fluid (dielectric constant: 78.4, screening length: 8.12261 Bohr) occupying 0.559863 of unit cell:	Completed after 7 iterations at t[s]:   5875.17
	Linear fluid (dielectric constant: 78.4, screening length: 8.12261 Bohr) occupying 0.559866 of unit cell:	Completed after 2 iterations at t[s]:   5888.66
	FillingsUpdate:  mu: -0.244750000  nElectrons: 208.499885  magneticMoment: [ Abs: 0.00000  Tot: +0.00000 ]
	SubspaceRotationAdjust: set factor to 0.255
ElecMinimize: Iter:  40  G: -2169.241598939664527  |grad|_K:  1.219e-07  alpha:  9.304e-02  linmin: -6.891e-06  t[s]:   5910.93
	Linear fluid (dielectric constant: 78.4, screening length: 8.12261 Bohr) occupying 0.559874 of unit cell:	Completed after 10 iterations at t[s]:   5928.05
	Linear fluid (dielectric constant: 78.4, screening length: 8.12261 Bohr) occupying 0.559877 of unit cell:	Completed after 6 iterations at t[s]:   5941.91
	FillingsUpdate:  mu: -0.244750000  nElectrons: 208.499413  magneticMoment: [ Abs: 0.00000  Tot: +0.00000 ]
	SubspaceRotationAdjust: set factor to 0.248
ElecMinimize: Iter:  41  G: -2169.241599185761970  |grad|_K:  1.362e-07  alpha:  1.294e-01  linmin: -6.011e-05  t[s]:   5964.41
	Linear fluid (dielectric constant: 78.4, screening length: 8.12261 Bohr) occupying 0.559892 of unit cell:	Completed after 11 iterations at t[s]:   5981.60
	Linear fluid (dielectric constant: 78.4, screening length: 8.12261 Bohr) occupying 0.559885 of unit cell:	Completed after 9 iterations at t[s]:   5995.88
	FillingsUpdate:  mu: -0.244750000  nElectrons: 208.499547  magneticMoment: [ Abs: 0.00000  Tot: +0.00000 ]
	SubspaceRotationAdjust: set factor to 0.204
ElecMinimize: Iter:  42  G: -2169.241599355951166  |grad|_K:  8.826e-08  alpha:  7.028e-02  linmin:  3.950e-06  t[s]:   6018.52
	Linear fluid (dielectric constant: 78.4, screening length: 8.12261 Bohr) occupying 0.559889 of unit cell:	Completed after 2 iterations at t[s]:   6034.90
	Linear fluid (dielectric constant: 78.4, screening length: 8.12261 Bohr) occupying 0.559891 of unit cell:	Completed after 2 iterations at t[s]:   6048.08
	FillingsUpdate:  mu: -0.244750000  nElectrons: 208.499434  magneticMoment: [ Abs: 0.00000  Tot: +0.00000 ]
	SubspaceRotationAdjust: set factor to 0.237
ElecMinimize: Iter:  43  G: -2169.241599460002362  |grad|_K:  7.503e-08  alpha:  1.060e-01  linmin: -7.892e-06  t[s]:   6070.70
	Linear fluid (dielectric constant: 78.4, screening length: 8.12261 Bohr) occupying 0.559897 of unit cell:	Completed after 8 iterations at t[s]:   6087.77
	Linear fluid (dielectric constant: 78.4, screening length: 8.12261 Bohr) occupying 0.559898 of unit cell:	Completed after 2 iterations at t[s]:   6100.86
	FillingsUpdate:  mu: -0.244750000  nElectrons: 208.499139  magneticMoment: [ Abs: 0.00000  Tot: +0.00000 ]
	SubspaceRotationAdjust: set factor to 0.223
ElecMinimize: Iter:  44  G: -2169.241599555839002  |grad|_K:  7.794e-08  alpha:  1.343e-01  linmin: -2.892e-05  t[s]:   6123.57
	Linear fluid (dielectric constant: 78.4, screening length: 8.12261 Bohr) occupying 0.559906 of unit cell:	Completed after 8 iterations at t[s]:   6140.58
	Linear fluid (dielectric constant: 78.4, screening length: 8.12261 Bohr) occupying 0.559904 of unit cell:	Completed after 3 iterations at t[s]:   6153.82
	FillingsUpdate:  mu: -0.244750000  nElectrons: 208.499175  magneticMoment: [ Abs: 0.00000  Tot: +0.00000 ]
	SubspaceRotationAdjust: set factor to 0.223
ElecMinimize: Iter:  45  G: -2169.241599628828681  |grad|_K:  4.921e-08  alpha:  9.211e-02  linmin:  4.284e-05  t[s]:   6176.17
ElecMinimize: Converged (|Delta G|<1.000000e-07 for 2 iters).
Setting wave functions to eigenvectors of Hamiltonian
Converging empty states (this may take a while): |deigs|: 3.233e-03
Single-point solvation energy estimate, DeltaG = -0.022948862317662

Computing DFT-D3 correction:
# coordination-number Cu 5.593 5.591 7.569 9.120 8.988 9.112 9.122 9.115 8.995 9.125 7.574
# diagonal-C6 Cu 175.00 175.00 175.00 175.00 175.00 175.00 175.00 175.00 175.00 175.00 175.00
EvdW_6 =   -0.066521
EvdW_8 =   -0.099012

# Ionic positions in cartesian coordinates:
ion Cu   0.001580000000000  -0.002806000000000  21.263675000000003 1
ion Cu  -0.002228000000000   4.314517000000000   1.091669000000000 1
ion Cu   2.381829000000001   0.714888000000000   2.936762000000000 1
ion Cu   2.382684000000001   5.058367000000000   5.057120000000001 1
ion Cu   0.002734000000000   1.433387000000000   7.105375000000001 1
ion Cu   0.000074000000001   5.739328000000000   9.137264000000002 1
ion Cu   2.383383000000000   2.155682000000000  11.181026000000001 1
ion Cu   2.382813000000001   6.476175000000000  13.219086000000003 1
ion Cu  -0.002023000000000   2.878181000000000  15.255402000000002 1
ion Cu   0.000674000000001   7.157452000000001  17.298358000000004 1
ion Cu   2.385034000000000   3.597574000000000  19.420460000000002 1

# Forces in Cartesian coordinates:
force Cu  -0.000026812915650  -0.000181913213651   0.001725851148522 1
force Cu   0.000026343718944   0.000188638063585  -0.001740317184006 1
force Cu  -0.000027702877014   0.000226535862933   0.002773638445982 1
force Cu  -0.000130848815378  -0.000176781370815  -0.001410883619361 1
force Cu  -0.000034611869061   0.000265523571841   0.000480224423225 1
force Cu   0.000085068482045   0.000286021942177  -0.000038992977557 1
force Cu   0.000002940465908  -0.000002043530835   0.000018655599814 1
force Cu  -0.000081684881103  -0.000286910826215   0.000083107604049 1
force Cu   0.000039038681352  -0.000259468440930  -0.000442868613468 1
force Cu   0.000135251751504   0.000179553528554   0.001432033739868 1
force Cu   0.000031973581790  -0.000214649348060  -0.002730524862855 1

# Energy components:
   A_diel =        0.0359846231895339
   Eewald =    16810.1363445524184499
       EH =    18809.5444406179049111
     Eloc =   -38256.9387024257885059
      Enl =      402.9042412655465455
     EvdW =       -0.1655331515144345
      Exc =     -213.3839857070006758
 Exc_core =        0.5166801012303150
       KE =      227.0380052371192789
  MuShift =        0.0410960665560599
-------------------------------------
     Etot =    -2220.2714288203369506
       TS =        0.0003439397945949
-------------------------------------
        F =    -2220.2717727601316255
      muN =      -51.0301731313030515
-------------------------------------
        G =    -2169.2415996288286806


Dumping 'jdft.fillings' ... done
Dumping 'jdft.wfns' ... done
Dumping 'jdft.fluidState' ... done
Dumping 'jdft.ionpos' ... done
Dumping 'jdft.lattice' ... done
Dumping 'jdft.eigenvals' ... done
Dumping 'jdft.eigStats' ... 
	eMin: -4.385557 at state 46 ( [ +0.000000 +0.000000 +0.000000 ] spin -1 )
	HOMO: -0.244849 at state 58 ( [ +0.153846 +0.142857 +0.000000 ] spin -1 )
	mu  : -0.244750
	LUMO: -0.244605 at state 74 ( [ +0.307692 +0.428571 +0.000000 ] spin -1 )
	eMax: +0.191200 at state 80 ( [ +0.384615 +0.285714 +0.000000 ] spin -1 )
	HOMO-LUMO gap: +0.000244
	Optical gap  : +0.012052 at state 47 ( [ +0.000000 +0.142857 +0.000000 ] spin -1 )
Dumping 'jdft.Ecomponents' ... done
IonicMinimize: Iter:   0  G: -2169.241599628828681  |grad|_K:  8.913e-04  t[s]:   6357.66

#--- Lowdin population analysis ---
# oxidation-state Cu +0.378 +0.378 +0.092 +0.044 +0.078 +0.073 +0.078 +0.073 +0.078 +0.044 +0.092
# magnetic-moments Cu +0.000 +0.000 +0.000 +0.000 +0.000 +0.000 +0.000 +0.000 +0.000 +0.000 +0.000


Computing DFT-D3 correction:
# coordination-number Cu 5.589 5.588 7.573 9.120 8.991 9.111 9.123 9.113 8.998 9.125 7.577
# diagonal-C6 Cu 175.00 175.00 175.00 175.00 175.00 175.00 175.00 175.00 175.00 175.00 175.00
EvdW_6 =   -0.066521
EvdW_8 =   -0.099013
Shifting auxilliary hamiltonian by -0.000026 to set nElectrons=208.499175

-------- Electronic minimization -----------
	Linear fluid (dielectric constant: 78.4, screening length: 8.12261 Bohr) occupying 0.559897 of unit cell:	Completed after 11 iterations at t[s]:   6376.33
	FillingsUpdate:  mu: -0.244750000  nElectrons: 208.499175  magneticMoment: [ Abs: 0.00000  Tot: -0.00000 ]
ElecMinimize: Iter:   0  G: -2169.241619850958159  |grad|_K:  3.662e-07  alpha:  1.000e+00
	Linear fluid (dielectric constant: 78.4, screening length: 8.12261 Bohr) occupying 0.559894 of unit cell:	Completed after 18 iterations at t[s]:   6418.94
	Linear fluid (dielectric constant: 78.4, screening length: 8.12261 Bohr) occupying 0.559897 of unit cell:	Completed after 18 iterations at t[s]:   6433.55
	FillingsUpdate:  mu: -0.244750000  nElectrons: 208.498449  magneticMoment: [ Abs: 0.00000  Tot: -0.00000 ]
	SubspaceRotationAdjust: set factor to 0.219
ElecMinimize: Iter:   1  G: -2169.241621768610457  |grad|_K:  2.551e-07  alpha:  1.132e-01  linmin: -1.506e-05  t[s]:   6455.91
	Linear fluid (dielectric constant: 78.4, screening length: 8.12261 Bohr) occupying 0.559897 of unit cell:	Completed after 13 iterations at t[s]:   6473.59
	Linear fluid (dielectric constant: 78.4, screening length: 8.12261 Bohr) occupying 0.559897 of unit cell:	Completed after 9 iterations at t[s]:   6487.38
	FillingsUpdate:  mu: -0.244750000  nElectrons: 208.499203  magneticMoment: [ Abs: 0.00000  Tot: -0.00000 ]
	SubspaceRotationAdjust: set factor to 0.155
ElecMinimize: Iter:   2  G: -2169.241622848982843  |grad|_K:  2.564e-07  alpha:  1.316e-01  linmin: -1.880e-05  t[s]:   6509.86
	Linear fluid (dielectric constant: 78.4, screening length: 8.12261 Bohr) occupying 0.559897 of unit cell:	Completed after 12 iterations at t[s]:   6526.94
	Linear fluid (dielectric constant: 78.4, screening length: 8.12261 Bohr) occupying 0.559897 of unit cell:	Completed after 10 iterations at t[s]:   6541.03
	FillingsUpdate:  mu: -0.244750000  nElectrons: 208.498348  magneticMoment: [ Abs: 0.00000  Tot: -0.00000 ]
	SubspaceRotationAdjust: set factor to 0.121
ElecMinimize: Iter:   3  G: -2169.241623680879911  |grad|_K:  1.426e-07  alpha:  1.000e-01  linmin:  3.409e-06  t[s]:   6563.47
	Linear fluid (dielectric constant: 78.4, screening length: 8.12261 Bohr) occupying 0.559897 of unit cell:	Completed after 3 iterations at t[s]:   6580.41
	Linear fluid (dielectric constant: 78.4, screening length: 8.12261 Bohr) occupying 0.559897 of unit cell:	Completed after 6 iterations at t[s]:   6594.05
	FillingsUpdate:  mu: -0.244750000  nElectrons: 208.498229  magneticMoment: [ Abs: 0.00000  Tot: -0.00000 ]
	SubspaceRotationAdjust: set factor to 0.157
ElecMinimize: Iter:   4  G: -2169.241624229621721  |grad|_K:  1.130e-07  alpha:  2.159e-01  linmin:  1.119e-05  t[s]:   6616.60
	Linear fluid (dielectric constant: 78.4, screening length: 8.12261 Bohr) occupying 0.559898 of unit cell:	Completed after 10 iterations at t[s]:   6633.50
	Linear fluid (dielectric constant: 78.4, screening length: 8.12261 Bohr) occupying 0.559898 of unit cell:	Completed after 8 iterations at t[s]:   6647.32
	FillingsUpdate:  mu: -0.244750000  nElectrons: 208.498436  magneticMoment: [ Abs: 0.00000  Tot: -0.00000 ]
	SubspaceRotationAdjust: set factor to 0.157
ElecMinimize: Iter:   5  G: -2169.241624445177877  |grad|_K:  7.700e-08  alpha:  1.344e-01  linmin:  1.061e-05  t[s]:   6669.90
	Linear fluid (dielectric constant: 78.4, screening length: 8.12261 Bohr) occupying 0.559898 of unit cell:	Completed after 8 iterations at t[s]:   6686.80
	Linear fluid (dielectric constant: 78.4, screening length: 8.12261 Bohr) occupying 0.559899 of unit cell:	Completed after 8 iterations at t[s]:   6700.68
	FillingsUpdate:  mu: -0.244750000  nElectrons: 208.498205  magneticMoment: [ Abs: 0.00000  Tot: -0.00000 ]
	SubspaceRotationAdjust: set factor to 0.14
ElecMinimize: Iter:   6  G: -2169.241624631946252  |grad|_K:  8.375e-08  alpha:  2.505e-01  linmin: -9.494e-06  t[s]:   6723.20
	Linear fluid (dielectric constant: 78.4, screening length: 8.12261 Bohr) occupying 0.559901 of unit cell:	Completed after 11 iterations at t[s]:   6740.28
	Linear fluid (dielectric constant: 78.4, screening length: 8.12261 Bohr) occupying 0.559900 of unit cell:	Completed after 9 iterations at t[s]:   6753.87
	FillingsUpdate:  mu: -0.244750000  nElectrons: 208.498463  magneticMoment: [ Abs: 0.00000  Tot: -0.00000 ]
	SubspaceRotationAdjust: set factor to 0.132
ElecMinimize: Iter:   7  G: -2169.241624749643506  |grad|_K:  5.499e-08  alpha:  1.314e-01  linmin:  2.533e-06  t[s]:   6776.60
	Linear fluid (dielectric constant: 78.4, screening length: 8.12261 Bohr) occupying 0.559900 of unit cell:	Completed after 3 iterations at t[s]:   6793.39
	Linear fluid (dielectric constant: 78.4, screening length: 8.12261 Bohr) occupying 0.559901 of unit cell:	Completed after 6 iterations at t[s]:   6806.83
	FillingsUpdate:  mu: -0.244750000  nElectrons: 208.498369  magneticMoment: [ Abs: 0.00000  Tot: -0.00000 ]
	SubspaceRotationAdjust: set factor to 0.143
ElecMinimize: Iter:   8  G: -2169.241624854963902  |grad|_K:  6.068e-08  alpha:  2.835e-01  linmin:  1.281e-05  t[s]:   6829.38
	Linear fluid (dielectric constant: 78.4, screening length: 8.12261 Bohr) occupying 0.559903 of unit cell:	Completed after 7 iterations at t[s]:   6846.52
	Linear fluid (dielectric constant: 78.4, screening length: 8.12261 Bohr) occupying 0.559902 of unit cell:	Completed after 2 iterations at t[s]:   6859.64
	FillingsUpdate:  mu: -0.244750000  nElectrons: 208.498361  magneticMoment: [ Abs: 0.00000  Tot: -0.00000 ]
	SubspaceRotationAdjust: set factor to 0.171
ElecMinimize: Iter:   9  G: -2169.241624930601574  |grad|_K:  4.259e-08  alpha:  1.664e-01  linmin:  6.310e-06  t[s]:   6882.38
	Linear fluid (dielectric constant: 78.4, screening length: 8.12261 Bohr) occupying 0.559903 of unit cell:	Completed after 6 iterations at t[s]:   6899.06
	Linear fluid (dielectric constant: 78.4, screening length: 8.12261 Bohr) occupying 0.559904 of unit cell:	Completed after 3 iterations at t[s]:   6912.62
	FillingsUpdate:  mu: -0.244750000  nElectrons: 208.498452  magneticMoment: [ Abs: 0.00000  Tot: -0.00000 ]
	SubspaceRotationAdjust: set factor to 0.18
ElecMinimize: Iter:  10  G: -2169.241624995831444  |grad|_K:  5.876e-08  alpha:  2.836e-01  linmin: -1.191e-05  t[s]:   6934.86
ElecMinimize: Converged (|Delta G|<1.000000e-07 for 2 iters).
Setting wave functions to eigenvectors of Hamiltonian
Converging empty states (this may take a while): |deigs|: 1.545e-07

Computing DFT-D3 correction:
# coordination-number Cu 5.589 5.588 7.573 9.120 8.991 9.111 9.123 9.113 8.998 9.125 7.577
# diagonal-C6 Cu 175.00 175.00 175.00 175.00 175.00 175.00 175.00 175.00 175.00 175.00 175.00
EvdW_6 =   -0.066521
EvdW_8 =   -0.099013
IonicMinimize: 	Wolfe criterion not satisfied: alpha: 1  (E-E0)/|gdotd0|: -0.967557  gdotd/gdotd0: 1.03518 (taking cubic step)

Computing DFT-D3 correction:
# coordination-number Cu 5.582 5.580 7.580 9.121 8.995 9.108 9.125 9.111 9.002 9.126 7.584
# diagonal-C6 Cu 175.00 175.00 175.00 175.00 175.00 175.00 175.00 175.00 175.00 175.00 175.00
EvdW_6 =   -0.066522
EvdW_8 =   -0.099014
Shifting auxilliary hamiltonian by -0.000090 to set nElectrons=208.498452

-------- Electronic minimization -----------
	Linear fluid (dielectric constant: 78.4, screening length: 8.12261 Bohr) occupying 0.559851 of unit cell:	Completed after 16 iterations at t[s]:   7003.23
	FillingsUpdate:  mu: -0.244750000  nElectrons: 208.498452  magneticMoment: [ Abs: 0.00009  Tot: -0.00009 ]
ElecMinimize: Iter:   0  G: -2169.241650284418483  |grad|_K:  7.227e-07  alpha:  1.000e+00
	Linear fluid (dielectric constant: 78.4, screening length: 8.12261 Bohr) occupying 0.559842 of unit cell:	Completed after 20 iterations at t[s]:   7042.94
	Linear fluid (dielectric constant: 78.4, screening length: 8.12261 Bohr) occupying 0.559850 of unit cell:	Completed after 19 iterations at t[s]:   7056.30
	FillingsUpdate:  mu: -0.244750000  nElectrons: 208.499507  magneticMoment: [ Abs: 0.00009  Tot: -0.00008 ]
	SubspaceRotationAdjust: set factor to 0.175
ElecMinimize: Iter:   1  G: -2169.241658129993539  |grad|_K:  5.044e-07  alpha:  1.190e-01  linmin: -7.499e-05  t[s]:   7077.41
	Linear fluid (dielectric constant: 78.4, screening length: 8.12261 Bohr) occupying 0.559848 of unit cell:	Completed after 16 iterations at t[s]:   7093.63
	Linear fluid (dielectric constant: 78.4, screening length: 8.12261 Bohr) occupying 0.559848 of unit cell:	Completed after 11 iterations at t[s]:   7106.63
	FillingsUpdate:  mu: -0.244750000  nElectrons: 208.497342  magneticMoment: [ Abs: 0.00009  Tot: -0.00008 ]
	SubspaceRotationAdjust: set factor to 0.123
ElecMinimize: Iter:   2  G: -2169.241663443493962  |grad|_K:  4.425e-07  alpha:  1.654e-01  linmin: -1.426e-04  t[s]:   7127.61
	Linear fluid (dielectric constant: 78.4, screening length: 8.12261 Bohr) occupying 0.559846 of unit cell:	Completed after 13 iterations at t[s]:   7143.71
	Linear fluid (dielectric constant: 78.4, screening length: 8.12261 Bohr) occupying 0.559846 of unit cell:	Completed after 11 iterations at t[s]:   7156.73
	FillingsUpdate:  mu: -0.244750000  nElectrons: 208.498355  magneticMoment: [ Abs: 0.00009  Tot: -0.00008 ]
	SubspaceRotationAdjust: set factor to 0.0956
ElecMinimize: Iter:   3  G: -2169.241666145620002  |grad|_K:  2.671e-07  alpha:  1.091e-01  linmin:  3.212e-05  t[s]:   7177.77
	Linear fluid (dielectric constant: 78.4, screening length: 8.12261 Bohr) occupying 0.559845 of unit cell:	Completed after 7 iterations at t[s]:   7193.48
	Linear fluid (dielectric constant: 78.4, screening length: 8.12261 Bohr) occupying 0.559844 of unit cell:	Completed after 8 iterations at t[s]:   7206.18
[...]
ion Cu   2.386379982518499   3.587219986512808  19.360973989508484 1

# Forces in Cartesian coordinates:
force Cu   0.000020166902925  -0.000058723809010   0.000248639939661 1
force Cu  -0.000017185027477   0.000061465237444  -0.000176828699808 1
force Cu  -0.000020839393374   0.000448826188977   0.000067455565370 1
force Cu  -0.000021054641336  -0.000287292913376  -0.000487580453893 1
force Cu  -0.000014706924831   0.000257696807032  -0.000303145805984 1
force Cu  -0.000008378840335  -0.000071640065079   0.000232447802540 1
force Cu   0.000002467185392   0.000003425305111   0.000005761061829 1
force Cu   0.000013212451745   0.000087384000398  -0.000224864499803 1
force Cu   0.000018732037773  -0.000264086075786   0.000285059333554 1
force Cu   0.000027491922931   0.000289344745287   0.000440878196650 1
force Cu   0.000025256494947  -0.000454520429321  -0.000032612479971 1

# Energy components:
   A_diel =        0.0356170049293675
   Eewald =    16827.8933279408629460
       EH =    18827.0939760701039631
     Eloc =   -38292.2495061642912333
      Enl =      402.9080879299262961
     EvdW =       -0.1657330468949961
      Exc =     -213.3842754020330403
 Exc_core =        0.5166828289178056
       KE =      227.0403432910548531
  MuShift =        0.0417541042555064
-------------------------------------
     Etot =    -2220.2697254431632246
       TS =        0.0003520712210903
-------------------------------------
        F =    -2220.2700775143844112
      muN =      -51.0282104081657266
-------------------------------------
        G =    -2169.2418671062187059


Dumping 'jdft.fillings' ... done
Dumping 'jdft.wfns' ... done
Dumping 'jdft.fluidState' ... done
Dumping 'jdft.ionpos' ... done
Dumping 'jdft.lattice' ... done
Dumping 'jdft.eigenvals' ... done
Dumping 'jdft.eigStats' ... 
	eMin: -4.385679 at state 0 ( [ +0.000000 +0.000000 +0.000000 ] spin 1 )
	HOMO: -0.245241 at state 64 ( [ +0.230769 +0.000000 +0.000000 ] spin -1 )
	mu  : -0.244750
	LUMO: -0.244709 at state 12 ( [ +0.153846 +0.142857 +0.000000 ] spin 1 )
	eMax: +0.191068 at state 34 ( [ +0.384615 +0.285714 +0.000000 ] spin 1 )
	HOMO-LUMO gap: +0.000532
	Optical gap  : +0.013434 at state 40 ( [ +0.461538 +0.142857 +0.000000 ] spin 1 )
Dumping 'jdft.Ecomponents' ... done
IonicMinimize: Iter:   3  G: -2169.241867106218706  |grad|_K:  2.162e-04  alpha:  1.000e+00  linmin:  4.574e-01  t[s]:  11131.04

#--- Lowdin population analysis ---
# oxidation-state Cu +0.388 +0.388 +0.088 +0.044 +0.076 +0.074 +0.076 +0.074 +0.076 +0.044 +0.089
# magnetic-moments Cu +0.000 +0.000 +0.000 +0.000 +0.000 +0.000 +0.000 +0.000 +0.000 +0.000 +0.000


Computing DFT-D3 correction:
# coordination-number Cu 5.518 5.516 7.625 9.125 9.051 9.107 9.170 9.109 9.055 9.128 7.627
# diagonal-C6 Cu 175.00 175.00 175.00 175.00 175.00 175.00 175.00 175.00 175.00 175.00 175.00
EvdW_6 =   -0.066569
EvdW_8 =   -0.099139
Shifting auxilliary hamiltonian by 0.000077 to set nElectrons=208.491156

-------- Electronic minimization -----------
	Linear fluid (dielectric constant: 78.4, screening length: 8.12261 Bohr) occupying 0.559672 of unit cell:	Completed after 13 iterations at t[s]:  11148.60
	FillingsUpdate:  mu: -0.244750000  nElectrons: 208.491156  magneticMoment: [ Abs: 0.00010  Tot: +0.00000 ]
ElecMinimize: Iter:   0  G: -2169.241858412551210  |grad|_K:  6.100e-07  alpha:  1.000e+00
	Linear fluid (dielectric constant: 78.4, screening length: 8.12261 Bohr) occupying 0.559672 of unit cell:	Completed after 15 iterations at t[s]:  11187.93
	Linear fluid (dielectric constant: 78.4, screening length: 8.12261 Bohr) occupying 0.559672 of unit cell:	Completed after 15 iterations at t[s]:  11201.05
	FillingsUpdate:  mu: -0.244750000  nElectrons: 208.489562  magneticMoment: [ Abs: 0.00009  Tot: +0.00000 ]
	SubspaceRotationAdjust: set factor to 0.0831
ElecMinimize: Iter:   1  G: -2169.241863453507449  |grad|_K:  3.464e-07  alpha:  1.076e-01  linmin:  1.386e-05  t[s]:  11222.07
	Linear fluid (dielectric constant: 78.4, screening length: 8.12261 Bohr) occupying 0.559672 of unit cell:	Completed after 10 iterations at t[s]:  11237.91
	Linear fluid (dielectric constant: 78.4, screening length: 8.12261 Bohr) occupying 0.559674 of unit cell:	Completed after 10 iterations at t[s]:  11250.68
	FillingsUpdate:  mu: -0.244750000  nElectrons: 208.490617  magneticMoment: [ Abs: 0.00005  Tot: +0.00000 ]
	SubspaceRotationAdjust: set factor to 0.0801
ElecMinimize: Iter:   2  G: -2169.241867762698348  |grad|_K:  2.777e-07  alpha:  2.855e-01  linmin:  4.567e-05  t[s]:  11271.68
	Linear fluid (dielectric constant: 78.4, screening length: 8.12261 Bohr) occupying 0.559675 of unit cell:	Completed after 7 iterations at t[s]:  11287.33
	Linear fluid (dielectric constant: 78.4, screening length: 8.12261 Bohr) occupying 0.559674 of unit cell:	Completed after 4 iterations at t[s]:  11299.74
	FillingsUpdate:  mu: -0.244750000  nElectrons: 208.490787  magneticMoment: [ Abs: 0.00003  Tot: +0.00000 ]
	SubspaceRotationAdjust: set factor to 0.0836
ElecMinimize: Iter:   3  G: -2169.241869256971768  |grad|_K:  1.882e-07  alpha:  1.540e-01  linmin:  2.081e-05  t[s]:  11320.81
	Linear fluid (dielectric constant: 78.4, screening length: 8.12261 Bohr) occupying 0.559674 of unit cell:	Completed after 3 iterations at t[s]:  11336.23
	Linear fluid (dielectric constant: 78.4, screening length: 8.12261 Bohr) occupying 0.559674 of unit cell:	Completed after 0 iterations at t[s]:  11348.35
	FillingsUpdate:  mu: -0.244750000  nElectrons: 208.490825  magneticMoment: [ Abs: 0.00002  Tot: +0.00000 ]
	SubspaceRotationAdjust: set factor to 0.0951
ElecMinimize: Iter:   4  G: -2169.241869959798350  |grad|_K:  1.011e-07  alpha:  1.576e-01  linmin: -3.816e-04  t[s]:  11369.35
	Linear fluid (dielectric constant: 78.4, screening length: 8.12261 Bohr) occupying 0.559673 of unit cell:	Completed after 7 iterations at t[s]:  11385.00
	Linear fluid (dielectric constant: 78.4, screening length: 8.12261 Bohr) occupying 0.559673 of unit cell:	Completed after 6 iterations at t[s]:  11397.54
	FillingsUpdate:  mu: -0.244750000  nElectrons: 208.490730  magneticMoment: [ Abs: 0.00002  Tot: +0.00000 ]
	SubspaceRotationAdjust: set factor to 0.101
ElecMinimize: Iter:   5  G: -2169.241870363203816  |grad|_K:  1.338e-07  alpha:  3.090e-01  linmin: -8.010e-04  t[s]:  11418.59
	Linear fluid (dielectric constant: 78.4, screening length: 8.12261 Bohr) occupying 0.559670 of unit cell:	Completed after 10 iterations at t[s]:  11434.40
	Linear fluid (dielectric constant: 78.4, screening length: 8.12261 Bohr) occupying 0.559671 of unit cell:	Completed after 6 iterations at t[s]:  11446.95
	FillingsUpdate:  mu: -0.244750000  nElectrons: 208.490893  magneticMoment: [ Abs: 0.00001  Tot: +0.00000 ]
	SubspaceRotationAdjust: set factor to 0.127
ElecMinimize: Iter:   6  G: -2169.241870762526560  |grad|_K:  7.833e-08  alpha:  1.737e-01  linmin:  1.282e-04  t[s]:  11467.96
	Linear fluid (dielectric constant: 78.4, screening length: 8.12261 Bohr) occupying 0.559670 of unit cell:	Completed after 6 iterations at t[s]:  11483.58
	Linear fluid (dielectric constant: 78.4, screening length: 8.12261 Bohr) occupying 0.559670 of unit cell:	Completed after 0 iterations at t[s]:  11495.69
	FillingsUpdate:  mu: -0.244750000  nElectrons: 208.490994  magneticMoment: [ Abs: 0.00002  Tot: +0.00000 ]
	SubspaceRotationAdjust: set factor to 0.149
ElecMinimize: Iter:   7  G: -2169.241870888416088  |grad|_K:  8.300e-08  alpha:  1.637e-01  linmin:  1.658e-04  t[s]:  11516.69
	Linear fluid (dielectric constant: 78.4, screening length: 8.12261 Bohr) occupying 0.559669 of unit cell:	Completed after 2 iterations at t[s]:  11532.05
	Linear fluid (dielectric constant: 78.4, screening length: 8.12261 Bohr) occupying 0.559667 of unit cell:	Completed after 7 iterations at t[s]:  11544.66
	FillingsUpdate:  mu: -0.244750000  nElectrons: 208.490921  magneticMoment: [ Abs: 0.00011  Tot: -0.00000 ]
	SubspaceRotationAdjust: set factor to 0.169
ElecMinimize: Iter:   8  G: -2169.241871216008349  |grad|_K:  9.161e-08  alpha:  3.777e-01  linmin: -1.772e-04  t[s]:  11565.67
	Linear fluid (dielectric constant: 78.4, screening length: 8.12261 Bohr) occupying 0.559663 of unit cell:	Completed after 8 iterations at t[s]:  11581.36
	Linear fluid (dielectric constant: 78.4, screening length: 8.12261 Bohr) occupying 0.559665 of unit cell:	Completed after 3 iterations at t[s]:  11593.79
	FillingsUpdate:  mu: -0.244750000  nElectrons: 208.490999  magneticMoment: [ Abs: 0.00008  Tot: -0.00000 ]
	SubspaceRotationAdjust: set factor to 0.19
ElecMinimize: Iter:   9  G: -2169.241871407785766  |grad|_K:  8.969e-08  alpha:  1.791e-01  linmin:  5.160e-05  t[s]:  11614.78
	Linear fluid (dielectric constant: 78.4, screening length: 8.12261 Bohr) occupying 0.559664 of unit cell:	Completed after 8 iterations at t[s]:  11630.47
	Linear fluid (dielectric constant: 78.4, screening length: 8.12261 Bohr) occupying 0.559663 of unit cell:	Completed after 2 iterations at t[s]:  11642.77
	FillingsUpdate:  mu: -0.244750000  nElectrons: 208.490858  magneticMoment: [ Abs: 0.00005  Tot: -0.00001 ]
	SubspaceRotationAdjust: set factor to 0.197
ElecMinimize: Iter:  10  G: -2169.241871653053295  |grad|_K:  9.386e-08  alpha:  2.404e-01  linmin: -3.633e-04  t[s]:  11663.76
	Linear fluid (dielectric constant: 78.4, screening length: 8.12261 Bohr) occupying 0.559662 of unit cell:	Completed after 11 iterations at t[s]:  11679.64
	Linear fluid (dielectric constant: 78.4, screening length: 8.12261 Bohr) occupying 0.559662 of unit cell:	Completed after 7 iterations at t[s]:  11692.24
	FillingsUpdate:  mu: -0.244750000  nElectrons: 208.491187  magneticMoment: [ Abs: 0.00008  Tot: -0.00001 ]
	SubspaceRotationAdjust: set factor to 0.171
ElecMinimize: Iter:  11  G: -2169.241871856666421  |grad|_K:  1.036e-07  alpha:  1.762e-01  linmin:  1.198e-04  t[s]:  11713.24
	Linear fluid (dielectric constant: 78.4, screening length: 8.12261 Bohr) occupying 0.559661 of unit cell:	Completed after 10 iterations at t[s]:  11729.04
	Linear fluid (dielectric constant: 78.4, screening length: 8.12261 Bohr) occupying 0.559661 of unit cell:	Completed after 0 iterations at t[s]:  11741.24
	FillingsUpdate:  mu: -0.244750000  nElectrons: 208.490900  magneticMoment: [ Abs: 0.00007  Tot: -0.00001 ]
	SubspaceRotationAdjust: set factor to 0.127
ElecMinimize: Iter:  12  G: -2169.241872080158828  |grad|_K:  9.724e-08  alpha:  1.676e-01  linmin:  1.286e-04  t[s]:  11762.22
	Linear fluid (dielectric constant: 78.4, screening length: 8.12261 Bohr) occupying 0.559661 of unit cell:	Completed after 10 iterations at t[s]:  11778.05
	Linear fluid (dielectric constant: 78.4, screening length: 8.12261 Bohr) occupying 0.559661 of unit cell:	Completed after 7 iterations at t[s]:  11790.66
	FillingsUpdate:  mu: -0.244750000  nElectrons: 208.491114  magneticMoment: [ Abs: 0.00003  Tot: -0.00001 ]
	SubspaceRotationAdjust: set factor to 0.104
ElecMinimize: Iter:  13  G: -2169.241872212161525  |grad|_K:  5.771e-08  alpha:  1.134e-01  linmin: -3.156e-05  t[s]:  11811.68
	Linear fluid (dielectric constant: 78.4, screening length: 8.12261 Bohr) occupying 0.559661 of unit cell:	Completed after 2 iterations at t[s]:  11827.01
	Linear fluid (dielectric constant: 78.4, screening length: 8.12261 Bohr) occupying 0.559661 of unit cell:	Completed after 2 iterations at t[s]:  11839.29
	FillingsUpdate:  mu: -0.244750000  nElectrons: 208.491089  magneticMoment: [ Abs: 0.00005  Tot: -0.00001 ]
	SubspaceRotationAdjust: set factor to 0.109
ElecMinimize: Iter:  14  G: -2169.241872301673538  |grad|_K:  6.110e-08  alpha:  2.124e-01  linmin: -7.781e-05  t[s]:  11860.27
	Linear fluid (dielectric constant: 78.4, screening length: 8.12261 Bohr) occupying 0.559662 of unit cell:	Completed after 8 iterations at t[s]:  11876.00
	Linear fluid (dielectric constant: 78.4, screening length: 8.12261 Bohr) occupying 0.559662 of unit cell:	Completed after 2 iterations at t[s]:  11888.32
	FillingsUpdate:  mu: -0.244750000  nElectrons: 208.490998  magneticMoment: [ Abs: 0.00006  Tot: -0.00001 ]
	SubspaceRotationAdjust: set factor to 0.0979
ElecMinimize: Iter:  15  G: -2169.241872371585487  |grad|_K:  4.000e-08  alpha:  1.489e-01  linmin:  1.427e-04  t[s]:  11909.30
ElecMinimize: Converged (|Delta G|<1.000000e-07 for 2 iters).
Setting wave functions to eigenvectors of Hamiltonian
Converging empty states (this may take a while): |deigs|: 2.786e-08

Computing DFT-D3 correction:
# coordination-number Cu 5.518 5.516 7.625 9.125 9.051 9.107 9.170 9.109 9.055 9.128 7.627
# diagonal-C6 Cu 175.00 175.00 175.00 175.00 175.00 175.00 175.00 175.00 175.00 175.00 175.00
EvdW_6 =   -0.066569
EvdW_8 =   -0.099139

# Ionic positions in cartesian coordinates:
ion Cu   0.001771088637078  -0.007388953877399  21.291857344883667 1
ion Cu  -0.002452688913481   4.319184198046575   1.063489532106936 1
ion Cu   2.380442747404075   0.728787643333718   2.997358320067804 1
ion Cu   2.379438236013899   5.057544882904883   5.037910706257791 1
ion Cu   0.001186786602136   1.442595434426944   7.127944303320984 1
ion Cu   0.001077353962105   5.744145749269358   9.134545883602373 1
ion Cu   2.383376942801872   2.155528483151888  11.180613538195807 1
ion Cu   2.381762407030999   6.471333831410319  13.221669658459257 1
ion Cu  -0.000543180055180   2.868898503690328  15.232265001277502 1
ion Cu   0.003921155850098   7.158310256473013  17.317614526077186 1
ion Cu   2.386573150666404   3.583804971170374  19.360928185750712 1

# Forces in Cartesian coordinates:
force Cu   0.000022900442476  -0.000174665982274   0.000307121186679 1
force Cu  -0.000019572260447   0.000170360125861  -0.000321301549943 1
force Cu  -0.000020698544807   0.000131949374644  -0.000072992332679 1
force Cu  -0.000019837627842   0.000088673021955  -0.000295114807935 1
force Cu  -0.000015682244913   0.000034890042786  -0.000166480252736 1
force Cu  -0.000008596397257   0.000039695314620  -0.000043174981370 1
force Cu   0.000002225353790   0.000004617367032   0.000056419122526 1
force Cu   0.000012602764545  -0.000036626361867   0.000122613406051 1
force Cu   0.000019145245018  -0.000033282516700   0.000238482302871 1
force Cu   0.000026296821736  -0.000088694268439   0.000311809694569 1
force Cu   0.000026168032378  -0.000126704917685   0.000081637809482 1

# Energy components:
   A_diel =        0.0356154860687709
   Eewald =    16825.2510503305202292
       EH =    18824.4567707279129536
     Eloc =   -38286.9697964686856722
      Enl =      402.9081393881078270
     EvdW =       -0.1657073937817100
      Exc =     -213.3839907666755948
 Exc_core =        0.5166828902690055
       KE =      227.0397769706432314
  MuShift =        0.0417670357869119
-------------------------------------
     Etot =    -2220.2696917998355275
       TS =        0.0003524091532493
-------------------------------------
        F =    -2220.2700442089885655
      muN =      -51.0281718374031215
-------------------------------------
        G =    -2169.2418723715854867


Dumping 'jdft.fillings' ... done
Dumping 'jdft.wfns' ... done
Dumping 'jdft.fluidState' ... done
Dumping 'jdft.ionpos' ... done
Dumping 'jdft.lattice' ... done
Dumping 'jdft.eigenvals' ... done
Dumping 'jdft.eigStats' ... 
	eMin: -4.385647 at state 0 ( [ +0.000000 +0.000000 +0.000000 ] spin 1 )
	HOMO: -0.245255 at state 64 ( [ +0.230769 +0.000000 +0.000000 ] spin -1 )
	mu  : -0.244750
	LUMO: -0.244736 at state 74 ( [ +0.307692 +0.428571 +0.000000 ] spin -1 )
	eMax: +0.191057 at state 80 ( [ +0.384615 +0.285714 +0.000000 ] spin -1 )
	HOMO-LUMO gap: +0.000519
	Optical gap  : +0.013420 at state 40 ( [ +0.461538 +0.142857 +0.000000 ] spin 1 )
Dumping 'jdft.Ecomponents' ... done
IonicMinimize: Iter:   4  G: -2169.241872371585487  |grad|_K:  1.362e-04  alpha:  1.000e+00  linmin: -5.806e-01  t[s]:  11957.66
IonicMinimize: Converged (|Delta G|<1.000000e-04 for 2 iters).

#--- Lowdin population analysis ---
# oxidation-state Cu +0.388 +0.388 +0.088 +0.043 +0.076 +0.074 +0.076 +0.074 +0.077 +0.044 +0.089
# magnetic-moments Cu -0.000 -0.000 -0.000 -0.000 -0.000 -0.000 -0.000 -0.000 -0.000 -0.000 -0.000


Dumping 'jdft.n_up' ... done
Dumping 'jdft.n_dn' ... done
Dumping 'jdft.tau_up' ... done
Dumping 'jdft.tau_dn' ... done
Dumping 'jdft.eigenvals' ... done
Dumping 'jdft.eigStats' ... 
	eMin: -4.385647 at state 0 ( [ +0.000000 +0.000000 +0.000000 ] spin 1 )
	HOMO: -0.245255 at state 64 ( [ +0.230769 +0.000000 +0.000000 ] spin -1 )
	mu  : -0.244750
	LUMO: -0.244736 at state 74 ( [ +0.307692 +0.428571 +0.000000 ] spin -1 )
	eMax: +0.191057 at state 80 ( [ +0.384615 +0.285714 +0.000000 ] spin -1 )
	HOMO-LUMO gap: +0.000519
	Optical gap  : +0.013420 at state 40 ( [ +0.461538 +0.142857 +0.000000 ] spin 1 )
Dumping 'jdft.kPts' ... done
Dumping 'jdft.kMap' ... done
Dumping 'jdft.dosUp' ... done.
Dumping 'jdft.dosDn' ... done.
End date and time: Fri Sep  9 00:17:11 2022  (Duration: 0-3:19:49.57)
Done!

PROFILER:             augmentDensityGrid     1.472319 +/-     0.124404 s,  457 calls,    672.849693 s total
PROFILER:         augmentDensityGridGrad     0.120331 +/-     0.024696 s,  236 calls,     28.398218 s total
PROFILER:        augmentDensitySpherical     0.001088 +/-     0.000081 s, 2285 calls,      2.486316 s total
PROFILER:    augmentDensitySphericalGrad     0.001154 +/-     0.000147 s, 1333 calls,      1.538242 s total
PROFILER:                 augmentOverlap     0.369436 +/-     0.038919 s, 4141 calls,   1529.835135 s total
PROFILER:        ColumnBundle::randomize     0.000657 +/-     0.000019 s,    5 calls,      0.003286 s total
PROFILER:                     diagouterI     1.305474 +/-     0.107411 s, 2300 calls,   3002.589232 s total
PROFILER:              EdensityAndVscloc     0.884384 +/-     0.652227 s,  458 calls,    405.048080 s total
PROFILER:                     EnlAndGrad     0.002564 +/-     0.000431 s, 2108 calls,      5.404108 s total
PROFILER:            ExCorrCommunication     0.011884 +/-     0.034904 s, 2816 calls,     33.465276 s total
PROFILER:               ExCorrFunctional     0.003771 +/-     0.000605 s,  477 calls,      1.798704 s total
PROFILER:                    ExCorrTotal     0.097354 +/-     0.074534 s,  477 calls,     46.438062 s total
PROFILER:                   Idag_DiagV_I     2.439838 +/-     0.547081 s, 1303 calls,   3179.109077 s total
PROFILER:                    initWeights     1.879073 +/-     0.000000 s,    1 calls,      1.879073 s total
PROFILER:                    inv(matrix)     0.001549 +/-     0.000111 s, 1905 calls,      2.950988 s total
PROFILER:            matrix::diagonalize     0.006366 +/-     0.002388 s, 3573 calls,     22.744452 s total
PROFILER:                    matrix::set     0.000003 +/-     0.000004 s, 38819 calls,      0.131550 s total
PROFILER:            orthoMatrix(matrix)     0.000907 +/-     0.000590 s, 2038 calls,      1.848989 s total
PROFILER:     RadialFunctionR::transform     0.046291 +/-     0.203937 s,   58 calls,      2.684857 s total
PROFILER:                    reduceKmesh     0.000038 +/-     0.000000 s,    1 calls,      0.000038 s total
PROFILER:   VanDerWaalsD3::energyAndGrad     0.007312 +/-     0.000229 s,   13 calls,      0.095059 s total
PROFILER:               WavefunctionDrag     7.576894 +/-     1.632509 s,    6 calls,     45.461364 s total
PROFILER:                            Y*M     0.116684 +/-     0.030835 s, 14049 calls,   1639.294529 s total
PROFILER:                          Y1^Y2     0.120112 +/-     0.035413 s, 8863 calls,   1064.554214 s total

MEMUSAGE:                   ColumnBundle     0.457738 GB
MEMUSAGE:        complexScalarFieldTilde     0.009012 GB
MEMUSAGE:                    IndexArrays     0.014800 GB
MEMUSAGE:                         matrix     0.021047 GB
MEMUSAGE:                           misc     0.006060 GB
MEMUSAGE:                    ScalarField     0.043559 GB
MEMUSAGE:               ScalarFieldTilde     0.031768 GB
MEMUSAGE:                          Total     0.518510 GB
