
*************** JDFTx 1.6.0  ***************

Start date and time: Mon Dec  6 17:02:06 2021
Executable /projects/musgravc/apps/jdftx-1.6.1/build/jdftx with command-line: -i in
Running on hosts (process indices):  shas0312.rc.int.colorado.edu (0-23)
Divided in process groups (process indices):  0 (0)  1 (1)  2 (2)  3 (3)  4 (4)  5 (5)  6 (6)  7 (7)  8 (8)  9 (9)  10 (10)  11 (11)  12 (12)  13 (13)  14 (14)  15 (15)  16 (16)  17 (17)  18 (18)  19 (19)  20 (20)  21 (21)  22 (22)  23 (23)
Resource initialization completed at t[s]:      0.00
Run totals: 24 processes, 24 threads, 0 GPUs


Input parsed successfully to the following command list (including defaults):

basis kpoint-dependent
converge-empty-states yes
coords-type Cartesian
core-overlap-check none
coulomb-interaction Periodic
davidson-band-ratio 1.1
density-of-states Etol 1.000000e-06 Esigma 1.000000e-03 \
		Complete \
	Total \
	OrthoOrbital Ag 1   s \
	OrthoOrbital Ag 1   p \
	OrthoOrbital Ag 1   px \
	OrthoOrbital Ag 1   py \
	OrthoOrbital Ag 1   pz \
	OrthoOrbital Ag 1   d \
	OrthoOrbital Ag 1   dxy \
	OrthoOrbital Ag 1   dyz \
	OrthoOrbital Ag 1   dz2 \
	OrthoOrbital Ag 1   dxz \
	OrthoOrbital Ag 1   dx2-y2 \
	OrthoOrbital Ag 2   s \
	OrthoOrbital Ag 2   p \
	OrthoOrbital Ag 2   px \
	OrthoOrbital Ag 2   py \
	OrthoOrbital Ag 2   pz \
	OrthoOrbital Ag 2   d \
	OrthoOrbital Ag 2   dxy \
	OrthoOrbital Ag 2   dyz \
	OrthoOrbital Ag 2   dz2 \
	OrthoOrbital Ag 2   dxz \
	OrthoOrbital Ag 2   dx2-y2 \
	OrthoOrbital Ag 3   s \
	OrthoOrbital Ag 3   p \
	OrthoOrbital Ag 3   px \
	OrthoOrbital Ag 3   py \
	OrthoOrbital Ag 3   pz \
	OrthoOrbital Ag 3   d \
	OrthoOrbital Ag 3   dxy \
	OrthoOrbital Ag 3   dyz \
	OrthoOrbital Ag 3   dz2 \
	OrthoOrbital Ag 3   dxz \
	OrthoOrbital Ag 3   dx2-y2 \
	OrthoOrbital Ag 4   s \
	OrthoOrbital Ag 4   p \
	OrthoOrbital Ag 4   px \
	OrthoOrbital Ag 4   py \
	OrthoOrbital Ag 4   pz \
	OrthoOrbital Ag 4   d \
	OrthoOrbital Ag 4   dxy \
	OrthoOrbital Ag 4   dyz \
	OrthoOrbital Ag 4   dz2 \
	OrthoOrbital Ag 4   dxz \
	OrthoOrbital Ag 4   dx2-y2 \
	OrthoOrbital Ag 5   s \
	OrthoOrbital Ag 5   p \
	OrthoOrbital Ag 5   px \
	OrthoOrbital Ag 5   py \
	OrthoOrbital Ag 5   pz \
	OrthoOrbital Ag 5   d \
	OrthoOrbital Ag 5   dxy \
	OrthoOrbital Ag 5   dyz \
	OrthoOrbital Ag 5   dz2 \
	OrthoOrbital Ag 5   dxz \
	OrthoOrbital Ag 5   dx2-y2 \
	OrthoOrbital Ag 6   s \
	OrthoOrbital Ag 6   p \
	OrthoOrbital Ag 6   px \
	OrthoOrbital Ag 6   py \
	OrthoOrbital Ag 6   pz \
	OrthoOrbital Ag 6   d \
	OrthoOrbital Ag 6   dxy \
	OrthoOrbital Ag 6   dyz \
	OrthoOrbital Ag 6   dz2 \
	OrthoOrbital Ag 6   dxz \
	OrthoOrbital Ag 6   dx2-y2 \
	OrthoOrbital Ag 7   s \
	OrthoOrbital Ag 7   p \
	OrthoOrbital Ag 7   px \
	OrthoOrbital Ag 7   py \
	OrthoOrbital Ag 7   pz \
	OrthoOrbital Ag 7   d \
	OrthoOrbital Ag 7   dxy \
	OrthoOrbital Ag 7   dyz \
	OrthoOrbital Ag 7   dz2 \
	OrthoOrbital Ag 7   dxz \
	OrthoOrbital Ag 7   dx2-y2 \
	OrthoOrbital Ag 8   s \
	OrthoOrbital Ag 8   p \
	OrthoOrbital Ag 8   px \
	OrthoOrbital Ag 8   py \
	OrthoOrbital Ag 8   pz \
	OrthoOrbital Ag 8   d \
	OrthoOrbital Ag 8   dxy \
	OrthoOrbital Ag 8   dyz \
	OrthoOrbital Ag 8   dz2 \
	OrthoOrbital Ag 8   dxz \
	OrthoOrbital Ag 8   dx2-y2 \
	OrthoOrbital Ag 9   s \
	OrthoOrbital Ag 9   p \
	OrthoOrbital Ag 9   px \
	OrthoOrbital Ag 9   py \
	OrthoOrbital Ag 9   pz \
	OrthoOrbital Ag 9   d \
	OrthoOrbital Ag 9   dxy \
	OrthoOrbital Ag 9   dyz \
	OrthoOrbital Ag 9   dz2 \
	OrthoOrbital Ag 9   dxz \
	OrthoOrbital Ag 9   dx2-y2 \
	OrthoOrbital Ag 10   s \
	OrthoOrbital Ag 10   p \
	OrthoOrbital Ag 10   px \
	OrthoOrbital Ag 10   py \
	OrthoOrbital Ag 10   pz \
	OrthoOrbital Ag 10   d \
	OrthoOrbital Ag 10   dxy \
	OrthoOrbital Ag 10   dyz \
	OrthoOrbital Ag 10   dz2 \
	OrthoOrbital Ag 10   dxz \
	OrthoOrbital Ag 10   dx2-y2 \
	OrthoOrbital Ag 11   s \
	OrthoOrbital Ag 11   p \
	OrthoOrbital Ag 11   px \
	OrthoOrbital Ag 11   py \
	OrthoOrbital Ag 11   pz \
	OrthoOrbital Ag 11   d \
	OrthoOrbital Ag 11   dxy \
	OrthoOrbital Ag 11   dyz \
	OrthoOrbital Ag 11   dz2 \
	OrthoOrbital Ag 11   dxz \
	OrthoOrbital Ag 11   dx2-y2 \
	OrthoOrbital Ag 12   s \
	OrthoOrbital Ag 12   p \
	OrthoOrbital Ag 12   px \
	OrthoOrbital Ag 12   py \
	OrthoOrbital Ag 12   pz \
	OrthoOrbital Ag 12   d \
	OrthoOrbital Ag 12   dxy \
	OrthoOrbital Ag 12   dyz \
	OrthoOrbital Ag 12   dz2 \
	OrthoOrbital Ag 12   dxz \
	OrthoOrbital Ag 12   dx2-y2 \
	OrthoOrbital Ag 13   s \
	OrthoOrbital Ag 13   p \
	OrthoOrbital Ag 13   px \
	OrthoOrbital Ag 13   py \
	OrthoOrbital Ag 13   pz \
	OrthoOrbital Ag 13   d \
	OrthoOrbital Ag 13   dxy \
	OrthoOrbital Ag 13   dyz \
	OrthoOrbital Ag 13   dz2 \
	OrthoOrbital Ag 13   dxz \
	OrthoOrbital Ag 13   dx2-y2 \
	OrthoOrbital Ag 14   s \
	OrthoOrbital Ag 14   p \
	OrthoOrbital Ag 14   px \
	OrthoOrbital Ag 14   py \
	OrthoOrbital Ag 14   pz \
	OrthoOrbital Ag 14   d \
	OrthoOrbital Ag 14   dxy \
	OrthoOrbital Ag 14   dyz \
	OrthoOrbital Ag 14   dz2 \
	OrthoOrbital Ag 14   dxz \
	OrthoOrbital Ag 14   dx2-y2 \
	OrthoOrbital Ag 15   s \
	OrthoOrbital Ag 15   p \
	OrthoOrbital Ag 15   px \
	OrthoOrbital Ag 15   py \
	OrthoOrbital Ag 15   pz \
	OrthoOrbital Ag 15   d \
	OrthoOrbital Ag 15   dxy \
	OrthoOrbital Ag 15   dyz \
	OrthoOrbital Ag 15   dz2 \
	OrthoOrbital Ag 15   dxz \
	OrthoOrbital Ag 15   dx2-y2 \
	OrthoOrbital Ag 16   s \
	OrthoOrbital Ag 16   p \
	OrthoOrbital Ag 16   px \
	OrthoOrbital Ag 16   py \
	OrthoOrbital Ag 16   pz \
	OrthoOrbital Ag 16   d \
	OrthoOrbital Ag 16   dxy \
	OrthoOrbital Ag 16   dyz \
	OrthoOrbital Ag 16   dz2 \
	OrthoOrbital Ag 16   dxz \
	OrthoOrbital Ag 16   dx2-y2 \
	OrthoOrbital Ag 17   s \
	OrthoOrbital Ag 17   p \
	OrthoOrbital Ag 17   px \
	OrthoOrbital Ag 17   py \
	OrthoOrbital Ag 17   pz \
	OrthoOrbital Ag 17   d \
	OrthoOrbital Ag 17   dxy \
	OrthoOrbital Ag 17   dyz \
	OrthoOrbital Ag 17   dz2 \
	OrthoOrbital Ag 17   dxz \
	OrthoOrbital Ag 17   dx2-y2 \
	OrthoOrbital Ag 18   s \
	OrthoOrbital Ag 18   p \
	OrthoOrbital Ag 18   px \
	OrthoOrbital Ag 18   py \
	OrthoOrbital Ag 18   pz \
	OrthoOrbital Ag 18   d \
	OrthoOrbital Ag 18   dxy \
	OrthoOrbital Ag 18   dyz \
	OrthoOrbital Ag 18   dz2 \
	OrthoOrbital Ag 18   dxz \
	OrthoOrbital Ag 18   dx2-y2 \
	OrthoOrbital Ag 19   s \
	OrthoOrbital Ag 19   p \
	OrthoOrbital Ag 19   px \
	OrthoOrbital Ag 19   py \
	OrthoOrbital Ag 19   pz \
	OrthoOrbital Ag 19   d \
	OrthoOrbital Ag 19   dxy \
	OrthoOrbital Ag 19   dyz \
	OrthoOrbital Ag 19   dz2 \
	OrthoOrbital Ag 19   dxz \
	OrthoOrbital Ag 19   dx2-y2
dump End ElecDensity KEdensity BandEigs EigStats RhoAtom DOS Kpoints
dump Ionic State IonicPositions Lattice EigStats Ecomponents
dump 
dump 
dump 
dump 
dump 
dump 
dump 
dump 
dump-name jdft.$VAR
elec-cutoff 20
elec-eigen-algo Davidson
elec-ex-corr gga-PBE
elec-initial-magnetization 0.000000 no
elec-n-bands 217
elec-smearing Fermi 0.001
electronic-minimize  \
	dirUpdateScheme      FletcherReeves \
	linminMethod         DirUpdateRecommended \
	nIterations          100 \
	history              15 \
	knormThreshold       0 \
	energyDiffThreshold  1e-07 \
	nEnergyDiff          2 \
	alphaTstart          1 \
	alphaTmin            1e-10 \
	updateTestStepSize   yes \
	alphaTreduceFactor   0.1 \
	alphaTincreaseFactor 3 \
	nAlphaAdjustMax      3 \
	wolfeEnergy          0.0001 \
	wolfeGradient        0.9 \
	fdTest               no
exchange-regularization WignerSeitzTruncated
fluid None
fluid-ex-corr lda-TF lda-PZ
fluid-gummel-loop 10 1.000000e-05
fluid-minimize  \
	dirUpdateScheme      PolakRibiere \
	linminMethod         DirUpdateRecommended \
	nIterations          100 \
	history              15 \
	knormThreshold       0 \
	energyDiffThreshold  0 \
	nEnergyDiff          2 \
	alphaTstart          1 \
	alphaTmin            1e-10 \
	updateTestStepSize   yes \
	alphaTreduceFactor   0.1 \
	alphaTincreaseFactor 3 \
	nAlphaAdjustMax      3 \
	wolfeEnergy          0.0001 \
	wolfeGradient        0.9 \
	fdTest               no
fluid-solvent H2O 55.338 ScalarEOS \
	epsBulk 78.4 \
	pMol 0.92466 \
	epsInf 1.77 \
	Pvap 1.06736e-10 \
	sigmaBulk 4.62e-05 \
	Rvdw 2.61727 \
	Res 1.42 \
	tauNuc 343133 \
	poleEl 15 7 1
forces-output-coords Positions
ion Ag  -0.000002000000000   7.461215000000000  65.948428000000007 1
ion Ag   2.710224000000000   3.108840000000000  64.189788999999990 1
ion Ag   2.710222000000000  10.570055000000000  62.431216999999997 1
ion Ag   2.710224000000000  11.813589000000000  34.293193000000002 1
ion Ag  -0.000000000000000   6.217681000000001  60.672577999999994 1
ion Ag   2.710221000000000   1.865307000000000  58.913938999999992 1
ion Ag   2.710224000000000   9.326521000000001  57.155299999999990 1
ion Ag  -0.000002000000000   4.974147000000000  55.396660999999995 1
ion Ag   2.710224000000000   0.621773000000000  53.638089000000001 1
ion Ag   2.710221000000000   8.082987000000001  51.879449999999999 1
ion Ag   0.000003000000000   3.730601000000001  50.120810999999996 1
ion Ag   0.000000999999999  11.191816000000001  48.362171999999994 1
ion Ag   2.710227000000000   6.839442000000001  46.603532999999992 1
ion Ag   0.000000000000000   2.487068000000000  44.844960000000000 1
ion Ag   0.000004000000000   9.948282000000003  43.086320999999991 1
ion Ag   2.710223999999999   5.595908000000001  41.327681999999996 1
ion Ag   0.000003000000000   1.243534000000000  39.569042999999994 1
ion Ag   0.000001000000000   8.704748000000000  37.810403999999998 1
ion Ag   2.710227000000000   4.352374000000000  36.051831999999997 1
ion-species /projects/musgravc/apps/jdftx-1.6.0/build/pseudopotentials/GBRV_v1.5/$ID_pbe_v1.uspp
ion-species /projects/musgravc/apps/jdftx-1.6.0/build/pseudopotentials/GBRV_v1.5/$ID_pbe_v1.2.uspp
ion-species /projects/musgravc/apps/jdftx-1.6.0/build/pseudopotentials/GBRV_v1.5/$ID_pbe_v1.4.uspp
ion-species /projects/musgravc/apps/jdftx-1.6.0/build/pseudopotentials/GBRV_v1.5/$ID_pbe_v1.5.uspp
ion-width 0
ionic-minimize  \
	dirUpdateScheme      L-BFGS \
	linminMethod         DirUpdateRecommended \
	nIterations          100 \
	history              15 \
	knormThreshold       0.0001 \
	energyDiffThreshold  1e-06 \
	nEnergyDiff          2 \
	alphaTstart          1 \
	alphaTmin            1e-10 \
	updateTestStepSize   yes \
	alphaTreduceFactor   0.1 \
	alphaTincreaseFactor 3 \
	nAlphaAdjustMax      3 \
	wolfeEnergy          0.0001 \
	wolfeGradient        0.9 \
	fdTest               no
kpoint   0.000000000000   0.000000000000   0.000000000000  1.00000000000000
kpoint-folding 11 5 1 
latt-move-scale 0 0 0
latt-scale 1 1 1 
lattice  \
	   5.420447000000000   -2.710223000000000    0.000000000000000  \
	   0.000000000000000   11.813589000000000    0.000000000000000  \
	   0.000000000000000   -0.000000000000000   66.827747000000002 
lattice-minimize  \
	dirUpdateScheme      L-BFGS \
	linminMethod         DirUpdateRecommended \
	nIterations          0 \
	history              15 \
	knormThreshold       0 \
	energyDiffThreshold  1e-06 \
	nEnergyDiff          2 \
	alphaTstart          1 \
	alphaTmin            1e-10 \
	updateTestStepSize   yes \
	alphaTreduceFactor   0.1 \
	alphaTincreaseFactor 3 \
	nAlphaAdjustMax      3 \
	wolfeEnergy          0.0001 \
	wolfeGradient        0.9 \
	fdTest               no
lcao-params 30 1e-06 0.001
pcm-variant GLSSA13
spintype z-spin
subspace-rotation-factor 1 yes
symmetries none
symmetry-threshold 0.0001
van-der-waals D3


Applied RMS atom displacement 0 bohrs to make symmetries exact.

---------- Initializing the Grid ----------
R = 
[      5.42045     -2.71022            0  ]
[            0      11.8136            0  ]
[            0            0      66.8277  ]
unit cell volume = 4279.31
G =
[    1.15916    0.26593         -0  ]
[          0   0.531861          0  ]
[         -0          0  0.0940206  ]
Minimum fftbox size, Smin = [  24  52  272  ]
Chosen fftbox size, S = [  24  54  280  ]

---------- Exchange Correlation functional ----------
Initalized PBE GGA exchange.
Initalized PBE GGA correlation.

---------- Setting up pseudopotentials ----------
Width of ionic core gaussian charges (only for fluid interactions / plotting) set to 0

Reading pseudopotential file '/projects/musgravc/apps/jdftx-1.6.0/build/pseudopotentials/GBRV_v1.5/ag_pbe_v1.4.uspp':
  Title: Ag.  Created by USPP 7.3.6 on 1-4-15
  Reference state energy: -147.606242.  19 valence electrons in orbitals:
    |400>  occupation: 2  eigenvalue: -3.637437
    |410>  occupation: 6  eigenvalue: -2.297267
    |420>  occupation: 10  eigenvalue: -0.417763
    |500>  occupation: 0.5  eigenvalue: -0.283525
    |510>  occupation: 0  eigenvalue: -0.122889
  lMax: 2  lLocal: 0  QijEcut: 5.5
  6 projectors sampled on a log grid with 717 points:
    l: 0  eig: -0.283528  rCut: 1.5
    l: 0  eig: -3.637440  rCut: 1.5
    l: 1  eig: -0.122892  rCut: 1.5
    l: 1  eig: -2.297267  rCut: 1.5
    l: 2  eig: -0.417762  rCut: 1.7
    l: 2  eig: -1.000000  rCut: 1.7
  Partial core density with radius 1.2
  Transforming core density to a uniform radial grid of dG=0.02 with 1304 points.
  Transforming local potential to a uniform radial grid of dG=0.02 with 1304 points.
  Transforming nonlocal projectors to a uniform radial grid of dG=0.02 with 432 points.
  Transforming density augmentations to a uniform radial grid of dG=0.02 with 1304 points.
  Transforming atomic orbitals to a uniform radial grid of dG=0.02 with 432 points.
  Core radius for overlap checks: 1.70 bohrs.

Initialized 1 species with 19 total atoms.

Folded 1 k-points by 11x5x1 to 55 k-points.

---------- Setting up k-points, bands, fillings ----------
No reducable k-points. 
Computing the number of bands and number of electrons
Calculating initial fillings.
nElectrons: 361.000000   nBands: 217   nStates: 110

----- Setting up reduced wavefunction bases (one per k-point) -----
average nbasis = 18279.473 , ideal nbasis = 18281.540

----- Initializing Supercell corresponding to k-point mesh -----
Lattice vector linear combinations in supercell:
[  11   0   0  ]
[   0   5   0  ]
[   0   0   1  ]
Supercell lattice vectors:
[  59.6249  -13.5511  0  ]
[  0  59.0679  0  ]
[  0  0  66.8277  ]

Initializing DFT-D3 calculator:
	Parameters set for gga-PBE functional
	s6:  1.000  s_r6:  1.217
	s8:  0.722  s_r8:  1.000
	Per-atom parameters loaded for:
	Ag:  sqrtQ[a0]:  5.443  Rcov[a0]:  2.173  CN: [ 0.00 0.97 ]

---------- Setting up ewald sum ----------
Optimum gaussian width for ewald sums = 3.964993 bohr.
Real space sum over 1045 unit cells with max indices [  9  5  2  ]
Reciprocal space sum over 6435 terms with max indices [  4  6  27  ]

Computing DFT-D3 correction:
# coordination-number Ag 5.361 6.893 8.404 5.361 9.196 9.205 9.210 9.212 9.212 9.212 9.212 9.212 9.212 9.212 9.210 9.205 9.196 8.404 6.893
# diagonal-C6 Ag 268.61 268.61 268.61 268.61 268.61 268.61 268.61 268.61 268.61 268.61 268.61 268.61 268.61 268.61 268.61 268.61 268.61 268.61 268.61
EvdW_6 =   -0.130477
EvdW_8 =   -0.172538

---------- Allocating electronic variables ----------
Initializing wave functions:  linear combination of atomic orbitals
Ag pseudo-atom occupations:   s ( 2 1 )  p ( 6 0 )  d ( 10 )
	FillingsUpdate:  mu: +0.135735757  nElectrons: 361.000000  magneticMoment: [ Abs: 0.00155  Tot: -0.00005 ]
LCAOMinimize: Iter:   0  F: -2804.2788230992482568  |grad|_K:  7.924e-04  alpha:  1.000e+00
	FillingsUpdate:  mu: +0.214633108  nElectrons: 361.000000  magneticMoment: [ Abs: 0.00147  Tot: -0.00002 ]
LCAOMinimize: Iter:   1  F: -2804.3682318382125231  |grad|_K:  3.445e-04  alpha:  3.540e-02  linmin: -9.768e-02  cgtest:  4.588e-01  t[s]:    136.75
LCAOMinimize: Encountered beta<0, resetting CG.
LCAOMinimize: 	Predicted alpha/alphaT>3.000000, increasing alphaT to 1.062019e-01.
	FillingsUpdate:  mu: +0.241163697  nElectrons: 361.000000  magneticMoment: [ Abs: 0.00112  Tot: -0.00006 ]
LCAOMinimize: Iter:   2  F: -2804.5055296408772847  |grad|_K:  2.638e-04  alpha:  3.165e-01  linmin: -2.678e-02  cgtest:  2.013e-01  t[s]:    205.80
	FillingsUpdate:  mu: +0.286125154  nElectrons: 361.000000  magneticMoment: [ Abs: 0.00103  Tot: -0.00003 ]
LCAOMinimize: Iter:   3  F: -2804.5286286965920226  |grad|_K:  2.586e-04  alpha:  1.016e-01  linmin:  1.043e-02  cgtest: -2.588e-01  t[s]:    260.80
	FillingsUpdate:  mu: +0.257570658  nElectrons: 361.000000  magneticMoment: [ Abs: 0.00096  Tot: +0.00001 ]
LCAOMinimize: Iter:   4  F: -2804.5450901879630692  |grad|_K:  1.338e-04  alpha:  8.559e-02  linmin: -1.038e-03  cgtest:  6.709e-01  t[s]:    315.50
LCAOMinimize: Encountered beta<0, resetting CG.
	FillingsUpdate:  mu: +0.241963383  nElectrons: 361.000000  magneticMoment: [ Abs: 0.00096  Tot: +0.00000 ]
LCAOMinimize: Iter:   5  F: -2804.5480055474440633  |grad|_K:  6.588e-05  alpha:  4.818e-02  linmin:  1.912e-04  cgtest:  2.113e-04  t[s]:    370.36
	FillingsUpdate:  mu: +0.245082395  nElectrons: 361.000000  magneticMoment: [ Abs: 0.00096  Tot: +0.00000 ]
LCAOMinimize: Iter:   6  F: -2804.5489211232970774  |grad|_K:  7.066e-05  alpha:  6.245e-02  linmin:  1.525e-04  cgtest:  8.911e-04  t[s]:    425.33
	FillingsUpdate:  mu: +0.250829001  nElectrons: 361.000000  magneticMoment: [ Abs: 0.00095  Tot: +0.00000 ]
LCAOMinimize: Iter:   7  F: -2804.5495613372809203  |grad|_K:  1.835e-05  alpha:  3.800e-02  linmin:  2.724e-05  cgtest: -1.157e-03  t[s]:    480.25
LCAOMinimize: 	Predicted alpha/alphaT>3.000000, increasing alphaT to 1.140063e-01.
LCAOMinimize: 	Predicted alpha/alphaT>3.000000, increasing alphaT to 3.420189e-01.
	FillingsUpdate:  mu: +0.248407670  nElectrons: 361.000000  magneticMoment: [ Abs: 0.00094  Tot: +0.00001 ]
LCAOMinimize: Iter:   8  F: -2804.5500325799353050  |grad|_K:  6.319e-06  alpha:  4.137e-01  linmin: -6.085e-05  cgtest: -2.547e-02  t[s]:    563.37
	FillingsUpdate:  mu: +0.248180721  nElectrons: 361.000000  magneticMoment: [ Abs: 0.00094  Tot: +0.00001 ]
LCAOMinimize: Iter:   9  F: -2804.5500433848428656  |grad|_K:  9.511e-06  alpha:  8.008e-02  linmin:  5.700e-05  cgtest: -3.212e-04  t[s]:    618.29
	FillingsUpdate:  mu: +0.248292804  nElectrons: 361.000000  magneticMoment: [ Abs: 0.00094  Tot: +0.00002 ]
LCAOMinimize: Iter:  10  F: -2804.5500621606493041  |grad|_K:  4.670e-06  alpha:  6.145e-02  linmin: -3.031e-05  cgtest:  3.813e-03  t[s]:    673.17
	FillingsUpdate:  mu: +0.248965944  nElectrons: 361.000000  magneticMoment: [ Abs: 0.00094  Tot: +0.00002 ]
LCAOMinimize: Iter:  11  F: -2804.5500654303755255  |grad|_K:  1.007e-06  alpha:  4.432e-02  linmin:  7.248e-07  cgtest: -6.006e-03  t[s]:    728.19
LCAOMinimize: 	Predicted alpha/alphaT>3.000000, increasing alphaT to 1.329701e-01.
LCAOMinimize: 	Predicted alpha/alphaT>3.000000, increasing alphaT to 3.989104e-01.
	FillingsUpdate:  mu: +0.248995244  nElectrons: 361.000000  magneticMoment: [ Abs: 0.00094  Tot: +0.00002 ]
LCAOMinimize: Iter:  12  F: -2804.5500669257185109  |grad|_K:  7.060e-07  alpha:  4.358e-01  linmin: -5.564e-05  cgtest:  5.108e-04  t[s]:    811.47
	FillingsUpdate:  mu: +0.248996426  nElectrons: 361.000000  magneticMoment: [ Abs: 0.00094  Tot: +0.00002 ]
LCAOMinimize: Iter:  13  F: -2804.5500669753082548  |grad|_K:  5.087e-07  alpha:  2.942e-02  linmin: -1.931e-05  cgtest: -4.813e-04  t[s]:    867.05
LCAOMinimize: 	Predicted alpha/alphaT>3.000000, increasing alphaT to 8.824797e-02.
	FillingsUpdate:  mu: +0.249012339  nElectrons: 361.000000  magneticMoment: [ Abs: 0.00094  Tot: +0.00002 ]
LCAOMinimize: Iter:  14  F: -2804.5500671038253131  |grad|_K:  3.664e-07  alpha:  1.467e-01  linmin: -1.066e-04  cgtest:  1.957e-03  t[s]:    935.97
LCAOMinimize: Converged (|Delta F|<1.000000e-06 for 2 iters).


---- Citations for features of the code used in this run ----

   Software package:
      R. Sundararaman, K. Letchworth-Weaver, K.A. Schwarz, D. Gunceler, Y. Ozhabes and T.A. Arias, 'JDFTx: software for joint density-functional theory', SoftwareX 6, 278 (2017)

   gga-PBE exchange-correlation functional:
      J.P. Perdew, K. Burke and M. Ernzerhof, Phys. Rev. Lett. 77, 3865 (1996)

   Pseudopotentials:
      KF Garrity, JW Bennett, KM Rabe and D Vanderbilt, Comput. Mater. Sci. 81, 446 (2014)

   DFT-D3 dispersion correction:
      S. Grimme, J. Antony, S. Ehrlich and H. Krieg, J. Chem. Phys. 132, 154104 (2010)

   Total energy minimization with Auxiliary Hamiltonian:
      C. Freysoldt, S. Boeck, and J. Neugebauer, Phys. Rev. B 79, 241103(R) (2009)

   Linear-tetrahedron sampling for density of states:
      G. Lehmann and M. Taut, Phys. status solidi (b) 54, 469 (1972)

This list may not be complete. Please suggest additional citations or
report any other bugs at https://github.com/shankar1729/jdftx/issues

Initialization completed successfully at t[s]:    946.62


Computing DFT-D3 correction:
# coordination-number Ag 5.361 6.893 8.404 5.361 9.196 9.205 9.210 9.212 9.212 9.212 9.212 9.212 9.212 9.212 9.210 9.205 9.196 8.404 6.893
# diagonal-C6 Ag 268.61 268.61 268.61 268.61 268.61 268.61 268.61 268.61 268.61 268.61 268.61 268.61 268.61 268.61 268.61 268.61 268.61 268.61 268.61
EvdW_6 =   -0.130477
EvdW_8 =   -0.172538

-------- Electronic minimization -----------
	FillingsUpdate:  mu: +0.249012339  nElectrons: 361.000000  magneticMoment: [ Abs: 0.00094  Tot: +0.00002 ]
ElecMinimize: Iter:   0  F: -2804.550067103811216  |grad|_K:  2.068e-05  alpha:  1.000e+00
	FillingsUpdate:  mu: +0.255561858  nElectrons: 361.000000  magneticMoment: [ Abs: 0.00072  Tot: +0.00003 ]
	SubspaceRotationAdjust: set factor to 1
ElecMinimize: Iter:   1  F: -2804.629947694816110  |grad|_K:  1.408e-05  alpha:  4.266e-01  linmin:  2.819e-05  t[s]:   1080.20
	FillingsUpdate:  mu: +0.240055690  nElectrons: 361.000000  magneticMoment: [ Abs: 0.00055  Tot: +0.00002 ]
	SubspaceRotationAdjust: set factor to 0.905
ElecMinimize: Iter:   2  F: -2804.653508935041827  |grad|_K:  8.850e-06  alpha:  2.703e-01  linmin: -1.179e-05  t[s]:   1164.10
	FillingsUpdate:  mu: +0.257221459  nElectrons: 361.000000  magneticMoment: [ Abs: 0.00051  Tot: +0.00002 ]
	SubspaceRotationAdjust: set factor to 0.558
ElecMinimize: Iter:   3  F: -2804.655929626735087  |grad|_K:  7.500e-06  alpha:  7.101e-02  linmin:  5.839e-05  t[s]:   1248.52
	FillingsUpdate:  mu: +0.255650357  nElectrons: 361.000000  magneticMoment: [ Abs: 0.00040  Tot: +0.00002 ]
	SubspaceRotationAdjust: set factor to 0.311
ElecMinimize: Iter:   4  F: -2804.660102488103348  |grad|_K:  9.167e-06  alpha:  1.709e-01  linmin:  3.848e-05  t[s]:   1332.50
	FillingsUpdate:  mu: +0.252671790  nElectrons: 361.000000  magneticMoment: [ Abs: 0.00034  Tot: +0.00001 ]
	SubspaceRotationAdjust: set factor to 0.25
ElecMinimize: Iter:   5  F: -2804.661954832479751  |grad|_K:  2.959e-06  alpha:  4.992e-02  linmin: -7.608e-05  t[s]:   1416.60
ElecMinimize: 	Predicted alpha/alphaT>3.000000, increasing alphaT to 1.497619e-01.
	FillingsUpdate:  mu: +0.247387788  nElectrons: 361.000000  magneticMoment: [ Abs: 0.00026  Tot: +0.00001 ]
	SubspaceRotationAdjust: set factor to 0.164
ElecMinimize: Iter:   6  F: -2804.663218558485369  |grad|_K:  3.310e-06  alpha:  3.268e-01  linmin:  4.341e-05  t[s]:   1521.93
	FillingsUpdate:  mu: +0.248844210  nElectrons: 361.000000  magneticMoment: [ Abs: 0.00022  Tot: +0.00001 ]
	SubspaceRotationAdjust: set factor to 0.146
ElecMinimize: Iter:   7  F: -2804.663773944697368  |grad|_K:  1.867e-06  alpha:  1.159e-01  linmin:  7.611e-06  t[s]:   1606.00
	FillingsUpdate:  mu: +0.253816636  nElectrons: 361.000000  magneticMoment: [ Abs: 0.00017  Tot: +0.00001 ]
	SubspaceRotationAdjust: set factor to 0.144
ElecMinimize: Iter:   8  F: -2804.664195221052978  |grad|_K:  1.524e-06  alpha:  2.754e-01  linmin: -3.619e-06  t[s]:   1690.29
	FillingsUpdate:  mu: +0.254198374  nElectrons: 361.000000  magneticMoment: [ Abs: 0.00015  Tot: +0.00001 ]
	SubspaceRotationAdjust: set factor to 0.14
ElecMinimize: Iter:   9  F: -2804.664393483260938  |grad|_K:  1.125e-06  alpha:  1.943e-01  linmin: -1.323e-06  t[s]:   1774.42
	FillingsUpdate:  mu: +0.251705994  nElectrons: 361.000000  magneticMoment: [ Abs: 0.00014  Tot: +0.00001 ]
	SubspaceRotationAdjust: set factor to 0.173
ElecMinimize: Iter:  10  F: -2804.664530429796741  |grad|_K:  8.018e-07  alpha:  2.468e-01  linmin:  2.576e-05  t[s]:   1858.88
	FillingsUpdate:  mu: +0.251352688  nElectrons: 361.000000  magneticMoment: [ Abs: 0.00013  Tot: +0.00001 ]
	SubspaceRotationAdjust: set factor to 0.15
ElecMinimize: Iter:  11  F: -2804.664595762052159  |grad|_K:  7.853e-07  alpha:  2.319e-01  linmin:  7.588e-06  t[s]:   1942.86
	FillingsUpdate:  mu: +0.252730729  nElectrons: 361.000000  magneticMoment: [ Abs: 0.00014  Tot: +0.00001 ]
	SubspaceRotationAdjust: set factor to 0.218
ElecMinimize: Iter:  12  F: -2804.664663465440753  |grad|_K:  5.236e-07  alpha:  2.503e-01  linmin:  6.465e-06  t[s]:   2026.95
	FillingsUpdate:  mu: +0.253230244  nElectrons: 361.000000  magneticMoment: [ Abs: 0.00014  Tot: +0.00001 ]
	SubspaceRotationAdjust: set factor to 0.159
ElecMinimize: Iter:  13  F: -2804.664696322715372  |grad|_K:  6.175e-07  alpha:  2.732e-01  linmin:  4.248e-06  t[s]:   2111.06
	FillingsUpdate:  mu: +0.253080098  nElectrons: 361.000000  magneticMoment: [ Abs: 0.00014  Tot: +0.00001 ]
	SubspaceRotationAdjust: set factor to 0.177
ElecMinimize: Iter:  14  F: -2804.664730037661684  |grad|_K:  4.088e-07  alpha:  2.012e-01  linmin:  2.987e-06  t[s]:   2195.31
	FillingsUpdate:  mu: +0.252491940  nElectrons: 361.000000  magneticMoment: [ Abs: 0.00014  Tot: +0.00001 ]
	SubspaceRotationAdjust: set factor to 0.182
ElecMinimize: Iter:  15  F: -2804.664756411466442  |grad|_K:  4.270e-07  alpha:  3.609e-01  linmin:  2.444e-05  t[s]:   2279.37
	FillingsUpdate:  mu: +0.252724993  nElectrons: 361.000000  magneticMoment: [ Abs: 0.00013  Tot: +0.00001 ]
	SubspaceRotationAdjust: set factor to 0.155
ElecMinimize: Iter:  16  F: -2804.664774016478077  |grad|_K:  3.819e-07  alpha:  2.212e-01  linmin: -7.126e-07  t[s]:   2363.53
	FillingsUpdate:  mu: +0.253468803  nElectrons: 361.000000  magneticMoment: [ Abs: 0.00012  Tot: +0.00001 ]
	SubspaceRotationAdjust: set factor to 0.176
ElecMinimize: Iter:  17  F: -2804.664790821513634  |grad|_K:  2.741e-07  alpha:  2.625e-01  linmin: -5.506e-08  t[s]:   2447.77
	FillingsUpdate:  mu: +0.253406510  nElectrons: 361.000000  magneticMoment: [ Abs: 0.00011  Tot: +0.00000 ]
	SubspaceRotationAdjust: set factor to 0.168
ElecMinimize: Iter:  18  F: -2804.664801330383852  |grad|_K:  2.900e-07  alpha:  3.189e-01  linmin:  3.830e-06  t[s]:   2531.90
	FillingsUpdate:  mu: +0.253180060  nElectrons: 361.000000  magneticMoment: [ Abs: 0.00009  Tot: +0.00000 ]
	SubspaceRotationAdjust: set factor to 0.141
ElecMinimize: Iter:  19  F: -2804.664808428213746  |grad|_K:  1.839e-07  alpha:  1.923e-01  linmin: -1.231e-06  t[s]:   2616.18
	FillingsUpdate:  mu: +0.253203813  nElectrons: 361.000000  magneticMoment: [ Abs: 0.00008  Tot: +0.00000 ]
	SubspaceRotationAdjust: set factor to 0.164
ElecMinimize: Iter:  20  F: -2804.664813038478769  |grad|_K:  1.525e-07  alpha:  3.104e-01  linmin:  5.721e-07  t[s]:   2700.74
	FillingsUpdate:  mu: +0.253320177  nElectrons: 361.000000  magneticMoment: [ Abs: 0.00006  Tot: +0.00000 ]
	SubspaceRotationAdjust: set factor to 0.131
	SubspaceRotationAdjust: resetting CG because factor has changed by 0.131169
ElecMinimize: 	State modified externally: resetting search direction.
ElecMinimize: Iter:  21  F: -2804.664815381496282  |grad|_K:  1.145e-07  alpha:  2.297e-01
	FillingsUpdate:  mu: +0.253304115  nElectrons: 361.000000  magneticMoment: [ Abs: 0.00006  Tot: +0.00000 ]
	SubspaceRotationAdjust: set factor to 0.145
ElecMinimize: Iter:  22  F: -2804.664816818377858  |grad|_K:  7.678e-08  alpha:  2.497e-01  linmin:  3.987e-07  t[s]:   2913.99
	FillingsUpdate:  mu: +0.253312000  nElectrons: 361.000000  magneticMoment: [ Abs: 0.00005  Tot: +0.00000 ]
	SubspaceRotationAdjust: set factor to 0.112
ElecMinimize: Iter:  23  F: -2804.664817844919526  |grad|_K:  7.403e-08  alpha:  3.967e-01  linmin: -2.341e-07  t[s]:   2998.76
	FillingsUpdate:  mu: +0.253317204  nElectrons: 361.000000  magneticMoment: [ Abs: 0.00003  Tot: +0.00000 ]
	SubspaceRotationAdjust: set factor to 0.0957
ElecMinimize: Iter:  24  F: -2804.664818817340347  |grad|_K:  4.996e-08  alpha:  4.043e-01  linmin: -1.426e-07  t[s]:   3083.36
	FillingsUpdate:  mu: +0.253282354  nElectrons: 361.000000  magneticMoment: [ Abs: 0.00002  Tot: +0.00000 ]
	SubspaceRotationAdjust: set factor to 0.0969
ElecMinimize: Iter:  25  F: -2804.664819325041663  |grad|_K:  3.564e-08  alpha:  4.639e-01  linmin:  1.473e-06  t[s]:   3167.52
	FillingsUpdate:  mu: +0.253288672  nElectrons: 361.000000  magneticMoment: [ Abs: 0.00002  Tot: +0.00000 ]
	SubspaceRotationAdjust: set factor to 0.11
ElecMinimize: Iter:  26  F: -2804.664819563076435  |grad|_K:  2.441e-08  alpha:  4.277e-01  linmin: -4.074e-08  t[s]:   3251.79
	FillingsUpdate:  mu: +0.253287217  nElectrons: 361.000000  magneticMoment: [ Abs: 0.00001  Tot: +0.00000 ]
	SubspaceRotationAdjust: set factor to 0.13
ElecMinimize: Iter:  27  F: -2804.664819696884479  |grad|_K:  1.935e-08  alpha:  5.120e-01  linmin:  2.026e-07  t[s]:   3336.08
	FillingsUpdate:  mu: +0.253274046  nElectrons: 361.000000  magneticMoment: [ Abs: 0.00001  Tot: +0.00000 ]
	SubspaceRotationAdjust: set factor to 0.158
ElecMinimize: Iter:  28  F: -2804.664819784320116  |grad|_K:  1.605e-08  alpha:  5.329e-01  linmin:  1.037e-07  t[s]:   3420.63
	FillingsUpdate:  mu: +0.253278571  nElectrons: 361.000000  magneticMoment: [ Abs: 0.00001  Tot: +0.00000 ]
	SubspaceRotationAdjust: set factor to 0.18
ElecMinimize: Iter:  29  F: -2804.664819852542678  |grad|_K:  1.472e-08  alpha:  6.042e-01  linmin:  6.284e-07  t[s]:   3505.08
ElecMinimize: Converged (|Delta F|<1.000000e-07 for 2 iters).
Setting wave functions to eigenvectors of Hamiltonian
Converging empty states (this may take a while): |deigs|: 9.954e-03

Computing DFT-D3 correction:
# coordination-number Ag 5.361 6.893 8.404 5.361 9.196 9.205 9.210 9.212 9.212 9.212 9.212 9.212 9.212 9.212 9.210 9.205 9.196 8.404 6.893
# diagonal-C6 Ag 268.61 268.61 268.61 268.61 268.61 268.61 268.61 268.61 268.61 268.61 268.61 268.61 268.61 268.61 268.61 268.61 268.61 268.61 268.61
EvdW_6 =   -0.130477
EvdW_8 =   -0.172538

# Ionic positions in cartesian coordinates:
ion Ag  -0.000002000000000   7.461215000000000  65.948428000000007 1
ion Ag   2.710224000000000   3.108840000000000  64.189788999999990 1
ion Ag   2.710222000000000  10.570055000000000  62.431216999999997 1
ion Ag   2.710224000000000  11.813589000000000  34.293193000000002 1
ion Ag  -0.000000000000000   6.217681000000001  60.672577999999994 1
ion Ag   2.710221000000000   1.865307000000000  58.913938999999992 1
ion Ag   2.710224000000000   9.326521000000001  57.155299999999990 1
ion Ag  -0.000002000000000   4.974147000000000  55.396660999999995 1
ion Ag   2.710224000000000   0.621773000000000  53.638089000000001 1
ion Ag   2.710221000000000   8.082987000000001  51.879449999999999 1
ion Ag   0.000003000000000   3.730601000000001  50.120810999999996 1
ion Ag   0.000000999999999  11.191816000000001  48.362171999999994 1
ion Ag   2.710227000000000   6.839442000000001  46.603532999999992 1
ion Ag   0.000000000000000   2.487068000000000  44.844960000000000 1
ion Ag   0.000004000000000   9.948282000000003  43.086320999999991 1
ion Ag   2.710223999999999   5.595908000000001  41.327681999999996 1
ion Ag   0.000003000000000   1.243534000000000  39.569042999999994 1
ion Ag   0.000001000000000   8.704748000000000  37.810403999999998 1
ion Ag   2.710227000000000   4.352374000000000  36.051831999999997 1

# Forces in Cartesian coordinates:
force Ag   0.000010220339090   0.001146186469084  -0.001650836668666 1
force Ag  -0.000019168623633  -0.003143225370277   0.003638504545672 1
force Ag   0.000053236390908   0.002513933438322   0.004752305284399 1
force Ag   0.000008830487596  -0.001186615325394   0.001670627170031 1
force Ag   0.000006676394361   0.000342115915227  -0.001203304716183 1
force Ag  -0.000036465822093  -0.000469617661360  -0.000875829782588 1
force Ag   0.000011739149113  -0.000620790632499  -0.000429906506865 1
force Ag  -0.000027395000190   0.000102609752503   0.000320505580926 1
force Ag   0.000058239119845  -0.000140816838267  -0.000242666525061 1
force Ag   0.000019158765050  -0.000054701913901   0.000044680423673 1
force Ag   0.000038230653368  -0.000009378600206   0.000034157933401 1
force Ag  -0.000074327138439   0.000035530720825   0.000015356831417 1
force Ag  -0.000021591909385   0.000132582186166   0.000315046628311 1
force Ag   0.000020362004510  -0.000084306444558  -0.000241212749826 1
force Ag  -0.000034796412369   0.000634411807574   0.000511907220337 1
force Ag   0.000089395199489   0.000505928393187   0.000966534149386 1
force Ag  -0.000069502399094  -0.000345250716957   0.001276043060903 1
force Ag  -0.000002438930696  -0.002501080198216  -0.004704527241608 1
force Ag  -0.000036638369287   0.003096277870246  -0.003598169448998 1

# Energy components:
   Eewald =    15833.0875170978324604
       EH =    18411.8871960038850375
     Eloc =   -37490.1704927709288313
      Enl =       74.9217199226295918
     EvdW =       -0.3030152530563577
      Exc =     -275.4086174772219806
 Exc_core =        3.9552384612395004
       KE =      637.3660142687606367
-------------------------------------
     Etot =    -2804.6644397468562602
       TS =        0.0003801056865252
-------------------------------------
        F =    -2804.6648198525426778


Dumping 'jdft.fillings' ... done
Dumping 'jdft.wfns' ... done
Dumping 'jdft.ionpos' ... done
Dumping 'jdft.lattice' ... done
Dumping 'jdft.eigenvals' ... done
Dumping 'jdft.eigStats' ... 
	eMin: -3.132308 at state 55 ( [ +0.000000 +0.000000 +0.000000 ] spin -1 )
	HOMO: +0.253168 at state 104 ( [ -0.181818 -0.200000 +0.000000 ] spin -1 )
	mu  : +0.253279
	LUMO: +0.253679 at state 47 ( [ -0.181818 +0.400000 +0.000000 ] spin 1 )
	eMax: +0.605263 at state 0 ( [ +0.000000 +0.000000 +0.000000 ] spin 1 )
	HOMO-LUMO gap: +0.000511
	Optical gap  : +0.003226 at state 69 ( [ +0.181818 -0.200000 +0.000000 ] spin -1 )
Dumping 'jdft.Ecomponents' ... done
IonicMinimize: Iter:   0  F: -2804.664819852542678  |grad|_K:  1.441e-03  t[s]:   3788.42

#--- Lowdin population analysis ---
# oxidation-state Ag +0.093 +0.018 -0.063 +0.093 -0.013 -0.000 +0.003 +0.005 +0.002 +0.001 +0.005 +0.001 +0.002 +0.004 +0.003 -0.001 -0.013 -0.063 +0.017
# magnetic-moments Ag +0.000 +0.000 +0.000 +0.000 +0.000 +0.000 +0.000 +0.000 +0.000 +0.000 +0.000 +0.000 +0.000 +0.000 +0.000 +0.000 +0.000 +0.000 +0.000


Computing DFT-D3 correction:
# coordination-number Ag 5.363 6.888 8.403 5.363 9.187 9.200 9.209 9.213 9.212 9.213 9.212 9.213 9.213 9.213 9.209 9.200 9.187 8.403 6.888
# diagonal-C6 Ag 268.61 268.61 268.61 268.61 268.61 268.61 268.61 268.61 268.61 268.61 268.61 268.61 268.61 268.61 268.61 268.61 268.61 268.61 268.61
EvdW_6 =   -0.130470
EvdW_8 =   -0.172526

-------- Electronic minimization -----------
	FillingsUpdate:  mu: +0.253098677  nElectrons: 361.000000  magneticMoment: [ Abs: 0.00000  Tot: +0.00000 ]
ElecMinimize: Iter:   0  F: -2804.664900919514366  |grad|_K:  2.540e-07  alpha:  1.000e+00
	FillingsUpdate:  mu: +0.253179357  nElectrons: 361.000000  magneticMoment: [ Abs: 0.00000  Tot: +0.00000 ]
	SubspaceRotationAdjust: set factor to 0.115
ElecMinimize: Iter:   1  F: -2804.664904690506773  |grad|_K:  1.564e-07  alpha:  1.332e-01  linmin:  1.917e-05  t[s]:   3943.10
ElecMinimize: 	Predicted alpha/alphaT>3.000000, increasing alphaT to 3.997109e-01.
	FillingsUpdate:  mu: +0.253469876  nElectrons: 361.000000  magneticMoment: [ Abs: 0.00000  Tot: +0.00000 ]
	SubspaceRotationAdjust: set factor to 0.145
ElecMinimize: Iter:   2  F: -2804.664913806647291  |grad|_K:  1.771e-07  alpha:  8.497e-01  linmin:  1.972e-06  t[s]:   4048.62
	FillingsUpdate:  mu: +0.253057934  nElectrons: 361.000000  magneticMoment: [ Abs: 0.00000  Tot: +0.00000 ]
	SubspaceRotationAdjust: set factor to 0.147
ElecMinimize: Iter:   3  F: -2804.664923810664732  |grad|_K:  1.863e-07  alpha:  7.265e-01  linmin: -2.079e-07  t[s]:   4132.88
	FillingsUpdate:  mu: +0.253316841  nElectrons: 361.000000  magneticMoment: [ Abs: 0.00000  Tot: +0.00000 ]
	SubspaceRotationAdjust: set factor to 0.149
ElecMinimize: Iter:   4  F: -2804.664930548524808  |grad|_K:  1.312e-07  alpha:  4.422e-01  linmin: -2.029e-07  t[s]:   4216.78
	FillingsUpdate:  mu: +0.253351532  nElectrons: 361.000000  magneticMoment: [ Abs: 0.00000  Tot: +0.00000 ]
	SubspaceRotationAdjust: set factor to 0.12
ElecMinimize: Iter:   5  F: -2804.664933280881087  |grad|_K:  1.009e-07  alpha:  3.616e-01  linmin:  2.378e-07  t[s]:   4301.01
	FillingsUpdate:  mu: +0.253273201  nElectrons: 361.000000  magneticMoment: [ Abs: 0.00000  Tot: +0.00000 ]
	SubspaceRotationAdjust: set factor to 0.0733
ElecMinimize: Iter:   6  F: -2804.664934315780101  |grad|_K:  6.261e-08  alpha:  2.314e-01  linmin:  3.308e-06  t[s]:   4385.23
	FillingsUpdate:  mu: +0.253231628  nElectrons: 361.000000  magneticMoment: [ Abs: 0.00000  Tot: +0.00000 ]
	SubspaceRotationAdjust: set factor to 0.0837
ElecMinimize: Iter:   7  F: -2804.664934893566624  |grad|_K:  3.853e-08  alpha:  3.356e-01  linmin: -2.157e-05  t[s]:   4469.54
	FillingsUpdate:  mu: +0.253257031  nElectrons: 361.000000  magneticMoment: [ Abs: 0.00000  Tot: +0.00000 ]
	SubspaceRotationAdjust: set factor to 0.0834
ElecMinimize: Iter:   8  F: -2804.664935129361766  |grad|_K:  2.337e-08  alpha:  3.617e-01  linmin: -1.987e-05  t[s]:   4554.34
	FillingsUpdate:  mu: +0.253273127  nElectrons: 361.000000  magneticMoment: [ Abs: 0.00000  Tot: +0.00000 ]
	SubspaceRotationAdjust: set factor to 0.0662
ElecMinimize: Iter:   9  F: -2804.664935222054737  |grad|_K:  1.528e-08  alpha:  3.860e-01  linmin: -5.671e-05  t[s]:   4638.80
	FillingsUpdate:  mu: +0.253257985  nElectrons: 361.000000  magneticMoment: [ Abs: 0.00000  Tot: +0.00000 ]
	SubspaceRotationAdjust: set factor to 0.0713
ElecMinimize: Iter:  10  F: -2804.664935262256222  |grad|_K:  1.033e-08  alpha:  3.922e-01  linmin:  6.894e-05  t[s]:   4723.20
ElecMinimize: Converged (|Delta F|<1.000000e-07 for 2 iters).
Setting wave functions to eigenvectors of Hamiltonian
Converging empty states (this may take a while): |deigs|: 8.256e-09

Computing DFT-D3 correction:
# coordination-number Ag 5.363 6.888 8.403 5.363 9.187 9.200 9.209 9.213 9.212 9.213 9.212 9.213 9.213 9.213 9.209 9.200 9.187 8.403 6.888
# diagonal-C6 Ag 268.61 268.61 268.61 268.61 268.61 268.61 268.61 268.61 268.61 268.61 268.61 268.61 268.61 268.61 268.61 268.61 268.61 268.61 268.61
EvdW_6 =   -0.130470
EvdW_8 =   -0.172526
IonicMinimize: 	Wolfe criterion not satisfied: alpha: 1  (E-E0)/|gdotd0|: -0.975543  gdotd/gdotd0: 0.951689 (taking cubic step)

Computing DFT-D3 correction:
# coordination-number Ag 5.368 6.878 8.401 5.368 9.170 9.192 9.206 9.216 9.213 9.214 9.212 9.214 9.213 9.216 9.206 9.191 9.170 8.401 6.878
# diagonal-C6 Ag 268.61 268.61 268.61 268.61 268.61 268.61 268.61 268.61 268.61 268.61 268.61 268.61 268.61 268.61 268.61 268.61 268.61 268.61 268.61
EvdW_6 =   -0.130455
EvdW_8 =   -0.172502

-------- Electronic minimization -----------
	FillingsUpdate:  mu: +0.253223908  nElectrons: 361.000000  magneticMoment: [ Abs: 0.00000  Tot: +0.00000 ]
ElecMinimize: Iter:   0  F: -2804.665015344132826  |grad|_K:  2.433e-07  alpha:  1.000e+00
	FillingsUpdate:  mu: +0.253029550  nElectrons: 361.000000  magneticMoment: [ Abs: 0.00000  Tot: +0.00000 ]
	SubspaceRotationAdjust: set factor to 0.0671
ElecMinimize: Iter:   1  F: -2804.665029919427070  |grad|_K:  2.248e-07  alpha:  5.610e-01  linmin: -1.030e-06  t[s]:   4963.86
	FillingsUpdate:  mu: +0.253112588  nElectrons: 361.000000  magneticMoment: [ Abs: 0.00000  Tot: +0.00000 ]
	SubspaceRotationAdjust: set factor to 0.0752
ElecMinimize: Iter:   2  F: -2804.665046375938800  |grad|_K:  2.799e-07  alpha:  7.418e-01  linmin:  1.316e-06  t[s]:   5047.77
	FillingsUpdate:  mu: +0.253335628  nElectrons: 361.000000  magneticMoment: [ Abs: 0.00000  Tot: +0.00000 ]
	SubspaceRotationAdjust: set factor to 0.0839
ElecMinimize: Iter:   3  F: -2804.665075352650092  |grad|_K:  3.402e-07  alpha:  8.428e-01  linmin:  6.598e-07  t[s]:   5131.84
	FillingsUpdate:  mu: +0.253187083  nElectrons: 361.000000  magneticMoment: [ Abs: 0.00000  Tot: +0.00000 ]
	SubspaceRotationAdjust: set factor to 0.085
ElecMinimize: Iter:   4  F: -2804.665104862264798  |grad|_K:  3.266e-07  alpha:  5.810e-01  linmin: -8.967e-08  t[s]:   5215.86
	FillingsUpdate:  mu: +0.253186136  nElectrons: 361.000000  magneticMoment: [ Abs: 0.00000  Tot: +0.00000 ]
	SubspaceRotationAdjust: set factor to 0.0743
ElecMinimize: Iter:   5  F: -2804.665127373867563  |grad|_K:  2.327e-07  alpha:  4.807e-01  linmin:  6.425e-07  t[s]:   5300.05
	FillingsUpdate:  mu: +0.253366206  nElectrons: 361.000000  magneticMoment: [ Abs: 0.00000  Tot: +0.00000 ]
	SubspaceRotationAdjust: set factor to 0.0629
ElecMinimize: Iter:   6  F: -2804.665139217092928  |grad|_K:  1.514e-07  alpha:  4.983e-01  linmin:  6.859e-07  t[s]:   5383.92
	FillingsUpdate:  mu: +0.253294067  nElectrons: 361.000000  magneticMoment: [ Abs: 0.00000  Tot: +0.00000 ]
	SubspaceRotationAdjust: set factor to 0.0614
ElecMinimize: Iter:   7  F: -2804.665143390832327  |grad|_K:  1.021e-07  alpha:  4.148e-01  linmin: -1.869e-06  t[s]:   5468.48
	FillingsUpdate:  mu: +0.253245009  nElectrons: 361.000000  magneticMoment: [ Abs: 0.00000  Tot: +0.00000 ]
	SubspaceRotationAdjust: set factor to 0.0644
ElecMinimize: Iter:   8  F: -2804.665145070503513  |grad|_K:  6.050e-08  alpha:  3.669e-01  linmin:  2.674e-07  t[s]:   5552.78
	FillingsUpdate:  mu: +0.253257160  nElectrons: 361.000000  magneticMoment: [ Abs: 0.00000  Tot: +0.00000 ]
	SubspaceRotationAdjust: set factor to 0.0646
ElecMinimize: Iter:   9  F: -2804.665145719896373  |grad|_K:  3.654e-08  alpha:  4.043e-01  linmin:  7.980e-06  t[s]:   5637.06
	FillingsUpdate:  mu: +0.253261077  nElectrons: 361.000000  magneticMoment: [ Abs: 0.00000  Tot: +0.00000 ]
	SubspaceRotationAdjust: set factor to 0.0696
ElecMinimize: Iter:  10  F: -2804.665145970246158  |grad|_K:  2.260e-08  alpha:  4.269e-01  linmin: -5.859e-05  t[s]:   5721.00
	FillingsUpdate:  mu: +0.253245904  nElectrons: 361.000000  magneticMoment: [ Abs: 0.00000  Tot: +0.00000 ]
	SubspaceRotationAdjust: set factor to 0.0813
ElecMinimize: Iter:  11  F: -2804.665146068812192  |grad|_K:  1.513e-08  alpha:  4.374e-01  linmin: -8.572e-05  t[s]:   5805.08
	FillingsUpdate:  mu: +0.253240218  nElectrons: 361.000000  magneticMoment: [ Abs: 0.00000  Tot: +0.00000 ]
	SubspaceRotationAdjust: set factor to 0.0974
ElecMinimize: Iter:  12  F: -2804.665146114989057  |grad|_K:  1.160e-08  alpha:  4.582e-01  linmin: -2.601e-04  t[s]:   5889.31
ElecMinimize: Converged (|Delta F|<1.000000e-07 for 2 iters).
Setting wave functions to eigenvectors of Hamiltonian
Converging empty states (this may take a while): |deigs|: 2.254e-08

Computing DFT-D3 correction:
# coordination-number Ag 5.368 6.878 8.401 5.368 9.170 9.192 9.206 9.216 9.213 9.214 9.212 9.214 9.213 9.216 9.206 9.191 9.170 8.401 6.878
# diagonal-C6 Ag 268.61 268.61 268.61 268.61 268.61 268.61 268.61 268.61 268.61 268.61 268.61 268.61 268.61 268.61 268.61 268.61 268.61 268.61 268.61
EvdW_6 =   -0.130455
EvdW_8 =   -0.172502

# Ionic positions in cartesian coordinates:
ion Ag   0.000029645664932   7.464660855272806  65.943380877069487 1
ion Ag   2.710167478776762   3.099417619754722  64.200609900712493 1
ion Ag   2.710382693820386  10.577604096180520  62.445379302928671 1
ion Ag   2.710251476110451  11.810036449889372  34.298110268585567 1
ion Ag   0.000021013830745   6.218714643611233  60.668873472926926 1
ion Ag   2.710112587181382   1.863905442881472  58.911216897727705 1
ion Ag   2.710260202094999   9.324665923968055  57.153915667554877 1
ion Ag  -0.000083200352908   4.974462125123063  55.397527903818251 1
ion Ag   2.710399702007196   0.621357845350753  53.637266387500290 1
ion Ag   2.710279460942811   8.082830190123849  51.879489428346488 1
ion Ag   0.000118676607766   3.730580160064936  50.120818860875680 1
ion Ag  -0.000220996767655  11.191929888028028  48.362123457569723 1
ion Ag   2.710163208919505   6.839847042424051  46.604383526960405 1
ion Ag   0.000062070661192   2.486822376531879  44.844141748825997 1
ion Ag  -0.000099404589446   9.950192531288277  43.087762108736477 1
ion Ag   2.710493170246126   5.597433081045114  41.330486989523628 1
ion Ag  -0.000204522549622   1.242505543714683  39.572776516258173 1
ion Ag  -0.000005332144427   8.697252055270907  37.796195805350642 1
ion Ag   2.710118069539799   4.361670129476291  36.040942878728480 1

# Forces in Cartesian coordinates:
force Ag   0.000011165998367   0.000890821696661  -0.001586089758430 1
force Ag  -0.000020180345196  -0.002495657568000   0.003410644465219 1
force Ag   0.000050004528632   0.002150589636424   0.004038697157047 1
force Ag   0.000009494398112  -0.000924252809034   0.001644975831206 1
force Ag   0.000006765206587   0.000268438959259  -0.000735022116806 1
force Ag  -0.000032539016410  -0.000525866567385  -0.000564457919860 1
force Ag   0.000009978651196  -0.000424529267224  -0.000208373713533 1
force Ag  -0.000026350759880   0.000022396442163   0.000102652882294 1
force Ag   0.000057231320747  -0.000121774749350  -0.000370058109147 1
force Ag   0.000017664047658  -0.000069824694837  -0.000109755415789 1
force Ag   0.000035234257500  -0.000008728256166  -0.000052827737184 1
force Ag  -0.000067666251493   0.000057122822851   0.000008471023520 1
force Ag  -0.000023617039652   0.000114932672557   0.000271194939450 1
force Ag   0.000019799820642  -0.000009840138194  -0.000192205272495 1
force Ag  -0.000030929403723   0.000429932019992   0.000153358433020 1
force Ag   0.000080892958868   0.000564793118359   0.000526470563152 1
force Ag  -0.000065821204170  -0.000267638345715   0.000721263053502 1
force Ag  -0.000003127916494  -0.002139476326116  -0.004032501768201 1
force Ag  -0.000031939951424   0.002463999438309  -0.003393667091916 1

# Energy components:
   Eewald =    15825.5238104509207915
       EH =    18404.3287010434432887
     Eloc =   -37475.0452078593370970
      Enl =       74.9218377623355849
     EvdW =       -0.3029571667211413
      Exc =     -275.4064470963990061
 Exc_core =        3.9552387010824535
       KE =      637.3602581170875965
-------------------------------------
     Etot =    -2804.6647660475891826
       TS =        0.0003800673998439
-------------------------------------
        F =    -2804.6651461149890565


Dumping 'jdft.fillings' ... done
Dumping 'jdft.wfns' ... done
Dumping 'jdft.ionpos' ... done
Dumping 'jdft.lattice' ... done
Dumping 'jdft.eigenvals' ... done
Dumping 'jdft.eigStats' ... 
	eMin: -3.132314 at state 55 ( [ +0.000000 +0.000000 +0.000000 ] spin -1 )
	HOMO: +0.253215 at state 104 ( [ -0.181818 -0.200000 +0.000000 ] spin -1 )
	mu  : +0.253240
	LUMO: +0.253745 at state 13 ( [ +0.181818 -0.400000 +0.000000 ] spin 1 )
	eMax: +0.605060 at state 55 ( [ +0.000000 +0.000000 +0.000000 ] spin -1 )
	HOMO-LUMO gap: +0.000530
	Optical gap  : +0.003162 at state 46 ( [ -0.181818 +0.200000 +0.000000 ] spin 1 )
Dumping 'jdft.Ecomponents' ... done
IonicMinimize: Iter:   1  F: -2804.665146114989057  |grad|_K:  1.237e-03  alpha:  3.000e+00  linmin: -9.947e-01  t[s]:   5976.35

#--- Lowdin population analysis ---
# oxidation-state Ag +0.092 +0.018 -0.064 +0.093 -0.012 -0.000 +0.003 +0.004 +0.002 +0.001 +0.005 +0.001 +0.002 +0.004 +0.003 -0.000 -0.012 -0.064 +0.018
# magnetic-moments Ag +0.000 -0.000 +0.000 +0.000 +0.000 -0.000 -0.000 +0.000 -0.000 +0.000 +0.000 +0.000 -0.000 +0.000 -0.000 +0.000 +0.000 +0.000 +0.000


Computing DFT-D3 correction:
# coordination-number Ag 5.463 6.790 8.386 5.473 8.998 9.085 9.139 9.183 9.205 9.224 9.239 9.226 9.210 9.191 9.152 9.101 9.014 8.402 6.799
# diagonal-C6 Ag 268.61 268.61 268.61 268.61 268.61 268.61 268.61 268.61 268.61 268.61 268.61 268.61 268.61 268.61 268.61 268.61 268.61 268.61 268.61
EvdW_6 =   -0.130217
EvdW_8 =   -0.172186

-------- Electronic minimization -----------
	FillingsUpdate:  mu: +0.377917415  nElectrons: 361.000000  magneticMoment: [ Abs: 0.00000  Tot: +0.00000 ]
ElecMinimize: Iter:   0  F: -2802.988075228160596  |grad|_K:  1.151e-04  alpha:  1.000e+00
	FillingsUpdate:  mu: +0.207833864  nElectrons: 361.000000  magneticMoment: [ Abs: 0.00000  Tot: +0.00000 ]
	SubspaceRotationAdjust: set factor to 0.0878
ElecMinimize: Iter:   1  F: -2804.470334604548498  |grad|_K:  3.558e-05  alpha:  2.781e-01  linmin:  1.869e-02  t[s]:   6127.19
	FillingsUpdate:  mu: +0.227409160  nElectrons: 361.000000  magneticMoment: [ Abs: 0.00000  Tot: +0.00000 ]
	SubspaceRotationAdjust: set factor to 0.118
ElecMinimize: Iter:   2  F: -2804.600947985016774  |grad|_K:  1.066e-05  alpha:  2.541e-01  linmin: -2.161e-04  t[s]:   6211.46
	FillingsUpdate:  mu: +0.250870498  nElectrons: 361.000000  magneticMoment: [ Abs: 0.00000  Tot: +0.00000 ]
	SubspaceRotationAdjust: set factor to 0.149
ElecMinimize: Iter:   3  F: -2804.617266513645063  |grad|_K:  6.070e-06  alpha:  3.264e-01  linmin: -6.012e-05  t[s]:   6295.88
	FillingsUpdate:  mu: +0.252239335  nElectrons: 361.000000  magneticMoment: [ Abs: 0.00000  Tot: +0.00000 ]
	SubspaceRotationAdjust: set factor to 0.194
ElecMinimize: Iter:   4  F: -2804.625755286667754  |grad|_K:  6.337e-06  alpha:  5.241e-01  linmin: -1.372e-06  t[s]:   6380.11
	FillingsUpdate:  mu: +0.251254106  nElectrons: 361.000000  magneticMoment: [ Abs: 0.00000  Tot: +0.00000 ]
	SubspaceRotationAdjust: set factor to 0.22
ElecMinimize: Iter:   5  F: -2804.637220688110574  |grad|_K:  7.200e-06  alpha:  6.487e-01  linmin: -5.455e-05  t[s]:   6464.20
	FillingsUpdate:  mu: +0.256077475  nElectrons: 361.000000  magneticMoment: [ Abs: 0.00000  Tot: -0.00000 ]
	SubspaceRotationAdjust: set factor to 0.174
ElecMinimize: Iter:   6  F: -2804.644487634983761  |grad|_K:  8.689e-06  alpha:  3.172e-01  linmin:  2.999e-06  t[s]:   6548.05
	FillingsUpdate:  mu: +0.262838908  nElectrons: 361.000000  magneticMoment: [ Abs: 0.00000  Tot: -0.00000 ]
	SubspaceRotationAdjust: set factor to 0.14
ElecMinimize: Iter:   7  F: -2804.652927216670378  |grad|_K:  6.684e-06  alpha:  2.546e-01  linmin:  2.076e-06  t[s]:   6633.26
	FillingsUpdate:  mu: +0.251530767  nElectrons: 361.000000  magneticMoment: [ Abs: 0.00000  Tot: -0.00000 ]
	SubspaceRotationAdjust: set factor to 0.129
ElecMinimize: Iter:   8  F: -2804.660282102551264  |grad|_K:  4.516e-06  alpha:  3.744e-01  linmin: -2.288e-05  t[s]:   6717.86
	FillingsUpdate:  mu: +0.252495308  nElectrons: 361.000000  magneticMoment: [ Abs: 0.00000  Tot: -0.00000 ]
	SubspaceRotationAdjust: set factor to 0.134
ElecMinimize: Iter:   9  F: -2804.663777831655352  |grad|_K:  2.773e-06  alpha:  3.883e-01  linmin:  5.188e-06  t[s]:   6802.39
	FillingsUpdate:  mu: +0.255130383  nElectrons: 361.000000  magneticMoment: [ Abs: 0.00000  Tot: -0.00000 ]
	SubspaceRotationAdjust: set factor to 0.119
ElecMinimize: Iter:  10  F: -2804.665018370807047  |grad|_K:  1.928e-06  alpha:  3.679e-01  linmin:  9.667e-06  t[s]:   6886.52
	FillingsUpdate:  mu: +0.253505906  nElectrons: 361.000000  magneticMoment: [ Abs: 0.00000  Tot: -0.00000 ]
	SubspaceRotationAdjust: set factor to 0.0942
ElecMinimize: Iter:  11  F: -2804.665523082000618  |grad|_K:  1.310e-06  alpha:  3.097e-01  linmin:  2.055e-06  t[s]:   6970.99
	FillingsUpdate:  mu: +0.252488936  nElectrons: 361.000000  magneticMoment: [ Abs: 0.00000  Tot: -0.00000 ]
	SubspaceRotationAdjust: set factor to 0.0847
ElecMinimize: Iter:  12  F: -2804.665743075548107  |grad|_K:  7.952e-07  alpha:  2.921e-01  linmin: -3.649e-08  t[s]:   7055.29
	FillingsUpdate:  mu: +0.252939114  nElectrons: 361.000000  magneticMoment: [ Abs: 0.00000  Tot: -0.00000 ]
	SubspaceRotationAdjust: set factor to 0.108
ElecMinimize: Iter:  13  F: -2804.665853599407910  |grad|_K:  5.573e-07  alpha:  3.982e-01  linmin:  2.747e-06  t[s]:   7139.48
	FillingsUpdate:  mu: +0.253100854  nElectrons: 361.000000  magneticMoment: [ Abs: 0.00000  Tot: -0.00000 ]
	SubspaceRotationAdjust: set factor to 0.121
ElecMinimize: Iter:  14  F: -2804.665908350987138  |grad|_K:  4.545e-07  alpha:  4.016e-01  linmin:  1.338e-06  t[s]:   7223.60
	FillingsUpdate:  mu: +0.252777613  nElectrons: 361.000000  magneticMoment: [ Abs: 0.00000  Tot: -0.00000 ]
	SubspaceRotationAdjust: set factor to 0.135
ElecMinimize: Iter:  15  F: -2804.665947345356926  |grad|_K:  4.368e-07  alpha:  4.301e-01  linmin: -4.124e-07  t[s]:   7307.88
	FillingsUpdate:  mu: +0.252687015  nElectrons: 361.000000  magneticMoment: [ Abs: 0.00000  Tot: -0.00000 ]
	SubspaceRotationAdjust: set factor to 0.165
ElecMinimize: Iter:  16  F: -2804.665989839403210  |grad|_K:  4.284e-07  alpha:  5.073e-01  linmin: -1.159e-06  t[s]:   7392.24
	FillingsUpdate:  mu: +0.253259577  nElectrons: 361.000000  magneticMoment: [ Abs: 0.00000  Tot: -0.00000 ]
	SubspaceRotationAdjust: set factor to 0.188
ElecMinimize: Iter:  17  F: -2804.666036832615191  |grad|_K:  4.410e-07  alpha:  5.832e-01  linmin: -1.940e-07  t[s]:   7476.30
	FillingsUpdate:  mu: +0.252870328  nElectrons: 361.000000  magneticMoment: [ Abs: 0.00000  Tot: -0.00000 ]
	SubspaceRotationAdjust: set factor to 0.189
ElecMinimize: Iter:  18  F: -2804.666077996786044  |grad|_K:  4.288e-07  alpha:  4.825e-01  linmin: -1.528e-06  t[s]:   7560.84
	FillingsUpdate:  mu: +0.252746197  nElectrons: 361.000000  magneticMoment: [ Abs: 0.00000  Tot: +0.00000 ]
	SubspaceRotationAdjust: set factor to 0.144
ElecMinimize: Iter:  19  F: -2804.666099501173449  |grad|_K:  4.067e-07  alpha:  2.664e-01  linmin:  4.828e-07  t[s]:   7645.10
	FillingsUpdate:  mu: +0.252872214  nElectrons: 361.000000  magneticMoment: [ Abs: 0.00000  Tot: +0.00000 ]
	SubspaceRotationAdjust: set factor to 0.114
ElecMinimize: Iter:  20  F: -2804.666116940360553  |grad|_K:  2.656e-07  alpha:  2.402e-01  linmin: -1.180e-07  t[s]:   7729.39
	FillingsUpdate:  mu: +0.252949458  nElectrons: 361.000000  magneticMoment: [ Abs: 0.00000  Tot: +0.00000 ]
	SubspaceRotationAdjust: set factor to 0.132
ElecMinimize: Iter:  21  F: -2804.666128990542802  |grad|_K:  1.809e-07  alpha:  3.892e-01  linmin: -4.698e-07  t[s]:   7813.58
	FillingsUpdate:  mu: +0.252889509  nElectrons: 361.000000  magneticMoment: [ Abs: 0.00000  Tot: +0.00000 ]
	SubspaceRotationAdjust: set factor to 0.125
ElecMinimize: Iter:  22  F: -2804.666133942153010  |grad|_K:  1.457e-07  alpha:  3.448e-01  linmin: -4.488e-07  t[s]:   7897.90
	FillingsUpdate:  mu: +0.252869332  nElectrons: 361.000000  magneticMoment: [ Abs: 0.00000  Tot: +0.00000 ]
	SubspaceRotationAdjust: set factor to 0.119
ElecMinimize: Iter:  23  F: -2804.666136677745726  |grad|_K:  1.052e-07  alpha:  2.936e-01  linmin: -1.814e-06  t[s]:   7982.06
	FillingsUpdate:  mu: +0.252899394  nElectrons: 361.000000  magneticMoment: [ Abs: 0.00000  Tot: +0.00000 ]
	SubspaceRotationAdjust: set factor to 0.158
ElecMinimize: Iter:  24  F: -2804.666138598666294  |grad|_K:  8.266e-08  alpha:  3.955e-01  linmin:  4.570e-06  t[s]:   8066.34
	FillingsUpdate:  mu: +0.252897595  nElectrons: 361.000000  magneticMoment: [ Abs: 0.00000  Tot: +0.00000 ]
	SubspaceRotationAdjust: set factor to 0.181
ElecMinimize: Iter:  25  F: -2804.666139977731746  |grad|_K:  8.056e-08  alpha:  4.600e-01  linmin:  1.204e-05  t[s]:   8150.65
	FillingsUpdate:  mu: +0.252883878  nElectrons: 361.000000  magneticMoment: [ Abs: 0.00000  Tot: +0.00000 ]
	SubspaceRotationAdjust: set factor to 0.164
ElecMinimize: Iter:  26  F: -2804.666140941753383  |grad|_K:  8.809e-08  alpha:  3.385e-01  linmin:  1.194e-06  t[s]:   8234.81
	FillingsUpdate:  mu: +0.252885847  nElectrons: 361.000000  magneticMoment: [ Abs: 0.00000  Tot: +0.00000 ]
	SubspaceRotationAdjust: set factor to 0.157
ElecMinimize: Iter:  27  F: -2804.666141904587221  |grad|_K:  7.126e-08  alpha:  2.827e-01  linmin: -1.310e-06  t[s]:   8318.96
	FillingsUpdate:  mu: +0.252915625  nElectrons: 361.000000  magneticMoment: [ Abs: 0.00000  Tot: +0.00000 ]
	SubspaceRotationAdjust: set factor to 0.18
ElecMinimize: Iter:  28  F: -2804.666142881510950  |grad|_K:  5.910e-08  alpha:  4.385e-01  linmin:  4.271e-06  t[s]:   8403.59
	FillingsUpdate:  mu: +0.252910239  nElectrons: 361.000000  magneticMoment: [ Abs: 0.00000  Tot: +0.00000 ]
	SubspaceRotationAdjust: set factor to 0.19
ElecMinimize: Iter:  29  F: -2804.666143532345814  |grad|_K:  5.196e-08  alpha:  4.247e-01  linmin:  2.422e-06  t[s]:   8487.75
	FillingsUpdate:  mu: +0.252904602  nElectrons: 361.000000  magneticMoment: [ Abs: 0.00000  Tot: +0.00000 ]
	SubspaceRotationAdjust: set factor to 0.158
ElecMinimize: Iter:  30  F: -2804.666143877532704  |grad|_K:  5.066e-08  alpha:  2.915e-01  linmin:  2.722e-08  t[s]:   8572.01
	FillingsUpdate:  mu: +0.252908046  nElectrons: 361.000000  magneticMoment: [ Abs: 0.00000  Tot: +0.00000 ]
	SubspaceRotationAdjust: set factor to 0.135
ElecMinimize: Iter:  31  F: -2804.666144134000660  |grad|_K:  3.424e-08  alpha:  2.276e-01  linmin: -4.792e-06  t[s]:   8656.21
	FillingsUpdate:  mu: +0.252917270  nElectrons: 361.000000  magneticMoment: [ Abs: 0.00000  Tot: +0.00000 ]
	SubspaceRotationAdjust: set factor to 0.172
ElecMinimize: Iter:  32  F: -2804.666144335305034  |grad|_K:  2.653e-08  alpha:  3.916e-01  linmin:  9.650e-06  t[s]:   8741.02
	FillingsUpdate:  mu: +0.252915911  nElectrons: 361.000000  magneticMoment: [ Abs: 0.00000  Tot: -0.00000 ]
	SubspaceRotationAdjust: set factor to 0.187
ElecMinimize: Iter:  33  F: -2804.666144457221435  |grad|_K:  2.430e-08  alpha:  3.952e-01  linmin:  2.903e-06  t[s]:   8825.15
	FillingsUpdate:  mu: +0.252915343  nElectrons: 361.000000  magneticMoment: [ Abs: 0.00000  Tot: -0.00000 ]
	SubspaceRotationAdjust: set factor to 0.175
ElecMinimize: Iter:  34  F: -2804.666144530099700  |grad|_K:  2.408e-08  alpha:  2.801e-01  linmin: -3.619e-06  t[s]:   8909.57
	FillingsUpdate:  mu: +0.252918124  nElectrons: 361.000000  magneticMoment: [ Abs: 0.00000  Tot: -0.00000 ]
	SubspaceRotationAdjust: set factor to 0.193
ElecMinimize: Iter:  35  F: -2804.666144604761939  |grad|_K:  1.839e-08  alpha:  2.926e-01  linmin: -3.052e-05  t[s]:   8994.24
ElecMinimize: Converged (|Delta F|<1.000000e-07 for 2 iters).
Setting wave functions to eigenvectors of Hamiltonian
Converging empty states (this may take a while): |deigs|: 3.094e-06

Computing DFT-D3 correction:
# coordination-number Ag 5.463 6.790 8.386 5.473 8.998 9.085 9.139 9.183 9.205 9.224 9.239 9.226 9.210 9.191 9.152 9.101 9.014 8.402 6.799
# diagonal-C6 Ag 268.61 268.61 268.61 268.61 268.61 268.61 268.61 268.61 268.61 268.61 268.61 268.61 268.61 268.61 268.61 268.61 268.61 268.61 268.61
EvdW_6 =   -0.130217
EvdW_8 =   -0.172186

# Ionic positions in cartesian coordinates:
ion Ag   0.000403136674129   7.477921022531090  65.903374756506437 1
ion Ag   2.709527363508474   3.058809324962852  64.291991280908562 1
ion Ag   2.711682417406483  10.622281659559400  62.530860527183627 1
ion Ag   2.710562059727145  11.796110635963325  34.347997100940688 1
ion Ag   0.000223143760065   6.222860564926076  60.673880384225640 1
ion Ag   2.709357927027661   1.845713243507825  58.913373697593059 1
ion Ag   2.710463897251262   9.322041081799432  57.161991446136092 1
ion Ag  -0.000800961311107   4.971092793053260  55.392755211811753 1
ion Ag   2.712021615064240   0.618731365480324  53.623198142905004 1
ion Ag   2.710720978815040   8.080015933818324  51.871676597777281 1
ion Ag   0.000998594445863   3.730338500111698  50.118036775619807 1
ion Ag  -0.001865515087887  11.194657788281063  48.365131363124412 1
ion Ag   2.709372085527730   6.842304924922252  46.613222257778631 1
ion Ag   0.000612548367074   2.490233457509029  44.844076693260732 1
ion Ag  -0.000810020035904   9.952526723770973  43.077446755701338 1
ion Ag   2.712432278116911   5.616855031605771  41.327003726535963 1
ion Ag  -0.001943891599181   1.238541281097138  39.569257581791724 1
ion Ag  -0.000131093052833   8.652774130412789  37.715027940423468 1
ion Ag   2.709419435394830   4.402078536687390  35.955099759775727 1

# Forces in Cartesian coordinates:
force Ag   0.000016077766692  -0.000224348302606   0.000216053186444 1
force Ag   0.000016339309699   0.000374240113965   0.001685144380691 1
force Ag   0.000024853025716   0.000562656469499  -0.000161524280874 1
force Ag   0.000006562211008   0.000233535232285  -0.000434827187704 1
force Ag   0.000005571602132  -0.000500030442310   0.000106297502448 1
force Ag   0.000003246681259   0.000315541432364   0.000653451130875 1
force Ag  -0.000001995362942  -0.000282574430788   0.000327117032327 1
force Ag  -0.000010669205673  -0.000061883475364   0.000796315640654 1
force Ag   0.000034919422628  -0.000296421021478   0.000730207104865 1
force Ag   0.000011164169840  -0.000009698371654   0.000744916260274 1
force Ag   0.000013367928679   0.000005532746728   0.000054836107874 1
force Ag  -0.000021265999882  -0.000016683065089  -0.000654205124022 1
force Ag  -0.000025308178142   0.000281013357271  -0.000540504828709 1
force Ag   0.000011080849323   0.000073366809317  -0.000628967074960 1
force Ag  -0.000004848648938   0.000336241031908  -0.000213879318435 1
force Ag   0.000011372731576  -0.000370617717522  -0.000573011346546 1
force Ag  -0.000026431336394   0.000544865930353  -0.000052288402648 1
force Ag   0.000006478918405  -0.000568830374324   0.000073645182240 1
force Ag  -0.000017931222241  -0.000352561414206  -0.001807255836244 1

# Energy components:
   Eewald =    15756.9735758296501444
       EH =    18335.7703000843503105
     Eloc =   -37337.9273078188998625
      Enl =       74.9232506745151170
     EvdW =       -0.3024023067017761
      Exc =     -275.3975436884940677
 Exc_core =        3.9552390226261021
       KE =      637.3391145785683420
-------------------------------------
     Etot =    -2804.6657736243869294
       TS =        0.0003709803751509
-------------------------------------
        F =    -2804.6661446047619393


Dumping 'jdft.fillings' ... done
Dumping 'jdft.wfns' ... done
Dumping 'jdft.ionpos' ... done
Dumping 'jdft.lattice' ... done
Dumping 'jdft.eigenvals' ... done
Dumping 'jdft.eigStats' ... 
	eMin: -3.132492 at state 0 ( [ +0.000000 +0.000000 +0.000000 ] spin 1 )
	HOMO: +0.252760 at state 69 ( [ +0.181818 -0.200000 +0.000000 ] spin -1 )
	mu  : +0.252918
	LUMO: +0.253027 at state 36 ( [ -0.363636 +0.200000 +0.000000 ] spin 1 )
	eMax: +0.605233 at state 51 ( [ -0.090909 +0.200000 +0.000000 ] spin 1 )
	HOMO-LUMO gap: +0.000266
	Optical gap  : +0.003022 at state 46 ( [ -0.181818 +0.200000 +0.000000 ] spin 1 )
Dumping 'jdft.Ecomponents' ... done
IonicMinimize: Iter:   2  F: -2804.666144604761939  |grad|_K:  4.645e-04  alpha:  7.655e-01  linmin: -3.344e-01  t[s]:   9178.00

#--- Lowdin population analysis ---
# oxidation-state Ag +0.090 +0.021 -0.069 +0.089 -0.008 +0.001 +0.003 +0.004 +0.002 +0.001 +0.004 +0.001 +0.002 +0.004 +0.002 +0.001 -0.008 -0.069 +0.021
# magnetic-moments Ag -0.000 -0.000 +0.000 -0.000 -0.000 -0.000 +0.000 -0.000 +0.000 +0.000 -0.000 +0.000 +0.000 -0.000 +0.000 -0.000 -0.000 +0.000 -0.000


Computing DFT-D3 correction:
# coordination-number Ag 5.484 6.749 8.353 5.489 8.955 9.080 9.138 9.188 9.176 9.189 9.181 9.192 9.183 9.197 9.146 9.090 8.964 8.360 6.753
# diagonal-C6 Ag 268.61 268.61 268.61 268.61 268.61 268.61 268.61 268.61 268.61 268.61 268.61 268.61 268.61 268.61 268.61 268.61 268.61 268.61 268.61
EvdW_6 =   -0.130048
EvdW_8 =   -0.171958

-------- Electronic minimization -----------
	FillingsUpdate:  mu: +0.358043752  nElectrons: 361.000000  magneticMoment: [ Abs: 0.00000  Tot: +0.00000 ]
ElecMinimize: Iter:   0  F: -2804.267935377529284  |grad|_K:  5.873e-05  alpha:  1.000e+00
	FillingsUpdate:  mu: +0.206060369  nElectrons: 361.000000  magneticMoment: [ Abs: 0.00000  Tot: +0.00000 ]
	SubspaceRotationAdjust: set factor to 0.111
ElecMinimize: Iter:   1  F: -2804.601307147221632  |grad|_K:  2.098e-05  alpha:  2.211e-01  linmin:  8.435e-04  t[s]:   9328.63
	FillingsUpdate:  mu: +0.250722690  nElectrons: 361.000000  magneticMoment: [ Abs: 0.00000  Tot: +0.00000 ]
	SubspaceRotationAdjust: set factor to 0.087
ElecMinimize: Iter:   2  F: -2804.649150423588708  |grad|_K:  6.983e-06  alpha:  2.489e-01  linmin: -5.151e-04  t[s]:   9412.83
	FillingsUpdate:  mu: +0.251616571  nElectrons: 361.000000  magneticMoment: [ Abs: 0.00000  Tot: +0.00000 ]
	SubspaceRotationAdjust: set factor to 0.0685
ElecMinimize: Iter:   3  F: -2804.654788817839744  |grad|_K:  3.673e-06  alpha:  2.613e-01  linmin: -2.699e-05  t[s]:   9497.09
	FillingsUpdate:  mu: +0.248188360  nElectrons: 361.000000  magneticMoment: [ Abs: 0.00000  Tot: +0.00000 ]
	SubspaceRotationAdjust: set factor to 0.0831
ElecMinimize: Iter:   4  F: -2804.657045103465407  |grad|_K:  2.335e-06  alpha:  3.808e-01  linmin: -5.401e-06  t[s]:   9581.35
	FillingsUpdate:  mu: +0.251462239  nElectrons: 361.000000  magneticMoment: [ Abs: 0.00000  Tot: +0.00000 ]
	SubspaceRotationAdjust: set factor to 0.104
ElecMinimize: Iter:   5  F: -2804.658588173164844  |grad|_K:  2.503e-06  alpha:  6.447e-01  linmin:  1.355e-06  t[s]:   9665.52
	FillingsUpdate:  mu: +0.254860812  nElectrons: 361.000000  magneticMoment: [ Abs: 0.00000  Tot: -0.00000 ]
	SubspaceRotationAdjust: set factor to 0.118
ElecMinimize: Iter:   6  F: -2804.659926179016111  |grad|_K:  2.517e-06  alpha:  4.868e-01  linmin: -9.401e-07  t[s]:   9749.87
	FillingsUpdate:  mu: +0.253475490  nElectrons: 361.000000  magneticMoment: [ Abs: 0.00000  Tot: -0.00000 ]
	SubspaceRotationAdjust: set factor to 0.124
ElecMinimize: Iter:   7  F: -2804.661813165293552  |grad|_K:  2.952e-06  alpha:  6.777e-01  linmin: -8.563e-06  t[s]:   9833.98
	FillingsUpdate:  mu: +0.253555393  nElectrons: 361.000000  magneticMoment: [ Abs: 0.00000  Tot: -0.00000 ]
	SubspaceRotationAdjust: set factor to 0.121
ElecMinimize: Iter:   8  F: -2804.663639271354441  |grad|_K:  2.722e-06  alpha:  4.764e-01  linmin: -4.536e-07  t[s]:   9918.19
	FillingsUpdate:  mu: +0.255703672  nElectrons: 361.000000  magneticMoment: [ Abs: 0.00000  Tot: -0.00000 ]
	SubspaceRotationAdjust: set factor to 0.118
ElecMinimize: Iter:   9  F: -2804.665008190695971  |grad|_K:  2.011e-06  alpha:  4.209e-01  linmin:  1.328e-06  t[s]:  10002.29
	FillingsUpdate:  mu: +0.254047012  nElectrons: 361.000000  magneticMoment: [ Abs: 0.00000  Tot: -0.00000 ]
	SubspaceRotationAdjust: set factor to 0.12
ElecMinimize: Iter:  10  F: -2804.665741072507444  |grad|_K:  1.470e-06  alpha:  4.128e-01  linmin:  4.738e-07  t[s]:  10086.57
	FillingsUpdate:  mu: +0.252563716  nElectrons: 361.000000  magneticMoment: [ Abs: 0.00000  Tot: -0.00000 ]
	SubspaceRotationAdjust: set factor to 0.111
ElecMinimize: Iter:  11  F: -2804.666098343162048  |grad|_K:  8.846e-07  alpha:  3.766e-01  linmin: -4.787e-07  t[s]:  10170.90
	FillingsUpdate:  mu: +0.253300782  nElectrons: 361.000000  magneticMoment: [ Abs: 0.00000  Tot: -0.00000 ]
	SubspaceRotationAdjust: set factor to 0.103
ElecMinimize: Iter:  12  F: -2804.666225635048249  |grad|_K:  5.791e-07  alpha:  3.706e-01  linmin: -7.140e-08  t[s]:  10255.33
	FillingsUpdate:  mu: +0.253333960  nElectrons: 361.000000  magneticMoment: [ Abs: 0.00000  Tot: -0.00000 ]
	SubspaceRotationAdjust: set factor to 0.105
ElecMinimize: Iter:  13  F: -2804.666278492645233  |grad|_K:  3.640e-07  alpha:  3.591e-01  linmin:  1.226e-06  t[s]:  10339.40
	FillingsUpdate:  mu: +0.252799675  nElectrons: 361.000000  magneticMoment: [ Abs: 0.00000  Tot: -0.00000 ]
	SubspaceRotationAdjust: set factor to 0.107
ElecMinimize: Iter:  14  F: -2804.666300475348180  |grad|_K:  2.239e-07  alpha:  3.780e-01  linmin: -1.196e-07  t[s]:  10423.68
	FillingsUpdate:  mu: +0.252782227  nElectrons: 361.000000  magneticMoment: [ Abs: 0.00000  Tot: -0.00000 ]
	SubspaceRotationAdjust: set factor to 0.12
ElecMinimize: Iter:  15  F: -2804.666309538803944  |grad|_K:  1.609e-07  alpha:  4.119e-01  linmin:  7.319e-07  t[s]:  10507.89
	FillingsUpdate:  mu: +0.252858092  nElectrons: 361.000000  magneticMoment: [ Abs: 0.00000  Tot: -0.00000 ]
	SubspaceRotationAdjust: set factor to 0.145
ElecMinimize: Iter:  16  F: -2804.666313885560612  |grad|_K:  1.118e-07  alpha:  3.824e-01  linmin:  1.682e-06  t[s]:  10592.33
	FillingsUpdate:  mu: +0.252705372  nElectrons: 361.000000  magneticMoment: [ Abs: 0.00000  Tot: -0.00000 ]
	SubspaceRotationAdjust: set factor to 0.181
ElecMinimize: Iter:  17  F: -2804.666316518186250  |grad|_K:  9.577e-08  alpha:  4.801e-01  linmin:  7.428e-07  t[s]:  10676.60
	FillingsUpdate:  mu: +0.252675197  nElectrons: 361.000000  magneticMoment: [ Abs: 0.00000  Tot: -0.00000 ]
	SubspaceRotationAdjust: set factor to 0.227
ElecMinimize: Iter:  18  F: -2804.666318520632103  |grad|_K:  9.099e-08  alpha:  4.976e-01  linmin:  5.674e-07  t[s]:  10760.69
	FillingsUpdate:  mu: +0.252741876  nElectrons: 361.000000  magneticMoment: [ Abs: 0.00000  Tot: -0.00000 ]
	SubspaceRotationAdjust: set factor to 0.237
ElecMinimize: Iter:  19  F: -2804.666320225274376  |grad|_K:  1.015e-07  alpha:  4.691e-01  linmin:  4.310e-07  t[s]:  10844.93
	FillingsUpdate:  mu: +0.252682559  nElectrons: 361.000000  magneticMoment: [ Abs: 0.00000  Tot: -0.00000 ]
	SubspaceRotationAdjust: set factor to 0.188
ElecMinimize: Iter:  20  F: -2804.666321221801354  |grad|_K:  1.007e-07  alpha:  2.206e-01  linmin: -7.373e-08  t[s]:  10929.14
	FillingsUpdate:  mu: +0.252591468  nElectrons: 361.000000  magneticMoment: [ Abs: 0.00000  Tot: -0.00000 ]
	SubspaceRotationAdjust: set factor to 0.152
ElecMinimize: Iter:  21  F: -2804.666322303314246  |grad|_K:  7.274e-08  alpha:  2.428e-01  linmin:  1.109e-07  t[s]:  11013.52
	FillingsUpdate:  mu: +0.252667914  nElectrons: 361.000000  magneticMoment: [ Abs: 0.00000  Tot: -0.00000 ]
	SubspaceRotationAdjust: set factor to 0.156
ElecMinimize: Iter:  22  F: -2804.666323140465920  |grad|_K:  5.180e-08  alpha:  3.601e-01  linmin: -7.581e-06  t[s]:  11098.42
	FillingsUpdate:  mu: +0.252676735  nElectrons: 361.000000  magneticMoment: [ Abs: 0.00000  Tot: -0.00000 ]
	SubspaceRotationAdjust: set factor to 0.168
ElecMinimize: Iter:  23  F: -2804.666323625262976  |grad|_K:  3.887e-08  alpha:  4.111e-01  linmin:  3.631e-06  t[s]:  11182.62
	FillingsUpdate:  mu: +0.252645721  nElectrons: 361.000000  magneticMoment: [ Abs: 0.00000  Tot: -0.00000 ]
	SubspaceRotationAdjust: set factor to 0.167
ElecMinimize: Iter:  24  F: -2804.666323866382299  |grad|_K:  3.021e-08  alpha:  3.637e-01  linmin: -1.983e-06  t[s]:  11266.63
	FillingsUpdate:  mu: +0.252667884  nElectrons: 361.000000  magneticMoment: [ Abs: 0.00000  Tot: -0.00000 ]
	SubspaceRotationAdjust: set factor to 0.144
ElecMinimize: Iter:  25  F: -2804.666323986467432  |grad|_K:  2.481e-08  alpha:  3.002e-01  linmin:  2.196e-05  t[s]:  11350.80
	FillingsUpdate:  mu: +0.252686879  nElectrons: 361.000000  magneticMoment: [ Abs: 0.00000  Tot: -0.00000 ]
	SubspaceRotationAdjust: set factor to 0.123
ElecMinimize: Iter:  26  F: -2804.666324051719130  |grad|_K:  1.755e-08  alpha:  2.412e-01  linmin:  3.868e-06  t[s]:  11435.02
	FillingsUpdate:  mu: +0.252683054  nElectrons: 361.000000  magneticMoment: [ Abs: 0.00000  Tot: -0.00000 ]
	SubspaceRotationAdjust: set factor to 0.156
ElecMinimize: Iter:  27  F: -2804.666324101832288  |grad|_K:  1.274e-08  alpha:  3.708e-01  linmin: -3.009e-05  t[s]:  11519.52
ElecMinimize: Converged (|Delta F|<1.000000e-07 for 2 iters).
Setting wave functions to eigenvectors of Hamiltonian
Converging empty states (this may take a while): |deigs|: 3.713e-07

Computing DFT-D3 correction:
# coordination-number Ag 5.484 6.749 8.353 5.489 8.955 9.080 9.138 9.188 9.176 9.189 9.181 9.192 9.183 9.197 9.146 9.090 8.964 8.360 6.753
# diagonal-C6 Ag 268.61 268.61 268.61 268.61 268.61 268.61 268.61 268.61 268.61 268.61 268.61 268.61 268.61 268.61 268.61 268.61 268.61 268.61 268.61
EvdW_6 =   -0.130048
EvdW_8 =   -0.171958

# Ionic positions in cartesian coordinates:
ion Ag   0.000774846511954   7.475631962687213  65.900027597342586 1
ion Ag   2.709711375444127   3.058693586241688  64.347474840303718 1
ion Ag   2.712435370922345  10.643936259524548  62.544023200759405 1
ion Ag   2.710707105351362  11.798370684071980  34.347401535359872 1
ion Ag   0.000325492740463   6.212399078782562  60.676322683770429 1
ion Ag   2.709219106424912   1.849333621432617  58.927781752995827 1
ion Ag   2.710397652302024   9.314900116254915  57.170268664358403 1
ion Ag  -0.001243805814353   4.969078815712089  55.409603260775853 1
ion Ag   2.713061687425235   0.611462445342684  53.636665151257098 1
ion Ag   2.710997440347189   8.079219257215627  51.886711305666843 1
ion Ag   0.001410993001494   3.730365767818339  50.118393394421894 1
ion Ag  -0.002732328071199  11.194734854237305  48.350515188982691 1
ion Ag   2.708587805681884   6.849091394082241  46.602336932731454 1
ion Ag   0.000907186995260   2.492420106465826  44.829378802808641 1
ion Ag  -0.001123030790538   9.960731078342603  43.070566408884524 1
ion Ag   2.713009824298257   5.612125305064702  41.313419681631942 1
ion Ag  -0.002942511564546   1.249945272055354  39.567541818271323 1
ion Ag  -0.000070738556965   8.630919879432673  37.699887120391615 1
ion Ag   2.708812527351092   4.402528515235046  35.897082659285843 1

# Forces in Cartesian coordinates:
force Ag   0.000017145360334   0.000254757285874   0.000436431437067 1
force Ag   0.000034197238786   0.000422593633293   0.000447318196310 1
force Ag   0.000004458896314  -0.000438734217672  -0.000513114426541 1
force Ag   0.000000955898917  -0.000235254210085  -0.000543663022355 1
force Ag   0.000006375859684   0.000109500112259   0.001248064415449 1
force Ag   0.000012212283351  -0.000219479802980   0.000661892739815 1
force Ag   0.000001638052645   0.000316142037902   0.000863564701596 1
force Ag   0.000012378211816  -0.000446597481343  -0.000172418093620 1
force Ag   0.000007045935796   0.000257778926314  -0.000050570647388 1
force Ag   0.000008693413204  -0.000047233150544  -0.000368466982336 1
force Ag  -0.000002175490331  -0.000042117262267   0.000075660753750 1
force Ag   0.000005422208014   0.000072565166752   0.000495651600575 1
force Ag  -0.000006610936155  -0.000233483758335   0.000031349813298 1
force Ag  -0.000006857961436   0.000469704749376   0.000230559930390 1
force Ag  -0.000002882078649  -0.000386800368902  -0.000874752541952 1
force Ag  -0.000013868577336   0.000317905527647  -0.000636669921397 1
force Ag  -0.000006663880545  -0.000156422756390  -0.001341913511837 1
force Ag   0.000006201665835   0.000478382734910   0.000501666197162 1
force Ag  -0.000006425200295  -0.000426033149789  -0.000505029422285 1

# Energy components:
   Eewald =    15704.4995448152076278
       EH =    18283.2949253303995647
     Eloc =   -37232.9725805940834107
      Enl =       74.9252419348190699
     EvdW =       -0.3020060620631190
      Exc =     -275.3912539865630720
 Exc_core =        3.9552389517358102
       KE =      637.3249373912052533
-------------------------------------
     Etot =    -2804.6659522193422163
       TS =        0.0003718824902322
-------------------------------------
        F =    -2804.6663241018322879


Dumping 'jdft.fillings' ... done
Dumping 'jdft.wfns' ... done
Dumping 'jdft.ionpos' ... done
Dumping 'jdft.lattice' ... done
Dumping 'jdft.eigenvals' ... done
Dumping 'jdft.eigStats' ... 
	eMin: -3.132467 at state 0 ( [ +0.000000 +0.000000 +0.000000 ] spin 1 )
	HOMO: +0.252671 at state 69 ( [ +0.181818 -0.200000 +0.000000 ] spin -1 )
	mu  : +0.252683
	LUMO: +0.253309 at state 66 ( [ +0.181818 +0.200000 +0.000000 ] spin -1 )
	eMax: +0.605130 at state 51 ( [ -0.090909 +0.200000 +0.000000 ] spin 1 )
	HOMO-LUMO gap: +0.000638
	Optical gap  : +0.002962 at state 69 ( [ +0.181818 -0.200000 +0.000000 ] spin -1 )
Dumping 'jdft.Ecomponents' ... done
IonicMinimize: Iter:   3  F: -2804.666324101832288  |grad|_K:  4.089e-04  alpha:  1.000e+00  linmin: -7.041e-02  t[s]:  11632.25

#--- Lowdin population analysis ---
# oxidation-state Ag +0.088 +0.022 -0.069 +0.088 -0.006 +0.001 +0.002 +0.003 +0.002 +0.002 +0.005 +0.002 +0.002 +0.003 +0.002 +0.001 -0.006 -0.069 +0.022
# magnetic-moments Ag -0.000 +0.000 -0.000 +0.000 -0.000 -0.000 +0.000 -0.000 +0.000 -0.000 +0.000 -0.000 +0.000 -0.000 +0.000 -0.000 -0.000 -0.000 +0.000


Computing DFT-D3 correction:
# coordination-number Ag 5.493 6.723 8.367 5.494 8.939 9.075 9.116 9.165 9.164 9.165 9.175 9.167 9.167 9.167 9.119 9.077 8.939 8.368 6.721
# diagonal-C6 Ag 268.61 268.61 268.61 268.61 268.61 268.61 268.61 268.61 268.61 268.61 268.61 268.61 268.61 268.61 268.61 268.61 268.61 268.61 268.61
EvdW_6 =   -0.129894
EvdW_8 =   -0.171766

-------- Electronic minimization -----------
	FillingsUpdate:  mu: +0.321468667  nElectrons: 361.000000  magneticMoment: [ Abs: 0.00000  Tot: -0.00000 ]
ElecMinimize: Iter:   0  F: -2804.498988773572819  |grad|_K:  3.883e-05  alpha:  1.000e+00
	FillingsUpdate:  mu: +0.223512943  nElectrons: 361.000000  magneticMoment: [ Abs: 0.00000  Tot: -0.00000 ]
	SubspaceRotationAdjust: set factor to 0.0817
ElecMinimize: Iter:   1  F: -2804.643505195382659  |grad|_K:  1.105e-05  alpha:  2.166e-01  linmin: -7.977e-04  t[s]:  11783.29
	FillingsUpdate:  mu: +0.248369152  nElectrons: 361.000000  magneticMoment: [ Abs: 0.00000  Tot: +0.00000 ]
	SubspaceRotationAdjust: set factor to 0.0839
ElecMinimize: Iter:   2  F: -2804.659566635585179  |grad|_K:  3.942e-06  alpha:  2.976e-01  linmin: -3.539e-04  t[s]:  11867.16
	FillingsUpdate:  mu: +0.250353112  nElectrons: 361.000000  magneticMoment: [ Abs: 0.00000  Tot: +0.00000 ]
	SubspaceRotationAdjust: set factor to 0.071
ElecMinimize: Iter:   3  F: -2804.661547843652443  |grad|_K:  2.078e-06  alpha:  2.892e-01  linmin: -3.026e-05  t[s]:  11951.64
	FillingsUpdate:  mu: +0.250567420  nElectrons: 361.000000  magneticMoment: [ Abs: 0.00000  Tot: +0.00000 ]
	SubspaceRotationAdjust: set factor to 0.0949
ElecMinimize: Iter:   4  F: -2804.662453037439718  |grad|_K:  1.554e-06  alpha:  4.772e-01  linmin: -1.139e-06  t[s]:  12035.92
	FillingsUpdate:  mu: +0.252736432  nElectrons: 361.000000  magneticMoment: [ Abs: 0.00000  Tot: +0.00000 ]
	SubspaceRotationAdjust: set factor to 0.117
ElecMinimize: Iter:   5  F: -2804.663217209862069  |grad|_K:  1.600e-06  alpha:  7.209e-01  linmin: -1.729e-06  t[s]:  12120.42
	FillingsUpdate:  mu: +0.254167324  nElectrons: 361.000000  magneticMoment: [ Abs: 0.00000  Tot: +0.00000 ]
	SubspaceRotationAdjust: set factor to 0.127
ElecMinimize: Iter:   6  F: -2804.663845094829412  |grad|_K:  1.818e-06  alpha:  5.587e-01  linmin: -1.803e-07  t[s]:  12204.55
	FillingsUpdate:  mu: +0.253365849  nElectrons: 361.000000  magneticMoment: [ Abs: 0.00000  Tot: +0.00000 ]
	SubspaceRotationAdjust: set factor to 0.116
ElecMinimize: Iter:   7  F: -2804.664711961120247  |grad|_K:  1.988e-06  alpha:  5.974e-01  linmin: -6.349e-06  t[s]:  12288.67
	FillingsUpdate:  mu: +0.253374178  nElectrons: 361.000000  magneticMoment: [ Abs: 0.00000  Tot: +0.00000 ]
	SubspaceRotationAdjust: set factor to 0.0953
ElecMinimize: Iter:   8  F: -2804.665416953549993  |grad|_K:  1.706e-06  alpha:  4.058e-01  linmin: -1.616e-07  t[s]:  12372.74
	FillingsUpdate:  mu: +0.254209998  nElectrons: 361.000000  magneticMoment: [ Abs: 0.00000  Tot: +0.00000 ]
	SubspaceRotationAdjust: set factor to 0.0917
ElecMinimize: Iter:   9  F: -2804.665934634936093  |grad|_K:  1.191e-06  alpha:  4.054e-01  linmin:  6.026e-07  t[s]:  12456.96
	FillingsUpdate:  mu: +0.253603271  nElectrons: 361.000000  magneticMoment: [ Abs: 0.00000  Tot: +0.00000 ]
	SubspaceRotationAdjust: set factor to 0.0999
ElecMinimize: Iter:  10  F: -2804.666231172984226  |grad|_K:  8.335e-07  alpha:  4.761e-01  linmin: -2.715e-07  t[s]:  12541.18
	FillingsUpdate:  mu: +0.253124035  nElectrons: 361.000000  magneticMoment: [ Abs: 0.00000  Tot: +0.00000 ]
	SubspaceRotationAdjust: set factor to 0.101
ElecMinimize: Iter:  11  F: -2804.666350485539624  |grad|_K:  4.982e-07  alpha:  3.913e-01  linmin: -1.631e-07  t[s]:  12626.19
	FillingsUpdate:  mu: +0.252951788  nElectrons: 361.000000  magneticMoment: [ Abs: 0.00000  Tot: +0.00000 ]
	SubspaceRotationAdjust: set factor to 0.0877
[...]
	SubspaceRotationAdjust: set factor to 0.0772
ElecMinimize: Iter:   1  F: -2804.666172324270065  |grad|_K:  6.355e-07  alpha:  3.369e-01  linmin:  8.926e-07  t[s]:  19996.37
	FillingsUpdate:  mu: +0.252711118  nElectrons: 361.000000  magneticMoment: [ Abs: 0.00000  Tot: +0.00000 ]
	SubspaceRotationAdjust: set factor to 0.082
ElecMinimize: Iter:   2  F: -2804.666255341505348  |grad|_K:  5.505e-07  alpha:  4.684e-01  linmin: -3.114e-06  t[s]:  20080.31
	FillingsUpdate:  mu: +0.252389087  nElectrons: 361.000000  magneticMoment: [ Abs: 0.00000  Tot: +0.00000 ]
	SubspaceRotationAdjust: set factor to 0.0939
ElecMinimize: Iter:   3  F: -2804.666371252011686  |grad|_K:  6.781e-07  alpha:  8.712e-01  linmin: -3.889e-07  t[s]:  20164.35
	FillingsUpdate:  mu: +0.252479039  nElectrons: 361.000000  magneticMoment: [ Abs: 0.00000  Tot: +0.00000 ]
	SubspaceRotationAdjust: set factor to 0.0901
ElecMinimize: Iter:   4  F: -2804.666464493617241  |grad|_K:  5.887e-07  alpha:  4.619e-01  linmin: -3.121e-07  t[s]:  20248.58
	FillingsUpdate:  mu: +0.252643965  nElectrons: 361.000000  magneticMoment: [ Abs: 0.00000  Tot: +0.00000 ]
	SubspaceRotationAdjust: set factor to 0.0831
ElecMinimize: Iter:   5  F: -2804.666534178330949  |grad|_K:  4.102e-07  alpha:  4.581e-01  linmin: -2.075e-06  t[s]:  20332.63
	FillingsUpdate:  mu: +0.252399628  nElectrons: 361.000000  magneticMoment: [ Abs: 0.00000  Tot: +0.00000 ]
	SubspaceRotationAdjust: set factor to 0.0825
ElecMinimize: Iter:   6  F: -2804.666565869366877  |grad|_K:  2.929e-07  alpha:  4.291e-01  linmin:  2.660e-07  t[s]:  20416.75
	FillingsUpdate:  mu: +0.252340547  nElectrons: 361.000000  magneticMoment: [ Abs: 0.00000  Tot: +0.00000 ]
	SubspaceRotationAdjust: set factor to 0.0907
ElecMinimize: Iter:   7  F: -2804.666580605959552  |grad|_K:  1.901e-07  alpha:  3.914e-01  linmin:  1.923e-07  t[s]:  20500.71
	FillingsUpdate:  mu: +0.252408323  nElectrons: 361.000000  magneticMoment: [ Abs: 0.00000  Tot: +0.00000 ]
	SubspaceRotationAdjust: set factor to 0.0962
ElecMinimize: Iter:   8  F: -2804.666586976881717  |grad|_K:  1.338e-07  alpha:  4.016e-01  linmin:  2.604e-07  t[s]:  20585.15
	FillingsUpdate:  mu: +0.252389473  nElectrons: 361.000000  magneticMoment: [ Abs: 0.00000  Tot: +0.00000 ]
	SubspaceRotationAdjust: set factor to 0.104
ElecMinimize: Iter:   9  F: -2804.666590095451284  |grad|_K:  8.871e-08  alpha:  3.966e-01  linmin:  2.105e-06  t[s]:  20669.56
	FillingsUpdate:  mu: +0.252336021  nElectrons: 361.000000  magneticMoment: [ Abs: 0.00000  Tot: +0.00000 ]
	SubspaceRotationAdjust: set factor to 0.119
ElecMinimize: Iter:  10  F: -2804.666591731300286  |grad|_K:  6.936e-08  alpha:  4.736e-01  linmin: -5.409e-06  t[s]:  20754.50
	FillingsUpdate:  mu: +0.252348217  nElectrons: 361.000000  magneticMoment: [ Abs: 0.00000  Tot: +0.00000 ]
	SubspaceRotationAdjust: set factor to 0.135
ElecMinimize: Iter:  11  F: -2804.666592629914248  |grad|_K:  5.742e-08  alpha:  4.256e-01  linmin:  3.174e-07  t[s]:  20838.23
	FillingsUpdate:  mu: +0.252357818  nElectrons: 361.000000  magneticMoment: [ Abs: 0.00000  Tot: +0.00000 ]
	SubspaceRotationAdjust: set factor to 0.157
ElecMinimize: Iter:  12  F: -2804.666593308249958  |grad|_K:  4.675e-08  alpha:  4.688e-01  linmin: -3.760e-06  t[s]:  20922.31
	FillingsUpdate:  mu: +0.252319557  nElectrons: 361.000000  magneticMoment: [ Abs: 0.00000  Tot: +0.00000 ]
	SubspaceRotationAdjust: set factor to 0.175
ElecMinimize: Iter:  13  F: -2804.666593825183554  |grad|_K:  3.970e-08  alpha:  5.385e-01  linmin: -1.659e-06  t[s]:  21006.56
	FillingsUpdate:  mu: +0.252348930  nElectrons: 361.000000  magneticMoment: [ Abs: 0.00000  Tot: +0.00000 ]
	SubspaceRotationAdjust: set factor to 0.18
ElecMinimize: Iter:  14  F: -2804.666594130063459  |grad|_K:  3.505e-08  alpha:  4.408e-01  linmin:  1.045e-06  t[s]:  21090.66
	FillingsUpdate:  mu: +0.252359057  nElectrons: 361.000000  magneticMoment: [ Abs: 0.00000  Tot: +0.00000 ]
	SubspaceRotationAdjust: set factor to 0.146
ElecMinimize: Iter:  15  F: -2804.666594298213113  |grad|_K:  3.231e-08  alpha:  3.116e-01  linmin: -2.864e-06  t[s]:  21174.60
	FillingsUpdate:  mu: +0.252353767  nElectrons: 361.000000  magneticMoment: [ Abs: 0.00000  Tot: +0.00000 ]
	SubspaceRotationAdjust: set factor to 0.11
ElecMinimize: Iter:  16  F: -2804.666594407771754  |grad|_K:  2.334e-08  alpha:  2.395e-01  linmin: -9.322e-06  t[s]:  21258.60
	FillingsUpdate:  mu: +0.252352178  nElectrons: 361.000000  magneticMoment: [ Abs: 0.00000  Tot: +0.00000 ]
	SubspaceRotationAdjust: set factor to 0.132
ElecMinimize: Iter:  17  F: -2804.666594499273742  |grad|_K:  1.584e-08  alpha:  3.843e-01  linmin:  9.591e-05  t[s]:  21342.71
	FillingsUpdate:  mu: +0.252362769  nElectrons: 361.000000  magneticMoment: [ Abs: 0.00000  Tot: +0.00000 ]
	SubspaceRotationAdjust: set factor to 0.138
ElecMinimize: Iter:  18  F: -2804.666594543261908  |grad|_K:  1.288e-08  alpha:  4.045e-01  linmin:  9.381e-05  t[s]:  21426.53
ElecMinimize: Converged (|Delta F|<1.000000e-07 for 2 iters).
Setting wave functions to eigenvectors of Hamiltonian
Converging empty states (this may take a while): |deigs|: 4.009e-08

Computing DFT-D3 correction:
# coordination-number Ag 5.465 6.656 8.362 5.460 8.883 9.010 9.032 9.077 9.060 9.091 9.077 9.085 9.057 9.066 9.024 8.991 8.873 8.348 6.650
# diagonal-C6 Ag 268.61 268.61 268.61 268.61 268.61 268.61 268.61 268.61 268.61 268.61 268.61 268.61 268.61 268.61 268.61 268.61 268.61 268.61 268.61
EvdW_6 =   -0.129155
EvdW_8 =   -0.170815

# Ionic positions in cartesian coordinates:
ion Ag   0.004300509153022   7.522536476057905  65.980253340629872 1
ion Ag   2.712726096406037   3.064478489710918  64.473767080951617 1
ion Ag   2.715014803561716  10.658875991113467  62.590832754402960 1
ion Ag   2.709942305800644  11.751780498636379  34.255273486295657 1
ion Ag   0.002049805078481   6.200535241703538  60.781128703351968 1
ion Ag   2.710998099646851   1.852956054349283  58.994829238128737 1
ion Ag   2.711504002167570   9.306319396089970  57.240398631933090 1
ion Ag   0.000586191848021   4.965101262223408  55.449428755891624 1
ion Ag   2.714032878469156   0.606348137898170  53.666682145068769 1
ion Ag   2.711946508294191   8.076337727088960  51.900384717182526 1
ion Ag   0.001123464525652   3.732470593943742  50.124360178442934 1
ion Ag  -0.003547777108287  11.194041470027656  48.343393152651103 1
ion Ag   2.706978251053430   6.857826632897719  46.581993395209871 1
ion Ag  -0.001464483510635   2.493938314044775  44.793173478479780 1
ion Ag  -0.003662313842458   9.972138334618771  43.004670037601016 1
ion Ag   2.710427643647352   5.607242123296214  41.245949428898093 1
ion Ag  -0.005170519807458   1.261369061173762  39.460260852718420 1
ion Ag  -0.001676035615819   8.615270611306830  37.645459924752259 1
ion Ag   2.706136570232532   4.396321583818543  35.763162697409612 1

# Forces in Cartesian coordinates:
force Ag   0.000009941924001  -0.000139213145680   0.000098452534859 1
force Ag   0.000010413692156   0.000240769573253  -0.000012522775728 1
force Ag   0.000011938455726  -0.000071911158253   0.000265091002325 1
force Ag  -0.000012680660450   0.000202340193044   0.000074280392659 1
force Ag   0.000016889222180   0.000058919118917  -0.000278027550952 1
force Ag   0.000021237273423   0.000305586170561  -0.000166794398423 1
force Ag   0.000016964366320   0.000026225320584  -0.000129122363342 1
force Ag   0.000008077770572  -0.000084712013958   0.000251217632255 1
force Ag   0.000009884996376   0.000046468032516   0.000129610577069 1
force Ag   0.000002734564858   0.000154188721860   0.000273322127125 1
force Ag   0.000004087126429  -0.000254524530768  -0.000119925193781 1
force Ag   0.000000674070901   0.000319671630110   0.000101546632253 1
force Ag  -0.000003378383826  -0.000392117189172  -0.000429965905186 1
force Ag  -0.000008753739778   0.000419304128688   0.000072119443433 1
force Ag  -0.000007493439670  -0.000339631337177  -0.000044416683518 1
force Ag  -0.000010353514973  -0.000064885034114   0.000357709011879 1
force Ag  -0.000012348549203  -0.000175488729546   0.000176911249578 1
force Ag  -0.000012835354042   0.000161321007959  -0.000051684323665 1
force Ag   0.000003318525918  -0.000343767699698   0.000088454426385 1

# Energy components:
   Eewald =    15454.8166073500942730
       EH =    18033.8344871318295191
     Eloc =   -36733.8093645158660365
      Enl =       74.9410108693080872
     EvdW =       -0.2999696047028387
      Exc =     -275.3631575972652286
 Exc_core =        3.9552379525679990
       KE =      637.2589487515749624
-------------------------------------
     Etot =    -2804.6661996624588937
       TS =        0.0003948808030468
-------------------------------------
        F =    -2804.6665945432619083


Dumping 'jdft.fillings' ... done
Dumping 'jdft.wfns' ... done
Dumping 'jdft.ionpos' ... done
Dumping 'jdft.lattice' ... done
Dumping 'jdft.eigenvals' ... done
Dumping 'jdft.eigStats' ... 
	eMin: -3.131679 at state 55 ( [ +0.000000 +0.000000 +0.000000 ] spin -1 )
	HOMO: +0.251985 at state 24 ( [ +0.363636 -0.200000 +0.000000 ] spin 1 )
	mu  : +0.252363
	LUMO: +0.252426 at state 66 ( [ +0.181818 +0.200000 +0.000000 ] spin -1 )
	eMax: +0.604308 at state 9 ( [ +0.090909 -0.200000 +0.000000 ] spin 1 )
	HOMO-LUMO gap: +0.000441
	Optical gap  : +0.008185 at state 100 ( [ -0.181818 +0.000000 +0.000000 ] spin -1 )
Dumping 'jdft.Ecomponents' ... done
IonicMinimize: Iter:   7  F: -2804.666594543261908  |grad|_K:  1.764e-04  alpha:  1.000e+00  linmin:  3.025e-01  t[s]:  21513.67

#--- Lowdin population analysis ---
# oxidation-state Ag +0.087 +0.026 -0.071 +0.086 -0.007 +0.000 +0.003 +0.003 +0.003 +0.001 +0.005 +0.001 +0.003 +0.003 +0.002 -0.000 -0.007 -0.072 +0.025
# magnetic-moments Ag +0.000 +0.000 -0.000 +0.000 +0.000 +0.000 +0.000 +0.000 -0.000 +0.000 +0.000 +0.000 +0.000 +0.000 +0.000 +0.000 -0.000 +0.000 +0.000


Computing DFT-D3 correction:
# coordination-number Ag 5.469 6.674 8.351 5.469 8.898 9.017 9.044 9.093 9.078 9.097 9.090 9.095 9.074 9.088 9.036 9.007 8.890 8.345 6.670
# diagonal-C6 Ag 268.61 268.61 268.61 268.61 268.61 268.61 268.61 268.61 268.61 268.61 268.61 268.61 268.61 268.61 268.61 268.61 268.61 268.61 268.61
EvdW_6 =   -0.129265
EvdW_8 =   -0.170935

-------- Electronic minimization -----------
	FillingsUpdate:  mu: +0.252275014  nElectrons: 361.000000  magneticMoment: [ Abs: 0.00000  Tot: -0.00000 ]
ElecMinimize: Iter:   0  F: -2804.666439040611294  |grad|_K:  5.245e-07  alpha:  1.000e+00
	FillingsUpdate:  mu: +0.252405071  nElectrons: 361.000000  magneticMoment: [ Abs: 0.00000  Tot: -0.00000 ]
	SubspaceRotationAdjust: set factor to 0.0979
ElecMinimize: Iter:   1  F: -2804.666463845151611  |grad|_K:  3.774e-07  alpha:  2.055e-01  linmin: -1.043e-06  t[s]:  21668.44
	FillingsUpdate:  mu: +0.252523399  nElectrons: 361.000000  magneticMoment: [ Abs: 0.00000  Tot: -0.00000 ]
	SubspaceRotationAdjust: set factor to 0.131
ElecMinimize: Iter:   2  F: -2804.666493276788970  |grad|_K:  2.835e-07  alpha:  4.709e-01  linmin: -7.828e-07  t[s]:  21752.40
	FillingsUpdate:  mu: +0.252166909  nElectrons: 361.000000  magneticMoment: [ Abs: 0.00000  Tot: -0.00000 ]
	SubspaceRotationAdjust: set factor to 0.15
ElecMinimize: Iter:   3  F: -2804.666524469998421  |grad|_K:  3.747e-07  alpha:  8.844e-01  linmin:  7.086e-07  t[s]:  21836.25
	FillingsUpdate:  mu: +0.252678690  nElectrons: 361.000000  magneticMoment: [ Abs: 0.00000  Tot: -0.00000 ]
	SubspaceRotationAdjust: set factor to 0.154
ElecMinimize: Iter:   4  F: -2804.666559537967260  |grad|_K:  3.713e-07  alpha:  5.691e-01  linmin:  1.454e-07  t[s]:  21920.17
	FillingsUpdate:  mu: +0.252641590  nElectrons: 361.000000  magneticMoment: [ Abs: 0.00000  Tot: -0.00000 ]
	SubspaceRotationAdjust: set factor to 0.12
ElecMinimize: Iter:   5  F: -2804.666581958766074  |grad|_K:  3.522e-07  alpha:  3.704e-01  linmin: -1.949e-07  t[s]:  22004.54
	FillingsUpdate:  mu: +0.252369979  nElectrons: 361.000000  magneticMoment: [ Abs: 0.00000  Tot: -0.00000 ]
	SubspaceRotationAdjust: set factor to 0.0801
ElecMinimize: Iter:   6  F: -2804.666594938531489  |grad|_K:  2.014e-07  alpha:  2.384e-01  linmin: -3.008e-07  t[s]:  22088.98
	FillingsUpdate:  mu: +0.252275991  nElectrons: 361.000000  magneticMoment: [ Abs: 0.00000  Tot: -0.00000 ]
	SubspaceRotationAdjust: set factor to 0.0947
ElecMinimize: Iter:   7  F: -2804.666602132846947  |grad|_K:  1.314e-07  alpha:  4.039e-01  linmin: -2.689e-06  t[s]:  22173.19
	FillingsUpdate:  mu: +0.252376435  nElectrons: 361.000000  magneticMoment: [ Abs: 0.00000  Tot: -0.00000 ]
	SubspaceRotationAdjust: set factor to 0.0869
ElecMinimize: Iter:   8  F: -2804.666604723970067  |grad|_K:  7.911e-08  alpha:  3.421e-01  linmin: -5.184e-06  t[s]:  22257.45
	FillingsUpdate:  mu: +0.252411285  nElectrons: 361.000000  magneticMoment: [ Abs: 0.00000  Tot: -0.00000 ]
	SubspaceRotationAdjust: set factor to 0.0695
ElecMinimize: Iter:   9  F: -2804.666605847563915  |grad|_K:  4.880e-08  alpha:  4.090e-01  linmin: -9.890e-06  t[s]:  22341.50
	FillingsUpdate:  mu: +0.252382644  nElectrons: 361.000000  magneticMoment: [ Abs: 0.00000  Tot: -0.00000 ]
	SubspaceRotationAdjust: set factor to 0.0644
ElecMinimize: Iter:  10  F: -2804.666606221780512  |grad|_K:  3.105e-08  alpha:  3.579e-01  linmin:  2.904e-05  t[s]:  22425.95
	FillingsUpdate:  mu: +0.252384481  nElectrons: 361.000000  magneticMoment: [ Abs: 0.00000  Tot: -0.00000 ]
	SubspaceRotationAdjust: set factor to 0.0743
ElecMinimize: Iter:  11  F: -2804.666606378419601  |grad|_K:  1.988e-08  alpha:  3.708e-01  linmin:  1.083e-04  t[s]:  22510.15
	FillingsUpdate:  mu: +0.252396916  nElectrons: 361.000000  magneticMoment: [ Abs: 0.00000  Tot: -0.00000 ]
	SubspaceRotationAdjust: set factor to 0.0759
ElecMinimize: Iter:  12  F: -2804.666606447549839  |grad|_K:  1.250e-08  alpha:  4.004e-01  linmin: -2.134e-04  t[s]:  22594.43
	FillingsUpdate:  mu: +0.252395604  nElectrons: 361.000000  magneticMoment: [ Abs: 0.00000  Tot: -0.00000 ]
	SubspaceRotationAdjust: set factor to 0.0866
ElecMinimize: Iter:  13  F: -2804.666606480481278  |grad|_K:  9.783e-09  alpha:  4.767e-01  linmin: -2.070e-05  t[s]:  22678.70
ElecMinimize: Converged (|Delta F|<1.000000e-07 for 2 iters).
Setting wave functions to eigenvectors of Hamiltonian
Converging empty states (this may take a while): |deigs|: 2.655e-08

Computing DFT-D3 correction:
# coordination-number Ag 5.469 6.674 8.351 5.469 8.898 9.017 9.044 9.093 9.078 9.097 9.090 9.095 9.074 9.088 9.036 9.007 8.890 8.345 6.670
# diagonal-C6 Ag 268.61 268.61 268.61 268.61 268.61 268.61 268.61 268.61 268.61 268.61 268.61 268.61 268.61 268.61 268.61 268.61 268.61 268.61 268.61
EvdW_6 =   -0.129265
EvdW_8 =   -0.170935

# Ionic positions in cartesian coordinates:
ion Ag   0.003997119690617   7.515272156330668  65.972991627202845 1
ion Ag   2.712480901635732   3.067416310357675  64.455790984669264 1
ion Ag   2.714831935264929  10.655838519532498  62.587918367951033 1
ion Ag   2.709825198052962  11.759468663384329  34.265702868710562 1
ion Ag   0.002023464907825   6.202742937317550  60.767351785002219 1
ion Ag   2.711071373757695   1.855240257026744  58.986080442637494 1
ion Ag   2.711582184304654   9.307554715245235  57.230161451254723 1
ion Ag   0.000489385163666   4.965964390591860  55.445817783569296 1
ion Ag   2.713932221431834   0.607526991289192  53.662773272327186 1
ion Ag   2.711831429510418   8.078529234201472  51.900075557998882 1
ion Ag   0.001148959252944   3.730180863432166  50.121990481113130 1
ion Ag  -0.003421830254771  11.196267402403500  48.344887231357532 1
ion Ag   2.707141362189575   6.853298455178332  46.581363779904436 1
ion Ag  -0.001372047064050   2.496034671803665  44.798166879116685 1
ion Ag  -0.003496610239275   9.967970995565736  43.012230119692830 1
ion Ag   2.710473248486154   5.606860026097873  41.255698873102268 1
ion Ag  -0.005031002315047   1.258170900095188  39.473212313387052 1
ion Ag  -0.001731011200362   8.618949166909253  37.650703659998371 1
ion Ag   2.706469717424502   4.392601343237074  35.782484521004072 1

# Forces in Cartesian coordinates:
force Ag   0.000008403369021  -0.000025924442467   0.000109531072091 1
force Ag   0.000009471443517   0.000072105755250   0.000038999982646 1
force Ag   0.000011521134463   0.000001579019477   0.000023549330095 1
force Ag  -0.000008889066930   0.000058091795524  -0.000035413755513 1
force Ag   0.000017422164371   0.000192156213269  -0.000135700493116 1
force Ag   0.000014160916839   0.000027011662666  -0.000038545958529 1
force Ag   0.000013646277035   0.000164167894678   0.000084088628853 1
force Ag   0.000008122741778  -0.000146480316817  -0.000012928419322 1
force Ag   0.000012020836267   0.000097772827653   0.000069779711256 1
force Ag   0.000003998712137  -0.000040753957360  -0.000065073597462 1
force Ag   0.000003160261366  -0.000003686400606  -0.000071032605196 1
force Ag  -0.000001564422863   0.000041756786023  -0.000084223177813 1
force Ag  -0.000003204726513  -0.000076836590667  -0.000259097782981 1
force Ag  -0.000004489311357   0.000168520444013  -0.000122744096013 1
force Ag  -0.000005928383337  -0.000201431804069  -0.000164861749300 1
force Ag  -0.000005975918750   0.000016717592679   0.000001675368027 1
force Ag  -0.000011001637342  -0.000195505175805   0.000146502372848 1
force Ag  -0.000005806162514   0.000007646600746   0.000066799794471 1
force Ag  -0.000003151121118  -0.000068431063842   0.000030077249027 1

# Energy components:
   Eewald =    15485.2028421155064279
       EH =    18064.1911861296721327
     Eloc =   -36794.5542426368847373
      Enl =       74.9389924604330275
     EvdW =       -0.3001998987628036
      Exc =     -275.3664846769396490
 Exc_core =        3.9552380999446770
       KE =      637.2664545331613226
-------------------------------------
     Etot =    -2804.6662138738679459
       TS =        0.0003926066133459
-------------------------------------
        F =    -2804.6666064804812777


Dumping 'jdft.fillings' ... done
Dumping 'jdft.wfns' ... done
Dumping 'jdft.ionpos' ... done
Dumping 'jdft.lattice' ... done
Dumping 'jdft.eigenvals' ... done
Dumping 'jdft.eigStats' ... 
	eMin: -3.131781 at state 55 ( [ +0.000000 +0.000000 +0.000000 ] spin -1 )
	HOMO: +0.252067 at state 24 ( [ +0.363636 -0.200000 +0.000000 ] spin 1 )
	mu  : +0.252396
	LUMO: +0.252515 at state 49 ( [ -0.181818 -0.200000 +0.000000 ] spin 1 )
	eMax: +0.604380 at state 9 ( [ +0.090909 -0.200000 +0.000000 ] spin 1 )
	HOMO-LUMO gap: +0.000448
	Optical gap  : +0.008307 at state 10 ( [ +0.181818 +0.000000 +0.000000 ] spin 1 )
Dumping 'jdft.Ecomponents' ... done
IonicMinimize: Iter:   8  F: -2804.666606480481278  |grad|_K:  8.565e-05  alpha:  1.000e+00  linmin: -1.535e-01  t[s]:  22766.06
IonicMinimize: Converged (|grad|_K<1.000000e-04).

#--- Lowdin population analysis ---
# oxidation-state Ag +0.087 +0.024 -0.071 +0.087 -0.007 +0.000 +0.003 +0.003 +0.003 +0.001 +0.005 +0.001 +0.003 +0.003 +0.003 +0.000 -0.007 -0.070 +0.024
# magnetic-moments Ag +0.000 -0.000 -0.000 -0.000 -0.000 -0.000 -0.000 -0.000 -0.000 -0.000 +0.000 +0.000 -0.000 +0.000 -0.000 -0.000 -0.000 -0.000 +0.000


Dumping 'jdft.n_up' ... done
Dumping 'jdft.n_dn' ... done
Dumping 'jdft.tau_up' ... done
Dumping 'jdft.tau_dn' ... done
Dumping 'jdft.eigenvals' ... done
Dumping 'jdft.eigStats' ... 
	eMin: -3.131781 at state 55 ( [ +0.000000 +0.000000 +0.000000 ] spin -1 )
	HOMO: +0.252067 at state 24 ( [ +0.363636 -0.200000 +0.000000 ] spin 1 )
	mu  : +0.252396
	LUMO: +0.252515 at state 49 ( [ -0.181818 -0.200000 +0.000000 ] spin 1 )
	eMax: +0.604380 at state 9 ( [ +0.090909 -0.200000 +0.000000 ] spin 1 )
	HOMO-LUMO gap: +0.000448
	Optical gap  : +0.008307 at state 10 ( [ +0.181818 +0.000000 +0.000000 ] spin 1 )
Dumping 'jdft.kPts' ... done
Dumping 'jdft.dosUp' ... done.
Dumping 'jdft.dosDn' ... done.
End date and time: Mon Dec  6 23:22:27 2021  (Duration: 0-6:20:21.10)
Done!
