
*************** JDFTx 1.6.0  ***************

Start date and time: Thu Feb 17 15:00:21 2022
Executable /projects/musgravc/apps/jdftx-1.6.1/build/jdftx with command-line: -i in
Running on hosts (process indices):  shas0906.rc.int.colorado.edu (0-23)
Divided in process groups (process indices):  0 (0)  1 (1)  2 (2)  3 (3)  4 (4)  5 (5)  6 (6)  7 (7)  8 (8)  9 (9)  10 (10)  11 (11)  12 (12)  13 (13)  14 (14)  15 (15)  16 (16)  17 (17)  18 (18)  19 (19)  20 (20)  21 (21)  22 (22)  23 (23)
Resource initialization completed at t[s]:      0.13
Run totals: 24 processes, 24 threads, 0 GPUs


Input parsed successfully to the following command list (including defaults):

basis kpoint-dependent
converge-empty-states yes
coords-type Cartesian
core-overlap-check none
coulomb-interaction Periodic
davidson-band-ratio 1.1
density-of-states Etol 1.000000e-06 Esigma 1.000000e-03 \
		Complete \
	Total \
	OrthoOrbital Ag 1   s \
	OrthoOrbital Ag 1   p \
	OrthoOrbital Ag 1   px \
	OrthoOrbital Ag 1   py \
	OrthoOrbital Ag 1   pz \
	OrthoOrbital Ag 1   d \
	OrthoOrbital Ag 1   dxy \
	OrthoOrbital Ag 1   dyz \
	OrthoOrbital Ag 1   dz2 \
	OrthoOrbital Ag 1   dxz \
	OrthoOrbital Ag 1   dx2-y2 \
	OrthoOrbital Ag 2   s \
	OrthoOrbital Ag 2   p \
	OrthoOrbital Ag 2   px \
	OrthoOrbital Ag 2   py \
	OrthoOrbital Ag 2   pz \
	OrthoOrbital Ag 2   d \
	OrthoOrbital Ag 2   dxy \
	OrthoOrbital Ag 2   dyz \
	OrthoOrbital Ag 2   dz2 \
	OrthoOrbital Ag 2   dxz \
	OrthoOrbital Ag 2   dx2-y2 \
	OrthoOrbital Ag 3   s \
	OrthoOrbital Ag 3   p \
	OrthoOrbital Ag 3   px \
	OrthoOrbital Ag 3   py \
	OrthoOrbital Ag 3   pz \
	OrthoOrbital Ag 3   d \
	OrthoOrbital Ag 3   dxy \
	OrthoOrbital Ag 3   dyz \
	OrthoOrbital Ag 3   dz2 \
	OrthoOrbital Ag 3   dxz \
	OrthoOrbital Ag 3   dx2-y2 \
	OrthoOrbital Ag 4   s \
	OrthoOrbital Ag 4   p \
	OrthoOrbital Ag 4   px \
	OrthoOrbital Ag 4   py \
	OrthoOrbital Ag 4   pz \
	OrthoOrbital Ag 4   d \
	OrthoOrbital Ag 4   dxy \
	OrthoOrbital Ag 4   dyz \
	OrthoOrbital Ag 4   dz2 \
	OrthoOrbital Ag 4   dxz \
	OrthoOrbital Ag 4   dx2-y2 \
	OrthoOrbital Ag 5   s \
	OrthoOrbital Ag 5   p \
	OrthoOrbital Ag 5   px \
	OrthoOrbital Ag 5   py \
	OrthoOrbital Ag 5   pz \
	OrthoOrbital Ag 5   d \
	OrthoOrbital Ag 5   dxy \
	OrthoOrbital Ag 5   dyz \
	OrthoOrbital Ag 5   dz2 \
	OrthoOrbital Ag 5   dxz \
	OrthoOrbital Ag 5   dx2-y2 \
	OrthoOrbital Ag 6   s \
	OrthoOrbital Ag 6   p \
	OrthoOrbital Ag 6   px \
	OrthoOrbital Ag 6   py \
	OrthoOrbital Ag 6   pz \
	OrthoOrbital Ag 6   d \
	OrthoOrbital Ag 6   dxy \
	OrthoOrbital Ag 6   dyz \
	OrthoOrbital Ag 6   dz2 \
	OrthoOrbital Ag 6   dxz \
	OrthoOrbital Ag 6   dx2-y2 \
	OrthoOrbital Ag 7   s \
	OrthoOrbital Ag 7   p \
	OrthoOrbital Ag 7   px \
	OrthoOrbital Ag 7   py \
	OrthoOrbital Ag 7   pz \
	OrthoOrbital Ag 7   d \
	OrthoOrbital Ag 7   dxy \
	OrthoOrbital Ag 7   dyz \
	OrthoOrbital Ag 7   dz2 \
	OrthoOrbital Ag 7   dxz \
	OrthoOrbital Ag 7   dx2-y2 \
	OrthoOrbital Ag 8   s \
	OrthoOrbital Ag 8   p \
	OrthoOrbital Ag 8   px \
	OrthoOrbital Ag 8   py \
	OrthoOrbital Ag 8   pz \
	OrthoOrbital Ag 8   d \
	OrthoOrbital Ag 8   dxy \
	OrthoOrbital Ag 8   dyz \
	OrthoOrbital Ag 8   dz2 \
	OrthoOrbital Ag 8   dxz \
	OrthoOrbital Ag 8   dx2-y2 \
	OrthoOrbital Ag 9   s \
	OrthoOrbital Ag 9   p \
	OrthoOrbital Ag 9   px \
	OrthoOrbital Ag 9   py \
	OrthoOrbital Ag 9   pz \
	OrthoOrbital Ag 9   d \
	OrthoOrbital Ag 9   dxy \
	OrthoOrbital Ag 9   dyz \
	OrthoOrbital Ag 9   dz2 \
	OrthoOrbital Ag 9   dxz \
	OrthoOrbital Ag 9   dx2-y2 \
	OrthoOrbital Ag 10   s \
	OrthoOrbital Ag 10   p \
	OrthoOrbital Ag 10   px \
	OrthoOrbital Ag 10   py \
	OrthoOrbital Ag 10   pz \
	OrthoOrbital Ag 10   d \
	OrthoOrbital Ag 10   dxy \
	OrthoOrbital Ag 10   dyz \
	OrthoOrbital Ag 10   dz2 \
	OrthoOrbital Ag 10   dxz \
	OrthoOrbital Ag 10   dx2-y2 \
	OrthoOrbital Ag 11   s \
	OrthoOrbital Ag 11   p \
	OrthoOrbital Ag 11   px \
	OrthoOrbital Ag 11   py \
	OrthoOrbital Ag 11   pz \
	OrthoOrbital Ag 11   d \
	OrthoOrbital Ag 11   dxy \
	OrthoOrbital Ag 11   dyz \
	OrthoOrbital Ag 11   dz2 \
	OrthoOrbital Ag 11   dxz \
	OrthoOrbital Ag 11   dx2-y2 \
	OrthoOrbital Ag 12   s \
	OrthoOrbital Ag 12   p \
	OrthoOrbital Ag 12   px \
	OrthoOrbital Ag 12   py \
	OrthoOrbital Ag 12   pz \
	OrthoOrbital Ag 12   d \
	OrthoOrbital Ag 12   dxy \
	OrthoOrbital Ag 12   dyz \
	OrthoOrbital Ag 12   dz2 \
	OrthoOrbital Ag 12   dxz \
	OrthoOrbital Ag 12   dx2-y2 \
	OrthoOrbital Ag 13   s \
	OrthoOrbital Ag 13   p \
	OrthoOrbital Ag 13   px \
	OrthoOrbital Ag 13   py \
	OrthoOrbital Ag 13   pz \
	OrthoOrbital Ag 13   d \
	OrthoOrbital Ag 13   dxy \
	OrthoOrbital Ag 13   dyz \
	OrthoOrbital Ag 13   dz2 \
	OrthoOrbital Ag 13   dxz \
	OrthoOrbital Ag 13   dx2-y2 \
	OrthoOrbital Ag 14   s \
	OrthoOrbital Ag 14   p \
	OrthoOrbital Ag 14   px \
	OrthoOrbital Ag 14   py \
	OrthoOrbital Ag 14   pz \
	OrthoOrbital Ag 14   d \
	OrthoOrbital Ag 14   dxy \
	OrthoOrbital Ag 14   dyz \
	OrthoOrbital Ag 14   dz2 \
	OrthoOrbital Ag 14   dxz \
	OrthoOrbital Ag 14   dx2-y2 \
	OrthoOrbital Ag 15   s \
	OrthoOrbital Ag 15   p \
	OrthoOrbital Ag 15   px \
	OrthoOrbital Ag 15   py \
	OrthoOrbital Ag 15   pz \
	OrthoOrbital Ag 15   d \
	OrthoOrbital Ag 15   dxy \
	OrthoOrbital Ag 15   dyz \
	OrthoOrbital Ag 15   dz2 \
	OrthoOrbital Ag 15   dxz \
	OrthoOrbital Ag 15   dx2-y2 \
	OrthoOrbital Ag 16   s \
	OrthoOrbital Ag 16   p \
	OrthoOrbital Ag 16   px \
	OrthoOrbital Ag 16   py \
	OrthoOrbital Ag 16   pz \
	OrthoOrbital Ag 16   d \
	OrthoOrbital Ag 16   dxy \
	OrthoOrbital Ag 16   dyz \
	OrthoOrbital Ag 16   dz2 \
	OrthoOrbital Ag 16   dxz \
	OrthoOrbital Ag 16   dx2-y2 \
	OrthoOrbital Ag 17   s \
	OrthoOrbital Ag 17   p \
	OrthoOrbital Ag 17   px \
	OrthoOrbital Ag 17   py \
	OrthoOrbital Ag 17   pz \
	OrthoOrbital Ag 17   d \
	OrthoOrbital Ag 17   dxy \
	OrthoOrbital Ag 17   dyz \
	OrthoOrbital Ag 17   dz2 \
	OrthoOrbital Ag 17   dxz \
	OrthoOrbital Ag 17   dx2-y2 \
	OrthoOrbital Ag 18   s \
	OrthoOrbital Ag 18   p \
	OrthoOrbital Ag 18   px \
	OrthoOrbital Ag 18   py \
	OrthoOrbital Ag 18   pz \
	OrthoOrbital Ag 18   d \
	OrthoOrbital Ag 18   dxy \
	OrthoOrbital Ag 18   dyz \
	OrthoOrbital Ag 18   dz2 \
	OrthoOrbital Ag 18   dxz \
	OrthoOrbital Ag 18   dx2-y2 \
	OrthoOrbital Ag 19   s \
	OrthoOrbital Ag 19   p \
	OrthoOrbital Ag 19   px \
	OrthoOrbital Ag 19   py \
	OrthoOrbital Ag 19   pz \
	OrthoOrbital Ag 19   d \
	OrthoOrbital Ag 19   dxy \
	OrthoOrbital Ag 19   dyz \
	OrthoOrbital Ag 19   dz2 \
	OrthoOrbital Ag 19   dxz \
	OrthoOrbital Ag 19   dx2-y2 \
	OrthoOrbital Ag 20   s \
	OrthoOrbital Ag 20   p \
	OrthoOrbital Ag 20   px \
	OrthoOrbital Ag 20   py \
	OrthoOrbital Ag 20   pz \
	OrthoOrbital Ag 20   d \
	OrthoOrbital Ag 20   dxy \
	OrthoOrbital Ag 20   dyz \
	OrthoOrbital Ag 20   dz2 \
	OrthoOrbital Ag 20   dxz \
	OrthoOrbital Ag 20   dx2-y2 \
	OrthoOrbital Ag 21   s \
	OrthoOrbital Ag 21   p \
	OrthoOrbital Ag 21   px \
	OrthoOrbital Ag 21   py \
	OrthoOrbital Ag 21   pz \
	OrthoOrbital Ag 21   d \
	OrthoOrbital Ag 21   dxy \
	OrthoOrbital Ag 21   dyz \
	OrthoOrbital Ag 21   dz2 \
	OrthoOrbital Ag 21   dxz \
	OrthoOrbital Ag 21   dx2-y2 \
	OrthoOrbital Ag 22   s \
	OrthoOrbital Ag 22   p \
	OrthoOrbital Ag 22   px \
	OrthoOrbital Ag 22   py \
	OrthoOrbital Ag 22   pz \
	OrthoOrbital Ag 22   d \
	OrthoOrbital Ag 22   dxy \
	OrthoOrbital Ag 22   dyz \
	OrthoOrbital Ag 22   dz2 \
	OrthoOrbital Ag 22   dxz \
	OrthoOrbital Ag 22   dx2-y2 \
	OrthoOrbital Ag 23   s \
	OrthoOrbital Ag 23   p \
	OrthoOrbital Ag 23   px \
	OrthoOrbital Ag 23   py \
	OrthoOrbital Ag 23   pz \
	OrthoOrbital Ag 23   d \
	OrthoOrbital Ag 23   dxy \
	OrthoOrbital Ag 23   dyz \
	OrthoOrbital Ag 23   dz2 \
	OrthoOrbital Ag 23   dxz \
	OrthoOrbital Ag 23   dx2-y2 \
	OrthoOrbital Ag 24   s \
	OrthoOrbital Ag 24   p \
	OrthoOrbital Ag 24   px \
	OrthoOrbital Ag 24   py \
	OrthoOrbital Ag 24   pz \
	OrthoOrbital Ag 24   d \
	OrthoOrbital Ag 24   dxy \
	OrthoOrbital Ag 24   dyz \
	OrthoOrbital Ag 24   dz2 \
	OrthoOrbital Ag 24   dxz \
	OrthoOrbital Ag 24   dx2-y2 \
	OrthoOrbital Ag 25   s \
	OrthoOrbital Ag 25   p \
	OrthoOrbital Ag 25   px \
	OrthoOrbital Ag 25   py \
	OrthoOrbital Ag 25   pz \
	OrthoOrbital Ag 25   d \
	OrthoOrbital Ag 25   dxy \
	OrthoOrbital Ag 25   dyz \
	OrthoOrbital Ag 25   dz2 \
	OrthoOrbital Ag 25   dxz \
	OrthoOrbital Ag 25   dx2-y2 \
	OrthoOrbital Ag 26   s \
	OrthoOrbital Ag 26   p \
	OrthoOrbital Ag 26   px \
	OrthoOrbital Ag 26   py \
	OrthoOrbital Ag 26   pz \
	OrthoOrbital Ag 26   d \
	OrthoOrbital Ag 26   dxy \
	OrthoOrbital Ag 26   dyz \
	OrthoOrbital Ag 26   dz2 \
	OrthoOrbital Ag 26   dxz \
	OrthoOrbital Ag 26   dx2-y2 \
	OrthoOrbital Ag 27   s \
	OrthoOrbital Ag 27   p \
	OrthoOrbital Ag 27   px \
	OrthoOrbital Ag 27   py \
	OrthoOrbital Ag 27   pz \
	OrthoOrbital Ag 27   d \
	OrthoOrbital Ag 27   dxy \
	OrthoOrbital Ag 27   dyz \
	OrthoOrbital Ag 27   dz2 \
	OrthoOrbital Ag 27   dxz \
	OrthoOrbital Ag 27   dx2-y2 \
	OrthoOrbital Ag 28   s \
	OrthoOrbital Ag 28   p \
	OrthoOrbital Ag 28   px \
	OrthoOrbital Ag 28   py \
	OrthoOrbital Ag 28   pz \
	OrthoOrbital Ag 28   d \
	OrthoOrbital Ag 28   dxy \
	OrthoOrbital Ag 28   dyz \
	OrthoOrbital Ag 28   dz2 \
	OrthoOrbital Ag 28   dxz \
	OrthoOrbital Ag 28   dx2-y2 \
	OrthoOrbital Ag 29   s \
	OrthoOrbital Ag 29   p \
	OrthoOrbital Ag 29   px \
	OrthoOrbital Ag 29   py \
	OrthoOrbital Ag 29   pz \
	OrthoOrbital Ag 29   d \
	OrthoOrbital Ag 29   dxy \
	OrthoOrbital Ag 29   dyz \
	OrthoOrbital Ag 29   dz2 \
	OrthoOrbital Ag 29   dxz \
	OrthoOrbital Ag 29   dx2-y2 \
	OrthoOrbital Ag 30   s \
	OrthoOrbital Ag 30   p \
	OrthoOrbital Ag 30   px \
	OrthoOrbital Ag 30   py \
	OrthoOrbital Ag 30   pz \
	OrthoOrbital Ag 30   d \
	OrthoOrbital Ag 30   dxy \
	OrthoOrbital Ag 30   dyz \
	OrthoOrbital Ag 30   dz2 \
	OrthoOrbital Ag 30   dxz \
	OrthoOrbital Ag 30   dx2-y2 \
	OrthoOrbital Ag 31   s \
	OrthoOrbital Ag 31   p \
	OrthoOrbital Ag 31   px \
	OrthoOrbital Ag 31   py \
	OrthoOrbital Ag 31   pz \
	OrthoOrbital Ag 31   d \
	OrthoOrbital Ag 31   dxy \
	OrthoOrbital Ag 31   dyz \
	OrthoOrbital Ag 31   dz2 \
	OrthoOrbital Ag 31   dxz \
	OrthoOrbital Ag 31   dx2-y2 \
	OrthoOrbital Ag 32   s \
	OrthoOrbital Ag 32   p \
	OrthoOrbital Ag 32   px \
	OrthoOrbital Ag 32   py \
	OrthoOrbital Ag 32   pz \
	OrthoOrbital Ag 32   d \
	OrthoOrbital Ag 32   dxy \
	OrthoOrbital Ag 32   dyz \
	OrthoOrbital Ag 32   dz2 \
	OrthoOrbital Ag 32   dxz \
	OrthoOrbital Ag 32   dx2-y2 \
	OrthoOrbital Ag 33   s \
	OrthoOrbital Ag 33   p \
	OrthoOrbital Ag 33   px \
	OrthoOrbital Ag 33   py \
	OrthoOrbital Ag 33   pz \
	OrthoOrbital Ag 33   d \
	OrthoOrbital Ag 33   dxy \
	OrthoOrbital Ag 33   dyz \
	OrthoOrbital Ag 33   dz2 \
	OrthoOrbital Ag 33   dxz \
	OrthoOrbital Ag 33   dx2-y2 \
	OrthoOrbital Ag 34   s \
	OrthoOrbital Ag 34   p \
	OrthoOrbital Ag 34   px \
	OrthoOrbital Ag 34   py \
	OrthoOrbital Ag 34   pz \
	OrthoOrbital Ag 34   d \
	OrthoOrbital Ag 34   dxy \
	OrthoOrbital Ag 34   dyz \
	OrthoOrbital Ag 34   dz2 \
	OrthoOrbital Ag 34   dxz \
	OrthoOrbital Ag 34   dx2-y2 \
	OrthoOrbital Ag 35   s \
	OrthoOrbital Ag 35   p \
	OrthoOrbital Ag 35   px \
	OrthoOrbital Ag 35   py \
	OrthoOrbital Ag 35   pz \
	OrthoOrbital Ag 35   d \
	OrthoOrbital Ag 35   dxy \
	OrthoOrbital Ag 35   dyz \
	OrthoOrbital Ag 35   dz2 \
	OrthoOrbital Ag 35   dxz \
	OrthoOrbital Ag 35   dx2-y2 \
	OrthoOrbital Ag 36   s \
	OrthoOrbital Ag 36   p \
	OrthoOrbital Ag 36   px \
	OrthoOrbital Ag 36   py \
	OrthoOrbital Ag 36   pz \
	OrthoOrbital Ag 36   d \
	OrthoOrbital Ag 36   dxy \
	OrthoOrbital Ag 36   dyz \
	OrthoOrbital Ag 36   dz2 \
	OrthoOrbital Ag 36   dxz \
	OrthoOrbital Ag 36   dx2-y2 \
	OrthoOrbital Ag 37   s \
	OrthoOrbital Ag 37   p \
	OrthoOrbital Ag 37   px \
	OrthoOrbital Ag 37   py \
	OrthoOrbital Ag 37   pz \
	OrthoOrbital Ag 37   d \
	OrthoOrbital Ag 37   dxy \
	OrthoOrbital Ag 37   dyz \
	OrthoOrbital Ag 37   dz2 \
	OrthoOrbital Ag 37   dxz \
	OrthoOrbital Ag 37   dx2-y2 \
	OrthoOrbital Ag 38   s \
	OrthoOrbital Ag 38   p \
	OrthoOrbital Ag 38   px \
	OrthoOrbital Ag 38   py \
	OrthoOrbital Ag 38   pz \
	OrthoOrbital Ag 38   d \
	OrthoOrbital Ag 38   dxy \
	OrthoOrbital Ag 38   dyz \
	OrthoOrbital Ag 38   dz2 \
	OrthoOrbital Ag 38   dxz \
	OrthoOrbital Ag 38   dx2-y2 \
	OrthoOrbital Ag 39   s \
	OrthoOrbital Ag 39   p \
	OrthoOrbital Ag 39   px \
	OrthoOrbital Ag 39   py \
	OrthoOrbital Ag 39   pz \
	OrthoOrbital Ag 39   d \
	OrthoOrbital Ag 39   dxy \
	OrthoOrbital Ag 39   dyz \
	OrthoOrbital Ag 39   dz2 \
	OrthoOrbital Ag 39   dxz \
	OrthoOrbital Ag 39   dx2-y2 \
	OrthoOrbital Ag 40   s \
	OrthoOrbital Ag 40   p \
	OrthoOrbital Ag 40   px \
	OrthoOrbital Ag 40   py \
	OrthoOrbital Ag 40   pz \
	OrthoOrbital Ag 40   d \
	OrthoOrbital Ag 40   dxy \
	OrthoOrbital Ag 40   dyz \
	OrthoOrbital Ag 40   dz2 \
	OrthoOrbital Ag 40   dxz \
	OrthoOrbital Ag 40   dx2-y2 \
	OrthoOrbital C 1   s \
	OrthoOrbital C 1   p \
	OrthoOrbital C 1   px \
	OrthoOrbital C 1   py \
	OrthoOrbital C 1   pz \
	OrthoOrbital O 1   s \
	OrthoOrbital O 1   p \
	OrthoOrbital O 1   px \
	OrthoOrbital O 1   py \
	OrthoOrbital O 1   pz
dump End ElecDensity KEdensity BandEigs EigStats RhoAtom DOS Kpoints
dump Ionic State IonicPositions Lattice EigStats Ecomponents
dump 
dump 
dump 
dump 
dump 
dump 
dump 
dump 
dump-name jdft.$VAR
elec-cutoff 20
elec-eigen-algo Davidson
elec-ex-corr gga-PBE
elec-initial-magnetization 0.000000 no
elec-n-bands 462
elec-smearing Fermi 0.001
electronic-minimize  \
	dirUpdateScheme      FletcherReeves \
	linminMethod         DirUpdateRecommended \
	nIterations          100 \
	history              15 \
	knormThreshold       0 \
	energyDiffThreshold  1e-07 \
	nEnergyDiff          2 \
	alphaTstart          1 \
	alphaTmin            1e-10 \
	updateTestStepSize   yes \
	alphaTreduceFactor   0.1 \
	alphaTincreaseFactor 3 \
	nAlphaAdjustMax      3 \
	wolfeEnergy          0.0001 \
	wolfeGradient        0.9 \
	fdTest               no
exchange-regularization WignerSeitzTruncated
fluid LinearPCM 298.000000 1.013250
fluid-anion F- 0.5 MeanFieldLJ \
	epsBulk 1 \
	pMol 0 \
	epsInf 1 \
	Pvap 0 \
	sigmaBulk 0 \
	Rvdw 2.24877 \
	Res 0 \
	tauNuc 343133
fluid-cation Na+ 0.5 MeanFieldLJ \
	epsBulk 1 \
	pMol 0 \
	epsInf 1 \
	Pvap 0 \
	sigmaBulk 0 \
	Rvdw 2.19208 \
	Res 0 \
	tauNuc 343133
fluid-ex-corr lda-TF lda-PZ
fluid-gummel-loop 10 1.000000e-05
fluid-minimize  \
	dirUpdateScheme      PolakRibiere \
	linminMethod         DirUpdateRecommended \
	nIterations          400 \
	history              15 \
	knormThreshold       1e-11 \
	energyDiffThreshold  0 \
	nEnergyDiff          2 \
	alphaTstart          1 \
	alphaTmin            1e-10 \
	updateTestStepSize   yes \
	alphaTreduceFactor   0.1 \
	alphaTincreaseFactor 3 \
	nAlphaAdjustMax      6 \
	wolfeEnergy          0.0001 \
	wolfeGradient        0.9 \
	fdTest               no
fluid-solvent H2O 55.338 ScalarEOS \
	epsBulk 78.4 \
	pMol 0.92466 \
	epsInf 1.77 \
	Pvap 1.06736e-10 \
	sigmaBulk 4.62e-05 \
	Rvdw 2.61727 \
	Res 1.42 \
	tauNuc 343133 \
	poleEl 15 7 1
forces-output-coords Positions
ion Ag   3.835417000000000   1.682334000000000  13.043153000000000 0
ion Ag   0.002582000000000  10.252812000000002  13.043153000000000 0
ion Ag  11.501085999999999   1.682334000000000  13.043153000000000 0
ion Ag   7.668251000000000  10.252812000000002  13.043153000000000 0
ion Ag  -0.000736000000000   3.395349000000000   9.424063000000000 0
ion Ag  -3.833556000000000  11.965828000000002   9.424063000000000 0
ion Ag   7.664932000000000   3.395349000000000   9.424063000000000 0
ion Ag   3.832112000000000  11.965828000000002   9.424063000000000 0
ion Ag   3.832742000000000   5.197413000000001   5.972663000000000 0
ion Ag  -0.000094000000000  13.767891000000002   5.972663000000000 0
ion Ag  11.498410000000000   5.197413000000001   5.972663000000000 0
ion Ag   7.665575000000000  13.767891000000002   5.972663000000000 0
ion Ag  -0.002722000000000   6.958834000000002   2.379593000000000 0
ion Ag  -3.835557000000001  15.529313000000004   2.379593000000000 0
ion Ag   7.662945999999999   6.958834000000002   2.379593000000000 0
ion Ag   3.830110999999999  15.529313000000004   2.379593000000000 0
ion Ag   7.669207999999998  17.005235000000003  16.291689999999999 0
ion Ag  11.502043000000000   8.434757000000001  16.291689999999999 0
ion Ag   0.003540000000000  17.005235000000003  16.291689999999999 0
ion Ag   3.836374999999999   8.434757000000001  16.291689999999999 0
ion Ag   3.833408000000000   6.801035000000001  11.168018000000000 0
ion Ag   0.000580999999999  15.371531000000001  11.168018000000000 0
ion Ag  11.499076999999998   6.801035000000001  11.168018000000000 0
ion Ag   7.666249000000000  15.371531000000001  11.168018000000000 0
ion Ag   3.833056000000000   0.031488000000000   7.715897999999999 0
ion Ag   0.000220999999999   8.601967000000002   7.715897999999999 0
ion Ag  11.498725000000000   0.031488000000000   7.715897999999999 0
ion Ag   7.665889999999999   8.601967000000002   7.715897999999999 0
ion Ag  -0.003434000000000   1.745429000000000   4.098042000000000 0
ion Ag  -3.836277000000000  10.315891000000002   4.098042000000000 0
ion Ag   7.662233999999999   1.745429000000000   4.098042000000000 0
ion Ag   3.829406000000000  10.315891000000002   4.098042000000000 0
ion Ag   3.830595000000000   3.565593000000000   0.850020000000000 0
ion Ag  -0.002240000000000  12.136072000000002   0.850020000000000 0
ion Ag  11.496263999999998   3.565593000000000   0.850020000000000 0
ion Ag   7.663429000000000  12.136072000000002   0.850020000000000 0
ion Ag   0.002330000000000   5.040161000000001  14.761654000000000 0
ion Ag  -3.830505000000001  13.610640000000002  14.761654000000000 0
ion Ag   7.667997999999999   5.040161000000001  14.761654000000000 0
ion Ag   3.835162999999999  13.610640000000002  14.761654000000000 0
ion C   3.835163999999999   5.040161000000001  17.512674000000001 1  Linear 0 0 1
ion O   3.895262999999999   5.040161000000001  19.668012000000001 1  Linear 0 0 1
ion-species /projects/musgravc/apps/jdftx-1.6.0/build/pseudopotentials/GBRV_v1.5/$ID_pbe_v1.uspp
ion-species /projects/musgravc/apps/jdftx-1.6.0/build/pseudopotentials/GBRV_v1.5/$ID_pbe_v1.2.uspp
ion-species /projects/musgravc/apps/jdftx-1.6.0/build/pseudopotentials/GBRV_v1.5/$ID_pbe_v1.4.uspp
ion-species /projects/musgravc/apps/jdftx-1.6.0/build/pseudopotentials/GBRV_v1.5/$ID_pbe_v1.5.uspp
ion-width Ecut
ionic-minimize  \
	dirUpdateScheme      L-BFGS \
	linminMethod         DirUpdateRecommended \
	nIterations          100 \
	history              15 \
	knormThreshold       0.0001 \
	energyDiffThreshold  1e-06 \
	nEnergyDiff          2 \
	alphaTstart          1 \
	alphaTmin            1e-10 \
	updateTestStepSize   yes \
	alphaTreduceFactor   0.1 \
	alphaTincreaseFactor 3 \
	nAlphaAdjustMax      3 \
	wolfeEnergy          0.0001 \
	wolfeGradient        0.9 \
	fdTest               no
kpoint   0.000000000000   0.000000000000   0.000000000000  1.00000000000000
kpoint-folding 4 3 1 
latt-move-scale 0 0 0
latt-scale 1 1 1 
lattice  \
	  15.331337000000000   -7.665670000000000    0.000000000000000  \
	   0.000000000000000   17.140957000000000    0.000000000000000  \
	   0.000000000000000    0.000000000000000   51.422865999999999 
lattice-minimize  \
	dirUpdateScheme      L-BFGS \
	linminMethod         DirUpdateRecommended \
	nIterations          0 \
	history              15 \
	knormThreshold       0 \
	energyDiffThreshold  1e-06 \
	nEnergyDiff          2 \
	alphaTstart          1 \
	alphaTmin            1e-10 \
	updateTestStepSize   yes \
	alphaTreduceFactor   0.1 \
	alphaTincreaseFactor 3 \
	nAlphaAdjustMax      3 \
	wolfeEnergy          0.0001 \
	wolfeGradient        0.9 \
	fdTest               no
lcao-params 30 1e-06 0.001
pcm-variant CANDLE
spintype z-spin
subspace-rotation-factor 1 yes
symmetries automatic
symmetry-threshold 0.0001
van-der-waals D3



---------- Setting up symmetries ----------

Found 8 point-group symmetries of the bravais lattice
Found 1 space-group symmetries with basis
Applied RMS atom displacement 0 bohrs to make symmetries exact.

---------- Initializing the Grid ----------
R = 
[      15.3313     -7.66567            0  ]
[            0       17.141            0  ]
[            0            0      51.4229  ]
unit cell volume = 13513.6
G =
[   0.409826    0.18328         -0  ]
[          0    0.36656          0  ]
[          0         -0   0.122187  ]
Minimum fftbox size, Smin = [  64  76  208  ]
Chosen fftbox size, S = [  64  80  210  ]

---------- Exchange Correlation functional ----------
Initalized PBE GGA exchange.
Initalized PBE GGA correlation.

---------- Setting up pseudopotentials ----------
Width of ionic core gaussian charges (only for fluid interactions / plotting) set to 0.397384

Reading pseudopotential file '/projects/musgravc/apps/jdftx-1.6.0/build/pseudopotentials/GBRV_v1.5/ag_pbe_v1.4.uspp':
  Title: Ag.  Created by USPP 7.3.6 on 1-4-15
  Reference state energy: -147.606242.  19 valence electrons in orbitals:
    |400>  occupation: 2  eigenvalue: -3.637437
    |410>  occupation: 6  eigenvalue: -2.297267
    |420>  occupation: 10  eigenvalue: -0.417763
    |500>  occupation: 0.5  eigenvalue: -0.283525
    |510>  occupation: 0  eigenvalue: -0.122889
  lMax: 2  lLocal: 0  QijEcut: 5.5
  6 projectors sampled on a log grid with 717 points:
    l: 0  eig: -0.283528  rCut: 1.5
    l: 0  eig: -3.637440  rCut: 1.5
    l: 1  eig: -0.122892  rCut: 1.5
    l: 1  eig: -2.297267  rCut: 1.5
    l: 2  eig: -0.417762  rCut: 1.7
    l: 2  eig: -1.000000  rCut: 1.7
  Partial core density with radius 1.2
  Transforming core density to a uniform radial grid of dG=0.02 with 1382 points.
  Transforming local potential to a uniform radial grid of dG=0.02 with 1382 points.
  Transforming nonlocal projectors to a uniform radial grid of dG=0.02 with 432 points.
  Transforming density augmentations to a uniform radial grid of dG=0.02 with 1382 points.
  Transforming atomic orbitals to a uniform radial grid of dG=0.02 with 432 points.
  Core radius for overlap checks: 1.70 bohrs.

Reading pseudopotential file '/projects/musgravc/apps/jdftx-1.6.0/build/pseudopotentials/GBRV_v1.5/c_pbe_v1.2.uspp':
  Title: C.  Created by USPP 7.3.6 on 3-2-2014
  Reference state energy: -5.406344.  4 valence electrons in orbitals:
    |200>  occupation: 2  eigenvalue: -0.504890
    |210>  occupation: 2  eigenvalue: -0.194356
  lMax: 1  lLocal: 2  QijEcut: 5
  4 projectors sampled on a log grid with 503 points:
    l: 0  eig: -0.504890  rCut: 1.3
    l: 0  eig: 0.000000  rCut: 1.3
    l: 1  eig: -0.194357  rCut: 1.3
    l: 1  eig: 0.000000  rCut: 1.3
  Partial core density with radius 1.1
  Transforming core density to a uniform radial grid of dG=0.02 with 1382 points.
  Transforming local potential to a uniform radial grid of dG=0.02 with 1382 points.
  Transforming nonlocal projectors to a uniform radial grid of dG=0.02 with 432 points.
  Transforming density augmentations to a uniform radial grid of dG=0.02 with 1382 points.
  Transforming atomic orbitals to a uniform radial grid of dG=0.02 with 432 points.
  Core radius for overlap checks: 1.30 bohrs.

Reading pseudopotential file '/projects/musgravc/apps/jdftx-1.6.0/build/pseudopotentials/GBRV_v1.5/o_pbe_v1.2.uspp':
  Title: O.  Created by USPP 7.3.6 on 3-2-2014
  Reference state energy: -15.894388.  6 valence electrons in orbitals:
    |200>  occupation: 2  eigenvalue: -0.878823
    |210>  occupation: 4  eigenvalue: -0.332131
  lMax: 2  lLocal: 2  QijEcut: 6
  5 projectors sampled on a log grid with 511 points:
    l: 0  eig: -0.878823  rCut: 1.25
    l: 0  eig: 0.000000  rCut: 1.25
    l: 1  eig: -0.332132  rCut: 1.25
    l: 1  eig: 0.000000  rCut: 1.25
    l: 2  eig: 1.000000  rCut: 1.25
  Partial core density with radius 0.7
  Transforming core density to a uniform radial grid of dG=0.02 with 1382 points.
  Transforming local potential to a uniform radial grid of dG=0.02 with 1382 points.
  Transforming nonlocal projectors to a uniform radial grid of dG=0.02 with 432 points.
  Transforming density augmentations to a uniform radial grid of dG=0.02 with 1382 points.
  Transforming atomic orbitals to a uniform radial grid of dG=0.02 with 432 points.
  Core radius for overlap checks: 1.25 bohrs.

Initialized 3 species with 42 total atoms.

Folded 1 k-points by 4x3x1 to 12 k-points.

---------- Setting up k-points, bands, fillings ----------
Adding inversion symmetry to k-mesh for non-inversion-symmetric unit cell.
Reduced to 7 k-points under symmetry. 
Computing the number of bands and number of electrons
Calculating initial fillings.
nElectrons: 770.000000   nBands: 462   nStates: 14

----- Setting up reduced wavefunction bases (one per k-point) -----
average nbasis = 57732.917 , ideal nbasis = 57731.171

----- Initializing Supercell corresponding to k-point mesh -----
Lattice vector linear combinations in supercell:
[   4   0   0  ]
[   0   3   0  ]
[   0   0   1  ]
Supercell lattice vectors:
[  61.3253  -22.997  0  ]
[  0  51.4229  0  ]
[  0  0  51.4229  ]

Initializing DFT-D3 calculator:
	Parameters set for gga-PBE functional
	s6:  1.000  s_r6:  1.217
	s8:  0.722  s_r8:  1.000
	Per-atom parameters loaded for:
	Ag:  sqrtQ[a0]:  5.443  Rcov[a0]:  2.173  CN: [ 0.00 0.97 ]
	 C:  sqrtQ[a0]:  3.105  Rcov[a0]:  1.417  CN: [ 0.00 0.99 2.00 3.00 3.98 ]
	 O:  sqrtQ[a0]:  2.594  Rcov[a0]:  1.191  CN: [ 0.00 0.99 1.99 ]

Initializing DFT-D2 calculator for fluid / solvation:
	Ag:  C6:  427.91 Eh-a0^6  R0: 3.097 a0
	 C:  C6:   30.35 Eh-a0^6  R0: 2.744 a0
	 O:  C6:   12.14 Eh-a0^6  R0: 2.536 a0

---------- Setting up ewald sum ----------
Optimum gaussian width for ewald sums = 5.096738 bohr.
Real space sum over 495 unit cells with max indices [  5  4  2  ]
Reciprocal space sum over 6825 terms with max indices [  6  7  17  ]

Computing DFT-D3 correction:
# coordination-number Ag 8.241 8.150 8.149 8.150 8.779 8.779 8.779 8.779 8.867 8.866 8.867 8.866 6.732 6.732 6.732 6.732 4.862 4.849 4.862 6.107 8.877 8.865 8.865 8.865 8.780 8.780 8.780 8.780 8.150 8.150 8.150 8.150 4.847 4.847 4.847 4.847 7.299 6.731 7.301 6.731
# coordination-number C 3.256
# coordination-number O 1.300
# diagonal-C6 Ag 268.61 268.61 268.61 268.61 268.61 268.61 268.61 268.61 268.61 268.61 268.61 268.61 268.61 268.61 268.61 268.61 268.61 268.61 268.61 268.61 268.61 268.61 268.61 268.61 268.61 268.61 268.61 268.61 268.61 268.61 268.61 268.61 268.61 268.61 268.61 268.61 268.61 268.61 268.61 268.61
# diagonal-C6 C 24.66
# diagonal-C6 O 12.35
EvdW_6 =   -0.222256
EvdW_8 =   -0.317132

---------- Allocating electronic variables ----------
Initializing wave functions:  linear combination of atomic orbitals
Ag pseudo-atom occupations:   s ( 2 1 )  p ( 6 0 )  d ( 10 )
C pseudo-atom occupations:   s ( 2 )  p ( 2 )
O pseudo-atom occupations:   s ( 2 )  p ( 4 )
	FillingsUpdate:  mu: -0.002250652  nElectrons: 770.000000  magneticMoment: [ Abs: 0.00341  Tot: +0.00004 ]
LCAOMinimize: Iter:   0  F: -5924.3877261663055833  |grad|_K:  2.512e-03  alpha:  1.000e+00
	FillingsUpdate:  mu: +0.170753155  nElectrons: 770.000000  magneticMoment: [ Abs: 0.00304  Tot: +0.00006 ]
LCAOMinimize: Iter:   1  F: -5924.9922316732199761  |grad|_K:  2.038e-03  alpha:  9.516e-02  linmin:  5.140e-02  cgtest: -5.512e-01  t[s]:    189.28
	FillingsUpdate:  mu: +0.169700414  nElectrons: 770.000000  magneticMoment: [ Abs: 0.00272  Tot: +0.00006 ]
LCAOMinimize: Iter:   2  F: -5925.2590873638228004  |grad|_K:  1.202e-03  alpha:  6.171e-02  linmin: -1.535e-04  cgtest:  7.850e-01  t[s]:    260.20
LCAOMinimize: Encountered beta<0, resetting CG.
	FillingsUpdate:  mu: +0.111067453  nElectrons: 770.000000  magneticMoment: [ Abs: 0.00272  Tot: +0.00006 ]
LCAOMinimize: Iter:   3  F: -5925.4862519956514006  |grad|_K:  6.905e-04  alpha:  8.226e-02  linmin:  1.868e-02  cgtest: -1.067e-01  t[s]:    331.27
	FillingsUpdate:  mu: +0.082207571  nElectrons: 770.000000  magneticMoment: [ Abs: 0.00267  Tot: +0.00004 ]
LCAOMinimize: Iter:   4  F: -5925.5544243235272006  |grad|_K:  3.606e-04  alpha:  7.999e-02  linmin:  2.356e-03  cgtest:  3.378e-01  t[s]:    402.36
	FillingsUpdate:  mu: +0.103483071  nElectrons: 770.000000  magneticMoment: [ Abs: 0.00253  Tot: +0.00003 ]
LCAOMinimize: Iter:   5  F: -5925.5923109444602233  |grad|_K:  3.445e-04  alpha:  1.467e-01  linmin: -4.701e-03  cgtest:  3.059e-02  t[s]:    473.47
	FillingsUpdate:  mu: +0.121261365  nElectrons: 770.000000  magneticMoment: [ Abs: 0.00244  Tot: +0.00004 ]
LCAOMinimize: Iter:   6  F: -5925.6143174542239649  |grad|_K:  2.044e-04  alpha:  9.282e-02  linmin:  2.888e-04  cgtest: -1.596e-01  t[s]:    544.62
	FillingsUpdate:  mu: +0.108632435  nElectrons: 770.000000  magneticMoment: [ Abs: 0.00235  Tot: +0.00001 ]
LCAOMinimize: Iter:   7  F: -5925.6296933421308495  |grad|_K:  6.334e-05  alpha:  1.884e-01  linmin:  4.796e-04  cgtest:  1.892e-01  t[s]:    615.76
	FillingsUpdate:  mu: +0.109607321  nElectrons: 770.000000  magneticMoment: [ Abs: 0.00235  Tot: +0.00001 ]
LCAOMinimize: Iter:   8  F: -5925.6302377292904566  |grad|_K:  3.704e-05  alpha:  7.098e-02  linmin:  4.466e-03  cgtest: -2.589e-02  t[s]:    686.86
	FillingsUpdate:  mu: +0.110801602  nElectrons: 770.000000  magneticMoment: [ Abs: 0.00235  Tot: +0.00002 ]
LCAOMinimize: Iter:   9  F: -5925.6305312687863989  |grad|_K:  1.443e-05  alpha:  1.108e-01  linmin: -2.182e-03  cgtest:  2.174e-02  t[s]:    758.03
	FillingsUpdate:  mu: +0.109278569  nElectrons: 770.000000  magneticMoment: [ Abs: 0.00235  Tot: +0.00002 ]
LCAOMinimize: Iter:  10  F: -5925.6306073884952639  |grad|_K:  8.452e-06  alpha:  1.856e-01  linmin:  2.448e-05  cgtest: -1.619e-02  t[s]:    829.14
	FillingsUpdate:  mu: +0.109373937  nElectrons: 770.000000  magneticMoment: [ Abs: 0.00235  Tot: +0.00002 ]
LCAOMinimize: Iter:  11  F: -5925.6306283944177267  |grad|_K:  9.475e-06  alpha:  1.501e-01  linmin: -1.242e-05  cgtest:  1.486e-03  t[s]:    900.27
	FillingsUpdate:  mu: +0.109734887  nElectrons: 770.000000  magneticMoment: [ Abs: 0.00236  Tot: +0.00002 ]
LCAOMinimize: Iter:  12  F: -5925.6306467846879968  |grad|_K:  3.712e-06  alpha:  1.045e-01  linmin:  1.184e-05  cgtest: -2.753e-03  t[s]:    971.32
	FillingsUpdate:  mu: +0.109464586  nElectrons: 770.000000  magneticMoment: [ Abs: 0.00236  Tot: +0.00002 ]
LCAOMinimize: Iter:  13  F: -5925.6306537686232332  |grad|_K:  2.119e-06  alpha:  2.589e-01  linmin:  1.900e-04  cgtest:  1.127e-03  t[s]:   1042.32
	FillingsUpdate:  mu: +0.109536509  nElectrons: 770.000000  magneticMoment: [ Abs: 0.00236  Tot: +0.00002 ]
LCAOMinimize: Iter:  14  F: -5925.6306546326659372  |grad|_K:  1.672e-06  alpha:  9.841e-02  linmin:  1.038e-05  cgtest:  1.400e-03  t[s]:   1115.02
	FillingsUpdate:  mu: +0.109643261  nElectrons: 770.000000  magneticMoment: [ Abs: 0.00236  Tot: +0.00002 ]
LCAOMinimize: Iter:  15  F: -5925.6306552256837676  |grad|_K:  8.823e-07  alpha:  1.083e-01  linmin: -1.490e-05  cgtest: -8.913e-04  t[s]:   1186.17
LCAOMinimize: Converged (|Delta F|<1.000000e-06 for 2 iters).
----- createFluidSolver() ----- (Fluid-side solver setup)
   Initializing fluid molecule 'H2O'
     Initializing site 'O'
       Electron density: proportional to exp(-r/0.36935)*erfc((r-0.51523)/0.36823) with norm 6.826
       Charge density: gaussian nuclear width 0.478731 with net site charge 0.826
       Polarizability: cuspless exponential with width 0.32 and norm 3.73
       Hard sphere radius: 2.57003 bohrs
       Positions in reference frame:
         [ +0.000000 +0.000000 +0.000000 ]
     Initializing site 'H'
       Electron density: proportional to exp(-r/0.34641)*erfc((r-0)/0.390882) with norm 0.587
       Charge density: gaussian nuclear width 0.377945 with net site charge -0.413
       Polarizability: cuspless exponential with width 0.39 and norm 3.3
       Positions in reference frame:
         [ +0.000000 -1.441945 +1.122523 ]
         [ +0.000000 +1.441945 +1.122523 ]
     Net charge: 0   dipole magnitude: 0.927204
     Initializing spherical shell mfKernel with radius 2.61727 Bohr
     deltaS corrections:
       site 'O': -7.54299
       site 'H': -6.83917
   Initializing fluid molecule 'Na+'
     Initializing site 'Na'
       Electron density: proportional to exp(-r/0.19682)*erfc((r-0.71491)/0.41314) with norm 8.1383
       Charge density: gaussian nuclear width 0.365347 with net site charge -1
       Hard sphere radius: 1.86327 bohrs
       Positions in reference frame:
         [ +0.000000 +0.000000 +0.000000 ]
     Net charge: -1   dipole magnitude: 0
     Initializing gaussian mfKernel with width: 1.55004 Bohr
     deltaS corrections:
       site 'Na': -22.3555
   Initializing fluid molecule 'F-'
     Initializing site 'F'
       Electron density: proportional to exp(-r/0.38886)*erfc((r-0)/0.438782) with norm 8
       Charge density: gaussian nuclear width 0.374796 with net site charge 1
       Hard sphere radius: 2.39995 bohrs
       Positions in reference frame:
         [ +0.000000 +0.000000 +0.000000 ]
     Net charge: 1   dipole magnitude: 0
     Initializing gaussian mfKernel with width: 1.59012 Bohr
     deltaS corrections:
       site 'F': -9.04335

Correction to mu due to finite nuclear width = -0.0565352
   Cavity determined by nc: 0.00142 and sigma: 0.707107
   Nonlocal vdW cavity from gaussian model electron density with norm = 8 and sigma = 0.993594 bohr
   Charge asymmetry in cavity with sensitivity pCavity = 36.5 e-bohr/Eh
   Electrostatic cavity expanded by eta = 1.46 bohrs
   Weighted density cavitation model constrained by Nbulk: 0.0049383 bohr^-3, Pvap: 3.14029 kPa, Rvdw: 2.61727 bohr and sigmaBulk: 4.62e-05 Eh/bohr^2 at T: 298 K.
   Weighted density dispersion model using vdW pair potentials with single solvent site with sqrtC6eff: 0.77 SI.


---- Citations for features of the code used in this run ----

   Software package:
      R. Sundararaman, K. Letchworth-Weaver, K.A. Schwarz, D. Gunceler, Y. Ozhabes and T.A. Arias, 'JDFTx: software for joint density-functional theory', SoftwareX 6, 278 (2017)

   gga-PBE exchange-correlation functional:
      J.P. Perdew, K. Burke and M. Ernzerhof, Phys. Rev. Lett. 77, 3865 (1996)

   Pseudopotentials:
      KF Garrity, JW Bennett, KM Rabe and D Vanderbilt, Comput. Mater. Sci. 81, 446 (2014)

   DFT-D3 dispersion correction:
      S. Grimme, J. Antony, S. Ehrlich and H. Krieg, J. Chem. Phys. 132, 154104 (2010)

   DFT-D2 dispersion correction:
      S. Grimme, J. Comput. Chem. 27, 1787 (2006)

   Charge-asymmetric nonlocally-determined local-electric (CANDLE) solvation model:
      R. Sundararaman and W.A. Goddard III, J. Chem. Phys. 142, 064107 (2015)

   Total energy minimization with Auxiliary Hamiltonian:
      C. Freysoldt, S. Boeck, and J. Neugebauer, Phys. Rev. B 79, 241103(R) (2009)

   Linear-tetrahedron sampling for density of states:
      G. Lehmann and M. Taut, Phys. status solidi (b) 54, 469 (1972)

This list may not be complete. Please suggest additional citations or
report any other bugs at https://github.com/shankar1729/jdftx/issues

Initialization completed successfully at t[s]:   1211.04


Computing DFT-D3 correction:
# coordination-number Ag 8.241 8.150 8.149 8.150 8.779 8.779 8.779 8.779 8.867 8.866 8.867 8.866 6.732 6.732 6.732 6.732 4.862 4.849 4.862 6.107 8.877 8.865 8.865 8.865 8.780 8.780 8.780 8.780 8.150 8.150 8.150 8.150 4.847 4.847 4.847 4.847 7.299 6.731 7.301 6.731
# coordination-number C 3.256
# coordination-number O 1.300
# diagonal-C6 Ag 268.61 268.61 268.61 268.61 268.61 268.61 268.61 268.61 268.61 268.61 268.61 268.61 268.61 268.61 268.61 268.61 268.61 268.61 268.61 268.61 268.61 268.61 268.61 268.61 268.61 268.61 268.61 268.61 268.61 268.61 268.61 268.61 268.61 268.61 268.61 268.61 268.61 268.61 268.61 268.61
# diagonal-C6 C 24.66
# diagonal-C6 O 12.35
EvdW_6 =   -0.222256
EvdW_8 =   -0.317132
Fluid solver invoked on fresh (random / LCAO) wavefunctions
Running a vacuum solve first:

-------- Initial electronic minimization -----------
	FillingsUpdate:  mu: +0.109643262  nElectrons: 770.000000  magneticMoment: [ Abs: 0.00236  Tot: +0.00002 ]
ElecMinimize: Iter:   0  F: -5925.630655225676492  |grad|_K:  4.272e-05  alpha:  1.000e+00
	FillingsUpdate:  mu: +0.120169931  nElectrons: 770.000000  magneticMoment: [ Abs: 0.00177  Tot: +0.00002 ]
	SubspaceRotationAdjust: set factor to 1
ElecMinimize: Iter:   1  F: -5925.921644227295474  |grad|_K:  2.575e-05  alpha:  4.317e-01  linmin:  2.005e-04  t[s]:   1418.57
	FillingsUpdate:  mu: +0.114228479  nElectrons: 770.000000  magneticMoment: [ Abs: 0.00135  Tot: +0.00003 ]
	SubspaceRotationAdjust: set factor to 0.894
ElecMinimize: Iter:   2  F: -5925.988863941075579  |grad|_K:  1.815e-05  alpha:  2.777e-01  linmin: -1.441e-05  t[s]:   1554.38
	FillingsUpdate:  mu: +0.115158607  nElectrons: 770.000000  magneticMoment: [ Abs: 0.00123  Tot: +0.00004 ]
	SubspaceRotationAdjust: set factor to 0.554
ElecMinimize: Iter:   3  F: -5925.999703757846873  |grad|_K:  1.484e-05  alpha:  8.713e-02  linmin: -4.377e-05  t[s]:   1690.89
	FillingsUpdate:  mu: +0.117564382  nElectrons: 770.000000  magneticMoment: [ Abs: 0.00085  Tot: +0.00002 ]
	SubspaceRotationAdjust: set factor to 0.884
ElecMinimize: Iter:   4  F: -5926.019378097238587  |grad|_K:  7.044e-06  alpha:  2.372e-01  linmin:  1.309e-05  t[s]:   1826.44
	FillingsUpdate:  mu: +0.115808615  nElectrons: 770.000000  magneticMoment: [ Abs: 0.00066  Tot: +0.00001 ]
	SubspaceRotationAdjust: set factor to 0.545
ElecMinimize: Iter:   5  F: -5926.024298280084622  |grad|_K:  9.004e-06  alpha:  2.649e-01  linmin:  6.273e-06  t[s]:   1962.22
	FillingsUpdate:  mu: +0.116490763  nElectrons: 770.000000  magneticMoment: [ Abs: 0.00052  Tot: +0.00001 ]
	SubspaceRotationAdjust: set factor to 0.336
ElecMinimize: Iter:   6  F: -5926.027250447352344  |grad|_K:  3.805e-06  alpha:  9.682e-02  linmin: -2.589e-05  t[s]:   2097.81
ElecMinimize: 	Predicted alpha/alphaT>3.000000, increasing alphaT to 2.904591e-01.
	FillingsUpdate:  mu: +0.119298183  nElectrons: 770.000000  magneticMoment: [ Abs: 0.00035  Tot: +0.00001 ]
	SubspaceRotationAdjust: set factor to 0.41
ElecMinimize: Iter:   7  F: -5926.029585624383799  |grad|_K:  2.753e-06  alpha:  4.293e-01  linmin:  1.126e-05  t[s]:   2267.86
	FillingsUpdate:  mu: +0.118447269  nElectrons: 770.000000  magneticMoment: [ Abs: 0.00027  Tot: +0.00000 ]
	SubspaceRotationAdjust: set factor to 0.312
ElecMinimize: Iter:   8  F: -5926.030392084103369  |grad|_K:  2.150e-06  alpha:  2.841e-01  linmin: -2.512e-06  t[s]:   2403.68
	FillingsUpdate:  mu: +0.118145194  nElectrons: 770.000000  magneticMoment: [ Abs: 0.00022  Tot: +0.00000 ]
	SubspaceRotationAdjust: set factor to 0.216
ElecMinimize: Iter:   9  F: -5926.030810813516837  |grad|_K:  1.426e-06  alpha:  2.415e-01  linmin:  7.122e-06  t[s]:   2539.46
	FillingsUpdate:  mu: +0.118565191  nElectrons: 770.000000  magneticMoment: [ Abs: 0.00017  Tot: -0.00000 ]
	SubspaceRotationAdjust: set factor to 0.26
ElecMinimize: Iter:  10  F: -5926.031097113459509  |grad|_K:  1.006e-06  alpha:  3.761e-01  linmin:  1.173e-05  t[s]:   2675.40
	FillingsUpdate:  mu: +0.118906690  nElectrons: 770.000000  magneticMoment: [ Abs: 0.00013  Tot: -0.00000 ]
	SubspaceRotationAdjust: set factor to 0.244
ElecMinimize: Iter:  11  F: -5926.031239343746165  |grad|_K:  7.119e-07  alpha:  3.758e-01  linmin:  4.548e-06  t[s]:   2811.06
	FillingsUpdate:  mu: +0.118982210  nElectrons: 770.000000  magneticMoment: [ Abs: 0.00011  Tot: -0.00000 ]
	SubspaceRotationAdjust: set factor to 0.207
ElecMinimize: Iter:  12  F: -5926.031307563660448  |grad|_K:  5.355e-07  alpha:  3.593e-01  linmin:  4.445e-06  t[s]:   2947.03
	FillingsUpdate:  mu: +0.118916914  nElectrons: 770.000000  magneticMoment: [ Abs: 0.00009  Tot: -0.00000 ]
	SubspaceRotationAdjust: set factor to 0.238
ElecMinimize: Iter:  13  F: -5926.031347808835562  |grad|_K:  3.739e-07  alpha:  3.749e-01  linmin:  3.987e-06  t[s]:   3082.86
	FillingsUpdate:  mu: +0.119003583  nElectrons: 770.000000  magneticMoment: [ Abs: 0.00008  Tot: -0.00000 ]
	SubspaceRotationAdjust: set factor to 0.261
ElecMinimize: Iter:  14  F: -5926.031369921731311  |grad|_K:  2.878e-07  alpha:  4.228e-01  linmin:  2.996e-06  t[s]:   3218.67
	FillingsUpdate:  mu: +0.119109963  nElectrons: 770.000000  magneticMoment: [ Abs: 0.00007  Tot: -0.00000 ]
	SubspaceRotationAdjust: set factor to 0.239
ElecMinimize: Iter:  15  F: -5926.031382013407892  |grad|_K:  2.333e-07  alpha:  3.899e-01  linmin:  1.921e-06  t[s]:   3354.46
	FillingsUpdate:  mu: +0.119096709  nElectrons: 770.000000  magneticMoment: [ Abs: 0.00006  Tot: -0.00000 ]
	SubspaceRotationAdjust: set factor to 0.262
ElecMinimize: Iter:  16  F: -5926.031389804546052  |grad|_K:  1.709e-07  alpha:  3.822e-01  linmin:  1.729e-06  t[s]:   3490.31
	FillingsUpdate:  mu: +0.119087992  nElectrons: 770.000000  magneticMoment: [ Abs: 0.00005  Tot: -0.00000 ]
	SubspaceRotationAdjust: set factor to 0.301
ElecMinimize: Iter:  17  F: -5926.031394326004374  |grad|_K:  1.301e-07  alpha:  4.138e-01  linmin:  1.376e-06  t[s]:   3626.21
	FillingsUpdate:  mu: +0.119125600  nElectrons: 770.000000  magneticMoment: [ Abs: 0.00004  Tot: -0.00000 ]
	SubspaceRotationAdjust: set factor to 0.274
ElecMinimize: Iter:  18  F: -5926.031396751748616  |grad|_K:  1.016e-07  alpha:  3.826e-01  linmin:  7.891e-07  t[s]:   3761.89
	FillingsUpdate:  mu: +0.119135506  nElectrons: 770.000000  magneticMoment: [ Abs: 0.00003  Tot: -0.00000 ]
	SubspaceRotationAdjust: set factor to 0.234
ElecMinimize: Iter:  19  F: -5926.031398063080815  |grad|_K:  7.743e-08  alpha:  3.394e-01  linmin:  1.961e-07  t[s]:   3897.68
	FillingsUpdate:  mu: +0.119137790  nElectrons: 770.000000  magneticMoment: [ Abs: 0.00002  Tot: -0.00000 ]
	SubspaceRotationAdjust: set factor to 0.261
ElecMinimize: Iter:  20  F: -5926.031398882183566  |grad|_K:  5.156e-08  alpha:  3.647e-01  linmin:  4.387e-07  t[s]:   4033.52
	FillingsUpdate:  mu: +0.119133121  nElectrons: 770.000000  magneticMoment: [ Abs: 0.00002  Tot: -0.00000 ]
	SubspaceRotationAdjust: set factor to 0.266
ElecMinimize: Iter:  21  F: -5926.031399303634316  |grad|_K:  3.909e-08  alpha:  4.237e-01  linmin: -4.330e-08  t[s]:   4170.07
	FillingsUpdate:  mu: +0.119136202  nElectrons: 770.000000  magneticMoment: [ Abs: 0.00001  Tot: +0.00000 ]
	SubspaceRotationAdjust: set factor to 0.224
ElecMinimize: Iter:  22  F: -5926.031399498572682  |grad|_K:  2.897e-08  alpha:  3.393e-01  linmin:  1.840e-07  t[s]:   4305.93
	FillingsUpdate:  mu: +0.119144506  nElectrons: 770.000000  magneticMoment: [ Abs: 0.00001  Tot: +0.00000 ]
	SubspaceRotationAdjust: set factor to 0.228
ElecMinimize: Iter:  23  F: -5926.031399616550516  |grad|_K:  2.058e-08  alpha:  3.770e-01  linmin:  2.349e-07  t[s]:   4442.15
	FillingsUpdate:  mu: +0.119139893  nElectrons: 770.000000  magneticMoment: [ Abs: 0.00001  Tot: +0.00000 ]
	SubspaceRotationAdjust: set factor to 0.266
ElecMinimize: Iter:  24  F: -5926.031399682437041  |grad|_K:  1.562e-08  alpha:  4.146e-01  linmin: -5.364e-07  t[s]:   4577.85
	FillingsUpdate:  mu: +0.119136247  nElectrons: 770.000000  magneticMoment: [ Abs: 0.00000  Tot: +0.00000 ]
	SubspaceRotationAdjust: set factor to 0.268
ElecMinimize: Iter:  25  F: -5926.031399718092871  |grad|_K:  1.244e-08  alpha:  3.891e-01  linmin:  1.563e-06  t[s]:   4714.60
ElecMinimize: Converged (|Delta F|<1.000000e-07 for 2 iters).
Setting wave functions to eigenvectors of Hamiltonian
Converging empty states (this may take a while): |deigs|: 9.365e-03
Vacuum energy after initial minimize, F = -5926.031399718092871


-------- Electronic minimization -----------
	Linear fluid (dielectric constant: 78.4, screening length: 8.12261 Bohr) occupying 0.484963 of unit cell:	Completed after 25 iterations at t[s]:   5399.11
	FillingsUpdate:  mu: -0.149112499  nElectrons: 770.000000  magneticMoment: [ Abs: 0.00000  Tot: +0.00000 ]
ElecMinimize: Iter:   0  F: -5926.033267598318162  |grad|_K:  9.946e-07  alpha:  1.000e+00
	Linear fluid (dielectric constant: 78.4, screening length: 8.12261 Bohr) occupying 0.486136 of unit cell:	Completed after 14 iterations at t[s]:   5514.12
	Linear fluid (dielectric constant: 78.4, screening length: 8.12261 Bohr) occupying 0.486186 of unit cell:	Completed after 8 iterations at t[s]:   5553.38
	FillingsUpdate:  mu: -0.144603397  nElectrons: 770.000000  magneticMoment: [ Abs: 0.00000  Tot: +0.00000 ]
	SubspaceRotationAdjust: set factor to 0.298
ElecMinimize: Iter:   1  F: -5926.033654747287983  |grad|_K:  1.041e-06  alpha:  1.043e+00  linmin: -8.102e-07  t[s]:   5606.01
	Linear fluid (dielectric constant: 78.4, screening length: 8.12261 Bohr) occupying 0.487832 of unit cell:	Completed after 13 iterations at t[s]:   5661.14
	Linear fluid (dielectric constant: 78.4, screening length: 8.12261 Bohr) occupying 0.486995 of unit cell:	Completed after 12 iterations at t[s]:   5701.72
	FillingsUpdate:  mu: -0.145585155  nElectrons: 770.000000  magneticMoment: [ Abs: 0.00000  Tot: +0.00000 ]
	SubspaceRotationAdjust: set factor to 0.316
ElecMinimize: Iter:   2  F: -5926.033859895081150  |grad|_K:  6.651e-07  alpha:  5.017e-01  linmin:  2.711e-08  t[s]:   5754.29
	Linear fluid (dielectric constant: 78.4, screening length: 8.12261 Bohr) occupying 0.487427 of unit cell:	Completed after 10 iterations at t[s]:   5808.63
	Linear fluid (dielectric constant: 78.4, screening length: 8.12261 Bohr) occupying 0.487410 of unit cell:	Completed after 2 iterations at t[s]:   5846.48
	FillingsUpdate:  mu: -0.145123653  nElectrons: 770.000000  magneticMoment: [ Abs: 0.00000  Tot: +0.00000 ]
	SubspaceRotationAdjust: set factor to 0.37
ElecMinimize: Iter:   3  F: -5926.033939668952371  |grad|_K:  4.705e-07  alpha:  4.813e-01  linmin: -6.989e-08  t[s]:   5899.02
	Linear fluid (dielectric constant: 78.4, screening length: 8.12261 Bohr) occupying 0.487654 of unit cell:	Completed after 10 iterations at t[s]:   5953.50
	Linear fluid (dielectric constant: 78.4, screening length: 8.12261 Bohr) occupying 0.487619 of unit cell:	Completed after 2 iterations at t[s]:   5991.19
	FillingsUpdate:  mu: -0.144745675  nElectrons: 770.000000  magneticMoment: [ Abs: 0.00000  Tot: +0.00000 ]
	SubspaceRotationAdjust: set factor to 0.429
ElecMinimize: Iter:   4  F: -5926.033973810205680  |grad|_K:  3.305e-07  alpha:  4.109e-01  linmin:  6.556e-08  t[s]:   6043.68
	Linear fluid (dielectric constant: 78.4, screening length: 8.12261 Bohr) occupying 0.487730 of unit cell:	Completed after 5 iterations at t[s]:   6096.58
	Linear fluid (dielectric constant: 78.4, screening length: 8.12261 Bohr) occupying 0.487733 of unit cell:	Completed after 0 iterations at t[s]:   6133.49
	FillingsUpdate:  mu: -0.144870036  nElectrons: 770.000000  magneticMoment: [ Abs: 0.00000  Tot: +0.00000 ]
	SubspaceRotationAdjust: set factor to 0.5
ElecMinimize: Iter:   5  F: -5926.033990954123510  |grad|_K:  2.057e-07  alpha:  4.190e-01  linmin: -2.708e-07  t[s]:   6186.04
	Linear fluid (dielectric constant: 78.4, screening length: 8.12261 Bohr) occupying 0.487786 of unit cell:	Completed after 3 iterations at t[s]:   6238.26
	Linear fluid (dielectric constant: 78.4, screening length: 8.12261 Bohr) occupying 0.487791 of unit cell:	Completed after 1 iterations at t[s]:   6275.74
	FillingsUpdate:  mu: -0.144869182  nElectrons: 770.000000  magneticMoment: [ Abs: 0.00000  Tot: +0.00000 ]
	SubspaceRotationAdjust: set factor to 0.58
ElecMinimize: Iter:   6  F: -5926.033998306646936  |grad|_K:  1.352e-07  alpha:  4.613e-01  linmin: -1.549e-07  t[s]:   6328.38
	Linear fluid (dielectric constant: 78.4, screening length: 8.12261 Bohr) occupying 0.487820 of unit cell:	Completed after 6 iterations at t[s]:   6381.54
	Linear fluid (dielectric constant: 78.4, screening length: 8.12261 Bohr) occupying 0.487817 of unit cell:	Completed after 1 iterations at t[s]:   6418.97
	FillingsUpdate:  mu: -0.144724742  nElectrons: 770.000000  magneticMoment: [ Abs: 0.00000  Tot: +0.00000 ]
	SubspaceRotationAdjust: set factor to 0.586
ElecMinimize: Iter:   7  F: -5926.034001106939286  |grad|_K:  9.079e-08  alpha:  4.079e-01  linmin:  5.220e-07  t[s]:   6471.55
	Linear fluid (dielectric constant: 78.4, screening length: 8.12261 Bohr) occupying 0.487820 of unit cell:	Completed after 6 iterations at t[s]:   6524.87
	Linear fluid (dielectric constant: 78.4, screening length: 8.12261 Bohr) occupying 0.487820 of unit cell:	Completed after 2 iterations at t[s]:   6562.52
	FillingsUpdate:  mu: -0.144877840  nElectrons: 770.000000  magneticMoment: [ Abs: 0.00000  Tot: +0.00000 ]
	SubspaceRotationAdjust: set factor to 0.458
ElecMinimize: Iter:   8  F: -5926.034002109206085  |grad|_K:  6.037e-08  alpha:  3.305e-01  linmin: -4.625e-08  t[s]:   6615.05
	Linear fluid (dielectric constant: 78.4, screening length: 8.12261 Bohr) occupying 0.487822 of unit cell:	Completed after 2 iterations at t[s]:   6667.05
	Linear fluid (dielectric constant: 78.4, screening length: 8.12261 Bohr) occupying 0.487822 of unit cell:	Completed after 0 iterations at t[s]:   6704.03
	FillingsUpdate:  mu: -0.144826995  nElectrons: 770.000000  magneticMoment: [ Abs: 0.00000  Tot: +0.00000 ]
	SubspaceRotationAdjust: set factor to 0.441
ElecMinimize: Iter:   9  F: -5926.034002559742476  |grad|_K:  3.469e-08  alpha:  3.294e-01  linmin: -1.573e-06  t[s]:   6756.58
	Linear fluid (dielectric constant: 78.4, screening length: 8.12261 Bohr) occupying 0.487820 of unit cell:	Completed after 2 iterations at t[s]:   6808.61
	Linear fluid (dielectric constant: 78.4, screening length: 8.12261 Bohr) occupying 0.487820 of unit cell:	Completed after 0 iterations at t[s]:   6845.55
	FillingsUpdate:  mu: -0.144814183  nElectrons: 770.000000  magneticMoment: [ Abs: 0.00000  Tot: +0.00000 ]
	SubspaceRotationAdjust: set factor to 0.479
ElecMinimize: Iter:  10  F: -5926.034002731506007  |grad|_K:  2.131e-08  alpha:  3.708e-01  linmin: -1.365e-05  t[s]:   6898.01
	Linear fluid (dielectric constant: 78.4, screening length: 8.12261 Bohr) occupying 0.487816 of unit cell:	Completed after 0 iterations at t[s]:   6949.13
	Linear fluid (dielectric constant: 78.4, screening length: 8.12261 Bohr) occupying 0.487815 of unit cell:	Completed after 2 iterations at t[s]:   6986.97
	FillingsUpdate:  mu: -0.144829246  nElectrons: 770.000000  magneticMoment: [ Abs: 0.00000  Tot: +0.00000 ]
	SubspaceRotationAdjust: set factor to 0.487
ElecMinimize: Iter:  11  F: -5926.034002805828095  |grad|_K:  1.617e-08  alpha:  4.920e-01  linmin:  1.544e-04  t[s]:   7039.43
	Linear fluid (dielectric constant: 78.4, screening length: 8.12261 Bohr) occupying 0.487809 of unit cell:	Completed after 0 iterations at t[s]:   7090.80
	Linear fluid (dielectric constant: 78.4, screening length: 8.12261 Bohr) occupying 0.487811 of unit cell:	Completed after 0 iterations at t[s]:   7127.72
	FillingsUpdate:  mu: -0.144829277  nElectrons: 770.000000  magneticMoment: [ Abs: 0.00000  Tot: +0.00000 ]
	SubspaceRotationAdjust: set factor to 0.551
ElecMinimize: Iter:  12  F: -5926.034002836063337  |grad|_K:  1.100e-08  alpha:  3.657e-01  linmin: -2.701e-08  t[s]:   7180.37
ElecMinimize: Converged (|Delta F|<1.000000e-07 for 2 iters).
Setting wave functions to eigenvectors of Hamiltonian
Converging empty states (this may take a while): |deigs|: 1.579e-04
Single-point solvation energy estimate, DeltaF = -0.002603117970466

Computing DFT-D3 correction:
# coordination-number Ag 8.241 8.150 8.149 8.150 8.779 8.779 8.779 8.779 8.867 8.866 8.867 8.866 6.732 6.732 6.732 6.732 4.862 4.849 4.862 6.107 8.877 8.865 8.865 8.865 8.780 8.780 8.780 8.780 8.150 8.150 8.150 8.150 4.847 4.847 4.847 4.847 7.299 6.731 7.301 6.731
# coordination-number C 3.256
# coordination-number O 1.300
# diagonal-C6 Ag 268.61 268.61 268.61 268.61 268.61 268.61 268.61 268.61 268.61 268.61 268.61 268.61 268.61 268.61 268.61 268.61 268.61 268.61 268.61 268.61 268.61 268.61 268.61 268.61 268.61 268.61 268.61 268.61 268.61 268.61 268.61 268.61 268.61 268.61 268.61 268.61 268.61 268.61 268.61 268.61
# diagonal-C6 C 24.66
# diagonal-C6 O 12.35
EvdW_6 =   -0.222256
EvdW_8 =   -0.317132

# Ionic positions in cartesian coordinates:
ion Ag   3.835417000000000   1.682334000000000  13.043153000000000 0
ion Ag   0.002582000000000  10.252812000000002  13.043153000000000 0
ion Ag  11.501085999999999   1.682334000000000  13.043153000000000 0
ion Ag   7.668251000000000  10.252812000000002  13.043153000000000 0
ion Ag  -0.000736000000000   3.395349000000000   9.424063000000000 0
ion Ag  -3.833556000000000  11.965828000000002   9.424063000000000 0
ion Ag   7.664932000000000   3.395349000000000   9.424063000000000 0
ion Ag   3.832112000000000  11.965828000000002   9.424063000000000 0
ion Ag   3.832742000000000   5.197413000000001   5.972663000000000 0
ion Ag  -0.000094000000000  13.767891000000002   5.972663000000000 0
ion Ag  11.498410000000000   5.197413000000001   5.972663000000000 0
ion Ag   7.665575000000000  13.767891000000002   5.972663000000000 0
ion Ag  -0.002722000000000   6.958834000000002   2.379593000000000 0
ion Ag  -3.835557000000001  15.529313000000004   2.379593000000000 0
ion Ag   7.662945999999999   6.958834000000002   2.379593000000000 0
ion Ag   3.830110999999999  15.529313000000004   2.379593000000000 0
ion Ag   7.669207999999998  17.005235000000003  16.291689999999999 0
ion Ag  11.502043000000000   8.434757000000001  16.291689999999999 0
ion Ag   0.003540000000000  17.005235000000003  16.291689999999999 0
ion Ag   3.836374999999999   8.434757000000001  16.291689999999999 0
ion Ag   3.833408000000000   6.801035000000001  11.168018000000000 0
ion Ag   0.000580999999999  15.371531000000001  11.168018000000000 0
ion Ag  11.499076999999998   6.801035000000001  11.168018000000000 0
ion Ag   7.666249000000000  15.371531000000001  11.168018000000000 0
ion Ag   3.833056000000000   0.031488000000000   7.715897999999999 0
ion Ag   0.000220999999999   8.601967000000002   7.715897999999999 0
ion Ag  11.498725000000000   0.031488000000000   7.715897999999999 0
ion Ag   7.665889999999999   8.601967000000002   7.715897999999999 0
ion Ag  -0.003434000000000   1.745429000000000   4.098042000000000 0
ion Ag  -3.836277000000000  10.315891000000002   4.098042000000000 0
ion Ag   7.662233999999999   1.745429000000000   4.098042000000000 0
ion Ag   3.829406000000000  10.315891000000002   4.098042000000000 0
ion Ag   3.830595000000000   3.565593000000000   0.850020000000000 0
ion Ag  -0.002240000000000  12.136072000000002   0.850020000000000 0
ion Ag  11.496263999999998   3.565593000000000   0.850020000000000 0
ion Ag   7.663429000000000  12.136072000000002   0.850020000000000 0
ion Ag   0.002330000000000   5.040161000000001  14.761654000000000 0
ion Ag  -3.830505000000001  13.610640000000002  14.761654000000000 0
ion Ag   7.667997999999999   5.040161000000001  14.761654000000000 0
ion Ag   3.835162999999999  13.610640000000002  14.761654000000000 0
ion C   3.835163999999999   5.040161000000001  17.512674000000001 1  Linear 0 0 1
ion O   3.895262999999999   5.040161000000001  19.668012000000001 1  Linear 0 0 1

# Forces in Cartesian coordinates:
force Ag   0.000066486797653  -0.004158713442777  -0.003315846022170 0
force Ag  -0.000855053397804   0.001512504711968   0.000043190398238 0
force Ag  -0.000182523349810   0.001255781165750   0.000033959406741 0
force Ag   0.000587036952329   0.001766816469582  -0.000196595800376 0
force Ag   0.000399786410622   0.000316565440794   0.001041576969992 0
force Ag  -0.000090781105613  -0.000283209432774   0.000474000712036 0
force Ag  -0.000183898765165   0.000415390932467   0.001050809325549 0
force Ag   0.000028548973299   0.000810712473054   0.000742938876477 0
force Ag   0.000161406746553   0.000046542855445  -0.000904373552313 0
force Ag  -0.000198052175108   0.000140439653472   0.000084716343305 0
force Ag   0.000011548239727   0.000458157334660   0.000193163443922 0
force Ag   0.000265585895488   0.000101418181530   0.000228108511338 0
force Ag  -0.000109900469580  -0.000114388502643   0.000472274707150 0
force Ag   0.000021578249538  -0.000264075918135   0.000050990260372 0
force Ag   0.000025056732076   0.000074406017702   0.000430400610378 0
force Ag   0.000008403088973   0.000054879344013   0.000358773367283 0
force Ag  -0.001112805113624  -0.001853214973632   0.000152939257617 0
force Ag   0.000152270784590  -0.000056237047645  -0.000275950794337 0
force Ag   0.000849045536500  -0.001521969305067  -0.000361389214040 0
force Ag  -0.000455270946265   0.065831406502782  -0.029976949141930 0
force Ag  -0.000061505556516   0.001122120300018  -0.007854810478763 0
force Ag   0.000063782563679   0.000149213049136   0.000306828641765 0
force Ag   0.000221729620410  -0.000949013246039   0.001197648455933 0
force Ag   0.000165230165878   0.000268472685957   0.000060432089125 0
force Ag  -0.000158033278239  -0.000282788158699  -0.000454501069340 0
force Ag  -0.000783968088748   0.000108900674683  -0.000745383269051 0
force Ag  -0.000103555707323   0.000065295962409  -0.000457057921676 0
force Ag   0.000621481262595   0.000007208294029  -0.000134901268074 0
force Ag  -0.000150260456191  -0.000240135914112   0.000190914296006 0
force Ag   0.000228052518681  -0.000494411756587  -0.000399707374148 0
force Ag   0.000004871840352  -0.000416866091679   0.000535588715179 0
force Ag  -0.000215643846807  -0.000682876114607   0.000382659981191 0
force Ag  -0.000090124408639   0.000380057516357  -0.000631598150736 0
force Ag  -0.000283990965608   0.000251588041930  -0.000324767649569 0
force Ag   0.000213169005280   0.000232994241458  -0.000486053870846 0
force Ag   0.000539969024686   0.000205013960714  -0.000566641880817 0
force Ag  -0.005309215173511  -0.001515502814472  -0.000440262313313 0
force Ag   0.000240560162731  -0.000275809791294  -0.000298895639768 0
force Ag   0.005712723867338  -0.002604592808648  -0.001052603312862 0
force Ag   0.000132067590048  -0.002096627756937   0.000508331194457 0
force C  -0.002399005808575  -0.039995307898040  -0.054397045168786 1  Linear 0 0 1
force O   0.002012627292589  -0.017738599328419   0.094700018203767 1  Linear 0 0 1

# Energy components:
   A_diel =       -0.0034669583959106
   Eewald =    21939.4476954105193727
       EH =    27293.1679662749629642
     Eloc =   -56094.7133343890382093
      Enl =      161.0045707073065842
     EvdW =       -0.5393876595657163
      Exc =     -584.8160132123291532
 Exc_core =        8.4255550117462548
       KE =     1351.9932875148301719
-------------------------------------
     Etot =    -5926.0331272999628709
       TS =        0.0008755361006240
-------------------------------------
        F =    -5926.0340028360633369


Dumping 'jdft.fillings' ... done
Dumping 'jdft.wfns' ... done
Dumping 'jdft.fluidState' ... done
Dumping 'jdft.ionpos' ... done
Dumping 'jdft.lattice' ... done
Dumping 'jdft.eigenvals' ... done
Dumping 'jdft.eigStats' ... 
	eMin: -3.552857 at state 10 ( [ +0.250000 +0.333333 +0.000000 ] spin -1 )
	HOMO: -0.146240 at state 8 ( [ +0.000000 +0.333333 +0.000000 ] spin -1 )
	mu  : -0.144829
	LUMO: -0.144825 at state 7 ( [ +0.000000 +0.000000 +0.000000 ] spin -1 )
	eMax: +0.139039 at state 2 ( [ +0.250000 +0.000000 +0.000000 ] spin 1 )
	HOMO-LUMO gap: +0.001415
	Optical gap  : +0.003673 at state 6 ( [ +0.500000 +0.333333 +0.000000 ] spin 1 )
Dumping 'jdft.Ecomponents' ... done
IonicMinimize: Iter:   0  F: -5926.034002836063337  |grad|_K:  7.722e-02  t[s]:   7765.65

#--- Lowdin population analysis ---
# oxidation-state Ag -0.055 -0.079 -0.071 -0.077 -0.002 -0.004 -0.003 +0.005 -0.030 -0.032 -0.031 -0.031 -0.031 -0.031 -0.030 -0.029 +0.152 +0.154 +0.150 +0.087 -0.012 -0.031 -0.030 -0.030 +0.003 +0.002 +0.001 +0.004 -0.067 -0.069 -0.066 -0.061 +0.155 +0.155 +0.161 +0.152 -0.057 -0.029 -0.058 -0.044
# magnetic-moments Ag -0.000 -0.000 -0.000 -0.000 -0.000 -0.000 -0.000 -0.000 -0.000 -0.000 -0.000 -0.000 -0.000 -0.000 +0.000 -0.000 -0.000 -0.000 -0.000 -0.000 -0.000 -0.000 -0.000 -0.000 -0.000 -0.000 -0.000 -0.000 -0.000 -0.000 -0.000 -0.000 -0.000 -0.000 -0.000 -0.000 -0.000 -0.000 -0.000 -0.000
# oxidation-state C +0.335
# magnetic-moments C +0.000
# oxidation-state O -0.109
# magnetic-moments O +0.000


Computing DFT-D3 correction:
# coordination-number Ag 8.250 8.150 8.149 8.150 8.779 8.779 8.779 8.779 8.867 8.866 8.867 8.866 6.732 6.732 6.732 6.732 4.862 4.849 4.862 6.069 8.878 8.865 8.865 8.865 8.780 8.780 8.780 8.780 8.150 8.150 8.150 8.150 4.847 4.847 4.847 4.847 7.325 6.731 7.326 6.731
# coordination-number C 3.321
# coordination-number O 1.258
# diagonal-C6 Ag 268.61 268.61 268.61 268.61 268.61 268.61 268.61 268.61 268.61 268.61 268.61 268.61 268.61 268.61 268.61 268.61 268.61 268.61 268.61 268.61 268.61 268.61 268.61 268.61 268.61 268.61 268.61 268.61 268.61 268.61 268.61 268.61 268.61 268.61 268.61 268.61 268.61 268.61 268.61 268.61
# diagonal-C6 C 24.08
# diagonal-C6 O 12.47
EvdW_6 =   -0.222232
EvdW_8 =   -0.317042

-------- Electronic minimization -----------
	Linear fluid (dielectric constant: 78.4, screening length: 8.12261 Bohr) occupying 0.487745 of unit cell:	Completed after 21 iterations at t[s]:   7823.15
	FillingsUpdate:  mu: -0.141547684  nElectrons: 770.000000  magneticMoment: [ Abs: 0.00000  Tot: +0.00000 ]
ElecMinimize: Iter:   0  F: -5925.940358181292140  |grad|_K:  2.489e-05  alpha:  1.000e+00
	Linear fluid (dielectric constant: 78.4, screening length: 8.12261 Bohr) occupying 0.487221 of unit cell:	Completed after 22 iterations at t[s]:   7940.49
	Linear fluid (dielectric constant: 78.4, screening length: 8.12261 Bohr) occupying 0.487499 of unit cell:	Completed after 22 iterations at t[s]:   7984.73
	FillingsUpdate:  mu: -0.144674316  nElectrons: 770.000000  magneticMoment: [ Abs: 0.00000  Tot: +0.00000 ]
	SubspaceRotationAdjust: set factor to 0.518
ElecMinimize: Iter:   1  F: -5926.025335993931549  |grad|_K:  7.671e-06  alpha:  3.735e-01  linmin:  1.128e-03  t[s]:   8037.79
	Linear fluid (dielectric constant: 78.4, screening length: 8.12261 Bohr) occupying 0.487440 of unit cell:	Completed after 21 iterations at t[s]:   8095.66
	Linear fluid (dielectric constant: 78.4, screening length: 8.12261 Bohr) occupying 0.487436 of unit cell:	Completed after 15 iterations at t[s]:   8137.41
	FillingsUpdate:  mu: -0.148611958  nElectrons: 770.000000  magneticMoment: [ Abs: 0.00000  Tot: +0.00000 ]
	SubspaceRotationAdjust: set factor to 0.484
ElecMinimize: Iter:   2  F: -5926.032049911900685  |grad|_K:  3.738e-06  alpha:  3.097e-01  linmin:  3.813e-05  t[s]:   8190.16
	Linear fluid (dielectric constant: 78.4, screening length: 8.12261 Bohr) occupying 0.487558 of unit cell:	Completed after 19 iterations at t[s]:   8247.36
	Linear fluid (dielectric constant: 78.4, screening length: 8.12261 Bohr) occupying 0.487585 of unit cell:	Completed after 11 iterations at t[s]:   8288.98
	FillingsUpdate:  mu: -0.146095240  nElectrons: 770.000000  magneticMoment: [ Abs: 0.00000  Tot: +0.00000 ]
	SubspaceRotationAdjust: set factor to 0.418
ElecMinimize: Iter:   3  F: -5926.034004992437985  |grad|_K:  2.479e-06  alpha:  3.736e-01  linmin: -5.129e-07  t[s]:   8341.38
	Linear fluid (dielectric constant: 78.4, screening length: 8.12261 Bohr) occupying 0.487677 of unit cell:	Completed after 17 iterations at t[s]:   8397.97
	Linear fluid (dielectric constant: 78.4, screening length: 8.12261 Bohr) occupying 0.487674 of unit cell:	Completed after 4 iterations at t[s]:   8436.91
	FillingsUpdate:  mu: -0.147523918  nElectrons: 770.000000  magneticMoment: [ Abs: 0.00000  Tot: +0.00000 ]
	SubspaceRotationAdjust: set factor to 0.423
ElecMinimize: Iter:   4  F: -5926.034844999564484  |grad|_K:  1.493e-06  alpha:  3.645e-01  linmin:  6.549e-05  t[s]:   8489.62
	Linear fluid (dielectric constant: 78.4, screening length: 8.12261 Bohr) occupying 0.487709 of unit cell:	Completed after 9 iterations at t[s]:   8544.07
	Linear fluid (dielectric constant: 78.4, screening length: 8.12261 Bohr) occupying 0.487712 of unit cell:	Completed after 3 iterations at t[s]:   8583.13
	FillingsUpdate:  mu: -0.147417590  nElectrons: 770.000000  magneticMoment: [ Abs: 0.00000  Tot: -0.00000 ]
	SubspaceRotationAdjust: set factor to 0.52
ElecMinimize: Iter:   5  F: -5926.035178406510568  |grad|_K:  9.247e-07  alpha:  4.012e-01  linmin:  5.493e-06  t[s]:   8635.82
	Linear fluid (dielectric constant: 78.4, screening length: 8.12261 Bohr) occupying 0.487746 of unit cell:	Completed after 11 iterations at t[s]:   8690.82
	Linear fluid (dielectric constant: 78.4, screening length: 8.12261 Bohr) occupying 0.487749 of unit cell:	Completed after 3 iterations at t[s]:   8729.09
	FillingsUpdate:  mu: -0.147087187  nElectrons: 770.000000  magneticMoment: [ Abs: 0.00000  Tot: -0.00000 ]
	SubspaceRotationAdjust: set factor to 0.561
ElecMinimize: Iter:   6  F: -5926.035319448163136  |grad|_K:  5.762e-07  alpha:  4.403e-01  linmin: -5.483e-06  t[s]:   8781.64
	Linear fluid (dielectric constant: 78.4, screening length: 8.12261 Bohr) occupying 0.487798 of unit cell:	Completed after 10 iterations at t[s]:   8836.30
	Linear fluid (dielectric constant: 78.4, screening length: 8.12261 Bohr) occupying 0.487791 of unit cell:	Completed after 6 iterations at t[s]:   8875.75
	FillingsUpdate:  mu: -0.147117694  nElectrons: 770.000000  magneticMoment: [ Abs: 0.00000  Tot: -0.00000 ]
	SubspaceRotationAdjust: set factor to 0.553
ElecMinimize: Iter:   7  F: -5926.035366616199099  |grad|_K:  3.637e-07  alpha:  3.784e-01  linmin:  1.612e-05  t[s]:   8928.31
	Linear fluid (dielectric constant: 78.4, screening length: 8.12261 Bohr) occupying 0.487815 of unit cell:	Completed after 10 iterations at t[s]:   8982.99
	Linear fluid (dielectric constant: 78.4, screening length: 8.12261 Bohr) occupying 0.487817 of unit cell:	Completed after 2 iterations at t[s]:   9021.29
	FillingsUpdate:  mu: -0.146892104  nElectrons: 770.000000  magneticMoment: [ Abs: 0.00000  Tot: -0.00000 ]
	SubspaceRotationAdjust: set factor to 0.491
ElecMinimize: Iter:   8  F: -5926.035386474723055  |grad|_K:  2.245e-07  alpha:  4.014e-01  linmin: -1.717e-05  t[s]:   9073.88
	Linear fluid (dielectric constant: 78.4, screening length: 8.12261 Bohr) occupying 0.487840 of unit cell:	Completed after 8 iterations at t[s]:   9128.03
	Linear fluid (dielectric constant: 78.4, screening length: 8.12261 Bohr) occupying 0.487835 of unit cell:	Completed after 2 iterations at t[s]:   9166.42
	FillingsUpdate:  mu: -0.147044082  nElectrons: 770.000000  magneticMoment: [ Abs: 0.00000  Tot: -0.00000 ]
	SubspaceRotationAdjust: set factor to 0.438
ElecMinimize: Iter:   9  F: -5926.035392573079662  |grad|_K:  1.368e-07  alpha:  3.212e-01  linmin:  6.776e-05  t[s]:   9219.48
	Linear fluid (dielectric constant: 78.4, screening length: 8.12261 Bohr) occupying 0.487850 of unit cell:	Completed after 6 iterations at t[s]:   9272.94
	Linear fluid (dielectric constant: 78.4, screening length: 8.12261 Bohr) occupying 0.487852 of unit cell:	Completed after 1 iterations at t[s]:   9311.03
	FillingsUpdate:  mu: -0.146948817  nElectrons: 770.000000  magneticMoment: [ Abs: 0.00000  Tot: -0.00000 ]
	SubspaceRotationAdjust: set factor to 0.439
ElecMinimize: Iter:  10  F: -5926.035395098713707  |grad|_K:  7.654e-08  alpha:  3.620e-01  linmin: -2.035e-04  t[s]:   9363.53
	Linear fluid (dielectric constant: 78.4, screening length: 8.12261 Bohr) occupying 0.487859 of unit cell:	Completed after 2 iterations at t[s]:   9416.05
	Linear fluid (dielectric constant: 78.4, screening length: 8.12261 Bohr) occupying 0.487859 of unit cell:	Completed after 0 iterations at t[s]:   9453.21
	FillingsUpdate:  mu: -0.146947043  nElectrons: 770.000000  magneticMoment: [ Abs: 0.00000  Tot: +0.00000 ]
	SubspaceRotationAdjust: set factor to 0.454
ElecMinimize: Iter:  11  F: -5926.035395969938691  |grad|_K:  4.408e-08  alpha:  3.899e-01  linmin: -7.016e-05  t[s]:   9505.92
	Linear fluid (dielectric constant: 78.4, screening length: 8.12261 Bohr) occupying 0.487864 of unit cell:	Completed after 2 iterations at t[s]:   9558.35
	Linear fluid (dielectric constant: 78.4, screening length: 8.12261 Bohr) occupying 0.487864 of unit cell:	Completed after 0 iterations at t[s]:   9595.74
	FillingsUpdate:  mu: -0.146963708  nElectrons: 770.000000  magneticMoment: [ Abs: 0.00000  Tot: +0.00000 ]
	SubspaceRotationAdjust: set factor to 0.454
ElecMinimize: Iter:  12  F: -5926.035396276909523  |grad|_K:  2.867e-08  alpha:  4.176e-01  linmin: -8.562e-05  t[s]:   9648.19
	Linear fluid (dielectric constant: 78.4, screening length: 8.12261 Bohr) occupying 0.487867 of unit cell:	Completed after 2 iterations at t[s]:   9700.69
	Linear fluid (dielectric constant: 78.4, screening length: 8.12261 Bohr) occupying 0.487867 of unit cell:	Completed after 0 iterations at t[s]:   9737.95
	FillingsUpdate:  mu: -0.146962999  nElectrons: 770.000000  magneticMoment: [ Abs: 0.00000  Tot: +0.00000 ]
	SubspaceRotationAdjust: set factor to 0.467
ElecMinimize: Iter:  13  F: -5926.035396390162532  |grad|_K:  2.097e-08  alpha:  3.614e-01  linmin:  6.189e-05  t[s]:   9790.56
	Linear fluid (dielectric constant: 78.4, screening length: 8.12261 Bohr) occupying 0.487869 of unit cell:	Completed after 1 iterations at t[s]:   9842.75
	Linear fluid (dielectric constant: 78.4, screening length: 8.12261 Bohr) occupying 0.487869 of unit cell:	Completed after 0 iterations at t[s]:   9880.22
	FillingsUpdate:  mu: -0.146951641  nElectrons: 770.000000  magneticMoment: [ Abs: 0.00000  Tot: +0.00000 ]
	SubspaceRotationAdjust: set factor to 0.482
ElecMinimize: Iter:  14  F: -5926.035396446090999  |grad|_K:  1.276e-08  alpha:  3.454e-01  linmin: -1.360e-04  t[s]:   9932.84
	Linear fluid (dielectric constant: 78.4, screening length: 8.12261 Bohr) occupying 0.487870 of unit cell:	Completed after 0 iterations at t[s]:   9984.59
	Linear fluid (dielectric constant: 78.4, screening length: 8.12261 Bohr) occupying 0.487870 of unit cell:	Completed after 0 iterations at t[s]:  10022.17
	FillingsUpdate:  mu: -0.146952024  nElectrons: 770.000000  magneticMoment: [ Abs: 0.00000  Tot: +0.00000 ]
	SubspaceRotationAdjust: set factor to 0.523
ElecMinimize: Iter:  15  F: -5926.035396473225774  |grad|_K:  8.575e-09  alpha:  4.204e-01  linmin: -3.029e-04  t[s]:  10074.76
ElecMinimize: Converged (|Delta F|<1.000000e-07 for 2 iters).
Setting wave functions to eigenvectors of Hamiltonian
Converging empty states (this may take a while): |deigs|: 4.702e-06

Computing DFT-D3 correction:
# coordination-number Ag 8.250 8.150 8.149 8.150 8.779 8.779 8.779 8.779 8.867 8.866 8.867 8.866 6.732 6.732 6.732 6.732 4.862 4.849 4.862 6.069 8.878 8.865 8.865 8.865 8.780 8.780 8.780 8.780 8.150 8.150 8.150 8.150 4.847 4.847 4.847 4.847 7.325 6.731 7.326 6.731
# coordination-number C 3.321
# coordination-number O 1.258
# diagonal-C6 Ag 268.61 268.61 268.61 268.61 268.61 268.61 268.61 268.61 268.61 268.61 268.61 268.61 268.61 268.61 268.61 268.61 268.61 268.61 268.61 268.61 268.61 268.61 268.61 268.61 268.61 268.61 268.61 268.61 268.61 268.61 268.61 268.61 268.61 268.61 268.61 268.61 268.61 268.61 268.61 268.61
# diagonal-C6 C 24.08
# diagonal-C6 O 12.47
EvdW_6 =   -0.222232
EvdW_8 =   -0.317042

# Ionic positions in cartesian coordinates:
ion Ag   3.835417000000000   1.682334000000000  13.043153000000000 0
ion Ag   0.002582000000000  10.252812000000002  13.043153000000000 0
ion Ag  11.501085999999999   1.682334000000000  13.043153000000000 0
ion Ag   7.668251000000000  10.252812000000002  13.043153000000000 0
ion Ag  -0.000736000000000   3.395349000000000   9.424063000000000 0
ion Ag  -3.833556000000000  11.965828000000002   9.424063000000000 0
ion Ag   7.664932000000000   3.395349000000000   9.424063000000000 0
ion Ag   3.832112000000000  11.965828000000002   9.424063000000000 0
ion Ag   3.832742000000000   5.197413000000001   5.972663000000000 0
ion Ag  -0.000094000000000  13.767891000000002   5.972663000000000 0
ion Ag  11.498410000000000   5.197413000000001   5.972663000000000 0
ion Ag   7.665575000000000  13.767891000000002   5.972663000000000 0
ion Ag  -0.002722000000000   6.958834000000002   2.379593000000000 0
ion Ag  -3.835557000000001  15.529313000000004   2.379593000000000 0
ion Ag   7.662945999999999   6.958834000000002   2.379593000000000 0
ion Ag   3.830110999999999  15.529313000000004   2.379593000000000 0
ion Ag   7.669207999999998  17.005235000000003  16.291689999999999 0
ion Ag  11.502043000000000   8.434757000000001  16.291689999999999 0
ion Ag   0.003540000000000  17.005235000000003  16.291689999999999 0
ion Ag   3.836374999999999   8.434757000000001  16.291689999999999 0
ion Ag   3.833408000000000   6.801035000000001  11.168018000000000 0
ion Ag   0.000580999999999  15.371531000000001  11.168018000000000 0
ion Ag  11.499076999999998   6.801035000000001  11.168018000000000 0
ion Ag   7.666249000000000  15.371531000000001  11.168018000000000 0
ion Ag   3.833056000000000   0.031488000000000   7.715897999999999 0
ion Ag   0.000220999999999   8.601967000000002   7.715897999999999 0
ion Ag  11.498725000000000   0.031488000000000   7.715897999999999 0
ion Ag   7.665889999999999   8.601967000000002   7.715897999999999 0
ion Ag  -0.003434000000000   1.745429000000000   4.098042000000000 0
ion Ag  -3.836277000000000  10.315891000000002   4.098042000000000 0
ion Ag   7.662233999999999   1.745429000000000   4.098042000000000 0
ion Ag   3.829406000000000  10.315891000000002   4.098042000000000 0
ion Ag   3.830595000000000   3.565593000000000   0.850020000000000 0
ion Ag  -0.002240000000000  12.136072000000002   0.850020000000000 0
ion Ag  11.496263999999998   3.565593000000000   0.850020000000000 0
ion Ag   7.663429000000000  12.136072000000002   0.850020000000000 0
ion Ag   0.002330000000000   5.040161000000001  14.761654000000000 0
ion Ag  -3.830505000000001  13.610640000000002  14.761654000000000 0
ion Ag   7.667997999999999   5.040161000000001  14.761654000000000 0
ion Ag   3.835162999999999  13.610640000000002  14.761654000000000 0
ion C   3.835163999999999   5.040161000000001  17.458276954831213 1  Linear 0 0 1
ion O   3.895262999999999   5.040161000000001  19.762712018203768 1  Linear 0 0 1

# Forces in Cartesian coordinates:
force Ag   0.000052017010752  -0.003979381113862  -0.003034121631086 0
force Ag  -0.000877001599419   0.001563441702895  -0.000078582286867 0
force Ag  -0.000161192966103   0.001419141743355  -0.000200873447597 0
force Ag   0.000600377244476   0.001790343366378  -0.000323293842838 0
force Ag   0.000349568502020   0.000231429190324   0.001032031131556 0
force Ag  -0.000101628007404  -0.000346875626927   0.000422446920629 0
force Ag  -0.000128915921968   0.000347297872134   0.001020681906573 0
force Ag   0.000014205450076   0.000744424781582   0.000726429699054 0
force Ag   0.000146394934239   0.000049578759419  -0.000811732474344 0
force Ag  -0.000115200314870   0.000117271008058   0.000160454220440 0
force Ag   0.000029728712229   0.000501351219778   0.000160499378393 0
force Ag   0.000215413168137   0.000065948839920   0.000271127639472 0
force Ag  -0.000144961524195  -0.000162642726702   0.000657287740233 0
force Ag   0.000014932892277  -0.000206334213301   0.000308622333202 0
force Ag   0.000066372000731   0.000035221438541   0.000593640258623 0
force Ag   0.000030527131216   0.000097349264461   0.000559377575956 0
force Ag  -0.001061182640548  -0.001712605631354   0.000220412246530 0
force Ag   0.000143382069959   0.000017068021376  -0.000302569618375 0
force Ag   0.000788837687201  -0.001374492743676  -0.000310653705482 0
force Ag  -0.000418613994756   0.065531874317825  -0.026757082857024 0
force Ag  -0.000074022927797   0.001312704923612  -0.008149606511065 0
force Ag   0.000000698179547   0.000174578082757   0.000290215310489 0
force Ag   0.000220899115535  -0.001008338473347   0.001115702131761 0
force Ag   0.000226427286498   0.000286442322672   0.000016230748165 0
force Ag  -0.000162803221563  -0.000244665524565  -0.000340405349936 0
force Ag  -0.000758369071305   0.000040218164388  -0.000737233185114 0
force Ag  -0.000106437315102   0.000079229543953  -0.000555525011976 0
force Ag   0.000614769750661  -0.000038879662676  -0.000082310237912 0
force Ag  -0.000137099807616  -0.000193501105344   0.000305011984726 0
force Ag   0.000227704008464  -0.000526166828873  -0.000251030296222 0
force Ag  -0.000011806588770  -0.000366396013441   0.000633458102128 0
force Ag  -0.000217409055812  -0.000630230628067   0.000561219870883 0
force Ag  -0.000089718968371   0.000367274052026  -0.000602769963805 0
force Ag  -0.000277974585010   0.000192416522055  -0.000274768679974 0
force Ag   0.000206095199628   0.000264916584776  -0.000431746066725 0
force Ag   0.000522794417594   0.000150874330803  -0.000520026896919 0
force Ag  -0.004502775240411  -0.001561611335455   0.000500507989367 0
force Ag   0.000259941011702  -0.000393378245427  -0.000472354904425 0
force Ag   0.004795974690849  -0.002714073171982  -0.000006317363164 0
force Ag   0.000109534057903  -0.001839634412531   0.000340735722650 0
force C   0.001154923123159  -0.044028072435293   0.069808391164177 1  Linear 0 0 1
force O  -0.001447428203376  -0.013960891297915  -0.035042234117840 1  Linear 0 0 1

# Energy components:
   A_diel =       -0.0050505135007916
   Eewald =    21935.3090736033773283
       EH =    27287.6189038547599921
     Eloc =   -56084.8764961017222959
      Enl =      160.9606844273905040
     EvdW =       -0.5392742446390172
      Exc =     -584.7629112345232443
 Exc_core =        8.4255511762160822
       KE =     1351.8349966010071057
-------------------------------------
     Etot =    -5926.0345224316342865
       TS =        0.0008740415912260
-------------------------------------
        F =    -5926.0353964732257737


Dumping 'jdft.fillings' ... done
Dumping 'jdft.wfns' ... done
Dumping 'jdft.fluidState' ... done
Dumping 'jdft.ionpos' ... done
Dumping 'jdft.lattice' ... done
Dumping 'jdft.eigenvals' ... done
Dumping 'jdft.eigStats' ... 
	eMin: -3.555391 at state 3 ( [ +0.250000 +0.333333 +0.000000 ] spin 1 )
	HOMO: -0.148492 at state 6 ( [ +0.500000 +0.333333 +0.000000 ] spin 1 )
	mu  : -0.146952
	LUMO: -0.146748 at state 0 ( [ +0.000000 +0.000000 +0.000000 ] spin 1 )
	eMax: +0.137973 at state 9 ( [ +0.250000 +0.000000 +0.000000 ] spin -1 )
	HOMO-LUMO gap: +0.001744
	Optical gap  : +0.003811 at state 13 ( [ +0.500000 +0.333333 +0.000000 ] spin -1 )
Dumping 'jdft.Ecomponents' ... done
IonicMinimize: Iter:   1  F: -5926.035396473225774  |grad|_K:  5.523e-02  alpha:  1.000e+00  linmin:  5.623e-01  t[s]:  10550.18

#--- Lowdin population analysis ---
# oxidation-state Ag -0.053 -0.078 -0.069 -0.076 -0.002 -0.003 -0.003 +0.005 -0.029 -0.032 -0.031 -0.031 -0.029 -0.028 -0.028 -0.026 +0.160 +0.162 +0.158 +0.102 -0.010 -0.030 -0.030 -0.030 +0.004 +0.002 +0.001 +0.004 -0.067 -0.068 -0.066 -0.061 +0.160 +0.161 +0.165 +0.158 -0.053 -0.025 -0.054 -0.041
# magnetic-moments Ag +0.000 +0.000 +0.000 +0.000 +0.000 +0.000 +0.000 +0.000 +0.000 +0.000 +0.000 +0.000 +0.000 +0.000 +0.000 +0.000 +0.000 +0.000 +0.000 +0.000 +0.000 +0.000 +0.000 +0.000 +0.000 +0.000 +0.000 +0.000 +0.000 +0.000 +0.000 +0.000 +0.000 +0.000 +0.000 +0.000 +0.000 +0.000 +0.000 +0.000
# oxidation-state C +0.298
# magnetic-moments C +0.000
# oxidation-state O -0.182
# magnetic-moments O -0.000


Computing DFT-D3 correction:
# coordination-number Ag 8.245 8.150 8.149 8.150 8.779 8.779 8.779 8.779 8.867 8.866 8.867 8.866 6.732 6.732 6.732 6.732 4.862 4.849 4.862 6.078 8.878 8.865 8.865 8.865 8.780 8.780 8.780 8.780 8.150 8.150 8.150 8.150 4.847 4.847 4.847 4.847 7.309 6.731 7.311 6.731
# coordination-number C 3.282
# coordination-number O 1.268
# diagonal-C6 Ag 268.61 268.61 268.61 268.61 268.61 268.61 268.61 268.61 268.61 268.61 268.61 268.61 268.61 268.61 268.61 268.61 268.61 268.61 268.61 268.61 268.61 268.61 268.61 268.61 268.61 268.61 268.61 268.61 268.61 268.61 268.61 268.61 268.61 268.61 268.61 268.61 268.61 268.61 268.61 268.61
# diagonal-C6 C 24.45
# diagonal-C6 O 12.44
EvdW_6 =   -0.222247
EvdW_8 =   -0.317077

-------- Electronic minimization -----------
[...]
force Ag  -0.000027134267328   0.000009706627134   0.000126491928923 0
force Ag   0.000493743328740   0.000083836956089  -0.000383868646544 0
force Ag  -0.000212698147273  -0.000449733252723   0.000163389190734 0
force Ag   0.000155856370005  -0.000298971279996  -0.000149129071848 0
force Ag   0.000060720835888  -0.000580015980772   0.000524028009288 0
force Ag  -0.000213328013164  -0.000451934155085   0.000344589921873 0
force Ag  -0.000178892408186   0.000748472690293  -0.000184238401885 0
force Ag  -0.000467327761439   0.000448813101767  -0.000404927622308 0
force Ag   0.000210629881375   0.000359921361542  -0.000750450700294 0
force Ag   0.000577142257669   0.000382590213121  -0.000427012067455 0
force Ag  -0.003538573133065  -0.000180529661401  -0.000930867990682 0
force Ag   0.000010916326960   0.000304783528444  -0.000267281364632 0
force Ag   0.003570239777000  -0.000790641041645  -0.000926663723538 0
force Ag   0.000085443765909  -0.001787139422198   0.000188222490374 0
force C  -0.000111046177942   0.006633948795494   0.000159718886904 1  Linear 0 0 1
force O   0.000027440018704  -0.002556662216984  -0.000158861646516 1  Linear 0 0 1

# Energy components:
   A_diel =       -0.0019698645023656
   Eewald =    21773.7961673983954825
       EH =    27127.9154688683192944
     Eloc =   -55763.6490674842352746
      Enl =      161.0060345586938979
     EvdW =       -0.5380208650660405
      Exc =     -584.6911051412387224
 Exc_core =        8.4255437760855330
       KE =     1351.6757790043416207
-------------------------------------
     Etot =    -5926.0611697492095118
       TS =        0.0009398033920517
-------------------------------------
        F =    -5926.0621095526012141


Dumping 'jdft.fillings' ... done
Dumping 'jdft.wfns' ... done
Dumping 'jdft.fluidState' ... done
Dumping 'jdft.ionpos' ... done
Dumping 'jdft.lattice' ... done
Dumping 'jdft.eigenvals' ... done
Dumping 'jdft.eigStats' ... 
	eMin: -3.526548 at state 0 ( [ +0.000000 +0.000000 +0.000000 ] spin 1 )
	HOMO: -0.147995 at state 5 ( [ +0.500000 +0.000000 +0.000000 ] spin 1 )
	mu  : -0.145769
	LUMO: -0.145362 at state 13 ( [ +0.500000 +0.333333 +0.000000 ] spin -1 )
	eMax: +0.136362 at state 3 ( [ +0.250000 +0.333333 +0.000000 ] spin 1 )
	HOMO-LUMO gap: +0.002634
	Optical gap  : +0.003245 at state 12 ( [ +0.500000 +0.000000 +0.000000 ] spin -1 )
Dumping 'jdft.Ecomponents' ... done
IonicMinimize: Iter:  21  F: -5926.062109552601214  |grad|_K:  1.593e-04  alpha:  1.000e+00  linmin: -8.063e-05  t[s]:  67613.51

#--- Lowdin population analysis ---
# oxidation-state Ag -0.056 -0.068 -0.069 -0.066 +0.003 -0.002 +0.002 +0.006 -0.031 -0.030 -0.030 -0.029 -0.032 -0.029 -0.030 -0.032 +0.139 +0.152 +0.138 -0.001 -0.028 -0.030 -0.027 -0.029 +0.003 +0.003 +0.002 +0.004 -0.065 -0.071 -0.063 -0.059 +0.158 +0.153 +0.151 +0.154 -0.041 -0.031 -0.043 -0.030
# magnetic-moments Ag +0.000 +0.000 +0.000 -0.000 -0.000 -0.000 -0.000 -0.000 -0.000 +0.000 -0.000 +0.000 -0.000 +0.000 -0.000 +0.000 +0.000 -0.000 +0.000 +0.000 +0.000 +0.000 +0.000 -0.000 +0.000 -0.000 +0.000 +0.000 -0.000 -0.000 +0.000 +0.000 +0.000 +0.000 +0.000 -0.000 -0.000 +0.000 -0.000 -0.000
# oxidation-state C +0.379
# magnetic-moments C +0.000
# oxidation-state O -0.096
# magnetic-moments O -0.000


Computing DFT-D3 correction:
# coordination-number Ag 8.155 8.149 8.148 8.149 8.779 8.779 8.779 8.779 8.867 8.866 8.866 8.866 6.732 6.732 6.732 6.732 4.853 4.848 4.853 5.644 8.866 8.864 8.865 8.864 8.780 8.780 8.780 8.780 8.150 8.150 8.150 8.150 4.847 4.847 4.847 4.847 6.787 6.731 6.787 6.731
# coordination-number C 1.920
# coordination-number O 1.023
# diagonal-C6 Ag 268.61 268.61 268.61 268.61 268.61 268.61 268.61 268.61 268.61 268.61 268.61 268.61 268.61 268.61 268.61 268.61 268.61 268.61 268.61 268.61 268.61 268.61 268.61 268.61 268.61 268.61 268.61 268.61 268.61 268.61 268.61 268.61 268.61 268.61 268.61 268.61 268.61 268.61 268.61 268.61
# diagonal-C6 C 29.70
# diagonal-C6 O 12.79
EvdW_6 =   -0.221806
EvdW_8 =   -0.316215

-------- Electronic minimization -----------
	Linear fluid (dielectric constant: 78.4, screening length: 8.12261 Bohr) occupying 0.478203 of unit cell:	Completed after 6 iterations at t[s]:  67674.00
	FillingsUpdate:  mu: -0.145975031  nElectrons: 770.000000  magneticMoment: [ Abs: 0.00000  Tot: -0.00000 ]
ElecMinimize: Iter:   0  F: -5926.062109013257214  |grad|_K:  9.043e-08  alpha:  1.000e+00
	Linear fluid (dielectric constant: 78.4, screening length: 8.12261 Bohr) occupying 0.478233 of unit cell:	Completed after 10 iterations at t[s]:  67788.05
	Linear fluid (dielectric constant: 78.4, screening length: 8.12261 Bohr) occupying 0.478208 of unit cell:	Completed after 10 iterations at t[s]:  67828.48
	FillingsUpdate:  mu: -0.145778900  nElectrons: 770.000000  magneticMoment: [ Abs: 0.00000  Tot: -0.00000 ]
	SubspaceRotationAdjust: set factor to 1.02
ElecMinimize: Iter:   1  F: -5926.062109523286381  |grad|_K:  1.381e-08  alpha:  1.693e-01  linmin:  1.734e-04  t[s]:  67881.03
	Linear fluid (dielectric constant: 78.4, screening length: 8.12261 Bohr) occupying 0.478208 of unit cell:	Completed after 1 iterations at t[s]:  67933.20
	Linear fluid (dielectric constant: 78.4, screening length: 8.12261 Bohr) occupying 0.478208 of unit cell:	Completed after 0 iterations at t[s]:  67970.60
	FillingsUpdate:  mu: -0.145777817  nElectrons: 770.000000  magneticMoment: [ Abs: 0.00000  Tot: -0.00000 ]
	SubspaceRotationAdjust: set factor to 1.22
ElecMinimize: Iter:   2  F: -5926.062109539689118  |grad|_K:  8.350e-09  alpha:  2.013e-01  linmin: -1.233e-02  t[s]:  68023.13
	Linear fluid (dielectric constant: 78.4, screening length: 8.12261 Bohr) occupying 0.478208 of unit cell:	Completed after 0 iterations at t[s]:  68074.69
	Linear fluid (dielectric constant: 78.4, screening length: 8.12261 Bohr) occupying 0.478207 of unit cell:	Completed after 2 iterations at t[s]:  68112.99
ElecMinimize: 	Step increased F by 8.683855e-09, reducing alpha to 4.240684e-02.
	Linear fluid (dielectric constant: 78.4, screening length: 8.12261 Bohr) occupying 0.478208 of unit cell:	Completed after 1 iterations at t[s]:  68201.11
	FillingsUpdate:  mu: -0.145777984  nElectrons: 770.000000  magneticMoment: [ Abs: 0.00000  Tot: -0.00000 ]
	SubspaceRotationAdjust: set factor to 1.21
ElecMinimize: Iter:   3  F: -5926.062109540330312  |grad|_K:  7.573e-09  alpha:  4.241e-02  linmin: -3.034e-03  t[s]:  68253.64
ElecMinimize: Converged (|Delta F|<1.000000e-07 for 2 iters).
Setting wave functions to eigenvectors of Hamiltonian
Converging empty states (this may take a while): |deigs|: 4.571e-10

Computing DFT-D3 correction:
# coordination-number Ag 8.155 8.149 8.148 8.149 8.779 8.779 8.779 8.779 8.867 8.866 8.866 8.866 6.732 6.732 6.732 6.732 4.853 4.848 4.853 5.644 8.866 8.864 8.865 8.864 8.780 8.780 8.780 8.780 8.150 8.150 8.150 8.150 4.847 4.847 4.847 4.847 6.787 6.731 6.787 6.731
# coordination-number C 1.920
# coordination-number O 1.023
# diagonal-C6 Ag 268.61 268.61 268.61 268.61 268.61 268.61 268.61 268.61 268.61 268.61 268.61 268.61 268.61 268.61 268.61 268.61 268.61 268.61 268.61 268.61 268.61 268.61 268.61 268.61 268.61 268.61 268.61 268.61 268.61 268.61 268.61 268.61 268.61 268.61 268.61 268.61 268.61 268.61 268.61 268.61
# diagonal-C6 C 29.70
# diagonal-C6 O 12.79
EvdW_6 =   -0.221806
EvdW_8 =   -0.316215
IonicMinimize: 	Wolfe criterion not satisfied: alpha: 1  (E-E0)/|gdotd0|: 0.502988  gdotd/gdotd0: -0.857271 (taking cubic step)

Computing DFT-D3 correction:
# coordination-number Ag 8.155 8.149 8.148 8.149 8.779 8.779 8.779 8.779 8.867 8.866 8.866 8.866 6.732 6.732 6.732 6.732 4.853 4.848 4.853 5.644 8.866 8.864 8.865 8.864 8.780 8.780 8.780 8.780 8.150 8.150 8.150 8.150 4.847 4.847 4.847 4.847 6.787 6.731 6.787 6.731
# coordination-number C 1.920
# coordination-number O 1.023
# diagonal-C6 Ag 268.61 268.61 268.61 268.61 268.61 268.61 268.61 268.61 268.61 268.61 268.61 268.61 268.61 268.61 268.61 268.61 268.61 268.61 268.61 268.61 268.61 268.61 268.61 268.61 268.61 268.61 268.61 268.61 268.61 268.61 268.61 268.61 268.61 268.61 268.61 268.61 268.61 268.61 268.61 268.61
# diagonal-C6 C 29.70
# diagonal-C6 O 12.79
EvdW_6 =   -0.221806
EvdW_8 =   -0.316215

-------- Electronic minimization -----------
	Linear fluid (dielectric constant: 78.4, screening length: 8.12261 Bohr) occupying 0.478207 of unit cell:	Completed after 2 iterations at t[s]:  68462.57
	FillingsUpdate:  mu: -0.145786160  nElectrons: 770.000000  magneticMoment: [ Abs: 0.00000  Tot: -0.00000 ]
ElecMinimize: Iter:   0  F: -5926.062109513954056  |grad|_K:  2.985e-08  alpha:  1.000e+00
	Linear fluid (dielectric constant: 78.4, screening length: 8.12261 Bohr) occupying 0.478210 of unit cell:	Completed after 8 iterations at t[s]:  68575.97
	Linear fluid (dielectric constant: 78.4, screening length: 8.12261 Bohr) occupying 0.478207 of unit cell:	Completed after 8 iterations at t[s]:  68615.85
	FillingsUpdate:  mu: -0.145795296  nElectrons: 770.000000  magneticMoment: [ Abs: 0.00000  Tot: -0.00000 ]
	SubspaceRotationAdjust: set factor to 1.31
ElecMinimize: Iter:   1  F: -5926.062109555980896  |grad|_K:  9.560e-09  alpha:  9.390e-02  linmin: -2.665e-03  t[s]:  68668.48
	Linear fluid (dielectric constant: 78.4, screening length: 8.12261 Bohr) occupying 0.478207 of unit cell:	Completed after 0 iterations at t[s]:  68719.99
ElecMinimize: 	Predicted alpha/alphaT>3.000000, increasing alphaT to 2.816964e-01.
	Linear fluid (dielectric constant: 78.4, screening length: 8.12261 Bohr) occupying 0.478208 of unit cell:	Completed after 2 iterations at t[s]:  68758.07
	Linear fluid (dielectric constant: 78.4, screening length: 8.12261 Bohr) occupying 0.478207 of unit cell:	Completed after 0 iterations at t[s]:  68795.28
	FillingsUpdate:  mu: -0.145780849  nElectrons: 770.000000  magneticMoment: [ Abs: 0.00000  Tot: -0.00000 ]
	SubspaceRotationAdjust: set factor to 0.802
ElecMinimize: Iter:   2  F: -5926.062109561338730  |grad|_K:  1.424e-08  alpha:  1.164e-01  linmin:  2.712e-03  t[s]:  68848.06
ElecMinimize: Converged (|Delta F|<1.000000e-07 for 2 iters).
Setting wave functions to eigenvectors of Hamiltonian
Converging empty states (this may take a while): |deigs|: 2.985e-10

Computing DFT-D3 correction:
# coordination-number Ag 8.155 8.149 8.148 8.149 8.779 8.779 8.779 8.779 8.867 8.866 8.866 8.866 6.732 6.732 6.732 6.732 4.853 4.848 4.853 5.644 8.866 8.864 8.865 8.864 8.780 8.780 8.780 8.780 8.150 8.150 8.150 8.150 4.847 4.847 4.847 4.847 6.787 6.731 6.787 6.731
# coordination-number C 1.920
# coordination-number O 1.023
# diagonal-C6 Ag 268.61 268.61 268.61 268.61 268.61 268.61 268.61 268.61 268.61 268.61 268.61 268.61 268.61 268.61 268.61 268.61 268.61 268.61 268.61 268.61 268.61 268.61 268.61 268.61 268.61 268.61 268.61 268.61 268.61 268.61 268.61 268.61 268.61 268.61 268.61 268.61 268.61 268.61 268.61 268.61
# diagonal-C6 C 29.70
# diagonal-C6 O 12.79
EvdW_6 =   -0.221806
EvdW_8 =   -0.316215

# Ionic positions in cartesian coordinates:
ion Ag   3.835417000000000   1.682334000000000  13.043153000000000 0
ion Ag   0.002582000000000  10.252812000000002  13.043153000000000 0
ion Ag  11.501085999999999   1.682334000000000  13.043153000000000 0
ion Ag   7.668251000000000  10.252812000000002  13.043153000000000 0
ion Ag  -0.000736000000000   3.395349000000000   9.424063000000000 0
ion Ag  -3.833556000000000  11.965828000000002   9.424063000000000 0
ion Ag   7.664932000000000   3.395349000000000   9.424063000000000 0
ion Ag   3.832112000000000  11.965828000000002   9.424063000000000 0
ion Ag   3.832742000000000   5.197413000000001   5.972663000000000 0
ion Ag  -0.000094000000000  13.767891000000002   5.972663000000000 0
ion Ag  11.498410000000000   5.197413000000001   5.972663000000000 0
ion Ag   7.665575000000000  13.767891000000002   5.972663000000000 0
ion Ag  -0.002722000000000   6.958834000000002   2.379593000000000 0
ion Ag  -3.835557000000001  15.529313000000004   2.379593000000000 0
ion Ag   7.662945999999999   6.958834000000002   2.379593000000000 0
ion Ag   3.830110999999999  15.529313000000004   2.379593000000000 0
ion Ag   7.669207999999998  17.005235000000003  16.291689999999999 0
ion Ag  11.502043000000000   8.434757000000001  16.291689999999999 0
ion Ag   0.003540000000000  17.005235000000003  16.291689999999999 0
ion Ag   3.836374999999999   8.434757000000001  16.291689999999999 0
ion Ag   3.833408000000000   6.801035000000001  11.168018000000000 0
ion Ag   0.000580999999999  15.371531000000001  11.168018000000000 0
ion Ag  11.499076999999998   6.801035000000001  11.168018000000000 0
ion Ag   7.666249000000000  15.371531000000001  11.168018000000000 0
ion Ag   3.833056000000000   0.031488000000000   7.715897999999999 0
ion Ag   0.000220999999999   8.601967000000002   7.715897999999999 0
ion Ag  11.498725000000000   0.031488000000000   7.715897999999999 0
ion Ag   7.665889999999999   8.601967000000002   7.715897999999999 0
ion Ag  -0.003434000000000   1.745429000000000   4.098042000000000 0
ion Ag  -3.836277000000000  10.315891000000002   4.098042000000000 0
ion Ag   7.662233999999999   1.745429000000000   4.098042000000000 0
ion Ag   3.829406000000000  10.315891000000002   4.098042000000000 0
ion Ag   3.830595000000000   3.565593000000000   0.850020000000000 0
ion Ag  -0.002240000000000  12.136072000000002   0.850020000000000 0
ion Ag  11.496263999999998   3.565593000000000   0.850020000000000 0
ion Ag   7.663429000000000  12.136072000000002   0.850020000000000 0
ion Ag   0.002330000000000   5.040161000000001  14.761654000000000 0
ion Ag  -3.830505000000001  13.610640000000002  14.761654000000000 0
ion Ag   7.667997999999999   5.040161000000001  14.761654000000000 0
ion Ag   3.835162999999999  13.610640000000002  14.761654000000000 0
ion C   3.835163999999999   5.040161000000001  19.142266429782435 1  Linear 0 0 1
ion O   3.895262999999999   5.040161000000001  21.324792182089986 1  Linear 0 0 1

# Forces in Cartesian coordinates:
force Ag   0.000051135122171  -0.001430199276715  -0.002406920315536 0
force Ag   0.000184622022327   0.000365638501451   0.000620103183000 0
force Ag  -0.000077814137899   0.000486243547431   0.000309367538202 0
force Ag  -0.000211058581383   0.000686365318785   0.000318929683732 0
force Ag   0.000291648329223   0.000217230440575   0.000807529241790 0
force Ag  -0.000056908015943  -0.000141549233321   0.000492999854374 0
force Ag  -0.000126740351479   0.000329002776178   0.000817954937498 0
force Ag   0.000061188472134   0.000549292543026   0.000362450554133 0
force Ag   0.000020902073233   0.000572218227950  -0.000595713022212 0
force Ag  -0.000287679650007   0.000415537824680  -0.000133082110427 0
force Ag  -0.000145738988723   0.000689312238289   0.000556303194323 0
force Ag   0.000134336650696   0.000426402908219   0.000166506312287 0
force Ag  -0.000218782097778  -0.000107875098786  -0.000032316605168 0
force Ag   0.000099194537045  -0.000541386221131  -0.000101700136689 0
force Ag   0.000233759983727   0.000020536271540   0.000113857540808 0
force Ag  -0.000007801829823   0.000035347134111   0.000438863833620 0
force Ag   0.000230455710738  -0.000522486131984   0.000605173732583 0
force Ag   0.000141736345779  -0.000636533381358   0.000135158551630 0
force Ag  -0.000353015761199  -0.000237633299004   0.000366115870394 0
force Ag  -0.000227822563255  -0.000893576872887   0.003325407110268 0
force Ag   0.000026455750800  -0.000354113336048  -0.002009263392441 0
force Ag   0.000262327564848  -0.000551956851456  -0.000118630264356 0
force Ag   0.000200794437312  -0.000507657759456   0.000414857911487 0
force Ag   0.000033853917778  -0.000462504626576  -0.000006564339833 0
force Ag  -0.000074191152810  -0.000435835099301  -0.000499513433691 0
force Ag  -0.000634743690759   0.000248333134054  -0.000639922066773 0
force Ag  -0.000034856197587  -0.000014687428062   0.000176755819410 0
force Ag   0.000486611305387   0.000102212717899  -0.000330980900238 0
force Ag  -0.000211265624386  -0.000460322765582   0.000084774429001 0
force Ag   0.000160378244773  -0.000284838775554  -0.000217966633317 0
force Ag   0.000060996613054  -0.000593222299068   0.000448635769236 0
force Ag  -0.000217749517160  -0.000438118466819   0.000278250981665 0
force Ag  -0.000176370031727   0.000749555270090  -0.000258727611330 0
force Ag  -0.000464720697073   0.000447842837414  -0.000452332886680 0
force Ag   0.000209825711248   0.000354757084545  -0.000821714367168 0
force Ag   0.000575405136188   0.000382279242875  -0.000477522624867 0
force Ag  -0.003529077170520  -0.000172530305811  -0.000938468332763 0
force Ag   0.000016560103464   0.000303775796790  -0.000286203128803 0
force Ag   0.003561978925133  -0.000789729730408  -0.000934032669021 0
force Ag   0.000080253302105  -0.001789068689529   0.000168485914612 0
force C  -0.000107236387689   0.006639882571526   0.000037609465473 1  Linear 0 0 1
force O   0.000031737946989  -0.002533863496146  -0.000111639916048 1  Linear 0 0 1

# Energy components:
   A_diel =       -0.0019686059436234
   Eewald =    21773.7918513327313121
       EH =    27127.9072033933371131
     Eloc =   -55763.6362781605275813
      Enl =      161.0057901748625397
     EvdW =       -0.5380207930659060
      Exc =     -584.6910674102718986
 Exc_core =        8.4255437805915996
       KE =     1351.6757764928615870
-------------------------------------
     Etot =    -5926.0611697954236661
       TS =        0.0009397659151578
-------------------------------------
        F =    -5926.0621095613387297


Dumping 'jdft.fillings' ... done
Dumping 'jdft.wfns' ... done
Dumping 'jdft.fluidState' ... done
Dumping 'jdft.ionpos' ... done
Dumping 'jdft.lattice' ... done
Dumping 'jdft.eigenvals' ... done
Dumping 'jdft.eigStats' ... 
	eMin: -3.526589 at state 0 ( [ +0.000000 +0.000000 +0.000000 ] spin 1 )
	HOMO: -0.148010 at state 5 ( [ +0.500000 +0.000000 +0.000000 ] spin 1 )
	mu  : -0.145781
	LUMO: -0.145373 at state 13 ( [ +0.500000 +0.333333 +0.000000 ] spin -1 )
	eMax: +0.136356 at state 3 ( [ +0.250000 +0.333333 +0.000000 ] spin 1 )
	HOMO-LUMO gap: +0.002637
	Optical gap  : +0.003248 at state 12 ( [ +0.500000 +0.000000 +0.000000 ] spin -1 )
Dumping 'jdft.Ecomponents' ... done
IonicMinimize: Iter:  22  F: -5926.062109561338730  |grad|_K:  8.330e-05  alpha:  2.200e-01  linmin:  1.398e-03  t[s]:  68998.62
IonicMinimize: Converged (|grad|_K<1.000000e-04).

#--- Lowdin population analysis ---
# oxidation-state Ag -0.056 -0.068 -0.069 -0.066 +0.003 -0.002 +0.002 +0.006 -0.031 -0.030 -0.030 -0.029 -0.032 -0.029 -0.030 -0.032 +0.140 +0.152 +0.138 -0.000 -0.028 -0.030 -0.027 -0.029 +0.002 +0.003 +0.002 +0.003 -0.065 -0.071 -0.063 -0.059 +0.158 +0.153 +0.152 +0.155 -0.041 -0.031 -0.042 -0.030
# magnetic-moments Ag +0.000 +0.000 +0.000 -0.000 +0.000 -0.000 -0.000 -0.000 -0.000 -0.000 -0.000 -0.000 -0.000 +0.000 +0.000 -0.000 +0.000 +0.000 -0.000 -0.000 +0.000 +0.000 +0.000 +0.000 +0.000 -0.000 -0.000 -0.000 -0.000 -0.000 -0.000 -0.000 +0.000 -0.000 +0.000 -0.000 +0.000 +0.000 -0.000 -0.000
# oxidation-state C +0.379
# magnetic-moments C -0.000
# oxidation-state O -0.096
# magnetic-moments O +0.000


Dumping 'jdft.n_up' ... done
Dumping 'jdft.n_dn' ... done
Dumping 'jdft.tau_up' ... done
Dumping 'jdft.tau_dn' ... done
Dumping 'jdft.eigenvals' ... done
Dumping 'jdft.eigStats' ... 
	eMin: -3.526589 at state 0 ( [ +0.000000 +0.000000 +0.000000 ] spin 1 )
	HOMO: -0.148010 at state 5 ( [ +0.500000 +0.000000 +0.000000 ] spin 1 )
	mu  : -0.145781
	LUMO: -0.145373 at state 13 ( [ +0.500000 +0.333333 +0.000000 ] spin -1 )
	eMax: +0.136356 at state 3 ( [ +0.250000 +0.333333 +0.000000 ] spin 1 )
	HOMO-LUMO gap: +0.002637
	Optical gap  : +0.003248 at state 12 ( [ +0.500000 +0.000000 +0.000000 ] spin -1 )
Dumping 'jdft.kPts' ... done
Dumping 'jdft.kMap' ... done
Dumping 'jdft.dosUp' ... done.
Dumping 'jdft.dosDn' ... done.
End date and time: Fri Feb 18 10:11:39 2022  (Duration: 0-19:11:17.50)
Done!
