
*************** JDFTx 1.6.0  ***************

Start date and time: Mon Dec  6 17:16:42 2021
Executable /projects/musgravc/apps/jdftx-1.6.1/build/jdftx with command-line: -i in
Running on hosts (process indices):  shas0808.rc.int.colorado.edu (0-23)
Divided in process groups (process indices):  0 (0)  1 (1)  2 (2)  3 (3)  4 (4)  5 (5)  6 (6)  7 (7)  8 (8)  9 (9)  10 (10)  11 (11)  12 (12)  13 (13)  14 (14)  15 (15)  16 (16)  17 (17)  18 (18)  19 (19)  20 (20)  21 (21)  22 (22)  23 (23)
Resource initialization completed at t[s]:      0.00
Run totals: 24 processes, 24 threads, 0 GPUs


Input parsed successfully to the following command list (including defaults):

basis kpoint-dependent
converge-empty-states yes
coords-type Cartesian
core-overlap-check none
coulomb-interaction Periodic
davidson-band-ratio 1.1
density-of-states Etol 1.000000e-06 Esigma 1.000000e-03 \
		Complete \
	Total \
	OrthoOrbital Ag 1   s \
	OrthoOrbital Ag 1   p \
	OrthoOrbital Ag 1   px \
	OrthoOrbital Ag 1   py \
	OrthoOrbital Ag 1   pz \
	OrthoOrbital Ag 1   d \
	OrthoOrbital Ag 1   dxy \
	OrthoOrbital Ag 1   dyz \
	OrthoOrbital Ag 1   dz2 \
	OrthoOrbital Ag 1   dxz \
	OrthoOrbital Ag 1   dx2-y2 \
	OrthoOrbital Ag 2   s \
	OrthoOrbital Ag 2   p \
	OrthoOrbital Ag 2   px \
	OrthoOrbital Ag 2   py \
	OrthoOrbital Ag 2   pz \
	OrthoOrbital Ag 2   d \
	OrthoOrbital Ag 2   dxy \
	OrthoOrbital Ag 2   dyz \
	OrthoOrbital Ag 2   dz2 \
	OrthoOrbital Ag 2   dxz \
	OrthoOrbital Ag 2   dx2-y2 \
	OrthoOrbital Ag 3   s \
	OrthoOrbital Ag 3   p \
	OrthoOrbital Ag 3   px \
	OrthoOrbital Ag 3   py \
	OrthoOrbital Ag 3   pz \
	OrthoOrbital Ag 3   d \
	OrthoOrbital Ag 3   dxy \
	OrthoOrbital Ag 3   dyz \
	OrthoOrbital Ag 3   dz2 \
	OrthoOrbital Ag 3   dxz \
	OrthoOrbital Ag 3   dx2-y2 \
	OrthoOrbital Ag 4   s \
	OrthoOrbital Ag 4   p \
	OrthoOrbital Ag 4   px \
	OrthoOrbital Ag 4   py \
	OrthoOrbital Ag 4   pz \
	OrthoOrbital Ag 4   d \
	OrthoOrbital Ag 4   dxy \
	OrthoOrbital Ag 4   dyz \
	OrthoOrbital Ag 4   dz2 \
	OrthoOrbital Ag 4   dxz \
	OrthoOrbital Ag 4   dx2-y2 \
	OrthoOrbital Ag 5   s \
	OrthoOrbital Ag 5   p \
	OrthoOrbital Ag 5   px \
	OrthoOrbital Ag 5   py \
	OrthoOrbital Ag 5   pz \
	OrthoOrbital Ag 5   d \
	OrthoOrbital Ag 5   dxy \
	OrthoOrbital Ag 5   dyz \
	OrthoOrbital Ag 5   dz2 \
	OrthoOrbital Ag 5   dxz \
	OrthoOrbital Ag 5   dx2-y2 \
	OrthoOrbital Ag 6   s \
	OrthoOrbital Ag 6   p \
	OrthoOrbital Ag 6   px \
	OrthoOrbital Ag 6   py \
	OrthoOrbital Ag 6   pz \
	OrthoOrbital Ag 6   d \
	OrthoOrbital Ag 6   dxy \
	OrthoOrbital Ag 6   dyz \
	OrthoOrbital Ag 6   dz2 \
	OrthoOrbital Ag 6   dxz \
	OrthoOrbital Ag 6   dx2-y2 \
	OrthoOrbital Ag 7   s \
	OrthoOrbital Ag 7   p \
	OrthoOrbital Ag 7   px \
	OrthoOrbital Ag 7   py \
	OrthoOrbital Ag 7   pz \
	OrthoOrbital Ag 7   d \
	OrthoOrbital Ag 7   dxy \
	OrthoOrbital Ag 7   dyz \
	OrthoOrbital Ag 7   dz2 \
	OrthoOrbital Ag 7   dxz \
	OrthoOrbital Ag 7   dx2-y2 \
	OrthoOrbital Ag 8   s \
	OrthoOrbital Ag 8   p \
	OrthoOrbital Ag 8   px \
	OrthoOrbital Ag 8   py \
	OrthoOrbital Ag 8   pz \
	OrthoOrbital Ag 8   d \
	OrthoOrbital Ag 8   dxy \
	OrthoOrbital Ag 8   dyz \
	OrthoOrbital Ag 8   dz2 \
	OrthoOrbital Ag 8   dxz \
	OrthoOrbital Ag 8   dx2-y2 \
	OrthoOrbital Ag 9   s \
	OrthoOrbital Ag 9   p \
	OrthoOrbital Ag 9   px \
	OrthoOrbital Ag 9   py \
	OrthoOrbital Ag 9   pz \
	OrthoOrbital Ag 9   d \
	OrthoOrbital Ag 9   dxy \
	OrthoOrbital Ag 9   dyz \
	OrthoOrbital Ag 9   dz2 \
	OrthoOrbital Ag 9   dxz \
	OrthoOrbital Ag 9   dx2-y2 \
	OrthoOrbital Ag 10   s \
	OrthoOrbital Ag 10   p \
	OrthoOrbital Ag 10   px \
	OrthoOrbital Ag 10   py \
	OrthoOrbital Ag 10   pz \
	OrthoOrbital Ag 10   d \
	OrthoOrbital Ag 10   dxy \
	OrthoOrbital Ag 10   dyz \
	OrthoOrbital Ag 10   dz2 \
	OrthoOrbital Ag 10   dxz \
	OrthoOrbital Ag 10   dx2-y2 \
	OrthoOrbital Ag 11   s \
	OrthoOrbital Ag 11   p \
	OrthoOrbital Ag 11   px \
	OrthoOrbital Ag 11   py \
	OrthoOrbital Ag 11   pz \
	OrthoOrbital Ag 11   d \
	OrthoOrbital Ag 11   dxy \
	OrthoOrbital Ag 11   dyz \
	OrthoOrbital Ag 11   dz2 \
	OrthoOrbital Ag 11   dxz \
	OrthoOrbital Ag 11   dx2-y2 \
	OrthoOrbital Ag 12   s \
	OrthoOrbital Ag 12   p \
	OrthoOrbital Ag 12   px \
	OrthoOrbital Ag 12   py \
	OrthoOrbital Ag 12   pz \
	OrthoOrbital Ag 12   d \
	OrthoOrbital Ag 12   dxy \
	OrthoOrbital Ag 12   dyz \
	OrthoOrbital Ag 12   dz2 \
	OrthoOrbital Ag 12   dxz \
	OrthoOrbital Ag 12   dx2-y2 \
	OrthoOrbital Ag 13   s \
	OrthoOrbital Ag 13   p \
	OrthoOrbital Ag 13   px \
	OrthoOrbital Ag 13   py \
	OrthoOrbital Ag 13   pz \
	OrthoOrbital Ag 13   d \
	OrthoOrbital Ag 13   dxy \
	OrthoOrbital Ag 13   dyz \
	OrthoOrbital Ag 13   dz2 \
	OrthoOrbital Ag 13   dxz \
	OrthoOrbital Ag 13   dx2-y2 \
	OrthoOrbital Ag 14   s \
	OrthoOrbital Ag 14   p \
	OrthoOrbital Ag 14   px \
	OrthoOrbital Ag 14   py \
	OrthoOrbital Ag 14   pz \
	OrthoOrbital Ag 14   d \
	OrthoOrbital Ag 14   dxy \
	OrthoOrbital Ag 14   dyz \
	OrthoOrbital Ag 14   dz2 \
	OrthoOrbital Ag 14   dxz \
	OrthoOrbital Ag 14   dx2-y2 \
	OrthoOrbital Ag 15   s \
	OrthoOrbital Ag 15   p \
	OrthoOrbital Ag 15   px \
	OrthoOrbital Ag 15   py \
	OrthoOrbital Ag 15   pz \
	OrthoOrbital Ag 15   d \
	OrthoOrbital Ag 15   dxy \
	OrthoOrbital Ag 15   dyz \
	OrthoOrbital Ag 15   dz2 \
	OrthoOrbital Ag 15   dxz \
	OrthoOrbital Ag 15   dx2-y2 \
	OrthoOrbital Ag 16   s \
	OrthoOrbital Ag 16   p \
	OrthoOrbital Ag 16   px \
	OrthoOrbital Ag 16   py \
	OrthoOrbital Ag 16   pz \
	OrthoOrbital Ag 16   d \
	OrthoOrbital Ag 16   dxy \
	OrthoOrbital Ag 16   dyz \
	OrthoOrbital Ag 16   dz2 \
	OrthoOrbital Ag 16   dxz \
	OrthoOrbital Ag 16   dx2-y2 \
	OrthoOrbital Ag 17   s \
	OrthoOrbital Ag 17   p \
	OrthoOrbital Ag 17   px \
	OrthoOrbital Ag 17   py \
	OrthoOrbital Ag 17   pz \
	OrthoOrbital Ag 17   d \
	OrthoOrbital Ag 17   dxy \
	OrthoOrbital Ag 17   dyz \
	OrthoOrbital Ag 17   dz2 \
	OrthoOrbital Ag 17   dxz \
	OrthoOrbital Ag 17   dx2-y2 \
	OrthoOrbital Ag 18   s \
	OrthoOrbital Ag 18   p \
	OrthoOrbital Ag 18   px \
	OrthoOrbital Ag 18   py \
	OrthoOrbital Ag 18   pz \
	OrthoOrbital Ag 18   d \
	OrthoOrbital Ag 18   dxy \
	OrthoOrbital Ag 18   dyz \
	OrthoOrbital Ag 18   dz2 \
	OrthoOrbital Ag 18   dxz \
	OrthoOrbital Ag 18   dx2-y2 \
	OrthoOrbital Ag 19   s \
	OrthoOrbital Ag 19   p \
	OrthoOrbital Ag 19   px \
	OrthoOrbital Ag 19   py \
	OrthoOrbital Ag 19   pz \
	OrthoOrbital Ag 19   d \
	OrthoOrbital Ag 19   dxy \
	OrthoOrbital Ag 19   dyz \
	OrthoOrbital Ag 19   dz2 \
	OrthoOrbital Ag 19   dxz \
	OrthoOrbital Ag 19   dx2-y2 \
	OrthoOrbital Ag 20   s \
	OrthoOrbital Ag 20   p \
	OrthoOrbital Ag 20   px \
	OrthoOrbital Ag 20   py \
	OrthoOrbital Ag 20   pz \
	OrthoOrbital Ag 20   d \
	OrthoOrbital Ag 20   dxy \
	OrthoOrbital Ag 20   dyz \
	OrthoOrbital Ag 20   dz2 \
	OrthoOrbital Ag 20   dxz \
	OrthoOrbital Ag 20   dx2-y2 \
	OrthoOrbital Ag 21   s \
	OrthoOrbital Ag 21   p \
	OrthoOrbital Ag 21   px \
	OrthoOrbital Ag 21   py \
	OrthoOrbital Ag 21   pz \
	OrthoOrbital Ag 21   d \
	OrthoOrbital Ag 21   dxy \
	OrthoOrbital Ag 21   dyz \
	OrthoOrbital Ag 21   dz2 \
	OrthoOrbital Ag 21   dxz \
	OrthoOrbital Ag 21   dx2-y2 \
	OrthoOrbital Ag 22   s \
	OrthoOrbital Ag 22   p \
	OrthoOrbital Ag 22   px \
	OrthoOrbital Ag 22   py \
	OrthoOrbital Ag 22   pz \
	OrthoOrbital Ag 22   d \
	OrthoOrbital Ag 22   dxy \
	OrthoOrbital Ag 22   dyz \
	OrthoOrbital Ag 22   dz2 \
	OrthoOrbital Ag 22   dxz \
	OrthoOrbital Ag 22   dx2-y2 \
	OrthoOrbital Ag 23   s \
	OrthoOrbital Ag 23   p \
	OrthoOrbital Ag 23   px \
	OrthoOrbital Ag 23   py \
	OrthoOrbital Ag 23   pz \
	OrthoOrbital Ag 23   d \
	OrthoOrbital Ag 23   dxy \
	OrthoOrbital Ag 23   dyz \
	OrthoOrbital Ag 23   dz2 \
	OrthoOrbital Ag 23   dxz \
	OrthoOrbital Ag 23   dx2-y2 \
	OrthoOrbital Ag 24   s \
	OrthoOrbital Ag 24   p \
	OrthoOrbital Ag 24   px \
	OrthoOrbital Ag 24   py \
	OrthoOrbital Ag 24   pz \
	OrthoOrbital Ag 24   d \
	OrthoOrbital Ag 24   dxy \
	OrthoOrbital Ag 24   dyz \
	OrthoOrbital Ag 24   dz2 \
	OrthoOrbital Ag 24   dxz \
	OrthoOrbital Ag 24   dx2-y2 \
	OrthoOrbital Ag 25   s \
	OrthoOrbital Ag 25   p \
	OrthoOrbital Ag 25   px \
	OrthoOrbital Ag 25   py \
	OrthoOrbital Ag 25   pz \
	OrthoOrbital Ag 25   d \
	OrthoOrbital Ag 25   dxy \
	OrthoOrbital Ag 25   dyz \
	OrthoOrbital Ag 25   dz2 \
	OrthoOrbital Ag 25   dxz \
	OrthoOrbital Ag 25   dx2-y2 \
	OrthoOrbital Ag 26   s \
	OrthoOrbital Ag 26   p \
	OrthoOrbital Ag 26   px \
	OrthoOrbital Ag 26   py \
	OrthoOrbital Ag 26   pz \
	OrthoOrbital Ag 26   d \
	OrthoOrbital Ag 26   dxy \
	OrthoOrbital Ag 26   dyz \
	OrthoOrbital Ag 26   dz2 \
	OrthoOrbital Ag 26   dxz \
	OrthoOrbital Ag 26   dx2-y2 \
	OrthoOrbital Ag 27   s \
	OrthoOrbital Ag 27   p \
	OrthoOrbital Ag 27   px \
	OrthoOrbital Ag 27   py \
	OrthoOrbital Ag 27   pz \
	OrthoOrbital Ag 27   d \
	OrthoOrbital Ag 27   dxy \
	OrthoOrbital Ag 27   dyz \
	OrthoOrbital Ag 27   dz2 \
	OrthoOrbital Ag 27   dxz \
	OrthoOrbital Ag 27   dx2-y2 \
	OrthoOrbital Ag 28   s \
	OrthoOrbital Ag 28   p \
	OrthoOrbital Ag 28   px \
	OrthoOrbital Ag 28   py \
	OrthoOrbital Ag 28   pz \
	OrthoOrbital Ag 28   d \
	OrthoOrbital Ag 28   dxy \
	OrthoOrbital Ag 28   dyz \
	OrthoOrbital Ag 28   dz2 \
	OrthoOrbital Ag 28   dxz \
	OrthoOrbital Ag 28   dx2-y2 \
	OrthoOrbital Ag 29   s \
	OrthoOrbital Ag 29   p \
	OrthoOrbital Ag 29   px \
	OrthoOrbital Ag 29   py \
	OrthoOrbital Ag 29   pz \
	OrthoOrbital Ag 29   d \
	OrthoOrbital Ag 29   dxy \
	OrthoOrbital Ag 29   dyz \
	OrthoOrbital Ag 29   dz2 \
	OrthoOrbital Ag 29   dxz \
	OrthoOrbital Ag 29   dx2-y2 \
	OrthoOrbital Ag 30   s \
	OrthoOrbital Ag 30   p \
	OrthoOrbital Ag 30   px \
	OrthoOrbital Ag 30   py \
	OrthoOrbital Ag 30   pz \
	OrthoOrbital Ag 30   d \
	OrthoOrbital Ag 30   dxy \
	OrthoOrbital Ag 30   dyz \
	OrthoOrbital Ag 30   dz2 \
	OrthoOrbital Ag 30   dxz \
	OrthoOrbital Ag 30   dx2-y2 \
	OrthoOrbital Ag 31   s \
	OrthoOrbital Ag 31   p \
	OrthoOrbital Ag 31   px \
	OrthoOrbital Ag 31   py \
	OrthoOrbital Ag 31   pz \
	OrthoOrbital Ag 31   d \
	OrthoOrbital Ag 31   dxy \
	OrthoOrbital Ag 31   dyz \
	OrthoOrbital Ag 31   dz2 \
	OrthoOrbital Ag 31   dxz \
	OrthoOrbital Ag 31   dx2-y2 \
	OrthoOrbital Ag 32   s \
	OrthoOrbital Ag 32   p \
	OrthoOrbital Ag 32   px \
	OrthoOrbital Ag 32   py \
	OrthoOrbital Ag 32   pz \
	OrthoOrbital Ag 32   d \
	OrthoOrbital Ag 32   dxy \
	OrthoOrbital Ag 32   dyz \
	OrthoOrbital Ag 32   dz2 \
	OrthoOrbital Ag 32   dxz \
	OrthoOrbital Ag 32   dx2-y2 \
	OrthoOrbital Ag 33   s \
	OrthoOrbital Ag 33   p \
	OrthoOrbital Ag 33   px \
	OrthoOrbital Ag 33   py \
	OrthoOrbital Ag 33   pz \
	OrthoOrbital Ag 33   d \
	OrthoOrbital Ag 33   dxy \
	OrthoOrbital Ag 33   dyz \
	OrthoOrbital Ag 33   dz2 \
	OrthoOrbital Ag 33   dxz \
	OrthoOrbital Ag 33   dx2-y2 \
	OrthoOrbital Ag 34   s \
	OrthoOrbital Ag 34   p \
	OrthoOrbital Ag 34   px \
	OrthoOrbital Ag 34   py \
	OrthoOrbital Ag 34   pz \
	OrthoOrbital Ag 34   d \
	OrthoOrbital Ag 34   dxy \
	OrthoOrbital Ag 34   dyz \
	OrthoOrbital Ag 34   dz2 \
	OrthoOrbital Ag 34   dxz \
	OrthoOrbital Ag 34   dx2-y2
dump End ElecDensity KEdensity BandEigs EigStats RhoAtom DOS Kpoints
dump Ionic State IonicPositions Lattice EigStats Ecomponents
dump 
dump 
dump 
dump 
dump 
dump 
dump 
dump 
dump-name jdft.$VAR
elec-cutoff 20
elec-eigen-algo Davidson
elec-ex-corr gga-PBE
elec-initial-magnetization 0.000000 no
elec-n-bands 388
elec-smearing Fermi 0.001
electronic-minimize  \
	dirUpdateScheme      FletcherReeves \
	linminMethod         DirUpdateRecommended \
	nIterations          100 \
	history              15 \
	knormThreshold       0 \
	energyDiffThreshold  1e-07 \
	nEnergyDiff          2 \
	alphaTstart          1 \
	alphaTmin            1e-10 \
	updateTestStepSize   yes \
	alphaTreduceFactor   0.1 \
	alphaTincreaseFactor 3 \
	nAlphaAdjustMax      3 \
	wolfeEnergy          0.0001 \
	wolfeGradient        0.9 \
	fdTest               no
exchange-regularization WignerSeitzTruncated
fluid None
fluid-ex-corr lda-TF lda-PZ
fluid-gummel-loop 10 1.000000e-05
fluid-minimize  \
	dirUpdateScheme      PolakRibiere \
	linminMethod         DirUpdateRecommended \
	nIterations          100 \
	history              15 \
	knormThreshold       0 \
	energyDiffThreshold  0 \
	nEnergyDiff          2 \
	alphaTstart          1 \
	alphaTmin            1e-10 \
	updateTestStepSize   yes \
	alphaTreduceFactor   0.1 \
	alphaTincreaseFactor 3 \
	nAlphaAdjustMax      3 \
	wolfeEnergy          0.0001 \
	wolfeGradient        0.9 \
	fdTest               no
fluid-solvent H2O 55.338 ScalarEOS \
	epsBulk 78.4 \
	pMol 0.92466 \
	epsInf 1.77 \
	Pvap 1.06736e-10 \
	sigmaBulk 4.62e-05 \
	Rvdw 2.61727 \
	Res 1.42 \
	tauNuc 343133 \
	poleEl 15 7 1
forces-output-coords Positions
ion Ag  -7.665652999999999   7.665673000000001   7.665672999999999 1
ion Ag  -7.665660999999997  11.498511000000001  11.498510999999997 1
ion Ag   0.000000000000000   0.000000000000000   0.000000000000000 1
ion Ag  -0.000008000000000   3.832838000000000   3.832837999999999 1
ion Ag  -0.000000000000000   7.665665000000001   7.665664999999999 1
ion Ag  -0.000008000000000  11.498502999999999  11.498502999999998 1
ion Ag  -0.000007999999999  19.164168000000000  19.164167999999997 1
ion Ag  -7.665653000000000  15.331338000000001  15.331337999999997 1
ion Ag   7.665675999999999   7.665671999999999   7.665671999999997 1
ion Ag   7.665668000000001  11.498510000000001  11.498509999999998 1
ion Ag   7.665676000000000  15.331337000000000  15.331336999999996 1
ion Ag   7.665668000000001  19.164175000000000  19.164174999999997 1
ion Ag  -0.000000000000000  15.331330000000001  15.331329999999998 1
ion Ag  15.331320999999999  11.498502999999998  11.498502999999996 1
ion Ag  15.331328999999998  15.331328999999998  15.331328999999997 1
ion Ag  15.331320999999999  19.164166999999999  19.164166999999992 1
ion Ag   7.665676000000001  22.997001999999998  22.997001999999991 1
ion Ag  -3.832850000000000  11.498504000000001   7.665667999999998 1
ion Ag  -3.832842000000000  15.331329999999999  11.498494999999997 1
ion Ag -11.498494999999998  15.331338000000001  11.498502999999998 1
ion Ag   3.832834000000000   7.665673000000000   3.832837999999999 1
ion Ag   3.832841999999999  11.498499000000001   7.665663999999998 1
ion Ag   3.832834000000001  15.331338000000001  11.498502999999996 1
ion Ag   3.832834000000002  22.997003000000003  19.164166999999996 1
ion Ag  -3.832849999999999  19.164168000000000  15.331332999999999 1
ion Ag  11.498517999999999  11.498507000000000   7.665671999999997 1
ion Ag  11.498510000000000  15.331345000000001  11.498509999999998 1
ion Ag  11.498518000000001  19.164172000000001  15.331336999999998 1
ion Ag  11.498510000000000  22.997010000000000  19.164174999999997 1
ion Ag   3.832827000000000  19.164176000000001  15.331340999999997 1
ion Ag  19.164162999999995  15.331337000000000  11.498501999999998 1
ion Ag  19.164171000000000  19.164164000000000  15.331328999999998 1
ion Ag  -3.832841999999999   7.665665000000001   3.832829999999999 1
ion Ag -11.498502999999996  11.498511000000001   7.665675999999999 1
ion-species /projects/musgravc/apps/jdftx-1.6.0/build/pseudopotentials/GBRV_v1.5/$ID_pbe_v1.uspp
ion-species /projects/musgravc/apps/jdftx-1.6.0/build/pseudopotentials/GBRV_v1.5/$ID_pbe_v1.2.uspp
ion-species /projects/musgravc/apps/jdftx-1.6.0/build/pseudopotentials/GBRV_v1.5/$ID_pbe_v1.4.uspp
ion-species /projects/musgravc/apps/jdftx-1.6.0/build/pseudopotentials/GBRV_v1.5/$ID_pbe_v1.5.uspp
ion-width 0
ionic-minimize  \
	dirUpdateScheme      L-BFGS \
	linminMethod         DirUpdateRecommended \
	nIterations          0 \
	history              15 \
	knormThreshold       0.0001 \
	energyDiffThreshold  1e-06 \
	nEnergyDiff          2 \
	alphaTstart          1 \
	alphaTmin            1e-10 \
	updateTestStepSize   yes \
	alphaTreduceFactor   0.1 \
	alphaTincreaseFactor 3 \
	nAlphaAdjustMax      3 \
	wolfeEnergy          0.0001 \
	wolfeGradient        0.9 \
	fdTest               no
kpoint   0.000000000000   0.000000000000   0.000000000000  1.00000000000000
kpoint-folding 8 2 1 
latt-move-scale 0 0 0
latt-scale 1 1 1 
lattice  \
	   0.000000000000000  -15.331337000000000   22.997005000000001  \
	   3.832835000000000   11.498502999999999   15.331337000000000  \
	  -3.832835000000000   11.498502999999999   15.331337000000000 
lattice-minimize  \
	dirUpdateScheme      L-BFGS \
	linminMethod         DirUpdateRecommended \
	nIterations          0 \
	history              15 \
	knormThreshold       0 \
	energyDiffThreshold  1e-06 \
	nEnergyDiff          2 \
	alphaTstart          1 \
	alphaTmin            1e-10 \
	updateTestStepSize   yes \
	alphaTreduceFactor   0.1 \
	alphaTincreaseFactor 3 \
	nAlphaAdjustMax      3 \
	wolfeEnergy          0.0001 \
	wolfeGradient        0.9 \
	fdTest               no
lcao-params 30 1e-06 0.001
pcm-variant GLSSA13
spintype z-spin
subspace-rotation-factor 1 yes
symmetries none
symmetry-threshold 0.0001
van-der-waals D3


Applied RMS atom displacement 0 bohrs to make symmetries exact.

---------- Initializing the Grid ----------
R = 
[            0     -15.3313       22.997  ]
[      3.83284      11.4985      15.3313  ]
[     -3.83284      11.4985      15.3313  ]
unit cell volume = 3828.86
G =
[ -1.04453e-17   0.819652  -0.819652  ]
[  -0.192859   0.144645   0.144645  ]
[   0.144645  0.0964297  0.0964297  ]
Minimum fftbox size, Smin = [  24  92  128  ]
Chosen fftbox size, S = [  24  96  128  ]

---------- Exchange Correlation functional ----------
Initalized PBE GGA exchange.
Initalized PBE GGA correlation.

---------- Setting up pseudopotentials ----------
Width of ionic core gaussian charges (only for fluid interactions / plotting) set to 0

Reading pseudopotential file '/projects/musgravc/apps/jdftx-1.6.0/build/pseudopotentials/GBRV_v1.5/ag_pbe_v1.4.uspp':
  Title: Ag.  Created by USPP 7.3.6 on 1-4-15
  Reference state energy: -147.606242.  19 valence electrons in orbitals:
    |400>  occupation: 2  eigenvalue: -3.637437
    |410>  occupation: 6  eigenvalue: -2.297267
    |420>  occupation: 10  eigenvalue: -0.417763
    |500>  occupation: 0.5  eigenvalue: -0.283525
    |510>  occupation: 0  eigenvalue: -0.122889
  lMax: 2  lLocal: 0  QijEcut: 5.5
  6 projectors sampled on a log grid with 717 points:
    l: 0  eig: -0.283528  rCut: 1.5
    l: 0  eig: -3.637440  rCut: 1.5
    l: 1  eig: -0.122892  rCut: 1.5
    l: 1  eig: -2.297267  rCut: 1.5
    l: 2  eig: -0.417762  rCut: 1.7
    l: 2  eig: -1.000000  rCut: 1.7
  Partial core density with radius 1.2
  Transforming core density to a uniform radial grid of dG=0.02 with 1165 points.
  Transforming local potential to a uniform radial grid of dG=0.02 with 1165 points.
  Transforming nonlocal projectors to a uniform radial grid of dG=0.02 with 432 points.
  Transforming density augmentations to a uniform radial grid of dG=0.02 with 1165 points.
  Transforming atomic orbitals to a uniform radial grid of dG=0.02 with 432 points.
  Core radius for overlap checks: 1.70 bohrs.

Initialized 1 species with 34 total atoms.

Folded 1 k-points by 8x2x1 to 16 k-points.

---------- Setting up k-points, bands, fillings ----------
No reducable k-points. 
Computing the number of bands and number of electrons
Calculating initial fillings.
nElectrons: 646.000000   nBands: 388   nStates: 32

----- Setting up reduced wavefunction bases (one per k-point) -----
average nbasis = 16354.312 , ideal nbasis = 16357.168

----- Initializing Supercell corresponding to k-point mesh -----
Lattice vector linear combinations in supercell:
[   8   0   0  ]
[   0   2   0  ]
[   0   0   1  ]
Supercell lattice vectors:
[  0  -30.6627  22.997  ]
[  30.6627  22.997  15.3313  ]
[  -30.6627  22.997  15.3313  ]

Initializing DFT-D3 calculator:
	Parameters set for gga-PBE functional
	s6:  1.000  s_r6:  1.217
	s8:  0.722  s_r8:  1.000
	Per-atom parameters loaded for:
	Ag:  sqrtQ[a0]:  5.443  Rcov[a0]:  2.173  CN: [ 0.00 0.97 ]

---------- Setting up ewald sum ----------
Optimum gaussian width for ewald sums = 3.467528 bohr.
Real space sum over 833 unit cells with max indices [  8  3  3  ]
Reciprocal space sum over 6417 terms with max indices [  4  11  15  ]

Computing DFT-D3 correction:
# coordination-number Ag 9.216 9.216 9.216 9.216 9.216 9.216 9.216 9.216 9.216 9.216 9.216 9.216 9.216 9.216 9.216 9.216 9.216 9.216 9.216 9.216 9.216 9.216 9.216 9.216 9.216 9.216 9.216 9.216 9.216 9.216 9.216 9.216 9.216 9.216
# diagonal-C6 Ag 268.61 268.61 268.61 268.61 268.61 268.61 268.61 268.61 268.61 268.61 268.61 268.61 268.61 268.61 268.61 268.61 268.61 268.61 268.61 268.61 268.61 268.61 268.61 268.61 268.61 268.61 268.61 268.61 268.61 268.61 268.61 268.61 268.61 268.61
EvdW_6 =   -0.285887
EvdW_8 =   -0.354917

---------- Allocating electronic variables ----------
Initializing wave functions:  linear combination of atomic orbitals
Ag pseudo-atom occupations:   s ( 2 1 )  p ( 6 0 )  d ( 10 )
	FillingsUpdate:  mu: +0.643269076  nElectrons: 646.000000  magneticMoment: [ Abs: 0.01925  Tot: +0.00003 ]
LCAOMinimize: Iter:   0  F: -5018.4930113894106398  |grad|_K:  4.841e-04  alpha:  1.000e+00
	FillingsUpdate:  mu: +0.656623834  nElectrons: 646.000000  magneticMoment: [ Abs: 0.00852  Tot: +0.00001 ]
LCAOMinimize: Iter:   1  F: -5018.8787135547318030  |grad|_K:  1.716e-05  alpha:  5.757e-01  linmin:  3.234e-01  cgtest: -1.048e+00  t[s]:     80.01
	FillingsUpdate:  mu: +0.656630836  nElectrons: 646.000000  magneticMoment: [ Abs: 0.00851  Tot: +0.00001 ]
LCAOMinimize: Iter:   2  F: -5018.8787216525033728  |grad|_K:  1.734e-05  alpha:  3.715e-01  linmin:  4.520e-07  cgtest:  9.759e-01  t[s]:    110.00
	FillingsUpdate:  mu: +0.656179224  nElectrons: 646.000000  magneticMoment: [ Abs: 0.00879  Tot: +0.00001 ]
LCAOMinimize: Iter:   3  F: -5018.8791713925675140  |grad|_K:  2.093e-05  alpha:  4.773e-01  linmin:  4.287e-04  cgtest: -4.766e-03  t[s]:    139.64
	FillingsUpdate:  mu: +0.656122262  nElectrons: 646.000000  magneticMoment: [ Abs: 0.00885  Tot: +0.00001 ]
LCAOMinimize: Iter:   4  F: -5018.8792505162236921  |grad|_K:  6.022e-06  alpha:  5.621e-02  linmin: -6.533e-03  cgtest:  1.214e-01  t[s]:    169.32
	FillingsUpdate:  mu: +0.656111014  nElectrons: 646.000000  magneticMoment: [ Abs: 0.00885  Tot: +0.00001 ]
LCAOMinimize: Iter:   5  F: -5018.8792592697027430  |grad|_K:  1.148e-06  alpha:  7.565e-02  linmin:  1.340e-04  cgtest: -9.370e-02  t[s]:    198.90
	FillingsUpdate:  mu: +0.656110289  nElectrons: 646.000000  magneticMoment: [ Abs: 0.00885  Tot: +0.00001 ]
LCAOMinimize: Iter:   6  F: -5018.8792596745170158  |grad|_K:  8.945e-07  alpha:  9.792e-02  linmin: -7.643e-06  cgtest:  2.563e-03  t[s]:    228.62
	FillingsUpdate:  mu: +0.656109676  nElectrons: 646.000000  magneticMoment: [ Abs: 0.00885  Tot: +0.00001 ]
LCAOMinimize: Iter:   7  F: -5018.8792599783573678  |grad|_K:  6.518e-07  alpha:  1.209e-01  linmin: -2.189e-06  cgtest: -3.651e-04  t[s]:    258.33
LCAOMinimize: Converged (|Delta F|<1.000000e-06 for 2 iters).


---- Citations for features of the code used in this run ----

   Software package:
      R. Sundararaman, K. Letchworth-Weaver, K.A. Schwarz, D. Gunceler, Y. Ozhabes and T.A. Arias, 'JDFTx: software for joint density-functional theory', SoftwareX 6, 278 (2017)

   gga-PBE exchange-correlation functional:
      J.P. Perdew, K. Burke and M. Ernzerhof, Phys. Rev. Lett. 77, 3865 (1996)

   Pseudopotentials:
      KF Garrity, JW Bennett, KM Rabe and D Vanderbilt, Comput. Mater. Sci. 81, 446 (2014)

   DFT-D3 dispersion correction:
      S. Grimme, J. Antony, S. Ehrlich and H. Krieg, J. Chem. Phys. 132, 154104 (2010)

   Total energy minimization with Auxiliary Hamiltonian:
      C. Freysoldt, S. Boeck, and J. Neugebauer, Phys. Rev. B 79, 241103(R) (2009)

   Linear-tetrahedron sampling for density of states:
      G. Lehmann and M. Taut, Phys. status solidi (b) 54, 469 (1972)

This list may not be complete. Please suggest additional citations or
report any other bugs at https://github.com/shankar1729/jdftx/issues

Initialization completed successfully at t[s]:    268.07


Computing DFT-D3 correction:
# coordination-number Ag 9.216 9.216 9.216 9.216 9.216 9.216 9.216 9.216 9.216 9.216 9.216 9.216 9.216 9.216 9.216 9.216 9.216 9.216 9.216 9.216 9.216 9.216 9.216 9.216 9.216 9.216 9.216 9.216 9.216 9.216 9.216 9.216 9.216 9.216
# diagonal-C6 Ag 268.61 268.61 268.61 268.61 268.61 268.61 268.61 268.61 268.61 268.61 268.61 268.61 268.61 268.61 268.61 268.61 268.61 268.61 268.61 268.61 268.61 268.61 268.61 268.61 268.61 268.61 268.61 268.61 268.61 268.61 268.61 268.61 268.61 268.61
EvdW_6 =   -0.285887
EvdW_8 =   -0.354917

-------- Electronic minimization -----------
	FillingsUpdate:  mu: +0.656109677  nElectrons: 646.000000  magneticMoment: [ Abs: 0.00885  Tot: +0.00001 ]
ElecMinimize: Iter:   0  F: -5018.879259978358277  |grad|_K:  4.120e-05  alpha:  1.000e+00
	FillingsUpdate:  mu: +0.659092548  nElectrons: 646.000000  magneticMoment: [ Abs: 0.00645  Tot: +0.00001 ]
	SubspaceRotationAdjust: set factor to 1
ElecMinimize: Iter:   1  F: -5019.020225376479175  |grad|_K:  2.690e-05  alpha:  4.053e-01  linmin:  3.200e-05  t[s]:    356.46
	FillingsUpdate:  mu: +0.655097054  nElectrons: 646.000000  magneticMoment: [ Abs: 0.00452  Tot: +0.00001 ]
	SubspaceRotationAdjust: set factor to 0.965
ElecMinimize: Iter:   2  F: -5019.061262120104402  |grad|_K:  1.130e-05  alpha:  2.758e-01  linmin:  2.524e-06  t[s]:    414.20
	FillingsUpdate:  mu: +0.655553968  nElectrons: 646.000000  magneticMoment: [ Abs: 0.00296  Tot: +0.00001 ]
	SubspaceRotationAdjust: set factor to 0.59
ElecMinimize: Iter:   3  F: -5019.070383340768785  |grad|_K:  1.178e-05  alpha:  3.479e-01  linmin:  2.003e-05  t[s]:    471.77
	FillingsUpdate:  mu: +0.654533868  nElectrons: 646.000000  magneticMoment: [ Abs: 0.00258  Tot: +0.00001 ]
	SubspaceRotationAdjust: set factor to 0.331
ElecMinimize: Iter:   4  F: -5019.071994329636254  |grad|_K:  4.902e-06  alpha:  5.653e-02  linmin: -9.064e-06  t[s]:    529.27
ElecMinimize: 	Predicted alpha/alphaT>3.000000, increasing alphaT to 1.695992e-01.
	FillingsUpdate:  mu: +0.654553801  nElectrons: 646.000000  magneticMoment: [ Abs: 0.00162  Tot: +0.00001 ]
	SubspaceRotationAdjust: set factor to 0.264
ElecMinimize: Iter:   5  F: -5019.073763639932622  |grad|_K:  3.822e-06  alpha:  3.578e-01  linmin: -4.786e-06  t[s]:    601.34
	FillingsUpdate:  mu: +0.654654376  nElectrons: 646.000000  magneticMoment: [ Abs: 0.00124  Tot: +0.00001 ]
	SubspaceRotationAdjust: set factor to 0.184
ElecMinimize: Iter:   6  F: -5019.074245652142963  |grad|_K:  2.223e-06  alpha:  1.611e-01  linmin:  1.518e-05  t[s]:    659.49
	FillingsUpdate:  mu: +0.654659743  nElectrons: 646.000000  magneticMoment: [ Abs: 0.00084  Tot: +0.00001 ]
	SubspaceRotationAdjust: set factor to 0.205
ElecMinimize: Iter:   7  F: -5019.074575713618287  |grad|_K:  1.426e-06  alpha:  3.257e-01  linmin:  1.263e-06  t[s]:    717.30
	FillingsUpdate:  mu: +0.654710260  nElectrons: 646.000000  magneticMoment: [ Abs: 0.00066  Tot: +0.00001 ]
	SubspaceRotationAdjust: set factor to 0.178
ElecMinimize: Iter:   8  F: -5019.074674144882010  |grad|_K:  8.298e-07  alpha:  2.356e-01  linmin: -1.196e-06  t[s]:    775.05
	FillingsUpdate:  mu: +0.654734086  nElectrons: 646.000000  magneticMoment: [ Abs: 0.00052  Tot: +0.00001 ]
	SubspaceRotationAdjust: set factor to 0.236
ElecMinimize: Iter:   9  F: -5019.074722345007103  |grad|_K:  5.836e-07  alpha:  3.407e-01  linmin:  2.622e-07  t[s]:    832.90
	FillingsUpdate:  mu: +0.654766866  nElectrons: 646.000000  magneticMoment: [ Abs: 0.00045  Tot: +0.00001 ]
	SubspaceRotationAdjust: set factor to 0.227
ElecMinimize: Iter:  10  F: -5019.074743007699908  |grad|_K:  4.281e-07  alpha:  2.953e-01  linmin: -1.310e-06  t[s]:    891.02
	FillingsUpdate:  mu: +0.654773428  nElectrons: 646.000000  magneticMoment: [ Abs: 0.00036  Tot: +0.00000 ]
	SubspaceRotationAdjust: set factor to 0.289
ElecMinimize: Iter:  11  F: -5019.074757242238775  |grad|_K:  3.309e-07  alpha:  3.780e-01  linmin: -8.937e-08  t[s]:    948.66
	FillingsUpdate:  mu: +0.654767053  nElectrons: 646.000000  magneticMoment: [ Abs: 0.00030  Tot: +0.00000 ]
	SubspaceRotationAdjust: set factor to 0.322
ElecMinimize: Iter:  12  F: -5019.074765183914678  |grad|_K:  2.944e-07  alpha:  3.531e-01  linmin: -6.559e-08  t[s]:   1006.23
	FillingsUpdate:  mu: +0.654786333  nElectrons: 646.000000  magneticMoment: [ Abs: 0.00023  Tot: +0.00000 ]
	SubspaceRotationAdjust: set factor to 0.303
ElecMinimize: Iter:  13  F: -5019.074770977373191  |grad|_K:  2.364e-07  alpha:  3.254e-01  linmin: -8.436e-07  t[s]:   1063.98
	FillingsUpdate:  mu: +0.654806134  nElectrons: 646.000000  magneticMoment: [ Abs: 0.00018  Tot: +0.00000 ]
	SubspaceRotationAdjust: set factor to 0.331
ElecMinimize: Iter:  14  F: -5019.074774208785129  |grad|_K:  1.604e-07  alpha:  2.814e-01  linmin: -2.441e-07  t[s]:   1121.67
	FillingsUpdate:  mu: +0.654804961  nElectrons: 646.000000  magneticMoment: [ Abs: 0.00013  Tot: +0.00000 ]
	SubspaceRotationAdjust: set factor to 0.358
ElecMinimize: Iter:  15  F: -5019.074776126272809  |grad|_K:  1.107e-07  alpha:  3.628e-01  linmin:  4.414e-07  t[s]:   1179.39
	FillingsUpdate:  mu: +0.654803558  nElectrons: 646.000000  magneticMoment: [ Abs: 0.00010  Tot: +0.00000 ]
	SubspaceRotationAdjust: set factor to 0.309
ElecMinimize: Iter:  16  F: -5019.074776820696570  |grad|_K:  8.747e-08  alpha:  2.759e-01  linmin: -1.163e-08  t[s]:   1238.35
	FillingsUpdate:  mu: +0.654805272  nElectrons: 646.000000  magneticMoment: [ Abs: 0.00008  Tot: +0.00000 ]
	SubspaceRotationAdjust: set factor to 0.245
ElecMinimize: Iter:  17  F: -5019.074777196886316  |grad|_K:  5.350e-08  alpha:  2.393e-01  linmin:  4.382e-08  t[s]:   1296.04
	FillingsUpdate:  mu: +0.654806705  nElectrons: 646.000000  magneticMoment: [ Abs: 0.00006  Tot: +0.00000 ]
	SubspaceRotationAdjust: set factor to 0.278
ElecMinimize: Iter:  18  F: -5019.074777379930310  |grad|_K:  3.610e-08  alpha:  3.112e-01  linmin: -2.440e-07  t[s]:   1353.75
	FillingsUpdate:  mu: +0.654805567  nElectrons: 646.000000  magneticMoment: [ Abs: 0.00005  Tot: +0.00000 ]
	SubspaceRotationAdjust: set factor to 0.296
ElecMinimize: Iter:  19  F: -5019.074777462910788  |grad|_K:  2.520e-08  alpha:  3.099e-01  linmin:  2.622e-08  t[s]:   1411.50
	FillingsUpdate:  mu: +0.654805087  nElectrons: 646.000000  magneticMoment: [ Abs: 0.00004  Tot: +0.00000 ]
	SubspaceRotationAdjust: set factor to 0.268
ElecMinimize: Iter:  20  F: -5019.074777501782592  |grad|_K:  1.935e-08  alpha:  2.980e-01  linmin:  1.364e-07  t[s]:   1469.18
ElecMinimize: Converged (|Delta F|<1.000000e-07 for 2 iters).
Setting wave functions to eigenvectors of Hamiltonian
Converging empty states (this may take a while): |deigs|: 6.588e-04

Computing DFT-D3 correction:
# coordination-number Ag 9.216 9.216 9.216 9.216 9.216 9.216 9.216 9.216 9.216 9.216 9.216 9.216 9.216 9.216 9.216 9.216 9.216 9.216 9.216 9.216 9.216 9.216 9.216 9.216 9.216 9.216 9.216 9.216 9.216 9.216 9.216 9.216 9.216 9.216
# diagonal-C6 Ag 268.61 268.61 268.61 268.61 268.61 268.61 268.61 268.61 268.61 268.61 268.61 268.61 268.61 268.61 268.61 268.61 268.61 268.61 268.61 268.61 268.61 268.61 268.61 268.61 268.61 268.61 268.61 268.61 268.61 268.61 268.61 268.61 268.61 268.61
EvdW_6 =   -0.285887
EvdW_8 =   -0.354917

# Ionic positions in cartesian coordinates:
ion Ag  -7.665652999999999   7.665673000000001   7.665672999999999 1
ion Ag  -7.665660999999997  11.498511000000001  11.498510999999997 1
ion Ag   0.000000000000000   0.000000000000000   0.000000000000000 1
ion Ag  -0.000008000000000   3.832838000000000   3.832837999999999 1
ion Ag  -0.000000000000000   7.665665000000001   7.665664999999999 1
ion Ag  -0.000008000000000  11.498502999999999  11.498502999999998 1
ion Ag  -0.000007999999999  19.164168000000000  19.164167999999997 1
ion Ag  -7.665653000000000  15.331338000000001  15.331337999999997 1
ion Ag   7.665675999999999   7.665671999999999   7.665671999999997 1
ion Ag   7.665668000000001  11.498510000000001  11.498509999999998 1
ion Ag   7.665676000000000  15.331337000000000  15.331336999999996 1
ion Ag   7.665668000000001  19.164175000000000  19.164174999999997 1
ion Ag  -0.000000000000000  15.331330000000001  15.331329999999998 1
ion Ag  15.331320999999999  11.498502999999998  11.498502999999996 1
ion Ag  15.331328999999998  15.331328999999998  15.331328999999997 1
ion Ag  15.331320999999999  19.164166999999999  19.164166999999992 1
ion Ag   7.665676000000001  22.997001999999998  22.997001999999991 1
ion Ag  -3.832850000000000  11.498504000000001   7.665667999999998 1
ion Ag  -3.832842000000000  15.331329999999999  11.498494999999997 1
ion Ag -11.498494999999998  15.331338000000001  11.498502999999998 1
ion Ag   3.832834000000000   7.665673000000000   3.832837999999999 1
ion Ag   3.832841999999999  11.498499000000001   7.665663999999998 1
ion Ag   3.832834000000001  15.331338000000001  11.498502999999996 1
ion Ag   3.832834000000002  22.997003000000003  19.164166999999996 1
ion Ag  -3.832849999999999  19.164168000000000  15.331332999999999 1
ion Ag  11.498517999999999  11.498507000000000   7.665671999999997 1
ion Ag  11.498510000000000  15.331345000000001  11.498509999999998 1
ion Ag  11.498518000000001  19.164172000000001  15.331336999999998 1
ion Ag  11.498510000000000  22.997010000000000  19.164174999999997 1
ion Ag   3.832827000000000  19.164176000000001  15.331340999999997 1
ion Ag  19.164162999999995  15.331337000000000  11.498501999999998 1
ion Ag  19.164171000000000  19.164164000000000  15.331328999999998 1
ion Ag  -3.832841999999999   7.665665000000001   3.832829999999999 1
ion Ag -11.498502999999996  11.498511000000001   7.665675999999999 1

# Forces in Cartesian coordinates:
force Ag   0.000047498882864   0.000020155836961   0.000020104693993 1
force Ag   0.000035164410727  -0.000010723196600  -0.000010969150063 1
force Ag   0.000050726557156   0.000031286646745   0.000031333003849 1
force Ag  -0.000012463658951   0.000019587811027   0.000019700093352 1
force Ag  -0.000082834707082  -0.000000246433056  -0.000000166348788 1
force Ag  -0.000129439091786  -0.000015613381385  -0.000015564999580 1
force Ag  -0.000098478919584  -0.000001021349916  -0.000000812179612 1
force Ag   0.000017506937259  -0.000040925472782  -0.000041173887940 1
force Ag   0.000015705397200  -0.000057006543404  -0.000057236617573 1
force Ag   0.000035513642753  -0.000047904809931  -0.000048069217733 1
force Ag   0.000066490822201  -0.000019594753591  -0.000019674234915 1
force Ag   0.000091468044872   0.000007161951505   0.000007013354009 1
force Ag  -0.000135557758775  -0.000014687405760  -0.000014551945118 1
force Ag  -0.000041149153853   0.000021802144182   0.000022024922346 1
force Ag   0.000009971067898   0.000040830974011   0.000041099574641 1
force Ag   0.000042444413010   0.000040460234633   0.000040543935706 1
force Ag   0.000087538577761   0.000026508164874   0.000026389525675 1
force Ag  -0.000067518517430   0.000008451324032   0.000008669476612 1
force Ag  -0.000081532315986  -0.000018923173337  -0.000018552818972 1
force Ag   0.000087523368987  -0.000010575029975  -0.000010650075314 1
force Ag   0.000030492931714  -0.000033819596888  -0.000033936559518 1
force Ag  -0.000023977394722  -0.000042380920604  -0.000042509081197 1
force Ag  -0.000052097463693  -0.000030676225050  -0.000030695140843 1
force Ag  -0.000036710975501   0.000025939950463   0.000026057013935 1
force Ag  -0.000066717119683  -0.000034256085551  -0.000034173471187 1
force Ag  -0.000024266292389  -0.000029106339254  -0.000029144715243 1
force Ag   0.000037198393864  -0.000007882460327  -0.000008098054331 1
force Ag   0.000092877590082   0.000012073256243   0.000011745466296 1
force Ag   0.000126866581869   0.000016970012960   0.000016681861781 1
force Ag  -0.000051243200341  -0.000004528872896  -0.000004350989022 1
force Ag  -0.000024285525951   0.000048280303971   0.000048322092156 1
force Ag  -0.000027856331090   0.000054757124150   0.000054930941732 1
force Ag  -0.000044373987430   0.000037892306086   0.000038069067372 1
force Ag   0.000125637917844   0.000007770255178   0.000007630810442 1

# Energy components:
   Eewald =    -3670.5600709483046558
       EH =     1204.5668316160504219
     Eloc =    -3341.1524334496543815
      Enl =      134.0179873100510974
     EvdW =       -0.6408038603186128
      Exc =     -493.0892797287569920
 Exc_core =        7.0778046783918223
       KE =     1140.7059312688159025
-------------------------------------
     Etot =    -5019.0740331137249086
       TS =        0.0007443880572729
-------------------------------------
        F =    -5019.0747775017825916


Dumping 'jdft.fillings' ... done
Dumping 'jdft.wfns' ... done
Dumping 'jdft.ionpos' ... done
Dumping 'jdft.lattice' ... done
Dumping 'jdft.eigenvals' ... done
Dumping 'jdft.eigStats' ... 
	eMin: -2.726032 at state 16 ( [ +0.000000 +0.000000 +0.000000 ] spin -1 )
	HOMO: +0.652605 at state 18 ( [ +0.125000 +0.000000 +0.000000 ] spin -1 )
	mu  : +0.654805
	LUMO: +0.656065 at state 10 ( [ -0.375000 +0.000000 +0.000000 ] spin 1 )
	eMax: +1.163871 at state 0 ( [ +0.000000 +0.000000 +0.000000 ] spin 1 )
	HOMO-LUMO gap: +0.003461
	Optical gap  : +0.005663 at state 26 ( [ -0.375000 +0.000000 +0.000000 ] spin -1 )
Dumping 'jdft.Ecomponents' ... done
IonicMinimize: Iter:   0  F: -5019.074777501782592  |grad|_K:  4.635e-05  t[s]:   1688.93
IonicMinimize: Converged (|grad|_K<1.000000e-04).

#--- Lowdin population analysis ---
# oxidation-state Ag +0.004 +0.004 +0.004 +0.004 +0.004 +0.004 +0.004 +0.004 +0.004 +0.004 +0.004 +0.004 +0.004 +0.004 +0.004 +0.004 +0.004 +0.004 +0.004 +0.004 +0.004 +0.004 +0.004 +0.004 +0.004 +0.004 +0.004 +0.004 +0.004 +0.004 +0.004 +0.004 +0.004 +0.004
# magnetic-moments Ag +0.000 +0.000 +0.000 -0.000 -0.000 +0.000 -0.000 -0.000 +0.000 -0.000 -0.000 +0.000 +0.000 +0.000 -0.000 -0.000 +0.000 +0.000 +0.000 +0.000 -0.000 -0.000 +0.000 +0.000 +0.000 +0.000 -0.000 -0.000 +0.000 +0.000 +0.000 +0.000 -0.000 +0.000


Dumping 'jdft.n_up' ... done
Dumping 'jdft.n_dn' ... done
Dumping 'jdft.tau_up' ... done
Dumping 'jdft.tau_dn' ... done
Dumping 'jdft.eigenvals' ... done
Dumping 'jdft.eigStats' ... 
	eMin: -2.726032 at state 16 ( [ +0.000000 +0.000000 +0.000000 ] spin -1 )
	HOMO: +0.652605 at state 18 ( [ +0.125000 +0.000000 +0.000000 ] spin -1 )
	mu  : +0.654805
	LUMO: +0.656065 at state 10 ( [ -0.375000 +0.000000 +0.000000 ] spin 1 )
	eMax: +1.163871 at state 0 ( [ +0.000000 +0.000000 +0.000000 ] spin 1 )
	HOMO-LUMO gap: +0.003461
	Optical gap  : +0.005663 at state 26 ( [ -0.375000 +0.000000 +0.000000 ] spin -1 )
Dumping 'jdft.kPts' ... done
Dumping 'jdft.dosUp' ... done.
Dumping 'jdft.dosDn' ... done.
End date and time: Mon Dec  6 17:45:29 2021  (Duration: 0-0:28:46.86)
Done!
