
*************** JDFTx 1.6.0  ***************

Start date and time: Thu Feb 17 15:18:45 2022
Executable /projects/musgravc/apps/jdftx-1.6.1/build/jdftx with command-line: -i in
Running on hosts (process indices):  shas0814.rc.int.colorado.edu (0-23)
Divided in process groups (process indices):  0 (0)  1 (1)  2 (2)  3 (3)  4 (4)  5 (5)  6 (6)  7 (7)  8 (8)  9 (9)  10 (10)  11 (11)  12 (12)  13 (13)  14 (14)  15 (15)  16 (16)  17 (17)  18 (18)  19 (19)  20 (20)  21 (21)  22 (22)  23 (23)
Resource initialization completed at t[s]:      0.00
Run totals: 24 processes, 24 threads, 0 GPUs


Input parsed successfully to the following command list (including defaults):

basis kpoint-dependent
converge-empty-states yes
coords-type Cartesian
core-overlap-check none
coulomb-interaction Periodic
davidson-band-ratio 1.1
density-of-states Etol 1.000000e-06 Esigma 1.000000e-03 \
		Complete \
	Total \
	OrthoOrbital Ag 1   s \
	OrthoOrbital Ag 1   p \
	OrthoOrbital Ag 1   px \
	OrthoOrbital Ag 1   py \
	OrthoOrbital Ag 1   pz \
	OrthoOrbital Ag 1   d \
	OrthoOrbital Ag 1   dxy \
	OrthoOrbital Ag 1   dyz \
	OrthoOrbital Ag 1   dz2 \
	OrthoOrbital Ag 1   dxz \
	OrthoOrbital Ag 1   dx2-y2 \
	OrthoOrbital Ag 2   s \
	OrthoOrbital Ag 2   p \
	OrthoOrbital Ag 2   px \
	OrthoOrbital Ag 2   py \
	OrthoOrbital Ag 2   pz \
	OrthoOrbital Ag 2   d \
	OrthoOrbital Ag 2   dxy \
	OrthoOrbital Ag 2   dyz \
	OrthoOrbital Ag 2   dz2 \
	OrthoOrbital Ag 2   dxz \
	OrthoOrbital Ag 2   dx2-y2 \
	OrthoOrbital Ag 3   s \
	OrthoOrbital Ag 3   p \
	OrthoOrbital Ag 3   px \
	OrthoOrbital Ag 3   py \
	OrthoOrbital Ag 3   pz \
	OrthoOrbital Ag 3   d \
	OrthoOrbital Ag 3   dxy \
	OrthoOrbital Ag 3   dyz \
	OrthoOrbital Ag 3   dz2 \
	OrthoOrbital Ag 3   dxz \
	OrthoOrbital Ag 3   dx2-y2 \
	OrthoOrbital Ag 4   s \
	OrthoOrbital Ag 4   p \
	OrthoOrbital Ag 4   px \
	OrthoOrbital Ag 4   py \
	OrthoOrbital Ag 4   pz \
	OrthoOrbital Ag 4   d \
	OrthoOrbital Ag 4   dxy \
	OrthoOrbital Ag 4   dyz \
	OrthoOrbital Ag 4   dz2 \
	OrthoOrbital Ag 4   dxz \
	OrthoOrbital Ag 4   dx2-y2 \
	OrthoOrbital Ag 5   s \
	OrthoOrbital Ag 5   p \
	OrthoOrbital Ag 5   px \
	OrthoOrbital Ag 5   py \
	OrthoOrbital Ag 5   pz \
	OrthoOrbital Ag 5   d \
	OrthoOrbital Ag 5   dxy \
	OrthoOrbital Ag 5   dyz \
	OrthoOrbital Ag 5   dz2 \
	OrthoOrbital Ag 5   dxz \
	OrthoOrbital Ag 5   dx2-y2 \
	OrthoOrbital Ag 6   s \
	OrthoOrbital Ag 6   p \
	OrthoOrbital Ag 6   px \
	OrthoOrbital Ag 6   py \
	OrthoOrbital Ag 6   pz \
	OrthoOrbital Ag 6   d \
	OrthoOrbital Ag 6   dxy \
	OrthoOrbital Ag 6   dyz \
	OrthoOrbital Ag 6   dz2 \
	OrthoOrbital Ag 6   dxz \
	OrthoOrbital Ag 6   dx2-y2 \
	OrthoOrbital Ag 7   s \
	OrthoOrbital Ag 7   p \
	OrthoOrbital Ag 7   px \
	OrthoOrbital Ag 7   py \
	OrthoOrbital Ag 7   pz \
	OrthoOrbital Ag 7   d \
	OrthoOrbital Ag 7   dxy \
	OrthoOrbital Ag 7   dyz \
	OrthoOrbital Ag 7   dz2 \
	OrthoOrbital Ag 7   dxz \
	OrthoOrbital Ag 7   dx2-y2 \
	OrthoOrbital Ag 8   s \
	OrthoOrbital Ag 8   p \
	OrthoOrbital Ag 8   px \
	OrthoOrbital Ag 8   py \
	OrthoOrbital Ag 8   pz \
	OrthoOrbital Ag 8   d \
	OrthoOrbital Ag 8   dxy \
	OrthoOrbital Ag 8   dyz \
	OrthoOrbital Ag 8   dz2 \
	OrthoOrbital Ag 8   dxz \
	OrthoOrbital Ag 8   dx2-y2 \
	OrthoOrbital Ag 9   s \
	OrthoOrbital Ag 9   p \
	OrthoOrbital Ag 9   px \
	OrthoOrbital Ag 9   py \
	OrthoOrbital Ag 9   pz \
	OrthoOrbital Ag 9   d \
	OrthoOrbital Ag 9   dxy \
	OrthoOrbital Ag 9   dyz \
	OrthoOrbital Ag 9   dz2 \
	OrthoOrbital Ag 9   dxz \
	OrthoOrbital Ag 9   dx2-y2 \
	OrthoOrbital Ag 10   s \
	OrthoOrbital Ag 10   p \
	OrthoOrbital Ag 10   px \
	OrthoOrbital Ag 10   py \
	OrthoOrbital Ag 10   pz \
	OrthoOrbital Ag 10   d \
	OrthoOrbital Ag 10   dxy \
	OrthoOrbital Ag 10   dyz \
	OrthoOrbital Ag 10   dz2 \
	OrthoOrbital Ag 10   dxz \
	OrthoOrbital Ag 10   dx2-y2 \
	OrthoOrbital Ag 11   s \
	OrthoOrbital Ag 11   p \
	OrthoOrbital Ag 11   px \
	OrthoOrbital Ag 11   py \
	OrthoOrbital Ag 11   pz \
	OrthoOrbital Ag 11   d \
	OrthoOrbital Ag 11   dxy \
	OrthoOrbital Ag 11   dyz \
	OrthoOrbital Ag 11   dz2 \
	OrthoOrbital Ag 11   dxz \
	OrthoOrbital Ag 11   dx2-y2 \
	OrthoOrbital Ag 12   s \
	OrthoOrbital Ag 12   p \
	OrthoOrbital Ag 12   px \
	OrthoOrbital Ag 12   py \
	OrthoOrbital Ag 12   pz \
	OrthoOrbital Ag 12   d \
	OrthoOrbital Ag 12   dxy \
	OrthoOrbital Ag 12   dyz \
	OrthoOrbital Ag 12   dz2 \
	OrthoOrbital Ag 12   dxz \
	OrthoOrbital Ag 12   dx2-y2 \
	OrthoOrbital Ag 13   s \
	OrthoOrbital Ag 13   p \
	OrthoOrbital Ag 13   px \
	OrthoOrbital Ag 13   py \
	OrthoOrbital Ag 13   pz \
	OrthoOrbital Ag 13   d \
	OrthoOrbital Ag 13   dxy \
	OrthoOrbital Ag 13   dyz \
	OrthoOrbital Ag 13   dz2 \
	OrthoOrbital Ag 13   dxz \
	OrthoOrbital Ag 13   dx2-y2 \
	OrthoOrbital Ag 14   s \
	OrthoOrbital Ag 14   p \
	OrthoOrbital Ag 14   px \
	OrthoOrbital Ag 14   py \
	OrthoOrbital Ag 14   pz \
	OrthoOrbital Ag 14   d \
	OrthoOrbital Ag 14   dxy \
	OrthoOrbital Ag 14   dyz \
	OrthoOrbital Ag 14   dz2 \
	OrthoOrbital Ag 14   dxz \
	OrthoOrbital Ag 14   dx2-y2 \
	OrthoOrbital Ag 15   s \
	OrthoOrbital Ag 15   p \
	OrthoOrbital Ag 15   px \
	OrthoOrbital Ag 15   py \
	OrthoOrbital Ag 15   pz \
	OrthoOrbital Ag 15   d \
	OrthoOrbital Ag 15   dxy \
	OrthoOrbital Ag 15   dyz \
	OrthoOrbital Ag 15   dz2 \
	OrthoOrbital Ag 15   dxz \
	OrthoOrbital Ag 15   dx2-y2 \
	OrthoOrbital Ag 16   s \
	OrthoOrbital Ag 16   p \
	OrthoOrbital Ag 16   px \
	OrthoOrbital Ag 16   py \
	OrthoOrbital Ag 16   pz \
	OrthoOrbital Ag 16   d \
	OrthoOrbital Ag 16   dxy \
	OrthoOrbital Ag 16   dyz \
	OrthoOrbital Ag 16   dz2 \
	OrthoOrbital Ag 16   dxz \
	OrthoOrbital Ag 16   dx2-y2 \
	OrthoOrbital Ag 17   s \
	OrthoOrbital Ag 17   p \
	OrthoOrbital Ag 17   px \
	OrthoOrbital Ag 17   py \
	OrthoOrbital Ag 17   pz \
	OrthoOrbital Ag 17   d \
	OrthoOrbital Ag 17   dxy \
	OrthoOrbital Ag 17   dyz \
	OrthoOrbital Ag 17   dz2 \
	OrthoOrbital Ag 17   dxz \
	OrthoOrbital Ag 17   dx2-y2 \
	OrthoOrbital Ag 18   s \
	OrthoOrbital Ag 18   p \
	OrthoOrbital Ag 18   px \
	OrthoOrbital Ag 18   py \
	OrthoOrbital Ag 18   pz \
	OrthoOrbital Ag 18   d \
	OrthoOrbital Ag 18   dxy \
	OrthoOrbital Ag 18   dyz \
	OrthoOrbital Ag 18   dz2 \
	OrthoOrbital Ag 18   dxz \
	OrthoOrbital Ag 18   dx2-y2 \
	OrthoOrbital Ag 19   s \
	OrthoOrbital Ag 19   p \
	OrthoOrbital Ag 19   px \
	OrthoOrbital Ag 19   py \
	OrthoOrbital Ag 19   pz \
	OrthoOrbital Ag 19   d \
	OrthoOrbital Ag 19   dxy \
	OrthoOrbital Ag 19   dyz \
	OrthoOrbital Ag 19   dz2 \
	OrthoOrbital Ag 19   dxz \
	OrthoOrbital Ag 19   dx2-y2 \
	OrthoOrbital Ag 20   s \
	OrthoOrbital Ag 20   p \
	OrthoOrbital Ag 20   px \
	OrthoOrbital Ag 20   py \
	OrthoOrbital Ag 20   pz \
	OrthoOrbital Ag 20   d \
	OrthoOrbital Ag 20   dxy \
	OrthoOrbital Ag 20   dyz \
	OrthoOrbital Ag 20   dz2 \
	OrthoOrbital Ag 20   dxz \
	OrthoOrbital Ag 20   dx2-y2 \
	OrthoOrbital Ag 21   s \
	OrthoOrbital Ag 21   p \
	OrthoOrbital Ag 21   px \
	OrthoOrbital Ag 21   py \
	OrthoOrbital Ag 21   pz \
	OrthoOrbital Ag 21   d \
	OrthoOrbital Ag 21   dxy \
	OrthoOrbital Ag 21   dyz \
	OrthoOrbital Ag 21   dz2 \
	OrthoOrbital Ag 21   dxz \
	OrthoOrbital Ag 21   dx2-y2 \
	OrthoOrbital Ag 22   s \
	OrthoOrbital Ag 22   p \
	OrthoOrbital Ag 22   px \
	OrthoOrbital Ag 22   py \
	OrthoOrbital Ag 22   pz \
	OrthoOrbital Ag 22   d \
	OrthoOrbital Ag 22   dxy \
	OrthoOrbital Ag 22   dyz \
	OrthoOrbital Ag 22   dz2 \
	OrthoOrbital Ag 22   dxz \
	OrthoOrbital Ag 22   dx2-y2 \
	OrthoOrbital Ag 23   s \
	OrthoOrbital Ag 23   p \
	OrthoOrbital Ag 23   px \
	OrthoOrbital Ag 23   py \
	OrthoOrbital Ag 23   pz \
	OrthoOrbital Ag 23   d \
	OrthoOrbital Ag 23   dxy \
	OrthoOrbital Ag 23   dyz \
	OrthoOrbital Ag 23   dz2 \
	OrthoOrbital Ag 23   dxz \
	OrthoOrbital Ag 23   dx2-y2 \
	OrthoOrbital Ag 24   s \
	OrthoOrbital Ag 24   p \
	OrthoOrbital Ag 24   px \
	OrthoOrbital Ag 24   py \
	OrthoOrbital Ag 24   pz \
	OrthoOrbital Ag 24   d \
	OrthoOrbital Ag 24   dxy \
	OrthoOrbital Ag 24   dyz \
	OrthoOrbital Ag 24   dz2 \
	OrthoOrbital Ag 24   dxz \
	OrthoOrbital Ag 24   dx2-y2 \
	OrthoOrbital Ag 25   s \
	OrthoOrbital Ag 25   p \
	OrthoOrbital Ag 25   px \
	OrthoOrbital Ag 25   py \
	OrthoOrbital Ag 25   pz \
	OrthoOrbital Ag 25   d \
	OrthoOrbital Ag 25   dxy \
	OrthoOrbital Ag 25   dyz \
	OrthoOrbital Ag 25   dz2 \
	OrthoOrbital Ag 25   dxz \
	OrthoOrbital Ag 25   dx2-y2 \
	OrthoOrbital Ag 26   s \
	OrthoOrbital Ag 26   p \
	OrthoOrbital Ag 26   px \
	OrthoOrbital Ag 26   py \
	OrthoOrbital Ag 26   pz \
	OrthoOrbital Ag 26   d \
	OrthoOrbital Ag 26   dxy \
	OrthoOrbital Ag 26   dyz \
	OrthoOrbital Ag 26   dz2 \
	OrthoOrbital Ag 26   dxz \
	OrthoOrbital Ag 26   dx2-y2 \
	OrthoOrbital Ag 27   s \
	OrthoOrbital Ag 27   p \
	OrthoOrbital Ag 27   px \
	OrthoOrbital Ag 27   py \
	OrthoOrbital Ag 27   pz \
	OrthoOrbital Ag 27   d \
	OrthoOrbital Ag 27   dxy \
	OrthoOrbital Ag 27   dyz \
	OrthoOrbital Ag 27   dz2 \
	OrthoOrbital Ag 27   dxz \
	OrthoOrbital Ag 27   dx2-y2 \
	OrthoOrbital Ag 28   s \
	OrthoOrbital Ag 28   p \
	OrthoOrbital Ag 28   px \
	OrthoOrbital Ag 28   py \
	OrthoOrbital Ag 28   pz \
	OrthoOrbital Ag 28   d \
	OrthoOrbital Ag 28   dxy \
	OrthoOrbital Ag 28   dyz \
	OrthoOrbital Ag 28   dz2 \
	OrthoOrbital Ag 28   dxz \
	OrthoOrbital Ag 28   dx2-y2 \
	OrthoOrbital Ag 29   s \
	OrthoOrbital Ag 29   p \
	OrthoOrbital Ag 29   px \
	OrthoOrbital Ag 29   py \
	OrthoOrbital Ag 29   pz \
	OrthoOrbital Ag 29   d \
	OrthoOrbital Ag 29   dxy \
	OrthoOrbital Ag 29   dyz \
	OrthoOrbital Ag 29   dz2 \
	OrthoOrbital Ag 29   dxz \
	OrthoOrbital Ag 29   dx2-y2 \
	OrthoOrbital Ag 30   s \
	OrthoOrbital Ag 30   p \
	OrthoOrbital Ag 30   px \
	OrthoOrbital Ag 30   py \
	OrthoOrbital Ag 30   pz \
	OrthoOrbital Ag 30   d \
	OrthoOrbital Ag 30   dxy \
	OrthoOrbital Ag 30   dyz \
	OrthoOrbital Ag 30   dz2 \
	OrthoOrbital Ag 30   dxz \
	OrthoOrbital Ag 30   dx2-y2 \
	OrthoOrbital Ag 31   s \
	OrthoOrbital Ag 31   p \
	OrthoOrbital Ag 31   px \
	OrthoOrbital Ag 31   py \
	OrthoOrbital Ag 31   pz \
	OrthoOrbital Ag 31   d \
	OrthoOrbital Ag 31   dxy \
	OrthoOrbital Ag 31   dyz \
	OrthoOrbital Ag 31   dz2 \
	OrthoOrbital Ag 31   dxz \
	OrthoOrbital Ag 31   dx2-y2 \
	OrthoOrbital Ag 32   s \
	OrthoOrbital Ag 32   p \
	OrthoOrbital Ag 32   px \
	OrthoOrbital Ag 32   py \
	OrthoOrbital Ag 32   pz \
	OrthoOrbital Ag 32   d \
	OrthoOrbital Ag 32   dxy \
	OrthoOrbital Ag 32   dyz \
	OrthoOrbital Ag 32   dz2 \
	OrthoOrbital Ag 32   dxz \
	OrthoOrbital Ag 32   dx2-y2 \
	OrthoOrbital Ag 33   s \
	OrthoOrbital Ag 33   p \
	OrthoOrbital Ag 33   px \
	OrthoOrbital Ag 33   py \
	OrthoOrbital Ag 33   pz \
	OrthoOrbital Ag 33   d \
	OrthoOrbital Ag 33   dxy \
	OrthoOrbital Ag 33   dyz \
	OrthoOrbital Ag 33   dz2 \
	OrthoOrbital Ag 33   dxz \
	OrthoOrbital Ag 33   dx2-y2 \
	OrthoOrbital Ag 34   s \
	OrthoOrbital Ag 34   p \
	OrthoOrbital Ag 34   px \
	OrthoOrbital Ag 34   py \
	OrthoOrbital Ag 34   pz \
	OrthoOrbital Ag 34   d \
	OrthoOrbital Ag 34   dxy \
	OrthoOrbital Ag 34   dyz \
	OrthoOrbital Ag 34   dz2 \
	OrthoOrbital Ag 34   dxz \
	OrthoOrbital Ag 34   dx2-y2 \
	OrthoOrbital Ag 35   s \
	OrthoOrbital Ag 35   p \
	OrthoOrbital Ag 35   px \
	OrthoOrbital Ag 35   py \
	OrthoOrbital Ag 35   pz \
	OrthoOrbital Ag 35   d \
	OrthoOrbital Ag 35   dxy \
	OrthoOrbital Ag 35   dyz \
	OrthoOrbital Ag 35   dz2 \
	OrthoOrbital Ag 35   dxz \
	OrthoOrbital Ag 35   dx2-y2 \
	OrthoOrbital Ag 36   s \
	OrthoOrbital Ag 36   p \
	OrthoOrbital Ag 36   px \
	OrthoOrbital Ag 36   py \
	OrthoOrbital Ag 36   pz \
	OrthoOrbital Ag 36   d \
	OrthoOrbital Ag 36   dxy \
	OrthoOrbital Ag 36   dyz \
	OrthoOrbital Ag 36   dz2 \
	OrthoOrbital Ag 36   dxz \
	OrthoOrbital Ag 36   dx2-y2 \
	OrthoOrbital Ag 37   s \
	OrthoOrbital Ag 37   p \
	OrthoOrbital Ag 37   px \
	OrthoOrbital Ag 37   py \
	OrthoOrbital Ag 37   pz \
	OrthoOrbital Ag 37   d \
	OrthoOrbital Ag 37   dxy \
	OrthoOrbital Ag 37   dyz \
	OrthoOrbital Ag 37   dz2 \
	OrthoOrbital Ag 37   dxz \
	OrthoOrbital Ag 37   dx2-y2 \
	OrthoOrbital Ag 38   s \
	OrthoOrbital Ag 38   p \
	OrthoOrbital Ag 38   px \
	OrthoOrbital Ag 38   py \
	OrthoOrbital Ag 38   pz \
	OrthoOrbital Ag 38   d \
	OrthoOrbital Ag 38   dxy \
	OrthoOrbital Ag 38   dyz \
	OrthoOrbital Ag 38   dz2 \
	OrthoOrbital Ag 38   dxz \
	OrthoOrbital Ag 38   dx2-y2 \
	OrthoOrbital Ag 39   s \
	OrthoOrbital Ag 39   p \
	OrthoOrbital Ag 39   px \
	OrthoOrbital Ag 39   py \
	OrthoOrbital Ag 39   pz \
	OrthoOrbital Ag 39   d \
	OrthoOrbital Ag 39   dxy \
	OrthoOrbital Ag 39   dyz \
	OrthoOrbital Ag 39   dz2 \
	OrthoOrbital Ag 39   dxz \
	OrthoOrbital Ag 39   dx2-y2 \
	OrthoOrbital Ag 40   s \
	OrthoOrbital Ag 40   p \
	OrthoOrbital Ag 40   px \
	OrthoOrbital Ag 40   py \
	OrthoOrbital Ag 40   pz \
	OrthoOrbital Ag 40   d \
	OrthoOrbital Ag 40   dxy \
	OrthoOrbital Ag 40   dyz \
	OrthoOrbital Ag 40   dz2 \
	OrthoOrbital Ag 40   dxz \
	OrthoOrbital Ag 40   dx2-y2 \
	OrthoOrbital Ag 41   s \
	OrthoOrbital Ag 41   p \
	OrthoOrbital Ag 41   px \
	OrthoOrbital Ag 41   py \
	OrthoOrbital Ag 41   pz \
	OrthoOrbital Ag 41   d \
	OrthoOrbital Ag 41   dxy \
	OrthoOrbital Ag 41   dyz \
	OrthoOrbital Ag 41   dz2 \
	OrthoOrbital Ag 41   dxz \
	OrthoOrbital Ag 41   dx2-y2 \
	OrthoOrbital Ag 42   s \
	OrthoOrbital Ag 42   p \
	OrthoOrbital Ag 42   px \
	OrthoOrbital Ag 42   py \
	OrthoOrbital Ag 42   pz \
	OrthoOrbital Ag 42   d \
	OrthoOrbital Ag 42   dxy \
	OrthoOrbital Ag 42   dyz \
	OrthoOrbital Ag 42   dz2 \
	OrthoOrbital Ag 42   dxz \
	OrthoOrbital Ag 42   dx2-y2 \
	OrthoOrbital Ag 43   s \
	OrthoOrbital Ag 43   p \
	OrthoOrbital Ag 43   px \
	OrthoOrbital Ag 43   py \
	OrthoOrbital Ag 43   pz \
	OrthoOrbital Ag 43   d \
	OrthoOrbital Ag 43   dxy \
	OrthoOrbital Ag 43   dyz \
	OrthoOrbital Ag 43   dz2 \
	OrthoOrbital Ag 43   dxz \
	OrthoOrbital Ag 43   dx2-y2 \
	OrthoOrbital Ag 44   s \
	OrthoOrbital Ag 44   p \
	OrthoOrbital Ag 44   px \
	OrthoOrbital Ag 44   py \
	OrthoOrbital Ag 44   pz \
	OrthoOrbital Ag 44   d \
	OrthoOrbital Ag 44   dxy \
	OrthoOrbital Ag 44   dyz \
	OrthoOrbital Ag 44   dz2 \
	OrthoOrbital Ag 44   dxz \
	OrthoOrbital Ag 44   dx2-y2 \
	OrthoOrbital C 1   s \
	OrthoOrbital C 1   p \
	OrthoOrbital C 1   px \
	OrthoOrbital C 1   py \
	OrthoOrbital C 1   pz \
	OrthoOrbital O 1   s \
	OrthoOrbital O 1   p \
	OrthoOrbital O 1   px \
	OrthoOrbital O 1   py \
	OrthoOrbital O 1   pz
dump End ElecDensity KEdensity BandEigs EigStats RhoAtom DOS Kpoints
dump Ionic State IonicPositions Lattice EigStats Ecomponents
dump 
dump 
dump 
dump 
dump 
dump 
dump 
dump 
dump-name jdft.$VAR
elec-cutoff 20
elec-eigen-algo Davidson
elec-ex-corr gga-PBE
elec-initial-magnetization 0.000000 no
elec-n-bands 508
elec-smearing Fermi 0.001
electronic-minimize  \
	dirUpdateScheme      FletcherReeves \
	linminMethod         DirUpdateRecommended \
	nIterations          100 \
	history              15 \
	knormThreshold       0 \
	energyDiffThreshold  1e-07 \
	nEnergyDiff          2 \
	alphaTstart          1 \
	alphaTmin            1e-10 \
	updateTestStepSize   yes \
	alphaTreduceFactor   0.1 \
	alphaTincreaseFactor 3 \
	nAlphaAdjustMax      3 \
	wolfeEnergy          0.0001 \
	wolfeGradient        0.9 \
	fdTest               no
exchange-regularization WignerSeitzTruncated
fluid LinearPCM 298.000000 1.013250
fluid-anion F- 0.5 MeanFieldLJ \
	epsBulk 1 \
	pMol 0 \
	epsInf 1 \
	Pvap 0 \
	sigmaBulk 0 \
	Rvdw 2.24877 \
	Res 0 \
	tauNuc 343133
fluid-cation Na+ 0.5 MeanFieldLJ \
	epsBulk 1 \
	pMol 0 \
	epsInf 1 \
	Pvap 0 \
	sigmaBulk 0 \
	Rvdw 2.19208 \
	Res 0 \
	tauNuc 343133
fluid-ex-corr lda-TF lda-PZ
fluid-gummel-loop 10 1.000000e-05
fluid-minimize  \
	dirUpdateScheme      PolakRibiere \
	linminMethod         DirUpdateRecommended \
	nIterations          400 \
	history              15 \
	knormThreshold       1e-11 \
	energyDiffThreshold  0 \
	nEnergyDiff          2 \
	alphaTstart          1 \
	alphaTmin            1e-10 \
	updateTestStepSize   yes \
	alphaTreduceFactor   0.1 \
	alphaTincreaseFactor 3 \
	nAlphaAdjustMax      6 \
	wolfeEnergy          0.0001 \
	wolfeGradient        0.9 \
	fdTest               no
fluid-solvent H2O 55.338 ScalarEOS \
	epsBulk 78.4 \
	pMol 0.92466 \
	epsInf 1.77 \
	Pvap 1.06736e-10 \
	sigmaBulk 4.62e-05 \
	Rvdw 2.61727 \
	Res 1.42 \
	tauNuc 343133 \
	poleEl 15 7 1
forces-output-coords Positions
ion Ag   5.418985000000000  17.916208999999998  24.352492999999999 0
ion Ag   8.129208000000002   8.927417000000000  24.352492999999999 0
ion Ag  -0.001462000000000  17.916208999999998  24.352492999999999 0
ion Ag   2.708761000000000   8.927417000000000  24.352492999999999 0
ion Ag   0.003914000000000   4.966559000000001   1.084289000000000 0
ion Ag  -2.706308000000000  13.955352000000000   1.084289000000000 0
ion Ag   5.424361000000001   4.966559000000001   1.084289000000000 0
ion Ag   2.714139000000000  13.955352000000000   1.084289000000000 0
ion Ag   2.709345000000000   0.833333000000000   3.222739000000000 0
ion Ag  -0.000877000000000   9.822125000000000   3.222739000000000 0
ion Ag   8.129792000000002   0.833333000000000   3.222739000000000 0
ion Ag   5.419570000000000   9.822125000000000   3.222739000000000 0
ion Ag   2.711276000000000   5.752503000000000   5.690305000000000 0
ion Ag   0.001053000000000  14.741296000000000   5.690305000000000 0
ion Ag   8.131722999999999   5.752503000000000   5.690305000000000 0
ion Ag   5.421499999999999  14.741296000000000   5.690305000000000 0
ion Ag  -0.000162000000000   1.629201000000000   8.015547000000000 0
ion Ag  -2.710385000000000  10.617993000000000   8.015547000000000 0
ion Ag   5.420285000000001   1.629201000000000   8.015547000000000 0
ion Ag   2.710062000000000  10.617993000000000   8.015547000000000 0
ion Ag   0.001155000000000   6.527859000000001  10.364280000000001 0
ion Ag  -2.709073000000001  15.516669000000000  10.364280000000001 0
ion Ag   5.421591000000001   6.527859000000001  10.364280000000001 0
ion Ag   2.711374000000000  15.516669000000000  10.364280000000001 0
ion Ag   2.708728000000000   2.450992000000000  12.706224999999998 0
ion Ag  -0.001495000000000  11.439784000000001  12.706224999999998 0
ion Ag   8.129175000000000   2.450992000000000  12.706224999999998 0
ion Ag   5.418952000000000  11.439784000000001  12.706224999999998 0
ion Ag   2.710154000000000   7.363277000000001  15.052365999999999 0
ion Ag  -0.000069000000000  16.352069000000000  15.052365999999999 0
ion Ag   8.130600999999999   7.363277000000001  15.052365999999999 0
ion Ag   5.420378000000001  16.352069000000000  15.052365999999999 0
ion Ag  -0.001848000000000   3.271759000000000  17.403769000000000 0
ion Ag  -2.712071000000000  12.260551000000000  17.403769000000000 0
ion Ag   5.418599000000000   3.271759000000000  17.403769000000000 0
ion Ag   2.708376000000000  12.260551000000000  17.403769000000000 0
ion Ag   0.000798000000000   8.138866000000000  19.733052999999998 0
ion Ag  -2.709425000000000  17.127658000000000  19.733052999999998 0
ion Ag   5.421234000000001   8.138866000000000  19.733052999999998 0
ion Ag   2.711022000000001  17.127658000000000  19.733052999999998 0
ion Ag   2.709254000000000   4.070970000000000  22.208093000000002 0
ion Ag  -0.000974000000000  13.059780000000000  22.208093000000002 0
ion Ag   8.129701000000001   4.070970000000000  22.208093000000002 0
ion Ag   5.419473000000002  13.059780000000000  22.208093000000002 0
ion C   5.418984000000000   8.927417000000000  26.606496000000000 1  Linear 0 0 1
ion O   5.479075000000000   8.927417000000000  28.761879000000000 1  Linear 0 0 1
ion-species /projects/musgravc/apps/jdftx-1.6.0/build/pseudopotentials/GBRV_v1.5/$ID_pbe_v1.uspp
ion-species /projects/musgravc/apps/jdftx-1.6.0/build/pseudopotentials/GBRV_v1.5/$ID_pbe_v1.2.uspp
ion-species /projects/musgravc/apps/jdftx-1.6.0/build/pseudopotentials/GBRV_v1.5/$ID_pbe_v1.4.uspp
ion-species /projects/musgravc/apps/jdftx-1.6.0/build/pseudopotentials/GBRV_v1.5/$ID_pbe_v1.5.uspp
ion-width Ecut
ionic-minimize  \
	dirUpdateScheme      L-BFGS \
	linminMethod         DirUpdateRecommended \
	nIterations          100 \
	history              15 \
	knormThreshold       0.0001 \
	energyDiffThreshold  1e-06 \
	nEnergyDiff          2 \
	alphaTstart          1 \
	alphaTmin            1e-10 \
	updateTestStepSize   yes \
	alphaTreduceFactor   0.1 \
	alphaTincreaseFactor 3 \
	nAlphaAdjustMax      3 \
	wolfeEnergy          0.0001 \
	wolfeGradient        0.9 \
	fdTest               no
kpoint   0.000000000000   0.000000000000   0.000000000000  1.00000000000000
kpoint-folding 6 3 1 
latt-move-scale 0 0 0
latt-scale 1 1 1 
lattice  \
	  10.840894000000000   -5.420445000000000    0.000000000000000  \
	   0.000000000000000   17.977584000000000    0.000000000000000  \
	   0.000000000000000    0.000000000000000   76.272437999999994 
lattice-minimize  \
	dirUpdateScheme      L-BFGS \
	linminMethod         DirUpdateRecommended \
	nIterations          0 \
	history              15 \
	knormThreshold       0 \
	energyDiffThreshold  1e-06 \
	nEnergyDiff          2 \
	alphaTstart          1 \
	alphaTmin            1e-10 \
	updateTestStepSize   yes \
	alphaTreduceFactor   0.1 \
	alphaTincreaseFactor 3 \
	nAlphaAdjustMax      3 \
	wolfeEnergy          0.0001 \
	wolfeGradient        0.9 \
	fdTest               no
lcao-params 30 1e-06 0.001
pcm-variant CANDLE
spintype z-spin
subspace-rotation-factor 1 yes
symmetries automatic
symmetry-threshold 0.0001
van-der-waals D3



---------- Setting up symmetries ----------

Found 8 point-group symmetries of the bravais lattice
Found 1 space-group symmetries with basis
Applied RMS atom displacement 0 bohrs to make symmetries exact.

---------- Initializing the Grid ----------
R = 
[      10.8409     -5.42044            0  ]
[            0      17.9776            0  ]
[            0            0      76.2724  ]
unit cell volume = 14865
G =
[   0.579582    0.17475         -0  ]
[          0   0.349501          0  ]
[          0         -0  0.0823782  ]
Minimum fftbox size, Smin = [  44  76  308  ]
Chosen fftbox size, S = [  48  80  320  ]

---------- Exchange Correlation functional ----------
Initalized PBE GGA exchange.
Initalized PBE GGA correlation.

---------- Setting up pseudopotentials ----------
Width of ionic core gaussian charges (only for fluid interactions / plotting) set to 0.397384

Reading pseudopotential file '/projects/musgravc/apps/jdftx-1.6.0/build/pseudopotentials/GBRV_v1.5/ag_pbe_v1.4.uspp':
  Title: Ag.  Created by USPP 7.3.6 on 1-4-15
  Reference state energy: -147.606242.  19 valence electrons in orbitals:
    |400>  occupation: 2  eigenvalue: -3.637437
    |410>  occupation: 6  eigenvalue: -2.297267
    |420>  occupation: 10  eigenvalue: -0.417763
    |500>  occupation: 0.5  eigenvalue: -0.283525
    |510>  occupation: 0  eigenvalue: -0.122889
  lMax: 2  lLocal: 0  QijEcut: 5.5
  6 projectors sampled on a log grid with 717 points:
    l: 0  eig: -0.283528  rCut: 1.5
    l: 0  eig: -3.637440  rCut: 1.5
    l: 1  eig: -0.122892  rCut: 1.5
    l: 1  eig: -2.297267  rCut: 1.5
    l: 2  eig: -0.417762  rCut: 1.7
    l: 2  eig: -1.000000  rCut: 1.7
  Partial core density with radius 1.2
  Transforming core density to a uniform radial grid of dG=0.02 with 1326 points.
  Transforming local potential to a uniform radial grid of dG=0.02 with 1326 points.
  Transforming nonlocal projectors to a uniform radial grid of dG=0.02 with 432 points.
  Transforming density augmentations to a uniform radial grid of dG=0.02 with 1326 points.
  Transforming atomic orbitals to a uniform radial grid of dG=0.02 with 432 points.
  Core radius for overlap checks: 1.70 bohrs.

Reading pseudopotential file '/projects/musgravc/apps/jdftx-1.6.0/build/pseudopotentials/GBRV_v1.5/c_pbe_v1.2.uspp':
  Title: C.  Created by USPP 7.3.6 on 3-2-2014
  Reference state energy: -5.406344.  4 valence electrons in orbitals:
    |200>  occupation: 2  eigenvalue: -0.504890
    |210>  occupation: 2  eigenvalue: -0.194356
  lMax: 1  lLocal: 2  QijEcut: 5
  4 projectors sampled on a log grid with 503 points:
    l: 0  eig: -0.504890  rCut: 1.3
    l: 0  eig: 0.000000  rCut: 1.3
    l: 1  eig: -0.194357  rCut: 1.3
    l: 1  eig: 0.000000  rCut: 1.3
  Partial core density with radius 1.1
  Transforming core density to a uniform radial grid of dG=0.02 with 1326 points.
  Transforming local potential to a uniform radial grid of dG=0.02 with 1326 points.
  Transforming nonlocal projectors to a uniform radial grid of dG=0.02 with 432 points.
  Transforming density augmentations to a uniform radial grid of dG=0.02 with 1326 points.
  Transforming atomic orbitals to a uniform radial grid of dG=0.02 with 432 points.
  Core radius for overlap checks: 1.30 bohrs.

Reading pseudopotential file '/projects/musgravc/apps/jdftx-1.6.0/build/pseudopotentials/GBRV_v1.5/o_pbe_v1.2.uspp':
  Title: O.  Created by USPP 7.3.6 on 3-2-2014
  Reference state energy: -15.894388.  6 valence electrons in orbitals:
    |200>  occupation: 2  eigenvalue: -0.878823
    |210>  occupation: 4  eigenvalue: -0.332131
  lMax: 2  lLocal: 2  QijEcut: 6
  5 projectors sampled on a log grid with 511 points:
    l: 0  eig: -0.878823  rCut: 1.25
    l: 0  eig: 0.000000  rCut: 1.25
    l: 1  eig: -0.332132  rCut: 1.25
    l: 1  eig: 0.000000  rCut: 1.25
    l: 2  eig: 1.000000  rCut: 1.25
  Partial core density with radius 0.7
  Transforming core density to a uniform radial grid of dG=0.02 with 1326 points.
  Transforming local potential to a uniform radial grid of dG=0.02 with 1326 points.
  Transforming nonlocal projectors to a uniform radial grid of dG=0.02 with 432 points.
  Transforming density augmentations to a uniform radial grid of dG=0.02 with 1326 points.
  Transforming atomic orbitals to a uniform radial grid of dG=0.02 with 432 points.
  Core radius for overlap checks: 1.25 bohrs.

Initialized 3 species with 46 total atoms.

Folded 1 k-points by 6x3x1 to 18 k-points.

---------- Setting up k-points, bands, fillings ----------
Adding inversion symmetry to k-mesh for non-inversion-symmetric unit cell.
Reduced to 10 k-points under symmetry. 
Computing the number of bands and number of electrons
Calculating initial fillings.
nElectrons: 846.000000   nBands: 508   nStates: 20

----- Setting up reduced wavefunction bases (one per k-point) -----
average nbasis = 63499.389 , ideal nbasis = 63504.287

----- Initializing Supercell corresponding to k-point mesh -----
Lattice vector linear combinations in supercell:
[   6   0   0  ]
[   0   3   0  ]
[   0   0   1  ]
Supercell lattice vectors:
[  65.0454  -16.2613  0  ]
[  0  53.9328  0  ]
[  0  0  76.2724  ]

Initializing DFT-D3 calculator:
	Parameters set for gga-PBE functional
	s6:  1.000  s_r6:  1.217
	s8:  0.722  s_r8:  1.000
	Per-atom parameters loaded for:
	Ag:  sqrtQ[a0]:  5.443  Rcov[a0]:  2.173  CN: [ 0.00 0.97 ]
	 C:  sqrtQ[a0]:  3.105  Rcov[a0]:  1.417  CN: [ 0.00 0.99 2.00 3.00 3.98 ]
	 O:  sqrtQ[a0]:  2.594  Rcov[a0]:  1.191  CN: [ 0.00 0.99 1.99 ]

Initializing DFT-D2 calculator for fluid / solvation:
	Ag:  C6:  427.91 Eh-a0^6  R0: 3.097 a0
	 C:  C6:   30.35 Eh-a0^6  R0: 2.744 a0
	 O:  C6:   12.14 Eh-a0^6  R0: 2.536 a0

---------- Setting up ewald sum ----------
Optimum gaussian width for ewald sums = 5.182092 bohr.
Real space sum over 585 unit cells with max indices [  6  4  2  ]
Reciprocal space sum over 8085 terms with max indices [  5  7  24  ]

Computing DFT-D3 correction:
# coordination-number Ag 5.477 6.588 5.477 6.572 5.494 5.494 5.494 5.494 7.460 7.460 7.460 7.460 9.001 9.001 9.001 9.001 8.892 8.892 8.892 8.892 9.030 9.030 9.030 9.030 9.006 9.006 9.006 9.006 9.017 9.016 9.017 9.016 8.865 8.866 8.865 8.866 8.973 8.972 8.979 8.972 7.442 7.439 7.442 7.472
# coordination-number C 3.059
# coordination-number O 1.219
# diagonal-C6 Ag 268.61 268.61 268.61 268.61 268.61 268.61 268.61 268.61 268.61 268.61 268.61 268.61 268.61 268.61 268.61 268.61 268.61 268.61 268.61 268.61 268.61 268.61 268.61 268.61 268.61 268.61 268.61 268.61 268.61 268.61 268.61 268.61 268.61 268.61 268.61 268.61 268.61 268.61 268.61 268.61 268.61 268.61 268.61 268.61
# diagonal-C6 C 25.55
# diagonal-C6 O 12.56
EvdW_6 =   -0.282613
EvdW_8 =   -0.381490

---------- Allocating electronic variables ----------
Initializing wave functions:  linear combination of atomic orbitals
Ag pseudo-atom occupations:   s ( 2 1 )  p ( 6 0 )  d ( 10 )
C pseudo-atom occupations:   s ( 2 )  p ( 2 )
O pseudo-atom occupations:   s ( 2 )  p ( 4 )
	FillingsUpdate:  mu: -0.072950202  nElectrons: 846.000000  magneticMoment: [ Abs: 0.00232  Tot: -0.00005 ]
LCAOMinimize: Iter:   0  F: -6514.7571877886848597  |grad|_K:  2.635e-03  alpha:  1.000e+00
	FillingsUpdate:  mu: +0.076118084  nElectrons: 846.000000  magneticMoment: [ Abs: 0.00223  Tot: -0.00019 ]
LCAOMinimize: Iter:   1  F: -6515.3406686193175119  |grad|_K:  1.693e-03  alpha:  3.126e-02  linmin:  1.277e-02  cgtest: -1.776e-01  t[s]:    289.69
	FillingsUpdate:  mu: +0.124589406  nElectrons: 846.000000  magneticMoment: [ Abs: 0.00207  Tot: -0.00018 ]
LCAOMinimize: Iter:   2  F: -6515.7273164326206825  |grad|_K:  8.571e-04  alpha:  4.221e-02  linmin: -1.395e-02  cgtest:  1.989e-01  t[s]:    397.36
	FillingsUpdate:  mu: +0.057717541  nElectrons: 846.000000  magneticMoment: [ Abs: 0.00195  Tot: -0.00017 ]
LCAOMinimize: Iter:   3  F: -6516.0117446469785136  |grad|_K:  4.511e-04  alpha:  1.051e-01  linmin: -2.895e-02  cgtest: -2.346e-03  t[s]:    504.69
	FillingsUpdate:  mu: +0.111643921  nElectrons: 846.000000  magneticMoment: [ Abs: 0.00178  Tot: -0.00015 ]
LCAOMinimize: Iter:   4  F: -6516.1080390170800456  |grad|_K:  5.224e-04  alpha:  1.257e-01  linmin: -5.399e-03  cgtest: -7.111e-02  t[s]:    612.07
	FillingsUpdate:  mu: +0.132565082  nElectrons: 846.000000  magneticMoment: [ Abs: 0.00170  Tot: -0.00013 ]
LCAOMinimize: Iter:   5  F: -6516.1506672819477899  |grad|_K:  3.617e-04  alpha:  4.640e-02  linmin:  5.071e-03  cgtest: -2.160e-01  t[s]:    719.54
	FillingsUpdate:  mu: +0.104579766  nElectrons: 846.000000  magneticMoment: [ Abs: 0.00161  Tot: -0.00013 ]
LCAOMinimize: Iter:   6  F: -6516.1932423849611951  |grad|_K:  1.968e-04  alpha:  1.034e-01  linmin:  1.247e-03  cgtest:  5.123e-01  t[s]:    827.03
	FillingsUpdate:  mu: +0.105527211  nElectrons: 846.000000  magneticMoment: [ Abs: 0.00160  Tot: -0.00013 ]
LCAOMinimize: Iter:   7  F: -6516.1981758993524636  |grad|_K:  1.440e-04  alpha:  3.750e-02  linmin: -8.932e-04  cgtest:  6.775e-03  t[s]:    934.45
	FillingsUpdate:  mu: +0.110735347  nElectrons: 846.000000  magneticMoment: [ Abs: 0.00160  Tot: -0.00013 ]
LCAOMinimize: Iter:   8  F: -6516.2053977898885933  |grad|_K:  6.693e-05  alpha:  1.019e-01  linmin: -3.138e-03  cgtest:  1.032e-02  t[s]:   1041.69
	FillingsUpdate:  mu: +0.102224225  nElectrons: 846.000000  magneticMoment: [ Abs: 0.00160  Tot: -0.00013 ]
LCAOMinimize: Iter:   9  F: -6516.2065661508095218  |grad|_K:  2.126e-05  alpha:  7.616e-02  linmin:  6.373e-04  cgtest: -4.097e-02  t[s]:   1148.93
	FillingsUpdate:  mu: +0.103368380  nElectrons: 846.000000  magneticMoment: [ Abs: 0.00160  Tot: -0.00013 ]
LCAOMinimize: Iter:  10  F: -6516.2068473357394396  |grad|_K:  2.795e-05  alpha:  1.845e-01  linmin: -8.275e-05  cgtest:  5.363e-03  t[s]:   1257.82
	FillingsUpdate:  mu: +0.103730189  nElectrons: 846.000000  magneticMoment: [ Abs: 0.00160  Tot: -0.00013 ]
LCAOMinimize: Iter:  11  F: -6516.2069291585039537  |grad|_K:  9.167e-06  alpha:  3.120e-02  linmin:  1.866e-03  cgtest: -2.625e-02  t[s]:   1365.14
LCAOMinimize: 	Predicted alpha/alphaT>3.000000, increasing alphaT to 9.361175e-02.
	FillingsUpdate:  mu: +0.102900584  nElectrons: 846.000000  magneticMoment: [ Abs: 0.00160  Tot: -0.00013 ]
LCAOMinimize: Iter:  12  F: -6516.2069945670109519  |grad|_K:  5.890e-06  alpha:  2.324e-01  linmin:  4.321e-04  cgtest:  1.573e-02  t[s]:   1500.22
	FillingsUpdate:  mu: +0.103523190  nElectrons: 846.000000  magneticMoment: [ Abs: 0.00160  Tot: -0.00013 ]
LCAOMinimize: Iter:  13  F: -6516.2070093314459882  |grad|_K:  4.456e-06  alpha:  1.264e-01  linmin:  3.972e-05  cgtest:  7.774e-04  t[s]:   1607.40
	FillingsUpdate:  mu: +0.103150356  nElectrons: 846.000000  magneticMoment: [ Abs: 0.00161  Tot: -0.00013 ]
LCAOMinimize: Iter:  14  F: -6516.2070168289201320  |grad|_K:  4.283e-06  alpha:  1.119e-01  linmin:  6.979e-05  cgtest: -6.422e-04  t[s]:   1714.83
	FillingsUpdate:  mu: +0.103037157  nElectrons: 846.000000  magneticMoment: [ Abs: 0.00161  Tot: -0.00013 ]
LCAOMinimize: Iter:  15  F: -6516.2070190125950830  |grad|_K:  2.288e-06  alpha:  3.529e-02  linmin: -1.799e-05  cgtest:  1.987e-03  t[s]:   1822.52
LCAOMinimize: 	Predicted alpha/alphaT>3.000000, increasing alphaT to 1.058592e-01.
	FillingsUpdate:  mu: +0.103242833  nElectrons: 846.000000  magneticMoment: [ Abs: 0.00161  Tot: -0.00013 ]
LCAOMinimize: Iter:  16  F: -6516.2070227914191491  |grad|_K:  9.540e-07  alpha:  2.140e-01  linmin:  2.822e-04  cgtest: -6.232e-03  t[s]:   1957.78
	FillingsUpdate:  mu: +0.103171494  nElectrons: 846.000000  magneticMoment: [ Abs: 0.00161  Tot: -0.00013 ]
LCAOMinimize: Iter:  17  F: -6516.2070234105258351  |grad|_K:  8.931e-07  alpha:  2.017e-01  linmin:  2.008e-04  cgtest: -6.635e-04  t[s]:   2064.79
	FillingsUpdate:  mu: +0.103230909  nElectrons: 846.000000  magneticMoment: [ Abs: 0.00161  Tot: -0.00013 ]
LCAOMinimize: Iter:  18  F: -6516.2070235904766378  |grad|_K:  8.218e-07  alpha:  6.703e-02  linmin: -2.545e-05  cgtest:  2.770e-03  t[s]:   2172.18
LCAOMinimize: Converged (|Delta F|<1.000000e-06 for 2 iters).
----- createFluidSolver() ----- (Fluid-side solver setup)
   Initializing fluid molecule 'H2O'
     Initializing site 'O'
       Electron density: proportional to exp(-r/0.36935)*erfc((r-0.51523)/0.36823) with norm 6.826
       Charge density: gaussian nuclear width 0.478731 with net site charge 0.826
       Polarizability: cuspless exponential with width 0.32 and norm 3.73
       Hard sphere radius: 2.57003 bohrs
       Positions in reference frame:
         [ +0.000000 +0.000000 +0.000000 ]
     Initializing site 'H'
       Electron density: proportional to exp(-r/0.34641)*erfc((r-0)/0.390882) with norm 0.587
       Charge density: gaussian nuclear width 0.377945 with net site charge -0.413
       Polarizability: cuspless exponential with width 0.39 and norm 3.3
       Positions in reference frame:
         [ +0.000000 -1.441945 +1.122523 ]
         [ +0.000000 +1.441945 +1.122523 ]
     Net charge: 0   dipole magnitude: 0.927204
     Initializing spherical shell mfKernel with radius 2.61727 Bohr
     deltaS corrections:
       site 'O': -7.54299
       site 'H': -6.83917
   Initializing fluid molecule 'Na+'
     Initializing site 'Na'
       Electron density: proportional to exp(-r/0.19682)*erfc((r-0.71491)/0.41314) with norm 8.1383
       Charge density: gaussian nuclear width 0.365347 with net site charge -1
       Hard sphere radius: 1.86327 bohrs
       Positions in reference frame:
         [ +0.000000 +0.000000 +0.000000 ]
     Net charge: -1   dipole magnitude: 0
     Initializing gaussian mfKernel with width: 1.55004 Bohr
     deltaS corrections:
       site 'Na': -22.3555
   Initializing fluid molecule 'F-'
     Initializing site 'F'
       Electron density: proportional to exp(-r/0.38886)*erfc((r-0)/0.438782) with norm 8
       Charge density: gaussian nuclear width 0.374796 with net site charge 1
       Hard sphere radius: 2.39995 bohrs
       Positions in reference frame:
         [ +0.000000 +0.000000 +0.000000 ]
     Net charge: 1   dipole magnitude: 0
     Initializing gaussian mfKernel with width: 1.59012 Bohr
     deltaS corrections:
       site 'F': -9.04335

Correction to mu due to finite nuclear width = -0.0564685
   Cavity determined by nc: 0.00142 and sigma: 0.707107
   Nonlocal vdW cavity from gaussian model electron density with norm = 8 and sigma = 0.993594 bohr
   Charge asymmetry in cavity with sensitivity pCavity = 36.5 e-bohr/Eh
   Electrostatic cavity expanded by eta = 1.46 bohrs
   Weighted density cavitation model constrained by Nbulk: 0.0049383 bohr^-3, Pvap: 3.14029 kPa, Rvdw: 2.61727 bohr and sigmaBulk: 4.62e-05 Eh/bohr^2 at T: 298 K.
   Weighted density dispersion model using vdW pair potentials with single solvent site with sqrtC6eff: 0.77 SI.


---- Citations for features of the code used in this run ----

   Software package:
      R. Sundararaman, K. Letchworth-Weaver, K.A. Schwarz, D. Gunceler, Y. Ozhabes and T.A. Arias, 'JDFTx: software for joint density-functional theory', SoftwareX 6, 278 (2017)

   gga-PBE exchange-correlation functional:
      J.P. Perdew, K. Burke and M. Ernzerhof, Phys. Rev. Lett. 77, 3865 (1996)

   Pseudopotentials:
      KF Garrity, JW Bennett, KM Rabe and D Vanderbilt, Comput. Mater. Sci. 81, 446 (2014)

   DFT-D3 dispersion correction:
      S. Grimme, J. Antony, S. Ehrlich and H. Krieg, J. Chem. Phys. 132, 154104 (2010)

   DFT-D2 dispersion correction:
      S. Grimme, J. Comput. Chem. 27, 1787 (2006)

   Charge-asymmetric nonlocally-determined local-electric (CANDLE) solvation model:
      R. Sundararaman and W.A. Goddard III, J. Chem. Phys. 142, 064107 (2015)

   Total energy minimization with Auxiliary Hamiltonian:
      C. Freysoldt, S. Boeck, and J. Neugebauer, Phys. Rev. B 79, 241103(R) (2009)

   Linear-tetrahedron sampling for density of states:
      G. Lehmann and M. Taut, Phys. status solidi (b) 54, 469 (1972)

This list may not be complete. Please suggest additional citations or
report any other bugs at https://github.com/shankar1729/jdftx/issues

Initialization completed successfully at t[s]:   2207.85


Computing DFT-D3 correction:
# coordination-number Ag 5.477 6.588 5.477 6.572 5.494 5.494 5.494 5.494 7.460 7.460 7.460 7.460 9.001 9.001 9.001 9.001 8.892 8.892 8.892 8.892 9.030 9.030 9.030 9.030 9.006 9.006 9.006 9.006 9.017 9.016 9.017 9.016 8.865 8.866 8.865 8.866 8.973 8.972 8.979 8.972 7.442 7.439 7.442 7.472
# coordination-number C 3.059
# coordination-number O 1.219
# diagonal-C6 Ag 268.61 268.61 268.61 268.61 268.61 268.61 268.61 268.61 268.61 268.61 268.61 268.61 268.61 268.61 268.61 268.61 268.61 268.61 268.61 268.61 268.61 268.61 268.61 268.61 268.61 268.61 268.61 268.61 268.61 268.61 268.61 268.61 268.61 268.61 268.61 268.61 268.61 268.61 268.61 268.61 268.61 268.61 268.61 268.61
# diagonal-C6 C 25.55
# diagonal-C6 O 12.56
EvdW_6 =   -0.282613
EvdW_8 =   -0.381490
Fluid solver invoked on fresh (random / LCAO) wavefunctions
Running a vacuum solve first:

-------- Initial electronic minimization -----------
	FillingsUpdate:  mu: +0.103230910  nElectrons: 846.000000  magneticMoment: [ Abs: 0.00161  Tot: -0.00013 ]
ElecMinimize: Iter:   0  F: -6516.207023590491190  |grad|_K:  3.417e-05  alpha:  1.000e+00
	FillingsUpdate:  mu: +0.115857663  nElectrons: 846.000000  magneticMoment: [ Abs: 0.00121  Tot: -0.00013 ]
	SubspaceRotationAdjust: set factor to 1
ElecMinimize: Iter:   1  F: -6516.523312374102716  |grad|_K:  2.093e-05  alpha:  4.245e-01  linmin:  1.198e-04  t[s]:   2518.93
	FillingsUpdate:  mu: +0.111477110  nElectrons: 846.000000  magneticMoment: [ Abs: 0.00097  Tot: -0.00014 ]
	SubspaceRotationAdjust: set factor to 0.553
ElecMinimize: Iter:   2  F: -6516.583881238499089  |grad|_K:  3.186e-05  alpha:  2.241e-01  linmin:  1.356e-04  t[s]:   2720.92
	FillingsUpdate:  mu: +0.115029371  nElectrons: 846.000000  magneticMoment: [ Abs: 0.00089  Tot: -0.00015 ]
	SubspaceRotationAdjust: set factor to 0.433
ElecMinimize: Iter:   3  F: -6516.603847467999003  |grad|_K:  1.004e-05  alpha:  2.965e-02  linmin: -3.010e-04  t[s]:   2922.93
ElecMinimize: 	Predicted alpha/alphaT>3.000000, increasing alphaT to 8.894929e-02.
	FillingsUpdate:  mu: +0.109557415  nElectrons: 846.000000  magneticMoment: [ Abs: 0.00071  Tot: -0.00015 ]
	SubspaceRotationAdjust: set factor to 0.252
ElecMinimize: Iter:   4  F: -6516.620615933025874  |grad|_K:  1.403e-05  alpha:  2.491e-01  linmin:  2.284e-05  t[s]:   3175.69
	FillingsUpdate:  mu: +0.110412012  nElectrons: 846.000000  magneticMoment: [ Abs: 0.00060  Tot: -0.00015 ]
	SubspaceRotationAdjust: set factor to 0.393
ElecMinimize: Iter:   5  F: -6516.629831909443055  |grad|_K:  5.404e-06  alpha:  7.244e-02  linmin:  1.164e-06  t[s]:   3377.55
ElecMinimize: 	Predicted alpha/alphaT>3.000000, increasing alphaT to 2.173148e-01.
	FillingsUpdate:  mu: +0.113899142  nElectrons: 846.000000  magneticMoment: [ Abs: 0.00050  Tot: -0.00014 ]
	SubspaceRotationAdjust: set factor to 0.247
ElecMinimize: Iter:   6  F: -6516.633974336718893  |grad|_K:  7.086e-06  alpha:  2.190e-01  linmin: -5.353e-06  t[s]:   3630.30
	FillingsUpdate:  mu: +0.117281840  nElectrons: 846.000000  magneticMoment: [ Abs: 0.00042  Tot: -0.00014 ]
	SubspaceRotationAdjust: set factor to 0.336
ElecMinimize: Iter:   7  F: -6516.637172816811471  |grad|_K:  3.089e-06  alpha:  9.830e-02  linmin: -1.328e-07  t[s]:   3832.08
	FillingsUpdate:  mu: +0.114865280  nElectrons: 846.000000  magneticMoment: [ Abs: 0.00035  Tot: -0.00013 ]
	SubspaceRotationAdjust: set factor to 0.213
ElecMinimize: Iter:   8  F: -6516.638817475653923  |grad|_K:  3.978e-06  alpha:  2.666e-01  linmin:  3.477e-05  t[s]:   4033.96
	FillingsUpdate:  mu: +0.113250578  nElectrons: 846.000000  magneticMoment: [ Abs: 0.00031  Tot: -0.00012 ]
	SubspaceRotationAdjust: set factor to 0.234
ElecMinimize: Iter:   9  F: -6516.639954535203287  |grad|_K:  1.979e-06  alpha:  1.110e-01  linmin: -1.426e-05  t[s]:   4235.74
	FillingsUpdate:  mu: +0.115283651  nElectrons: 846.000000  magneticMoment: [ Abs: 0.00027  Tot: -0.00011 ]
	SubspaceRotationAdjust: set factor to 0.162
ElecMinimize: Iter:  10  F: -6516.640687318230448  |grad|_K:  2.171e-06  alpha:  2.884e-01  linmin:  4.432e-06  t[s]:   4437.82
	FillingsUpdate:  mu: +0.116731838  nElectrons: 846.000000  magneticMoment: [ Abs: 0.00024  Tot: -0.00010 ]
	SubspaceRotationAdjust: set factor to 0.161
ElecMinimize: Iter:  11  F: -6516.641135798693540  |grad|_K:  1.326e-06  alpha:  1.469e-01  linmin: -3.082e-06  t[s]:   4639.78
	FillingsUpdate:  mu: +0.116700381  nElectrons: 846.000000  magneticMoment: [ Abs: 0.00022  Tot: -0.00009 ]
	SubspaceRotationAdjust: set factor to 0.128
	SubspaceRotationAdjust: resetting CG because factor has changed by 0.128288
ElecMinimize: 	State modified externally: resetting search direction.
ElecMinimize: Iter:  12  F: -6516.641474567394653  |grad|_K:  1.270e-06  alpha:  2.977e-01
	FillingsUpdate:  mu: +0.116239776  nElectrons: 846.000000  magneticMoment: [ Abs: 0.00021  Tot: -0.00009 ]
	SubspaceRotationAdjust: set factor to 0.147
ElecMinimize: Iter:  13  F: -6516.641683090249899  |grad|_K:  6.119e-07  alpha:  1.995e-01  linmin:  1.169e-07  t[s]:   5139.09
ElecMinimize: 	Predicted alpha/alphaT>3.000000, increasing alphaT to 5.983832e-01.
	FillingsUpdate:  mu: +0.115623495  nElectrons: 846.000000  magneticMoment: [ Abs: 0.00019  Tot: -0.00008 ]
	SubspaceRotationAdjust: set factor to 0.169
ElecMinimize: Iter:  14  F: -6516.641830612124068  |grad|_K:  5.583e-07  alpha:  6.082e-01  linmin:  3.984e-06  t[s]:   5391.69
	FillingsUpdate:  mu: +0.116355987  nElectrons: 846.000000  magneticMoment: [ Abs: 0.00016  Tot: -0.00007 ]
	SubspaceRotationAdjust: set factor to 0.206
ElecMinimize: Iter:  15  F: -6516.641958984896519  |grad|_K:  5.223e-07  alpha:  6.362e-01  linmin:  2.958e-06  t[s]:   5593.57
	FillingsUpdate:  mu: +0.116501815  nElectrons: 846.000000  magneticMoment: [ Abs: 0.00014  Tot: -0.00006 ]
	SubspaceRotationAdjust: set factor to 0.243
ElecMinimize: Iter:  16  F: -6516.642046320964255  |grad|_K:  5.152e-07  alpha:  4.937e-01  linmin:  3.135e-06  t[s]:   5795.58
	FillingsUpdate:  mu: +0.116170931  nElectrons: 846.000000  magneticMoment: [ Abs: 0.00011  Tot: -0.00004 ]
	SubspaceRotationAdjust: set factor to 0.245
ElecMinimize: Iter:  17  F: -6516.642133396783720  |grad|_K:  5.088e-07  alpha:  5.075e-01  linmin:  1.752e-05  t[s]:   5997.34
	FillingsUpdate:  mu: +0.116547724  nElectrons: 846.000000  magneticMoment: [ Abs: 0.00009  Tot: -0.00003 ]
	SubspaceRotationAdjust: set factor to 0.185
ElecMinimize: Iter:  18  F: -6516.642174434584376  |grad|_K:  4.684e-07  alpha:  2.443e-01  linmin: -1.077e-05  t[s]:   6199.23
	FillingsUpdate:  mu: +0.117011471  nElectrons: 846.000000  magneticMoment: [ Abs: 0.00007  Tot: -0.00002 ]
	SubspaceRotationAdjust: set factor to 0.14
ElecMinimize: Iter:  19  F: -6516.642207372668054  |grad|_K:  2.993e-07  alpha:  2.302e-01  linmin:  2.837e-06  t[s]:   6401.12
	FillingsUpdate:  mu: +0.116913950  nElectrons: 846.000000  magneticMoment: [ Abs: 0.00006  Tot: -0.00001 ]
	SubspaceRotationAdjust: set factor to 0.165
ElecMinimize: Iter:  20  F: -6516.642228866002370  |grad|_K:  2.192e-07  alpha:  3.722e-01  linmin:  7.487e-06  t[s]:   6603.26
	FillingsUpdate:  mu: +0.116769027  nElectrons: 846.000000  magneticMoment: [ Abs: 0.00004  Tot: -0.00001 ]
	SubspaceRotationAdjust: set factor to 0.155
ElecMinimize: Iter:  21  F: -6516.642239080560103  |grad|_K:  1.603e-07  alpha:  3.299e-01  linmin:  1.108e-06  t[s]:   6805.55
	FillingsUpdate:  mu: +0.116847081  nElectrons: 846.000000  magneticMoment: [ Abs: 0.00003  Tot: -0.00001 ]
	SubspaceRotationAdjust: set factor to 0.135
ElecMinimize: Iter:  22  F: -6516.642245127651222  |grad|_K:  1.294e-07  alpha:  3.634e-01  linmin: -8.474e-07  t[s]:   7008.56
	FillingsUpdate:  mu: +0.116940350  nElectrons: 846.000000  magneticMoment: [ Abs: 0.00003  Tot: -0.00000 ]
	SubspaceRotationAdjust: set factor to 0.136
ElecMinimize: Iter:  23  F: -6516.642248191058570  |grad|_K:  9.289e-08  alpha:  2.822e-01  linmin: -2.491e-07  t[s]:   7210.57
	FillingsUpdate:  mu: +0.116939216  nElectrons: 846.000000  magneticMoment: [ Abs: 0.00002  Tot: -0.00000 ]
	SubspaceRotationAdjust: set factor to 0.167
ElecMinimize: Iter:  24  F: -6516.642251388152545  |grad|_K:  8.844e-08  alpha:  5.705e-01  linmin: -2.632e-06  t[s]:   7412.79
	FillingsUpdate:  mu: +0.116883788  nElectrons: 846.000000  magneticMoment: [ Abs: 0.00001  Tot: -0.00000 ]
	SubspaceRotationAdjust: set factor to 0.164
ElecMinimize: Iter:  25  F: -6516.642253163713576  |grad|_K:  7.656e-08  alpha:  3.489e-01  linmin: -2.122e-07  t[s]:   7615.55
	FillingsUpdate:  mu: +0.116851744  nElectrons: 846.000000  magneticMoment: [ Abs: 0.00001  Tot: -0.00000 ]
	SubspaceRotationAdjust: set factor to 0.167
ElecMinimize: Iter:  26  F: -6516.642254340700674  |grad|_K:  5.623e-08  alpha:  3.103e-01  linmin:  2.169e-07  t[s]:   7817.71
	FillingsUpdate:  mu: +0.116854375  nElectrons: 846.000000  magneticMoment: [ Abs: 0.00001  Tot: +0.00000 ]
	SubspaceRotationAdjust: set factor to 0.206
ElecMinimize: Iter:  27  F: -6516.642255218851460  |grad|_K:  5.160e-08  alpha:  4.297e-01  linmin:  1.690e-06  t[s]:   8019.97
	FillingsUpdate:  mu: +0.116836395  nElectrons: 846.000000  magneticMoment: [ Abs: 0.00001  Tot: +0.00000 ]
	SubspaceRotationAdjust: set factor to 0.25
ElecMinimize: Iter:  28  F: -6516.642255994893276  |grad|_K:  5.011e-08  alpha:  4.512e-01  linmin:  7.153e-08  t[s]:   8222.80
	FillingsUpdate:  mu: +0.116797342  nElectrons: 846.000000  magneticMoment: [ Abs: 0.00001  Tot: +0.00000 ]
	SubspaceRotationAdjust: set factor to 0.253
ElecMinimize: Iter:  29  F: -6516.642256610963159  |grad|_K:  5.024e-08  alpha:  3.784e-01  linmin:  2.703e-07  t[s]:   8425.26
	FillingsUpdate:  mu: +0.116782851  nElectrons: 846.000000  magneticMoment: [ Abs: 0.00001  Tot: +0.00000 ]
	SubspaceRotationAdjust: set factor to 0.199
ElecMinimize: Iter:  30  F: -6516.642256970975723  |grad|_K:  4.636e-08  alpha:  2.200e-01  linmin: -7.400e-08  t[s]:   8627.09
	FillingsUpdate:  mu: +0.116786813  nElectrons: 846.000000  magneticMoment: [ Abs: 0.00001  Tot: +0.00000 ]
	SubspaceRotationAdjust: set factor to 0.199
ElecMinimize: Iter:  31  F: -6516.642257412921936  |grad|_K:  3.273e-08  alpha:  3.179e-01  linmin:  2.583e-07  t[s]:   8829.40
	FillingsUpdate:  mu: +0.116781857  nElectrons: 846.000000  magneticMoment: [ Abs: 0.00001  Tot: +0.00000 ]
	SubspaceRotationAdjust: set factor to 0.222
ElecMinimize: Iter:  32  F: -6516.642257701711969  |grad|_K:  2.750e-08  alpha:  4.159e-01  linmin: -2.159e-07  t[s]:   9031.74
	FillingsUpdate:  mu: +0.116768237  nElectrons: 846.000000  magneticMoment: [ Abs: 0.00001  Tot: +0.00000 ]
	SubspaceRotationAdjust: set factor to 0.244
ElecMinimize: Iter:  33  F: -6516.642257888627682  |grad|_K:  2.272e-08  alpha:  3.809e-01  linmin: -4.188e-07  t[s]:   9233.87
	FillingsUpdate:  mu: +0.116766058  nElectrons: 846.000000  magneticMoment: [ Abs: 0.00001  Tot: +0.00000 ]
	SubspaceRotationAdjust: set factor to 0.223
ElecMinimize: Iter:  34  F: -6516.642257978470298  |grad|_K:  2.142e-08  alpha:  2.699e-01  linmin:  8.277e-07  t[s]:   9436.16
	FillingsUpdate:  mu: +0.116771323  nElectrons: 846.000000  magneticMoment: [ Abs: 0.00000  Tot: +0.00000 ]
	SubspaceRotationAdjust: set factor to 0.215
ElecMinimize: Iter:  35  F: -6516.642258053537262  |grad|_K:  1.689e-08  alpha:  2.540e-01  linmin:  2.151e-06  t[s]:   9638.64
ElecMinimize: Converged (|Delta F|<1.000000e-07 for 2 iters).
Setting wave functions to eigenvectors of Hamiltonian
Converging empty states (this may take a while): |deigs|: 1.075e-02
Vacuum energy after initial minimize, F = -6516.642258053537262


-------- Electronic minimization -----------
	Linear fluid (dielectric constant: 78.4, screening length: 8.12261 Bohr) occupying 0.540049 of unit cell:	Completed after 27 iterations at t[s]:  10684.66
	FillingsUpdate:  mu: -0.151278160  nElectrons: 846.000000  magneticMoment: [ Abs: 0.00000  Tot: +0.00000 ]
ElecMinimize: Iter:   0  F: -6516.643636833412529  |grad|_K:  7.089e-07  alpha:  1.000e+00
	Linear fluid (dielectric constant: 78.4, screening length: 8.12261 Bohr) occupying 0.540742 of unit cell:	Completed after 18 iterations at t[s]:  10855.26
	Linear fluid (dielectric constant: 78.4, screening length: 8.12261 Bohr) occupying 0.540810 of unit cell:	Completed after 10 iterations at t[s]:  10912.98
	FillingsUpdate:  mu: -0.147733603  nElectrons: 846.000000  magneticMoment: [ Abs: 0.00000  Tot: +0.00000 ]
	SubspaceRotationAdjust: set factor to 0.249
ElecMinimize: Iter:   1  F: -6516.643995040853952  |grad|_K:  7.321e-07  alpha:  1.099e+00  linmin: -6.491e-07  t[s]:  10991.67
	Linear fluid (dielectric constant: 78.4, screening length: 8.12261 Bohr) occupying 0.541832 of unit cell:	Completed after 15 iterations at t[s]:  11072.43
	Linear fluid (dielectric constant: 78.4, screening length: 8.12261 Bohr) occupying 0.541295 of unit cell:	Completed after 14 iterations at t[s]:  11131.17
	FillingsUpdate:  mu: -0.149144035  nElectrons: 846.000000  magneticMoment: [ Abs: 0.00000  Tot: +0.00000 ]
	SubspaceRotationAdjust: set factor to 0.264
ElecMinimize: Iter:   2  F: -6516.644174423496224  |grad|_K:  5.558e-07  alpha:  5.125e-01  linmin: -6.170e-08  t[s]:  11210.15
	Linear fluid (dielectric constant: 78.4, screening length: 8.12261 Bohr) occupying 0.541660 of unit cell:	Completed after 13 iterations at t[s]:  11290.01
	Linear fluid (dielectric constant: 78.4, screening length: 8.12261 Bohr) occupying 0.541638 of unit cell:	Completed after 2 iterations at t[s]:  11345.31
	FillingsUpdate:  mu: -0.147270264  nElectrons: 846.000000  magneticMoment: [ Abs: 0.00000  Tot: +0.00000 ]
	SubspaceRotationAdjust: set factor to 0.276
ElecMinimize: Iter:   3  F: -6516.644270665507065  |grad|_K:  3.923e-07  alpha:  4.808e-01  linmin: -7.026e-08  t[s]:  11423.79
	Linear fluid (dielectric constant: 78.4, screening length: 8.12261 Bohr) occupying 0.541820 of unit cell:	Completed after 8 iterations at t[s]:  11502.23
	Linear fluid (dielectric constant: 78.4, screening length: 8.12261 Bohr) occupying 0.541823 of unit cell:	Completed after 0 iterations at t[s]:  11556.64
	FillingsUpdate:  mu: -0.147891004  nElectrons: 846.000000  magneticMoment: [ Abs: 0.00000  Tot: +0.00000 ]
	SubspaceRotationAdjust: set factor to 0.286
ElecMinimize: Iter:   4  F: -6516.644319326581353  |grad|_K:  2.918e-07  alpha:  4.877e-01  linmin: -3.027e-07  t[s]:  11635.20
	Linear fluid (dielectric constant: 78.4, screening length: 8.12261 Bohr) occupying 0.541941 of unit cell:	Completed after 12 iterations at t[s]:  11715.05
	Linear fluid (dielectric constant: 78.4, screening length: 8.12261 Bohr) occupying 0.541922 of unit cell:	Completed after 2 iterations at t[s]:  11770.05
	FillingsUpdate:  mu: -0.147126897  nElectrons: 846.000000  magneticMoment: [ Abs: 0.00000  Tot: +0.00000 ]
	SubspaceRotationAdjust: set factor to 0.302
ElecMinimize: Iter:   5  F: -6516.644341983947925  |grad|_K:  2.023e-07  alpha:  4.070e-01  linmin:  5.663e-07  t[s]:  11848.55
	Linear fluid (dielectric constant: 78.4, screening length: 8.12261 Bohr) occupying 0.541970 of unit cell:	Completed after 8 iterations at t[s]:  11927.22
	Linear fluid (dielectric constant: 78.4, screening length: 8.12261 Bohr) occupying 0.541976 of unit cell:	Completed after 2 iterations at t[s]:  11983.01
	FillingsUpdate:  mu: -0.147335634  nElectrons: 846.000000  magneticMoment: [ Abs: 0.00000  Tot: +0.00000 ]
	SubspaceRotationAdjust: set factor to 0.319
ElecMinimize: Iter:   6  F: -6516.644354119260242  |grad|_K:  1.331e-07  alpha:  4.625e-01  linmin: -5.734e-07  t[s]:  12061.78
	Linear fluid (dielectric constant: 78.4, screening length: 8.12261 Bohr) occupying 0.541999 of unit cell:	Completed after 8 iterations at t[s]:  12140.36
	Linear fluid (dielectric constant: 78.4, screening length: 8.12261 Bohr) occupying 0.541999 of unit cell:	Completed after 0 iterations at t[s]:  12194.29
	FillingsUpdate:  mu: -0.147209133  nElectrons: 846.000000  magneticMoment: [ Abs: 0.00000  Tot: +0.00000 ]
	SubspaceRotationAdjust: set factor to 0.309
ElecMinimize: Iter:   7  F: -6516.644359410121069  |grad|_K:  1.030e-07  alpha:  4.567e-01  linmin:  5.159e-07  t[s]:  12272.64
	Linear fluid (dielectric constant: 78.4, screening length: 8.12261 Bohr) occupying 0.542012 of unit cell:	Completed after 7 iterations at t[s]:  12350.93
	Linear fluid (dielectric constant: 78.4, screening length: 8.12261 Bohr) occupying 0.542009 of unit cell:	Completed after 2 iterations at t[s]:  12406.12
	FillingsUpdate:  mu: -0.147307123  nElectrons: 846.000000  magneticMoment: [ Abs: 0.00000  Tot: +0.00000 ]
	SubspaceRotationAdjust: set factor to 0.263
ElecMinimize: Iter:   8  F: -6516.644361856100659  |grad|_K:  6.870e-08  alpha:  3.607e-01  linmin:  4.218e-07  t[s]:  12484.64
	Linear fluid (dielectric constant: 78.4, screening length: 8.12261 Bohr) occupying 0.542013 of unit cell:	Completed after 4 iterations at t[s]:  12561.96
	Linear fluid (dielectric constant: 78.4, screening length: 8.12261 Bohr) occupying 0.542013 of unit cell:	Completed after 0 iterations at t[s]:  12616.22
	FillingsUpdate:  mu: -0.147253478  nElectrons: 846.000000  magneticMoment: [ Abs: 0.00000  Tot: +0.00000 ]
	SubspaceRotationAdjust: set factor to 0.245
ElecMinimize: Iter:   9  F: -6516.644363085110854  |grad|_K:  4.296e-08  alpha:  4.020e-01  linmin: -3.662e-06  t[s]:  12694.48
	Linear fluid (dielectric constant: 78.4, screening length: 8.12261 Bohr) occupying 0.542013 of unit cell:	Completed after 2 iterations at t[s]:  12771.18
	Linear fluid (dielectric constant: 78.4, screening length: 8.12261 Bohr) occupying 0.542013 of unit cell:	Completed after 0 iterations at t[s]:  12825.46
	FillingsUpdate:  mu: -0.147256788  nElectrons: 846.000000  magneticMoment: [ Abs: 0.00000  Tot: +0.00000 ]
	SubspaceRotationAdjust: set factor to 0.295
ElecMinimize: Iter:  10  F: -6516.644363600494216  |grad|_K:  3.047e-08  alpha:  4.135e-01  linmin: -2.874e-06  t[s]:  12904.10
	Linear fluid (dielectric constant: 78.4, screening length: 8.12261 Bohr) occupying 0.542012 of unit cell:	Completed after 2 iterations at t[s]:  12980.77
	Linear fluid (dielectric constant: 78.4, screening length: 8.12261 Bohr) occupying 0.542012 of unit cell:	Completed after 0 iterations at t[s]:  13035.05
	FillingsUpdate:  mu: -0.147288575  nElectrons: 846.000000  magneticMoment: [ Abs: 0.00000  Tot: +0.00000 ]
	SubspaceRotationAdjust: set factor to 0.286
ElecMinimize: Iter:  11  F: -6516.644363826157132  |grad|_K:  2.152e-08  alpha:  3.650e-01  linmin:  5.582e-06  t[s]:  13113.40
	Linear fluid (dielectric constant: 78.4, screening length: 8.12261 Bohr) occupying 0.542011 of unit cell:	Completed after 2 iterations at t[s]:  13190.30
	Linear fluid (dielectric constant: 78.4, screening length: 8.12261 Bohr) occupying 0.542011 of unit cell:	Completed after 0 iterations at t[s]:  13244.25
	FillingsUpdate:  mu: -0.147291274  nElectrons: 846.000000  magneticMoment: [ Abs: 0.00000  Tot: +0.00000 ]
	SubspaceRotationAdjust: set factor to 0.346
ElecMinimize: Iter:  12  F: -6516.644363934181456  |grad|_K:  1.322e-08  alpha:  3.684e-01  linmin: -5.303e-05  t[s]:  13322.56
	Linear fluid (dielectric constant: 78.4, screening length: 8.12261 Bohr) occupying 0.542009 of unit cell:	Completed after 0 iterations at t[s]:  13398.55
	Linear fluid (dielectric constant: 78.4, screening length: 8.12261 Bohr) occupying 0.542009 of unit cell:	Completed after 0 iterations at t[s]:  13452.54
	FillingsUpdate:  mu: -0.147289627  nElectrons: 846.000000  magneticMoment: [ Abs: 0.00000  Tot: +0.00000 ]
	SubspaceRotationAdjust: set factor to 0.414
ElecMinimize: Iter:  13  F: -6516.644363985772543  |grad|_K:  8.834e-09  alpha:  4.309e-01  linmin: -3.370e-05  t[s]:  13531.49
	Linear fluid (dielectric constant: 78.4, screening length: 8.12261 Bohr) occupying 0.542007 of unit cell:	Completed after 2 iterations at t[s]:  13608.19
	Linear fluid (dielectric constant: 78.4, screening length: 8.12261 Bohr) occupying 0.542008 of unit cell:	Completed after 0 iterations at t[s]:  13662.10
	FillingsUpdate:  mu: -0.147273368  nElectrons: 846.000000  magneticMoment: [ Abs: 0.00000  Tot: +0.00000 ]
	SubspaceRotationAdjust: set factor to 0.399
ElecMinimize: Iter:  14  F: -6516.644363991137652  |grad|_K:  1.258e-08  alpha:  2.420e-01  linmin: -2.090e-05  t[s]:  13741.06
ElecMinimize: Converged (|Delta F|<1.000000e-07 for 2 iters).
Setting wave functions to eigenvectors of Hamiltonian
Converging empty states (this may take a while): |deigs|: 1.602e-04
Single-point solvation energy estimate, DeltaF = -0.002105937600390

Computing DFT-D3 correction:
# coordination-number Ag 5.477 6.588 5.477 6.572 5.494 5.494 5.494 5.494 7.460 7.460 7.460 7.460 9.001 9.001 9.001 9.001 8.892 8.892 8.892 8.892 9.030 9.030 9.030 9.030 9.006 9.006 9.006 9.006 9.017 9.016 9.017 9.016 8.865 8.866 8.865 8.866 8.973 8.972 8.979 8.972 7.442 7.439 7.442 7.472
# coordination-number C 3.059
# coordination-number O 1.219
# diagonal-C6 Ag 268.61 268.61 268.61 268.61 268.61 268.61 268.61 268.61 268.61 268.61 268.61 268.61 268.61 268.61 268.61 268.61 268.61 268.61 268.61 268.61 268.61 268.61 268.61 268.61 268.61 268.61 268.61 268.61 268.61 268.61 268.61 268.61 268.61 268.61 268.61 268.61 268.61 268.61 268.61 268.61 268.61 268.61 268.61 268.61
# diagonal-C6 C 25.55
# diagonal-C6 O 12.56
EvdW_6 =   -0.282613
EvdW_8 =   -0.381490

# Ionic positions in cartesian coordinates:
ion Ag   5.418985000000000  17.916208999999998  24.352492999999999 0
ion Ag   8.129208000000002   8.927417000000000  24.352492999999999 0
ion Ag  -0.001462000000000  17.916208999999998  24.352492999999999 0
ion Ag   2.708761000000000   8.927417000000000  24.352492999999999 0
ion Ag   0.003914000000000   4.966559000000001   1.084289000000000 0
ion Ag  -2.706308000000000  13.955352000000000   1.084289000000000 0
ion Ag   5.424361000000001   4.966559000000001   1.084289000000000 0
ion Ag   2.714139000000000  13.955352000000000   1.084289000000000 0
ion Ag   2.709345000000000   0.833333000000000   3.222739000000000 0
ion Ag  -0.000877000000000   9.822125000000000   3.222739000000000 0
ion Ag   8.129792000000002   0.833333000000000   3.222739000000000 0
ion Ag   5.419570000000000   9.822125000000000   3.222739000000000 0
ion Ag   2.711276000000000   5.752503000000000   5.690305000000000 0
ion Ag   0.001053000000000  14.741296000000000   5.690305000000000 0
ion Ag   8.131722999999999   5.752503000000000   5.690305000000000 0
ion Ag   5.421499999999999  14.741296000000000   5.690305000000000 0
ion Ag  -0.000162000000000   1.629201000000000   8.015547000000000 0
ion Ag  -2.710385000000000  10.617993000000000   8.015547000000000 0
ion Ag   5.420285000000001   1.629201000000000   8.015547000000000 0
ion Ag   2.710062000000000  10.617993000000000   8.015547000000000 0
ion Ag   0.001155000000000   6.527859000000001  10.364280000000001 0
ion Ag  -2.709073000000001  15.516669000000000  10.364280000000001 0
ion Ag   5.421591000000001   6.527859000000001  10.364280000000001 0
ion Ag   2.711374000000000  15.516669000000000  10.364280000000001 0
ion Ag   2.708728000000000   2.450992000000000  12.706224999999998 0
ion Ag  -0.001495000000000  11.439784000000001  12.706224999999998 0
ion Ag   8.129175000000000   2.450992000000000  12.706224999999998 0
ion Ag   5.418952000000000  11.439784000000001  12.706224999999998 0
ion Ag   2.710154000000000   7.363277000000001  15.052365999999999 0
ion Ag  -0.000069000000000  16.352069000000000  15.052365999999999 0
ion Ag   8.130600999999999   7.363277000000001  15.052365999999999 0
ion Ag   5.420378000000001  16.352069000000000  15.052365999999999 0
ion Ag  -0.001848000000000   3.271759000000000  17.403769000000000 0
ion Ag  -2.712071000000000  12.260551000000000  17.403769000000000 0
ion Ag   5.418599000000000   3.271759000000000  17.403769000000000 0
ion Ag   2.708376000000000  12.260551000000000  17.403769000000000 0
ion Ag   0.000798000000000   8.138866000000000  19.733052999999998 0
ion Ag  -2.709425000000000  17.127658000000000  19.733052999999998 0
ion Ag   5.421234000000001   8.138866000000000  19.733052999999998 0
ion Ag   2.711022000000001  17.127658000000000  19.733052999999998 0
ion Ag   2.709254000000000   4.070970000000000  22.208093000000002 0
ion Ag  -0.000974000000000  13.059780000000000  22.208093000000002 0
ion Ag   8.129701000000001   4.070970000000000  22.208093000000002 0
ion Ag   5.419473000000002  13.059780000000000  22.208093000000002 0
ion C   5.418984000000000   8.927417000000000  26.606496000000000 1  Linear 0 0 1
ion O   5.479075000000000   8.927417000000000  28.761879000000000 1  Linear 0 0 1

# Forces in Cartesian coordinates:
force Ag   0.000200680046180   0.000050967879508   0.000315460780806 0
force Ag   0.062909598083760  -0.000339860633718  -0.047759639204513 0
force Ag  -0.000123752527395  -0.000310026640098  -0.000118945032001 0
force Ag  -0.062341078666559  -0.000581306530481  -0.046655309632192 0
force Ag  -0.000067243353235  -0.000090781885321  -0.000448214683587 0
force Ag   0.000470242642071   0.000175758402919  -0.000224337563568 0
force Ag   0.000002395060225   0.000045284451974  -0.000144065247882 0
force Ag  -0.000556439415318   0.000213682001804  -0.000239007645125 0
force Ag  -0.000209474997623   0.000307642592576  -0.000061919643214 0
force Ag  -0.000004195974044   0.000184523087896   0.000064772035221 0
force Ag   0.000319293839267   0.000377345410870  -0.000253105250165 0
force Ag   0.000111929449458   0.000071663913716  -0.000122273588255 0
force Ag   0.000090246388226   0.000323372533063   0.000450908237482 0
force Ag   0.000011259712409   0.000432013589495   0.000055516163705 0
force Ag   0.000094194119608   0.000285028937242   0.000466277425914 0
force Ag   0.000014968329278   0.000261142893419   0.001024845241413 0
force Ag  -0.000065800316683   0.000424134989063   0.000976076450409 0
force Ag   0.000160775591718  -0.000113383854884   0.000724761598715 0
force Ag  -0.000071121379946   0.000050906213972   0.000395901985026 0
force Ag  -0.000318632418341  -0.000067907503780   0.000678935018404 0
force Ag  -0.000180404297306  -0.000249269889690  -0.000728284188866 0
force Ag   0.000041865435463   0.000033884528040  -0.000145363175184 0
force Ag  -0.000051607458394   0.000223829756394   0.000356523125850 0
force Ag  -0.000208321831571  -0.000019081637260  -0.000083462185555 0
force Ag   0.000452825066361  -0.000002955368436   0.000114524274896 0
force Ag   0.000057223527771  -0.000122095851758   0.000743885437813 0
force Ag  -0.000552723930562   0.000120432972011  -0.000079595579532 0
force Ag  -0.000025788105292  -0.000504801085702  -0.000254328328346 0
force Ag  -0.000602339696852   0.000345783203856  -0.000581512095242 0
force Ag  -0.000036740044203  -0.000308358538950   0.000550920156626 0
force Ag   0.000803383149056   0.000326646591761  -0.000544240269238 0
force Ag   0.000287113255963  -0.000041091206290  -0.000180785716796 0
force Ag   0.000120975915165  -0.000357571879114  -0.001055043081971 0
force Ag  -0.000736230170561  -0.000643191099439   0.000481317422761 0
force Ag   0.000080562142936   0.000647842092503   0.000454412909769 0
force Ag   0.000897305881890  -0.000743623652378   0.000483236469105 0
force Ag   0.000028960472837   0.000339212307941   0.001009560347096 0
force Ag   0.000163200825285  -0.000222770158393  -0.000670465110849 0
force Ag   0.000002615063946  -0.001465950294811  -0.009729219431708 0
force Ag  -0.000311349751299  -0.000237677989889  -0.000647796504677 0
force Ag  -0.001208515147227  -0.001968446149102  -0.001004844262094 0
force Ag  -0.000030125270479  -0.000831515094782  -0.000472944503405 0
force Ag   0.001153522090098  -0.001760440627294  -0.001092702046664 0
force Ag  -0.000085012899099   0.005939833157467  -0.004291888364659 0
force C  -0.001949440002133   0.000413418574799   0.019863151459659 1  Linear 0 0 1
force O   0.001415665265138  -0.000362700725033   0.088754120625103 1  Linear 0 0 1

# Energy components:
   A_diel =       -0.0036427558517625
   Eewald =    58706.3322851054908824
       EH =    64587.5681187904483522
     Eloc =  -130839.1571201610204298
      Enl =      176.6543127099683375
     EvdW =       -0.6641028909317878
      Exc =     -643.0172985131923724
 Exc_core =        9.2582338341294967
       KE =     1486.3859341984584717
-------------------------------------
     Etot =    -6516.6432796824992693
       TS =        0.0010843086386555
-------------------------------------
        F =    -6516.6443639911376522


Dumping 'jdft.fillings' ... done
Dumping 'jdft.wfns' ... done
Dumping 'jdft.fluidState' ... done
Dumping 'jdft.ionpos' ... done
Dumping 'jdft.lattice' ... done
Dumping 'jdft.eigenvals' ... done
Dumping 'jdft.eigStats' ... 
	eMin: -3.563536 at state 1 ( [ +0.000000 +0.333333 +0.000000 ] spin 1 )
	HOMO: -0.147961 at state 11 ( [ +0.000000 +0.333333 +0.000000 ] spin -1 )
	mu  : -0.147273
	LUMO: -0.147004 at state 9 ( [ +0.500000 +0.333333 +0.000000 ] spin 1 )
	eMax: +0.148263 at state 11 ( [ +0.000000 +0.333333 +0.000000 ] spin -1 )
	HOMO-LUMO gap: +0.000957
	Optical gap  : +0.003101 at state 0 ( [ +0.000000 +0.000000 +0.000000 ] spin 1 )
Dumping 'jdft.Ecomponents' ... done
IonicMinimize: Iter:   0  F: -6516.644363991137652  |grad|_K:  6.431e-02  t[s]:  14592.50

#--- Lowdin population analysis ---
# oxidation-state Ag +0.107 +0.023 +0.108 +0.018 +0.098 +0.103 +0.105 +0.104 -0.035 -0.035 -0.034 -0.031 -0.037 -0.036 -0.037 -0.034 +0.005 +0.004 +0.007 +0.004 -0.002 -0.000 -0.002 -0.000 +0.004 +0.004 +0.004 -0.000 -0.002 +0.000 -0.003 +0.001 +0.008 +0.004 +0.008 +0.003 -0.060 -0.038 -0.032 -0.038 -0.035 -0.053 -0.034 -0.023
# magnetic-moments Ag +0.000 +0.000 +0.000 +0.000 +0.000 +0.000 +0.000 +0.000 +0.000 +0.000 +0.000 +0.000 +0.000 +0.000 +0.000 +0.000 +0.000 +0.000 +0.000 +0.000 +0.000 +0.000 +0.000 +0.000 +0.000 +0.000 +0.000 +0.000 +0.000 +0.000 +0.000 +0.000 +0.000 +0.000 +0.000 +0.000 +0.000 +0.000 +0.000 +0.000 +0.000 +0.000 +0.000 +0.000
# oxidation-state C +0.320
# magnetic-moments C +0.000
# oxidation-state O -0.106
# magnetic-moments O -0.000


Computing DFT-D3 correction:
# coordination-number Ag 5.477 6.569 5.477 6.556 5.494 5.494 5.494 5.494 7.460 7.460 7.460 7.460 9.001 9.001 9.001 9.001 8.892 8.892 8.892 8.892 9.030 9.030 9.030 9.030 9.006 9.006 9.006 9.006 9.017 9.016 9.017 9.016 8.865 8.866 8.865 8.866 8.973 8.971 8.979 8.971 7.442 7.439 7.442 7.471
# coordination-number C 3.057
# coordination-number O 1.183
# diagonal-C6 Ag 268.61 268.61 268.61 268.61 268.61 268.61 268.61 268.61 268.61 268.61 268.61 268.61 268.61 268.61 268.61 268.61 268.61 268.61 268.61 268.61 268.61 268.61 268.61 268.61 268.61 268.61 268.61 268.61 268.61 268.61 268.61 268.61 268.61 268.61 268.61 268.61 268.61 268.61 268.61 268.61 268.61 268.61 268.61 268.61
# diagonal-C6 C 25.55
# diagonal-C6 O 12.62
EvdW_6 =   -0.282573
EvdW_8 =   -0.381530

-------- Electronic minimization -----------
	Linear fluid (dielectric constant: 78.4, screening length: 8.12261 Bohr) occupying 0.541932 of unit cell:	Completed after 22 iterations at t[s]:  14675.46
	FillingsUpdate:  mu: -0.140127841  nElectrons: 846.000000  magneticMoment: [ Abs: 0.00000  Tot: +0.00000 ]
ElecMinimize: Iter:   0  F: -6516.587174049042005  |grad|_K:  1.521e-05  alpha:  1.000e+00
	Linear fluid (dielectric constant: 78.4, screening length: 8.12261 Bohr) occupying 0.541495 of unit cell:	Completed after 24 iterations at t[s]:  14849.62
	Linear fluid (dielectric constant: 78.4, screening length: 8.12261 Bohr) occupying 0.541690 of unit cell:	Completed after 23 iterations at t[s]:  14911.30
	FillingsUpdate:  mu: -0.144866861  nElectrons: 846.000000  magneticMoment: [ Abs: 0.00000  Tot: +0.00000 ]
	SubspaceRotationAdjust: set factor to 0.343
ElecMinimize: Iter:   1  F: -6516.642719682042298  |grad|_K:  5.355e-06  alpha:  3.713e-01  linmin:  2.826e-04  t[s]:  14989.77
	Linear fluid (dielectric constant: 78.4, screening length: 8.12261 Bohr) occupying 0.541667 of unit cell:	Completed after 21 iterations at t[s]:  15072.49
	Linear fluid (dielectric constant: 78.4, screening length: 8.12261 Bohr) occupying 0.541641 of unit cell:	Completed after 20 iterations at t[s]:  15133.16
	FillingsUpdate:  mu: -0.148239195  nElectrons: 846.000000  magneticMoment: [ Abs: 0.00000  Tot: +0.00000 ]
	SubspaceRotationAdjust: set factor to 0.21
ElecMinimize: Iter:   2  F: -6516.646807470800923  |grad|_K:  2.989e-06  alpha:  2.208e-01  linmin: -1.609e-05  t[s]:  15211.96
	Linear fluid (dielectric constant: 78.4, screening length: 8.12261 Bohr) occupying 0.541625 of unit cell:	Completed after 14 iterations at t[s]:  15292.61
	Linear fluid (dielectric constant: 78.4, screening length: 8.12261 Bohr) occupying 0.541620 of unit cell:	Completed after 12 iterations at t[s]:  15351.19
	FillingsUpdate:  mu: -0.148229716  nElectrons: 846.000000  magneticMoment: [ Abs: 0.00000  Tot: +0.00000 ]
	SubspaceRotationAdjust: set factor to 0.201
ElecMinimize: Iter:   3  F: -6516.648522165895884  |grad|_K:  1.707e-06  alpha:  2.961e-01  linmin:  2.181e-06  t[s]:  15429.84
	Linear fluid (dielectric constant: 78.4, screening length: 8.12261 Bohr) occupying 0.541620 of unit cell:	Completed after 12 iterations at t[s]:  15509.81
	Linear fluid (dielectric constant: 78.4, screening length: 8.12261 Bohr) occupying 0.541623 of unit cell:	Completed after 8 iterations at t[s]:  15567.11
	FillingsUpdate:  mu: -0.148868457  nElectrons: 846.000000  magneticMoment: [ Abs: 0.00000  Tot: +0.00000 ]
	SubspaceRotationAdjust: set factor to 0.25
ElecMinimize: Iter:   4  F: -6516.649293940353346  |grad|_K:  1.069e-06  alpha:  4.092e-01  linmin:  4.222e-05  t[s]:  15645.59
	Linear fluid (dielectric constant: 78.4, screening length: 8.12261 Bohr) occupying 0.541631 of unit cell:	Completed after 12 iterations at t[s]:  15725.55
	Linear fluid (dielectric constant: 78.4, screening length: 8.12261 Bohr) occupying 0.541630 of unit cell:	Completed after 7 iterations at t[s]:  15782.21
	FillingsUpdate:  mu: -0.149538271  nElectrons: 846.000000  magneticMoment: [ Abs: 0.00000  Tot: +0.00000 ]
	SubspaceRotationAdjust: set factor to 0.229
ElecMinimize: Iter:   5  F: -6516.649577491311902  |grad|_K:  7.018e-07  alpha:  3.838e-01  linmin:  1.055e-05  t[s]:  15861.01
	Linear fluid (dielectric constant: 78.4, screening length: 8.12261 Bohr) occupying 0.541630 of unit cell:	Completed after 12 iterations at t[s]:  15940.90
	Linear fluid (dielectric constant: 78.4, screening length: 8.12261 Bohr) occupying 0.541629 of unit cell:	Completed after 5 iterations at t[s]:  15997.06
	FillingsUpdate:  mu: -0.149188988  nElectrons: 846.000000  magneticMoment: [ Abs: 0.00000  Tot: +0.00000 ]
	SubspaceRotationAdjust: set factor to 0.262
ElecMinimize: Iter:   6  F: -6516.649713386359508  |grad|_K:  5.251e-07  alpha:  4.263e-01  linmin: -4.954e-07  t[s]:  16075.86
	Linear fluid (dielectric constant: 78.4, screening length: 8.12261 Bohr) occupying 0.541652 of unit cell:	Completed after 8 iterations at t[s]:  16154.59
	Linear fluid (dielectric constant: 78.4, screening length: 8.12261 Bohr) occupying 0.541653 of unit cell:	Completed after 2 iterations at t[s]:  16209.80
	FillingsUpdate:  mu: -0.149148575  nElectrons: 846.000000  magneticMoment: [ Abs: 0.00000  Tot: +0.00000 ]
	SubspaceRotationAdjust: set factor to 0.339
ElecMinimize: Iter:   7  F: -6516.649793243350359  |grad|_K:  3.888e-07  alpha:  4.472e-01  linmin:  1.755e-06  t[s]:  16288.32
	Linear fluid (dielectric constant: 78.4, screening length: 8.12261 Bohr) occupying 0.541693 of unit cell:	Completed after 11 iterations at t[s]:  16368.02
	Linear fluid (dielectric constant: 78.4, screening length: 8.12261 Bohr) occupying 0.541696 of unit cell:	Completed after 2 iterations at t[s]:  16423.17
	FillingsUpdate:  mu: -0.148903006  nElectrons: 846.000000  magneticMoment: [ Abs: 0.00000  Tot: +0.00000 ]
	SubspaceRotationAdjust: set factor to 0.354
ElecMinimize: Iter:   8  F: -6516.649839771641382  |grad|_K:  3.657e-07  alpha:  4.753e-01  linmin: -1.127e-05  t[s]:  16502.02
	Linear fluid (dielectric constant: 78.4, screening length: 8.12261 Bohr) occupying 0.541733 of unit cell:	Completed after 11 iterations at t[s]:  16581.98
	Linear fluid (dielectric constant: 78.4, screening length: 8.12261 Bohr) occupying 0.541724 of unit cell:	Completed after 8 iterations at t[s]:  16639.03
	FillingsUpdate:  mu: -0.148671647  nElectrons: 846.000000  magneticMoment: [ Abs: 0.00000  Tot: +0.00000 ]
	SubspaceRotationAdjust: set factor to 0.322
ElecMinimize: Iter:   9  F: -6516.649871141534277  |grad|_K:  2.508e-07  alpha:  3.602e-01  linmin:  7.038e-06  t[s]:  16717.32
	Linear fluid (dielectric constant: 78.4, screening length: 8.12261 Bohr) occupying 0.541753 of unit cell:	Completed after 8 iterations at t[s]:  16796.42
	Linear fluid (dielectric constant: 78.4, screening length: 8.12261 Bohr) occupying 0.541755 of unit cell:	Completed after 2 iterations at t[s]:  16851.54
	FillingsUpdate:  mu: -0.148842347  nElectrons: 846.000000  magneticMoment: [ Abs: 0.00000  Tot: +0.00000 ]
	SubspaceRotationAdjust: set factor to 0.328
ElecMinimize: Iter:  10  F: -6516.649886881318707  |grad|_K:  1.976e-07  alpha:  3.872e-01  linmin: -6.630e-06  t[s]:  16930.10
	Linear fluid (dielectric constant: 78.4, screening length: 8.12261 Bohr) occupying 0.541779 of unit cell:	Completed after 6 iterations at t[s]:  17008.10
	Linear fluid (dielectric constant: 78.4, screening length: 8.12261 Bohr) occupying 0.541776 of unit cell:	Completed after 2 iterations at t[s]:  17063.27
	FillingsUpdate:  mu: -0.148674088  nElectrons: 846.000000  magneticMoment: [ Abs: 0.00000  Tot: +0.00000 ]
	SubspaceRotationAdjust: set factor to 0.362
ElecMinimize: Iter:  11  F: -6516.649895575314986  |grad|_K:  1.156e-07  alpha:  3.431e-01  linmin:  1.099e-05  t[s]:  17141.76
	Linear fluid (dielectric constant: 78.4, screening length: 8.12261 Bohr) occupying 0.541781 of unit cell:	Completed after 6 iterations at t[s]:  17219.52
	Linear fluid (dielectric constant: 78.4, screening length: 8.12261 Bohr) occupying 0.541782 of unit cell:	Completed after 2 iterations at t[s]:  17274.67
	FillingsUpdate:  mu: -0.148707099  nElectrons: 846.000000  magneticMoment: [ Abs: 0.00000  Tot: +0.00000 ]
	SubspaceRotationAdjust: set factor to 0.358
ElecMinimize: Iter:  12  F: -6516.649899145983909  |grad|_K:  7.658e-08  alpha:  4.134e-01  linmin: -6.939e-05  t[s]:  17353.21
	Linear fluid (dielectric constant: 78.4, screening length: 8.12261 Bohr) occupying 0.541787 of unit cell:	Completed after 4 iterations at t[s]:  17430.84
	Linear fluid (dielectric constant: 78.4, screening length: 8.12261 Bohr) occupying 0.541786 of unit cell:	Completed after 2 iterations at t[s]:  17486.10
	FillingsUpdate:  mu: -0.148704230  nElectrons: 846.000000  magneticMoment: [ Abs: 0.00000  Tot: +0.00000 ]
	SubspaceRotationAdjust: set factor to 0.323
ElecMinimize: Iter:  13  F: -6516.649900494224312  |grad|_K:  5.455e-08  alpha:  3.527e-01  linmin:  1.026e-04  t[s]:  17564.69
	Linear fluid (dielectric constant: 78.4, screening length: 8.12261 Bohr) occupying 0.541787 of unit cell:	Completed after 2 iterations at t[s]:  17641.45
	Linear fluid (dielectric constant: 78.4, screening length: 8.12261 Bohr) occupying 0.541787 of unit cell:	Completed after 0 iterations at t[s]:  17695.79
	FillingsUpdate:  mu: -0.148705627  nElectrons: 846.000000  magneticMoment: [ Abs: 0.00000  Tot: +0.00000 ]
	SubspaceRotationAdjust: set factor to 0.319
ElecMinimize: Iter:  14  F: -6516.649901094808229  |grad|_K:  3.375e-08  alpha:  3.152e-01  linmin:  1.758e-04  t[s]:  17774.53
	Linear fluid (dielectric constant: 78.4, screening length: 8.12261 Bohr) occupying 0.541786 of unit cell:	Completed after 2 iterations at t[s]:  17851.43
	Linear fluid (dielectric constant: 78.4, screening length: 8.12261 Bohr) occupying 0.541786 of unit cell:	Completed after 0 iterations at t[s]:  17905.56
	FillingsUpdate:  mu: -0.148707846  nElectrons: 846.000000  magneticMoment: [ Abs: 0.00000  Tot: +0.00000 ]
	SubspaceRotationAdjust: set factor to 0.382
ElecMinimize: Iter:  15  F: -6516.649901362334276  |grad|_K:  1.934e-08  alpha:  3.679e-01  linmin: -3.241e-04  t[s]:  17984.46
	Linear fluid (dielectric constant: 78.4, screening length: 8.12261 Bohr) occupying 0.541786 of unit cell:	Completed after 2 iterations at t[s]:  18061.24
	Linear fluid (dielectric constant: 78.4, screening length: 8.12261 Bohr) occupying 0.541785 of unit cell:	Completed after 0 iterations at t[s]:  18115.13
	FillingsUpdate:  mu: -0.148718280  nElectrons: 846.000000  magneticMoment: [ Abs: 0.00000  Tot: +0.00000 ]
	SubspaceRotationAdjust: set factor to 0.419
ElecMinimize: Iter:  16  F: -6516.649901466566007  |grad|_K:  1.421e-08  alpha:  4.026e-01  linmin: -2.549e-04  t[s]:  18193.76
	Linear fluid (dielectric constant: 78.4, screening length: 8.12261 Bohr) occupying 0.541785 of unit cell:	Completed after 0 iterations at t[s]:  18269.55
	Linear fluid (dielectric constant: 78.4, screening length: 8.12261 Bohr) occupying 0.541784 of unit cell:	Completed after 1 iterations at t[s]:  18324.15
	FillingsUpdate:  mu: -0.148720169  nElectrons: 846.000000  magneticMoment: [ Abs: 0.00000  Tot: +0.00000 ]
	SubspaceRotationAdjust: set factor to 0.471
ElecMinimize: Iter:  17  F: -6516.649901517684157  |grad|_K:  1.353e-08  alpha:  4.954e-01  linmin:  4.138e-04  t[s]:  18402.67
	Linear fluid (dielectric constant: 78.4, screening length: 8.12261 Bohr) occupying 0.541783 of unit cell:	Completed after 1 iterations at t[s]:  18479.16
	Linear fluid (dielectric constant: 78.4, screening length: 8.12261 Bohr) occupying 0.541784 of unit cell:	Completed after 0 iterations at t[s]:  18533.13
	FillingsUpdate:  mu: -0.148720045  nElectrons: 846.000000  magneticMoment: [ Abs: 0.00000  Tot: +0.00000 ]
	SubspaceRotationAdjust: set factor to 0.489
ElecMinimize: Iter:  18  F: -6516.649901541895815  |grad|_K:  1.062e-08  alpha:  2.965e-01  linmin:  2.599e-05  t[s]:  18611.71
ElecMinimize: Converged (|Delta F|<1.000000e-07 for 2 iters).
Setting wave functions to eigenvectors of Hamiltonian
Converging empty states (this may take a while): |deigs|: 5.488e-06

Computing DFT-D3 correction:
# coordination-number Ag 5.477 6.569 5.477 6.556 5.494 5.494 5.494 5.494 7.460 7.460 7.460 7.460 9.001 9.001 9.001 9.001 8.892 8.892 8.892 8.892 9.030 9.030 9.030 9.030 9.006 9.006 9.006 9.006 9.017 9.016 9.017 9.016 8.865 8.866 8.865 8.866 8.973 8.971 8.979 8.971 7.442 7.439 7.442 7.471
# coordination-number C 3.057
# coordination-number O 1.183
[...]
force Ag   0.000032432080693   0.000520876577505   0.002510847428869 0
force Ag   0.000125087336393  -0.000064745412611  -0.000647500367606 0
force Ag  -0.000045575832967  -0.000752200125664  -0.005326654999744 0
force Ag  -0.000265268457243  -0.000115178112567  -0.000668070272916 0
force Ag  -0.000551599106160  -0.001037094279239  -0.000625010495924 0
force Ag  -0.000007430404251  -0.001410538154478   0.000102776616300 0
force Ag   0.000450128413149  -0.000846375634118  -0.000685801013915 0
force Ag  -0.000110623632510   0.003581926154569  -0.003429879491781 0
force C   0.000078602625852  -0.000214022467747  -0.000885412725797 1  Linear 0 0 1
force O  -0.000320062973216   0.000090697595034   0.001340594643724 1  Linear 0 0 1

# Energy components:
   A_diel =       -0.0023221557327319
   Eewald =    58547.3673482017329661
       EH =    64430.7415534347237553
     Eloc =  -130523.1937616582436021
      Enl =      176.6991717088617975
     EvdW =       -0.6630457609696606
      Exc =     -642.8960072983808232
 Exc_core =        9.2582249344971359
       KE =     1486.0029044322550362
-------------------------------------
     Etot =    -6516.6859341612580465
       TS =        0.0009270213164592
-------------------------------------
        F =    -6516.6868611825748303


Dumping 'jdft.fillings' ... done
Dumping 'jdft.wfns' ... done
Dumping 'jdft.fluidState' ... done
Dumping 'jdft.ionpos' ... done
Dumping 'jdft.lattice' ... done
Dumping 'jdft.eigenvals' ... done
Dumping 'jdft.eigStats' ... 
	eMin: -3.533652 at state 1 ( [ +0.000000 +0.333333 +0.000000 ] spin 1 )
	HOMO: -0.146726 at state 12 ( [ +0.166667 +0.000000 +0.000000 ] spin -1 )
	mu  : -0.146379
	LUMO: -0.145357 at state 1 ( [ +0.000000 +0.333333 +0.000000 ] spin 1 )
	eMax: +0.149880 at state 11 ( [ +0.000000 +0.333333 +0.000000 ] spin -1 )
	HOMO-LUMO gap: +0.001369
	Optical gap  : +0.003715 at state 1 ( [ +0.000000 +0.333333 +0.000000 ] spin 1 )
Dumping 'jdft.Ecomponents' ... done
IonicMinimize: Iter:  12  F: -6516.686861182574830  |grad|_K:  1.136e-03  alpha:  3.547e-01  linmin:  2.485e-03  t[s]:  73709.08

#--- Lowdin population analysis ---
# oxidation-state Ag +0.102 -0.031 +0.102 -0.033 +0.098 +0.100 +0.105 +0.101 -0.034 -0.036 -0.033 -0.031 -0.037 -0.039 -0.037 -0.035 +0.006 +0.005 +0.006 +0.005 -0.003 -0.001 -0.001 -0.001 +0.004 +0.007 +0.004 +0.001 -0.003 +0.000 -0.003 -0.002 +0.006 +0.006 +0.007 +0.006 -0.040 -0.038 -0.037 -0.038 -0.029 -0.036 -0.029 -0.016
# magnetic-moments Ag +0.000 -0.000 -0.000 -0.000 -0.000 -0.000 +0.000 +0.000 -0.000 -0.000 +0.000 +0.000 +0.000 +0.000 -0.000 -0.000 +0.000 +0.000 -0.000 -0.000 -0.000 +0.000 +0.000 +0.000 -0.000 -0.000 +0.000 -0.000 +0.000 -0.000 +0.000 +0.000 -0.000 +0.000 +0.000 -0.000 +0.000 +0.000 -0.000 -0.000 +0.000 +0.000 +0.000 -0.000
# oxidation-state C +0.383
# magnetic-moments C +0.000
# oxidation-state O -0.098
# magnetic-moments O -0.000


Computing DFT-D3 correction:
# coordination-number Ag 5.477 6.389 5.477 6.387 5.494 5.494 5.494 5.494 7.460 7.460 7.460 7.460 9.001 9.001 9.001 9.001 8.892 8.892 8.892 8.892 9.030 9.030 9.030 9.030 9.006 9.006 9.006 9.006 9.016 9.016 9.016 9.016 8.865 8.865 8.865 8.865 8.972 8.971 8.973 8.971 7.438 7.437 7.438 7.445
# coordination-number C 2.816
# coordination-number O 1.035
# diagonal-C6 Ag 268.61 268.61 268.61 268.61 268.61 268.61 268.61 268.61 268.61 268.61 268.61 268.61 268.61 268.61 268.61 268.61 268.61 268.61 268.61 268.61 268.61 268.61 268.61 268.61 268.61 268.61 268.61 268.61 268.61 268.61 268.61 268.61 268.61 268.61 268.61 268.61 268.61 268.61 268.61 268.61 268.61 268.61 268.61 268.61
# diagonal-C6 C 25.99
# diagonal-C6 O 12.78
EvdW_6 =   -0.282062
EvdW_8 =   -0.380967

-------- Electronic minimization -----------
	Linear fluid (dielectric constant: 78.4, screening length: 8.12261 Bohr) occupying 0.536336 of unit cell:	Completed after 7 iterations at t[s]:  73798.09
	FillingsUpdate:  mu: -0.146219469  nElectrons: 846.000000  magneticMoment: [ Abs: 0.00000  Tot: +0.00000 ]
ElecMinimize: Iter:   0  F: -6516.686833960889089  |grad|_K:  3.237e-07  alpha:  1.000e+00
	Linear fluid (dielectric constant: 78.4, screening length: 8.12261 Bohr) occupying 0.536332 of unit cell:	Completed after 12 iterations at t[s]:  73967.27
	Linear fluid (dielectric constant: 78.4, screening length: 8.12261 Bohr) occupying 0.536335 of unit cell:	Completed after 12 iterations at t[s]:  74025.43
	FillingsUpdate:  mu: -0.146402639  nElectrons: 846.000000  magneticMoment: [ Abs: 0.00000  Tot: +0.00000 ]
	SubspaceRotationAdjust: set factor to 0.254
ElecMinimize: Iter:   1  F: -6516.686853355868152  |grad|_K:  1.458e-07  alpha:  2.841e-01  linmin: -6.983e-05  t[s]:  74103.81
	Linear fluid (dielectric constant: 78.4, screening length: 8.12261 Bohr) occupying 0.536337 of unit cell:	Completed after 7 iterations at t[s]:  74182.20
	Linear fluid (dielectric constant: 78.4, screening length: 8.12261 Bohr) occupying 0.536337 of unit cell:	Completed after 2 iterations at t[s]:  74237.48
	FillingsUpdate:  mu: -0.146350475  nElectrons: 846.000000  magneticMoment: [ Abs: 0.00000  Tot: +0.00000 ]
	SubspaceRotationAdjust: set factor to 0.256
ElecMinimize: Iter:   2  F: -6516.686858161969212  |grad|_K:  8.309e-08  alpha:  3.486e-01  linmin: -3.064e-04  t[s]:  74315.86
	Linear fluid (dielectric constant: 78.4, screening length: 8.12261 Bohr) occupying 0.536337 of unit cell:	Completed after 3 iterations at t[s]:  74393.25
	Linear fluid (dielectric constant: 78.4, screening length: 8.12261 Bohr) occupying 0.536337 of unit cell:	Completed after 3 iterations at t[s]:  74448.66
	FillingsUpdate:  mu: -0.146352227  nElectrons: 846.000000  magneticMoment: [ Abs: 0.00000  Tot: +0.00000 ]
	SubspaceRotationAdjust: set factor to 0.307
ElecMinimize: Iter:   3  F: -6516.686860422196332  |grad|_K:  7.594e-08  alpha:  5.079e-01  linmin:  2.718e-04  t[s]:  74527.37
	Linear fluid (dielectric constant: 78.4, screening length: 8.12261 Bohr) occupying 0.536337 of unit cell:	Completed after 2 iterations at t[s]:  74604.20
	Linear fluid (dielectric constant: 78.4, screening length: 8.12261 Bohr) occupying 0.536337 of unit cell:	Completed after 0 iterations at t[s]:  74658.42
	FillingsUpdate:  mu: -0.146372750  nElectrons: 846.000000  magneticMoment: [ Abs: 0.00000  Tot: +0.00000 ]
	SubspaceRotationAdjust: set factor to 0.395
ElecMinimize: Iter:   4  F: -6516.686862146930252  |grad|_K:  6.268e-08  alpha:  4.735e-01  linmin:  2.001e-05  t[s]:  74736.87
	Linear fluid (dielectric constant: 78.4, screening length: 8.12261 Bohr) occupying 0.536337 of unit cell:	Completed after 4 iterations at t[s]:  74814.31
	Linear fluid (dielectric constant: 78.4, screening length: 8.12261 Bohr) occupying 0.536337 of unit cell:	Completed after 0 iterations at t[s]:  74868.73
	FillingsUpdate:  mu: -0.146379681  nElectrons: 846.000000  magneticMoment: [ Abs: 0.00000  Tot: +0.00000 ]
	SubspaceRotationAdjust: set factor to 0.411
ElecMinimize: Iter:   5  F: -6516.686863396425906  |grad|_K:  5.296e-08  alpha:  4.916e-01  linmin: -1.237e-04  t[s]:  74947.64
	Linear fluid (dielectric constant: 78.4, screening length: 8.12261 Bohr) occupying 0.536335 of unit cell:	Completed after 2 iterations at t[s]:  75024.58
	Linear fluid (dielectric constant: 78.4, screening length: 8.12261 Bohr) occupying 0.536336 of unit cell:	Completed after 1 iterations at t[s]:  75079.66
	FillingsUpdate:  mu: -0.146356040  nElectrons: 846.000000  magneticMoment: [ Abs: 0.00000  Tot: +0.00000 ]
	SubspaceRotationAdjust: set factor to 0.345
ElecMinimize: Iter:   6  F: -6516.686864094740486  |grad|_K:  3.009e-08  alpha:  3.772e-01  linmin:  3.492e-04  t[s]:  75158.12
	Linear fluid (dielectric constant: 78.4, screening length: 8.12261 Bohr) occupying 0.536335 of unit cell:	Completed after 2 iterations at t[s]:  75234.82
	Linear fluid (dielectric constant: 78.4, screening length: 8.12261 Bohr) occupying 0.536335 of unit cell:	Completed after 0 iterations at t[s]:  75289.56
	FillingsUpdate:  mu: -0.146375689  nElectrons: 846.000000  magneticMoment: [ Abs: 0.00000  Tot: +0.00000 ]
	SubspaceRotationAdjust: set factor to 0.274
ElecMinimize: Iter:   7  F: -6516.686864279000474  |grad|_K:  1.924e-08  alpha:  3.272e-01  linmin:  2.103e-05  t[s]:  75368.13
	Linear fluid (dielectric constant: 78.4, screening length: 8.12261 Bohr) occupying 0.536335 of unit cell:	Completed after 1 iterations at t[s]:  75444.56
	Linear fluid (dielectric constant: 78.4, screening length: 8.12261 Bohr) occupying 0.536335 of unit cell:	Completed after 0 iterations at t[s]:  75498.96
	FillingsUpdate:  mu: -0.146372446  nElectrons: 846.000000  magneticMoment: [ Abs: 0.00000  Tot: -0.00000 ]
	SubspaceRotationAdjust: set factor to 0.297
ElecMinimize: Iter:   8  F: -6516.686864353657256  |grad|_K:  1.081e-08  alpha:  3.128e-01  linmin: -8.373e-04  t[s]:  75577.57
	Linear fluid (dielectric constant: 78.4, screening length: 8.12261 Bohr) occupying 0.536335 of unit cell:	Completed after 0 iterations at t[s]:  75654.06
	Linear fluid (dielectric constant: 78.4, screening length: 8.12261 Bohr) occupying 0.536335 of unit cell:	Completed after 0 iterations at t[s]:  75708.30
	FillingsUpdate:  mu: -0.146372810  nElectrons: 846.000000  magneticMoment: [ Abs: 0.00000  Tot: -0.00000 ]
	SubspaceRotationAdjust: set factor to 0.353
ElecMinimize: Iter:   9  F: -6516.686864387710557  |grad|_K:  6.126e-09  alpha:  3.999e-01  linmin: -3.141e-03  t[s]:  75786.49
ElecMinimize: Converged (|Delta F|<1.000000e-07 for 2 iters).
Setting wave functions to eigenvectors of Hamiltonian
Converging empty states (this may take a while): |deigs|: 5.668e-09

Computing DFT-D3 correction:
# coordination-number Ag 5.477 6.389 5.477 6.387 5.494 5.494 5.494 5.494 7.460 7.460 7.460 7.460 9.001 9.001 9.001 9.001 8.892 8.892 8.892 8.892 9.030 9.030 9.030 9.030 9.006 9.006 9.006 9.006 9.016 9.016 9.016 9.016 8.865 8.865 8.865 8.865 8.972 8.971 8.973 8.971 7.438 7.437 7.438 7.445
# coordination-number C 2.816
# coordination-number O 1.035
# diagonal-C6 Ag 268.61 268.61 268.61 268.61 268.61 268.61 268.61 268.61 268.61 268.61 268.61 268.61 268.61 268.61 268.61 268.61 268.61 268.61 268.61 268.61 268.61 268.61 268.61 268.61 268.61 268.61 268.61 268.61 268.61 268.61 268.61 268.61 268.61 268.61 268.61 268.61 268.61 268.61 268.61 268.61 268.61 268.61 268.61 268.61
# diagonal-C6 C 25.99
# diagonal-C6 O 12.78
EvdW_6 =   -0.282062
EvdW_8 =   -0.380967

# Ionic positions in cartesian coordinates:
ion Ag   5.418985000000000  17.916208999999998  24.352492999999999 0
ion Ag   8.129208000000002   8.927417000000000  24.352492999999999 0
ion Ag  -0.001462000000000  17.916208999999998  24.352492999999999 0
ion Ag   2.708761000000000   8.927417000000000  24.352492999999999 0
ion Ag   0.003914000000000   4.966559000000001   1.084289000000000 0
ion Ag  -2.706308000000000  13.955352000000000   1.084289000000000 0
ion Ag   5.424361000000001   4.966559000000001   1.084289000000000 0
ion Ag   2.714139000000000  13.955352000000000   1.084289000000000 0
ion Ag   2.709345000000000   0.833333000000000   3.222739000000000 0
ion Ag  -0.000877000000000   9.822125000000000   3.222739000000000 0
ion Ag   8.129792000000002   0.833333000000000   3.222739000000000 0
ion Ag   5.419570000000000   9.822125000000000   3.222739000000000 0
ion Ag   2.711276000000000   5.752503000000000   5.690305000000000 0
ion Ag   0.001053000000000  14.741296000000000   5.690305000000000 0
ion Ag   8.131722999999999   5.752503000000000   5.690305000000000 0
ion Ag   5.421499999999999  14.741296000000000   5.690305000000000 0
ion Ag  -0.000162000000000   1.629201000000000   8.015547000000000 0
ion Ag  -2.710385000000000  10.617993000000000   8.015547000000000 0
ion Ag   5.420285000000001   1.629201000000000   8.015547000000000 0
ion Ag   2.710062000000000  10.617993000000000   8.015547000000000 0
ion Ag   0.001155000000000   6.527859000000001  10.364280000000001 0
ion Ag  -2.709073000000001  15.516669000000000  10.364280000000001 0
ion Ag   5.421591000000001   6.527859000000001  10.364280000000001 0
ion Ag   2.711374000000000  15.516669000000000  10.364280000000001 0
ion Ag   2.708728000000000   2.450992000000000  12.706224999999998 0
ion Ag  -0.001495000000000  11.439784000000001  12.706224999999998 0
ion Ag   8.129175000000000   2.450992000000000  12.706224999999998 0
ion Ag   5.418952000000000  11.439784000000001  12.706224999999998 0
ion Ag   2.710154000000000   7.363277000000001  15.052365999999999 0
ion Ag  -0.000069000000000  16.352069000000000  15.052365999999999 0
ion Ag   8.130600999999999   7.363277000000001  15.052365999999999 0
ion Ag   5.420378000000001  16.352069000000000  15.052365999999999 0
ion Ag  -0.001848000000000   3.271759000000000  17.403769000000000 0
ion Ag  -2.712071000000000  12.260551000000000  17.403769000000000 0
ion Ag   5.418599000000000   3.271759000000000  17.403769000000000 0
ion Ag   2.708376000000000  12.260551000000000  17.403769000000000 0
ion Ag   0.000798000000000   8.138866000000000  19.733052999999998 0
ion Ag  -2.709425000000000  17.127658000000000  19.733052999999998 0
ion Ag   5.421234000000001   8.138866000000000  19.733052999999998 0
ion Ag   2.711022000000001  17.127658000000000  19.733052999999998 0
ion Ag   2.709254000000000   4.070970000000000  22.208093000000002 0
ion Ag  -0.000974000000000  13.059780000000000  22.208093000000002 0
ion Ag   8.129701000000001   4.070970000000000  22.208093000000002 0
ion Ag   5.419473000000002  13.059780000000000  22.208093000000002 0
ion C   5.418984000000000   8.927417000000000  27.586299034400977 1  Linear 0 0 1
ion O   5.479075000000000   8.927417000000000  29.779694022358115 1  Linear 0 0 1

# Forces in Cartesian coordinates:
force Ag   0.000197421059449   0.000061118012996   0.000358740005130 0
force Ag   0.004756028951571  -0.000553355794578   0.002887615232426 0
force Ag  -0.000118547100834  -0.000120905171347   0.000040160044574 0
force Ag  -0.004424419294897  -0.000581283884330   0.003458450734927 0
force Ag  -0.000011243664450  -0.000138338998334  -0.000448556634940 0
force Ag   0.000474596187338   0.000049822681948  -0.000216433332812 0
force Ag  -0.000059244846837   0.000123039936530   0.000076677489141 0
force Ag  -0.000556356996670   0.000096359394159  -0.000224556149206 0
force Ag  -0.000217406700559   0.000305918319553  -0.000113955533943 0
force Ag   0.000005367198909   0.000372346254433   0.000045199992413 0
force Ag   0.000340175528729   0.000333319860636  -0.000164002216894 0
force Ag   0.000123396581938   0.000185034137104  -0.000280201875385 0
force Ag  -0.000078824717728   0.000296938378028   0.000358460370713 0
force Ag  -0.000008312667104   0.000418769206773  -0.000026847927741 0
force Ag   0.000241174061518   0.000243759461215   0.000406411902011 0
force Ag   0.000045927407643   0.000200524976412   0.000945778348614 0
force Ag  -0.000122819824566   0.000477422708845   0.000578195623771 0
force Ag   0.000096056244359   0.000037635995713   0.000547063749358 0
force Ag  -0.000025524991217   0.000021368112399   0.000254988980939 0
force Ag  -0.000259190367811   0.000052044002707   0.000503307742197 0
force Ag  -0.000144696447386  -0.000400199190507  -0.000648039138040 0
force Ag   0.000106964011749  -0.000074719250926  -0.000034906704899 0
force Ag  -0.000092107370967  -0.000095720287930   0.000162899353505 0
force Ag  -0.000300444508098  -0.000098586597369   0.000015988470580 0
force Ag   0.000292595583189  -0.000006142801500   0.000165203318900 0
force Ag   0.000049880928510  -0.000133350965130   0.000647645267653 0
force Ag  -0.000340621552010   0.000116237149759   0.000005917025030 0
force Ag  -0.000022869639659  -0.000377205020037   0.000174039455105 0
force Ag  -0.000388993080502   0.000368531142753  -0.000410048411033 0
force Ag   0.000042345233755   0.000075028276187   0.000521963834616 0
force Ag   0.000619027530725   0.000326337294485  -0.000277504562842 0
force Ag   0.000219390491093   0.000018219807925   0.000111038644830 0
force Ag   0.000039008959897  -0.000493075372388  -0.000837203458263 0
force Ag  -0.000509046684194  -0.000505031292228   0.000222797966362 0
force Ag   0.000130306362295   0.000486126010918   0.000192582553590 0
force Ag   0.000671065429724  -0.000572162492945   0.000290042919127 0
force Ag   0.000032099631638   0.000512423001089   0.002480091517578 0
force Ag   0.000122741157721  -0.000064953359309  -0.000657400136316 0
force Ag  -0.000045913048272  -0.000748446926282  -0.005306047404010 0
force Ag  -0.000262707948933  -0.000115219248882  -0.000678672354212 0
force Ag  -0.000544456774471  -0.001039797744070  -0.000669074239547 0
force Ag  -0.000006648411503  -0.001391418925083   0.000053415998455 0
force Ag   0.000442301948518  -0.000849841783726  -0.000730499093026 0
force Ag  -0.000111372912013   0.003563361157008  -0.003458162726828 0
force C   0.000110606644982  -0.000216998768002  -0.000024049522267 1  Linear 0 0 1
force O  -0.000355538439617   0.000091598015582  -0.000019905830522 1  Linear 0 0 1

# Energy components:
   A_diel =       -0.0023116953732120
   Eewald =    58545.7665148891101126
       EH =    64429.1683708714263048
     Eloc =  -130520.0179012812150177
      Enl =      176.6990531369854693
     EvdW =       -0.6630296096887598
      Exc =     -642.8948981925564112
 Exc_core =        9.2582240809213090
       KE =     1486.0000391584640056
-------------------------------------
     Etot =    -6516.6859386419200746
       TS =        0.0009257457908196
-------------------------------------
        F =    -6516.6868643877105569


Dumping 'jdft.fillings' ... done
Dumping 'jdft.wfns' ... done
Dumping 'jdft.fluidState' ... done
Dumping 'jdft.ionpos' ... done
Dumping 'jdft.lattice' ... done
Dumping 'jdft.eigenvals' ... done
Dumping 'jdft.eigStats' ... 
	eMin: -3.533453 at state 11 ( [ +0.000000 +0.333333 +0.000000 ] spin -1 )
	HOMO: -0.146711 at state 2 ( [ +0.166667 +0.000000 +0.000000 ] spin 1 )
	mu  : -0.146373
	LUMO: -0.145340 at state 1 ( [ +0.000000 +0.333333 +0.000000 ] spin 1 )
	eMax: +0.149878 at state 1 ( [ +0.000000 +0.333333 +0.000000 ] spin 1 )
	HOMO-LUMO gap: +0.001371
	Optical gap  : +0.003722 at state 1 ( [ +0.000000 +0.333333 +0.000000 ] spin 1 )
Dumping 'jdft.Ecomponents' ... done
IonicMinimize: Iter:  13  F: -6516.686864387710557  |grad|_K:  2.208e-05  alpha:  1.000e+00  linmin:  2.615e-03  t[s]:  76009.04
IonicMinimize: Converged (|grad|_K<1.000000e-04).

#--- Lowdin population analysis ---
# oxidation-state Ag +0.102 -0.031 +0.102 -0.033 +0.098 +0.100 +0.105 +0.101 -0.034 -0.036 -0.034 -0.031 -0.037 -0.039 -0.037 -0.036 +0.006 +0.005 +0.006 +0.005 -0.003 -0.001 -0.001 -0.001 +0.004 +0.007 +0.004 +0.001 -0.003 +0.001 -0.003 -0.002 +0.006 +0.006 +0.007 +0.006 -0.040 -0.038 -0.037 -0.038 -0.029 -0.036 -0.029 -0.016
# magnetic-moments Ag +0.000 +0.000 -0.000 -0.000 -0.000 +0.000 +0.000 +0.000 -0.000 +0.000 +0.000 -0.000 +0.000 +0.000 -0.000 -0.000 -0.000 -0.000 -0.000 -0.000 +0.000 +0.000 -0.000 -0.000 -0.000 +0.000 -0.000 -0.000 +0.000 +0.000 -0.000 -0.000 -0.000 -0.000 +0.000 +0.000 -0.000 +0.000 +0.000 -0.000 -0.000 +0.000 +0.000 +0.000
# oxidation-state C +0.383
# magnetic-moments C -0.000
# oxidation-state O -0.098
# magnetic-moments O -0.000


Dumping 'jdft.n_up' ... done
Dumping 'jdft.n_dn' ... done
Dumping 'jdft.tau_up' ... done
Dumping 'jdft.tau_dn' ... done
Dumping 'jdft.eigenvals' ... done
Dumping 'jdft.eigStats' ... 
	eMin: -3.533453 at state 11 ( [ +0.000000 +0.333333 +0.000000 ] spin -1 )
	HOMO: -0.146711 at state 2 ( [ +0.166667 +0.000000 +0.000000 ] spin 1 )
	mu  : -0.146373
	LUMO: -0.145340 at state 1 ( [ +0.000000 +0.333333 +0.000000 ] spin 1 )
	eMax: +0.149878 at state 1 ( [ +0.000000 +0.333333 +0.000000 ] spin 1 )
	HOMO-LUMO gap: +0.001371
	Optical gap  : +0.003722 at state 1 ( [ +0.000000 +0.333333 +0.000000 ] spin 1 )
Dumping 'jdft.kPts' ... done
Dumping 'jdft.kMap' ... done
Dumping 'jdft.dosUp' ... done.
Dumping 'jdft.dosDn' ... done.
End date and time: Fri Feb 18 12:27:32 2022  (Duration: 0-21:08:46.66)
Done!
