
*************** JDFTx 1.6.0  ***************

Start date and time: Fri Mar  4 06:48:11 2022
Executable /projects/musgravc/apps/jdftx-1.6.1/build/jdftx with command-line: -i in
Running on hosts (process indices):  shas0410.rc.int.colorado.edu (0-23)
Divided in process groups (process indices):  0 (0)  1 (1)  2 (2)  3 (3)  4 (4)  5 (5)  6 (6)  7 (7)  8 (8)  9 (9)  10 (10)  11 (11)  12 (12)  13 (13)  14 (14)  15 (15)  16 (16)  17 (17)  18 (18)  19 (19)  20 (20)  21 (21)  22 (22)  23 (23)
Resource initialization completed at t[s]:      0.02
Run totals: 24 processes, 24 threads, 0 GPUs


Input parsed successfully to the following command list (including defaults):

basis kpoint-dependent
converge-empty-states yes
coords-type Cartesian
core-overlap-check none
coulomb-interaction Periodic
davidson-band-ratio 1.1
density-of-states Etol 1.000000e-06 Esigma 1.000000e-03 \
		Complete \
	Total \
	OrthoOrbital Ag 1   s \
	OrthoOrbital Ag 1   p \
	OrthoOrbital Ag 1   px \
	OrthoOrbital Ag 1   py \
	OrthoOrbital Ag 1   pz \
	OrthoOrbital Ag 1   d \
	OrthoOrbital Ag 1   dxy \
	OrthoOrbital Ag 1   dyz \
	OrthoOrbital Ag 1   dz2 \
	OrthoOrbital Ag 1   dxz \
	OrthoOrbital Ag 1   dx2-y2 \
	OrthoOrbital Ag 2   s \
	OrthoOrbital Ag 2   p \
	OrthoOrbital Ag 2   px \
	OrthoOrbital Ag 2   py \
	OrthoOrbital Ag 2   pz \
	OrthoOrbital Ag 2   d \
	OrthoOrbital Ag 2   dxy \
	OrthoOrbital Ag 2   dyz \
	OrthoOrbital Ag 2   dz2 \
	OrthoOrbital Ag 2   dxz \
	OrthoOrbital Ag 2   dx2-y2 \
	OrthoOrbital Ag 3   s \
	OrthoOrbital Ag 3   p \
	OrthoOrbital Ag 3   px \
	OrthoOrbital Ag 3   py \
	OrthoOrbital Ag 3   pz \
	OrthoOrbital Ag 3   d \
	OrthoOrbital Ag 3   dxy \
	OrthoOrbital Ag 3   dyz \
	OrthoOrbital Ag 3   dz2 \
	OrthoOrbital Ag 3   dxz \
	OrthoOrbital Ag 3   dx2-y2 \
	OrthoOrbital Ag 4   s \
	OrthoOrbital Ag 4   p \
	OrthoOrbital Ag 4   px \
	OrthoOrbital Ag 4   py \
	OrthoOrbital Ag 4   pz \
	OrthoOrbital Ag 4   d \
	OrthoOrbital Ag 4   dxy \
	OrthoOrbital Ag 4   dyz \
	OrthoOrbital Ag 4   dz2 \
	OrthoOrbital Ag 4   dxz \
	OrthoOrbital Ag 4   dx2-y2 \
	OrthoOrbital Ag 5   s \
	OrthoOrbital Ag 5   p \
	OrthoOrbital Ag 5   px \
	OrthoOrbital Ag 5   py \
	OrthoOrbital Ag 5   pz \
	OrthoOrbital Ag 5   d \
	OrthoOrbital Ag 5   dxy \
	OrthoOrbital Ag 5   dyz \
	OrthoOrbital Ag 5   dz2 \
	OrthoOrbital Ag 5   dxz \
	OrthoOrbital Ag 5   dx2-y2 \
	OrthoOrbital Ag 6   s \
	OrthoOrbital Ag 6   p \
	OrthoOrbital Ag 6   px \
	OrthoOrbital Ag 6   py \
	OrthoOrbital Ag 6   pz \
	OrthoOrbital Ag 6   d \
	OrthoOrbital Ag 6   dxy \
	OrthoOrbital Ag 6   dyz \
	OrthoOrbital Ag 6   dz2 \
	OrthoOrbital Ag 6   dxz \
	OrthoOrbital Ag 6   dx2-y2 \
	OrthoOrbital Ag 7   s \
	OrthoOrbital Ag 7   p \
	OrthoOrbital Ag 7   px \
	OrthoOrbital Ag 7   py \
	OrthoOrbital Ag 7   pz \
	OrthoOrbital Ag 7   d \
	OrthoOrbital Ag 7   dxy \
	OrthoOrbital Ag 7   dyz \
	OrthoOrbital Ag 7   dz2 \
	OrthoOrbital Ag 7   dxz \
	OrthoOrbital Ag 7   dx2-y2 \
	OrthoOrbital Ag 8   s \
	OrthoOrbital Ag 8   p \
	OrthoOrbital Ag 8   px \
	OrthoOrbital Ag 8   py \
	OrthoOrbital Ag 8   pz \
	OrthoOrbital Ag 8   d \
	OrthoOrbital Ag 8   dxy \
	OrthoOrbital Ag 8   dyz \
	OrthoOrbital Ag 8   dz2 \
	OrthoOrbital Ag 8   dxz \
	OrthoOrbital Ag 8   dx2-y2 \
	OrthoOrbital Ag 9   s \
	OrthoOrbital Ag 9   p \
	OrthoOrbital Ag 9   px \
	OrthoOrbital Ag 9   py \
	OrthoOrbital Ag 9   pz \
	OrthoOrbital Ag 9   d \
	OrthoOrbital Ag 9   dxy \
	OrthoOrbital Ag 9   dyz \
	OrthoOrbital Ag 9   dz2 \
	OrthoOrbital Ag 9   dxz \
	OrthoOrbital Ag 9   dx2-y2 \
	OrthoOrbital Ag 10   s \
	OrthoOrbital Ag 10   p \
	OrthoOrbital Ag 10   px \
	OrthoOrbital Ag 10   py \
	OrthoOrbital Ag 10   pz \
	OrthoOrbital Ag 10   d \
	OrthoOrbital Ag 10   dxy \
	OrthoOrbital Ag 10   dyz \
	OrthoOrbital Ag 10   dz2 \
	OrthoOrbital Ag 10   dxz \
	OrthoOrbital Ag 10   dx2-y2 \
	OrthoOrbital Ag 11   s \
	OrthoOrbital Ag 11   p \
	OrthoOrbital Ag 11   px \
	OrthoOrbital Ag 11   py \
	OrthoOrbital Ag 11   pz \
	OrthoOrbital Ag 11   d \
	OrthoOrbital Ag 11   dxy \
	OrthoOrbital Ag 11   dyz \
	OrthoOrbital Ag 11   dz2 \
	OrthoOrbital Ag 11   dxz \
	OrthoOrbital Ag 11   dx2-y2 \
	OrthoOrbital Ag 12   s \
	OrthoOrbital Ag 12   p \
	OrthoOrbital Ag 12   px \
	OrthoOrbital Ag 12   py \
	OrthoOrbital Ag 12   pz \
	OrthoOrbital Ag 12   d \
	OrthoOrbital Ag 12   dxy \
	OrthoOrbital Ag 12   dyz \
	OrthoOrbital Ag 12   dz2 \
	OrthoOrbital Ag 12   dxz \
	OrthoOrbital Ag 12   dx2-y2 \
	OrthoOrbital Ag 13   s \
	OrthoOrbital Ag 13   p \
	OrthoOrbital Ag 13   px \
	OrthoOrbital Ag 13   py \
	OrthoOrbital Ag 13   pz \
	OrthoOrbital Ag 13   d \
	OrthoOrbital Ag 13   dxy \
	OrthoOrbital Ag 13   dyz \
	OrthoOrbital Ag 13   dz2 \
	OrthoOrbital Ag 13   dxz \
	OrthoOrbital Ag 13   dx2-y2 \
	OrthoOrbital Ag 14   s \
	OrthoOrbital Ag 14   p \
	OrthoOrbital Ag 14   px \
	OrthoOrbital Ag 14   py \
	OrthoOrbital Ag 14   pz \
	OrthoOrbital Ag 14   d \
	OrthoOrbital Ag 14   dxy \
	OrthoOrbital Ag 14   dyz \
	OrthoOrbital Ag 14   dz2 \
	OrthoOrbital Ag 14   dxz \
	OrthoOrbital Ag 14   dx2-y2 \
	OrthoOrbital Ag 15   s \
	OrthoOrbital Ag 15   p \
	OrthoOrbital Ag 15   px \
	OrthoOrbital Ag 15   py \
	OrthoOrbital Ag 15   pz \
	OrthoOrbital Ag 15   d \
	OrthoOrbital Ag 15   dxy \
	OrthoOrbital Ag 15   dyz \
	OrthoOrbital Ag 15   dz2 \
	OrthoOrbital Ag 15   dxz \
	OrthoOrbital Ag 15   dx2-y2 \
	OrthoOrbital Ag 16   s \
	OrthoOrbital Ag 16   p \
	OrthoOrbital Ag 16   px \
	OrthoOrbital Ag 16   py \
	OrthoOrbital Ag 16   pz \
	OrthoOrbital Ag 16   d \
	OrthoOrbital Ag 16   dxy \
	OrthoOrbital Ag 16   dyz \
	OrthoOrbital Ag 16   dz2 \
	OrthoOrbital Ag 16   dxz \
	OrthoOrbital Ag 16   dx2-y2 \
	OrthoOrbital Ag 17   s \
	OrthoOrbital Ag 17   p \
	OrthoOrbital Ag 17   px \
	OrthoOrbital Ag 17   py \
	OrthoOrbital Ag 17   pz \
	OrthoOrbital Ag 17   d \
	OrthoOrbital Ag 17   dxy \
	OrthoOrbital Ag 17   dyz \
	OrthoOrbital Ag 17   dz2 \
	OrthoOrbital Ag 17   dxz \
	OrthoOrbital Ag 17   dx2-y2 \
	OrthoOrbital Ag 18   s \
	OrthoOrbital Ag 18   p \
	OrthoOrbital Ag 18   px \
	OrthoOrbital Ag 18   py \
	OrthoOrbital Ag 18   pz \
	OrthoOrbital Ag 18   d \
	OrthoOrbital Ag 18   dxy \
	OrthoOrbital Ag 18   dyz \
	OrthoOrbital Ag 18   dz2 \
	OrthoOrbital Ag 18   dxz \
	OrthoOrbital Ag 18   dx2-y2 \
	OrthoOrbital Ag 19   s \
	OrthoOrbital Ag 19   p \
	OrthoOrbital Ag 19   px \
	OrthoOrbital Ag 19   py \
	OrthoOrbital Ag 19   pz \
	OrthoOrbital Ag 19   d \
	OrthoOrbital Ag 19   dxy \
	OrthoOrbital Ag 19   dyz \
	OrthoOrbital Ag 19   dz2 \
	OrthoOrbital Ag 19   dxz \
	OrthoOrbital Ag 19   dx2-y2 \
	OrthoOrbital Ag 20   s \
	OrthoOrbital Ag 20   p \
	OrthoOrbital Ag 20   px \
	OrthoOrbital Ag 20   py \
	OrthoOrbital Ag 20   pz \
	OrthoOrbital Ag 20   d \
	OrthoOrbital Ag 20   dxy \
	OrthoOrbital Ag 20   dyz \
	OrthoOrbital Ag 20   dz2 \
	OrthoOrbital Ag 20   dxz \
	OrthoOrbital Ag 20   dx2-y2 \
	OrthoOrbital Ag 21   s \
	OrthoOrbital Ag 21   p \
	OrthoOrbital Ag 21   px \
	OrthoOrbital Ag 21   py \
	OrthoOrbital Ag 21   pz \
	OrthoOrbital Ag 21   d \
	OrthoOrbital Ag 21   dxy \
	OrthoOrbital Ag 21   dyz \
	OrthoOrbital Ag 21   dz2 \
	OrthoOrbital Ag 21   dxz \
	OrthoOrbital Ag 21   dx2-y2 \
	OrthoOrbital Ag 22   s \
	OrthoOrbital Ag 22   p \
	OrthoOrbital Ag 22   px \
	OrthoOrbital Ag 22   py \
	OrthoOrbital Ag 22   pz \
	OrthoOrbital Ag 22   d \
	OrthoOrbital Ag 22   dxy \
	OrthoOrbital Ag 22   dyz \
	OrthoOrbital Ag 22   dz2 \
	OrthoOrbital Ag 22   dxz \
	OrthoOrbital Ag 22   dx2-y2 \
	OrthoOrbital Ag 23   s \
	OrthoOrbital Ag 23   p \
	OrthoOrbital Ag 23   px \
	OrthoOrbital Ag 23   py \
	OrthoOrbital Ag 23   pz \
	OrthoOrbital Ag 23   d \
	OrthoOrbital Ag 23   dxy \
	OrthoOrbital Ag 23   dyz \
	OrthoOrbital Ag 23   dz2 \
	OrthoOrbital Ag 23   dxz \
	OrthoOrbital Ag 23   dx2-y2 \
	OrthoOrbital Ag 24   s \
	OrthoOrbital Ag 24   p \
	OrthoOrbital Ag 24   px \
	OrthoOrbital Ag 24   py \
	OrthoOrbital Ag 24   pz \
	OrthoOrbital Ag 24   d \
	OrthoOrbital Ag 24   dxy \
	OrthoOrbital Ag 24   dyz \
	OrthoOrbital Ag 24   dz2 \
	OrthoOrbital Ag 24   dxz \
	OrthoOrbital Ag 24   dx2-y2 \
	OrthoOrbital Ag 25   s \
	OrthoOrbital Ag 25   p \
	OrthoOrbital Ag 25   px \
	OrthoOrbital Ag 25   py \
	OrthoOrbital Ag 25   pz \
	OrthoOrbital Ag 25   d \
	OrthoOrbital Ag 25   dxy \
	OrthoOrbital Ag 25   dyz \
	OrthoOrbital Ag 25   dz2 \
	OrthoOrbital Ag 25   dxz \
	OrthoOrbital Ag 25   dx2-y2 \
	OrthoOrbital Ag 26   s \
	OrthoOrbital Ag 26   p \
	OrthoOrbital Ag 26   px \
	OrthoOrbital Ag 26   py \
	OrthoOrbital Ag 26   pz \
	OrthoOrbital Ag 26   d \
	OrthoOrbital Ag 26   dxy \
	OrthoOrbital Ag 26   dyz \
	OrthoOrbital Ag 26   dz2 \
	OrthoOrbital Ag 26   dxz \
	OrthoOrbital Ag 26   dx2-y2 \
	OrthoOrbital Ag 27   s \
	OrthoOrbital Ag 27   p \
	OrthoOrbital Ag 27   px \
	OrthoOrbital Ag 27   py \
	OrthoOrbital Ag 27   pz \
	OrthoOrbital Ag 27   d \
	OrthoOrbital Ag 27   dxy \
	OrthoOrbital Ag 27   dyz \
	OrthoOrbital Ag 27   dz2 \
	OrthoOrbital Ag 27   dxz \
	OrthoOrbital Ag 27   dx2-y2 \
	OrthoOrbital Ag 28   s \
	OrthoOrbital Ag 28   p \
	OrthoOrbital Ag 28   px \
	OrthoOrbital Ag 28   py \
	OrthoOrbital Ag 28   pz \
	OrthoOrbital Ag 28   d \
	OrthoOrbital Ag 28   dxy \
	OrthoOrbital Ag 28   dyz \
	OrthoOrbital Ag 28   dz2 \
	OrthoOrbital Ag 28   dxz \
	OrthoOrbital Ag 28   dx2-y2 \
	OrthoOrbital Ag 29   s \
	OrthoOrbital Ag 29   p \
	OrthoOrbital Ag 29   px \
	OrthoOrbital Ag 29   py \
	OrthoOrbital Ag 29   pz \
	OrthoOrbital Ag 29   d \
	OrthoOrbital Ag 29   dxy \
	OrthoOrbital Ag 29   dyz \
	OrthoOrbital Ag 29   dz2 \
	OrthoOrbital Ag 29   dxz \
	OrthoOrbital Ag 29   dx2-y2 \
	OrthoOrbital Ag 30   s \
	OrthoOrbital Ag 30   p \
	OrthoOrbital Ag 30   px \
	OrthoOrbital Ag 30   py \
	OrthoOrbital Ag 30   pz \
	OrthoOrbital Ag 30   d \
	OrthoOrbital Ag 30   dxy \
	OrthoOrbital Ag 30   dyz \
	OrthoOrbital Ag 30   dz2 \
	OrthoOrbital Ag 30   dxz \
	OrthoOrbital Ag 30   dx2-y2 \
	OrthoOrbital Ag 31   s \
	OrthoOrbital Ag 31   p \
	OrthoOrbital Ag 31   px \
	OrthoOrbital Ag 31   py \
	OrthoOrbital Ag 31   pz \
	OrthoOrbital Ag 31   d \
	OrthoOrbital Ag 31   dxy \
	OrthoOrbital Ag 31   dyz \
	OrthoOrbital Ag 31   dz2 \
	OrthoOrbital Ag 31   dxz \
	OrthoOrbital Ag 31   dx2-y2 \
	OrthoOrbital Ag 32   s \
	OrthoOrbital Ag 32   p \
	OrthoOrbital Ag 32   px \
	OrthoOrbital Ag 32   py \
	OrthoOrbital Ag 32   pz \
	OrthoOrbital Ag 32   d \
	OrthoOrbital Ag 32   dxy \
	OrthoOrbital Ag 32   dyz \
	OrthoOrbital Ag 32   dz2 \
	OrthoOrbital Ag 32   dxz \
	OrthoOrbital Ag 32   dx2-y2 \
	OrthoOrbital Ag 33   s \
	OrthoOrbital Ag 33   p \
	OrthoOrbital Ag 33   px \
	OrthoOrbital Ag 33   py \
	OrthoOrbital Ag 33   pz \
	OrthoOrbital Ag 33   d \
	OrthoOrbital Ag 33   dxy \
	OrthoOrbital Ag 33   dyz \
	OrthoOrbital Ag 33   dz2 \
	OrthoOrbital Ag 33   dxz \
	OrthoOrbital Ag 33   dx2-y2 \
	OrthoOrbital Ag 34   s \
	OrthoOrbital Ag 34   p \
	OrthoOrbital Ag 34   px \
	OrthoOrbital Ag 34   py \
	OrthoOrbital Ag 34   pz \
	OrthoOrbital Ag 34   d \
	OrthoOrbital Ag 34   dxy \
	OrthoOrbital Ag 34   dyz \
	OrthoOrbital Ag 34   dz2 \
	OrthoOrbital Ag 34   dxz \
	OrthoOrbital Ag 34   dx2-y2 \
	OrthoOrbital Ag 35   s \
	OrthoOrbital Ag 35   p \
	OrthoOrbital Ag 35   px \
	OrthoOrbital Ag 35   py \
	OrthoOrbital Ag 35   pz \
	OrthoOrbital Ag 35   d \
	OrthoOrbital Ag 35   dxy \
	OrthoOrbital Ag 35   dyz \
	OrthoOrbital Ag 35   dz2 \
	OrthoOrbital Ag 35   dxz \
	OrthoOrbital Ag 35   dx2-y2 \
	OrthoOrbital Ag 36   s \
	OrthoOrbital Ag 36   p \
	OrthoOrbital Ag 36   px \
	OrthoOrbital Ag 36   py \
	OrthoOrbital Ag 36   pz \
	OrthoOrbital Ag 36   d \
	OrthoOrbital Ag 36   dxy \
	OrthoOrbital Ag 36   dyz \
	OrthoOrbital Ag 36   dz2 \
	OrthoOrbital Ag 36   dxz \
	OrthoOrbital Ag 36   dx2-y2 \
	OrthoOrbital Ag 37   s \
	OrthoOrbital Ag 37   p \
	OrthoOrbital Ag 37   px \
	OrthoOrbital Ag 37   py \
	OrthoOrbital Ag 37   pz \
	OrthoOrbital Ag 37   d \
	OrthoOrbital Ag 37   dxy \
	OrthoOrbital Ag 37   dyz \
	OrthoOrbital Ag 37   dz2 \
	OrthoOrbital Ag 37   dxz \
	OrthoOrbital Ag 37   dx2-y2 \
	OrthoOrbital Ag 38   s \
	OrthoOrbital Ag 38   p \
	OrthoOrbital Ag 38   px \
	OrthoOrbital Ag 38   py \
	OrthoOrbital Ag 38   pz \
	OrthoOrbital Ag 38   d \
	OrthoOrbital Ag 38   dxy \
	OrthoOrbital Ag 38   dyz \
	OrthoOrbital Ag 38   dz2 \
	OrthoOrbital Ag 38   dxz \
	OrthoOrbital Ag 38   dx2-y2 \
	OrthoOrbital Ag 39   s \
	OrthoOrbital Ag 39   p \
	OrthoOrbital Ag 39   px \
	OrthoOrbital Ag 39   py \
	OrthoOrbital Ag 39   pz \
	OrthoOrbital Ag 39   d \
	OrthoOrbital Ag 39   dxy \
	OrthoOrbital Ag 39   dyz \
	OrthoOrbital Ag 39   dz2 \
	OrthoOrbital Ag 39   dxz \
	OrthoOrbital Ag 39   dx2-y2 \
	OrthoOrbital Ag 40   s \
	OrthoOrbital Ag 40   p \
	OrthoOrbital Ag 40   px \
	OrthoOrbital Ag 40   py \
	OrthoOrbital Ag 40   pz \
	OrthoOrbital Ag 40   d \
	OrthoOrbital Ag 40   dxy \
	OrthoOrbital Ag 40   dyz \
	OrthoOrbital Ag 40   dz2 \
	OrthoOrbital Ag 40   dxz \
	OrthoOrbital Ag 40   dx2-y2 \
	OrthoOrbital Ag 41   s \
	OrthoOrbital Ag 41   p \
	OrthoOrbital Ag 41   px \
	OrthoOrbital Ag 41   py \
	OrthoOrbital Ag 41   pz \
	OrthoOrbital Ag 41   d \
	OrthoOrbital Ag 41   dxy \
	OrthoOrbital Ag 41   dyz \
	OrthoOrbital Ag 41   dz2 \
	OrthoOrbital Ag 41   dxz \
	OrthoOrbital Ag 41   dx2-y2 \
	OrthoOrbital Ag 42   s \
	OrthoOrbital Ag 42   p \
	OrthoOrbital Ag 42   px \
	OrthoOrbital Ag 42   py \
	OrthoOrbital Ag 42   pz \
	OrthoOrbital Ag 42   d \
	OrthoOrbital Ag 42   dxy \
	OrthoOrbital Ag 42   dyz \
	OrthoOrbital Ag 42   dz2 \
	OrthoOrbital Ag 42   dxz \
	OrthoOrbital Ag 42   dx2-y2 \
	OrthoOrbital Ag 43   s \
	OrthoOrbital Ag 43   p \
	OrthoOrbital Ag 43   px \
	OrthoOrbital Ag 43   py \
	OrthoOrbital Ag 43   pz \
	OrthoOrbital Ag 43   d \
	OrthoOrbital Ag 43   dxy \
	OrthoOrbital Ag 43   dyz \
	OrthoOrbital Ag 43   dz2 \
	OrthoOrbital Ag 43   dxz \
	OrthoOrbital Ag 43   dx2-y2 \
	OrthoOrbital Ag 44   s \
	OrthoOrbital Ag 44   p \
	OrthoOrbital Ag 44   px \
	OrthoOrbital Ag 44   py \
	OrthoOrbital Ag 44   pz \
	OrthoOrbital Ag 44   d \
	OrthoOrbital Ag 44   dxy \
	OrthoOrbital Ag 44   dyz \
	OrthoOrbital Ag 44   dz2 \
	OrthoOrbital Ag 44   dxz \
	OrthoOrbital Ag 44   dx2-y2 \
	OrthoOrbital Ag 45   s \
	OrthoOrbital Ag 45   p \
	OrthoOrbital Ag 45   px \
	OrthoOrbital Ag 45   py \
	OrthoOrbital Ag 45   pz \
	OrthoOrbital Ag 45   d \
	OrthoOrbital Ag 45   dxy \
	OrthoOrbital Ag 45   dyz \
	OrthoOrbital Ag 45   dz2 \
	OrthoOrbital Ag 45   dxz \
	OrthoOrbital Ag 45   dx2-y2 \
	OrthoOrbital Ag 46   s \
	OrthoOrbital Ag 46   p \
	OrthoOrbital Ag 46   px \
	OrthoOrbital Ag 46   py \
	OrthoOrbital Ag 46   pz \
	OrthoOrbital Ag 46   d \
	OrthoOrbital Ag 46   dxy \
	OrthoOrbital Ag 46   dyz \
	OrthoOrbital Ag 46   dz2 \
	OrthoOrbital Ag 46   dxz \
	OrthoOrbital Ag 46   dx2-y2 \
	OrthoOrbital Ag 47   s \
	OrthoOrbital Ag 47   p \
	OrthoOrbital Ag 47   px \
	OrthoOrbital Ag 47   py \
	OrthoOrbital Ag 47   pz \
	OrthoOrbital Ag 47   d \
	OrthoOrbital Ag 47   dxy \
	OrthoOrbital Ag 47   dyz \
	OrthoOrbital Ag 47   dz2 \
	OrthoOrbital Ag 47   dxz \
	OrthoOrbital Ag 47   dx2-y2 \
	OrthoOrbital Ag 48   s \
	OrthoOrbital Ag 48   p \
	OrthoOrbital Ag 48   px \
	OrthoOrbital Ag 48   py \
	OrthoOrbital Ag 48   pz \
	OrthoOrbital Ag 48   d \
	OrthoOrbital Ag 48   dxy \
	OrthoOrbital Ag 48   dyz \
	OrthoOrbital Ag 48   dz2 \
	OrthoOrbital Ag 48   dxz \
	OrthoOrbital Ag 48   dx2-y2 \
	OrthoOrbital Pt 1   s \
	OrthoOrbital Pt 1   p \
	OrthoOrbital Pt 1   px \
	OrthoOrbital Pt 1   py \
	OrthoOrbital Pt 1   pz \
	OrthoOrbital Pt 1   d \
	OrthoOrbital Pt 1   dxy \
	OrthoOrbital Pt 1   dyz \
	OrthoOrbital Pt 1   dz2 \
	OrthoOrbital Pt 1   dxz \
	OrthoOrbital Pt 1   dx2-y2 \
	OrthoOrbital Pt 2   s \
	OrthoOrbital Pt 2   p \
	OrthoOrbital Pt 2   px \
	OrthoOrbital Pt 2   py \
	OrthoOrbital Pt 2   pz \
	OrthoOrbital Pt 2   d \
	OrthoOrbital Pt 2   dxy \
	OrthoOrbital Pt 2   dyz \
	OrthoOrbital Pt 2   dz2 \
	OrthoOrbital Pt 2   dxz \
	OrthoOrbital Pt 2   dx2-y2 \
	OrthoOrbital Pt 3   s \
	OrthoOrbital Pt 3   p \
	OrthoOrbital Pt 3   px \
	OrthoOrbital Pt 3   py \
	OrthoOrbital Pt 3   pz \
	OrthoOrbital Pt 3   d \
	OrthoOrbital Pt 3   dxy \
	OrthoOrbital Pt 3   dyz \
	OrthoOrbital Pt 3   dz2 \
	OrthoOrbital Pt 3   dxz \
	OrthoOrbital Pt 3   dx2-y2 \
	OrthoOrbital Pt 4   s \
	OrthoOrbital Pt 4   p \
	OrthoOrbital Pt 4   px \
	OrthoOrbital Pt 4   py \
	OrthoOrbital Pt 4   pz \
	OrthoOrbital Pt 4   d \
	OrthoOrbital Pt 4   dxy \
	OrthoOrbital Pt 4   dyz \
	OrthoOrbital Pt 4   dz2 \
	OrthoOrbital Pt 4   dxz \
	OrthoOrbital Pt 4   dx2-y2 \
	OrthoOrbital Pt 5   s \
	OrthoOrbital Pt 5   p \
	OrthoOrbital Pt 5   px \
	OrthoOrbital Pt 5   py \
	OrthoOrbital Pt 5   pz \
	OrthoOrbital Pt 5   d \
	OrthoOrbital Pt 5   dxy \
	OrthoOrbital Pt 5   dyz \
	OrthoOrbital Pt 5   dz2 \
	OrthoOrbital Pt 5   dxz \
	OrthoOrbital Pt 5   dx2-y2 \
	OrthoOrbital Pt 6   s \
	OrthoOrbital Pt 6   p \
	OrthoOrbital Pt 6   px \
	OrthoOrbital Pt 6   py \
	OrthoOrbital Pt 6   pz \
	OrthoOrbital Pt 6   d \
	OrthoOrbital Pt 6   dxy \
	OrthoOrbital Pt 6   dyz \
	OrthoOrbital Pt 6   dz2 \
	OrthoOrbital Pt 6   dxz \
	OrthoOrbital Pt 6   dx2-y2 \
	OrthoOrbital Pt 7   s \
	OrthoOrbital Pt 7   p \
	OrthoOrbital Pt 7   px \
	OrthoOrbital Pt 7   py \
	OrthoOrbital Pt 7   pz \
	OrthoOrbital Pt 7   d \
	OrthoOrbital Pt 7   dxy \
	OrthoOrbital Pt 7   dyz \
	OrthoOrbital Pt 7   dz2 \
	OrthoOrbital Pt 7   dxz \
	OrthoOrbital Pt 7   dx2-y2 \
	OrthoOrbital Pt 8   s \
	OrthoOrbital Pt 8   p \
	OrthoOrbital Pt 8   px \
	OrthoOrbital Pt 8   py \
	OrthoOrbital Pt 8   pz \
	OrthoOrbital Pt 8   d \
	OrthoOrbital Pt 8   dxy \
	OrthoOrbital Pt 8   dyz \
	OrthoOrbital Pt 8   dz2 \
	OrthoOrbital Pt 8   dxz \
	OrthoOrbital Pt 8   dx2-y2 \
	OrthoOrbital Pt 9   s \
	OrthoOrbital Pt 9   p \
	OrthoOrbital Pt 9   px \
	OrthoOrbital Pt 9   py \
	OrthoOrbital Pt 9   pz \
	OrthoOrbital Pt 9   d \
	OrthoOrbital Pt 9   dxy \
	OrthoOrbital Pt 9   dyz \
	OrthoOrbital Pt 9   dz2 \
	OrthoOrbital Pt 9   dxz \
	OrthoOrbital Pt 9   dx2-y2 \
	OrthoOrbital Pt 10   s \
	OrthoOrbital Pt 10   p \
	OrthoOrbital Pt 10   px \
	OrthoOrbital Pt 10   py \
	OrthoOrbital Pt 10   pz \
	OrthoOrbital Pt 10   d \
	OrthoOrbital Pt 10   dxy \
	OrthoOrbital Pt 10   dyz \
	OrthoOrbital Pt 10   dz2 \
	OrthoOrbital Pt 10   dxz \
	OrthoOrbital Pt 10   dx2-y2 \
	OrthoOrbital Pt 11   s \
	OrthoOrbital Pt 11   p \
	OrthoOrbital Pt 11   px \
	OrthoOrbital Pt 11   py \
	OrthoOrbital Pt 11   pz \
	OrthoOrbital Pt 11   d \
	OrthoOrbital Pt 11   dxy \
	OrthoOrbital Pt 11   dyz \
	OrthoOrbital Pt 11   dz2 \
	OrthoOrbital Pt 11   dxz \
	OrthoOrbital Pt 11   dx2-y2 \
	OrthoOrbital Pt 12   s \
	OrthoOrbital Pt 12   p \
	OrthoOrbital Pt 12   px \
	OrthoOrbital Pt 12   py \
	OrthoOrbital Pt 12   pz \
	OrthoOrbital Pt 12   d \
	OrthoOrbital Pt 12   dxy \
	OrthoOrbital Pt 12   dyz \
	OrthoOrbital Pt 12   dz2 \
	OrthoOrbital Pt 12   dxz \
	OrthoOrbital Pt 12   dx2-y2 \
	OrthoOrbital Pt 13   s \
	OrthoOrbital Pt 13   p \
	OrthoOrbital Pt 13   px \
	OrthoOrbital Pt 13   py \
	OrthoOrbital Pt 13   pz \
	OrthoOrbital Pt 13   d \
	OrthoOrbital Pt 13   dxy \
	OrthoOrbital Pt 13   dyz \
	OrthoOrbital Pt 13   dz2 \
	OrthoOrbital Pt 13   dxz \
	OrthoOrbital Pt 13   dx2-y2 \
	OrthoOrbital Pt 14   s \
	OrthoOrbital Pt 14   p \
	OrthoOrbital Pt 14   px \
	OrthoOrbital Pt 14   py \
	OrthoOrbital Pt 14   pz \
	OrthoOrbital Pt 14   d \
	OrthoOrbital Pt 14   dxy \
	OrthoOrbital Pt 14   dyz \
	OrthoOrbital Pt 14   dz2 \
	OrthoOrbital Pt 14   dxz \
	OrthoOrbital Pt 14   dx2-y2 \
	OrthoOrbital Pt 15   s \
	OrthoOrbital Pt 15   p \
	OrthoOrbital Pt 15   px \
	OrthoOrbital Pt 15   py \
	OrthoOrbital Pt 15   pz \
	OrthoOrbital Pt 15   d \
	OrthoOrbital Pt 15   dxy \
	OrthoOrbital Pt 15   dyz \
	OrthoOrbital Pt 15   dz2 \
	OrthoOrbital Pt 15   dxz \
	OrthoOrbital Pt 15   dx2-y2 \
	OrthoOrbital Pt 16   s \
	OrthoOrbital Pt 16   p \
	OrthoOrbital Pt 16   px \
	OrthoOrbital Pt 16   py \
	OrthoOrbital Pt 16   pz \
	OrthoOrbital Pt 16   d \
	OrthoOrbital Pt 16   dxy \
	OrthoOrbital Pt 16   dyz \
	OrthoOrbital Pt 16   dz2 \
	OrthoOrbital Pt 16   dxz \
	OrthoOrbital Pt 16   dx2-y2 \
	OrthoOrbital C 1   s \
	OrthoOrbital C 1   p \
	OrthoOrbital C 1   px \
	OrthoOrbital C 1   py \
	OrthoOrbital C 1   pz \
	OrthoOrbital O 1   s \
	OrthoOrbital O 1   p \
	OrthoOrbital O 1   px \
	OrthoOrbital O 1   py \
	OrthoOrbital O 1   pz
dump End ElecDensity KEdensity BandEigs EigStats RhoAtom DOS Kpoints
dump Ionic State IonicPositions Lattice EigStats Ecomponents
dump 
dump 
dump 
dump 
dump 
dump 
dump 
dump 
dump-name jdft.$VAR
elec-cutoff 20
elec-eigen-algo Davidson
elec-ex-corr gga-PBE
elec-initial-magnetization 0.000000 no
elec-n-bands 707
elec-smearing Fermi 0.001
electronic-minimize  \
	dirUpdateScheme      FletcherReeves \
	linminMethod         DirUpdateRecommended \
	nIterations          100 \
	history              15 \
	knormThreshold       0 \
	energyDiffThreshold  1e-07 \
	nEnergyDiff          2 \
	alphaTstart          1 \
	alphaTmin            1e-10 \
	updateTestStepSize   yes \
	alphaTreduceFactor   0.1 \
	alphaTincreaseFactor 3 \
	nAlphaAdjustMax      3 \
	wolfeEnergy          0.0001 \
	wolfeGradient        0.9 \
	fdTest               no
exchange-regularization WignerSeitzTruncated
fluid LinearPCM 298.000000 1.013250
fluid-anion F- 0.5 MeanFieldLJ \
	epsBulk 1 \
	pMol 0 \
	epsInf 1 \
	Pvap 0 \
	sigmaBulk 0 \
	Rvdw 2.24877 \
	Res 0 \
	tauNuc 343133
fluid-cation Na+ 0.5 MeanFieldLJ \
	epsBulk 1 \
	pMol 0 \
	epsInf 1 \
	Pvap 0 \
	sigmaBulk 0 \
	Rvdw 2.19208 \
	Res 0 \
	tauNuc 343133
fluid-ex-corr lda-TF lda-PZ
fluid-gummel-loop 10 1.000000e-05
fluid-minimize  \
	dirUpdateScheme      PolakRibiere \
	linminMethod         DirUpdateRecommended \
	nIterations          400 \
	history              15 \
	knormThreshold       1e-11 \
	energyDiffThreshold  0 \
	nEnergyDiff          2 \
	alphaTstart          1 \
	alphaTmin            1e-10 \
	updateTestStepSize   yes \
	alphaTreduceFactor   0.1 \
	alphaTincreaseFactor 3 \
	nAlphaAdjustMax      6 \
	wolfeEnergy          0.0001 \
	wolfeGradient        0.9 \
	fdTest               no
fluid-solvent H2O 55.338 ScalarEOS \
	epsBulk 78.4 \
	pMol 0.92466 \
	epsInf 1.77 \
	Pvap 1.06736e-10 \
	sigmaBulk 4.62e-05 \
	Rvdw 2.61727 \
	Res 1.42 \
	tauNuc 343133 \
	poleEl 15 7 1
forces-output-coords Positions
ion Ag   3.787148999999999   2.725242999999999   1.237413000000000 0
ion Ag   3.787148999999999  13.436916999999996   1.237413000000000 0
ion Ag  11.361447000000000   2.725242999999999   1.237413000000000 0
ion Ag  11.361447000000000  13.436916999999996   1.237413000000000 0
ion Ag   3.787148999999999   8.038576000000001   6.660413000000000 0
ion Ag   3.787148999999999  18.750228999999997   6.660413000000000 0
ion Ag  11.361447000000000   8.038576000000001   6.660413000000000 0
ion Ag  11.361447000000000  18.750228999999997   6.660413000000000 0
ion Ag   0.000000000000000   5.355836999999999   9.413526999999998 0
ion Ag   0.000000000000000  16.067511999999997   9.413526999999998 0
ion Ag   7.574297999999999   5.355836999999999   9.413526999999998 0
ion Ag   7.574297999999999  16.067511999999997   9.413526999999998 0
ion Ag   0.000000000000000   0.000000000000000   3.864076000000000 0
ion Ag   0.000000000000000  10.711673999999999   3.864076000000000 0
ion Ag   7.574297999999999   0.000000000000000   3.864076000000000 0
ion Ag   7.574297999999999  10.711673999999999   3.864076000000000 0
ion Ag   3.787148999999999   7.986431999999998   1.237413000000000 0
ion Ag   3.787148999999999  18.698105999999996   1.237413000000000 0
ion Ag  11.361447000000000   7.986431999999998   1.237413000000000 0
ion Ag  11.361447000000000  18.698105999999996   1.237413000000000 0
ion Ag   3.787148999999999   2.673098000000000   6.660413000000000 0
ion Ag   3.787148999999999  13.384793999999996   6.660413000000000 0
ion Ag  11.361447000000000   2.673098000000000   6.660413000000000 0
ion Ag  11.361447000000000  13.384793999999996   6.660413000000000 0
ion Ag   3.787148999999999   2.682696000000000  12.076021000000001 0
ion Ag   3.787148999999999  13.394369999999999  12.076021000000001 0
ion Ag  11.361447000000000   2.682696000000000  12.076021000000001 0
ion Ag  11.361447000000000  13.394369999999999  12.076021000000001 0
ion Ag   3.787148999999999   8.000313999999998  17.563452000000002 0
ion Ag   3.787148999999999  18.711987999999998  17.563452000000002 0
ion Ag  11.361447000000000   8.000313999999998  17.563452000000002 0
ion Ag  11.361447000000000  18.711987999999998  17.563452000000002 0
ion Ag   0.000000000000000   5.355836999999999  20.280093000000001 0
ion Ag   0.000000000000000  16.067511999999997  20.280093000000001 0
ion Ag   7.574297999999999   5.355836999999999  20.280093000000001 0
ion Ag   7.574297999999999  16.067511999999997  20.280093000000001 0
ion Ag   0.000000000000000   0.000000000000000  14.712647000000000 0
ion Ag   0.000000000000000  10.711673999999999  14.712647000000000 0
ion Ag   7.574297999999999   0.000000000000000  14.712647000000000 0
ion Ag   7.574297999999999  10.711673999999999  14.712647000000000 0
ion Ag   3.787148999999999   8.028977999999999  12.076021000000001 0
ion Ag   3.787148999999999  18.740652999999995  12.076021000000001 0
ion Ag  11.361447000000000   8.028977999999999  12.076021000000001 0
ion Ag  11.361447000000000  18.740652999999995  12.076021000000001 0
ion Ag   3.787148999999999   2.711339000000000  17.563452000000002 0
ion Ag   3.787148999999999  13.423012999999996  17.563452000000002 0
ion Ag  11.361447000000000   2.711339000000000  17.563452000000002 0
ion Ag  11.361447000000000  13.423012999999996  17.563452000000002 0
ion Pt   0.000000000000000   5.355836999999999   3.956249999999999 0
ion Pt   0.000000000000000  16.067511999999997   3.956249999999999 0
ion Pt   7.574297999999999   5.355836999999999   3.956249999999999 0
ion Pt   7.574297999999999  16.067511999999997   3.956249999999999 0
ion Pt   0.000000000000000   0.000000000000000   9.374912000000000 0
ion Pt   0.000000000000000  10.711673999999999   9.374912000000000 0
ion Pt   7.574297999999999   0.000000000000000   9.374912000000000 0
ion Pt   7.574297999999999  10.711673999999999   9.374912000000000 0
ion Pt   0.000000000000000   5.355836999999999  14.805410000000000 0
ion Pt   0.000000000000000  16.067511999999997  14.805410000000000 0
ion Pt   7.574297999999999   5.355836999999999  14.805410000000000 0
ion Pt   7.574297999999999  16.067511999999997  14.805410000000000 0
ion Pt   0.000000000000000   0.000000000000000  19.905184999999999 0
ion Pt   0.000000000000000  10.711673999999999  19.905184999999999 0
ion Pt   7.574297999999999   0.000000000000000  19.905184999999999 0
ion Pt   7.574297999999999  10.711673999999999  19.905184999999999 0
ion C   7.574297999999999  10.711673999999999  23.684639000000001 1  Linear 0 0 1
ion O   7.634392999999999  10.711673999999999  25.839988000000002 1  Linear 0 0 1
ion-species /projects/musgravc/apps/jdftx-1.6.0/build/pseudopotentials/GBRV_v1.5/$ID_pbe_v1.uspp
ion-species /projects/musgravc/apps/jdftx-1.6.0/build/pseudopotentials/GBRV_v1.5/$ID_pbe_v1.2.uspp
ion-species /projects/musgravc/apps/jdftx-1.6.0/build/pseudopotentials/GBRV_v1.5/$ID_pbe_v1.4.uspp
ion-species /projects/musgravc/apps/jdftx-1.6.0/build/pseudopotentials/GBRV_v1.5/$ID_pbe_v1.5.uspp
ion-width Ecut
ionic-minimize  \
	dirUpdateScheme      L-BFGS \
	linminMethod         DirUpdateRecommended \
	nIterations          100 \
	history              15 \
	knormThreshold       0.0001 \
	energyDiffThreshold  1e-06 \
	nEnergyDiff          2 \
	alphaTstart          1 \
	alphaTmin            1e-10 \
	updateTestStepSize   yes \
	alphaTreduceFactor   0.1 \
	alphaTincreaseFactor 3 \
	nAlphaAdjustMax      3 \
	wolfeEnergy          0.0001 \
	wolfeGradient        0.9 \
	fdTest               no
kpoint   0.000000000000   0.000000000000   0.000000000000  1.00000000000000
kpoint-folding 4 3 1 
latt-move-scale 0 0 0
latt-scale 1 1 1 
lattice  \
	  15.148596000000000    0.000000000000000    0.000000000000000  \
	   0.000000000000000   21.423349000000002    0.000000000000000  \
	   0.000000000000000    0.000000000000000   53.558376000000003 
lattice-minimize  \
	dirUpdateScheme      L-BFGS \
	linminMethod         DirUpdateRecommended \
	nIterations          0 \
	history              15 \
	knormThreshold       0 \
	energyDiffThreshold  1e-06 \
	nEnergyDiff          2 \
	alphaTstart          1 \
	alphaTmin            1e-10 \
	updateTestStepSize   yes \
	alphaTreduceFactor   0.1 \
	alphaTincreaseFactor 3 \
	nAlphaAdjustMax      3 \
	wolfeEnergy          0.0001 \
	wolfeGradient        0.9 \
	fdTest               no
lcao-params 30 1e-06 0.001
pcm-variant CANDLE
spintype z-spin
subspace-rotation-factor 1 yes
symmetries automatic
symmetry-threshold 0.0001
van-der-waals D3



---------- Setting up symmetries ----------

Found 8 point-group symmetries of the bravais lattice
Found 2 space-group symmetries with basis
Applied RMS atom displacement 5.15508e-06 bohrs to make symmetries exact.

---------- Initializing the Grid ----------
R = 
[      15.1486            0            0  ]
[            0      21.4233            0  ]
[            0            0      53.5584  ]
unit cell volume = 17381.5
G =
[    0.41477          0          0  ]
[          0   0.293287          0  ]
[          0          0   0.117315  ]
Minimum fftbox size, Smin = [  64  88  216  ]
Chosen fftbox size, S = [  64  90  216  ]

---------- Exchange Correlation functional ----------
Initalized PBE GGA exchange.
Initalized PBE GGA correlation.

---------- Setting up pseudopotentials ----------
Width of ionic core gaussian charges (only for fluid interactions / plotting) set to 0.397384

Reading pseudopotential file '/projects/musgravc/apps/jdftx-1.6.0/build/pseudopotentials/GBRV_v1.5/ag_pbe_v1.4.uspp':
  Title: Ag.  Created by USPP 7.3.6 on 1-4-15
  Reference state energy: -147.606242.  19 valence electrons in orbitals:
    |400>  occupation: 2  eigenvalue: -3.637437
    |410>  occupation: 6  eigenvalue: -2.297267
    |420>  occupation: 10  eigenvalue: -0.417763
    |500>  occupation: 0.5  eigenvalue: -0.283525
    |510>  occupation: 0  eigenvalue: -0.122889
  lMax: 2  lLocal: 0  QijEcut: 5.5
  6 projectors sampled on a log grid with 717 points:
    l: 0  eig: -0.283528  rCut: 1.5
    l: 0  eig: -3.637440  rCut: 1.5
    l: 1  eig: -0.122892  rCut: 1.5
    l: 1  eig: -2.297267  rCut: 1.5
    l: 2  eig: -0.417762  rCut: 1.7
    l: 2  eig: -1.000000  rCut: 1.7
  Partial core density with radius 1.2
  Transforming core density to a uniform radial grid of dG=0.02 with 1136 points.
  Transforming local potential to a uniform radial grid of dG=0.02 with 1136 points.
  Transforming nonlocal projectors to a uniform radial grid of dG=0.02 with 432 points.
  Transforming density augmentations to a uniform radial grid of dG=0.02 with 1136 points.
  Transforming atomic orbitals to a uniform radial grid of dG=0.02 with 432 points.
  Core radius for overlap checks: 1.70 bohrs.

Reading pseudopotential file '/projects/musgravc/apps/jdftx-1.6.0/build/pseudopotentials/GBRV_v1.5/pt_pbe_v1.4.uspp':
  Title: Pt.  Created by USPP 7.3.6 on 31-3-15
  Reference state energy: -105.002503.  16 valence electrons in orbitals:
    |510>  occupation: 6  eigenvalue: -2.158104
    |520>  occupation: 9.5  eigenvalue: -0.335376
    |600>  occupation: 0  eigenvalue: -0.319640
    |610>  occupation: 0  eigenvalue: -0.122947
  lMax: 2  lLocal: 3  QijEcut: 5.5
  6 projectors sampled on a log grid with 745 points:
    l: 0  eig: -0.319640  rCut: 2.45
    l: 0  eig: 1.500000  rCut: 2.45
    l: 1  eig: -2.158104  rCut: 1.6
    l: 1  eig: -0.122947  rCut: 1.6
    l: 2  eig: -0.500000  rCut: 1.6
    l: 2  eig: -0.335375  rCut: 1.6
  Partial core density with radius 1.1
  Transforming core density to a uniform radial grid of dG=0.02 with 1136 points.
  Transforming local potential to a uniform radial grid of dG=0.02 with 1136 points.
  Transforming nonlocal projectors to a uniform radial grid of dG=0.02 with 432 points.
  Transforming density augmentations to a uniform radial grid of dG=0.02 with 1136 points.
  Transforming atomic orbitals to a uniform radial grid of dG=0.02 with 432 points.
  Core radius for overlap checks: 2.45 bohrs.

Reading pseudopotential file '/projects/musgravc/apps/jdftx-1.6.0/build/pseudopotentials/GBRV_v1.5/c_pbe_v1.2.uspp':
  Title: C.  Created by USPP 7.3.6 on 3-2-2014
  Reference state energy: -5.406344.  4 valence electrons in orbitals:
    |200>  occupation: 2  eigenvalue: -0.504890
    |210>  occupation: 2  eigenvalue: -0.194356
  lMax: 1  lLocal: 2  QijEcut: 5
  4 projectors sampled on a log grid with 503 points:
    l: 0  eig: -0.504890  rCut: 1.3
    l: 0  eig: 0.000000  rCut: 1.3
    l: 1  eig: -0.194357  rCut: 1.3
    l: 1  eig: 0.000000  rCut: 1.3
  Partial core density with radius 1.1
  Transforming core density to a uniform radial grid of dG=0.02 with 1136 points.
  Transforming local potential to a uniform radial grid of dG=0.02 with 1136 points.
  Transforming nonlocal projectors to a uniform radial grid of dG=0.02 with 432 points.
  Transforming density augmentations to a uniform radial grid of dG=0.02 with 1136 points.
  Transforming atomic orbitals to a uniform radial grid of dG=0.02 with 432 points.
  Core radius for overlap checks: 1.30 bohrs.

Reading pseudopotential file '/projects/musgravc/apps/jdftx-1.6.0/build/pseudopotentials/GBRV_v1.5/o_pbe_v1.2.uspp':
  Title: O.  Created by USPP 7.3.6 on 3-2-2014
  Reference state energy: -15.894388.  6 valence electrons in orbitals:
    |200>  occupation: 2  eigenvalue: -0.878823
    |210>  occupation: 4  eigenvalue: -0.332131
  lMax: 2  lLocal: 2  QijEcut: 6
  5 projectors sampled on a log grid with 511 points:
    l: 0  eig: -0.878823  rCut: 1.25
    l: 0  eig: 0.000000  rCut: 1.25
    l: 1  eig: -0.332132  rCut: 1.25
    l: 1  eig: 0.000000  rCut: 1.25
    l: 2  eig: 1.000000  rCut: 1.25
  Partial core density with radius 0.7
  Transforming core density to a uniform radial grid of dG=0.02 with 1136 points.
  Transforming local potential to a uniform radial grid of dG=0.02 with 1136 points.
  Transforming nonlocal projectors to a uniform radial grid of dG=0.02 with 432 points.
  Transforming density augmentations to a uniform radial grid of dG=0.02 with 1136 points.
  Transforming atomic orbitals to a uniform radial grid of dG=0.02 with 432 points.
  Core radius for overlap checks: 1.25 bohrs.

Initialized 4 species with 66 total atoms.

Folded 1 k-points by 4x3x1 to 12 k-points.

---------- Setting up k-points, bands, fillings ----------
Adding inversion symmetry to k-mesh for non-inversion-symmetric unit cell.
Reduced to 6 k-points under symmetry. 
Computing the number of bands and number of electrons
Calculating initial fillings.
nElectrons: 1178.000000   nBands: 707   nStates: 12

----- Setting up reduced wavefunction bases (one per k-point) -----
average nbasis = 74243.917 , ideal nbasis = 74255.074

----- Initializing Supercell corresponding to k-point mesh -----
Lattice vector linear combinations in supercell:
[   4   0   0  ]
[   0   3   0  ]
[   0   0   1  ]
Supercell lattice vectors:
[  60.5944  0  0  ]
[  0  64.27  0  ]
[  0  0  53.5584  ]

Initializing DFT-D3 calculator:
	Parameters set for gga-PBE functional
	s6:  1.000  s_r6:  1.217
	s8:  0.722  s_r8:  1.000
	Per-atom parameters loaded for:
	Ag:  sqrtQ[a0]:  5.443  Rcov[a0]:  2.173  CN: [ 0.00 0.97 ]
	Pt:  sqrtQ[a0]:  5.888  Rcov[a0]:  2.116  CN: [ 0.00 1.92 6.67 ]
	 C:  sqrtQ[a0]:  3.105  Rcov[a0]:  1.417  CN: [ 0.00 0.99 2.00 3.00 3.98 ]
	 O:  sqrtQ[a0]:  2.594  Rcov[a0]:  1.191  CN: [ 0.00 0.99 1.99 ]

Initializing DFT-D2 calculator for fluid / solvation:
	Ag:  C6:  427.91 Eh-a0^6  R0: 3.097 a0
	Pt:  C6:  815.23 Eh-a0^6  R0: 3.326 a0 (WARNING: beyond Grimme's data set)
	 C:  C6:   30.35 Eh-a0^6  R0: 2.744 a0
	 O:  C6:   12.14 Eh-a0^6  R0: 2.536 a0

---------- Setting up ewald sum ----------
Optimum gaussian width for ewald sums = 5.140616 bohr.
Real space sum over 495 unit cells with max indices [  5  4  2  ]
Reciprocal space sum over 7735 terms with max indices [  6  8  17  ]

Computing DFT-D3 correction:
# coordination-number Ag 5.530 5.530 5.530 5.530 9.271 9.271 9.271 9.271 9.346 9.346 9.346 9.346 8.458 8.458 8.458 8.458 5.530 5.530 5.530 5.530 9.271 9.271 9.271 9.271 9.371 9.371 9.371 9.371 8.572 8.569 8.572 8.569 5.424 5.424 5.444 5.444 9.384 9.384 9.384 9.385 9.371 9.371 9.371 9.371 8.569 8.572 8.569 8.572
# coordination-number Pt 8.246 8.246 8.246 8.246 8.973 8.973 8.973 8.973 8.925 8.925 8.926 8.926 5.743 5.745 5.743 6.740
# coordination-number C 2.037
# coordination-number O 1.023
# diagonal-C6 Ag 268.61 268.61 268.61 268.61 268.61 268.61 268.61 268.61 268.61 268.61 268.61 268.61 268.61 268.61 268.61 268.61 268.61 268.61 268.61 268.61 268.61 268.61 268.61 268.61 268.61 268.61 268.61 268.61 268.61 268.61 268.61 268.61 268.61 268.61 268.61 268.61 268.61 268.61 268.61 268.61 268.61 268.61 268.61 268.61 268.61 268.61 268.61 268.61
# diagonal-C6 Pt 336.87 336.87 336.87 336.87 336.87 336.87 336.87 336.87 336.87 336.87 336.87 336.87 336.87 336.87 336.87 336.87
# diagonal-C6 C 29.42
# diagonal-C6 O 12.79
EvdW_6 =   -0.426283
EvdW_8 =   -0.614236

---------- Allocating electronic variables ----------
Initializing wave functions:  linear combination of atomic orbitals
Ag pseudo-atom occupations:   s ( 2 1 )  p ( 6 0 )  d ( 10 )
Pt pseudo-atom occupations:   s ( 0 )  p ( 6 0 )  d ( 10 )
C pseudo-atom occupations:   s ( 2 )  p ( 2 )
O pseudo-atom occupations:   s ( 2 )  p ( 4 )
	FillingsUpdate:  mu: -0.128343186  nElectrons: 1178.000000  magneticMoment: [ Abs: 0.00432  Tot: -0.00007 ]
LCAOMinimize: Iter:   0  F: -8513.3636913501813979  |grad|_K:  7.367e-03  alpha:  1.000e+00
	FillingsUpdate:  mu: +1.040395978  nElectrons: 1178.000000  magneticMoment: [ Abs: 0.00293  Tot: +0.00002 ]
LCAOMinimize: Iter:   1  F: -8519.9432231823593611  |grad|_K:  9.651e-03  alpha:  1.244e-01  linmin:  3.506e-02  cgtest: -6.420e-01  t[s]:    484.63
	FillingsUpdate:  mu: +1.030325154  nElectrons: 1178.000000  magneticMoment: [ Abs: 0.00270  Tot: +0.00011 ]
LCAOMinimize: Iter:   2  F: -8521.4324880213771394  |grad|_K:  6.573e-03  alpha:  1.664e-02  linmin:  4.885e-03  cgtest:  1.026e+00  t[s]:    642.17
LCAOMinimize: Encountered beta<0, resetting CG.
	FillingsUpdate:  mu: +0.579526651  nElectrons: 1178.000000  magneticMoment: [ Abs: 0.00272  Tot: +0.00007 ]
LCAOMinimize: Iter:   3  F: -8527.2675255269950867  |grad|_K:  2.845e-03  alpha:  2.882e-02  linmin: -1.033e-01  cgtest:  7.784e-01  t[s]:    799.80
LCAOMinimize: Encountered beta<0, resetting CG.
	FillingsUpdate:  mu: +0.272714724  nElectrons: 1178.000000  magneticMoment: [ Abs: 0.00279  Tot: +0.00002 ]
LCAOMinimize: Iter:   4  F: -8529.3175012447100016  |grad|_K:  9.001e-04  alpha:  5.938e-02  linmin: -4.162e-02  cgtest:  2.161e-01  t[s]:    957.32
	FillingsUpdate:  mu: +0.233901785  nElectrons: 1178.000000  magneticMoment: [ Abs: 0.00276  Tot: +0.00010 ]
LCAOMinimize: Iter:   5  F: -8529.5210042394865013  |grad|_K:  7.195e-04  alpha:  5.985e-02  linmin:  1.692e-03  cgtest: -1.836e-02  t[s]:   1115.14
	FillingsUpdate:  mu: +0.138448081  nElectrons: 1178.000000  magneticMoment: [ Abs: 0.00264  Tot: +0.00014 ]
LCAOMinimize: Iter:   6  F: -8529.7677446845264058  |grad|_K:  3.732e-04  alpha:  1.235e-01  linmin:  2.472e-02  cgtest:  1.796e-03  t[s]:   1272.77
	FillingsUpdate:  mu: +0.168233585  nElectrons: 1178.000000  magneticMoment: [ Abs: 0.00253  Tot: +0.00020 ]
LCAOMinimize: Iter:   7  F: -8529.8294445093470131  |grad|_K:  2.963e-04  alpha:  1.208e-01  linmin: -3.012e-03  cgtest:  1.375e-01  t[s]:   1430.48
	FillingsUpdate:  mu: +0.172915350  nElectrons: 1178.000000  magneticMoment: [ Abs: 0.00243  Tot: +0.00022 ]
LCAOMinimize: Iter:   8  F: -8529.8790859832915885  |grad|_K:  2.266e-04  alpha:  1.357e-01  linmin: -4.784e-03  cgtest: -7.917e-02  t[s]:   1587.82
	FillingsUpdate:  mu: +0.168211588  nElectrons: 1178.000000  magneticMoment: [ Abs: 0.00241  Tot: +0.00023 ]
LCAOMinimize: Iter:   9  F: -8529.8894763284042710  |grad|_K:  8.480e-05  alpha:  4.996e-02  linmin:  9.847e-03  cgtest: -2.614e-01  t[s]:   1745.09
LCAOMinimize: 	Predicted alpha/alphaT>3.000000, increasing alphaT to 1.498931e-01.
	FillingsUpdate:  mu: +0.171339139  nElectrons: 1178.000000  magneticMoment: [ Abs: 0.00238  Tot: +0.00022 ]
LCAOMinimize: Iter:  10  F: -8529.8939483208596357  |grad|_K:  3.468e-05  alpha:  1.607e-01  linmin: -4.503e-03  cgtest:  3.883e-01  t[s]:   1944.44
	FillingsUpdate:  mu: +0.169774620  nElectrons: 1178.000000  magneticMoment: [ Abs: 0.00238  Tot: +0.00023 ]
LCAOMinimize: Iter:  11  F: -8529.8944158798149147  |grad|_K:  3.323e-05  alpha:  9.461e-02  linmin: -2.073e-04  cgtest:  1.632e-03  t[s]:   2102.05
	FillingsUpdate:  mu: +0.168403664  nElectrons: 1178.000000  magneticMoment: [ Abs: 0.00239  Tot: +0.00023 ]
LCAOMinimize: Iter:  12  F: -8529.8947144360317907  |grad|_K:  1.043e-05  alpha:  6.603e-02  linmin:  7.783e-05  cgtest:  9.558e-03  t[s]:   2259.16
LCAOMinimize: 	Predicted alpha/alphaT>3.000000, increasing alphaT to 1.980979e-01.
	FillingsUpdate:  mu: +0.168918628  nElectrons: 1178.000000  magneticMoment: [ Abs: 0.00239  Tot: +0.00024 ]
LCAOMinimize: Iter:  13  F: -8529.8948459894745611  |grad|_K:  9.644e-06  alpha:  2.961e-01  linmin:  1.891e-04  cgtest:  5.398e-04  t[s]:   2458.04
	FillingsUpdate:  mu: +0.168335298  nElectrons: 1178.000000  magneticMoment: [ Abs: 0.00240  Tot: +0.00024 ]
LCAOMinimize: Iter:  14  F: -8529.8949026251266332  |grad|_K:  6.944e-06  alpha:  1.495e-01  linmin:  1.076e-04  cgtest:  5.276e-04  t[s]:   2615.72
	FillingsUpdate:  mu: +0.168660770  nElectrons: 1178.000000  magneticMoment: [ Abs: 0.00240  Tot: +0.00024 ]
LCAOMinimize: Iter:  15  F: -8529.8949204940818163  |grad|_K:  5.655e-06  alpha:  9.085e-02  linmin:  1.356e-05  cgtest:  7.170e-04  t[s]:   2773.32
	FillingsUpdate:  mu: +0.168868776  nElectrons: 1178.000000  magneticMoment: [ Abs: 0.00241  Tot: +0.00025 ]
LCAOMinimize: Iter:  16  F: -8529.8949286227270932  |grad|_K:  2.461e-06  alpha:  6.228e-02  linmin:  1.983e-05  cgtest: -2.008e-03  t[s]:   2930.53
	FillingsUpdate:  mu: +0.168696795  nElectrons: 1178.000000  magneticMoment: [ Abs: 0.00241  Tot: +0.00025 ]
LCAOMinimize: Iter:  17  F: -8529.8949324032182631  |grad|_K:  1.092e-06  alpha:  1.529e-01  linmin:  1.860e-04  cgtest: -1.398e-03  t[s]:   3088.96
	FillingsUpdate:  mu: +0.168702978  nElectrons: 1178.000000  magneticMoment: [ Abs: 0.00241  Tot: +0.00025 ]
LCAOMinimize: Iter:  18  F: -8529.8949332618103654  |grad|_K:  7.543e-07  alpha:  1.765e-01  linmin: -1.462e-04  cgtest:  2.543e-03  t[s]:   3246.49
	FillingsUpdate:  mu: +0.168706358  nElectrons: 1178.000000  magneticMoment: [ Abs: 0.00241  Tot: +0.00025 ]
LCAOMinimize: Iter:  19  F: -8529.8949336068690172  |grad|_K:  8.209e-07  alpha:  1.478e-01  linmin: -3.221e-05  cgtest: -7.213e-04  t[s]:   3403.66
LCAOMinimize: Converged (|Delta F|<1.000000e-06 for 2 iters).
----- createFluidSolver() ----- (Fluid-side solver setup)
   Initializing fluid molecule 'H2O'
     Initializing site 'O'
       Electron density: proportional to exp(-r/0.36935)*erfc((r-0.51523)/0.36823) with norm 6.826
       Charge density: gaussian nuclear width 0.478731 with net site charge 0.826
       Polarizability: cuspless exponential with width 0.32 and norm 3.73
       Hard sphere radius: 2.57003 bohrs
       Positions in reference frame:
         [ +0.000000 +0.000000 +0.000000 ]
     Initializing site 'H'
       Electron density: proportional to exp(-r/0.34641)*erfc((r-0)/0.390882) with norm 0.587
       Charge density: gaussian nuclear width 0.377945 with net site charge -0.413
       Polarizability: cuspless exponential with width 0.39 and norm 3.3
       Positions in reference frame:
         [ +0.000000 -1.441945 +1.122523 ]
         [ +0.000000 +1.441945 +1.122523 ]
     Net charge: 0   dipole magnitude: 0.927204
     Initializing spherical shell mfKernel with radius 2.61727 Bohr
     deltaS corrections:
       site 'O': -7.54299
       site 'H': -6.83917
   Initializing fluid molecule 'Na+'
     Initializing site 'Na'
       Electron density: proportional to exp(-r/0.19682)*erfc((r-0.71491)/0.41314) with norm 8.1383
       Charge density: gaussian nuclear width 0.365347 with net site charge -1
       Hard sphere radius: 1.86327 bohrs
       Positions in reference frame:
         [ +0.000000 +0.000000 +0.000000 ]
     Net charge: -1   dipole magnitude: 0
     Initializing gaussian mfKernel with width: 1.55004 Bohr
     deltaS corrections:
       site 'Na': -22.3555
   Initializing fluid molecule 'F-'
     Initializing site 'F'
       Electron density: proportional to exp(-r/0.38886)*erfc((r-0)/0.438782) with norm 8
       Charge density: gaussian nuclear width 0.374796 with net site charge 1
       Hard sphere radius: 2.39995 bohrs
       Positions in reference frame:
         [ +0.000000 +0.000000 +0.000000 ]
     Net charge: 1   dipole magnitude: 0
     Initializing gaussian mfKernel with width: 1.59012 Bohr
     deltaS corrections:
       site 'F': -9.04335

Correction to mu due to finite nuclear width = -0.0672447
   Cavity determined by nc: 0.00142 and sigma: 0.707107
   Nonlocal vdW cavity from gaussian model electron density with norm = 8 and sigma = 0.993594 bohr
   Charge asymmetry in cavity with sensitivity pCavity = 36.5 e-bohr/Eh
   Electrostatic cavity expanded by eta = 1.46 bohrs
   Weighted density cavitation model constrained by Nbulk: 0.0049383 bohr^-3, Pvap: 3.14029 kPa, Rvdw: 2.61727 bohr and sigmaBulk: 4.62e-05 Eh/bohr^2 at T: 298 K.
   Weighted density dispersion model using vdW pair potentials with single solvent site with sqrtC6eff: 0.77 SI.


---- Citations for features of the code used in this run ----

   Software package:
      R. Sundararaman, K. Letchworth-Weaver, K.A. Schwarz, D. Gunceler, Y. Ozhabes and T.A. Arias, 'JDFTx: software for joint density-functional theory', SoftwareX 6, 278 (2017)

   gga-PBE exchange-correlation functional:
      J.P. Perdew, K. Burke and M. Ernzerhof, Phys. Rev. Lett. 77, 3865 (1996)

   Pseudopotentials:
      KF Garrity, JW Bennett, KM Rabe and D Vanderbilt, Comput. Mater. Sci. 81, 446 (2014)

   DFT-D3 dispersion correction:
      S. Grimme, J. Antony, S. Ehrlich and H. Krieg, J. Chem. Phys. 132, 154104 (2010)

   DFT-D2 dispersion correction:
      S. Grimme, J. Comput. Chem. 27, 1787 (2006)

   Charge-asymmetric nonlocally-determined local-electric (CANDLE) solvation model:
      R. Sundararaman and W.A. Goddard III, J. Chem. Phys. 142, 064107 (2015)

   Total energy minimization with Auxiliary Hamiltonian:
      C. Freysoldt, S. Boeck, and J. Neugebauer, Phys. Rev. B 79, 241103(R) (2009)

   Linear-tetrahedron sampling for density of states:
      G. Lehmann and M. Taut, Phys. status solidi (b) 54, 469 (1972)

This list may not be complete. Please suggest additional citations or
report any other bugs at https://github.com/shankar1729/jdftx/issues

Initialization completed successfully at t[s]:   3473.88


Computing DFT-D3 correction:
# coordination-number Ag 5.530 5.530 5.530 5.530 9.271 9.271 9.271 9.271 9.346 9.346 9.346 9.346 8.458 8.458 8.458 8.458 5.530 5.530 5.530 5.530 9.271 9.271 9.271 9.271 9.371 9.371 9.371 9.371 8.572 8.569 8.572 8.569 5.424 5.424 5.444 5.444 9.384 9.384 9.384 9.385 9.371 9.371 9.371 9.371 8.569 8.572 8.569 8.572
# coordination-number Pt 8.246 8.246 8.246 8.246 8.973 8.973 8.973 8.973 8.925 8.925 8.926 8.926 5.743 5.745 5.743 6.740
# coordination-number C 2.037
# coordination-number O 1.023
# diagonal-C6 Ag 268.61 268.61 268.61 268.61 268.61 268.61 268.61 268.61 268.61 268.61 268.61 268.61 268.61 268.61 268.61 268.61 268.61 268.61 268.61 268.61 268.61 268.61 268.61 268.61 268.61 268.61 268.61 268.61 268.61 268.61 268.61 268.61 268.61 268.61 268.61 268.61 268.61 268.61 268.61 268.61 268.61 268.61 268.61 268.61 268.61 268.61 268.61 268.61
# diagonal-C6 Pt 336.87 336.87 336.87 336.87 336.87 336.87 336.87 336.87 336.87 336.87 336.87 336.87 336.87 336.87 336.87 336.87
# diagonal-C6 C 29.42
# diagonal-C6 O 12.79
EvdW_6 =   -0.426283
EvdW_8 =   -0.614236
Fluid solver invoked on fresh (random / LCAO) wavefunctions
Running a vacuum solve first:

-------- Initial electronic minimization -----------
	FillingsUpdate:  mu: +0.168706358  nElectrons: 1178.000000  magneticMoment: [ Abs: 0.00241  Tot: +0.00025 ]
ElecMinimize: Iter:   0  F: -8529.894933606872655  |grad|_K:  4.208e-05  alpha:  1.000e+00
	FillingsUpdate:  mu: +0.179865291  nElectrons: 1178.000000  magneticMoment: [ Abs: 0.00186  Tot: +0.00025 ]
	SubspaceRotationAdjust: set factor to 1
ElecMinimize: Iter:   1  F: -8530.373687905181214  |grad|_K:  2.439e-05  alpha:  4.327e-01  linmin:  3.277e-05  t[s]:   4008.83
	FillingsUpdate:  mu: +0.170450989  nElectrons: 1178.000000  magneticMoment: [ Abs: 0.00144  Tot: +0.00022 ]
	SubspaceRotationAdjust: set factor to 0.942
ElecMinimize: Iter:   2  F: -8530.484862904082547  |grad|_K:  1.435e-05  alpha:  2.988e-01  linmin: -1.140e-06  t[s]:   4364.29
	FillingsUpdate:  mu: +0.189217093  nElectrons: 1178.000000  magneticMoment: [ Abs: 0.00120  Tot: +0.00020 ]
	SubspaceRotationAdjust: set factor to 0.617
ElecMinimize: Iter:   3  F: -8530.509733634002259  |grad|_K:  1.652e-05  alpha:  1.909e-01  linmin: -2.922e-07  t[s]:   4718.86
	FillingsUpdate:  mu: +0.184077348  nElectrons: 1178.000000  magneticMoment: [ Abs: 0.00103  Tot: +0.00019 ]
	SubspaceRotationAdjust: set factor to 0.458
ElecMinimize: Iter:   4  F: -8530.523652669739022  |grad|_K:  1.047e-05  alpha:  8.011e-02  linmin: -7.985e-06  t[s]:   5073.86
	FillingsUpdate:  mu: +0.172846078  nElectrons: 1178.000000  magneticMoment: [ Abs: 0.00087  Tot: +0.00017 ]
	SubspaceRotationAdjust: set factor to 0.332
ElecMinimize: Iter:   5  F: -8530.532275280138492  |grad|_K:  6.020e-06  alpha:  1.235e-01  linmin: -5.043e-06  t[s]:   5428.84
	FillingsUpdate:  mu: +0.176013767  nElectrons: 1178.000000  magneticMoment: [ Abs: 0.00065  Tot: +0.00014 ]
	SubspaceRotationAdjust: set factor to 0.294
ElecMinimize: Iter:   6  F: -8530.539143438927567  |grad|_K:  4.909e-06  alpha:  2.985e-01  linmin: -1.734e-06  t[s]:   5785.00
	FillingsUpdate:  mu: +0.177474918  nElectrons: 1178.000000  magneticMoment: [ Abs: 0.00054  Tot: +0.00013 ]
	SubspaceRotationAdjust: set factor to 0.207
ElecMinimize: Iter:   7  F: -8530.541584714666897  |grad|_K:  3.330e-06  alpha:  1.596e-01  linmin: -2.486e-06  t[s]:   6141.11
	FillingsUpdate:  mu: +0.179023750  nElectrons: 1178.000000  magneticMoment: [ Abs: 0.00041  Tot: +0.00011 ]
	SubspaceRotationAdjust: set factor to 0.288
ElecMinimize: Iter:   8  F: -8530.543651471218254  |grad|_K:  2.227e-06  alpha:  2.944e-01  linmin:  3.902e-06  t[s]:   6496.52
	FillingsUpdate:  mu: +0.177210930  nElectrons: 1178.000000  magneticMoment: [ Abs: 0.00034  Tot: +0.00010 ]
	SubspaceRotationAdjust: set factor to 0.244
ElecMinimize: Iter:   9  F: -8530.544468278949353  |grad|_K:  1.777e-06  alpha:  2.603e-01  linmin:  2.019e-06  t[s]:   6851.58
	FillingsUpdate:  mu: +0.176340606  nElectrons: 1178.000000  magneticMoment: [ Abs: 0.00029  Tot: +0.00009 ]
	SubspaceRotationAdjust: set factor to 0.217
ElecMinimize: Iter:  10  F: -8530.544931500444363  |grad|_K:  1.165e-06  alpha:  2.316e-01  linmin:  3.560e-06  t[s]:   7207.93
	FillingsUpdate:  mu: +0.177751661  nElectrons: 1178.000000  magneticMoment: [ Abs: 0.00023  Tot: +0.00007 ]
	SubspaceRotationAdjust: set factor to 0.25
ElecMinimize: Iter:  11  F: -8530.545247682935951  |grad|_K:  9.000e-07  alpha:  3.686e-01  linmin:  2.711e-06  t[s]:   7563.12
	FillingsUpdate:  mu: +0.177925982  nElectrons: 1178.000000  magneticMoment: [ Abs: 0.00020  Tot: +0.00006 ]
	SubspaceRotationAdjust: set factor to 0.222
ElecMinimize: Iter:  12  F: -8530.545400378088743  |grad|_K:  7.572e-07  alpha:  2.979e-01  linmin:  9.465e-07  t[s]:   7918.82
	FillingsUpdate:  mu: +0.177451840  nElectrons: 1178.000000  magneticMoment: [ Abs: 0.00017  Tot: +0.00005 ]
	SubspaceRotationAdjust: set factor to 0.219
ElecMinimize: Iter:  13  F: -8530.545502357312216  |grad|_K:  5.209e-07  alpha:  2.810e-01  linmin:  2.361e-06  t[s]:   8274.92
	FillingsUpdate:  mu: +0.177381651  nElectrons: 1178.000000  magneticMoment: [ Abs: 0.00015  Tot: +0.00004 ]
	SubspaceRotationAdjust: set factor to 0.267
ElecMinimize: Iter:  14  F: -8530.545570789126941  |grad|_K:  4.278e-07  alpha:  3.994e-01  linmin:  4.200e-06  t[s]:   8631.52
	FillingsUpdate:  mu: +0.177694697  nElectrons: 1178.000000  magneticMoment: [ Abs: 0.00013  Tot: +0.00003 ]
	SubspaceRotationAdjust: set factor to 0.237
ElecMinimize: Iter:  15  F: -8530.545605261337187  |grad|_K:  3.552e-07  alpha:  2.983e-01  linmin:  2.349e-07  t[s]:   8987.34
	FillingsUpdate:  mu: +0.177883087  nElectrons: 1178.000000  magneticMoment: [ Abs: 0.00011  Tot: +0.00003 ]
	SubspaceRotationAdjust: set factor to 0.228
ElecMinimize: Iter:  16  F: -8530.545629364720298  |grad|_K:  2.719e-07  alpha:  3.018e-01  linmin:  9.306e-07  t[s]:   9342.74
	FillingsUpdate:  mu: +0.177688738  nElectrons: 1178.000000  magneticMoment: [ Abs: 0.00009  Tot: +0.00002 ]
	SubspaceRotationAdjust: set factor to 0.254
ElecMinimize: Iter:  17  F: -8530.545645959187823  |grad|_K:  2.010e-07  alpha:  3.551e-01  linmin:  1.582e-06  t[s]:   9698.47
	FillingsUpdate:  mu: +0.177685967  nElectrons: 1178.000000  magneticMoment: [ Abs: 0.00007  Tot: +0.00001 ]
	SubspaceRotationAdjust: set factor to 0.262
ElecMinimize: Iter:  18  F: -8530.545655253299628  |grad|_K:  1.633e-07  alpha:  3.644e-01  linmin:  4.978e-07  t[s]:  10054.74
	FillingsUpdate:  mu: +0.177794883  nElectrons: 1178.000000  magneticMoment: [ Abs: 0.00006  Tot: +0.00001 ]
	SubspaceRotationAdjust: set factor to 0.212
ElecMinimize: Iter:  19  F: -8530.545659751400308  |grad|_K:  1.271e-07  alpha:  2.668e-01  linmin:  2.259e-07  t[s]:  10411.03
	FillingsUpdate:  mu: +0.177815559  nElectrons: 1178.000000  magneticMoment: [ Abs: 0.00004  Tot: +0.00001 ]
	SubspaceRotationAdjust: set factor to 0.216
ElecMinimize: Iter:  20  F: -8530.545662919217648  |grad|_K:  8.543e-08  alpha:  3.099e-01  linmin:  5.989e-07  t[s]:  10767.70
	FillingsUpdate:  mu: +0.177752723  nElectrons: 1178.000000  magneticMoment: [ Abs: 0.00003  Tot: +0.00001 ]
	SubspaceRotationAdjust: set factor to 0.229
ElecMinimize: Iter:  21  F: -8530.545664621335163  |grad|_K:  6.577e-08  alpha:  3.693e-01  linmin: -1.550e-07  t[s]:  11123.48
	FillingsUpdate:  mu: +0.177757182  nElectrons: 1178.000000  magneticMoment: [ Abs: 0.00003  Tot: +0.00000 ]
	SubspaceRotationAdjust: set factor to 0.214
ElecMinimize: Iter:  22  F: -8530.545665486466532  |grad|_K:  4.915e-08  alpha:  3.156e-01  linmin:  1.647e-08  t[s]:  11479.43
	FillingsUpdate:  mu: +0.177784166  nElectrons: 1178.000000  magneticMoment: [ Abs: 0.00002  Tot: +0.00000 ]
	SubspaceRotationAdjust: set factor to 0.191
ElecMinimize: Iter:  23  F: -8530.545665952518902  |grad|_K:  3.667e-08  alpha:  3.057e-01  linmin: -2.798e-07  t[s]:  11835.89
	FillingsUpdate:  mu: +0.177787418  nElectrons: 1178.000000  magneticMoment: [ Abs: 0.00002  Tot: +0.00000 ]
	SubspaceRotationAdjust: set factor to 0.228
ElecMinimize: Iter:  24  F: -8530.545666243537198  |grad|_K:  2.574e-08  alpha:  3.423e-01  linmin:  1.141e-06  t[s]:  12191.51
	FillingsUpdate:  mu: +0.177772134  nElectrons: 1178.000000  magneticMoment: [ Abs: 0.00001  Tot: +0.00000 ]
	SubspaceRotationAdjust: set factor to 0.236
ElecMinimize: Iter:  25  F: -8530.545666398718822  |grad|_K:  2.084e-08  alpha:  3.705e-01  linmin:  3.157e-07  t[s]:  12548.12
	FillingsUpdate:  mu: +0.177769846  nElectrons: 1178.000000  magneticMoment: [ Abs: 0.00001  Tot: +0.00000 ]
	SubspaceRotationAdjust: set factor to 0.23
ElecMinimize: Iter:  26  F: -8530.545666484405956  |grad|_K:  1.676e-08  alpha:  3.100e-01  linmin: -3.840e-07  t[s]:  12905.38
	FillingsUpdate:  mu: +0.177778772  nElectrons: 1178.000000  magneticMoment: [ Abs: 0.00001  Tot: +0.00000 ]
	SubspaceRotationAdjust: set factor to 0.25
ElecMinimize: Iter:  27  F: -8530.545666544436244  |grad|_K:  1.279e-08  alpha:  3.383e-01  linmin: -1.669e-06  t[s]:  13263.48
ElecMinimize: Converged (|Delta F|<1.000000e-07 for 2 iters).
Setting wave functions to eigenvectors of Hamiltonian
Converging empty states (this may take a while): |deigs|: 8.700e-03
Vacuum energy after initial minimize, F = -8530.545666544436244


-------- Electronic minimization -----------
	Linear fluid (dielectric constant: 78.4, screening length: 8.12261 Bohr) occupying 0.423558 of unit cell:	Completed after 23 iterations at t[s]:  15330.23
	FillingsUpdate:  mu: -0.160240274  nElectrons: 1178.000000  magneticMoment: [ Abs: 0.00000  Tot: +0.00000 ]
ElecMinimize: Iter:   0  F: -8530.550866568673882  |grad|_K:  1.050e-06  alpha:  1.000e+00
	Linear fluid (dielectric constant: 78.4, screening length: 8.12261 Bohr) occupying 0.424652 of unit cell:	Completed after 20 iterations at t[s]:  15629.73
	Linear fluid (dielectric constant: 78.4, screening length: 8.12261 Bohr) occupying 0.424232 of unit cell:	Completed after 17 iterations at t[s]:  15730.21
	FillingsUpdate:  mu: -0.157514414  nElectrons: 1178.000000  magneticMoment: [ Abs: 0.00000  Tot: +0.00000 ]
	SubspaceRotationAdjust: set factor to 0.205
ElecMinimize: Iter:   1  F: -8530.551295355309776  |grad|_K:  1.082e-06  alpha:  6.192e-01  linmin:  5.776e-08  t[s]:  15860.61
	Linear fluid (dielectric constant: 78.4, screening length: 8.12261 Bohr) occupying 0.425279 of unit cell:	Completed after 17 iterations at t[s]:  16006.12
	Linear fluid (dielectric constant: 78.4, screening length: 8.12261 Bohr) occupying 0.425094 of unit cell:	Completed after 11 iterations at t[s]:  16104.66
	FillingsUpdate:  mu: -0.156566482  nElectrons: 1178.000000  magneticMoment: [ Abs: 0.00000  Tot: +0.00000 ]
	SubspaceRotationAdjust: set factor to 0.213
ElecMinimize: Iter:   2  F: -8530.551671015822649  |grad|_K:  7.661e-07  alpha:  5.074e-01  linmin: -8.218e-08  t[s]:  16234.19
	Linear fluid (dielectric constant: 78.4, screening length: 8.12261 Bohr) occupying 0.425614 of unit cell:	Completed after 13 iterations at t[s]:  16378.44
	Linear fluid (dielectric constant: 78.4, screening length: 8.12261 Bohr) occupying 0.425636 of unit cell:	Completed after 2 iterations at t[s]:  16474.11
	FillingsUpdate:  mu: -0.156573193  nElectrons: 1178.000000  magneticMoment: [ Abs: 0.00000  Tot: +0.00000 ]
	SubspaceRotationAdjust: set factor to 0.252
ElecMinimize: Iter:   3  F: -8530.551867830634365  |grad|_K:  5.332e-07  alpha:  5.291e-01  linmin: -9.611e-08  t[s]:  16603.96
	Linear fluid (dielectric constant: 78.4, screening length: 8.12261 Bohr) occupying 0.425924 of unit cell:	Completed after 11 iterations at t[s]:  16748.06
	Linear fluid (dielectric constant: 78.4, screening length: 8.12261 Bohr) occupying 0.425865 of unit cell:	Completed after 7 iterations at t[s]:  16844.91
	FillingsUpdate:  mu: -0.156190188  nElectrons: 1178.000000  magneticMoment: [ Abs: 0.00000  Tot: +0.00000 ]
	SubspaceRotationAdjust: set factor to 0.286
ElecMinimize: Iter:   4  F: -8530.551943331867733  |grad|_K:  4.054e-07  alpha:  4.190e-01  linmin: -1.859e-08  t[s]:  16974.53
	Linear fluid (dielectric constant: 78.4, screening length: 8.12261 Bohr) occupying 0.426001 of unit cell:	Completed after 8 iterations at t[s]:  17118.85
	Linear fluid (dielectric constant: 78.4, screening length: 8.12261 Bohr) occupying 0.426009 of unit cell:	Completed after 2 iterations at t[s]:  17214.15
	FillingsUpdate:  mu: -0.156187453  nElectrons: 1178.000000  magneticMoment: [ Abs: 0.00000  Tot: +0.00000 ]
	SubspaceRotationAdjust: set factor to 0.337
ElecMinimize: Iter:   5  F: -8530.551989535713801  |grad|_K:  2.773e-07  alpha:  4.439e-01  linmin: -1.940e-08  t[s]:  17343.69
	Linear fluid (dielectric constant: 78.4, screening length: 8.12261 Bohr) occupying 0.426081 of unit cell:	Completed after 7 iterations at t[s]:  17486.21
	Linear fluid (dielectric constant: 78.4, screening length: 8.12261 Bohr) occupying 0.426091 of unit cell:	Completed after 2 iterations at t[s]:  17580.89
	FillingsUpdate:  mu: -0.156185682  nElectrons: 1178.000000  magneticMoment: [ Abs: 0.00000  Tot: +0.00000 ]
	SubspaceRotationAdjust: set factor to 0.394
ElecMinimize: Iter:   6  F: -8530.552014140606843  |grad|_K:  1.985e-07  alpha:  5.053e-01  linmin: -6.248e-08  t[s]:  17711.27
	Linear fluid (dielectric constant: 78.4, screening length: 8.12261 Bohr) occupying 0.426139 of unit cell:	Completed after 7 iterations at t[s]:  17852.47
	Linear fluid (dielectric constant: 78.4, screening length: 8.12261 Bohr) occupying 0.426137 of unit cell:	Completed after 1 iterations at t[s]:  17946.34
	FillingsUpdate:  mu: -0.155995364  nElectrons: 1178.000000  magneticMoment: [ Abs: 0.00000  Tot: +0.00000 ]
	SubspaceRotationAdjust: set factor to 0.446
ElecMinimize: Iter:   7  F: -8530.552026168748853  |grad|_K:  1.379e-07  alpha:  4.819e-01  linmin:  1.730e-08  t[s]:  18076.57
	Linear fluid (dielectric constant: 78.4, screening length: 8.12261 Bohr) occupying 0.426158 of unit cell:	Completed after 7 iterations at t[s]:  18219.09
	Linear fluid (dielectric constant: 78.4, screening length: 8.12261 Bohr) occupying 0.426156 of unit cell:	Completed after 2 iterations at t[s]:  18314.86
	FillingsUpdate:  mu: -0.156181674  nElectrons: 1178.000000  magneticMoment: [ Abs: 0.00000  Tot: +0.00000 ]
	SubspaceRotationAdjust: set factor to 0.427
ElecMinimize: Iter:   8  F: -8530.552031462781088  |grad|_K:  1.042e-07  alpha:  4.406e-01  linmin: -1.089e-07  t[s]:  18444.68
	Linear fluid (dielectric constant: 78.4, screening length: 8.12261 Bohr) occupying 0.426171 of unit cell:	Completed after 9 iterations at t[s]:  18588.21
	Linear fluid (dielectric constant: 78.4, screening length: 8.12261 Bohr) occupying 0.426166 of unit cell:	Completed after 4 iterations at t[s]:  18683.83
	FillingsUpdate:  mu: -0.155930006  nElectrons: 1178.000000  magneticMoment: [ Abs: 0.00000  Tot: +0.00000 ]
	SubspaceRotationAdjust: set factor to 0.314
ElecMinimize: Iter:   9  F: -8530.552033449423107  |grad|_K:  7.644e-08  alpha:  2.875e-01  linmin:  5.340e-07  t[s]:  18813.15
	Linear fluid (dielectric constant: 78.4, screening length: 8.12261 Bohr) occupying 0.426168 of unit cell:	Completed after 7 iterations at t[s]:  18954.91
	Linear fluid (dielectric constant: 78.4, screening length: 8.12261 Bohr) occupying 0.426168 of unit cell:	Completed after 0 iterations at t[s]:  19048.28
	FillingsUpdate:  mu: -0.156078292  nElectrons: 1178.000000  magneticMoment: [ Abs: 0.00000  Tot: +0.00000 ]
	SubspaceRotationAdjust: set factor to 0.288
ElecMinimize: Iter:  10  F: -8530.552034616575838  |grad|_K:  4.287e-08  alpha:  3.167e-01  linmin: -3.750e-06  t[s]:  19178.05
	Linear fluid (dielectric constant: 78.4, screening length: 8.12261 Bohr) occupying 0.426167 of unit cell:	Completed after 2 iterations at t[s]:  19318.28
	Linear fluid (dielectric constant: 78.4, screening length: 8.12261 Bohr) occupying 0.426167 of unit cell:	Completed after 0 iterations at t[s]:  19412.15
	FillingsUpdate:  mu: -0.156092790  nElectrons: 1178.000000  magneticMoment: [ Abs: 0.00000  Tot: +0.00000 ]
	SubspaceRotationAdjust: set factor to 0.335
ElecMinimize: Iter:  11  F: -8530.552035101465663  |grad|_K:  3.026e-08  alpha:  3.920e-01  linmin: -3.678e-06  t[s]:  19542.27
	Linear fluid (dielectric constant: 78.4, screening length: 8.12261 Bohr) occupying 0.426165 of unit cell:	Completed after 2 iterations at t[s]:  19682.31
	Linear fluid (dielectric constant: 78.4, screening length: 8.12261 Bohr) occupying 0.426166 of unit cell:	Completed after 0 iterations at t[s]:  19775.99
	FillingsUpdate:  mu: -0.156070334  nElectrons: 1178.000000  magneticMoment: [ Abs: 0.00000  Tot: +0.00000 ]
	SubspaceRotationAdjust: set factor to 0.319
ElecMinimize: Iter:  12  F: -8530.552035311031432  |grad|_K:  2.248e-08  alpha:  3.521e-01  linmin:  1.038e-05  t[s]:  19905.91
	Linear fluid (dielectric constant: 78.4, screening length: 8.12261 Bohr) occupying 0.426164 of unit cell:	Completed after 2 iterations at t[s]:  20045.98
	Linear fluid (dielectric constant: 78.4, screening length: 8.12261 Bohr) occupying 0.426164 of unit cell:	Completed after 0 iterations at t[s]:  20139.43
	FillingsUpdate:  mu: -0.156068369  nElectrons: 1178.000000  magneticMoment: [ Abs: 0.00000  Tot: +0.00000 ]
	SubspaceRotationAdjust: set factor to 0.314
ElecMinimize: Iter:  13  F: -8530.552035401213288  |grad|_K:  1.505e-08  alpha:  2.928e-01  linmin:  1.494e-06  t[s]:  20268.86
	Linear fluid (dielectric constant: 78.4, screening length: 8.12261 Bohr) occupying 0.426162 of unit cell:	Completed after 0 iterations at t[s]:  20407.48
	Linear fluid (dielectric constant: 78.4, screening length: 8.12261 Bohr) occupying 0.426161 of unit cell:	Completed after 0 iterations at t[s]:  20501.95
	FillingsUpdate:  mu: -0.156068450  nElectrons: 1178.000000  magneticMoment: [ Abs: 0.00000  Tot: +0.00000 ]
	SubspaceRotationAdjust: set factor to 0.393
ElecMinimize: Iter:  14  F: -8530.552035460988918  |grad|_K:  1.124e-08  alpha:  4.177e-01  linmin: -1.850e-06  t[s]:  20631.73
ElecMinimize: Converged (|Delta F|<1.000000e-07 for 2 iters).
Setting wave functions to eigenvectors of Hamiltonian
Converging empty states (this may take a while): |deigs|: 8.876e-05
Single-point solvation energy estimate, DeltaF = -0.006368916552674

Computing DFT-D3 correction:
# coordination-number Ag 5.530 5.530 5.530 5.530 9.271 9.271 9.271 9.271 9.346 9.346 9.346 9.346 8.458 8.458 8.458 8.458 5.530 5.530 5.530 5.530 9.271 9.271 9.271 9.271 9.371 9.371 9.371 9.371 8.572 8.569 8.572 8.569 5.424 5.424 5.444 5.444 9.384 9.384 9.384 9.385 9.371 9.371 9.371 9.371 8.569 8.572 8.569 8.572
# coordination-number Pt 8.246 8.246 8.246 8.246 8.973 8.973 8.973 8.973 8.925 8.925 8.926 8.926 5.743 5.745 5.743 6.740
# coordination-number C 2.037
# coordination-number O 1.023
# diagonal-C6 Ag 268.61 268.61 268.61 268.61 268.61 268.61 268.61 268.61 268.61 268.61 268.61 268.61 268.61 268.61 268.61 268.61 268.61 268.61 268.61 268.61 268.61 268.61 268.61 268.61 268.61 268.61 268.61 268.61 268.61 268.61 268.61 268.61 268.61 268.61 268.61 268.61 268.61 268.61 268.61 268.61 268.61 268.61 268.61 268.61 268.61 268.61 268.61 268.61
# diagonal-C6 Pt 336.87 336.87 336.87 336.87 336.87 336.87 336.87 336.87 336.87 336.87 336.87 336.87 336.87 336.87 336.87 336.87
# diagonal-C6 C 29.42
# diagonal-C6 O 12.79
EvdW_6 =   -0.426283
EvdW_8 =   -0.614236

# Ionic positions in cartesian coordinates:
ion Ag   3.787148999999999   2.725241530303030   1.237413000000000 0
ion Ag   3.787148999999999  13.436915530303029   1.237413000000000 0
ion Ag  11.361447000000000   2.725241530303030   1.237413000000000 0
ion Ag  11.361447000000000  13.436915530303029   1.237413000000000 0
ion Ag   3.787148999999999   8.038564030303029   6.660413000000000 0
ion Ag   3.787148999999999  18.750238530303026   6.660413000000000 0
ion Ag  11.361447000000000   8.038564030303029   6.660413000000000 0
ion Ag  11.361447000000000  18.750238530303026   6.660413000000000 0
ion Ag   0.000000000000000   5.355835530303029   9.413526999999998 0
ion Ag   0.000000000000000  16.067510530303029   9.413526999999998 0
ion Ag   7.574297999999999   5.355835530303029   9.413526999999998 0
ion Ag   7.574297999999999  16.067510530303029   9.413526999999998 0
ion Ag   0.000000000000000  -0.000001469696972   3.864076000000000 0
ion Ag   0.000000000000000  10.711673030303029   3.864076000000000 0
ion Ag   7.574297999999999  -0.000001469696972   3.864076000000000 0
ion Ag   7.574297999999999  10.711673030303029   3.864076000000000 0
ion Ag   3.787148999999999   7.986430530303030   1.237413000000000 0
ion Ag   3.787148999999999  18.698104530303027   1.237413000000000 0
ion Ag  11.361447000000000   7.986430530303030   1.237413000000000 0
ion Ag  11.361447000000000  18.698104530303027   1.237413000000000 0
ion Ag   3.787148999999999   2.673107530303029   6.660413000000000 0
ion Ag   3.787148999999999  13.384782030303025   6.660413000000000 0
ion Ag  11.361447000000000   2.673107530303029   6.660413000000000 0
ion Ag  11.361447000000000  13.384782030303025   6.660413000000000 0
ion Ag   3.787148999999999   2.682694530303032  12.076021000000001 0
ion Ag   3.787148999999999  13.394369030303029  12.076021000000001 0
ion Ag  11.361447000000000   2.682694530303032  12.076021000000001 0
ion Ag  11.361447000000000  13.394369030303029  12.076021000000001 0
ion Ag   3.787148999999999   8.000323530303030  17.563452000000002 0
ion Ag   3.787148999999999  18.711997530303027  17.563452000000002 0
ion Ag  11.361447000000000   8.000323530303030  17.563452000000002 0
ion Ag  11.361447000000000  18.711997530303027  17.563452000000002 0
ion Ag   0.000000000000000   5.355835530303029  20.280093000000001 0
ion Ag   0.000000000000000  16.067510530303029  20.280093000000001 0
ion Ag   7.574297999999999   5.355835530303029  20.280093000000001 0
ion Ag   7.574297999999999  16.067510530303029  20.280093000000001 0
ion Ag   0.000000000000000  -0.000001469696972  14.712647000000000 0
ion Ag   0.000000000000000  10.711673030303029  14.712647000000000 0
ion Ag   7.574297999999999  -0.000001469696972  14.712647000000000 0
ion Ag   7.574297999999999  10.711673030303029  14.712647000000000 0
ion Ag   3.787148999999999   8.028977030303029  12.076021000000001 0
ion Ag   3.787148999999999  18.740651530303026  12.076021000000001 0
ion Ag  11.361447000000000   8.028977030303029  12.076021000000001 0
ion Ag  11.361447000000000  18.740651530303026  12.076021000000001 0
ion Ag   3.787148999999999   2.711348530303029  17.563452000000002 0
ion Ag   3.787148999999999  13.423022530303028  17.563452000000002 0
ion Ag  11.361447000000000   2.711348530303029  17.563452000000002 0
ion Ag  11.361447000000000  13.423022530303028  17.563452000000002 0
ion Pt   0.000000000000000   5.355835530303029   3.956249999999999 0
ion Pt   0.000000000000000  16.067510530303029   3.956249999999999 0
ion Pt   7.574297999999999   5.355835530303029   3.956249999999999 0
ion Pt   7.574297999999999  16.067510530303029   3.956249999999999 0
ion Pt   0.000000000000000  -0.000001469696972   9.374912000000000 0
ion Pt   0.000000000000000  10.711673030303029   9.374912000000000 0
ion Pt   7.574297999999999  -0.000001469696972   9.374912000000000 0
ion Pt   7.574297999999999  10.711673030303029   9.374912000000000 0
ion Pt   0.000000000000000   5.355835530303029  14.805410000000000 0
ion Pt   0.000000000000000  16.067510530303029  14.805410000000000 0
ion Pt   7.574297999999999   5.355835530303029  14.805410000000000 0
ion Pt   7.574297999999999  16.067510530303029  14.805410000000000 0
ion Pt   0.000000000000000  -0.000001469696972  19.905184999999999 0
ion Pt   0.000000000000000  10.711673030303029  19.905184999999999 0
ion Pt   7.574297999999999  -0.000001469696972  19.905184999999999 0
ion Pt   7.574297999999999  10.711673030303029  19.905184999999999 0
ion C   7.574297999999999  10.711673030303029  23.684639000000001 1  Linear 0 0 1
ion O   7.634392999999999  10.711673030303029  25.839988000000002 1  Linear 0 0 1

# Forces in Cartesian coordinates:
force Ag   0.000147013320238   0.000096548889304  -0.000331352206662 0
force Ag  -0.000083152891784   0.000244665810966  -0.000182272703094 0
force Ag  -0.000143110543676   0.000105579963306  -0.000329876993720 0
force Ag   0.000085339023042   0.000246086827046  -0.000183208834957 0
force Ag   0.000092201249867   0.000222764056639   0.000125754121035 0
force Ag  -0.000005608114919   0.000064208037441  -0.000173130991534 0
force Ag  -0.000105647252313   0.000218932351586   0.000123674365081 0
force Ag  -0.000005987189140   0.000067674430382  -0.000174755047782 0
force Ag   0.000002452116355  -0.000030349291900   0.000026472512339 0
force Ag   0.000002452116355   0.000030349291900   0.000026472512339 0
force Ag   0.000005078292380  -0.000124508963295  -0.000467003133219 0
force Ag   0.000005078292380   0.000124508963295  -0.000467003133219 0
force Ag  -0.000007208019117   0.000000000000000   0.000032769923888 0
force Ag  -0.000012411823742   0.000000000000000  -0.000496133427042 0
force Ag  -0.000012201909501   0.000000000000000  -0.000351769676871 0
force Ag  -0.000013407411633   0.000000000000000  -0.000948463770829 0
force Ag  -0.000083152891784  -0.000244665810966  -0.000182272703094 0
force Ag   0.000147013320238  -0.000096548889304  -0.000331352206662 0
force Ag   0.000085339023042  -0.000246086827046  -0.000183208834957 0
force Ag  -0.000143110543676  -0.000105579963306  -0.000329876993720 0
force Ag  -0.000005608114919  -0.000064208037441  -0.000173130991534 0
force Ag   0.000092201249867  -0.000222764056639   0.000125754121035 0
force Ag  -0.000005987189140  -0.000067674430382  -0.000174755047782 0
force Ag  -0.000105647252313  -0.000218932351586   0.000123674365081 0
force Ag   0.000242847415547   0.000034975461473  -0.000078471340487 0
force Ag  -0.000246272600912   0.000175982425404  -0.000151679754858 0
force Ag  -0.000236838145249   0.000042022362577  -0.000072048016780 0
force Ag   0.000241755452245   0.000181792781783  -0.000167999967608 0
force Ag  -0.001790370430111  -0.001522175972538  -0.002016271501289 0
force Ag  -0.000133959774602  -0.000063282639188   0.000249424741786 0
force Ag   0.001702419648307  -0.001427945039608  -0.002008433288228 0
force Ag   0.000122283090780  -0.000059134800290   0.000250966608828 0
force Ag  -0.000010072927958   0.000015842841279  -0.000264812540083 0
force Ag  -0.000010072927958  -0.000015842841279  -0.000264812540083 0
force Ag  -0.000009018671780  -0.002332351214309  -0.000790589634747 0
force Ag  -0.000009018671780   0.002332351214309  -0.000790589634747 0
force Ag  -0.000010515034350   0.000000000000000   0.000093805252952 0
force Ag  -0.000004112514046   0.000000000000000  -0.000348740765212 0
force Ag  -0.000011417378383   0.000000000000000  -0.000539588633183 0
force Ag   0.000077979491775   0.000000000000000   0.002344715512356 0
force Ag  -0.000246272600912  -0.000175982425404  -0.000151679754858 0
force Ag   0.000242847415547  -0.000034975461473  -0.000078471340487 0
force Ag   0.000241755452245  -0.000181792781783  -0.000167999967608 0
force Ag  -0.000236838145249  -0.000042022362577  -0.000072048016780 0
force Ag  -0.000133959774602   0.000063282639188   0.000249424741786 0
force Ag  -0.001790370430111   0.001522175972538  -0.002016271501289 0
force Ag   0.000122283090780   0.000059134800290   0.000250966608828 0
force Ag   0.001702419648307   0.001427945039608  -0.002008433288228 0
force Pt  -0.000003221521508  -0.000237009412070  -0.000607950516546 0
force Pt  -0.000003221521508   0.000237009412070  -0.000607950516546 0
force Pt  -0.000002636649986   0.000008853999798  -0.000949632795320 0
force Pt  -0.000002636649986  -0.000008853999798  -0.000949632795320 0
force Pt   0.000007601770048   0.000000000000000   0.000381610062599 0
force Pt  -0.000003167911916   0.000000000000000   0.000154086414068 0
force Pt   0.000007536651501   0.000000000000000   0.000843325386808 0
force Pt  -0.000008026418005   0.000000000000000  -0.000458082451273 0
force Pt  -0.000001289394379  -0.000665991368648  -0.000513915566261 0
force Pt  -0.000001289394379   0.000665991368648  -0.000513915566261 0
force Pt   0.000007981827700   0.001963139842877   0.000959255043793 0
force Pt   0.000007981827700  -0.001963139842877   0.000959255043793 0
force Pt  -0.000013856781004   0.000000000000000  -0.000222149709493 0
force Pt  -0.000025081106177   0.000000000000000  -0.000013865469374 0
force Pt  -0.000010730448331   0.000000000000000  -0.000623761466198 0
force Pt  -0.000271097535364   0.000000000000000   0.051637592098201 0
force C  -0.000255838804827   0.000000000000000  -0.081837324682726 1  Linear 0 0 1
force O   0.000524630359238   0.000000000000000   0.039090501186245 1  Linear 0 0 1

# Energy components:
   A_diel =       -0.0090408292752335
   Eewald =    35728.7685734169645002
       EH =    43523.4850671024323674
     Eloc =   -89152.8530949997948483
      Enl =      175.7684772563896445
     EvdW =       -1.0405192880490577
      Exc =    -1156.4236154968157280
 Exc_core =      272.3528646936246105
       KE =     2079.4008199309146221
-------------------------------------
     Etot =    -8530.5504682136088377
       TS =        0.0015672473793684
-------------------------------------
        F =    -8530.5520354609889182


Dumping 'jdft.fillings' ... done
Dumping 'jdft.wfns' ... done
Dumping 'jdft.fluidState' ... done
Dumping 'jdft.ionpos' ... done
Dumping 'jdft.lattice' ... done
Dumping 'jdft.eigenvals' ... done
Dumping 'jdft.eigStats' ... 
	eMin: -3.527901 at state 4 ( [ +0.500000 +0.000000 +0.000000 ] spin 1 )
	HOMO: -0.156625 at state 7 ( [ +0.000000 +0.333333 +0.000000 ] spin -1 )
	mu  : -0.156068
	LUMO: -0.155512 at state 11 ( [ +0.500000 +0.333333 +0.000000 ] spin -1 )
	eMax: +0.159959 at state 11 ( [ +0.500000 +0.333333 +0.000000 ] spin -1 )
	HOMO-LUMO gap: +0.001113
	Optical gap  : +0.001970 at state 11 ( [ +0.500000 +0.333333 +0.000000 ] spin -1 )
Dumping 'jdft.Ecomponents' ... done
IonicMinimize: Iter:   0  F: -8530.552035460988918  |grad|_K:  6.413e-02  t[s]:  22464.72

#--- Lowdin population analysis ---
# oxidation-state Ag +0.164 +0.164 +0.164 +0.164 +0.063 +0.064 +0.063 +0.064 +0.080 +0.080 +0.079 +0.079 -0.002 -0.004 -0.008 -0.001 +0.164 +0.164 +0.164 +0.164 +0.064 +0.063 +0.064 +0.063 +0.079 +0.078 +0.079 +0.078 +0.029 +0.023 +0.029 +0.023 +0.207 +0.207 +0.192 +0.192 +0.072 +0.069 +0.070 +0.064 +0.078 +0.079 +0.078 +0.079 +0.023 +0.029 +0.023 +0.029
# magnetic-moments Ag +0.000 +0.000 +0.000 +0.000 +0.000 +0.000 +0.000 +0.000 +0.000 +0.000 +0.000 +0.000 +0.000 +0.000 +0.000 +0.000 +0.000 +0.000 +0.000 +0.000 +0.000 +0.000 +0.000 +0.000 +0.000 +0.000 +0.000 +0.000 +0.000 +0.000 +0.000 +0.000 +0.000 +0.000 +0.000 +0.000 +0.000 +0.000 +0.000 +0.000 +0.000 +0.000 +0.000 +0.000 +0.000 +0.000 +0.000 +0.000
# oxidation-state Pt -0.311 -0.311 -0.311 -0.311 -0.220 -0.221 -0.219 -0.225 -0.231 -0.231 -0.227 -0.227 -0.163 -0.153 -0.157 -0.354
# magnetic-moments Pt +0.000 +0.000 +0.000 +0.000 +0.000 +0.000 -0.000 +0.000 +0.000 +0.000 +0.000 +0.000 +0.000 -0.000 +0.000 +0.000
# oxidation-state C +0.470
# magnetic-moments C -0.000
# oxidation-state O -0.127
# magnetic-moments O +0.000


Computing DFT-D3 correction:
# coordination-number Ag 5.530 5.530 5.530 5.530 9.271 9.271 9.271 9.271 9.346 9.346 9.346 9.346 8.458 8.458 8.458 8.458 5.530 5.530 5.530 5.530 9.271 9.271 9.271 9.271 9.371 9.371 9.371 9.371 8.572 8.569 8.572 8.569 5.424 5.424 5.446 5.446 9.384 9.384 9.384 9.385 9.371 9.371 9.371 9.371 8.569 8.572 8.569 8.572
# coordination-number Pt 8.246 8.246 8.246 8.246 8.973 8.973 8.973 8.973 8.925 8.925 8.926 8.926 5.743 5.745 5.743 6.745
# coordination-number C 2.048
# coordination-number O 1.021
# diagonal-C6 Ag 268.61 268.61 268.61 268.61 268.61 268.61 268.61 268.61 268.61 268.61 268.61 268.61 268.61 268.61 268.61 268.61 268.61 268.61 268.61 268.61 268.61 268.61 268.61 268.61 268.61 268.61 268.61 268.61 268.61 268.61 268.61 268.61 268.61 268.61 268.61 268.61 268.61 268.61 268.61 268.61 268.61 268.61 268.61 268.61 268.61 268.61 268.61 268.61
# diagonal-C6 Pt 336.87 336.87 336.87 336.87 336.87 336.87 336.87 336.87 336.87 336.87 336.87 336.87 336.87 336.87 336.87 336.87
# diagonal-C6 C 29.40
# diagonal-C6 O 12.79
EvdW_6 =   -0.426287
EvdW_8 =   -0.614289

-------- Electronic minimization -----------
	Linear fluid (dielectric constant: 78.4, screening length: 8.12261 Bohr) occupying 0.426135 of unit cell:	Completed after 17 iterations at t[s]:  22609.66
	FillingsUpdate:  mu: -0.158437412  nElectrons: 1178.000000  magneticMoment: [ Abs: 0.00000  Tot: +0.00000 ]
ElecMinimize: Iter:   0  F: -8530.515745645312563  |grad|_K:  1.163e-05  alpha:  1.000e+00
	Linear fluid (dielectric constant: 78.4, screening length: 8.12261 Bohr) occupying 0.426324 of unit cell:	Completed after 22 iterations at t[s]:  22908.18
	Linear fluid (dielectric constant: 78.4, screening length: 8.12261 Bohr) occupying 0.426185 of unit cell:	Completed after 21 iterations at t[s]:  23010.61
	FillingsUpdate:  mu: -0.156710766  nElectrons: 1178.000000  magneticMoment: [ Abs: 0.00000  Tot: +0.00000 ]
[...]
# magnetic-moments Ag -0.000 -0.000 -0.000 -0.000 -0.000 -0.000 -0.000 -0.000 -0.000 -0.000 -0.000 -0.000 -0.000 -0.000 -0.000 -0.000 -0.000 -0.000 -0.000 -0.000 -0.000 -0.000 -0.000 -0.000 -0.000 -0.000 -0.000 -0.000 -0.000 -0.000 -0.000 -0.000 -0.000 -0.000 -0.000 -0.000 -0.000 -0.000 -0.000 -0.000 -0.000 -0.000 -0.000 -0.000 -0.000 -0.000 -0.000 -0.000
# oxidation-state Pt -0.311 -0.311 -0.311 -0.311 -0.220 -0.222 -0.220 -0.226 -0.232 -0.232 -0.228 -0.228 -0.160 -0.150 -0.153 -0.319
# magnetic-moments Pt -0.000 -0.000 -0.000 -0.000 -0.000 -0.000 -0.000 -0.000 -0.000 -0.000 -0.000 -0.000 -0.000 -0.000 -0.000 -0.000
# oxidation-state C +0.458
# magnetic-moments C -0.000
# oxidation-state O -0.177
# magnetic-moments O -0.000


Computing DFT-D3 correction:
# coordination-number Ag 5.530 5.530 5.530 5.530 9.271 9.271 9.271 9.271 9.346 9.346 9.346 9.346 8.458 8.458 8.458 8.458 5.530 5.530 5.530 5.530 9.271 9.271 9.271 9.271 9.371 9.371 9.371 9.371 8.573 8.569 8.573 8.569 5.424 5.424 5.451 5.451 9.384 9.384 9.384 9.385 9.371 9.371 9.371 9.371 8.569 8.573 8.569 8.573
# coordination-number Pt 8.246 8.246 8.246 8.246 8.973 8.973 8.973 8.973 8.925 8.925 8.926 8.926 5.743 5.745 5.743 6.766
# coordination-number C 2.070
# coordination-number O 1.034
# diagonal-C6 Ag 268.61 268.61 268.61 268.61 268.61 268.61 268.61 268.61 268.61 268.61 268.61 268.61 268.61 268.61 268.61 268.61 268.61 268.61 268.61 268.61 268.61 268.61 268.61 268.61 268.61 268.61 268.61 268.61 268.61 268.61 268.61 268.61 268.61 268.61 268.61 268.61 268.61 268.61 268.61 268.61 268.61 268.61 268.61 268.61 268.61 268.61 268.61 268.61
# diagonal-C6 Pt 336.87 336.87 336.87 336.87 336.87 336.87 336.87 336.87 336.87 336.87 336.87 336.87 336.87 336.87 336.87 336.87
# diagonal-C6 C 29.36
# diagonal-C6 O 12.78
EvdW_6 =   -0.426457
EvdW_8 =   -0.614532

-------- Electronic minimization -----------
	Linear fluid (dielectric constant: 78.4, screening length: 8.12261 Bohr) occupying 0.427613 of unit cell:	Completed after 5 iterations at t[s]:  73443.22
	FillingsUpdate:  mu: -0.157517927  nElectrons: 1178.000000  magneticMoment: [ Abs: 0.00000  Tot: -0.00000 ]
ElecMinimize: Iter:   0  F: -8530.560455457976786  |grad|_K:  9.856e-08  alpha:  1.000e+00
	Linear fluid (dielectric constant: 78.4, screening length: 8.12261 Bohr) occupying 0.427607 of unit cell:	Completed after 11 iterations at t[s]:  73738.27
	Linear fluid (dielectric constant: 78.4, screening length: 8.12261 Bohr) occupying 0.427612 of unit cell:	Completed after 11 iterations at t[s]:  73837.15
	FillingsUpdate:  mu: -0.157695085  nElectrons: 1178.000000  magneticMoment: [ Abs: 0.00000  Tot: -0.00000 ]
	SubspaceRotationAdjust: set factor to 0.332
ElecMinimize: Iter:   1  F: -8530.560457214327471  |grad|_K:  5.324e-08  alpha:  2.816e-01  linmin: -1.116e-04  t[s]:  73966.51
	Linear fluid (dielectric constant: 78.4, screening length: 8.12261 Bohr) occupying 0.427613 of unit cell:	Completed after 3 iterations at t[s]:  74107.60
	Linear fluid (dielectric constant: 78.4, screening length: 8.12261 Bohr) occupying 0.427613 of unit cell:	Completed after 0 iterations at t[s]:  74202.06
	FillingsUpdate:  mu: -0.157606289  nElectrons: 1178.000000  magneticMoment: [ Abs: 0.00000  Tot: -0.00000 ]
	SubspaceRotationAdjust: set factor to 0.344
ElecMinimize: Iter:   2  F: -8530.560457742572908  |grad|_K:  3.055e-08  alpha:  2.929e-01  linmin: -2.951e-04  t[s]:  74331.48
	Linear fluid (dielectric constant: 78.4, screening length: 8.12261 Bohr) occupying 0.427615 of unit cell:	Completed after 2 iterations at t[s]:  74472.95
	Linear fluid (dielectric constant: 78.4, screening length: 8.12261 Bohr) occupying 0.427615 of unit cell:	Completed after 0 iterations at t[s]:  74567.37
	FillingsUpdate:  mu: -0.157589453  nElectrons: 1178.000000  magneticMoment: [ Abs: 0.00000  Tot: -0.00000 ]
	SubspaceRotationAdjust: set factor to 0.476
ElecMinimize: Iter:   3  F: -8530.560458020070655  |grad|_K:  2.470e-08  alpha:  4.314e-01  linmin: -1.012e-03  t[s]:  74696.73
	Linear fluid (dielectric constant: 78.4, screening length: 8.12261 Bohr) occupying 0.427616 of unit cell:	Completed after 2 iterations at t[s]:  74837.67
	Linear fluid (dielectric constant: 78.4, screening length: 8.12261 Bohr) occupying 0.427616 of unit cell:	Completed after 0 iterations at t[s]:  74931.70
	FillingsUpdate:  mu: -0.157628244  nElectrons: 1178.000000  magneticMoment: [ Abs: 0.00000  Tot: -0.00000 ]
	SubspaceRotationAdjust: set factor to 0.408
ElecMinimize: Iter:   4  F: -8530.560458186366304  |grad|_K:  2.708e-08  alpha:  3.782e-01  linmin:  5.361e-05  t[s]:  75061.60
	Linear fluid (dielectric constant: 78.4, screening length: 8.12261 Bohr) occupying 0.427617 of unit cell:	Completed after 2 iterations at t[s]:  75201.36
	Linear fluid (dielectric constant: 78.4, screening length: 8.12261 Bohr) occupying 0.427616 of unit cell:	Completed after 1 iterations at t[s]:  75296.09
	FillingsUpdate:  mu: -0.157604689  nElectrons: 1178.000000  magneticMoment: [ Abs: 0.00000  Tot: -0.00000 ]
	SubspaceRotationAdjust: set factor to 0.44
ElecMinimize: Iter:   5  F: -8530.560458284626293  |grad|_K:  1.685e-08  alpha:  2.230e-01  linmin:  1.701e-04  t[s]:  75425.44
	Linear fluid (dielectric constant: 78.4, screening length: 8.12261 Bohr) occupying 0.427617 of unit cell:	Completed after 0 iterations at t[s]:  75565.66
	Linear fluid (dielectric constant: 78.4, screening length: 8.12261 Bohr) occupying 0.427617 of unit cell:	Completed after 1 iterations at t[s]:  75660.24
	FillingsUpdate:  mu: -0.157596750  nElectrons: 1178.000000  magneticMoment: [ Abs: 0.00000  Tot: -0.00000 ]
	SubspaceRotationAdjust: set factor to 0.484
ElecMinimize: Iter:   6  F: -8530.560458350613771  |grad|_K:  1.102e-08  alpha:  4.262e-01  linmin:  5.717e-04  t[s]:  75789.66
ElecMinimize: Converged (|Delta F|<1.000000e-07 for 2 iters).
Setting wave functions to eigenvectors of Hamiltonian
Converging empty states (this may take a while): |deigs|: 2.034e-09

Computing DFT-D3 correction:
# coordination-number Ag 5.530 5.530 5.530 5.530 9.271 9.271 9.271 9.271 9.346 9.346 9.346 9.346 8.458 8.458 8.458 8.458 5.530 5.530 5.530 5.530 9.271 9.271 9.271 9.271 9.371 9.371 9.371 9.371 8.573 8.569 8.573 8.569 5.424 5.424 5.451 5.451 9.384 9.384 9.384 9.385 9.371 9.371 9.371 9.371 8.569 8.573 8.569 8.573
# coordination-number Pt 8.246 8.246 8.246 8.246 8.973 8.973 8.973 8.973 8.925 8.925 8.926 8.926 5.743 5.745 5.743 6.766
# coordination-number C 2.070
# coordination-number O 1.034
# diagonal-C6 Ag 268.61 268.61 268.61 268.61 268.61 268.61 268.61 268.61 268.61 268.61 268.61 268.61 268.61 268.61 268.61 268.61 268.61 268.61 268.61 268.61 268.61 268.61 268.61 268.61 268.61 268.61 268.61 268.61 268.61 268.61 268.61 268.61 268.61 268.61 268.61 268.61 268.61 268.61 268.61 268.61 268.61 268.61 268.61 268.61 268.61 268.61 268.61 268.61
# diagonal-C6 Pt 336.87 336.87 336.87 336.87 336.87 336.87 336.87 336.87 336.87 336.87 336.87 336.87 336.87 336.87 336.87 336.87
# diagonal-C6 C 29.36
# diagonal-C6 O 12.78
EvdW_6 =   -0.426457
EvdW_8 =   -0.614532

# Ionic positions in cartesian coordinates:
ion Ag   3.787148999999999   2.725241530303030   1.237413000000000 0
ion Ag   3.787148999999999  13.436915530303029   1.237413000000000 0
ion Ag  11.361447000000000   2.725241530303030   1.237413000000000 0
ion Ag  11.361447000000000  13.436915530303029   1.237413000000000 0
ion Ag   3.787148999999999   8.038564030303029   6.660413000000000 0
ion Ag   3.787148999999999  18.750238530303026   6.660413000000000 0
ion Ag  11.361447000000000   8.038564030303029   6.660413000000000 0
ion Ag  11.361447000000000  18.750238530303026   6.660413000000000 0
ion Ag   0.000000000000000   5.355835530303029   9.413526999999998 0
ion Ag   0.000000000000000  16.067510530303029   9.413526999999998 0
ion Ag   7.574297999999999   5.355835530303029   9.413526999999998 0
ion Ag   7.574297999999999  16.067510530303029   9.413526999999998 0
ion Ag   0.000000000000000  -0.000001469696972   3.864076000000000 0
ion Ag   0.000000000000000  10.711673030303029   3.864076000000000 0
ion Ag   7.574297999999999  -0.000001469696972   3.864076000000000 0
ion Ag   7.574297999999999  10.711673030303029   3.864076000000000 0
ion Ag   3.787148999999999   7.986430530303030   1.237413000000000 0
ion Ag   3.787148999999999  18.698104530303027   1.237413000000000 0
ion Ag  11.361447000000000   7.986430530303030   1.237413000000000 0
ion Ag  11.361447000000000  18.698104530303027   1.237413000000000 0
ion Ag   3.787148999999999   2.673107530303029   6.660413000000000 0
ion Ag   3.787148999999999  13.384782030303025   6.660413000000000 0
ion Ag  11.361447000000000   2.673107530303029   6.660413000000000 0
ion Ag  11.361447000000000  13.384782030303025   6.660413000000000 0
ion Ag   3.787148999999999   2.682694530303032  12.076021000000001 0
ion Ag   3.787148999999999  13.394369030303029  12.076021000000001 0
ion Ag  11.361447000000000   2.682694530303032  12.076021000000001 0
ion Ag  11.361447000000000  13.394369030303029  12.076021000000001 0
ion Ag   3.787148999999999   8.000323530303030  17.563452000000002 0
ion Ag   3.787148999999999  18.711997530303027  17.563452000000002 0
ion Ag  11.361447000000000   8.000323530303030  17.563452000000002 0
ion Ag  11.361447000000000  18.711997530303027  17.563452000000002 0
ion Ag   0.000000000000000   5.355835530303029  20.280093000000001 0
ion Ag   0.000000000000000  16.067510530303029  20.280093000000001 0
ion Ag   7.574297999999999   5.355835530303029  20.280093000000001 0
ion Ag   7.574297999999999  16.067510530303029  20.280093000000001 0
ion Ag   0.000000000000000  -0.000001469696972  14.712647000000000 0
ion Ag   0.000000000000000  10.711673030303029  14.712647000000000 0
ion Ag   7.574297999999999  -0.000001469696972  14.712647000000000 0
ion Ag   7.574297999999999  10.711673030303029  14.712647000000000 0
ion Ag   3.787148999999999   8.028977030303029  12.076021000000001 0
ion Ag   3.787148999999999  18.740651530303026  12.076021000000001 0
ion Ag  11.361447000000000   8.028977030303029  12.076021000000001 0
ion Ag  11.361447000000000  18.740651530303026  12.076021000000001 0
ion Ag   3.787148999999999   2.711348530303029  17.563452000000002 0
ion Ag   3.787148999999999  13.423022530303028  17.563452000000002 0
ion Ag  11.361447000000000   2.711348530303029  17.563452000000002 0
ion Ag  11.361447000000000  13.423022530303028  17.563452000000002 0
ion Pt   0.000000000000000   5.355835530303029   3.956249999999999 0
ion Pt   0.000000000000000  16.067510530303029   3.956249999999999 0
ion Pt   7.574297999999999   5.355835530303029   3.956249999999999 0
ion Pt   7.574297999999999  16.067510530303029   3.956249999999999 0
ion Pt   0.000000000000000  -0.000001469696972   9.374912000000000 0
ion Pt   0.000000000000000  10.711673030303029   9.374912000000000 0
ion Pt   7.574297999999999  -0.000001469696972   9.374912000000000 0
ion Pt   7.574297999999999  10.711673030303029   9.374912000000000 0
ion Pt   0.000000000000000   5.355835530303029  14.805410000000000 0
ion Pt   0.000000000000000  16.067510530303029  14.805410000000000 0
ion Pt   7.574297999999999   5.355835530303029  14.805410000000000 0
ion Pt   7.574297999999999  16.067510530303029  14.805410000000000 0
ion Pt   0.000000000000000  -0.000001469696972  19.905184999999999 0
ion Pt   0.000000000000000  10.711673030303029  19.905184999999999 0
ion Pt   7.574297999999999  -0.000001469696972  19.905184999999999 0
ion Pt   7.574297999999999  10.711673030303029  19.905184999999999 0
ion C   7.574297999999999  10.711673030303029  23.387131890061422 1  Linear 0 0 1
ion O   7.634392999999999  10.711673030303029  25.591377409983934 1  Linear 0 0 1

# Forces in Cartesian coordinates:
force Ag   0.000119023903906   0.000089707123414  -0.000390870766424 0
force Ag  -0.000088038152360   0.000289071725664  -0.000147379573912 0
force Ag  -0.000115168711735   0.000098497776628  -0.000390317790504 0
force Ag   0.000090550454434   0.000290111919289  -0.000149108432290 0
force Ag   0.000078376571491   0.000237156289886   0.000093187231545 0
force Ag   0.000022035216381   0.000020737064302  -0.000287519799355 0
force Ag  -0.000091958609907   0.000233400901247   0.000091072427923 0
force Ag  -0.000033393210476   0.000024598784906  -0.000289433078575 0
force Ag   0.000001806559549  -0.000001958789616  -0.000091362508035 0
force Ag   0.000001806559549   0.000001958789616  -0.000091362508035 0
force Ag   0.000004717500629  -0.000151115189697  -0.000643257491520 0
force Ag   0.000004717500629   0.000151115189697  -0.000643257491520 0
force Ag  -0.000006956649296   0.000000000000000   0.000056031886340 0
force Ag  -0.000012669680161   0.000000000000000  -0.000510091818238 0
force Ag  -0.000011528375400   0.000000000000000  -0.000235289573035 0
force Ag  -0.000011378663601   0.000000000000000  -0.001048245405588 0
force Ag  -0.000088038152360  -0.000289071725664  -0.000147379573912 0
force Ag   0.000119023903906  -0.000089707123414  -0.000390870766424 0
force Ag   0.000090550454434  -0.000290111919289  -0.000149108432290 0
force Ag  -0.000115168711735  -0.000098497776628  -0.000390317790504 0
force Ag   0.000022035216381  -0.000020737064302  -0.000287519799355 0
force Ag   0.000078376571491  -0.000237156289886   0.000093187231545 0
force Ag  -0.000033393210476  -0.000024598784906  -0.000289433078575 0
force Ag  -0.000091958609907  -0.000233400901247   0.000091072427923 0
force Ag   0.000277356882119   0.000052304388405  -0.000206087198649 0
force Ag  -0.000277868230883   0.000140602165284  -0.000280878216544 0
force Ag  -0.000268579115173   0.000061077743007  -0.000199103602164 0
force Ag   0.000274462842706   0.000147960382114  -0.000299463978319 0
force Ag  -0.002324588825262  -0.001873713265459  -0.002365841448461 0
force Ag  -0.000152408676853  -0.000004683241698   0.000270259789711 0
force Ag   0.002226652027252  -0.001763936926728  -0.002359501215952 0
force Ag   0.000139497464188  -0.000002017258571   0.000272345059202 0
force Ag  -0.000010367577043  -0.000005294758174  -0.000050525163197 0
force Ag  -0.000010367577043   0.000005294758174  -0.000050525163197 0
force Ag  -0.000010234742701  -0.002931179903406  -0.000692922098372 0
force Ag  -0.000010234742701   0.002931179903406  -0.000692922098372 0
force Ag  -0.000010231107422   0.000000000000000   0.000045917796948 0
force Ag  -0.000003285136599   0.000000000000000  -0.000565312968075 0
force Ag  -0.000012457907007   0.000000000000000  -0.000649562008649 0
force Ag   0.000096672414386   0.000000000000000   0.000446427765838 0
force Ag  -0.000277868230883  -0.000140602165284  -0.000280878216544 0
force Ag   0.000277356882119  -0.000052304388405  -0.000206087198649 0
force Ag   0.000274462842706  -0.000147960382114  -0.000299463978319 0
force Ag  -0.000268579115173  -0.000061077743007  -0.000199103602164 0
force Ag  -0.000152408676853   0.000004683241698   0.000270259789711 0
force Ag  -0.002324588825262   0.001873713265459  -0.002365841448461 0
force Ag   0.000139497464188   0.000002017258571   0.000272345059202 0
force Ag   0.002226652027252   0.001763936926728  -0.002359501215952 0
force Pt  -0.000002918128564  -0.000208473874606  -0.000526344851016 0
force Pt  -0.000002918128564   0.000208473874606  -0.000526344851016 0
force Pt  -0.000002867600938   0.000036456474556  -0.000885448482400 0
force Pt  -0.000002867600938  -0.000036456474556  -0.000885448482400 0
force Pt   0.000007982220588   0.000000000000000   0.000365056637534 0
force Pt  -0.000003511403284   0.000000000000000   0.000086255700340 0
force Pt   0.000006392593555   0.000000000000000   0.000862385159561 0
force Pt  -0.000009085893731   0.000000000000000  -0.000931184579604 0
force Pt   0.000000753740781  -0.000709518605498  -0.000613681282895 0
force Pt   0.000000753740781   0.000709518605498  -0.000613681282895 0
force Pt   0.000009824521253   0.002327368142672   0.001054098120573 0
force Pt   0.000009824521253  -0.002327368142672   0.001054098120573 0
force Pt  -0.000013258946868   0.000000000000000  -0.000059871078572 0
force Pt  -0.000032793433695   0.000000000000000   0.000025477982992 0
force Pt  -0.000010410280178   0.000000000000000  -0.000504672164395 0
force Pt  -0.000453703215304   0.000000000000000   0.012764838211506 0
force C   0.001232213453792   0.000000000000000   0.000052351488761 1  Linear 0 0 1
force O  -0.000805446605435   0.000000000000000   0.000001523799970 1  Linear 0 0 1

# Energy components:
   A_diel =       -0.0112336153268677
   Eewald =    35757.5506354824319715
       EH =    43550.0211672962250304
     Eloc =   -89208.1736545049061533
      Enl =      175.7915365405565638
     EvdW =       -1.0409895150102599
      Exc =    -1156.4538499272334775
 Exc_core =      272.3528694837796706
       KE =     2079.4045881499255302
-------------------------------------
     Etot =    -8530.5589306095607753
       TS =        0.0015277410534698
-------------------------------------
        F =    -8530.5604583506137715


Dumping 'jdft.fillings' ... done
Dumping 'jdft.wfns' ... done
Dumping 'jdft.fluidState' ... done
Dumping 'jdft.ionpos' ... done
Dumping 'jdft.lattice' ... done
Dumping 'jdft.eigenvals' ... done
Dumping 'jdft.eigStats' ... 
	eMin: -3.530589 at state 4 ( [ +0.500000 +0.000000 +0.000000 ] spin 1 )
	HOMO: -0.158479 at state 1 ( [ +0.000000 +0.333333 +0.000000 ] spin 1 )
	mu  : -0.157597
	LUMO: -0.156953 at state 11 ( [ +0.500000 +0.333333 +0.000000 ] spin -1 )
	eMax: +0.159069 at state 5 ( [ +0.500000 +0.333333 +0.000000 ] spin 1 )
	HOMO-LUMO gap: +0.001526
	Optical gap  : +0.002118 at state 11 ( [ +0.500000 +0.333333 +0.000000 ] spin -1 )
Dumping 'jdft.Ecomponents' ... done
IonicMinimize: Iter:   8  F: -8530.560458350613771  |grad|_K:  3.703e-05  alpha:  1.000e+00  linmin:  2.629e-03  t[s]:  76178.63
IonicMinimize: Converged (|grad|_K<1.000000e-04).

#--- Lowdin population analysis ---
# oxidation-state Ag +0.166 +0.167 +0.166 +0.167 +0.063 +0.064 +0.063 +0.064 +0.080 +0.080 +0.079 +0.079 -0.001 -0.003 -0.009 +0.000 +0.167 +0.166 +0.167 +0.166 +0.064 +0.063 +0.064 +0.063 +0.079 +0.078 +0.079 +0.078 +0.026 +0.023 +0.026 +0.023 +0.209 +0.209 +0.195 +0.195 +0.072 +0.069 +0.069 +0.058 +0.078 +0.079 +0.078 +0.079 +0.023 +0.026 +0.023 +0.026
# magnetic-moments Ag -0.000 -0.000 -0.000 +0.000 -0.000 -0.000 -0.000 -0.000 -0.000 -0.000 -0.000 -0.000 -0.000 -0.000 -0.000 -0.000 -0.000 -0.000 +0.000 -0.000 -0.000 -0.000 -0.000 -0.000 +0.000 +0.000 +0.000 +0.000 -0.000 -0.000 +0.000 -0.000 -0.000 -0.000 -0.000 -0.000 -0.000 +0.000 +0.000 +0.000 +0.000 +0.000 +0.000 +0.000 -0.000 -0.000 -0.000 +0.000
# oxidation-state Pt -0.311 -0.311 -0.311 -0.311 -0.220 -0.221 -0.219 -0.225 -0.232 -0.232 -0.228 -0.228 -0.160 -0.151 -0.154 -0.319
# magnetic-moments Pt -0.000 -0.000 -0.000 -0.000 +0.000 -0.000 -0.000 -0.000 -0.000 -0.000 -0.000 -0.000 +0.000 +0.000 -0.000 -0.000
# oxidation-state C +0.458
# magnetic-moments C -0.000
# oxidation-state O -0.178
# magnetic-moments O +0.000


Dumping 'jdft.n_up' ... done
Dumping 'jdft.n_dn' ... done
Dumping 'jdft.tau_up' ... done
Dumping 'jdft.tau_dn' ... done
Dumping 'jdft.eigenvals' ... done
Dumping 'jdft.eigStats' ... 
	eMin: -3.530589 at state 4 ( [ +0.500000 +0.000000 +0.000000 ] spin 1 )
	HOMO: -0.158479 at state 1 ( [ +0.000000 +0.333333 +0.000000 ] spin 1 )
	mu  : -0.157597
	LUMO: -0.156953 at state 11 ( [ +0.500000 +0.333333 +0.000000 ] spin -1 )
	eMax: +0.159069 at state 5 ( [ +0.500000 +0.333333 +0.000000 ] spin 1 )
	HOMO-LUMO gap: +0.001526
	Optical gap  : +0.002118 at state 11 ( [ +0.500000 +0.333333 +0.000000 ] spin -1 )
Dumping 'jdft.kPts' ... done
Dumping 'jdft.kMap' ... done
Dumping 'jdft.dosUp' ... done.
Dumping 'jdft.dosDn' ... done.
End date and time: Sat Mar  5 04:01:07 2022  (Duration: 0-21:12:56.12)
Done!
