
*************** JDFTx 1.6.0  ***************

Start date and time: Mon Dec  6 15:47:39 2021
Executable /projects/musgravc/apps/jdftx-1.6.1/build/jdftx with command-line: -i in
Running on hosts (process indices):  shas0330.rc.int.colorado.edu (0-23)
Divided in process groups (process indices):  0 (0)  1 (1)  2 (2)  3 (3)  4 (4)  5 (5)  6 (6)  7 (7)  8 (8)  9 (9)  10 (10)  11 (11)  12 (12)  13 (13)  14 (14)  15 (15)  16 (16)  17 (17)  18 (18)  19 (19)  20 (20)  21 (21)  22 (22)  23 (23)
Resource initialization completed at t[s]:      0.00
Run totals: 24 processes, 24 threads, 0 GPUs


Input parsed successfully to the following command list (including defaults):

basis kpoint-dependent
converge-empty-states yes
coords-type Cartesian
core-overlap-check none
coulomb-interaction Periodic
davidson-band-ratio 1.1
density-of-states Etol 1.000000e-06 Esigma 1.000000e-03 \
		Complete \
	Total \
	OrthoOrbital Cu 1   s \
	OrthoOrbital Cu 1   p \
	OrthoOrbital Cu 1   px \
	OrthoOrbital Cu 1   py \
	OrthoOrbital Cu 1   pz \
	OrthoOrbital Cu 1   d \
	OrthoOrbital Cu 1   dxy \
	OrthoOrbital Cu 1   dyz \
	OrthoOrbital Cu 1   dz2 \
	OrthoOrbital Cu 1   dxz \
	OrthoOrbital Cu 1   dx2-y2 \
	OrthoOrbital Cu 2   s \
	OrthoOrbital Cu 2   p \
	OrthoOrbital Cu 2   px \
	OrthoOrbital Cu 2   py \
	OrthoOrbital Cu 2   pz \
	OrthoOrbital Cu 2   d \
	OrthoOrbital Cu 2   dxy \
	OrthoOrbital Cu 2   dyz \
	OrthoOrbital Cu 2   dz2 \
	OrthoOrbital Cu 2   dxz \
	OrthoOrbital Cu 2   dx2-y2 \
	OrthoOrbital Cu 3   s \
	OrthoOrbital Cu 3   p \
	OrthoOrbital Cu 3   px \
	OrthoOrbital Cu 3   py \
	OrthoOrbital Cu 3   pz \
	OrthoOrbital Cu 3   d \
	OrthoOrbital Cu 3   dxy \
	OrthoOrbital Cu 3   dyz \
	OrthoOrbital Cu 3   dz2 \
	OrthoOrbital Cu 3   dxz \
	OrthoOrbital Cu 3   dx2-y2 \
	OrthoOrbital Cu 4   s \
	OrthoOrbital Cu 4   p \
	OrthoOrbital Cu 4   px \
	OrthoOrbital Cu 4   py \
	OrthoOrbital Cu 4   pz \
	OrthoOrbital Cu 4   d \
	OrthoOrbital Cu 4   dxy \
	OrthoOrbital Cu 4   dyz \
	OrthoOrbital Cu 4   dz2 \
	OrthoOrbital Cu 4   dxz \
	OrthoOrbital Cu 4   dx2-y2 \
	OrthoOrbital Cu 5   s \
	OrthoOrbital Cu 5   p \
	OrthoOrbital Cu 5   px \
	OrthoOrbital Cu 5   py \
	OrthoOrbital Cu 5   pz \
	OrthoOrbital Cu 5   d \
	OrthoOrbital Cu 5   dxy \
	OrthoOrbital Cu 5   dyz \
	OrthoOrbital Cu 5   dz2 \
	OrthoOrbital Cu 5   dxz \
	OrthoOrbital Cu 5   dx2-y2 \
	OrthoOrbital Cu 6   s \
	OrthoOrbital Cu 6   p \
	OrthoOrbital Cu 6   px \
	OrthoOrbital Cu 6   py \
	OrthoOrbital Cu 6   pz \
	OrthoOrbital Cu 6   d \
	OrthoOrbital Cu 6   dxy \
	OrthoOrbital Cu 6   dyz \
	OrthoOrbital Cu 6   dz2 \
	OrthoOrbital Cu 6   dxz \
	OrthoOrbital Cu 6   dx2-y2 \
	OrthoOrbital Cu 7   s \
	OrthoOrbital Cu 7   p \
	OrthoOrbital Cu 7   px \
	OrthoOrbital Cu 7   py \
	OrthoOrbital Cu 7   pz \
	OrthoOrbital Cu 7   d \
	OrthoOrbital Cu 7   dxy \
	OrthoOrbital Cu 7   dyz \
	OrthoOrbital Cu 7   dz2 \
	OrthoOrbital Cu 7   dxz \
	OrthoOrbital Cu 7   dx2-y2 \
	OrthoOrbital Cu 8   s \
	OrthoOrbital Cu 8   p \
	OrthoOrbital Cu 8   px \
	OrthoOrbital Cu 8   py \
	OrthoOrbital Cu 8   pz \
	OrthoOrbital Cu 8   d \
	OrthoOrbital Cu 8   dxy \
	OrthoOrbital Cu 8   dyz \
	OrthoOrbital Cu 8   dz2 \
	OrthoOrbital Cu 8   dxz \
	OrthoOrbital Cu 8   dx2-y2
dump End ElecDensity KEdensity BandEigs EigStats RhoAtom DOS Kpoints
dump Ionic State IonicPositions Lattice EigStats Ecomponents
dump 
dump 
dump 
dump 
dump 
dump 
dump 
dump 
dump-name jdft.$VAR
elec-cutoff 20
elec-eigen-algo Davidson
elec-ex-corr gga-PBE
elec-initial-magnetization 0.000000 no
elec-n-bands 92
elec-smearing Fermi 0.001
electronic-minimize  \
	dirUpdateScheme      FletcherReeves \
	linminMethod         DirUpdateRecommended \
	nIterations          100 \
	history              15 \
	knormThreshold       0 \
	energyDiffThreshold  1e-07 \
	nEnergyDiff          2 \
	alphaTstart          1 \
	alphaTmin            1e-10 \
	updateTestStepSize   yes \
	alphaTreduceFactor   0.1 \
	alphaTincreaseFactor 3 \
	nAlphaAdjustMax      3 \
	wolfeEnergy          0.0001 \
	wolfeGradient        0.9 \
	fdTest               no
exchange-regularization WignerSeitzTruncated
fluid LinearPCM 298.000000 1.013250
fluid-anion F- 0.5 MeanFieldLJ \
	epsBulk 1 \
	pMol 0 \
	epsInf 1 \
	Pvap 0 \
	sigmaBulk 0 \
	Rvdw 2.24877 \
	Res 0 \
	tauNuc 343133
fluid-cation Na+ 0.5 MeanFieldLJ \
	epsBulk 1 \
	pMol 0 \
	epsInf 1 \
	Pvap 0 \
	sigmaBulk 0 \
	Rvdw 2.19208 \
	Res 0 \
	tauNuc 343133
fluid-ex-corr lda-TF lda-PZ
fluid-gummel-loop 10 1.000000e-05
fluid-minimize  \
	dirUpdateScheme      PolakRibiere \
	linminMethod         DirUpdateRecommended \
	nIterations          400 \
	history              15 \
	knormThreshold       1e-11 \
	energyDiffThreshold  0 \
	nEnergyDiff          2 \
	alphaTstart          1 \
	alphaTmin            1e-10 \
	updateTestStepSize   yes \
	alphaTreduceFactor   0.1 \
	alphaTincreaseFactor 3 \
	nAlphaAdjustMax      6 \
	wolfeEnergy          0.0001 \
	wolfeGradient        0.9 \
	fdTest               no
fluid-solvent H2O 55.338 ScalarEOS \
	epsBulk 78.4 \
	pMol 0.92466 \
	epsInf 1.77 \
	Pvap 1.06736e-10 \
	sigmaBulk 4.62e-05 \
	Rvdw 2.61727 \
	Res 1.42 \
	tauNuc 343133 \
	poleEl 15 7 1
forces-output-coords Positions
ion Cu   4.766623000000000   6.741023000000000  44.091266999999995 1
ion Cu   0.000000000000000   6.741023000000000  39.324643000000002 1
ion Cu   2.383311000000000   3.370512000000000  46.474578999999991 1
ion Cu   2.383311000000000   3.370512000000000  41.707954999999998 1
ion Cu   0.000000000000000   0.000000000000000  34.558019999999992 1
ion Cu   0.000000000000000   0.000000000000000  29.791396999999996 1
ion Cu   2.383311000000000   3.370512000000000  36.941332000000003 1
ion Cu   2.383311000000000   3.370512000000000  32.174708000000003 1
ion-species /projects/musgravc/apps/jdftx-1.6.0/build/pseudopotentials/GBRV_v1.5/$ID_pbe_v1.uspp
ion-species /projects/musgravc/apps/jdftx-1.6.0/build/pseudopotentials/GBRV_v1.5/$ID_pbe_v1.2.uspp
ion-species /projects/musgravc/apps/jdftx-1.6.0/build/pseudopotentials/GBRV_v1.5/$ID_pbe_v1.4.uspp
ion-species /projects/musgravc/apps/jdftx-1.6.0/build/pseudopotentials/GBRV_v1.5/$ID_pbe_v1.5.uspp
ion-width Ecut
ionic-minimize  \
	dirUpdateScheme      L-BFGS \
	linminMethod         DirUpdateRecommended \
	nIterations          100 \
	history              15 \
	knormThreshold       0.0001 \
	energyDiffThreshold  1e-06 \
	nEnergyDiff          2 \
	alphaTstart          1 \
	alphaTmin            1e-10 \
	updateTestStepSize   yes \
	alphaTreduceFactor   0.1 \
	alphaTincreaseFactor 3 \
	nAlphaAdjustMax      3 \
	wolfeEnergy          0.0001 \
	wolfeGradient        0.9 \
	fdTest               no
kpoint   0.000000000000   0.000000000000   0.000000000000  1.00000000000000
kpoint-folding 12 8 1 
latt-move-scale 0 0 0
latt-scale 1 1 1 
lattice  \
	   4.766623000000000    0.000000000000000    0.000000000000000  \
	   0.000000000000000    6.741023000000000    0.000000000000000  \
	  -0.000000000000000    0.000000000000000   47.666234000000003 
lattice-minimize  \
	dirUpdateScheme      L-BFGS \
	linminMethod         DirUpdateRecommended \
	nIterations          0 \
	history              15 \
	knormThreshold       0 \
	energyDiffThreshold  1e-06 \
	nEnergyDiff          2 \
	alphaTstart          1 \
	alphaTmin            1e-10 \
	updateTestStepSize   yes \
	alphaTreduceFactor   0.1 \
	alphaTincreaseFactor 3 \
	nAlphaAdjustMax      3 \
	wolfeEnergy          0.0001 \
	wolfeGradient        0.9 \
	fdTest               no
lcao-params 30 1e-06 0.001
pcm-variant CANDLE
spintype z-spin
subspace-rotation-factor 1 yes
symmetries none
symmetry-threshold 0.0001
target-mu -0.0978 no

van-der-waals D3


Applied RMS atom displacement 0 bohrs to make symmetries exact.

---------- Initializing the Grid ----------
R = 
[      4.76662            0            0  ]
[            0      6.74102            0  ]
[            0            0      47.6662  ]
unit cell volume = 1531.61
G =
[    1.31816          0          0  ]
[         -0   0.932082          0  ]
[          0         -0   0.131816  ]
Minimum fftbox size, Smin = [  20  28  192  ]
Chosen fftbox size, S = [  20  28  192  ]

---------- Exchange Correlation functional ----------
Initalized PBE GGA exchange.
Initalized PBE GGA correlation.

---------- Setting up pseudopotentials ----------
Width of ionic core gaussian charges (only for fluid interactions / plotting) set to 0.397384

Reading pseudopotential file '/projects/musgravc/apps/jdftx-1.6.0/build/pseudopotentials/GBRV_v1.5/cu_pbe_v1.2.uspp':
  Title: Cu.  Created by USPP 7.3.6 on 3-2-2014
  Reference state energy: -201.059491.  19 valence electrons in orbitals:
    |300>  occupation: 2  eigenvalue: -5.020764
    |310>  occupation: 6  eigenvalue: -3.445588
    |320>  occupation: 8  eigenvalue: -0.925168
    |400>  occupation: 2  eigenvalue: -0.567638
    |410>  occupation: 0  eigenvalue: -0.326154
  lMax: 2  lLocal: 3  QijEcut: 6
  6 projectors sampled on a log grid with 613 points:
    l: 0  eig: -5.020767  rCut: 1.4
    l: 0  eig: -0.567640  rCut: 1.4
    l: 1  eig: -3.445589  rCut: 1.55
    l: 1  eig: -0.326157  rCut: 1.55
    l: 2  eig: -0.925170  rCut: 1.5
    l: 2  eig: 1.500000  rCut: 1.5
  Partial core density with radius 0.8
  Transforming core density to a uniform radial grid of dG=0.02 with 1128 points.
  Transforming local potential to a uniform radial grid of dG=0.02 with 1128 points.
  Transforming nonlocal projectors to a uniform radial grid of dG=0.02 with 432 points.
  Transforming density augmentations to a uniform radial grid of dG=0.02 with 1128 points.
  Transforming atomic orbitals to a uniform radial grid of dG=0.02 with 432 points.
  Core radius for overlap checks: 1.55 bohrs.

Initialized 1 species with 8 total atoms.

Folded 1 k-points by 12x8x1 to 96 k-points.

---------- Setting up k-points, bands, fillings ----------
No reducable k-points. 
Computing the number of bands and number of electrons
Calculating initial fillings.
nElectrons: 152.000000   nBands: 92   nStates: 192

----- Setting up reduced wavefunction bases (one per k-point) -----
average nbasis = 6542.969 , ideal nbasis = 6543.143

----- Initializing Supercell corresponding to k-point mesh -----
Lattice vector linear combinations in supercell:
[  12   0   0  ]
[   0   8   0  ]
[   0   0   1  ]
Supercell lattice vectors:
[  57.1995  0  0  ]
[  0  53.9282  0  ]
[  0  0  47.6662  ]

Initializing DFT-D3 calculator:
	Parameters set for gga-PBE functional
	s6:  1.000  s_r6:  1.217
	s8:  0.722  s_r8:  1.000
	Per-atom parameters loaded for:
	Cu:  sqrtQ[a0]:  5.226  Rcov[a0]:  1.909  CN: [ 0.00 0.96 ]

Initializing DFT-D2 calculator for fluid / solvation:
	Cu:  C6:  187.33 Eh-a0^6  R0: 2.952 a0

---------- Setting up ewald sum ----------
Optimum gaussian width for ewald sums = 3.251703 bohr.
Real space sum over 1105 unit cells with max indices [  8  6  2  ]
Reciprocal space sum over 4851 terms with max indices [  4  5  24  ]

Computing DFT-D3 correction:
# coordination-number Cu 8.354 9.157 5.354 9.147 9.147 5.354 9.157 8.354
# diagonal-C6 Cu 175.00 175.00 175.00 175.00 175.00 175.00 175.00 175.00
EvdW_6 =   -0.045710
EvdW_8 =   -0.069700

---------- Allocating electronic variables ----------
Initializing wave functions:  linear combination of atomic orbitals
Cu pseudo-atom occupations:   s ( 2 1 )  p ( 6 0 )  d ( 10 )
	FillingsUpdate:  mu: -0.097800000  nElectrons: 152.000000  magneticMoment: [ Abs: 0.10288  Tot: +0.00216 ]
LCAOMinimize: Iter:   0  G: -1552.5238135004005926  |grad|_K:  3.217e-02  alpha:  1.000e+00
LCAOMinimize: 	Step increased G by 2.529089e+02, reducing alpha to 4.431935e-02.
LCAOMinimize: 	Step increased G by 3.140506e+01, reducing alpha to 4.431935e-03.
	FillingsUpdate:  mu: -0.097800000  nElectrons: 152.000000  magneticMoment: [ Abs: 0.10693  Tot: +0.00041 ]
LCAOMinimize: Iter:   1  G: -1560.4866178504271375  |grad|_K:  1.820e-02  alpha:  4.432e-03  linmin: -1.869e-01  cgtest:  8.739e-01  t[s]:     26.95
LCAOMinimize: Encountered beta<0, resetting CG.
	FillingsUpdate:  mu: -0.097800000  nElectrons: 152.000000  magneticMoment: [ Abs: 0.11786  Tot: -0.00428 ]
LCAOMinimize: Iter:   2  G: -1564.5203571681413450  |grad|_K:  1.056e-02  alpha:  1.003e-02  linmin: -1.210e-01  cgtest:  2.955e-01  t[s]:     33.58
LCAOMinimize: 	Wrong curvature in test step, increasing alphaT to 3.008199e-02.
	FillingsUpdate:  mu: -0.097800000  nElectrons: 152.000000  magneticMoment: [ Abs: 0.12338  Tot: -0.02585 ]
LCAOMinimize: Iter:   3  G: -1567.6139128508107206  |grad|_K:  1.209e-02  alpha: -3.111e-02  linmin: -2.037e-01  cgtest:  8.202e-01  t[s]:     39.98
	FillingsUpdate:  mu: -0.097800000  nElectrons: 152.000000  magneticMoment: [ Abs: 0.00184  Tot: +0.00144 ]
LCAOMinimize: Iter:   4  G: -1589.6627754031828772  |grad|_K:  2.562e-03  alpha:  5.204e-01  linmin:  4.681e-02  cgtest: -3.544e+00  t[s]:     46.60
	FillingsUpdate:  mu: -0.097800000  nElectrons: 152.000000  magneticMoment: [ Abs: 0.00132  Tot: -0.00026 ]
LCAOMinimize: Iter:   5  G: -1589.8708569023035579  |grad|_K:  2.230e-03  alpha:  9.526e-02  linmin: -1.050e-02  cgtest:  9.295e-01  t[s]:     53.49
LCAOMinimize: Encountered beta<0, resetting CG.
LCAOMinimize: 	Wrong curvature in test step, increasing alphaT to 2.857741e-01.
	FillingsUpdate:  mu: -0.097800000  nElectrons: 152.000000  magneticMoment: [ Abs: 0.00168  Tot: -0.00079 ]
LCAOMinimize: Iter:   6  G: -1590.9194972769553260  |grad|_K:  2.113e-03  alpha: -1.045e+00  linmin: -9.538e-02  cgtest:  8.460e-01  t[s]:     59.90
	FillingsUpdate:  mu: -0.097800000  nElectrons: 152.000000  magneticMoment: [ Abs: 0.00156  Tot: -0.00041 ]
LCAOMinimize: Iter:   7  G: -1591.2151325487614031  |grad|_K:  2.109e-03  alpha:  2.734e-02  linmin: -6.783e-02  cgtest:  9.502e-01  t[s]:     66.54
LCAOMinimize: 	Wrong curvature in test step, increasing alphaT to 8.202817e-02.
	FillingsUpdate:  mu: -0.097800000  nElectrons: 152.000000  magneticMoment: [ Abs: 0.00159  Tot: -0.00082 ]
LCAOMinimize: Iter:   8  G: -1591.4882254492213178  |grad|_K:  2.076e-03  alpha: -2.905e+00  linmin: -1.177e-01  cgtest:  9.682e-01  t[s]:     72.93
	FillingsUpdate:  mu: -0.097800000  nElectrons: 152.000000  magneticMoment: [ Abs: 0.00132  Tot: -0.00033 ]
LCAOMinimize: Iter:   9  G: -1591.7746571223019600  |grad|_K:  2.067e-03  alpha:  3.026e-02  linmin: -1.093e-01  cgtest:  9.553e-01  t[s]:     79.57
LCAOMinimize: 	Wrong curvature in test step, increasing alphaT to 9.077577e-02.
	FillingsUpdate:  mu: -0.097800000  nElectrons: 152.000000  magneticMoment: [ Abs: 0.00144  Tot: -0.00053 ]
LCAOMinimize: Iter:  10  G: -1592.0691143899866802  |grad|_K:  2.086e-03  alpha: -4.826e-01  linmin: -6.600e-02  cgtest:  9.421e-01  t[s]:     86.36
	FillingsUpdate:  mu: -0.097800000  nElectrons: 152.000000  magneticMoment: [ Abs: 0.00175  Tot: -0.00121 ]
LCAOMinimize: Iter:  11  G: -1592.4139724913529790  |grad|_K:  2.068e-03  alpha:  3.416e-02  linmin: -1.095e-01  cgtest:  9.509e-01  t[s]:     93.00
LCAOMinimize: 	Wrong curvature in test step, increasing alphaT to 1.024944e-01.
	FillingsUpdate:  mu: -0.097800000  nElectrons: 152.000000  magneticMoment: [ Abs: 0.00159  Tot: -0.00098 ]
LCAOMinimize: Iter:  12  G: -1592.7462321902876283  |grad|_K:  2.070e-03  alpha: -6.173e-01  linmin: -1.018e-01  cgtest:  9.431e-01  t[s]:     99.42
	FillingsUpdate:  mu: -0.097800000  nElectrons: 152.000000  magneticMoment: [ Abs: 0.00150  Tot: -0.00087 ]
LCAOMinimize: Iter:  13  G: -1593.1077747394606376  |grad|_K:  2.070e-03  alpha:  3.626e-02  linmin: -1.185e-01  cgtest:  9.382e-01  t[s]:    106.07
LCAOMinimize: 	Wrong curvature in test step, increasing alphaT to 1.087803e-01.
	FillingsUpdate:  mu: -0.097800000  nElectrons: 152.000000  magneticMoment: [ Abs: 0.00140  Tot: -0.00073 ]
LCAOMinimize: Iter:  14  G: -1593.4701921837083773  |grad|_K:  2.065e-03  alpha: -5.997e-01  linmin: -1.441e-01  cgtest:  9.381e-01  t[s]:    112.63
	FillingsUpdate:  mu: -0.097800000  nElectrons: 152.000000  magneticMoment: [ Abs: 0.00125  Tot: -0.00049 ]
LCAOMinimize: Iter:  15  G: -1593.8749725330744695  |grad|_K:  2.062e-03  alpha:  4.048e-02  linmin: -1.641e-01  cgtest:  9.266e-01  t[s]:    119.32
LCAOMinimize: 	Wrong curvature in test step, increasing alphaT to 1.214295e-01.
	FillingsUpdate:  mu: -0.097800000  nElectrons: 152.000000  magneticMoment: [ Abs: 0.00122  Tot: -0.00043 ]
LCAOMinimize: Iter:  16  G: -1594.2853321923503245  |grad|_K:  2.060e-03  alpha: -4.974e-01  linmin: -1.387e-01  cgtest:  9.199e-01  t[s]:    125.72
	FillingsUpdate:  mu: -0.097800000  nElectrons: 152.000000  magneticMoment: [ Abs: 0.00112  Tot: +0.00012 ]
LCAOMinimize: Iter:  17  G: -1594.8480085820051499  |grad|_K:  2.022e-03  alpha:  5.462e-02  linmin: -1.575e-01  cgtest:  8.978e-01  t[s]:    132.35
LCAOMinimize: 	Wrong curvature in test step, increasing alphaT to 1.638498e-01.
	FillingsUpdate:  mu: -0.097800000  nElectrons: 152.000000  magneticMoment: [ Abs: 0.00112  Tot: +0.00014 ]
LCAOMinimize: Iter:  18  G: -1595.3874493259470455  |grad|_K:  1.964e-03  alpha: -7.519e-01  linmin: -1.259e-01  cgtest:  8.948e-01  t[s]:    138.75
	FillingsUpdate:  mu: -0.097800000  nElectrons: 152.000000  magneticMoment: [ Abs: 0.00113  Tot: +0.00028 ]
LCAOMinimize: Iter:  19  G: -1595.7580877992431851  |grad|_K:  1.880e-03  alpha:  4.054e-02  linmin: -1.849e-01  cgtest:  9.381e-01  t[s]:    145.71
LCAOMinimize: 	Wrong curvature in test step, increasing alphaT to 1.216275e-01.
	FillingsUpdate:  mu: -0.097800000  nElectrons: 152.000000  magneticMoment: [ Abs: 0.00115  Tot: +0.00024 ]
LCAOMinimize: Iter:  20  G: -1596.0717213448538132  |grad|_K:  1.814e-03  alpha: -1.688e+00  linmin: -1.856e-01  cgtest:  9.371e-01  t[s]:    152.16
	FillingsUpdate:  mu: -0.097800000  nElectrons: 152.000000  magneticMoment: [ Abs: 0.00118  Tot: +0.00013 ]
LCAOMinimize: Iter:  21  G: -1596.2947768000285578  |grad|_K:  1.772e-03  alpha:  3.060e-02  linmin: -1.394e-01  cgtest:  9.485e-01  t[s]:    158.79
LCAOMinimize: 	Wrong curvature in test step, increasing alphaT to 9.179885e-02.
	FillingsUpdate:  mu: -0.097800000  nElectrons: 152.000000  magneticMoment: [ Abs: 0.00122  Tot: +0.00009 ]
LCAOMinimize: Iter:  22  G: -1596.5054584505728599  |grad|_K:  1.714e-03  alpha: -2.527e+00  linmin: -1.810e-01  cgtest:  9.561e-01  t[s]:    165.21
	FillingsUpdate:  mu: -0.097800000  nElectrons: 152.000000  magneticMoment: [ Abs: 0.00128  Tot: +0.00008 ]
LCAOMinimize: Iter:  23  G: -1596.6803974669337549  |grad|_K:  1.666e-03  alpha:  2.765e-02  linmin: -2.112e-01  cgtest:  9.599e-01  t[s]:    172.04
LCAOMinimize: 	Wrong curvature in test step, increasing alphaT to 8.293530e-02.
	FillingsUpdate:  mu: -0.097800000  nElectrons: 152.000000  magneticMoment: [ Abs: 0.00134  Tot: +0.00007 ]
LCAOMinimize: Iter:  24  G: -1596.8463435639930594  |grad|_K:  1.623e-03  alpha: -1.684e+00  linmin: -2.182e-01  cgtest:  9.572e-01  t[s]:    178.62
	FillingsUpdate:  mu: -0.097800000  nElectrons: 152.000000  magneticMoment: [ Abs: 0.00141  Tot: +0.00002 ]
LCAOMinimize: Iter:  25  G: -1596.9992310582420032  |grad|_K:  1.582e-03  alpha:  2.672e-02  linmin: -2.209e-01  cgtest:  9.565e-01  t[s]:    185.25
LCAOMinimize: 	Wrong curvature in test step, increasing alphaT to 8.015763e-02.
	FillingsUpdate:  mu: -0.097800000  nElectrons: 152.000000  magneticMoment: [ Abs: 0.00184  Tot: -0.00090 ]
LCAOMinimize: Iter:  26  G: -1597.1460567669550983  |grad|_K:  1.558e-03  alpha: -7.550e-01  linmin: -1.511e-01  cgtest:  9.441e-01  t[s]:    191.66
	FillingsUpdate:  mu: -0.097800000  nElectrons: 152.000000  magneticMoment: [ Abs: 0.00163  Tot: -0.00037 ]
LCAOMinimize: Iter:  27  G: -1597.2952291682674968  |grad|_K:  1.501e-03  alpha:  2.752e-02  linmin: -1.724e-01  cgtest:  9.569e-01  t[s]:    198.28
LCAOMinimize: 	Predicted alpha/alphaT>3.000000, increasing alphaT to 8.256695e-02.
LCAOMinimize: 	Wrong curvature in test step, increasing alphaT to 2.477008e-01.
	FillingsUpdate:  mu: -0.097800000  nElectrons: 152.000000  magneticMoment: [ Abs: 0.00215  Tot: -0.00016 ]
LCAOMinimize: Iter:  28  G: -1597.6976619551796830  |grad|_K:  1.340e-03  alpha: -2.996e+00  linmin: -1.116e-01  cgtest:  8.414e-01  t[s]:    206.70
	FillingsUpdate:  mu: -0.097800000  nElectrons: 152.000000  magneticMoment: [ Abs: 0.00222  Tot: -0.00031 ]
LCAOMinimize: Iter:  29  G: -1597.7959521986367690  |grad|_K:  1.265e-03  alpha:  2.491e-02  linmin: -1.747e-01  cgtest:  9.789e-01  t[s]:    213.31
LCAOMinimize: Encountered beta<0, resetting CG.
LCAOMinimize: 	Predicted alpha/alphaT>3.000000, increasing alphaT to 7.473604e-02.
LCAOMinimize: 	Wrong curvature in test step, increasing alphaT to 2.242081e-01.
	FillingsUpdate:  mu: -0.097800000  nElectrons: 152.000000  magneticMoment: [ Abs: 0.00235  Tot: -0.00041 ]
LCAOMinimize: Iter:  30  G: -1598.0502050817249255  |grad|_K:  1.136e-03  alpha: -7.963e+00  linmin: -2.305e-01  cgtest:  8.747e-01  t[s]:    221.44
LCAOMinimize: None of the convergence criteria satisfied after 30 iterations.
----- createFluidSolver() ----- (Fluid-side solver setup)
   Initializing fluid molecule 'H2O'
     Initializing site 'O'
       Electron density: proportional to exp(-r/0.36935)*erfc((r-0.51523)/0.36823) with norm 6.826
       Charge density: gaussian nuclear width 0.478731 with net site charge 0.826
       Polarizability: cuspless exponential with width 0.32 and norm 3.73
       Hard sphere radius: 2.57003 bohrs
       Positions in reference frame:
         [ +0.000000 +0.000000 +0.000000 ]
     Initializing site 'H'
       Electron density: proportional to exp(-r/0.34641)*erfc((r-0)/0.390882) with norm 0.587
       Charge density: gaussian nuclear width 0.377945 with net site charge -0.413
       Polarizability: cuspless exponential with width 0.39 and norm 3.3
       Positions in reference frame:
         [ +0.000000 -1.441945 +1.122523 ]
         [ +0.000000 +1.441945 +1.122523 ]
     Net charge: 0   dipole magnitude: 0.927204
     Initializing spherical shell mfKernel with radius 2.61727 Bohr
     deltaS corrections:
       site 'O': -7.54299
       site 'H': -6.83917
   Initializing fluid molecule 'Na+'
     Initializing site 'Na'
       Electron density: proportional to exp(-r/0.19682)*erfc((r-0.71491)/0.41314) with norm 8.1383
       Charge density: gaussian nuclear width 0.365347 with net site charge -1
       Hard sphere radius: 1.86327 bohrs
       Positions in reference frame:
         [ +0.000000 +0.000000 +0.000000 ]
     Net charge: -1   dipole magnitude: 0
     Initializing gaussian mfKernel with width: 1.55004 Bohr
     deltaS corrections:
       site 'Na': -22.3555
   Initializing fluid molecule 'F-'
     Initializing site 'F'
       Electron density: proportional to exp(-r/0.38886)*erfc((r-0)/0.438782) with norm 8
       Charge density: gaussian nuclear width 0.374796 with net site charge 1
       Hard sphere radius: 2.39995 bohrs
       Positions in reference frame:
         [ +0.000000 +0.000000 +0.000000 ]
     Net charge: 1   dipole magnitude: 0
     Initializing gaussian mfKernel with width: 1.59012 Bohr
     deltaS corrections:
       site 'F': -9.04335

Correction to mu due to finite nuclear width = -0.0984681
   Cavity determined by nc: 0.00142 and sigma: 0.707107
   Nonlocal vdW cavity from gaussian model electron density with norm = 8 and sigma = 0.993594 bohr
   Charge asymmetry in cavity with sensitivity pCavity = 36.5 e-bohr/Eh
   Electrostatic cavity expanded by eta = 1.46 bohrs
   Weighted density cavitation model constrained by Nbulk: 0.0049383 bohr^-3, Pvap: 3.14029 kPa, Rvdw: 2.61727 bohr and sigmaBulk: 4.62e-05 Eh/bohr^2 at T: 298 K.
   Weighted density dispersion model using vdW pair potentials with single solvent site with sqrtC6eff: 0.77 SI.


---- Citations for features of the code used in this run ----

   Software package:
      R. Sundararaman, K. Letchworth-Weaver, K.A. Schwarz, D. Gunceler, Y. Ozhabes and T.A. Arias, 'JDFTx: software for joint density-functional theory', SoftwareX 6, 278 (2017)

   gga-PBE exchange-correlation functional:
      J.P. Perdew, K. Burke and M. Ernzerhof, Phys. Rev. Lett. 77, 3865 (1996)

   Pseudopotentials:
      KF Garrity, JW Bennett, KM Rabe and D Vanderbilt, Comput. Mater. Sci. 81, 446 (2014)

   DFT-D3 dispersion correction:
      S. Grimme, J. Antony, S. Ehrlich and H. Krieg, J. Chem. Phys. 132, 154104 (2010)

   DFT-D2 dispersion correction:
      S. Grimme, J. Comput. Chem. 27, 1787 (2006)

   Charge-asymmetric nonlocally-determined local-electric (CANDLE) solvation model:
      R. Sundararaman and W.A. Goddard III, J. Chem. Phys. 142, 064107 (2015)

   Total energy minimization with Auxiliary Hamiltonian:
      C. Freysoldt, S. Boeck, and J. Neugebauer, Phys. Rev. B 79, 241103(R) (2009)

   Grand-canonical (fixed-potential) DFT:
      R. Sundararaman, W. A. Goddard III and T. A. Arias, J. Chem. Phys. 146, 114104 (2017)

   Linear-tetrahedron sampling for density of states:
      G. Lehmann and M. Taut, Phys. status solidi (b) 54, 469 (1972)

This list may not be complete. Please suggest additional citations or
report any other bugs at https://github.com/shankar1729/jdftx/issues

Initialization completed successfully at t[s]:    225.30


Computing DFT-D3 correction:
# coordination-number Cu 8.354 9.157 5.354 9.147 9.147 5.354 9.157 8.354
# diagonal-C6 Cu 175.00 175.00 175.00 175.00 175.00 175.00 175.00 175.00
EvdW_6 =   -0.045710
EvdW_8 =   -0.069700
Fluid solver invoked on fresh (random / LCAO) wavefunctions
Running a vacuum solve first:

-------- Initial electronic minimization -----------
	FillingsUpdate:  mu: +0.662892540  nElectrons: 152.000000  magneticMoment: [ Abs: 0.00235  Tot: -0.00041 ]
ElecMinimize: Iter:   0  G: -1598.050497290045087  |grad|_K:  3.637e-04  alpha:  1.000e+00
	FillingsUpdate:  mu: +0.270727879  nElectrons: 152.000000  magneticMoment: [ Abs: 0.00254  Tot: -0.00028 ]
	SubspaceRotationAdjust: set factor to 0.922
ElecMinimize: Iter:   1  G: -1599.312182779244040  |grad|_K:  1.087e-04  alpha:  8.988e-02  linmin:  1.582e-03  t[s]:    242.19
	FillingsUpdate:  mu: +0.300614773  nElectrons: 152.000000  magneticMoment: [ Abs: 0.00200  Tot: -0.00042 ]
	SubspaceRotationAdjust: set factor to 0.922
ElecMinimize: Iter:   2  G: -1599.610619271742962  |grad|_K:  1.208e-04  alpha:  2.413e-01  linmin: -1.319e-06  t[s]:    252.59
	FillingsUpdate:  mu: +0.213269550  nElectrons: 152.000000  magneticMoment: [ Abs: 0.00181  Tot: -0.00030 ]
	SubspaceRotationAdjust: set factor to 0.647
ElecMinimize: Iter:   3  G: -1599.778903059911499  |grad|_K:  6.499e-05  alpha:  7.893e-02  linmin: -3.549e-04  t[s]:    264.45
	FillingsUpdate:  mu: +0.193655853  nElectrons: 152.000000  magneticMoment: [ Abs: 0.00164  Tot: -0.00015 ]
	SubspaceRotationAdjust: set factor to 0.445
ElecMinimize: Iter:   4  G: -1599.822711842414265  |grad|_K:  5.749e-05  alpha:  7.128e-02  linmin:  2.363e-06  t[s]:    274.85
	FillingsUpdate:  mu: +0.115538772  nElectrons: 152.000000  magneticMoment: [ Abs: 0.00147  Tot: -0.00010 ]
	SubspaceRotationAdjust: set factor to 0.443
ElecMinimize: Iter:   5  G: -1599.852281178545354  |grad|_K:  4.793e-05  alpha:  7.680e-02  linmin: -1.065e-05  t[s]:    285.22
	FillingsUpdate:  mu: +0.195221491  nElectrons: 152.000000  magneticMoment: [ Abs: 0.00115  Tot: -0.00009 ]
	SubspaceRotationAdjust: set factor to 0.291
ElecMinimize: Iter:   6  G: -1599.890956555297180  |grad|_K:  4.652e-05  alpha:  1.410e-01  linmin: -5.581e-06  t[s]:    296.04
	FillingsUpdate:  mu: +0.132440428  nElectrons: 152.000000  magneticMoment: [ Abs: 0.00094  Tot: -0.00011 ]
	SubspaceRotationAdjust: set factor to 0.292
ElecMinimize: Iter:   7  G: -1599.908573958160787  |grad|_K:  2.670e-05  alpha:  7.104e-02  linmin:  4.679e-06  t[s]:    306.47
	FillingsUpdate:  mu: +0.138791720  nElectrons: 152.000000  magneticMoment: [ Abs: 0.00080  Tot: -0.00008 ]
	SubspaceRotationAdjust: set factor to 0.253
ElecMinimize: Iter:   8  G: -1599.916828765931086  |grad|_K:  1.999e-05  alpha:  1.002e-01  linmin:  1.189e-06  t[s]:    316.78
	FillingsUpdate:  mu: +0.137838514  nElectrons: 152.000000  magneticMoment: [ Abs: 0.00070  Tot: +0.00000 ]
	SubspaceRotationAdjust: set factor to 0.287
ElecMinimize: Iter:   9  G: -1599.922279156528248  |grad|_K:  1.725e-05  alpha:  1.172e-01  linmin: -3.621e-06  t[s]:    327.54
	FillingsUpdate:  mu: +0.146793603  nElectrons: 152.000000  magneticMoment: [ Abs: 0.00063  Tot: +0.00009 ]
	SubspaceRotationAdjust: set factor to 0.32
ElecMinimize: Iter:  10  G: -1599.926309232126414  |grad|_K:  1.351e-05  alpha:  1.158e-01  linmin: -3.222e-06  t[s]:    337.87
	FillingsUpdate:  mu: +0.149021070  nElectrons: 152.000000  magneticMoment: [ Abs: 0.00060  Tot: +0.00017 ]
	SubspaceRotationAdjust: set factor to 0.33
ElecMinimize: Iter:  11  G: -1599.928746417019738  |grad|_K:  1.152e-05  alpha:  1.144e-01  linmin: -2.480e-06  t[s]:    348.30
	FillingsUpdate:  mu: +0.149141342  nElectrons: 152.000000  magneticMoment: [ Abs: 0.00059  Tot: +0.00025 ]
	SubspaceRotationAdjust: set factor to 0.369
ElecMinimize: Iter:  12  G: -1599.930603421355272  |grad|_K:  8.978e-06  alpha:  1.197e-01  linmin:  4.962e-07  t[s]:    358.88
	FillingsUpdate:  mu: +0.147362426  nElectrons: 152.000000  magneticMoment: [ Abs: 0.00059  Tot: +0.00031 ]
	SubspaceRotationAdjust: set factor to 0.402
ElecMinimize: Iter:  13  G: -1599.931497287478805  |grad|_K:  6.764e-06  alpha:  9.544e-02  linmin: -9.758e-07  t[s]:    369.32
	FillingsUpdate:  mu: +0.151771630  nElectrons: 152.000000  magneticMoment: [ Abs: 0.00060  Tot: +0.00037 ]
	SubspaceRotationAdjust: set factor to 0.441
ElecMinimize: Iter:  14  G: -1599.932202599936318  |grad|_K:  6.601e-06  alpha:  1.323e-01  linmin: -4.428e-08  t[s]:    379.66
	FillingsUpdate:  mu: +0.154944856  nElectrons: 152.000000  magneticMoment: [ Abs: 0.00058  Tot: +0.00039 ]
	SubspaceRotationAdjust: set factor to 0.415
ElecMinimize: Iter:  15  G: -1599.932750782635367  |grad|_K:  5.713e-06  alpha:  1.081e-01  linmin:  1.454e-07  t[s]:    390.23
	FillingsUpdate:  mu: +0.154280587  nElectrons: 152.000000  magneticMoment: [ Abs: 0.00053  Tot: +0.00038 ]
	SubspaceRotationAdjust: set factor to 0.524
ElecMinimize: Iter:  16  G: -1599.933190197326667  |grad|_K:  4.641e-06  alpha:  1.157e-01  linmin:  1.312e-06  t[s]:    400.55
	FillingsUpdate:  mu: +0.151505751  nElectrons: 152.000000  magneticMoment: [ Abs: 0.00049  Tot: +0.00035 ]
	SubspaceRotationAdjust: set factor to 0.502
ElecMinimize: Iter:  17  G: -1599.933448697460562  |grad|_K:  3.959e-06  alpha:  1.033e-01  linmin: -9.520e-07  t[s]:    411.04
	FillingsUpdate:  mu: +0.150462064  nElectrons: 152.000000  magneticMoment: [ Abs: 0.00043  Tot: +0.00032 ]
	SubspaceRotationAdjust: set factor to 0.527
ElecMinimize: Iter:  18  G: -1599.933638144713768  |grad|_K:  2.999e-06  alpha:  1.038e-01  linmin: -1.350e-06  t[s]:    421.64
	FillingsUpdate:  mu: +0.151816269  nElectrons: 152.000000  magneticMoment: [ Abs: 0.00038  Tot: +0.00029 ]
	SubspaceRotationAdjust: set factor to 0.613
ElecMinimize: Iter:  19  G: -1599.933752877496545  |grad|_K:  2.409e-06  alpha:  1.095e-01  linmin:  2.430e-07  t[s]:    432.03
	FillingsUpdate:  mu: +0.152520714  nElectrons: 152.000000  magneticMoment: [ Abs: 0.00034  Tot: +0.00025 ]
	SubspaceRotationAdjust: set factor to 0.556
ElecMinimize: Iter:  20  G: -1599.933821438947007  |grad|_K:  2.264e-06  alpha:  1.015e-01  linmin:  4.661e-07  t[s]:    442.46
	FillingsUpdate:  mu: +0.151811745  nElectrons: 152.000000  magneticMoment: [ Abs: 0.00028  Tot: +0.00021 ]
	SubspaceRotationAdjust: set factor to 0.549
ElecMinimize: Iter:  21  G: -1599.933889008276083  |grad|_K:  1.816e-06  alpha:  1.133e-01  linmin:  1.303e-06  t[s]:    452.85
	FillingsUpdate:  mu: +0.151244613  nElectrons: 152.000000  magneticMoment: [ Abs: 0.00023  Tot: +0.00017 ]
	SubspaceRotationAdjust: set factor to 0.62
ElecMinimize: Iter:  22  G: -1599.933931542969731  |grad|_K:  1.333e-06  alpha:  1.110e-01  linmin:  2.598e-07  t[s]:    463.16
	FillingsUpdate:  mu: +0.151342995  nElectrons: 152.000000  magneticMoment: [ Abs: 0.00020  Tot: +0.00015 ]
	SubspaceRotationAdjust: set factor to 0.519
ElecMinimize: Iter:  23  G: -1599.933949302269866  |grad|_K:  9.902e-07  alpha:  8.593e-02  linmin:  3.873e-07  t[s]:    473.84
	FillingsUpdate:  mu: +0.151373616  nElectrons: 152.000000  magneticMoment: [ Abs: 0.00018  Tot: +0.00013 ]
	SubspaceRotationAdjust: set factor to 0.496
ElecMinimize: Iter:  24  G: -1599.933961424391100  |grad|_K:  8.604e-07  alpha:  1.063e-01  linmin:  1.862e-06  t[s]:    484.18
	FillingsUpdate:  mu: +0.150999792  nElectrons: 152.000000  magneticMoment: [ Abs: 0.00014  Tot: +0.00011 ]
	SubspaceRotationAdjust: set factor to 0.527
ElecMinimize: Iter:  25  G: -1599.933973054161925  |grad|_K:  7.197e-07  alpha:  1.351e-01  linmin:  1.974e-06  t[s]:    494.47
	FillingsUpdate:  mu: +0.150904833  nElectrons: 152.000000  magneticMoment: [ Abs: 0.00012  Tot: +0.00009 ]
	SubspaceRotationAdjust: set factor to 0.486
ElecMinimize: Iter:  26  G: -1599.933979209655945  |grad|_K:  5.307e-07  alpha:  1.022e-01  linmin:  1.056e-07  t[s]:    505.28
	FillingsUpdate:  mu: +0.150957545  nElectrons: 152.000000  magneticMoment: [ Abs: 0.00010  Tot: +0.00008 ]
	SubspaceRotationAdjust: set factor to 0.472
ElecMinimize: Iter:  27  G: -1599.933982455590240  |grad|_K:  4.050e-07  alpha:  9.901e-02  linmin:  3.203e-07  t[s]:    515.68
	FillingsUpdate:  mu: +0.150868583  nElectrons: 152.000000  magneticMoment: [ Abs: 0.00009  Tot: +0.00006 ]
	SubspaceRotationAdjust: set factor to 0.497
ElecMinimize: Iter:  28  G: -1599.933984870495124  |grad|_K:  3.449e-07  alpha:  1.265e-01  linmin:  6.515e-07  t[s]:    525.96
	FillingsUpdate:  mu: +0.150727324  nElectrons: 152.000000  magneticMoment: [ Abs: 0.00007  Tot: +0.00005 ]
	SubspaceRotationAdjust: set factor to 0.492
ElecMinimize: Iter:  29  G: -1599.933986513193759  |grad|_K:  2.944e-07  alpha:  1.187e-01  linmin:  1.506e-07  t[s]:    536.50
	FillingsUpdate:  mu: +0.150763041  nElectrons: 152.000000  magneticMoment: [ Abs: 0.00006  Tot: +0.00004 ]
	SubspaceRotationAdjust: set factor to 0.473
ElecMinimize: Iter:  30  G: -1599.933987639762790  |grad|_K:  2.431e-07  alpha:  1.117e-01  linmin:  7.987e-08  t[s]:    546.84
	FillingsUpdate:  mu: +0.150892433  nElectrons: 152.000000  magneticMoment: [ Abs: 0.00005  Tot: +0.00004 ]
	SubspaceRotationAdjust: set factor to 0.505
ElecMinimize: Iter:  31  G: -1599.933988436788923  |grad|_K:  1.857e-07  alpha:  1.159e-01  linmin:  9.312e-08  t[s]:    557.21
	FillingsUpdate:  mu: +0.150884813  nElectrons: 152.000000  magneticMoment: [ Abs: 0.00005  Tot: +0.00003 ]
	SubspaceRotationAdjust: set factor to 0.542
ElecMinimize: Iter:  32  G: -1599.933988908499714  |grad|_K:  1.632e-07  alpha:  1.175e-01  linmin:  2.488e-07  t[s]:    569.12
	FillingsUpdate:  mu: +0.150807151  nElectrons: 152.000000  magneticMoment: [ Abs: 0.00004  Tot: +0.00002 ]
	SubspaceRotationAdjust: set factor to 0.494
ElecMinimize: Iter:  33  G: -1599.933989283548044  |grad|_K:  1.517e-07  alpha:  1.210e-01  linmin:  1.759e-07  t[s]:    579.47
	FillingsUpdate:  mu: +0.150791363  nElectrons: 152.000000  magneticMoment: [ Abs: 0.00003  Tot: +0.00002 ]
	SubspaceRotationAdjust: set factor to 0.569
ElecMinimize: Iter:  34  G: -1599.933989618595206  |grad|_K:  1.209e-07  alpha:  1.252e-01  linmin:  9.719e-08  t[s]:    589.84
	FillingsUpdate:  mu: +0.150833021  nElectrons: 152.000000  magneticMoment: [ Abs: 0.00002  Tot: +0.00001 ]
	SubspaceRotationAdjust: set factor to 0.573
ElecMinimize: Iter:  35  G: -1599.933989816945086  |grad|_K:  1.020e-07  alpha:  1.166e-01  linmin:  2.355e-07  t[s]:    600.37
	FillingsUpdate:  mu: +0.150842683  nElectrons: 152.000000  magneticMoment: [ Abs: 0.00002  Tot: +0.00001 ]
	SubspaceRotationAdjust: set factor to 0.53
ElecMinimize: Iter:  36  G: -1599.933989968171545  |grad|_K:  9.899e-08  alpha:  1.251e-01  linmin:  2.266e-07  t[s]:    610.73
	FillingsUpdate:  mu: +0.150829203  nElectrons: 152.000000  magneticMoment: [ Abs: 0.00001  Tot: +0.00001 ]
	SubspaceRotationAdjust: set factor to 0.497
ElecMinimize: Iter:  37  G: -1599.933990093417833  |grad|_K:  7.654e-08  alpha:  1.099e-01  linmin:  1.511e-07  t[s]:    621.25
	FillingsUpdate:  mu: +0.150835351  nElectrons: 152.000000  magneticMoment: [ Abs: 0.00001  Tot: +0.00000 ]
	SubspaceRotationAdjust: set factor to 0.521
ElecMinimize: Iter:  38  G: -1599.933990168130322  |grad|_K:  5.699e-08  alpha:  1.098e-01  linmin: -2.438e-08  t[s]:    631.75
	FillingsUpdate:  mu: +0.150837866  nElectrons: 152.000000  magneticMoment: [ Abs: 0.00001  Tot: +0.00000 ]
	SubspaceRotationAdjust: set factor to 0.509
ElecMinimize: Iter:  39  G: -1599.933990216709390  |grad|_K:  5.487e-08  alpha:  1.285e-01  linmin:  2.990e-07  t[s]:    642.09
ElecMinimize: Converged (|Delta G|<1.000000e-07 for 2 iters).
Setting wave functions to eigenvectors of Hamiltonian
Converging empty states (this may take a while): |deigs|: 2.043e-02
Vacuum energy after initial minimize, F = -1599.933990216709390

Shifting auxilliary hamiltonian by -0.248638 to set nElectrons=152.000000

-------- Electronic minimization -----------
	Linear fluid (dielectric constant: 78.4, screening length: 8.12261 Bohr) occupying 0.414701 of unit cell:	Completed after 21 iterations at t[s]:    681.00
	FillingsUpdate:  mu: -0.097800000  nElectrons: 152.000000  magneticMoment: [ Abs: 0.00000  Tot: +0.00000 ]
ElecMinimize: Iter:   0  G: -1599.934032616262812  |grad|_K:  2.655e-05  alpha:  1.000e+00
	Linear fluid (dielectric constant: 78.4, screening length: 8.12261 Bohr) occupying 0.501730 of unit cell:	Completed after 25 iterations at t[s]:    690.51
	Linear fluid (dielectric constant: 78.4, screening length: 8.12261 Bohr) occupying 0.426298 of unit cell:	Completed after 23 iterations at t[s]:    693.87
ElecMinimize: 	Step increased G by 1.441690e-03, reducing alpha to 6.941575e-03.
	Linear fluid (dielectric constant: 78.4, screening length: 8.12261 Bohr) occupying 0.414584 of unit cell:	Completed after 19 iterations at t[s]:    701.09
	FillingsUpdate:  mu: -0.097800000  nElectrons: 152.019060  magneticMoment: [ Abs: 0.00000  Tot: +0.00000 ]
	SubspaceRotationAdjust: set factor to 0.255
ElecMinimize: Iter:   1  G: -1599.934970278647143  |grad|_K:  1.802e-05  alpha:  6.942e-03  linmin: -5.188e-02  t[s]:    705.47
	Linear fluid (dielectric constant: 78.4, screening length: 8.12261 Bohr) occupying 0.414728 of unit cell:	Completed after 14 iterations at t[s]:    709.37
	Linear fluid (dielectric constant: 78.4, screening length: 8.12261 Bohr) occupying 0.415417 of unit cell:	Completed after 15 iterations at t[s]:    712.65
	FillingsUpdate:  mu: -0.097800000  nElectrons: 152.061050  magneticMoment: [ Abs: 0.00000  Tot: +0.00000 ]
	SubspaceRotationAdjust: set factor to 0.162
ElecMinimize: Iter:   2  G: -1599.935926610088245  |grad|_K:  6.137e-06  alpha:  1.437e-02  linmin: -1.165e-02  t[s]:    717.09
	Linear fluid (dielectric constant: 78.4, screening length: 8.12261 Bohr) occupying 0.415647 of unit cell:	Completed after 11 iterations at t[s]:    721.00
ElecMinimize: 	Predicted alpha/alphaT>3.000000, increasing alphaT to 4.310987e-02.
	Linear fluid (dielectric constant: 78.4, screening length: 8.12261 Bohr) occupying 0.416232 of unit cell:	Completed after 13 iterations at t[s]:    724.11
ElecMinimize: 	Predicted alpha/alphaT>3.000000, increasing alphaT to 1.293296e-01.
	Linear fluid (dielectric constant: 78.4, screening length: 8.12261 Bohr) occupying 0.418793 of unit cell:	Completed after 17 iterations at t[s]:    727.35
	Linear fluid (dielectric constant: 78.4, screening length: 8.12261 Bohr) occupying 0.420517 of unit cell:	Completed after 15 iterations at t[s]:    730.51
	FillingsUpdate:  mu: -0.097800000  nElectrons: 152.124513  magneticMoment: [ Abs: 0.00000  Tot: +0.00000 ]
	SubspaceRotationAdjust: set factor to 0.0996
ElecMinimize: Iter:   3  G: -1599.936922262948201  |grad|_K:  7.467e-06  alpha:  1.758e-01  linmin: -6.903e-03  t[s]:    734.88
	Linear fluid (dielectric constant: 78.4, screening length: 8.12261 Bohr) occupying 0.423719 of unit cell:	Completed after 20 iterations at t[s]:    738.98
	Linear fluid (dielectric constant: 78.4, screening length: 8.12261 Bohr) occupying 0.423537 of unit cell:	Completed after 12 iterations at t[s]:    742.25
	FillingsUpdate:  mu: -0.097800000  nElectrons: 152.154686  magneticMoment: [ Abs: 0.00000  Tot: +0.00000 ]
	SubspaceRotationAdjust: set factor to 0.0805
ElecMinimize: Iter:   4  G: -1599.938262714679013  |grad|_K:  5.530e-06  alpha:  1.632e-01  linmin:  1.173e-03  t[s]:    746.77
	Linear fluid (dielectric constant: 78.4, screening length: 8.12261 Bohr) occupying 0.426162 of unit cell:	Completed after 14 iterations at t[s]:    750.76
	Linear fluid (dielectric constant: 78.4, screening length: 8.12261 Bohr) occupying 0.425306 of unit cell:	Completed after 13 iterations at t[s]:    753.85
	FillingsUpdate:  mu: -0.097800000  nElectrons: 152.168440  magneticMoment: [ Abs: 0.00000  Tot: +0.00000 ]
	SubspaceRotationAdjust: set factor to 0.108
ElecMinimize: Iter:   5  G: -1599.938628916478592  |grad|_K:  4.430e-06  alpha:  1.129e-01  linmin:  1.176e-06  t[s]:    758.22
	Linear fluid (dielectric constant: 78.4, screening length: 8.12261 Bohr) occupying 0.427993 of unit cell:	Completed after 17 iterations at t[s]:    762.12
	Linear fluid (dielectric constant: 78.4, screening length: 8.12261 Bohr) occupying 0.433539 of unit cell:	Completed after 19 iterations at t[s]:    765.38
	FillingsUpdate:  mu: -0.097800000  nElectrons: 152.215690  magneticMoment: [ Abs: 0.00000  Tot: +0.00000 ]
	SubspaceRotationAdjust: set factor to 0.116
ElecMinimize: Iter:   6  G: -1599.939327684050795  |grad|_K:  6.432e-06  alpha:  3.029e-01  linmin: -4.555e-05  t[s]:    769.77
	Linear fluid (dielectric constant: 78.4, screening length: 8.12261 Bohr) occupying 0.450652 of unit cell:	Completed after 23 iterations at t[s]:    774.17
	Linear fluid (dielectric constant: 78.4, screening length: 8.12261 Bohr) occupying 0.443782 of unit cell:	Completed after 20 iterations at t[s]:    777.47
	FillingsUpdate:  mu: -0.097800000  nElectrons: 152.270229  magneticMoment: [ Abs: 0.00000  Tot: +0.00000 ]
	SubspaceRotationAdjust: set factor to 0.123
ElecMinimize: Iter:   7  G: -1599.940009732164981  |grad|_K:  6.011e-06  alpha:  1.422e-01  linmin:  1.044e-04  t[s]:    781.86
	Linear fluid (dielectric constant: 78.4, screening length: 8.12261 Bohr) occupying 0.448438 of unit cell:	Completed after 20 iterations at t[s]:    785.97
	Linear fluid (dielectric constant: 78.4, screening length: 8.12261 Bohr) occupying 0.449285 of unit cell:	Completed after 14 iterations at t[s]:    789.10
	FillingsUpdate:  mu: -0.097800000  nElectrons: 152.307022  magneticMoment: [ Abs: 0.00000  Tot: +0.00000 ]
	SubspaceRotationAdjust: set factor to 0.127
ElecMinimize: Iter:   8  G: -1599.940767375261203  |grad|_K:  6.680e-06  alpha:  1.894e-01  linmin:  1.082e-03  t[s]:    793.46
	Linear fluid (dielectric constant: 78.4, screening length: 8.12261 Bohr) occupying 0.451284 of unit cell:	Completed after 19 iterations at t[s]:    797.41
	Linear fluid (dielectric constant: 78.4, screening length: 8.12261 Bohr) occupying 0.450431 of unit cell:	Completed after 17 iterations at t[s]:    800.74
	FillingsUpdate:  mu: -0.097800000  nElectrons: 152.318193  magneticMoment: [ Abs: 0.00000  Tot: +0.00000 ]
	SubspaceRotationAdjust: set factor to 0.138
ElecMinimize: Iter:   9  G: -1599.941111092383608  |grad|_K:  4.608e-06  alpha:  7.301e-02  linmin: -2.125e-04  t[s]:    805.19
	Linear fluid (dielectric constant: 78.4, screening length: 8.12261 Bohr) occupying 0.451253 of unit cell:	Completed after 15 iterations at t[s]:    809.07
	Linear fluid (dielectric constant: 78.4, screening length: 8.12261 Bohr) occupying 0.451334 of unit cell:	Completed after 12 iterations at t[s]:    812.16
	FillingsUpdate:  mu: -0.097800000  nElectrons: 152.326027  magneticMoment: [ Abs: 0.00000  Tot: +0.00000 ]
	SubspaceRotationAdjust: set factor to 0.158
ElecMinimize: Iter:  10  G: -1599.941315498614358  |grad|_K:  4.512e-06  alpha:  8.154e-02  linmin: -4.991e-05  t[s]:    816.53
	Linear fluid (dielectric constant: 78.4, screening length: 8.12261 Bohr) occupying 0.452446 of unit cell:	Completed after 17 iterations at t[s]:    820.56
	Linear fluid (dielectric constant: 78.4, screening length: 8.12261 Bohr) occupying 0.453213 of unit cell:	Completed after 15 iterations at t[s]:    823.71
	FillingsUpdate:  mu: -0.097800000  nElectrons: 152.342492  magneticMoment: [ Abs: 0.00000  Tot: +0.00000 ]
	SubspaceRotationAdjust: set factor to 0.169
ElecMinimize: Iter:  11  G: -1599.941686530782363  |grad|_K:  6.209e-06  alpha:  1.526e-01  linmin: -3.420e-04  t[s]:    828.08
	Linear fluid (dielectric constant: 78.4, screening length: 8.12261 Bohr) occupying 0.458503 of unit cell:	Completed after 21 iterations at t[s]:    832.34
	Linear fluid (dielectric constant: 78.4, screening length: 8.12261 Bohr) occupying 0.456388 of unit cell:	Completed after 20 iterations at t[s]:    835.72
	FillingsUpdate:  mu: -0.097800000  nElectrons: 152.370719  magneticMoment: [ Abs: 0.00000  Tot: +0.00000 ]
	SubspaceRotationAdjust: set factor to 0.188
ElecMinimize: Iter:  12  G: -1599.942196047144989  |grad|_K:  4.830e-06  alpha:  1.085e-01  linmin: -1.648e-04  t[s]:    840.10
	Linear fluid (dielectric constant: 78.4, screening length: 8.12261 Bohr) occupying 0.460141 of unit cell:	Completed after 20 iterations at t[s]:    844.15
	Linear fluid (dielectric constant: 78.4, screening length: 8.12261 Bohr) occupying 0.459349 of unit cell:	Completed after 14 iterations at t[s]:    847.27
	FillingsUpdate:  mu: -0.097800000  nElectrons: 152.394927  magneticMoment: [ Abs: 0.00000  Tot: +0.00000 ]
	SubspaceRotationAdjust: set factor to 0.201
ElecMinimize: Iter:  13  G: -1599.942441742791516  |grad|_K:  4.126e-06  alpha:  8.723e-02  linmin:  2.278e-04  t[s]:    851.68
	Linear fluid (dielectric constant: 78.4, screening length: 8.12261 Bohr) occupying 0.461606 of unit cell:	Completed after 20 iterations at t[s]:    855.79
	Linear fluid (dielectric constant: 78.4, screening length: 8.12261 Bohr) occupying 0.461904 of unit cell:	Completed after 14 iterations at t[s]:    860.09
	FillingsUpdate:  mu: -0.097800000  nElectrons: 152.417868  magneticMoment: [ Abs: 0.00000  Tot: +0.00000 ]
	SubspaceRotationAdjust: set factor to 0.215
ElecMinimize: Iter:  14  G: -1599.942634636007142  |grad|_K:  4.301e-06  alpha:  9.952e-02  linmin: -1.597e-05  t[s]:    864.91
	Linear fluid (dielectric constant: 78.4, screening length: 8.12261 Bohr) occupying 0.463516 of unit cell:	Completed after 20 iterations at t[s]:    868.98
	Linear fluid (dielectric constant: 78.4, screening length: 8.12261 Bohr) occupying 0.463531 of unit cell:	Completed after 3 iterations at t[s]:    871.86
	FillingsUpdate:  mu: -0.097800000  nElectrons: 152.437219  magneticMoment: [ Abs: 0.00000  Tot: +0.00000 ]
	SubspaceRotationAdjust: set factor to 0.26
ElecMinimize: Iter:  15  G: -1599.942851701384370  |grad|_K:  4.154e-06  alpha:  1.006e-01  linmin: -7.986e-05  t[s]:    876.23
	Linear fluid (dielectric constant: 78.4, screening length: 8.12261 Bohr) occupying 0.463744 of unit cell:	Completed after 20 iterations at t[s]:    880.33
	Linear fluid (dielectric constant: 78.4, screening length: 8.12261 Bohr) occupying 0.463725 of unit cell:	Completed after 13 iterations at t[s]:    883.47
	FillingsUpdate:  mu: -0.097800000  nElectrons: 152.446352  magneticMoment: [ Abs: 0.00000  Tot: +0.00000 ]
	SubspaceRotationAdjust: set factor to 0.319
ElecMinimize: Iter:  16  G: -1599.943033148101449  |grad|_K:  3.799e-06  alpha:  8.963e-02  linmin:  7.814e-05  t[s]:    887.85
	Linear fluid (dielectric constant: 78.4, screening length: 8.12261 Bohr) occupying 0.463175 of unit cell:	Completed after 20 iterations at t[s]:    892.06
	Linear fluid (dielectric constant: 78.4, screening length: 8.12261 Bohr) occupying 0.463182 of unit cell:	Completed after 9 iterations at t[s]:    895.20
	FillingsUpdate:  mu: -0.097800000  nElectrons: 152.449628  magneticMoment: [ Abs: 0.00000  Tot: +0.00000 ]
	SubspaceRotationAdjust: set factor to 0.337
ElecMinimize: Iter:  17  G: -1599.943180685316975  |grad|_K:  3.717e-06  alpha:  8.837e-02  linmin: -1.124e-05  t[s]:    899.59
	Linear fluid (dielectric constant: 78.4, screening length: 8.12261 Bohr) occupying 0.462616 of unit cell:	Completed after 20 iterations at t[s]:    903.68
	Linear fluid (dielectric constant: 78.4, screening length: 8.12261 Bohr) occupying 0.462615 of unit cell:	Completed after 2 iterations at t[s]:    906.57
	FillingsUpdate:  mu: -0.097800000  nElectrons: 152.452916  magneticMoment: [ Abs: 0.00000  Tot: +0.00000 ]
	SubspaceRotationAdjust: set factor to 0.375
ElecMinimize: Iter:  18  G: -1599.943323519419437  |grad|_K:  3.307e-06  alpha:  8.870e-02  linmin: -4.484e-05  t[s]:    910.92
	Linear fluid (dielectric constant: 78.4, screening length: 8.12261 Bohr) occupying 0.462660 of unit cell:	Completed after 20 iterations at t[s]:    915.05
	Linear fluid (dielectric constant: 78.4, screening length: 8.12261 Bohr) occupying 0.462637 of unit cell:	Completed after 13 iterations at t[s]:    918.19
	FillingsUpdate:  mu: -0.097800000  nElectrons: 152.457628  magneticMoment: [ Abs: 0.00000  Tot: +0.00000 ]
	SubspaceRotationAdjust: set factor to 0.502
ElecMinimize: Iter:  19  G: -1599.943410359141581  |grad|_K:  2.331e-06  alpha:  6.786e-02  linmin:  1.399e-05  t[s]:    922.72
	Linear fluid (dielectric constant: 78.4, screening length: 8.12261 Bohr) occupying 0.462891 of unit cell:	Completed after 18 iterations at t[s]:    926.75
	Linear fluid (dielectric constant: 78.4, screening length: 8.12261 Bohr) occupying 0.462914 of unit cell:	Completed after 12 iterations at t[s]:    929.89
	FillingsUpdate:  mu: -0.097800000  nElectrons: 152.462066  magneticMoment: [ Abs: 0.00000  Tot: +0.00000 ]
	SubspaceRotationAdjust: set factor to 0.556
ElecMinimize: Iter:  20  G: -1599.943456856398370  |grad|_K:  2.238e-06  alpha:  7.366e-02  linmin:  7.358e-05  t[s]:    934.25
	Linear fluid (dielectric constant: 78.4, screening length: 8.12261 Bohr) occupying 0.462977 of unit cell:	Completed after 15 iterations at t[s]:    938.28
	Linear fluid (dielectric constant: 78.4, screening length: 8.12261 Bohr) occupying 0.463012 of unit cell:	Completed after 14 iterations at t[s]:    941.44
	FillingsUpdate:  mu: -0.097800000  nElectrons: 152.466060  magneticMoment: [ Abs: 0.00000  Tot: +0.00000 ]
	SubspaceRotationAdjust: set factor to 0.63
ElecMinimize: Iter:  21  G: -1599.943518467980766  |grad|_K:  2.845e-06  alpha:  1.067e-01  linmin:  4.857e-05  t[s]:    945.83
	Linear fluid (dielectric constant: 78.4, screening length: 8.12261 Bohr) occupying 0.462079 of unit cell:	Completed after 20 iterations at t[s]:    949.90
	Linear fluid (dielectric constant: 78.4, screening length: 8.12261 Bohr) occupying 0.462375 of unit cell:	Completed after 14 iterations at t[s]:    953.28
	FillingsUpdate:  mu: -0.097800000  nElectrons: 152.465038  magneticMoment: [ Abs: 0.00000  Tot: +0.00000 ]
	SubspaceRotationAdjust: set factor to 0.829
ElecMinimize: Iter:  22  G: -1599.943585431562042  |grad|_K:  2.253e-06  alpha:  7.176e-02  linmin: -9.184e-07  t[s]:    957.69
	Linear fluid (dielectric constant: 78.4, screening length: 8.12261 Bohr) occupying 0.461468 of unit cell:	Completed after 20 iterations at t[s]:    961.70
	Linear fluid (dielectric constant: 78.4, screening length: 8.12261 Bohr) occupying 0.461725 of unit cell:	Completed after 14 iterations at t[s]:    964.83
	FillingsUpdate:  mu: -0.097800000  nElectrons: 152.461847  magneticMoment: [ Abs: 0.00000  Tot: +0.00000 ]
	SubspaceRotationAdjust: set factor to 0.89
ElecMinimize: Iter:  23  G: -1599.943615559102454  |grad|_K:  1.607e-06  alpha:  5.117e-02  linmin: -9.193e-06  t[s]:    969.19
	Linear fluid (dielectric constant: 78.4, screening length: 8.12261 Bohr) occupying 0.461432 of unit cell:	Completed after 15 iterations at t[s]:    973.04
	Linear fluid (dielectric constant: 78.4, screening length: 8.12261 Bohr) occupying 0.461329 of unit cell:	Completed after 12 iterations at t[s]:    976.11
	FillingsUpdate:  mu: -0.097800000  nElectrons: 152.459638  magneticMoment: [ Abs: 0.00000  Tot: +0.00000 ]
	SubspaceRotationAdjust: set factor to 1.14
ElecMinimize: Iter:  24  G: -1599.943636425965224  |grad|_K:  1.578e-06  alpha:  6.936e-02  linmin: -8.774e-06  t[s]:    980.55
	Linear fluid (dielectric constant: 78.4, screening length: 8.12261 Bohr) occupying 0.461167 of unit cell:	Completed after 14 iterations at t[s]:    984.60
	Linear fluid (dielectric constant: 78.4, screening length: 8.12261 Bohr) occupying 0.461147 of unit cell:	Completed after 11 iterations at t[s]:    987.66
	FillingsUpdate:  mu: -0.097800000  nElectrons: 152.458466  magneticMoment: [ Abs: 0.00000  Tot: +0.00000 ]
	SubspaceRotationAdjust: set factor to 1.2
ElecMinimize: Iter:  25  G: -1599.943659184852777  |grad|_K:  1.811e-06  alpha:  7.839e-02  linmin:  8.221e-07  t[s]:    992.05
	Linear fluid (dielectric constant: 78.4, screening length: 8.12261 Bohr) occupying 0.460527 of unit cell:	Completed after 18 iterations at t[s]:    996.12
	Linear fluid (dielectric constant: 78.4, screening length: 8.12261 Bohr) occupying 0.460551 of unit cell:	Completed after 6 iterations at t[s]:    999.10
	FillingsUpdate:  mu: -0.097800000  nElectrons: 152.454016  magneticMoment: [ Abs: 0.00000  Tot: +0.00000 ]
	SubspaceRotationAdjust: set factor to 1.4
ElecMinimize: Iter:  26  G: -1599.943687883177518  |grad|_K:  1.637e-06  alpha:  7.522e-02  linmin: -1.158e-06  t[s]:   1003.48
	Linear fluid (dielectric constant: 78.4, screening length: 8.12261 Bohr) occupying 0.459580 of unit cell:	Completed after 17 iterations at t[s]:   1007.51
	Linear fluid (dielectric constant: 78.4, screening length: 8.12261 Bohr) occupying 0.459947 of unit cell:	Completed after 14 iterations at t[s]:   1010.72
	FillingsUpdate:  mu: -0.097800000  nElectrons: 152.449552  magneticMoment: [ Abs: 0.00000  Tot: +0.00000 ]
	SubspaceRotationAdjust: set factor to 1.33
ElecMinimize: Iter:  27  G: -1599.943702260992950  |grad|_K:  1.160e-06  alpha:  4.646e-02  linmin:  4.771e-06  t[s]:   1015.37
	Linear fluid (dielectric constant: 78.4, screening length: 8.12261 Bohr) occupying 0.459733 of unit cell:	Completed after 14 iterations at t[s]:   1019.26
	Linear fluid (dielectric constant: 78.4, screening length: 8.12261 Bohr) occupying 0.459674 of unit cell:	Completed after 10 iterations at t[s]:   1022.35
	FillingsUpdate:  mu: -0.097800000  nElectrons: 152.447129  magneticMoment: [ Abs: 0.00000  Tot: +0.00000 ]
	SubspaceRotationAdjust: set factor to 1.59
ElecMinimize: Iter:  28  G: -1599.943711527393134  |grad|_K:  9.458e-07  alpha:  5.926e-02  linmin: -2.542e-06  t[s]:   1026.72
	Linear fluid (dielectric constant: 78.4, screening length: 8.12261 Bohr) occupying 0.459598 of unit cell:	Completed after 13 iterations at t[s]:   1030.67
	Linear fluid (dielectric constant: 78.4, screening length: 8.12261 Bohr) occupying 0.459583 of unit cell:	Completed after 10 iterations at t[s]:   1033.74
	FillingsUpdate:  mu: -0.097800000  nElectrons: 152.445675  magneticMoment: [ Abs: 0.00000  Tot: -0.00000 ]
	SubspaceRotationAdjust: set factor to 1.59
ElecMinimize: Iter:  29  G: -1599.943718916478474  |grad|_K:  1.050e-06  alpha:  7.096e-02  linmin:  6.653e-06  t[s]:   1038.14
	Linear fluid (dielectric constant: 78.4, screening length: 8.12261 Bohr) occupying 0.459230 of unit cell:	Completed after 14 iterations at t[s]:   1042.31
	Linear fluid (dielectric constant: 78.4, screening length: 8.12261 Bohr) occupying 0.459266 of unit cell:	Completed after 9 iterations at t[s]:   1045.46
	FillingsUpdate:  mu: -0.097800000  nElectrons: 152.442408  magneticMoment: [ Abs: 0.00000  Tot: -0.00000 ]
	SubspaceRotationAdjust: set factor to 1.75
ElecMinimize: Iter:  30  G: -1599.943727065421172  |grad|_K:  9.016e-07  alpha:  6.367e-02  linmin: -1.450e-05  t[s]:   1049.83
	Linear fluid (dielectric constant: 78.4, screening length: 8.12261 Bohr) occupying 0.459172 of unit cell:	Completed after 13 iterations at t[s]:   1053.70
	Linear fluid (dielectric constant: 78.4, screening length: 8.12261 Bohr) occupying 0.459169 of unit cell:	Completed after 2 iterations at t[s]:   1056.57
	FillingsUpdate:  mu: -0.097800000  nElectrons: 152.440630  magneticMoment: [ Abs: 0.00000  Tot: -0.00000 ]
	SubspaceRotationAdjust: set factor to 1.98
ElecMinimize: Iter:  31  G: -1599.943733306954528  |grad|_K:  8.038e-07  alpha:  6.579e-02  linmin: -5.436e-06  t[s]:   1060.91
	Linear fluid (dielectric constant: 78.4, screening length: 8.12261 Bohr) occupying 0.459360 of unit cell:	Completed after 14 iterations at t[s]:   1064.78
	Linear fluid (dielectric constant: 78.4, screening length: 8.12261 Bohr) occupying 0.459330 of unit cell:	Completed after 12 iterations at t[s]:   1067.86
	FillingsUpdate:  mu: -0.097800000  nElectrons: 152.440730  magneticMoment: [ Abs: 0.00000  Tot: -0.00000 ]
	SubspaceRotationAdjust: set factor to 1.9
ElecMinimize: Iter:  32  G: -1599.943737473677857  |grad|_K:  7.921e-07  alpha:  5.536e-02  linmin:  3.733e-06  t[s]:   1072.37
	Linear fluid (dielectric constant: 78.4, screening length: 8.12261 Bohr) occupying 0.459300 of unit cell:	Completed after 13 iterations at t[s]:   1076.28
	Linear fluid (dielectric constant: 78.4, screening length: 8.12261 Bohr) occupying 0.459297 of unit cell:	Completed after 7 iterations at t[s]:   1079.27
	FillingsUpdate:  mu: -0.097800000  nElectrons: 152.439492  magneticMoment: [ Abs: 0.00000  Tot: -0.00000 ]
	SubspaceRotationAdjust: set factor to 2.07
ElecMinimize: Iter:  33  G: -1599.943741948449087  |grad|_K:  6.631e-07  alpha:  6.131e-02  linmin: -6.885e-06  t[s]:   1083.64
	Linear fluid (dielectric constant: 78.4, screening length: 8.12261 Bohr) occupying 0.459326 of unit cell:	Completed after 12 iterations at t[s]:   1087.56
	Linear fluid (dielectric constant: 78.4, screening length: 8.12261 Bohr) occupying 0.459328 of unit cell:	Completed after 2 iterations at t[s]:   1090.42
	FillingsUpdate:  mu: -0.097800000  nElectrons: 152.438906  magneticMoment: [ Abs: 0.00000  Tot: -0.00000 ]
	SubspaceRotationAdjust: set factor to 2.19
ElecMinimize: Iter:  34  G: -1599.943745292043786  |grad|_K:  5.524e-07  alpha:  6.528e-02  linmin: -7.090e-06  t[s]:   1094.79
	Linear fluid (dielectric constant: 78.4, screening length: 8.12261 Bohr) occupying 0.459566 of unit cell:	Completed after 14 iterations at t[s]:   1098.71
	Linear fluid (dielectric constant: 78.4, screening length: 8.12261 Bohr) occupying 0.459505 of unit cell:	Completed after 12 iterations at t[s]:   1101.95
	FillingsUpdate:  mu: -0.097800000  nElectrons: 152.439624  magneticMoment: [ Abs: 0.00000  Tot: -0.00000 ]
	SubspaceRotationAdjust: set factor to 2
ElecMinimize: Iter:  35  G: -1599.943747015757936  |grad|_K:  4.833e-07  alpha:  4.845e-02  linmin:  5.675e-06  t[s]:   1106.47
	Linear fluid (dielectric constant: 78.4, screening length: 8.12261 Bohr) occupying 0.459561 of unit cell:	Completed after 12 iterations at t[s]:   1110.44
	Linear fluid (dielectric constant: 78.4, screening length: 8.12261 Bohr) occupying 0.459559 of unit cell:	Completed after 2 iterations at t[s]:   1113.31
	FillingsUpdate:  mu: -0.097800000  nElectrons: 152.439720  magneticMoment: [ Abs: 0.00000  Tot: -0.00000 ]
	SubspaceRotationAdjust: set factor to 1.89
ElecMinimize: Iter:  36  G: -1599.943748276633414  |grad|_K:  3.932e-07  alpha:  4.642e-02  linmin:  6.538e-06  t[s]:   1117.64
	Linear fluid (dielectric constant: 78.4, screening length: 8.12261 Bohr) occupying 0.459651 of unit cell:	Completed after 9 iterations at t[s]:   1121.51
	Linear fluid (dielectric constant: 78.4, screening length: 8.12261 Bohr) occupying 0.459726 of unit cell:	Completed after 9 iterations at t[s]:   1124.54
	FillingsUpdate:  mu: -0.097800000  nElectrons: 152.440550  magneticMoment: [ Abs: 0.00000  Tot: -0.00000 ]
	SubspaceRotationAdjust: set factor to 1.97
ElecMinimize: Iter:  37  G: -1599.943749791571463  |grad|_K:  4.274e-07  alpha:  8.419e-02  linmin: -6.646e-06  t[s]:   1128.91
	Linear fluid (dielectric constant: 78.4, screening length: 8.12261 Bohr) occupying 0.459894 of unit cell:	Completed after 14 iterations at t[s]:   1133.03
	Linear fluid (dielectric constant: 78.4, screening length: 8.12261 Bohr) occupying 0.459866 of unit cell:	Completed after 6 iterations at t[s]:   1136.01
	FillingsUpdate:  mu: -0.097800000  nElectrons: 152.441292  magneticMoment: [ Abs: 0.00000  Tot: -0.00000 ]
	SubspaceRotationAdjust: set factor to 2.08
ElecMinimize: Iter:  38  G: -1599.943751292751358  |grad|_K:  3.973e-07  alpha:  7.044e-02  linmin:  3.620e-07  t[s]:   1140.36
	Linear fluid (dielectric constant: 78.4, screening length: 8.12261 Bohr) occupying 0.459787 of unit cell:	Completed after 13 iterations at t[s]:   1144.25
	Linear fluid (dielectric constant: 78.4, screening length: 8.12261 Bohr) occupying 0.459819 of unit cell:	Completed after 12 iterations at t[s]:   1147.35
	FillingsUpdate:  mu: -0.097800000  nElectrons: 152.440976  magneticMoment: [ Abs: 0.00000  Tot: -0.00000 ]
	SubspaceRotationAdjust: set factor to 1.98
ElecMinimize: Iter:  39  G: -1599.943752054670085  |grad|_K:  2.890e-07  alpha:  4.160e-02  linmin: -3.105e-06  t[s]:   1151.72
	Linear fluid (dielectric constant: 78.4, screening length: 8.12261 Bohr) occupying 0.459824 of unit cell:	Completed after 9 iterations at t[s]:   1155.55
	Linear fluid (dielectric constant: 78.4, screening length: 8.12261 Bohr) occupying 0.459826 of unit cell:	Completed after 5 iterations at t[s]:   1159.47
	FillingsUpdate:  mu: -0.097800000  nElectrons: 152.441065  magneticMoment: [ Abs: 0.00000  Tot: +0.00000 ]
	SubspaceRotationAdjust: set factor to 2.24
ElecMinimize: Iter:  40  G: -1599.943752605618556  |grad|_K:  2.501e-07  alpha:  5.664e-02  linmin:  1.197e-06  t[s]:   1164.51
	Linear fluid (dielectric constant: 78.4, screening length: 8.12261 Bohr) occupying 0.459819 of unit cell:	Completed after 9 iterations at t[s]:   1168.36
	Linear fluid (dielectric constant: 78.4, screening length: 8.12261 Bohr) occupying 0.459816 of unit cell:	Completed after 6 iterations at t[s]:   1171.31
	FillingsUpdate:  mu: -0.097800000  nElectrons: 152.441151  magneticMoment: [ Abs: 0.00000  Tot: +0.00000 ]
	SubspaceRotationAdjust: set factor to 2.49
ElecMinimize: Iter:  41  G: -1599.943753229149934  |grad|_K:  2.780e-07  alpha:  8.566e-02  linmin:  6.575e-08  t[s]:   1175.67
	Linear fluid (dielectric constant: 78.4, screening length: 8.12261 Bohr) occupying 0.459728 of unit cell:	Completed after 13 iterations at t[s]:   1179.61
	Linear fluid (dielectric constant: 78.4, screening length: 8.12261 Bohr) occupying 0.459756 of unit cell:	Completed after 12 iterations at t[s]:   1182.70
	FillingsUpdate:  mu: -0.097800000  nElectrons: 152.440963  magneticMoment: [ Abs: 0.00000  Tot: +0.00000 ]
	SubspaceRotationAdjust: set factor to 2.26
ElecMinimize: Iter:  42  G: -1599.943753750984797  |grad|_K:  2.815e-07  alpha:  5.797e-02  linmin:  3.684e-06  t[s]:   1187.09
	Linear fluid (dielectric constant: 78.4, screening length: 8.12261 Bohr) occupying 0.459801 of unit cell:	Completed after 12 iterations at t[s]:   1191.12
	Linear fluid (dielectric constant: 78.4, screening length: 8.12261 Bohr) occupying 0.459785 of unit cell:	Completed after 11 iterations at t[s]:   1194.36
	FillingsUpdate:  mu: -0.097800000  nElectrons: 152.441309  magneticMoment: [ Abs: 0.00000  Tot: +0.00000 ]
	SubspaceRotationAdjust: set factor to 1.91
ElecMinimize: Iter:  43  G: -1599.943754096502516  |grad|_K:  1.996e-07  alpha:  3.747e-02  linmin:  1.676e-06  t[s]:   1198.73
	Linear fluid (dielectric constant: 78.4, screening length: 8.12261 Bohr) occupying 0.459774 of unit cell:	Completed after 10 iterations at t[s]:   1202.61
	Linear fluid (dielectric constant: 78.4, screening length: 8.12261 Bohr) occupying 0.459769 of unit cell:	Completed after 6 iterations at t[s]:   1205.56
	FillingsUpdate:  mu: -0.097800000  nElectrons: 152.441375  magneticMoment: [ Abs: 0.00000  Tot: +0.00000 ]
	SubspaceRotationAdjust: set factor to 2.12
ElecMinimize: Iter:  44  G: -1599.943754344453282  |grad|_K:  1.497e-07  alpha:  5.349e-02  linmin:  3.281e-07  t[s]:   1209.93
	Linear fluid (dielectric constant: 78.4, screening length: 8.12261 Bohr) occupying 0.459772 of unit cell:	Completed after 9 iterations at t[s]:   1213.79
	Linear fluid (dielectric constant: 78.4, screening length: 8.12261 Bohr) occupying 0.459773 of unit cell:	Completed after 3 iterations at t[s]:   1216.66
	FillingsUpdate:  mu: -0.097800000  nElectrons: 152.441563  magneticMoment: [ Abs: 0.00000  Tot: +0.00000 ]
	SubspaceRotationAdjust: set factor to 2.2
ElecMinimize: Iter:  45  G: -1599.943754539885276  |grad|_K:  1.630e-07  alpha:  7.485e-02  linmin: -1.010e-05  t[s]:   1221.08
	Linear fluid (dielectric constant: 78.4, screening length: 8.12261 Bohr) occupying 0.459857 of unit cell:	Completed after 12 iterations at t[s]:   1225.05
	Linear fluid (dielectric constant: 78.4, screening length: 8.12261 Bohr) occupying 0.459835 of unit cell:	Completed after 9 iterations at t[s]:   1228.07
	FillingsUpdate:  mu: -0.097800000  nElectrons: 152.442111  magneticMoment: [ Abs: 0.00000  Tot: +0.00000 ]
	SubspaceRotationAdjust: set factor to 1.89
ElecMinimize: Iter:  46  G: -1599.943754711718611  |grad|_K:  1.589e-07  alpha:  5.506e-02  linmin:  1.564e-05  t[s]:   1232.45
	Linear fluid (dielectric constant: 78.4, screening length: 8.12261 Bohr) occupying 0.459851 of unit cell:	Completed after 10 iterations at t[s]:   1236.31
	Linear fluid (dielectric constant: 78.4, screening length: 8.12261 Bohr) occupying 0.459850 of unit cell:	Completed after 0 iterations at t[s]:   1239.16
	FillingsUpdate:  mu: -0.097800000  nElectrons: 152.442348  magneticMoment: [ Abs: 0.00000  Tot: +0.00000 ]
	SubspaceRotationAdjust: set factor to 1.84
ElecMinimize: Iter:  47  G: -1599.943754866259269  |grad|_K:  1.196e-07  alpha:  5.289e-02  linmin:  2.669e-05  t[s]:   1243.54
	Linear fluid (dielectric constant: 78.4, screening length: 8.12261 Bohr) occupying 0.459853 of unit cell:	Completed after 2 iterations at t[s]:   1247.12
	Linear fluid (dielectric constant: 78.4, screening length: 8.12261 Bohr) occupying 0.459853 of unit cell:	Completed after 2 iterations at t[s]:   1250.03
	FillingsUpdate:  mu: -0.097800000  nElectrons: 152.442441  magneticMoment: [ Abs: 0.00000  Tot: +0.00000 ]
	SubspaceRotationAdjust: set factor to 2.24
ElecMinimize: Iter:  48  G: -1599.943754968721123  |grad|_K:  9.588e-08  alpha:  6.219e-02  linmin:  1.102e-05  t[s]:   1254.62
	Linear fluid (dielectric constant: 78.4, screening length: 8.12261 Bohr) occupying 0.459846 of unit cell:	Completed after 3 iterations at t[s]:   1258.36
	Linear fluid (dielectric constant: 78.4, screening length: 8.12261 Bohr) occupying 0.459845 of unit cell:	Completed after 2 iterations at t[s]:   1261.22
	FillingsUpdate:  mu: -0.097800000  nElectrons: 152.442419  magneticMoment: [ Abs: 0.00000  Tot: +0.00000 ]
	SubspaceRotationAdjust: set factor to 2.46
ElecMinimize: Iter:  49  G: -1599.943755046021124  |grad|_K:  9.790e-08  alpha:  7.229e-02  linmin: -8.486e-06  t[s]:   1265.60
	Linear fluid (dielectric constant: 78.4, screening length: 8.12261 Bohr) occupying 0.459813 of unit cell:	Completed after 9 iterations at t[s]:   1269.44
	Linear fluid (dielectric constant: 78.4, screening length: 8.12261 Bohr) occupying 0.459816 of unit cell:	Completed after 2 iterations at t[s]:   1272.29
	FillingsUpdate:  mu: -0.097800000  nElectrons: 152.442224  magneticMoment: [ Abs: 0.00000  Tot: -0.00000 ]
	SubspaceRotationAdjust: set factor to 2.44
ElecMinimize: Iter:  50  G: -1599.943755120387777  |grad|_K:  1.025e-07  alpha:  6.665e-02  linmin:  2.540e-05  t[s]:   1276.66
ElecMinimize: Converged (|Delta G|<1.000000e-07 for 2 iters).
Setting wave functions to eigenvectors of Hamiltonian
Converging empty states (this may take a while): |deigs|: 3.674e-04
Single-point solvation energy estimate, DeltaG = -0.009764903678388

Computing DFT-D3 correction:
# coordination-number Cu 8.354 9.157 5.354 9.147 9.147 5.354 9.157 8.354
# diagonal-C6 Cu 175.00 175.00 175.00 175.00 175.00 175.00 175.00 175.00
EvdW_6 =   -0.045710
EvdW_8 =   -0.069700

# Ionic positions in cartesian coordinates:
ion Cu   4.766623000000000   6.741023000000000  44.091266999999995 1
ion Cu   0.000000000000000   6.741023000000000  39.324643000000002 1
ion Cu   2.383311000000000   3.370512000000000  46.474578999999991 1
ion Cu   2.383311000000000   3.370512000000000  41.707954999999998 1
ion Cu   0.000000000000000   0.000000000000000  34.558019999999992 1
ion Cu   0.000000000000000   0.000000000000000  29.791396999999996 1
ion Cu   2.383311000000000   3.370512000000000  36.941332000000003 1
ion Cu   2.383311000000000   3.370512000000000  32.174708000000003 1

# Forces in Cartesian coordinates:
force Cu   0.000000695647973   0.000001514752871   0.008748449565013 1
force Cu  -0.000002586383263  -0.000003312631096   0.000574632463261 1
force Cu  -0.000005988400128  -0.000003719185892  -0.006174569401199 1
force Cu   0.000000267557476   0.000000647693959  -0.003750459883896 1
force Cu  -0.000003945132742  -0.000001532010616   0.003602121515028 1
force Cu   0.000001055070069   0.000000649586781   0.006022948950230 1
force Cu   0.000004911160752   0.000002784874286  -0.000443656243724 1
force Cu   0.000000412444690   0.000000703552071  -0.008744782956896 1

# Energy components:
   A_diel =       -0.1101023932245067
   Eewald =     5558.9646568299776845
       EH =     7048.6185034720938347
     Eloc =   -14525.3487777947648283
      Enl =      292.9712320579814104
     EvdW =       -0.1154101923946297
      Exc =     -155.3203461849183782
 Exc_core =        0.3757307890347127
       KE =      165.1555579586921567
  MuShift =       -0.0435449390204618
-------------------------------------
     Etot =    -1614.8525003965435189
       TS =        0.0001041959552130
-------------------------------------
        F =    -1614.8526045924986647
      muN =      -14.9088494721109743
-------------------------------------
        G =    -1599.9437551203877774


Dumping 'jdft.fillings' ... done
Dumping 'jdft.wfns' ... done
Dumping 'jdft.fluidState' ... done
Dumping 'jdft.ionpos' ... done
Dumping 'jdft.lattice' ... done
Dumping 'jdft.eigenvals' ... done
Dumping 'jdft.eigStats' ... 
	eMin: -4.237117 at state 0 ( [ +0.000000 +0.000000 +0.000000 ] spin 1 )
	HOMO: -0.100301 at state 93 ( [ -0.083333 -0.375000 +0.000000 ] spin 1 )
	mu  : -0.097800
	LUMO: -0.095631 at state 24 ( [ +0.250000 +0.000000 +0.000000 ] spin 1 )
	eMax: +0.279003 at state 48 ( [ +0.500000 +0.000000 +0.000000 ] spin 1 )
	HOMO-LUMO gap: +0.004669
	Optical gap  : +0.007354 at state 189 ( [ -0.083333 -0.375000 +0.000000 ] spin -1 )
Dumping 'jdft.Ecomponents' ... done
IonicMinimize: Iter:   0  G: -1599.943755120387777  |grad|_K:  3.259e-03  t[s]:   1308.54

#--- Lowdin population analysis ---
# oxidation-state Cu +0.005 +0.073 -0.005 +0.066 +0.066 -0.005 +0.072 +0.005
# magnetic-moments Cu -0.000 +0.000 +0.000 -0.000 -0.000 +0.000 -0.000 +0.000


Computing DFT-D3 correction:
# coordination-number Cu 8.350 9.157 5.376 9.140 9.140 5.376 9.157 8.350
# diagonal-C6 Cu 175.00 175.00 175.00 175.00 175.00 175.00 175.00 175.00
EvdW_6 =   -0.045710
EvdW_8 =   -0.069705
Shifting auxilliary hamiltonian by 0.000070 to set nElectrons=152.442224

-------- Electronic minimization -----------
	Linear fluid (dielectric constant: 78.4, screening length: 8.12261 Bohr) occupying 0.460120 of unit cell:	Completed after 14 iterations at t[s]:   1313.15
	FillingsUpdate:  mu: -0.097800000  nElectrons: 152.442224  magneticMoment: [ Abs: 0.00000  Tot: +0.00000 ]
ElecMinimize: Iter:   0  G: -1599.943919996082286  |grad|_K:  1.557e-06  alpha:  1.000e+00
	Linear fluid (dielectric constant: 78.4, screening length: 8.12261 Bohr) occupying 0.446764 of unit cell:	Completed after 24 iterations at t[s]:   1322.54
	Linear fluid (dielectric constant: 78.4, screening length: 8.12261 Bohr) occupying 0.459721 of unit cell:	Completed after 25 iterations at t[s]:   1325.97
	FillingsUpdate:  mu: -0.097800000  nElectrons: 152.439809  magneticMoment: [ Abs: 0.00000  Tot: +0.00000 ]
	SubspaceRotationAdjust: set factor to 1.52
ElecMinimize: Iter:   1  G: -1599.943937499205504  |grad|_K:  1.593e-06  alpha:  4.807e-02  linmin: -4.061e-03  t[s]:   1330.34
	Linear fluid (dielectric constant: 78.4, screening length: 8.12261 Bohr) occupying 0.460019 of unit cell:	Completed after 17 iterations at t[s]:   1334.38
	Linear fluid (dielectric constant: 78.4, screening length: 8.12261 Bohr) occupying 0.460102 of unit cell:	Completed after 13 iterations at t[s]:   1337.52
	FillingsUpdate:  mu: -0.097800000  nElectrons: 152.442357  magneticMoment: [ Abs: 0.00000  Tot: +0.00000 ]
	SubspaceRotationAdjust: set factor to 1.01
ElecMinimize: Iter:   2  G: -1599.943960901569426  |grad|_K:  1.401e-06  alpha:  6.141e-02  linmin: -6.747e-06  t[s]:   1342.06
	Linear fluid (dielectric constant: 78.4, screening length: 8.12261 Bohr) occupying 0.460007 of unit cell:	Completed after 18 iterations at t[s]:   1346.06
	Linear fluid (dielectric constant: 78.4, screening length: 8.12261 Bohr) occupying 0.459957 of unit cell:	Completed after 13 iterations at t[s]:   1349.20
	FillingsUpdate:  mu: -0.097800000  nElectrons: 152.441628  magneticMoment: [ Abs: 0.00000  Tot: +0.00000 ]
	SubspaceRotationAdjust: set factor to 0.722
ElecMinimize: Iter:   3  G: -1599.943982214904281  |grad|_K:  1.040e-06  alpha:  9.321e-02  linmin:  3.295e-06  t[s]:   1353.59
	Linear fluid (dielectric constant: 78.4, screening length: 8.12261 Bohr) occupying 0.460280 of unit cell:	Completed after 18 iterations at t[s]:   1357.61
	Linear fluid (dielectric constant: 78.4, screening length: 8.12261 Bohr) occupying 0.460253 of unit cell:	Completed after 9 iterations at t[s]:   1360.66
	FillingsUpdate:  mu: -0.097800000  nElectrons: 152.443547  magneticMoment: [ Abs: 0.00000  Tot: +0.00000 ]
	SubspaceRotationAdjust: set factor to 0.666
ElecMinimize: Iter:   4  G: -1599.943992982176496  |grad|_K:  4.894e-07  alpha:  8.555e-02  linmin:  5.568e-06  t[s]:   1365.03
	Linear fluid (dielectric constant: 78.4, screening length: 8.12261 Bohr) occupying 0.460304 of unit cell:	Completed after 12 iterations at t[s]:   1368.94
	Linear fluid (dielectric constant: 78.4, screening length: 8.12261 Bohr) occupying 0.460316 of unit cell:	Completed after 9 iterations at t[s]:   1372.14
	FillingsUpdate:  mu: -0.097800000  nElectrons: 152.443932  magneticMoment: [ Abs: 0.00000  Tot: +0.00000 ]
	SubspaceRotationAdjust: set factor to 0.682
ElecMinimize: Iter:   5  G: -1599.943995972593257  |grad|_K:  3.394e-07  alpha:  1.073e-01  linmin: -1.445e-05  t[s]:   1376.70
	Linear fluid (dielectric constant: 78.4, screening length: 8.12261 Bohr) occupying 0.460247 of unit cell:	Completed after 13 iterations at t[s]:   1380.64
	Linear fluid (dielectric constant: 78.4, screening length: 8.12261 Bohr) occupying 0.460239 of unit cell:	Completed after 9 iterations at t[s]:   1383.68
	FillingsUpdate:  mu: -0.097800000  nElectrons: 152.443378  magneticMoment: [ Abs: 0.00000  Tot: +0.00000 ]
	SubspaceRotationAdjust: set factor to 0.639
ElecMinimize: Iter:   6  G: -1599.943997588216234  |grad|_K:  2.526e-07  alpha:  1.204e-01  linmin: -3.599e-05  t[s]:   1388.07
	Linear fluid (dielectric constant: 78.4, screening length: 8.12261 Bohr) occupying 0.460254 of unit cell:	Completed after 13 iterations at t[s]:   1392.01
	Linear fluid (dielectric constant: 78.4, screening length: 8.12261 Bohr) occupying 0.460257 of unit cell:	Completed after 6 iterations at t[s]:   1394.98
	FillingsUpdate:  mu: -0.097800000  nElectrons: 152.443382  magneticMoment: [ Abs: 0.00000  Tot: +0.00000 ]
	SubspaceRotationAdjust: set factor to 0.684
ElecMinimize: Iter:   7  G: -1599.943998632960756  |grad|_K:  2.578e-07  alpha:  1.405e-01  linmin: -2.199e-06  t[s]:   1399.35
	Linear fluid (dielectric constant: 78.4, screening length: 8.12261 Bohr) occupying 0.460236 of unit cell:	Completed after 10 iterations at t[s]:   1403.38
	Linear fluid (dielectric constant: 78.4, screening length: 8.12261 Bohr) occupying 0.460223 of unit cell:	Completed after 10 iterations at t[s]:   1406.46
	FillingsUpdate:  mu: -0.097800000  nElectrons: 152.442902  magneticMoment: [ Abs: 0.00000  Tot: +0.00000 ]
	SubspaceRotationAdjust: set factor to 0.754
ElecMinimize: Iter:   8  G: -1599.944000433086785  |grad|_K:  2.391e-07  alpha:  2.327e-01  linmin:  1.710e-05  t[s]:   1410.85
	Linear fluid (dielectric constant: 78.4, screening length: 8.12261 Bohr) occupying 0.459954 of unit cell:	Completed after 14 iterations at t[s]:   1414.71
	Linear fluid (dielectric constant: 78.4, screening length: 8.12261 Bohr) occupying 0.460134 of unit cell:	Completed after 14 iterations at t[s]:   1417.85
	FillingsUpdate:  mu: -0.097800000  nElectrons: 152.442256  magneticMoment: [ Abs: 0.00000  Tot: +0.00000 ]
	SubspaceRotationAdjust: set factor to 0.712
ElecMinimize: Iter:   9  G: -1599.944000944355139  |grad|_K:  1.248e-07  alpha:  7.695e-02  linmin:  2.178e-05  t[s]:   1422.24
	Linear fluid (dielectric constant: 78.4, screening length: 8.12261 Bohr) occupying 0.460128 of unit cell:	Completed after 2 iterations at t[s]:   1425.88
	Linear fluid (dielectric constant: 78.4, screening length: 8.12261 Bohr) occupying 0.460120 of unit cell:	Completed after 2 iterations at t[s]:   1428.76
	FillingsUpdate:  mu: -0.097800000  nElectrons: 152.442097  magneticMoment: [ Abs: 0.00000  Tot: +0.00000 ]
	SubspaceRotationAdjust: set factor to 0.857
ElecMinimize: Iter:  10  G: -1599.944001260388632  |grad|_K:  1.359e-07  alpha:  1.747e-01  linmin:  2.776e-05  t[s]:   1433.31
	Linear fluid (dielectric constant: 78.4, screening length: 8.12261 Bohr) occupying 0.460154 of unit cell:	Completed after 11 iterations at t[s]:   1437.25
	Linear fluid (dielectric constant: 78.4, screening length: 8.12261 Bohr) occupying 0.460154 of unit cell:	Completed after 0 iterations at t[s]:   1440.06
	FillingsUpdate:  mu: -0.097800000  nElectrons: 152.442216  magneticMoment: [ Abs: 0.00000  Tot: +0.00000 ]
	SubspaceRotationAdjust: set factor to 0.837
ElecMinimize: Iter:  11  G: -1599.944001637267320  |grad|_K:  1.140e-07  alpha:  1.757e-01  linmin:  1.089e-05  t[s]:   1444.43
	Linear fluid (dielectric constant: 78.4, screening length: 8.12261 Bohr) occupying 0.460114 of unit cell:	Completed after 12 iterations at t[s]:   1448.26
	Linear fluid (dielectric constant: 78.4, screening length: 8.12261 Bohr) occupying 0.460135 of unit cell:	Completed after 11 iterations at t[s]:   1451.35
	FillingsUpdate:  mu: -0.097800000  nElectrons: 152.442063  magneticMoment: [ Abs: 0.00000  Tot: +0.00000 ]
	SubspaceRotationAdjust: set factor to 0.742
ElecMinimize: Iter:  12  G: -1599.944001765195708  |grad|_K:  6.880e-08  alpha:  8.448e-02  linmin:  4.524e-06  t[s]:   1455.73
	Linear fluid (dielectric constant: 78.4, screening length: 8.12261 Bohr) occupying 0.460142 of unit cell:	Completed after 5 iterations at t[s]:   1461.02
	Linear fluid (dielectric constant: 78.4, screening length: 8.12261 Bohr) occupying 0.460146 of unit cell:	Completed after 7 iterations at t[s]:   1464.05
	FillingsUpdate:  mu: -0.097800000  nElectrons: 152.442112  magneticMoment: [ Abs: 0.00000  Tot: +0.00000 ]
	SubspaceRotationAdjust: set factor to 0.725
ElecMinimize: Iter:  13  G: -1599.944001838826352  |grad|_K:  6.474e-08  alpha:  1.344e-01  linmin:  5.725e-05  t[s]:   1468.46
	Linear fluid (dielectric constant: 78.4, screening length: 8.12261 Bohr) occupying 0.460152 of unit cell:	Completed after 4 iterations at t[s]:   1472.21
	Linear fluid (dielectric constant: 78.4, screening length: 8.12261 Bohr) occupying 0.460152 of unit cell:	Completed after 0 iterations at t[s]:   1475.01
	FillingsUpdate:  mu: -0.097800000  nElectrons: 152.442134  magneticMoment: [ Abs: 0.00000  Tot: +0.00000 ]
	SubspaceRotationAdjust: set factor to 0.805
ElecMinimize: Iter:  14  G: -1599.944001907362235  |grad|_K:  4.255e-08  alpha:  1.414e-01  linmin: -1.068e-04  t[s]:   1479.37
ElecMinimize: Converged (|Delta G|<1.000000e-07 for 2 iters).
[...]
	Linear fluid (dielectric constant: 78.4, screening length: 8.12261 Bohr) occupying 0.466084 of unit cell:	Completed after 2 iterations at t[s]:   2251.15
	FillingsUpdate:  mu: -0.097800000  nElectrons: 152.450831  magneticMoment: [ Abs: 0.00000  Tot: -0.00000 ]
	SubspaceRotationAdjust: set factor to 0.633
ElecMinimize: Iter:  17  G: -1599.945514757862838  |grad|_K:  5.176e-07  alpha:  1.142e-01  linmin:  7.170e-06  t[s]:   2255.53
	Linear fluid (dielectric constant: 78.4, screening length: 8.12261 Bohr) occupying 0.466193 of unit cell:	Completed after 14 iterations at t[s]:   2259.39
	Linear fluid (dielectric constant: 78.4, screening length: 8.12261 Bohr) occupying 0.466177 of unit cell:	Completed after 10 iterations at t[s]:   2262.42
	FillingsUpdate:  mu: -0.097800000  nElectrons: 152.451432  magneticMoment: [ Abs: 0.00000  Tot: -0.00000 ]
	SubspaceRotationAdjust: set factor to 0.648
ElecMinimize: Iter:  18  G: -1599.945517819067845  |grad|_K:  3.319e-07  alpha:  9.834e-02  linmin: -2.552e-06  t[s]:   2266.82
	Linear fluid (dielectric constant: 78.4, screening length: 8.12261 Bohr) occupying 0.466118 of unit cell:	Completed after 12 iterations at t[s]:   2270.83
	Linear fluid (dielectric constant: 78.4, screening length: 8.12261 Bohr) occupying 0.466099 of unit cell:	Completed after 5 iterations at t[s]:   2273.97
	FillingsUpdate:  mu: -0.097800000  nElectrons: 152.450901  magneticMoment: [ Abs: 0.00000  Tot: -0.00000 ]
	SubspaceRotationAdjust: set factor to 0.82
ElecMinimize: Iter:  19  G: -1599.945519471583566  |grad|_K:  2.707e-07  alpha:  1.289e-01  linmin:  6.618e-06  t[s]:   2278.37
	Linear fluid (dielectric constant: 78.4, screening length: 8.12261 Bohr) occupying 0.465900 of unit cell:	Completed after 14 iterations at t[s]:   2282.22
	Linear fluid (dielectric constant: 78.4, screening length: 8.12261 Bohr) occupying 0.465963 of unit cell:	Completed after 12 iterations at t[s]:   2285.33
	FillingsUpdate:  mu: -0.097800000  nElectrons: 152.450003  magneticMoment: [ Abs: 0.00000  Tot: -0.00000 ]
	SubspaceRotationAdjust: set factor to 0.608
ElecMinimize: Iter:  20  G: -1599.945520217833064  |grad|_K:  1.800e-07  alpha:  8.803e-02  linmin: -1.528e-05  t[s]:   2289.71
	Linear fluid (dielectric constant: 78.4, screening length: 8.12261 Bohr) occupying 0.465983 of unit cell:	Completed after 12 iterations at t[s]:   2293.55
	Linear fluid (dielectric constant: 78.4, screening length: 8.12261 Bohr) occupying 0.465986 of unit cell:	Completed after 2 iterations at t[s]:   2296.41
	FillingsUpdate:  mu: -0.097800000  nElectrons: 152.450148  magneticMoment: [ Abs: 0.00000  Tot: -0.00000 ]
	SubspaceRotationAdjust: set factor to 0.519
ElecMinimize: Iter:  21  G: -1599.945520585641361  |grad|_K:  1.247e-07  alpha:  9.741e-02  linmin: -1.921e-05  t[s]:   2300.82
	Linear fluid (dielectric constant: 78.4, screening length: 8.12261 Bohr) occupying 0.465995 of unit cell:	Completed after 8 iterations at t[s]:   2304.73
	Linear fluid (dielectric constant: 78.4, screening length: 8.12261 Bohr) occupying 0.465999 of unit cell:	Completed after 5 iterations at t[s]:   2307.67
	FillingsUpdate:  mu: -0.097800000  nElectrons: 152.450233  magneticMoment: [ Abs: 0.00000  Tot: -0.00000 ]
	SubspaceRotationAdjust: set factor to 0.593
ElecMinimize: Iter:  22  G: -1599.945520847604257  |grad|_K:  1.053e-07  alpha:  1.439e-01  linmin: -9.551e-05  t[s]:   2312.07
	Linear fluid (dielectric constant: 78.4, screening length: 8.12261 Bohr) occupying 0.465975 of unit cell:	Completed after 12 iterations at t[s]:   2316.01
	Linear fluid (dielectric constant: 78.4, screening length: 8.12261 Bohr) occupying 0.465978 of unit cell:	Completed after 2 iterations at t[s]:   2318.91
	FillingsUpdate:  mu: -0.097800000  nElectrons: 152.450096  magneticMoment: [ Abs: 0.00000  Tot: -0.00000 ]
	SubspaceRotationAdjust: set factor to 0.473
ElecMinimize: Iter:  23  G: -1599.945521009518643  |grad|_K:  6.640e-08  alpha:  1.243e-01  linmin:  1.772e-04  t[s]:   2323.28
	Linear fluid (dielectric constant: 78.4, screening length: 8.12261 Bohr) occupying 0.465993 of unit cell:	Completed after 9 iterations at t[s]:   2327.14
	Linear fluid (dielectric constant: 78.4, screening length: 8.12261 Bohr) occupying 0.465991 of unit cell:	Completed after 2 iterations at t[s]:   2330.00
	FillingsUpdate:  mu: -0.097800000  nElectrons: 152.450179  magneticMoment: [ Abs: 0.00000  Tot: -0.00000 ]
	SubspaceRotationAdjust: set factor to 0.462
ElecMinimize: Iter:  24  G: -1599.945521062420994  |grad|_K:  4.568e-08  alpha:  1.042e-01  linmin: -6.670e-05  t[s]:   2334.60
	Linear fluid (dielectric constant: 78.4, screening length: 8.12261 Bohr) occupying 0.465996 of unit cell:	Completed after 3 iterations at t[s]:   2338.21
	Linear fluid (dielectric constant: 78.4, screening length: 8.12261 Bohr) occupying 0.465999 of unit cell:	Completed after 3 iterations at t[s]:   2341.09
	FillingsUpdate:  mu: -0.097800000  nElectrons: 152.450232  magneticMoment: [ Abs: 0.00000  Tot: -0.00000 ]
	SubspaceRotationAdjust: set factor to 0.469
ElecMinimize: Iter:  25  G: -1599.945521102712974  |grad|_K:  3.802e-08  alpha:  1.654e-01  linmin:  1.646e-06  t[s]:   2345.48
ElecMinimize: Converged (|Delta G|<1.000000e-07 for 2 iters).
Setting wave functions to eigenvectors of Hamiltonian
Converging empty states (this may take a while): |deigs|: 2.969e-07

Computing DFT-D3 correction:
# coordination-number Cu 8.317 9.153 5.643 9.081 9.078 5.647 9.150 8.319
# diagonal-C6 Cu 175.00 175.00 175.00 175.00 175.00 175.00 175.00 175.00
EvdW_6 =   -0.045741
EvdW_8 =   -0.069979

# Ionic positions in cartesian coordinates:
ion Cu   4.766598440709443   6.741007651369912  44.193413252720319 1
ion Cu  -0.000009269399611   6.741011876647222  39.349726874764258 1
ion Cu   2.383371862831791   3.370507724156265  46.370221710690124 1
ion Cu   2.383254193727425   3.370483491718491  41.654047347274606 1
ion Cu   0.000039718685378   0.000001471635525  34.610692349632281 1
ion Cu  -0.000023277464933  -0.000035979087907  29.897181152742942 1
ion Cu   2.383375668102662   3.370569820240970  36.917222335788054 1
ion Cu   2.383259662807844   3.370547943319524  32.071395976387386 1

# Forces in Cartesian coordinates:
force Cu   0.000000865592829  -0.000000632089824  -0.000211460463283 1
force Cu  -0.000000476964641   0.000000512944450   0.000097691940987 1
force Cu   0.000005072516846   0.000001246217929  -0.000463504477785 1
force Cu   0.000003561514373   0.000001186975707   0.000514701700727 1
force Cu   0.000000596750959   0.000002967154137  -0.000312383794460 1
force Cu  -0.000002429613710   0.000002487494372   0.000438834995154 1
force Cu  -0.000000070889617  -0.000002664697224  -0.000149072488401 1
force Cu  -0.000000599448747  -0.000006329105025   0.000239657931802 1

# Energy components:
   A_diel =       -0.1131436115686408
   Eewald =     5585.7384023744498336
       EH =     7076.1224405965776896
     Eloc =   -14579.6184842883067176
      Enl =      292.9605946296491084
     EvdW =       -0.1157202923171559
      Exc =     -155.3328845610608937
 Exc_core =        0.3757368321380374
       KE =      165.1723557622600254
  MuShift =       -0.0443334617444565
-------------------------------------
     Etot =    -1614.8550360199226361
       TS =        0.0001177272360519
-------------------------------------
        F =    -1614.8551537471587380
      muN =      -14.9096326444457503
-------------------------------------
        G =    -1599.9455211027129735


Dumping 'jdft.fillings' ... done
Dumping 'jdft.wfns' ... done
Dumping 'jdft.fluidState' ... done
Dumping 'jdft.ionpos' ... done
Dumping 'jdft.lattice' ... done
Dumping 'jdft.eigenvals' ... done
Dumping 'jdft.eigStats' ... 
	eMin: -4.236993 at state 0 ( [ +0.000000 +0.000000 +0.000000 ] spin 1 )
	HOMO: -0.099992 at state 13 ( [ +0.083333 -0.375000 +0.000000 ] spin 1 )
	mu  : -0.097800
	LUMO: -0.095956 at state 154 ( [ -0.416667 +0.250000 +0.000000 ] spin -1 )
	eMax: +0.279112 at state 48 ( [ +0.500000 +0.000000 +0.000000 ] spin 1 )
	HOMO-LUMO gap: +0.004036
	Optical gap  : +0.004771 at state 93 ( [ -0.083333 -0.375000 +0.000000 ] spin 1 )
Dumping 'jdft.Ecomponents' ... done
IonicMinimize: Iter:   3  G: -1599.945521102712974  |grad|_K:  1.938e-04  alpha:  1.000e+00  linmin:  8.039e-01  t[s]:   2359.39

#--- Lowdin population analysis ---
# oxidation-state Cu +0.001 +0.072 -0.012 +0.069 +0.069 -0.012 +0.072 +0.001
# magnetic-moments Cu -0.000 +0.000 +0.000 -0.000 +0.000 +0.000 -0.000 -0.000


Computing DFT-D3 correction:
# coordination-number Cu 8.330 9.145 5.651 9.086 9.084 5.654 9.143 8.329
# diagonal-C6 Cu 175.00 175.00 175.00 175.00 175.00 175.00 175.00 175.00
EvdW_6 =   -0.045743
EvdW_8 =   -0.069985
Shifting auxilliary hamiltonian by -0.000026 to set nElectrons=152.450232

-------- Electronic minimization -----------
	Linear fluid (dielectric constant: 78.4, screening length: 8.12261 Bohr) occupying 0.466184 of unit cell:	Completed after 14 iterations at t[s]:   2364.37
	FillingsUpdate:  mu: -0.097800000  nElectrons: 152.450232  magneticMoment: [ Abs: 0.00000  Tot: -0.00000 ]
ElecMinimize: Iter:   0  G: -1599.945506828482166  |grad|_K:  5.607e-07  alpha:  1.000e+00
	Linear fluid (dielectric constant: 78.4, screening length: 8.12261 Bohr) occupying 0.466083 of unit cell:	Completed after 14 iterations at t[s]:   2373.54
	Linear fluid (dielectric constant: 78.4, screening length: 8.12261 Bohr) occupying 0.466172 of unit cell:	Completed after 13 iterations at t[s]:   2376.66
	FillingsUpdate:  mu: -0.097800000  nElectrons: 152.450154  magneticMoment: [ Abs: 0.00000  Tot: -0.00000 ]
	SubspaceRotationAdjust: set factor to 0.563
ElecMinimize: Iter:   1  G: -1599.945511359517241  |grad|_K:  4.126e-07  alpha:  1.238e-01  linmin: -1.452e-05  t[s]:   2381.05
	Linear fluid (dielectric constant: 78.4, screening length: 8.12261 Bohr) occupying 0.466162 of unit cell:	Completed after 3 iterations at t[s]:   2384.77
	Linear fluid (dielectric constant: 78.4, screening length: 8.12261 Bohr) occupying 0.466148 of unit cell:	Completed after 7 iterations at t[s]:   2387.73
	FillingsUpdate:  mu: -0.097800000  nElectrons: 152.450010  magneticMoment: [ Abs: 0.00000  Tot: -0.00000 ]
	SubspaceRotationAdjust: set factor to 0.662
ElecMinimize: Iter:   2  G: -1599.945517365474188  |grad|_K:  3.831e-07  alpha:  3.031e-01  linmin:  6.020e-06  t[s]:   2392.25
	Linear fluid (dielectric constant: 78.4, screening length: 8.12261 Bohr) occupying 0.466111 of unit cell:	Completed after 9 iterations at t[s]:   2396.05
	Linear fluid (dielectric constant: 78.4, screening length: 8.12261 Bohr) occupying 0.466127 of unit cell:	Completed after 5 iterations at t[s]:   2398.99
	FillingsUpdate:  mu: -0.097800000  nElectrons: 152.449915  magneticMoment: [ Abs: 0.00000  Tot: -0.00000 ]
	SubspaceRotationAdjust: set factor to 0.775
ElecMinimize: Iter:   3  G: -1599.945520300252838  |grad|_K:  3.065e-07  alpha:  1.719e-01  linmin:  1.613e-07  t[s]:   2403.38
	Linear fluid (dielectric constant: 78.4, screening length: 8.12261 Bohr) occupying 0.466111 of unit cell:	Completed after 12 iterations at t[s]:   2407.31
	Linear fluid (dielectric constant: 78.4, screening length: 8.12261 Bohr) occupying 0.466111 of unit cell:	Completed after 1 iterations at t[s]:   2410.13
	FillingsUpdate:  mu: -0.097800000  nElectrons: 152.449854  magneticMoment: [ Abs: 0.00000  Tot: -0.00000 ]
	SubspaceRotationAdjust: set factor to 0.959
ElecMinimize: Iter:   4  G: -1599.945522244690665  |grad|_K:  2.122e-07  alpha:  1.778e-01  linmin: -3.348e-06  t[s]:   2414.50
	Linear fluid (dielectric constant: 78.4, screening length: 8.12261 Bohr) occupying 0.466180 of unit cell:	Completed after 13 iterations at t[s]:   2418.43
	Linear fluid (dielectric constant: 78.4, screening length: 8.12261 Bohr) occupying 0.466194 of unit cell:	Completed after 10 iterations at t[s]:   2421.69
	FillingsUpdate:  mu: -0.097800000  nElectrons: 152.450440  magneticMoment: [ Abs: 0.00000  Tot: -0.00000 ]
	SubspaceRotationAdjust: set factor to 0.775
ElecMinimize: Iter:   5  G: -1599.945523362267977  |grad|_K:  2.959e-07  alpha:  2.134e-01  linmin:  1.757e-05  t[s]:   2426.30
	Linear fluid (dielectric constant: 78.4, screening length: 8.12261 Bohr) occupying 0.465946 of unit cell:	Completed after 14 iterations at t[s]:   2430.16
	Linear fluid (dielectric constant: 78.4, screening length: 8.12261 Bohr) occupying 0.466105 of unit cell:	Completed after 14 iterations at t[s]:   2433.27
	FillingsUpdate:  mu: -0.097800000  nElectrons: 152.449885  magneticMoment: [ Abs: 0.00000  Tot: -0.00000 ]
	SubspaceRotationAdjust: set factor to 0.458
ElecMinimize: Iter:   6  G: -1599.945524138614701  |grad|_K:  1.749e-07  alpha:  7.662e-02  linmin:  1.478e-05  t[s]:   2437.66
	Linear fluid (dielectric constant: 78.4, screening length: 8.12261 Bohr) occupying 0.466136 of unit cell:	Completed after 12 iterations at t[s]:   2441.57
	Linear fluid (dielectric constant: 78.4, screening length: 8.12261 Bohr) occupying 0.466142 of unit cell:	Completed after 7 iterations at t[s]:   2444.58
	FillingsUpdate:  mu: -0.097800000  nElectrons: 152.450140  magneticMoment: [ Abs: 0.00000  Tot: -0.00000 ]
	SubspaceRotationAdjust: set factor to 0.473
ElecMinimize: Iter:   7  G: -1599.945524464367054  |grad|_K:  7.183e-08  alpha:  9.161e-02  linmin: -4.711e-05  t[s]:   2448.95
	Linear fluid (dielectric constant: 78.4, screening length: 8.12261 Bohr) occupying 0.466153 of unit cell:	Completed after 9 iterations at t[s]:   2453.07
	Linear fluid (dielectric constant: 78.4, screening length: 8.12261 Bohr) occupying 0.466160 of unit cell:	Completed after 7 iterations at t[s]:   2456.10
	FillingsUpdate:  mu: -0.097800000  nElectrons: 152.450269  magneticMoment: [ Abs: 0.00000  Tot: -0.00000 ]
	SubspaceRotationAdjust: set factor to 0.468
ElecMinimize: Iter:   8  G: -1599.945524555292423  |grad|_K:  7.001e-08  alpha:  1.507e-01  linmin: -7.567e-05  t[s]:   2460.49
	Linear fluid (dielectric constant: 78.4, screening length: 8.12261 Bohr) occupying 0.466152 of unit cell:	Completed after 10 iterations at t[s]:   2464.39
	Linear fluid (dielectric constant: 78.4, screening length: 8.12261 Bohr) occupying 0.466150 of unit cell:	Completed after 2 iterations at t[s]:   2467.24
	FillingsUpdate:  mu: -0.097800000  nElectrons: 152.450214  magneticMoment: [ Abs: 0.00000  Tot: -0.00000 ]
	SubspaceRotationAdjust: set factor to 0.403
ElecMinimize: Iter:   9  G: -1599.945524663804918  |grad|_K:  4.033e-08  alpha:  1.892e-01  linmin: -1.164e-04  t[s]:   2471.62
	Linear fluid (dielectric constant: 78.4, screening length: 8.12261 Bohr) occupying 0.466156 of unit cell:	Completed after 5 iterations at t[s]:   2475.31
	Linear fluid (dielectric constant: 78.4, screening length: 8.12261 Bohr) occupying 0.466154 of unit cell:	Completed after 2 iterations at t[s]:   2478.17
	FillingsUpdate:  mu: -0.097800000  nElectrons: 152.450242  magneticMoment: [ Abs: 0.00000  Tot: -0.00000 ]
	SubspaceRotationAdjust: set factor to 0.4
ElecMinimize: Iter:  10  G: -1599.945524687182569  |grad|_K:  2.851e-08  alpha:  1.226e-01  linmin:  1.657e-04  t[s]:   2482.74
	Linear fluid (dielectric constant: 78.4, screening length: 8.12261 Bohr) occupying 0.466155 of unit cell:	Completed after 2 iterations at t[s]:   2486.40
	Linear fluid (dielectric constant: 78.4, screening length: 8.12261 Bohr) occupying 0.466155 of unit cell:	Completed after 1 iterations at t[s]:   2489.26
	FillingsUpdate:  mu: -0.097800000  nElectrons: 152.450254  magneticMoment: [ Abs: 0.00000  Tot: -0.00000 ]
	SubspaceRotationAdjust: set factor to 0.432
ElecMinimize: Iter:  11  G: -1599.945524701328395  |grad|_K:  1.897e-08  alpha:  1.504e-01  linmin: -3.433e-04  t[s]:   2493.66
ElecMinimize: Converged (|Delta G|<1.000000e-07 for 2 iters).
Setting wave functions to eigenvectors of Hamiltonian
Converging empty states (this may take a while): |deigs|: 1.565e-08

Computing DFT-D3 correction:
# coordination-number Cu 8.330 9.145 5.651 9.086 9.084 5.654 9.143 8.329
# diagonal-C6 Cu 175.00 175.00 175.00 175.00 175.00 175.00 175.00 175.00
EvdW_6 =   -0.045743
EvdW_8 =   -0.069985

# Ionic positions in cartesian coordinates:
ion Cu   4.766598928519099   6.741004468323133  44.192459311306742 1
ion Cu  -0.000020306687133   6.741015891866336  39.350199688676277 1
ion Cu   2.383400904777467   3.370517288993022  46.366387710850177 1
ion Cu   2.383276633850232   3.370493967010822  41.658243259295254 1
ion Cu   0.000034877808004   0.000025805539820  34.607764801408351 1
ion Cu  -0.000045934262481  -0.000013521707075  29.900439390766163 1
ion Cu   2.383370847534121   3.370550270683986  36.916030750880097 1
ion Cu   2.383251048460690   3.370499829289957  32.072376086816924 1

# Forces in Cartesian coordinates:
force Cu   0.000001759488349   0.000000444721413  -0.000113568164810 1
force Cu   0.000000160600524  -0.000000305233825   0.000018718669853 1
force Cu   0.000004998488681   0.000000349043969  -0.000105622296983 1
force Cu   0.000002005281880   0.000001143840606  -0.000019828637287 1
force Cu   0.000000180613786  -0.000001896318698   0.000087316364881 1
force Cu  -0.000000692453175  -0.000001692306228   0.000102351486568 1
force Cu   0.000000150617078   0.000000855312962   0.000089350336184 1
force Cu  -0.000001185925383   0.000000440222558   0.000129870445151 1

# Energy components:
   A_diel =       -0.1131695681300228
   Eewald =     5587.1998153665936115
       EH =     7077.5997084927948890
     Eloc =   -14582.5582918679720024
      Enl =      292.9619932217942733
     EvdW =       -0.1157283066449359
      Exc =     -155.3337546776550653
 Exc_core =        0.3757369313532727
       KE =      165.1729843281704575
  MuShift =       -0.0443356338846668
-------------------------------------
     Etot =    -1614.8550417135809312
       TS =        0.0001177895946265
-------------------------------------
        F =    -1614.8551595031756278
      muN =      -14.9096348018472646
-------------------------------------
        G =    -1599.9455247013283952


Dumping 'jdft.fillings' ... done
Dumping 'jdft.wfns' ... done
Dumping 'jdft.fluidState' ... done
Dumping 'jdft.ionpos' ... done
Dumping 'jdft.lattice' ... done
Dumping 'jdft.eigenvals' ... done
Dumping 'jdft.eigStats' ... 
	eMin: -4.236986 at state 96 ( [ +0.000000 +0.000000 +0.000000 ] spin -1 )
	HOMO: -0.099996 at state 13 ( [ +0.083333 -0.375000 +0.000000 ] spin 1 )
	mu  : -0.097800
	LUMO: -0.095973 at state 142 ( [ +0.416667 -0.250000 +0.000000 ] spin -1 )
	eMax: +0.279064 at state 48 ( [ +0.500000 +0.000000 +0.000000 ] spin 1 )
	HOMO-LUMO gap: +0.004023
	Optical gap  : +0.004744 at state 189 ( [ -0.083333 -0.375000 +0.000000 ] spin -1 )
Dumping 'jdft.Ecomponents' ... done
IonicMinimize: Iter:   4  G: -1599.945524701328395  |grad|_K:  5.137e-05  alpha:  1.000e+00  linmin: -2.785e-01  t[s]:   2505.44
IonicMinimize: Converged (|grad|_K<1.000000e-04).

#--- Lowdin population analysis ---
# oxidation-state Cu +0.001 +0.072 -0.012 +0.069 +0.069 -0.012 +0.072 +0.001
# magnetic-moments Cu +0.000 -0.000 -0.000 +0.000 +0.000 +0.000 +0.000 -0.000


Dumping 'jdft.n_up' ... done
Dumping 'jdft.n_dn' ... done
Dumping 'jdft.tau_up' ... done
Dumping 'jdft.tau_dn' ... done
Dumping 'jdft.eigenvals' ... done
Dumping 'jdft.eigStats' ... 
	eMin: -4.236986 at state 96 ( [ +0.000000 +0.000000 +0.000000 ] spin -1 )
	HOMO: -0.099996 at state 13 ( [ +0.083333 -0.375000 +0.000000 ] spin 1 )
	mu  : -0.097800
	LUMO: -0.095973 at state 142 ( [ +0.416667 -0.250000 +0.000000 ] spin -1 )
	eMax: +0.279064 at state 48 ( [ +0.500000 +0.000000 +0.000000 ] spin 1 )
	HOMO-LUMO gap: +0.004023
	Optical gap  : +0.004744 at state 189 ( [ -0.083333 -0.375000 +0.000000 ] spin -1 )
Dumping 'jdft.kPts' ... done
Dumping 'jdft.dosUp' ... done.
Dumping 'jdft.dosDn' ... done.
End date and time: Mon Dec  6 16:29:33 2021  (Duration: 0-0:41:53.99)
Done!
ipcrm: permission denied for id (90407421)
ipcrm: permission denied for id (94503590)
