
*************** JDFTx 1.6.0  ***************

Start date and time: Mon Dec  6 17:15:20 2021
Executable /projects/musgravc/apps/jdftx-1.6.1/build/jdftx with command-line: -i in
Running on hosts (process indices):  shas0801.rc.int.colorado.edu (0-23)
Divided in process groups (process indices):  0 (0)  1 (1)  2 (2)  3 (3)  4 (4)  5 (5)  6 (6)  7 (7)  8 (8)  9 (9)  10 (10)  11 (11)  12 (12)  13 (13)  14 (14)  15 (15)  16 (16)  17 (17)  18 (18)  19 (19)  20 (20)  21 (21)  22 (22)  23 (23)
Resource initialization completed at t[s]:      0.00
Run totals: 24 processes, 24 threads, 0 GPUs


Input parsed successfully to the following command list (including defaults):

basis kpoint-dependent
converge-empty-states yes
coords-type Cartesian
core-overlap-check none
coulomb-interaction Periodic
davidson-band-ratio 1.1
density-of-states Etol 1.000000e-06 Esigma 1.000000e-03 \
		Complete \
	Total \
	OrthoOrbital Ag 1   s \
	OrthoOrbital Ag 1   p \
	OrthoOrbital Ag 1   px \
	OrthoOrbital Ag 1   py \
	OrthoOrbital Ag 1   pz \
	OrthoOrbital Ag 1   d \
	OrthoOrbital Ag 1   dxy \
	OrthoOrbital Ag 1   dyz \
	OrthoOrbital Ag 1   dz2 \
	OrthoOrbital Ag 1   dxz \
	OrthoOrbital Ag 1   dx2-y2 \
	OrthoOrbital Ag 2   s \
	OrthoOrbital Ag 2   p \
	OrthoOrbital Ag 2   px \
	OrthoOrbital Ag 2   py \
	OrthoOrbital Ag 2   pz \
	OrthoOrbital Ag 2   d \
	OrthoOrbital Ag 2   dxy \
	OrthoOrbital Ag 2   dyz \
	OrthoOrbital Ag 2   dz2 \
	OrthoOrbital Ag 2   dxz \
	OrthoOrbital Ag 2   dx2-y2 \
	OrthoOrbital Ag 3   s \
	OrthoOrbital Ag 3   p \
	OrthoOrbital Ag 3   px \
	OrthoOrbital Ag 3   py \
	OrthoOrbital Ag 3   pz \
	OrthoOrbital Ag 3   d \
	OrthoOrbital Ag 3   dxy \
	OrthoOrbital Ag 3   dyz \
	OrthoOrbital Ag 3   dz2 \
	OrthoOrbital Ag 3   dxz \
	OrthoOrbital Ag 3   dx2-y2 \
	OrthoOrbital Ag 4   s \
	OrthoOrbital Ag 4   p \
	OrthoOrbital Ag 4   px \
	OrthoOrbital Ag 4   py \
	OrthoOrbital Ag 4   pz \
	OrthoOrbital Ag 4   d \
	OrthoOrbital Ag 4   dxy \
	OrthoOrbital Ag 4   dyz \
	OrthoOrbital Ag 4   dz2 \
	OrthoOrbital Ag 4   dxz \
	OrthoOrbital Ag 4   dx2-y2 \
	OrthoOrbital Ag 5   s \
	OrthoOrbital Ag 5   p \
	OrthoOrbital Ag 5   px \
	OrthoOrbital Ag 5   py \
	OrthoOrbital Ag 5   pz \
	OrthoOrbital Ag 5   d \
	OrthoOrbital Ag 5   dxy \
	OrthoOrbital Ag 5   dyz \
	OrthoOrbital Ag 5   dz2 \
	OrthoOrbital Ag 5   dxz \
	OrthoOrbital Ag 5   dx2-y2 \
	OrthoOrbital Ag 6   s \
	OrthoOrbital Ag 6   p \
	OrthoOrbital Ag 6   px \
	OrthoOrbital Ag 6   py \
	OrthoOrbital Ag 6   pz \
	OrthoOrbital Ag 6   d \
	OrthoOrbital Ag 6   dxy \
	OrthoOrbital Ag 6   dyz \
	OrthoOrbital Ag 6   dz2 \
	OrthoOrbital Ag 6   dxz \
	OrthoOrbital Ag 6   dx2-y2 \
	OrthoOrbital Ag 7   s \
	OrthoOrbital Ag 7   p \
	OrthoOrbital Ag 7   px \
	OrthoOrbital Ag 7   py \
	OrthoOrbital Ag 7   pz \
	OrthoOrbital Ag 7   d \
	OrthoOrbital Ag 7   dxy \
	OrthoOrbital Ag 7   dyz \
	OrthoOrbital Ag 7   dz2 \
	OrthoOrbital Ag 7   dxz \
	OrthoOrbital Ag 7   dx2-y2 \
	OrthoOrbital Ag 8   s \
	OrthoOrbital Ag 8   p \
	OrthoOrbital Ag 8   px \
	OrthoOrbital Ag 8   py \
	OrthoOrbital Ag 8   pz \
	OrthoOrbital Ag 8   d \
	OrthoOrbital Ag 8   dxy \
	OrthoOrbital Ag 8   dyz \
	OrthoOrbital Ag 8   dz2 \
	OrthoOrbital Ag 8   dxz \
	OrthoOrbital Ag 8   dx2-y2 \
	OrthoOrbital Ag 9   s \
	OrthoOrbital Ag 9   p \
	OrthoOrbital Ag 9   px \
	OrthoOrbital Ag 9   py \
	OrthoOrbital Ag 9   pz \
	OrthoOrbital Ag 9   d \
	OrthoOrbital Ag 9   dxy \
	OrthoOrbital Ag 9   dyz \
	OrthoOrbital Ag 9   dz2 \
	OrthoOrbital Ag 9   dxz \
	OrthoOrbital Ag 9   dx2-y2 \
	OrthoOrbital Ag 10   s \
	OrthoOrbital Ag 10   p \
	OrthoOrbital Ag 10   px \
	OrthoOrbital Ag 10   py \
	OrthoOrbital Ag 10   pz \
	OrthoOrbital Ag 10   d \
	OrthoOrbital Ag 10   dxy \
	OrthoOrbital Ag 10   dyz \
	OrthoOrbital Ag 10   dz2 \
	OrthoOrbital Ag 10   dxz \
	OrthoOrbital Ag 10   dx2-y2
dump End ElecDensity KEdensity BandEigs EigStats RhoAtom DOS Kpoints
dump Ionic State IonicPositions Lattice EigStats Ecomponents
dump 
dump 
dump 
dump 
dump 
dump 
dump 
dump 
dump-name jdft.$VAR
elec-cutoff 20
elec-eigen-algo Davidson
elec-ex-corr gga-PBE
elec-initial-magnetization 0.000000 no
elec-n-bands 114
elec-smearing Fermi 0.001
electronic-minimize  \
	dirUpdateScheme      FletcherReeves \
	linminMethod         DirUpdateRecommended \
	nIterations          100 \
	history              15 \
	knormThreshold       0 \
	energyDiffThreshold  1e-07 \
	nEnergyDiff          2 \
	alphaTstart          1 \
	alphaTmin            1e-10 \
	updateTestStepSize   yes \
	alphaTreduceFactor   0.1 \
	alphaTincreaseFactor 3 \
	nAlphaAdjustMax      3 \
	wolfeEnergy          0.0001 \
	wolfeGradient        0.9 \
	fdTest               no
exchange-regularization WignerSeitzTruncated
fluid LinearPCM 298.000000 1.013250
fluid-anion F- 0.5 MeanFieldLJ \
	epsBulk 1 \
	pMol 0 \
	epsInf 1 \
	Pvap 0 \
	sigmaBulk 0 \
	Rvdw 2.24877 \
	Res 0 \
	tauNuc 343133
fluid-cation Na+ 0.5 MeanFieldLJ \
	epsBulk 1 \
	pMol 0 \
	epsInf 1 \
	Pvap 0 \
	sigmaBulk 0 \
	Rvdw 2.19208 \
	Res 0 \
	tauNuc 343133
fluid-ex-corr lda-TF lda-PZ
fluid-gummel-loop 10 1.000000e-05
fluid-minimize  \
	dirUpdateScheme      PolakRibiere \
	linminMethod         DirUpdateRecommended \
	nIterations          400 \
	history              15 \
	knormThreshold       1e-11 \
	energyDiffThreshold  0 \
	nEnergyDiff          2 \
	alphaTstart          1 \
	alphaTmin            1e-10 \
	updateTestStepSize   yes \
	alphaTreduceFactor   0.1 \
	alphaTincreaseFactor 3 \
	nAlphaAdjustMax      6 \
	wolfeEnergy          0.0001 \
	wolfeGradient        0.9 \
	fdTest               no
fluid-solvent H2O 55.338 ScalarEOS \
	epsBulk 78.4 \
	pMol 0.92466 \
	epsInf 1.77 \
	Pvap 1.06736e-10 \
	sigmaBulk 4.62e-05 \
	Rvdw 2.61727 \
	Res 1.42 \
	tauNuc 343133 \
	poleEl 15 7 1
forces-output-coords Positions
ion Ag   3.832834000000000   1.714096000000000  12.855717000000002 1
ion Ag  -0.000000000000000   3.428191000000000   9.427508000000000 1
ion Ag   3.832834000000001   5.142287000000000   5.999352000000000 1
ion Ag  -0.000001000000000   6.856383000000000   2.571143000000000 1
ion Ag   0.000000000000000   0.000000000000000  16.283925000000000 1
ion Ag   3.832833000000001   6.856383000000000  11.141638000000000 1
ion Ag   3.832834000000000   0.000000000000000   7.713430000000000 1
ion Ag   0.000000000000000   1.714096000000000   4.285222000000000 1
ion Ag   3.832834000000001   3.428191000000000   0.857065000000000 1
ion Ag  -0.000001000000000   5.142287000000000  14.569794999999997 1
ion-species /projects/musgravc/apps/jdftx-1.6.0/build/pseudopotentials/GBRV_v1.5/$ID_pbe_v1.uspp
ion-species /projects/musgravc/apps/jdftx-1.6.0/build/pseudopotentials/GBRV_v1.5/$ID_pbe_v1.2.uspp
ion-species /projects/musgravc/apps/jdftx-1.6.0/build/pseudopotentials/GBRV_v1.5/$ID_pbe_v1.4.uspp
ion-species /projects/musgravc/apps/jdftx-1.6.0/build/pseudopotentials/GBRV_v1.5/$ID_pbe_v1.5.uspp
ion-width Ecut
ionic-minimize  \
	dirUpdateScheme      L-BFGS \
	linminMethod         DirUpdateRecommended \
	nIterations          100 \
	history              15 \
	knormThreshold       0.0001 \
	energyDiffThreshold  1e-06 \
	nEnergyDiff          2 \
	alphaTstart          1 \
	alphaTmin            1e-10 \
	updateTestStepSize   yes \
	alphaTreduceFactor   0.1 \
	alphaTincreaseFactor 3 \
	nAlphaAdjustMax      3 \
	wolfeEnergy          0.0001 \
	wolfeGradient        0.9 \
	fdTest               no
kpoint   0.000000000000   0.000000000000   0.000000000000  1.00000000000000
kpoint-folding 9 7 1 
latt-move-scale 0 0 0
latt-scale 1 1 1 
lattice  \
	   7.665668000000000   -3.832835000000000    0.000000000000000  \
	   0.000000000000000    8.570479000000001    0.000000000000000  \
	   0.000000000000000    0.000000000000000   51.422865999999999 
lattice-minimize  \
	dirUpdateScheme      L-BFGS \
	linminMethod         DirUpdateRecommended \
	nIterations          0 \
	history              15 \
	knormThreshold       0 \
	energyDiffThreshold  1e-06 \
	nEnergyDiff          2 \
	alphaTstart          1 \
	alphaTmin            1e-10 \
	updateTestStepSize   yes \
	alphaTreduceFactor   0.1 \
	alphaTincreaseFactor 3 \
	nAlphaAdjustMax      3 \
	wolfeEnergy          0.0001 \
	wolfeGradient        0.9 \
	fdTest               no
lcao-params 30 1e-06 0.001
pcm-variant CANDLE
spintype z-spin
subspace-rotation-factor 1 yes
symmetries none
symmetry-threshold 0.0001
van-der-waals D3


Applied RMS atom displacement 0 bohrs to make symmetries exact.

---------- Initializing the Grid ----------
R = 
[      7.66567     -3.83284            0  ]
[            0      8.57048            0  ]
[            0            0      51.4229  ]
unit cell volume = 3378.4
G =
[   0.819653    0.36656         -0  ]
[          0    0.73312          0  ]
[          0         -0   0.122187  ]
Minimum fftbox size, Smin = [  32  40  208  ]
Chosen fftbox size, S = [  32  40  210  ]

---------- Exchange Correlation functional ----------
Initalized PBE GGA exchange.
Initalized PBE GGA correlation.

---------- Setting up pseudopotentials ----------
Width of ionic core gaussian charges (only for fluid interactions / plotting) set to 0.397384

Reading pseudopotential file '/projects/musgravc/apps/jdftx-1.6.0/build/pseudopotentials/GBRV_v1.5/ag_pbe_v1.4.uspp':
  Title: Ag.  Created by USPP 7.3.6 on 1-4-15
  Reference state energy: -147.606242.  19 valence electrons in orbitals:
    |400>  occupation: 2  eigenvalue: -3.637437
    |410>  occupation: 6  eigenvalue: -2.297267
    |420>  occupation: 10  eigenvalue: -0.417763
    |500>  occupation: 0.5  eigenvalue: -0.283525
    |510>  occupation: 0  eigenvalue: -0.122889
  lMax: 2  lLocal: 0  QijEcut: 5.5
  6 projectors sampled on a log grid with 717 points:
    l: 0  eig: -0.283528  rCut: 1.5
    l: 0  eig: -3.637440  rCut: 1.5
    l: 1  eig: -0.122892  rCut: 1.5
    l: 1  eig: -2.297267  rCut: 1.5
    l: 2  eig: -0.417762  rCut: 1.7
    l: 2  eig: -1.000000  rCut: 1.7
  Partial core density with radius 1.2
  Transforming core density to a uniform radial grid of dG=0.02 with 1382 points.
  Transforming local potential to a uniform radial grid of dG=0.02 with 1382 points.
  Transforming nonlocal projectors to a uniform radial grid of dG=0.02 with 432 points.
  Transforming density augmentations to a uniform radial grid of dG=0.02 with 1382 points.
  Transforming atomic orbitals to a uniform radial grid of dG=0.02 with 432 points.
  Core radius for overlap checks: 1.70 bohrs.

Initialized 1 species with 10 total atoms.

Folded 1 k-points by 9x7x1 to 63 k-points.

---------- Setting up k-points, bands, fillings ----------
No reducable k-points. 
Computing the number of bands and number of electrons
Calculating initial fillings.
nElectrons: 190.000000   nBands: 114   nStates: 126

----- Setting up reduced wavefunction bases (one per k-point) -----
average nbasis = 14428.778 , ideal nbasis = 14432.793

----- Initializing Supercell corresponding to k-point mesh -----
Lattice vector linear combinations in supercell:
[   9   0   0  ]
[   0   7   0  ]
[   0   0   1  ]
Supercell lattice vectors:
[  68.991  -26.8298  0  ]
[  0  59.9934  0  ]
[  0  0  51.4229  ]

Initializing DFT-D3 calculator:
	Parameters set for gga-PBE functional
	s6:  1.000  s_r6:  1.217
	s8:  0.722  s_r8:  1.000
	Per-atom parameters loaded for:
	Ag:  sqrtQ[a0]:  5.443  Rcov[a0]:  2.173  CN: [ 0.00 0.97 ]

Initializing DFT-D2 calculator for fluid / solvation:
	Ag:  C6:  427.91 Eh-a0^6  R0: 3.097 a0

---------- Setting up ewald sum ----------
Optimum gaussian width for ewald sums = 4.078313 bohr.
Real space sum over 975 unit cells with max indices [  7  6  2  ]
Reciprocal space sum over 4257 terms with max indices [  4  5  21  ]

Computing DFT-D3 correction:
# coordination-number Ag 8.415 9.200 9.175 6.890 4.631 9.175 9.200 8.415 4.631 6.890
# diagonal-C6 Ag 268.61 268.61 268.61 268.61 268.61 268.61 268.61 268.61 268.61 268.61
EvdW_6 =   -0.055088
EvdW_8 =   -0.079170

---------- Allocating electronic variables ----------
Initializing wave functions:  linear combination of atomic orbitals
Ag pseudo-atom occupations:   s ( 2 1 )  p ( 6 0 )  d ( 10 )
	FillingsUpdate:  mu: +0.018020720  nElectrons: 190.000000  magneticMoment: [ Abs: 0.00084  Tot: +0.00001 ]
LCAOMinimize: Iter:   0  F: -1475.8861126146255174  |grad|_K:  6.941e-04  alpha:  1.000e+00
	FillingsUpdate:  mu: +0.201407098  nElectrons: 190.000000  magneticMoment: [ Abs: 0.00064  Tot: -0.00003 ]
LCAOMinimize: Iter:   1  F: -1475.9285501353033396  |grad|_K:  7.339e-04  alpha:  2.532e-01  linmin:  7.423e-02  cgtest: -6.079e-01  t[s]:     49.14
	FillingsUpdate:  mu: +0.230481308  nElectrons: 190.000000  magneticMoment: [ Abs: 0.00053  Tot: -0.00002 ]
LCAOMinimize: Iter:   2  F: -1475.9421711404920643  |grad|_K:  7.344e-04  alpha:  1.045e-01  linmin:  1.799e-03  cgtest:  1.006e+00  t[s]:     69.30
LCAOMinimize: Encountered beta<0, resetting CG.
	FillingsUpdate:  mu: +0.111111617  nElectrons: 190.000000  magneticMoment: [ Abs: 0.00056  Tot: -0.00004 ]
LCAOMinimize: Iter:   3  F: -1476.0117830708993552  |grad|_K:  7.048e-05  alpha:  1.210e-01  linmin:  1.143e-01  cgtest: -5.764e-01  t[s]:     89.58
	FillingsUpdate:  mu: +0.105324562  nElectrons: 190.000000  magneticMoment: [ Abs: 0.00055  Tot: -0.00003 ]
LCAOMinimize: Iter:   4  F: -1476.0128452841702256  |grad|_K:  5.714e-05  alpha:  3.302e-01  linmin: -4.543e-04  cgtest:  6.755e-01  t[s]:    110.20
	FillingsUpdate:  mu: +0.113649607  nElectrons: 190.000000  magneticMoment: [ Abs: 0.00055  Tot: -0.00003 ]
LCAOMinimize: Iter:   5  F: -1476.0132672466997974  |grad|_K:  1.282e-05  alpha:  1.212e-01  linmin:  8.790e-03  cgtest: -6.264e-02  t[s]:    130.63
LCAOMinimize: 	Predicted alpha/alphaT>3.000000, increasing alphaT to 3.635052e-01.
	FillingsUpdate:  mu: +0.113906083  nElectrons: 190.000000  magneticMoment: [ Abs: 0.00054  Tot: -0.00003 ]
LCAOMinimize: Iter:   6  F: -1476.0133433484588750  |grad|_K:  6.783e-06  alpha:  4.328e-01  linmin: -1.171e-03  cgtest:  3.398e-02  t[s]:    156.38
	FillingsUpdate:  mu: +0.113765485  nElectrons: 190.000000  magneticMoment: [ Abs: 0.00054  Tot: -0.00003 ]
LCAOMinimize: Iter:   7  F: -1476.0133468343626646  |grad|_K:  3.729e-06  alpha:  6.972e-02  linmin: -3.315e-05  cgtest: -1.018e-02  t[s]:    176.65
LCAOMinimize: 	Predicted alpha/alphaT>3.000000, increasing alphaT to 2.091529e-01.
	FillingsUpdate:  mu: +0.113321257  nElectrons: 190.000000  magneticMoment: [ Abs: 0.00054  Tot: -0.00003 ]
LCAOMinimize: Iter:   8  F: -1476.0133507945643032  |grad|_K:  1.549e-06  alpha:  2.634e-01  linmin: -6.898e-05  cgtest:  1.490e-02  t[s]:    202.39
	FillingsUpdate:  mu: +0.113517596  nElectrons: 190.000000  magneticMoment: [ Abs: 0.00054  Tot: -0.00003 ]
LCAOMinimize: Iter:   9  F: -1476.0133511460360296  |grad|_K:  4.937e-07  alpha:  1.354e-01  linmin:  1.258e-04  cgtest: -2.911e-03  t[s]:    222.72
LCAOMinimize: 	Predicted alpha/alphaT>3.000000, increasing alphaT to 4.061985e-01.
	FillingsUpdate:  mu: +0.113540145  nElectrons: 190.000000  magneticMoment: [ Abs: 0.00054  Tot: -0.00003 ]
LCAOMinimize: Iter:  10  F: -1476.0133513226251125  |grad|_K:  3.326e-07  alpha:  6.707e-01  linmin:  3.327e-05  cgtest: -3.828e-06  t[s]:    248.44
LCAOMinimize: Converged (|Delta F|<1.000000e-06 for 2 iters).
----- createFluidSolver() ----- (Fluid-side solver setup)
   Initializing fluid molecule 'H2O'
     Initializing site 'O'
       Electron density: proportional to exp(-r/0.36935)*erfc((r-0.51523)/0.36823) with norm 6.826
       Charge density: gaussian nuclear width 0.478731 with net site charge 0.826
       Polarizability: cuspless exponential with width 0.32 and norm 3.73
       Hard sphere radius: 2.57003 bohrs
       Positions in reference frame:
         [ +0.000000 +0.000000 +0.000000 ]
     Initializing site 'H'
       Electron density: proportional to exp(-r/0.34641)*erfc((r-0)/0.390882) with norm 0.587
       Charge density: gaussian nuclear width 0.377945 with net site charge -0.413
       Polarizability: cuspless exponential with width 0.39 and norm 3.3
       Positions in reference frame:
         [ +0.000000 -1.441945 +1.122523 ]
         [ +0.000000 +1.441945 +1.122523 ]
     Net charge: 0   dipole magnitude: 0.927204
     Initializing spherical shell mfKernel with radius 2.61727 Bohr
     deltaS corrections:
       site 'O': -7.54299
       site 'H': -6.83917
   Initializing fluid molecule 'Na+'
     Initializing site 'Na'
       Electron density: proportional to exp(-r/0.19682)*erfc((r-0.71491)/0.41314) with norm 8.1383
       Charge density: gaussian nuclear width 0.365347 with net site charge -1
       Hard sphere radius: 1.86327 bohrs
       Positions in reference frame:
         [ +0.000000 +0.000000 +0.000000 ]
     Net charge: -1   dipole magnitude: 0
     Initializing gaussian mfKernel with width: 1.55004 Bohr
     deltaS corrections:
       site 'Na': -22.3555
   Initializing fluid molecule 'F-'
     Initializing site 'F'
       Electron density: proportional to exp(-r/0.38886)*erfc((r-0)/0.438782) with norm 8
       Charge density: gaussian nuclear width 0.374796 with net site charge 1
       Hard sphere radius: 2.39995 bohrs
       Positions in reference frame:
         [ +0.000000 +0.000000 +0.000000 ]
     Net charge: 1   dipole magnitude: 0
     Initializing gaussian mfKernel with width: 1.59012 Bohr
     deltaS corrections:
       site 'F': -9.04335

Correction to mu due to finite nuclear width = -0.055801
   Cavity determined by nc: 0.00142 and sigma: 0.707107
   Nonlocal vdW cavity from gaussian model electron density with norm = 8 and sigma = 0.993594 bohr
   Charge asymmetry in cavity with sensitivity pCavity = 36.5 e-bohr/Eh
   Electrostatic cavity expanded by eta = 1.46 bohrs
   Weighted density cavitation model constrained by Nbulk: 0.0049383 bohr^-3, Pvap: 3.14029 kPa, Rvdw: 2.61727 bohr and sigmaBulk: 4.62e-05 Eh/bohr^2 at T: 298 K.
   Weighted density dispersion model using vdW pair potentials with single solvent site with sqrtC6eff: 0.77 SI.


---- Citations for features of the code used in this run ----

   Software package:
      R. Sundararaman, K. Letchworth-Weaver, K.A. Schwarz, D. Gunceler, Y. Ozhabes and T.A. Arias, 'JDFTx: software for joint density-functional theory', SoftwareX 6, 278 (2017)

   gga-PBE exchange-correlation functional:
      J.P. Perdew, K. Burke and M. Ernzerhof, Phys. Rev. Lett. 77, 3865 (1996)

   Pseudopotentials:
      KF Garrity, JW Bennett, KM Rabe and D Vanderbilt, Comput. Mater. Sci. 81, 446 (2014)

   DFT-D3 dispersion correction:
      S. Grimme, J. Antony, S. Ehrlich and H. Krieg, J. Chem. Phys. 132, 154104 (2010)

   DFT-D2 dispersion correction:
      S. Grimme, J. Comput. Chem. 27, 1787 (2006)

   Charge-asymmetric nonlocally-determined local-electric (CANDLE) solvation model:
      R. Sundararaman and W.A. Goddard III, J. Chem. Phys. 142, 064107 (2015)

   Total energy minimization with Auxiliary Hamiltonian:
      C. Freysoldt, S. Boeck, and J. Neugebauer, Phys. Rev. B 79, 241103(R) (2009)

   Linear-tetrahedron sampling for density of states:
      G. Lehmann and M. Taut, Phys. status solidi (b) 54, 469 (1972)

This list may not be complete. Please suggest additional citations or
report any other bugs at https://github.com/shankar1729/jdftx/issues

Initialization completed successfully at t[s]:    254.08


Computing DFT-D3 correction:
# coordination-number Ag 8.415 9.200 9.175 6.890 4.631 9.175 9.200 8.415 4.631 6.890
# diagonal-C6 Ag 268.61 268.61 268.61 268.61 268.61 268.61 268.61 268.61 268.61 268.61
EvdW_6 =   -0.055088
EvdW_8 =   -0.079170
Fluid solver invoked on fresh (random / LCAO) wavefunctions
Running a vacuum solve first:

-------- Initial electronic minimization -----------
	FillingsUpdate:  mu: +0.113540145  nElectrons: 190.000000  magneticMoment: [ Abs: 0.00054  Tot: -0.00003 ]
ElecMinimize: Iter:   0  F: -1476.013351322621475  |grad|_K:  2.118e-05  alpha:  1.000e+00
	FillingsUpdate:  mu: +0.120429793  nElectrons: 190.000000  magneticMoment: [ Abs: 0.00041  Tot: -0.00003 ]
	SubspaceRotationAdjust: set factor to 1
ElecMinimize: Iter:   1  F: -1476.054761740625509  |grad|_K:  1.486e-05  alpha:  4.450e-01  linmin:  3.941e-05  t[s]:    298.93
	FillingsUpdate:  mu: +0.110508847  nElectrons: 190.000000  magneticMoment: [ Abs: 0.00032  Tot: -0.00002 ]
	SubspaceRotationAdjust: set factor to 0.894
ElecMinimize: Iter:   2  F: -1476.067486759602843  |grad|_K:  7.327e-06  alpha:  2.765e-01  linmin: -2.843e-05  t[s]:    326.47
	FillingsUpdate:  mu: +0.122992951  nElectrons: 190.000000  magneticMoment: [ Abs: 0.00024  Tot: -0.00002 ]
	SubspaceRotationAdjust: set factor to 0.659
ElecMinimize: Iter:   3  F: -1476.070848702944659  |grad|_K:  6.627e-06  alpha:  3.006e-01  linmin: -4.028e-05  t[s]:    353.92
	FillingsUpdate:  mu: +0.119344003  nElectrons: 190.000000  magneticMoment: [ Abs: 0.00020  Tot: -0.00002 ]
	SubspaceRotationAdjust: set factor to 0.502
ElecMinimize: Iter:   4  F: -1476.072066210846288  |grad|_K:  4.769e-06  alpha:  1.320e-01  linmin: -7.723e-05  t[s]:    381.34
	FillingsUpdate:  mu: +0.113266225  nElectrons: 190.000000  magneticMoment: [ Abs: 0.00017  Tot: -0.00002 ]
	SubspaceRotationAdjust: set factor to 0.355
ElecMinimize: Iter:   5  F: -1476.072885680800709  |grad|_K:  2.916e-06  alpha:  1.728e-01  linmin:  1.159e-04  t[s]:    409.33
	FillingsUpdate:  mu: +0.115485066  nElectrons: 190.000000  magneticMoment: [ Abs: 0.00012  Tot: -0.00002 ]
	SubspaceRotationAdjust: set factor to 0.492
ElecMinimize: Iter:   6  F: -1476.073510511612540  |grad|_K:  2.188e-06  alpha:  3.558e-01  linmin:  1.786e-05  t[s]:    436.68
	FillingsUpdate:  mu: +0.118138946  nElectrons: 190.000000  magneticMoment: [ Abs: 0.00010  Tot: -0.00002 ]
	SubspaceRotationAdjust: set factor to 0.353
ElecMinimize: Iter:   7  F: -1476.073753854850338  |grad|_K:  1.626e-06  alpha:  2.448e-01  linmin: -3.553e-06  t[s]:    464.48
	FillingsUpdate:  mu: +0.118737703  nElectrons: 190.000000  magneticMoment: [ Abs: 0.00008  Tot: -0.00001 ]
	SubspaceRotationAdjust: set factor to 0.278
ElecMinimize: Iter:   8  F: -1476.073891638202667  |grad|_K:  9.854e-07  alpha:  2.503e-01  linmin:  9.322e-06  t[s]:    491.84
	FillingsUpdate:  mu: +0.117493573  nElectrons: 190.000000  magneticMoment: [ Abs: 0.00006  Tot: -0.00001 ]
	SubspaceRotationAdjust: set factor to 0.269
ElecMinimize: Iter:   9  F: -1476.073968921667984  |grad|_K:  6.781e-07  alpha:  3.834e-01  linmin:  4.295e-05  t[s]:    519.25
	FillingsUpdate:  mu: +0.118030349  nElectrons: 190.000000  magneticMoment: [ Abs: 0.00005  Tot: -0.00001 ]
	SubspaceRotationAdjust: set factor to 0.303
ElecMinimize: Iter:  10  F: -1476.074010760420379  |grad|_K:  4.666e-07  alpha:  4.392e-01  linmin:  1.538e-05  t[s]:    546.76
	FillingsUpdate:  mu: +0.118608733  nElectrons: 190.000000  magneticMoment: [ Abs: 0.00004  Tot: -0.00001 ]
	SubspaceRotationAdjust: set factor to 0.275
ElecMinimize: Iter:  11  F: -1476.074027804307434  |grad|_K:  3.539e-07  alpha:  3.768e-01  linmin:  2.821e-06  t[s]:    574.13
	FillingsUpdate:  mu: +0.118558142  nElectrons: 190.000000  magneticMoment: [ Abs: 0.00003  Tot: -0.00001 ]
	SubspaceRotationAdjust: set factor to 0.272
ElecMinimize: Iter:  12  F: -1476.074037097355131  |grad|_K:  2.479e-07  alpha:  3.566e-01  linmin:  6.636e-06  t[s]:    601.44
	FillingsUpdate:  mu: +0.118377447  nElectrons: 190.000000  magneticMoment: [ Abs: 0.00003  Tot: -0.00001 ]
	SubspaceRotationAdjust: set factor to 0.295
ElecMinimize: Iter:  13  F: -1476.074042757932375  |grad|_K:  1.788e-07  alpha:  4.436e-01  linmin:  1.065e-05  t[s]:    629.14
	FillingsUpdate:  mu: +0.118549883  nElectrons: 190.000000  magneticMoment: [ Abs: 0.00002  Tot: -0.00000 ]
	SubspaceRotationAdjust: set factor to 0.335
ElecMinimize: Iter:  14  F: -1476.074045592197081  |grad|_K:  1.421e-07  alpha:  4.275e-01  linmin:  3.042e-06  t[s]:    656.62
	FillingsUpdate:  mu: +0.118661469  nElectrons: 190.000000  magneticMoment: [ Abs: 0.00001  Tot: -0.00000 ]
	SubspaceRotationAdjust: set factor to 0.342
ElecMinimize: Iter:  15  F: -1476.074047242064125  |grad|_K:  1.087e-07  alpha:  3.928e-01  linmin:  2.927e-06  t[s]:    684.17
	FillingsUpdate:  mu: +0.118592726  nElectrons: 190.000000  magneticMoment: [ Abs: 0.00001  Tot: -0.00000 ]
	SubspaceRotationAdjust: set factor to 0.317
ElecMinimize: Iter:  16  F: -1476.074048137845011  |grad|_K:  7.937e-08  alpha:  3.647e-01  linmin:  2.576e-06  t[s]:    711.81
	FillingsUpdate:  mu: +0.118568667  nElectrons: 190.000000  magneticMoment: [ Abs: 0.00001  Tot: -0.00000 ]
	SubspaceRotationAdjust: set factor to 0.29
ElecMinimize: Iter:  17  F: -1476.074048573990240  |grad|_K:  5.939e-08  alpha:  3.334e-01  linmin:  1.398e-06  t[s]:    739.47
	FillingsUpdate:  mu: +0.118617328  nElectrons: 190.000000  magneticMoment: [ Abs: 0.00001  Tot: -0.00000 ]
	SubspaceRotationAdjust: set factor to 0.303
ElecMinimize: Iter:  18  F: -1476.074048846610367  |grad|_K:  3.859e-08  alpha:  3.721e-01  linmin:  1.278e-06  t[s]:    766.94
	FillingsUpdate:  mu: +0.118634970  nElectrons: 190.000000  magneticMoment: [ Abs: 0.00000  Tot: -0.00000 ]
	SubspaceRotationAdjust: set factor to 0.329
ElecMinimize: Iter:  19  F: -1476.074048980455018  |grad|_K:  2.899e-08  alpha:  4.328e-01  linmin:  5.069e-07  t[s]:    794.45
	FillingsUpdate:  mu: +0.118615624  nElectrons: 190.000000  magneticMoment: [ Abs: 0.00000  Tot: -0.00000 ]
	SubspaceRotationAdjust: set factor to 0.32
ElecMinimize: Iter:  20  F: -1476.074049042664456  |grad|_K:  2.207e-08  alpha:  3.561e-01  linmin:  5.990e-07  t[s]:    821.96
	FillingsUpdate:  mu: +0.118609332  nElectrons: 190.000000  magneticMoment: [ Abs: 0.00000  Tot: -0.00000 ]
	SubspaceRotationAdjust: set factor to 0.304
ElecMinimize: Iter:  21  F: -1476.074049078866665  |grad|_K:  1.629e-08  alpha:  3.575e-01  linmin:  7.968e-07  t[s]:    849.40
ElecMinimize: Converged (|Delta F|<1.000000e-07 for 2 iters).
Setting wave functions to eigenvectors of Hamiltonian
Converging empty states (this may take a while): |deigs|: 1.102e-02
Vacuum energy after initial minimize, F = -1476.074049078866665


-------- Electronic minimization -----------
	Linear fluid (dielectric constant: 78.4, screening length: 8.12261 Bohr) occupying 0.495339 of unit cell:	Completed after 19 iterations at t[s]:    937.29
	FillingsUpdate:  mu: -0.145814488  nElectrons: 190.000000  magneticMoment: [ Abs: 0.00000  Tot: -0.00000 ]
ElecMinimize: Iter:   0  F: -1476.074558505983305  |grad|_K:  7.048e-07  alpha:  1.000e+00
	Linear fluid (dielectric constant: 78.4, screening length: 8.12261 Bohr) occupying 0.496898 of unit cell:	Completed after 18 iterations at t[s]:    960.88
	Linear fluid (dielectric constant: 78.4, screening length: 8.12261 Bohr) occupying 0.496793 of unit cell:	Completed after 10 iterations at t[s]:    969.19
	FillingsUpdate:  mu: -0.140138794  nElectrons: 190.000000  magneticMoment: [ Abs: 0.00000  Tot: -0.00000 ]
	SubspaceRotationAdjust: set factor to 0.315
ElecMinimize: Iter:   1  F: -1476.074654520209606  |grad|_K:  7.376e-07  alpha:  9.305e-01  linmin: -2.294e-06  t[s]:    980.68
	Linear fluid (dielectric constant: 78.4, screening length: 8.12261 Bohr) occupying 0.498654 of unit cell:	Completed after 13 iterations at t[s]:    991.03
	Linear fluid (dielectric constant: 78.4, screening length: 8.12261 Bohr) occupying 0.497862 of unit cell:	Completed after 12 iterations at t[s]:    999.72
	FillingsUpdate:  mu: -0.141282262  nElectrons: 190.000000  magneticMoment: [ Abs: 0.00000  Tot: -0.00000 ]
	SubspaceRotationAdjust: set factor to 0.328
ElecMinimize: Iter:   2  F: -1476.074714419088423  |grad|_K:  4.571e-07  alpha:  5.241e-01  linmin:  5.191e-08  t[s]:   1011.26
	Linear fluid (dielectric constant: 78.4, screening length: 8.12261 Bohr) occupying 0.498389 of unit cell:	Completed after 11 iterations at t[s]:   1021.38
	Linear fluid (dielectric constant: 78.4, screening length: 8.12261 Bohr) occupying 0.498319 of unit cell:	Completed after 7 iterations at t[s]:   1029.54
	FillingsUpdate:  mu: -0.140809265  nElectrons: 190.000000  magneticMoment: [ Abs: 0.00000  Tot: -0.00000 ]
	SubspaceRotationAdjust: set factor to 0.372
ElecMinimize: Iter:   3  F: -1476.074734098235012  |grad|_K:  3.075e-07  alpha:  4.529e-01  linmin: -1.363e-07  t[s]:   1041.00
	Linear fluid (dielectric constant: 78.4, screening length: 8.12261 Bohr) occupying 0.498553 of unit cell:	Completed after 9 iterations at t[s]:   1050.91
	Linear fluid (dielectric constant: 78.4, screening length: 8.12261 Bohr) occupying 0.498514 of unit cell:	Completed after 2 iterations at t[s]:   1058.75
	FillingsUpdate:  mu: -0.140713124  nElectrons: 190.000000  magneticMoment: [ Abs: 0.00000  Tot: -0.00000 ]
	SubspaceRotationAdjust: set factor to 0.432
ElecMinimize: Iter:   4  F: -1476.074741513520394  |grad|_K:  2.059e-07  alpha:  3.765e-01  linmin: -2.009e-08  t[s]:   1070.27
	Linear fluid (dielectric constant: 78.4, screening length: 8.12261 Bohr) occupying 0.498605 of unit cell:	Completed after 10 iterations at t[s]:   1080.30
	Linear fluid (dielectric constant: 78.4, screening length: 8.12261 Bohr) occupying 0.498619 of unit cell:	Completed after 2 iterations at t[s]:   1088.16
	FillingsUpdate:  mu: -0.140949925  nElectrons: 190.000000  magneticMoment: [ Abs: 0.00000  Tot: -0.00000 ]
	SubspaceRotationAdjust: set factor to 0.489
ElecMinimize: Iter:   5  F: -1476.074745370513483  |grad|_K:  1.265e-07  alpha:  4.370e-01  linmin: -2.740e-07  t[s]:   1099.60
	Linear fluid (dielectric constant: 78.4, screening length: 8.12261 Bohr) occupying 0.498670 of unit cell:	Completed after 6 iterations at t[s]:   1109.35
	Linear fluid (dielectric constant: 78.4, screening length: 8.12261 Bohr) occupying 0.498673 of unit cell:	Completed after 1 iterations at t[s]:   1117.07
	FillingsUpdate:  mu: -0.140872618  nElectrons: 190.000000  magneticMoment: [ Abs: 0.00000  Tot: -0.00000 ]
	SubspaceRotationAdjust: set factor to 0.557
ElecMinimize: Iter:   6  F: -1476.074746903259211  |grad|_K:  8.346e-08  alpha:  4.599e-01  linmin: -1.587e-07  t[s]:   1128.70
	Linear fluid (dielectric constant: 78.4, screening length: 8.12261 Bohr) occupying 0.498696 of unit cell:	Completed after 6 iterations at t[s]:   1138.63
	Linear fluid (dielectric constant: 78.4, screening length: 8.12261 Bohr) occupying 0.498694 of unit cell:	Completed after 1 iterations at t[s]:   1146.34
	FillingsUpdate:  mu: -0.140859347  nElectrons: 190.000000  magneticMoment: [ Abs: 0.00000  Tot: -0.00000 ]
	SubspaceRotationAdjust: set factor to 0.609
ElecMinimize: Iter:   7  F: -1476.074747510338966  |grad|_K:  5.041e-08  alpha:  4.183e-01  linmin:  4.281e-07  t[s]:   1157.88
	Linear fluid (dielectric constant: 78.4, screening length: 8.12261 Bohr) occupying 0.498700 of unit cell:	Completed after 5 iterations at t[s]:   1167.78
	Linear fluid (dielectric constant: 78.4, screening length: 8.12261 Bohr) occupying 0.498700 of unit cell:	Completed after 0 iterations at t[s]:   1175.39
	FillingsUpdate:  mu: -0.140898849  nElectrons: 190.000000  magneticMoment: [ Abs: 0.00000  Tot: -0.00000 ]
	SubspaceRotationAdjust: set factor to 0.596
ElecMinimize: Iter:   8  F: -1476.074747733063077  |grad|_K:  3.022e-08  alpha:  4.224e-01  linmin: -9.366e-07  t[s]:   1186.80
	Linear fluid (dielectric constant: 78.4, screening length: 8.12261 Bohr) occupying 0.498702 of unit cell:	Completed after 2 iterations at t[s]:   1196.39
	Linear fluid (dielectric constant: 78.4, screening length: 8.12261 Bohr) occupying 0.498702 of unit cell:	Completed after 0 iterations at t[s]:   1204.00
	FillingsUpdate:  mu: -0.140870609  nElectrons: 190.000000  magneticMoment: [ Abs: 0.00000  Tot: -0.00000 ]
	SubspaceRotationAdjust: set factor to 0.554
ElecMinimize: Iter:   9  F: -1476.074747805638935  |grad|_K:  1.943e-08  alpha:  3.791e-01  linmin:  4.273e-06  t[s]:   1215.44
	Linear fluid (dielectric constant: 78.4, screening length: 8.12261 Bohr) occupying 0.498700 of unit cell:	Completed after 2 iterations at t[s]:   1224.98
	Linear fluid (dielectric constant: 78.4, screening length: 8.12261 Bohr) occupying 0.498700 of unit cell:	Completed after 0 iterations at t[s]:   1232.57
	FillingsUpdate:  mu: -0.140877407  nElectrons: 190.000000  magneticMoment: [ Abs: 0.00000  Tot: -0.00000 ]
	SubspaceRotationAdjust: set factor to 0.567
ElecMinimize: Iter:  10  F: -1476.074747832417415  |grad|_K:  1.134e-08  alpha:  3.501e-01  linmin: -1.467e-05  t[s]:   1244.04
ElecMinimize: Converged (|Delta F|<1.000000e-07 for 2 iters).
Setting wave functions to eigenvectors of Hamiltonian
Converging empty states (this may take a while): |deigs|: 1.680e-04
Single-point solvation energy estimate, DeltaF = -0.000698753550751

Computing DFT-D3 correction:
# coordination-number Ag 8.415 9.200 9.175 6.890 4.631 9.175 9.200 8.415 4.631 6.890
# diagonal-C6 Ag 268.61 268.61 268.61 268.61 268.61 268.61 268.61 268.61 268.61 268.61
EvdW_6 =   -0.055088
EvdW_8 =   -0.079170

# Ionic positions in cartesian coordinates:
ion Ag   3.832834000000000   1.714096000000000  12.855717000000002 1
ion Ag  -0.000000000000000   3.428191000000000   9.427508000000000 1
ion Ag   3.832834000000001   5.142287000000000   5.999352000000000 1
ion Ag  -0.000001000000000   6.856383000000000   2.571143000000000 1
ion Ag   0.000000000000000   0.000000000000000  16.283925000000000 1
ion Ag   3.832833000000001   6.856383000000000  11.141638000000000 1
ion Ag   3.832834000000000   0.000000000000000   7.713430000000000 1
ion Ag   0.000000000000000   1.714096000000000   4.285222000000000 1
ion Ag   3.832834000000001   3.428191000000000   0.857065000000000 1
ion Ag  -0.000001000000000   5.142287000000000  14.569794999999997 1

# Forces in Cartesian coordinates:
force Ag   0.000055853458291   0.000784501212544   0.006744298392348 1
force Ag  -0.000068778826225  -0.000370846008914  -0.001155587685908 1
force Ag   0.000002819328446   0.000183418708361   0.000513599129794 1
force Ag   0.000104230451030   0.000673029187422  -0.005029071814653 1
force Ag   0.000040196065731  -0.000233085558174  -0.002790462590951 1
force Ag   0.000058046617454  -0.000178920462531  -0.000490178607932 1
force Ag   0.000042112780535   0.000366508828082   0.001193970544415 1
force Ag  -0.000137541303623  -0.000789925454561  -0.006747197013940 1
force Ag  -0.000068141166614   0.000226167490379   0.002751609053130 1
force Ag  -0.000039827491114  -0.000666369485468   0.005014962858896 1

# Energy components:
   A_diel =       -0.0009081431515709
   Eewald =     5555.1132178514899351
       EH =     6888.3137623241791516
     Eloc =   -14151.4503726347938937
      Enl =       39.4630948846428637
     EvdW =       -0.1342582310330185
      Exc =     -144.8759266273227411
 Exc_core =        2.0817052734592942
       KE =      335.4152186205343469
-------------------------------------
     Etot =    -1476.0744666819950908
       TS =        0.0002811504222504
-------------------------------------
        F =    -1476.0747478324174153


Dumping 'jdft.fillings' ... done
Dumping 'jdft.wfns' ... done
Dumping 'jdft.fluidState' ... done
Dumping 'jdft.ionpos' ... done
Dumping 'jdft.lattice' ... done
Dumping 'jdft.eigenvals' ... done
Dumping 'jdft.eigStats' ... 
	eMin: -3.525866 at state 0 ( [ +0.000000 +0.000000 +0.000000 ] spin 1 )
	HOMO: -0.141179 at state 11 ( [ +0.111111 -0.428571 +0.000000 ] spin 1 )
	mu  : -0.140877
	LUMO: -0.140235 at state 87 ( [ +0.333333 +0.428571 +0.000000 ] spin -1 )
	eMax: +0.154022 at state 53 ( [ -0.222222 -0.428571 +0.000000 ] spin 1 )
	HOMO-LUMO gap: +0.000943
	Optical gap  : +0.006587 at state 99 ( [ -0.444444 +0.142857 +0.000000 ] spin -1 )
Dumping 'jdft.Ecomponents' ... done
IonicMinimize: Iter:   0  F: -1476.074747832417415  |grad|_K:  2.329e-03  t[s]:   1309.21

#--- Lowdin population analysis ---
# oxidation-state Ag -0.067 -0.002 -0.034 -0.035 +0.166 -0.034 -0.002 -0.067 +0.166 -0.035
# magnetic-moments Ag +0.000 -0.000 -0.000 -0.000 -0.000 -0.000 +0.000 +0.000 -0.000 -0.000


Computing DFT-D3 correction:
# coordination-number Ag 8.410 9.189 9.169 6.888 4.643 9.169 9.189 8.410 4.643 6.888
# diagonal-C6 Ag 268.61 268.61 268.61 268.61 268.61 268.61 268.61 268.61 268.61 268.61
EvdW_6 =   -0.055074
EvdW_8 =   -0.079141

-------- Electronic minimization -----------
	Linear fluid (dielectric constant: 78.4, screening length: 8.12261 Bohr) occupying 0.498780 of unit cell:	Completed after 6 iterations at t[s]:   1319.96
	FillingsUpdate:  mu: -0.140938093  nElectrons: 190.000000  magneticMoment: [ Abs: 0.00000  Tot: -0.00000 ]
ElecMinimize: Iter:   0  F: -1476.074882816199079  |grad|_K:  2.906e-07  alpha:  1.000e+00
	Linear fluid (dielectric constant: 78.4, screening length: 8.12261 Bohr) occupying 0.498766 of unit cell:	Completed after 10 iterations at t[s]:   1342.98
	Linear fluid (dielectric constant: 78.4, screening length: 8.12261 Bohr) occupying 0.498768 of unit cell:	Completed after 4 iterations at t[s]:   1350.89
	FillingsUpdate:  mu: -0.140719295  nElectrons: 190.000000  magneticMoment: [ Abs: 0.00000  Tot: -0.00000 ]
	SubspaceRotationAdjust: set factor to 0.753
ElecMinimize: Iter:   1  F: -1476.074897610093558  |grad|_K:  2.971e-07  alpha:  8.420e-01  linmin:  2.090e-07  t[s]:   1362.40
	Linear fluid (dielectric constant: 78.4, screening length: 8.12261 Bohr) occupying 0.498707 of unit cell:	Completed after 15 iterations at t[s]:   1372.76
	Linear fluid (dielectric constant: 78.4, screening length: 8.12261 Bohr) occupying 0.498743 of unit cell:	Completed after 14 iterations at t[s]:   1381.32
	FillingsUpdate:  mu: -0.141165280  nElectrons: 190.000000  magneticMoment: [ Abs: 0.00000  Tot: -0.00000 ]
	SubspaceRotationAdjust: set factor to 0.766
ElecMinimize: Iter:   2  F: -1476.074904107120346  |grad|_K:  1.993e-07  alpha:  3.541e-01  linmin:  4.103e-07  t[s]:   1392.90
	Linear fluid (dielectric constant: 78.4, screening length: 8.12261 Bohr) occupying 0.498755 of unit cell:	Completed after 10 iterations at t[s]:   1403.05
	Linear fluid (dielectric constant: 78.4, screening length: 8.12261 Bohr) occupying 0.498753 of unit cell:	Completed after 6 iterations at t[s]:   1411.06
	FillingsUpdate:  mu: -0.140793668  nElectrons: 190.000000  magneticMoment: [ Abs: 0.00000  Tot: -0.00000 ]
	SubspaceRotationAdjust: set factor to 0.561
ElecMinimize: Iter:   3  F: -1476.074906519965452  |grad|_K:  8.867e-08  alpha:  2.922e-01  linmin:  5.769e-06  t[s]:   1422.59
	Linear fluid (dielectric constant: 78.4, screening length: 8.12261 Bohr) occupying 0.498743 of unit cell:	Completed after 10 iterations at t[s]:   1432.67
	Linear fluid (dielectric constant: 78.4, screening length: 8.12261 Bohr) occupying 0.498744 of unit cell:	Completed after 2 iterations at t[s]:   1440.44
	FillingsUpdate:  mu: -0.141015341  nElectrons: 190.000000  magneticMoment: [ Abs: 0.00000  Tot: -0.00000 ]
	SubspaceRotationAdjust: set factor to 0.342
ElecMinimize: Iter:   4  F: -1476.074906939631774  |grad|_K:  4.456e-08  alpha:  2.567e-01  linmin:  8.914e-05  t[s]:   1452.08
	Linear fluid (dielectric constant: 78.4, screening length: 8.12261 Bohr) occupying 0.498747 of unit cell:	Completed after 6 iterations at t[s]:   1461.94
	Linear fluid (dielectric constant: 78.4, screening length: 8.12261 Bohr) occupying 0.498748 of unit cell:	Completed after 2 iterations at t[s]:   1469.76
	FillingsUpdate:  mu: -0.140948119  nElectrons: 190.000000  magneticMoment: [ Abs: 0.00000  Tot: -0.00000 ]
	SubspaceRotationAdjust: set factor to 0.36
ElecMinimize: Iter:   5  F: -1476.074907066502192  |grad|_K:  1.881e-08  alpha:  3.070e-01  linmin: -7.530e-04  t[s]:   1481.39
	Linear fluid (dielectric constant: 78.4, screening length: 8.12261 Bohr) occupying 0.498750 of unit cell:	Completed after 2 iterations at t[s]:   1491.02
	Linear fluid (dielectric constant: 78.4, screening length: 8.12261 Bohr) occupying 0.498750 of unit cell:	Completed after 0 iterations at t[s]:   1498.62
	FillingsUpdate:  mu: -0.140928991  nElectrons: 190.000000  magneticMoment: [ Abs: 0.00000  Tot: -0.00000 ]
	SubspaceRotationAdjust: set factor to 0.371
ElecMinimize: Iter:   6  F: -1476.074907092543754  |grad|_K:  1.028e-08  alpha:  3.459e-01  linmin: -1.008e-03  t[s]:   1510.15
	Linear fluid (dielectric constant: 78.4, screening length: 8.12261 Bohr) occupying 0.498751 of unit cell:	Completed after 2 iterations at t[s]:   1519.91
	Linear fluid (dielectric constant: 78.4, screening length: 8.12261 Bohr) occupying 0.498751 of unit cell:	Completed after 0 iterations at t[s]:   1527.52
	FillingsUpdate:  mu: -0.140929352  nElectrons: 190.000000  magneticMoment: [ Abs: 0.00000  Tot: -0.00000 ]
	SubspaceRotationAdjust: set factor to 0.433
ElecMinimize: Iter:   7  F: -1476.074907100875635  |grad|_K:  5.531e-09  alpha:  3.665e-01  linmin: -1.881e-03  t[s]:   1539.06
ElecMinimize: Converged (|Delta F|<1.000000e-07 for 2 iters).
Setting wave functions to eigenvectors of Hamiltonian
Converging empty states (this may take a while): |deigs|: 7.933e-08

Computing DFT-D3 correction:
# coordination-number Ag 8.410 9.189 9.169 6.888 4.643 9.169 9.189 8.410 4.643 6.888
# diagonal-C6 Ag 268.61 268.61 268.61 268.61 268.61 268.61 268.61 268.61 268.61 268.61
EvdW_6 =   -0.055074
EvdW_8 =   -0.079141
IonicMinimize: 	Wolfe criterion not satisfied: alpha: 1  (E-E0)/|gdotd0|: -0.97888  gdotd/gdotd0: 0.956884 (taking cubic step)

Computing DFT-D3 correction:
# coordination-number Ag 8.399 9.169 9.156 6.883 4.668 9.157 9.169 8.399 4.668 6.883
# diagonal-C6 Ag 268.61 268.61 268.61 268.61 268.61 268.61 268.61 268.61 268.61 268.61
EvdW_6 =   -0.055045
EvdW_8 =   -0.079083

-------- Electronic minimization -----------
	Linear fluid (dielectric constant: 78.4, screening length: 8.12261 Bohr) occupying 0.498932 of unit cell:	Completed after 12 iterations at t[s]:   1578.48
	FillingsUpdate:  mu: -0.141029970  nElectrons: 190.000000  magneticMoment: [ Abs: 0.00000  Tot: -0.00000 ]
ElecMinimize: Iter:   0  F: -1476.075105537987383  |grad|_K:  5.265e-07  alpha:  1.000e+00
	Linear fluid (dielectric constant: 78.4, screening length: 8.12261 Bohr) occupying 0.498910 of unit cell:	Completed after 10 iterations at t[s]:   1602.13
	Linear fluid (dielectric constant: 78.4, screening length: 8.12261 Bohr) occupying 0.498913 of unit cell:	Completed after 2 iterations at t[s]:   1609.94
	FillingsUpdate:  mu: -0.140819165  nElectrons: 190.000000  magneticMoment: [ Abs: 0.00000  Tot: -0.00000 ]
	SubspaceRotationAdjust: set factor to 0.594
ElecMinimize: Iter:   1  F: -1476.075156240530532  |grad|_K:  5.570e-07  alpha:  8.791e-01  linmin:  3.419e-06  t[s]:   1621.57
	Linear fluid (dielectric constant: 78.4, screening length: 8.12261 Bohr) occupying 0.498847 of unit cell:	Completed after 11 iterations at t[s]:   1631.75
	Linear fluid (dielectric constant: 78.4, screening length: 8.12261 Bohr) occupying 0.498879 of unit cell:	Completed after 10 iterations at t[s]:   1640.15
	FillingsUpdate:  mu: -0.141214213  nElectrons: 190.000000  magneticMoment: [ Abs: 0.00000  Tot: -0.00000 ]
	SubspaceRotationAdjust: set factor to 0.679
ElecMinimize: Iter:   2  F: -1476.075186056628127  |grad|_K:  4.367e-07  alpha:  4.620e-01  linmin: -6.822e-07  t[s]:   1651.80
	Linear fluid (dielectric constant: 78.4, screening length: 8.12261 Bohr) occupying 0.498876 of unit cell:	Completed after 10 iterations at t[s]:   1661.86
	Linear fluid (dielectric constant: 78.4, screening length: 8.12261 Bohr) occupying 0.498877 of unit cell:	Completed after 9 iterations at t[s]:   1670.10
	FillingsUpdate:  mu: -0.140880974  nElectrons: 190.000000  magneticMoment: [ Abs: 0.00000  Tot: -0.00000 ]
	SubspaceRotationAdjust: set factor to 0.712
ElecMinimize: Iter:   3  F: -1476.075198979291144  |grad|_K:  1.961e-07  alpha:  3.256e-01  linmin:  8.387e-07  t[s]:   1681.67
	Linear fluid (dielectric constant: 78.4, screening length: 8.12261 Bohr) occupying 0.498865 of unit cell:	Completed after 10 iterations at t[s]:   1691.76
	Linear fluid (dielectric constant: 78.4, screening length: 8.12261 Bohr) occupying 0.498865 of unit cell:	Completed after 0 iterations at t[s]:   1699.43
	FillingsUpdate:  mu: -0.141179356  nElectrons: 190.000000  magneticMoment: [ Abs: 0.00000  Tot: -0.00000 ]
	SubspaceRotationAdjust: set factor to 0.616
ElecMinimize: Iter:   4  F: -1476.075201672046205  |grad|_K:  1.007e-07  alpha:  3.366e-01  linmin: -1.414e-04  t[s]:   1710.93
	Linear fluid (dielectric constant: 78.4, screening length: 8.12261 Bohr) occupying 0.498879 of unit cell:	Completed after 9 iterations at t[s]:   1721.08
	Linear fluid (dielectric constant: 78.4, screening length: 8.12261 Bohr) occupying 0.498877 of unit cell:	Completed after 2 iterations at t[s]:   1728.90
	FillingsUpdate:  mu: -0.140898460  nElectrons: 190.000000  magneticMoment: [ Abs: 0.00000  Tot: -0.00000 ]
	SubspaceRotationAdjust: set factor to 0.405
ElecMinimize: Iter:   5  F: -1476.075202293980965  |grad|_K:  5.323e-08  alpha:  2.923e-01  linmin:  3.524e-04  t[s]:   1740.35
	Linear fluid (dielectric constant: 78.4, screening length: 8.12261 Bohr) occupying 0.498873 of unit cell:	Completed after 8 iterations at t[s]:   1750.35
	Linear fluid (dielectric constant: 78.4, screening length: 8.12261 Bohr) occupying 0.498873 of unit cell:	Completed after 0 iterations at t[s]:   1757.95
	FillingsUpdate:  mu: -0.141030203  nElectrons: 190.000000  magneticMoment: [ Abs: 0.00000  Tot: -0.00000 ]
	SubspaceRotationAdjust: set factor to 0.348
ElecMinimize: Iter:   6  F: -1476.075202485100363  |grad|_K:  2.706e-08  alpha:  3.266e-01  linmin: -1.257e-03  t[s]:   1769.36
	Linear fluid (dielectric constant: 78.4, screening length: 8.12261 Bohr) occupying 0.498873 of unit cell:	Completed after 1 iterations at t[s]:   1778.88
	Linear fluid (dielectric constant: 78.4, screening length: 8.12261 Bohr) occupying 0.498873 of unit cell:	Completed after 0 iterations at t[s]:   1786.50
	FillingsUpdate:  mu: -0.141036466  nElectrons: 190.000000  magneticMoment: [ Abs: 0.00000  Tot: -0.00000 ]
	SubspaceRotationAdjust: set factor to 0.396
ElecMinimize: Iter:   7  F: -1476.075202544246167  |grad|_K:  1.674e-08  alpha:  3.691e-01  linmin: -1.692e-03  t[s]:   1797.96
	Linear fluid (dielectric constant: 78.4, screening length: 8.12261 Bohr) occupying 0.498875 of unit cell:	Completed after 2 iterations at t[s]:   1807.57
	Linear fluid (dielectric constant: 78.4, screening length: 8.12261 Bohr) occupying 0.498875 of unit cell:	Completed after 0 iterations at t[s]:   1815.22
	FillingsUpdate:  mu: -0.141010428  nElectrons: 190.000000  magneticMoment: [ Abs: 0.00000  Tot: -0.00000 ]
	SubspaceRotationAdjust: set factor to 0.395
ElecMinimize: Iter:   8  F: -1476.075202565906238  |grad|_K:  9.906e-09  alpha:  3.622e-01  linmin: -3.002e-04  t[s]:   1826.67
ElecMinimize: Converged (|Delta F|<1.000000e-07 for 2 iters).
Setting wave functions to eigenvectors of Hamiltonian
Converging empty states (this may take a while): |deigs|: 1.111e-07

Computing DFT-D3 correction:
# coordination-number Ag 8.399 9.169 9.156 6.883 4.668 9.157 9.169 8.399 4.668 6.883
# diagonal-C6 Ag 268.61 268.61 268.61 268.61 268.61 268.61 268.61 268.61 268.61 268.61
EvdW_6 =   -0.055045
EvdW_8 =   -0.079083

# Ionic positions in cartesian coordinates:
ion Ag   3.833004869400701   1.716451160100490  12.875948112497486 1
ion Ag  -0.000203027452849   3.427080118436116   9.424039454262717 1
ion Ag   3.832845767011166   5.142838912587941   6.000891014709824 1
ion Ag   0.000315000378918   6.858403744025124   2.556054001876481 1
ion Ag   0.000123897223021  -0.000697600211664  16.275551829547588 1
ion Ag   3.833010448878189   6.855847895075265  11.140165681496644 1
ion Ag   3.832963647367432   0.001101182947106   7.717010128953683 1
ion Ag  -0.000409314885043   1.711727880099175   4.264978626278620 1
ion Ag   3.832632885525985   3.428871158933994   0.865318044479831 1
ion Ag  -0.000117173447515   5.140289548006454  14.584838105897127 1

# Forces in Cartesian coordinates:
force Ag   0.000044763051719   0.000830455902310   0.005675906807859 1
force Ag  -0.000053397911688  -0.000475171665017  -0.000837008139973 1
force Ag   0.000005940258649   0.000260778076356   0.000299043959118 1
force Ag   0.000076108891756   0.000548573028810  -0.004312883138203 1
force Ag   0.000033565019430  -0.000390905513977  -0.002311690975273 1
force Ag   0.000041069974930  -0.000258645699201  -0.000292622211856 1
force Ag   0.000031507061021   0.000470453472555   0.000845373173321 1
force Ag  -0.000113407464908  -0.000833597099970  -0.005667015897969 1
force Ag  -0.000062149257742   0.000387531128693   0.002296398435930 1
force Ag  -0.000022957175300  -0.000546137718758   0.004305897246203 1

# Energy components:
   A_diel =       -0.0009157115760997
   Eewald =     5549.1047845255561697
       EH =     6882.2943609834755989
     Eloc =   -14139.4202175460941362
      Enl =       39.4626921645761968
     EvdW =       -0.1341280685704045
      Exc =     -144.8743753051655858
 Exc_core =        2.0817052711587025
       KE =      335.4111766985404302
-------------------------------------
     Etot =    -1476.0749169881003127
       TS =        0.0002855778058596
-------------------------------------
        F =    -1476.0752025659062383


Dumping 'jdft.fillings' ... done
Dumping 'jdft.wfns' ... done
Dumping 'jdft.fluidState' ... done
Dumping 'jdft.ionpos' ... done
Dumping 'jdft.lattice' ... done
Dumping 'jdft.eigenvals' ... done
Dumping 'jdft.eigStats' ... 
	eMin: -3.525821 at state 63 ( [ +0.000000 +0.000000 +0.000000 ] spin -1 )
	HOMO: -0.141277 at state 59 ( [ -0.111111 +0.428571 +0.000000 ] spin 1 )
	mu  : -0.141010
	LUMO: -0.140548 at state 109 ( [ -0.333333 -0.428571 +0.000000 ] spin -1 )
	eMax: +0.153980 at state 80 ( [ +0.222222 +0.428571 +0.000000 ] spin -1 )
	HOMO-LUMO gap: +0.000728
	Optical gap  : +0.006585 at state 97 ( [ +0.444444 -0.142857 +0.000000 ] spin -1 )
Dumping 'jdft.Ecomponents' ... done
IonicMinimize: Iter:   1  F: -1476.075202565906238  |grad|_K:  1.971e-03  alpha:  3.000e+00  linmin: -9.987e-01  t[s]:   1855.29

#--- Lowdin population analysis ---
# oxidation-state Ag -0.067 -0.002 -0.034 -0.034 +0.164 -0.034 -0.002 -0.067 +0.164 -0.034
# magnetic-moments Ag -0.000 -0.000 +0.000 +0.000 +0.000 +0.000 -0.000 -0.000 +0.000 -0.000


Computing DFT-D3 correction:
# coordination-number Ag 8.302 8.986 9.039 6.848 4.832 9.035 8.987 8.307 4.834 6.846
# diagonal-C6 Ag 268.61 268.61 268.61 268.61 268.61 268.61 268.61 268.61 268.61 268.61
EvdW_6 =   -0.054791
EvdW_8 =   -0.078660

-------- Electronic minimization -----------
	Linear fluid (dielectric constant: 78.4, screening length: 8.12261 Bohr) occupying 0.498866 of unit cell:	Completed after 20 iterations at t[s]:   1866.06
	FillingsUpdate:  mu: +0.082978016  nElectrons: 190.000000  magneticMoment: [ Abs: 0.00000  Tot: -0.00000 ]
ElecMinimize: Iter:   0  F: -1474.622079512485925  |grad|_K:  1.607e-04  alpha:  1.000e+00
	Linear fluid (dielectric constant: 78.4, screening length: 8.12261 Bohr) occupying 0.466200 of unit cell:	Completed after 23 iterations at t[s]:   1889.80
	Linear fluid (dielectric constant: 78.4, screening length: 8.12261 Bohr) occupying 0.491995 of unit cell:	Completed after 23 iterations at t[s]:   1899.31
	FillingsUpdate:  mu: -0.278141356  nElectrons: 190.000000  magneticMoment: [ Abs: 0.00000  Tot: -0.00000 ]
	SubspaceRotationAdjust: set factor to 0.266
ElecMinimize: Iter:   1  F: -1475.893600544973651  |grad|_K:  5.076e-05  alpha:  2.526e-01  linmin:  5.031e-03  t[s]:   1910.86
	Linear fluid (dielectric constant: 78.4, screening length: 8.12261 Bohr) occupying 0.497260 of unit cell:	Completed after 20 iterations at t[s]:   1921.44
	Linear fluid (dielectric constant: 78.4, screening length: 8.12261 Bohr) occupying 0.497837 of unit cell:	Completed after 15 iterations at t[s]:   1930.10
	FillingsUpdate:  mu: -0.159450537  nElectrons: 190.000000  magneticMoment: [ Abs: 0.00000  Tot: -0.00000 ]
	SubspaceRotationAdjust: set factor to 0.432
ElecMinimize: Iter:   2  F: -1476.036536266725761  |grad|_K:  1.558e-05  alpha:  2.832e-01  linmin: -1.497e-04  t[s]:   1941.58
	Linear fluid (dielectric constant: 78.4, screening length: 8.12261 Bohr) occupying 0.498939 of unit cell:	Completed after 14 iterations at t[s]:   1951.83
	Linear fluid (dielectric constant: 78.4, screening length: 8.12261 Bohr) occupying 0.499106 of unit cell:	Completed after 13 iterations at t[s]:   1960.43
	FillingsUpdate:  mu: -0.141091365  nElectrons: 190.000000  magneticMoment: [ Abs: 0.00000  Tot: -0.00000 ]
	SubspaceRotationAdjust: set factor to 0.55
ElecMinimize: Iter:   3  F: -1476.053097163743132  |grad|_K:  1.032e-05  alpha:  3.267e-01  linmin: -2.420e-05  t[s]:   1971.92
	Linear fluid (dielectric constant: 78.4, screening length: 8.12261 Bohr) occupying 0.499733 of unit cell:	Completed after 14 iterations at t[s]:   1982.28
	Linear fluid (dielectric constant: 78.4, screening length: 8.12261 Bohr) occupying 0.500030 of unit cell:	Completed after 12 iterations at t[s]:   1990.81
	FillingsUpdate:  mu: -0.137301086  nElectrons: 190.000000  magneticMoment: [ Abs: 0.00000  Tot: -0.00000 ]
	SubspaceRotationAdjust: set factor to 0.742
ElecMinimize: Iter:   4  F: -1476.063963691322442  |grad|_K:  8.836e-06  alpha:  4.901e-01  linmin:  1.481e-06  t[s]:   2002.29
	Linear fluid (dielectric constant: 78.4, screening length: 8.12261 Bohr) occupying 0.500280 of unit cell:	Completed after 14 iterations at t[s]:   2012.57
	Linear fluid (dielectric constant: 78.4, screening length: 8.12261 Bohr) occupying 0.500287 of unit cell:	Completed after 10 iterations at t[s]:   2021.09
	FillingsUpdate:  mu: -0.143037548  nElectrons: 190.000000  magneticMoment: [ Abs: 0.00000  Tot: -0.00000 ]
	SubspaceRotationAdjust: set factor to 0.94
ElecMinimize: Iter:   5  F: -1476.072305061125007  |grad|_K:  6.025e-06  alpha:  5.135e-01  linmin: -1.081e-05  t[s]:   2032.53
	Linear fluid (dielectric constant: 78.4, screening length: 8.12261 Bohr) occupying 0.500554 of unit cell:	Completed after 15 iterations at t[s]:   2042.83
	Linear fluid (dielectric constant: 78.4, screening length: 8.12261 Bohr) occupying 0.500483 of unit cell:	Completed after 12 iterations at t[s]:   2051.44
	FillingsUpdate:  mu: -0.132423355  nElectrons: 190.000000  magneticMoment: [ Abs: 0.00000  Tot: -0.00000 ]
	SubspaceRotationAdjust: set factor to 0.919
ElecMinimize: Iter:   6  F: -1476.074939702151823  |grad|_K:  4.159e-06  alpha:  3.478e-01  linmin: -6.445e-07  t[s]:   2063.01
	Linear fluid (dielectric constant: 78.4, screening length: 8.12261 Bohr) occupying 0.499304 of unit cell:	Completed after 14 iterations at t[s]:   2073.41
	Linear fluid (dielectric constant: 78.4, screening length: 8.12261 Bohr) occupying 0.499638 of unit cell:	Completed after 13 iterations at t[s]:   2081.91
	FillingsUpdate:  mu: -0.145199009  nElectrons: 190.000000  magneticMoment: [ Abs: 0.00000  Tot: -0.00000 ]
	SubspaceRotationAdjust: set factor to 0.603
ElecMinimize: Iter:   7  F: -1476.075844788688073  |grad|_K:  2.621e-06  alpha:  2.507e-01  linmin:  5.019e-06  t[s]:   2093.39
	Linear fluid (dielectric constant: 78.4, screening length: 8.12261 Bohr) occupying 0.499641 of unit cell:	Completed after 13 iterations at t[s]:   2103.63
	Linear fluid (dielectric constant: 78.4, screening length: 8.12261 Bohr) occupying 0.499641 of unit cell:	Completed after 10 iterations at t[s]:   2112.00
	FillingsUpdate:  mu: -0.140708327  nElectrons: 190.000000  magneticMoment: [ Abs: 0.00000  Tot: -0.00000 ]
	SubspaceRotationAdjust: set factor to 0.488
ElecMinimize: Iter:   8  F: -1476.076222421972716  |grad|_K:  1.520e-06  alpha:  2.645e-01  linmin:  1.340e-06  t[s]:   2123.57
	Linear fluid (dielectric constant: 78.4, screening length: 8.12261 Bohr) occupying 0.499586 of unit cell:	Completed after 12 iterations at t[s]:   2133.85
	Linear fluid (dielectric constant: 78.4, screening length: 8.12261 Bohr) occupying 0.499571 of unit cell:	Completed after 7 iterations at t[s]:   2142.01
	FillingsUpdate:  mu: -0.141212697  nElectrons: 190.000000  magneticMoment: [ Abs: 0.00000  Tot: -0.00000 ]
	SubspaceRotationAdjust: set factor to 0.604
ElecMinimize: Iter:   9  F: -1476.076381784300793  |grad|_K:  9.225e-07  alpha:  3.316e-01  linmin: -7.428e-06  t[s]:   2153.66
	Linear fluid (dielectric constant: 78.4, screening length: 8.12261 Bohr) occupying 0.499516 of unit cell:	Completed after 10 iterations at t[s]:   2163.70
	Linear fluid (dielectric constant: 78.4, screening length: 8.12261 Bohr) occupying 0.499511 of unit cell:	Completed after 8 iterations at t[s]:   2171.98
	FillingsUpdate:  mu: -0.142687002  nElectrons: 190.000000  magneticMoment: [ Abs: 0.00000  Tot: -0.00000 ]
	SubspaceRotationAdjust: set factor to 0.709
ElecMinimize: Iter:  10  F: -1476.076445907664265  |grad|_K:  6.529e-07  alpha:  3.621e-01  linmin:  1.053e-05  t[s]:   2183.55
	Linear fluid (dielectric constant: 78.4, screening length: 8.12261 Bohr) occupying 0.499575 of unit cell:	Completed after 12 iterations at t[s]:   2193.72
	Linear fluid (dielectric constant: 78.4, screening length: 8.12261 Bohr) occupying 0.499581 of unit cell:	Completed after 7 iterations at t[s]:   2201.90
	FillingsUpdate:  mu: -0.141310377  nElectrons: 190.000000  magneticMoment: [ Abs: 0.00000  Tot: -0.00000 ]
	SubspaceRotationAdjust: set factor to 0.847
ElecMinimize: Iter:  11  F: -1476.076481008361725  |grad|_K:  4.971e-07  alpha:  3.958e-01  linmin: -4.262e-06  t[s]:   2213.48
	Linear fluid (dielectric constant: 78.4, screening length: 8.12261 Bohr) occupying 0.499591 of unit cell:	Completed after 10 iterations at t[s]:   2223.54
	Linear fluid (dielectric constant: 78.4, screening length: 8.12261 Bohr) occupying 0.499589 of unit cell:	Completed after 5 iterations at t[s]:   2231.57
	FillingsUpdate:  mu: -0.141799258  nElectrons: 190.000000  magneticMoment: [ Abs: 0.00000  Tot: -0.00000 ]
	SubspaceRotationAdjust: set factor to 0.987
ElecMinimize: Iter:  12  F: -1476.076497864983139  |grad|_K:  3.479e-07  alpha:  3.277e-01  linmin:  1.446e-07  t[s]:   2243.23
	Linear fluid (dielectric constant: 78.4, screening length: 8.12261 Bohr) occupying 0.499615 of unit cell:	Completed after 9 iterations at t[s]:   2253.25
	Linear fluid (dielectric constant: 78.4, screening length: 8.12261 Bohr) occupying 0.499617 of unit cell:	Completed after 2 iterations at t[s]:   2261.06
	FillingsUpdate:  mu: -0.141641586  nElectrons: 190.000000  magneticMoment: [ Abs: 0.00000  Tot: -0.00000 ]
	SubspaceRotationAdjust: set factor to 1.11
ElecMinimize: Iter:  13  F: -1476.076506801679216  |grad|_K:  2.097e-07  alpha:  3.548e-01  linmin: -3.386e-06  t[s]:   2272.57
	Linear fluid (dielectric constant: 78.4, screening length: 8.12261 Bohr) occupying 0.499632 of unit cell:	Completed after 6 iterations at t[s]:   2282.44
	Linear fluid (dielectric constant: 78.4, screening length: 8.12261 Bohr) occupying 0.499632 of unit cell:	Completed after 1 iterations at t[s]:   2290.21
	FillingsUpdate:  mu: -0.141583050  nElectrons: 190.000000  magneticMoment: [ Abs: 0.00000  Tot: -0.00000 ]
	SubspaceRotationAdjust: set factor to 1.06
ElecMinimize: Iter:  14  F: -1476.076510219546662  |grad|_K:  1.368e-07  alpha:  3.732e-01  linmin: -6.785e-06  t[s]:   2301.68
	Linear fluid (dielectric constant: 78.4, screening length: 8.12261 Bohr) occupying 0.499633 of unit cell:	Completed after 8 iterations at t[s]:   2311.58
	Linear fluid (dielectric constant: 78.4, screening length: 8.12261 Bohr) occupying 0.499633 of unit cell:	Completed after 2 iterations at t[s]:   2319.59
	FillingsUpdate:  mu: -0.141715895  nElectrons: 190.000000  magneticMoment: [ Abs: 0.00000  Tot: -0.00000 ]
	SubspaceRotationAdjust: set factor to 1.07
ElecMinimize: Iter:  15  F: -1476.076511474294875  |grad|_K:  1.053e-07  alpha:  3.219e-01  linmin:  2.765e-05  t[s]:   2331.18
	Linear fluid (dielectric constant: 78.4, screening length: 8.12261 Bohr) occupying 0.499646 of unit cell:	Completed after 10 iterations at t[s]:   2341.25
	Linear fluid (dielectric constant: 78.4, screening length: 8.12261 Bohr) occupying 0.499643 of unit cell:	Completed after 2 iterations at t[s]:   2349.04
	FillingsUpdate:  mu: -0.141446820  nElectrons: 190.000000  magneticMoment: [ Abs: 0.00000  Tot: -0.00000 ]
	SubspaceRotationAdjust: set factor to 0.891
ElecMinimize: Iter:  16  F: -1476.076512060816867  |grad|_K:  8.522e-08  alpha:  2.550e-01  linmin:  8.560e-05  t[s]:   2360.57
	Linear fluid (dielectric constant: 78.4, screening length: 8.12261 Bohr) occupying 0.499631 of unit cell:	Completed after 9 iterations at t[s]:   2370.66
	Linear fluid (dielectric constant: 78.4, screening length: 8.12261 Bohr) occupying 0.499632 of unit cell:	Completed after 2 iterations at t[s]:   2378.44
	FillingsUpdate:  mu: -0.141674915  nElectrons: 190.000000  magneticMoment: [ Abs: 0.00000  Tot: +0.00000 ]
	SubspaceRotationAdjust: set factor to 0.866
ElecMinimize: Iter:  17  F: -1476.076512404748200  |grad|_K:  5.228e-08  alpha:  2.294e-01  linmin: -4.263e-05  t[s]:   2389.97
	Linear fluid (dielectric constant: 78.4, screening length: 8.12261 Bohr) occupying 0.499633 of unit cell:	Completed after 2 iterations at t[s]:   2399.67
	Linear fluid (dielectric constant: 78.4, screening length: 8.12261 Bohr) occupying 0.499634 of unit cell:	Completed after 2 iterations at t[s]:   2407.53
	FillingsUpdate:  mu: -0.141651151  nElectrons: 190.000000  magneticMoment: [ Abs: 0.00000  Tot: +0.00000 ]
	SubspaceRotationAdjust: set factor to 1.05
ElecMinimize: Iter:  18  F: -1476.076512605728112  |grad|_K:  3.371e-08  alpha:  3.510e-01  linmin: -1.414e-05  t[s]:   2419.02
	Linear fluid (dielectric constant: 78.4, screening length: 8.12261 Bohr) occupying 0.499639 of unit cell:	Completed after 6 iterations at t[s]:   2428.82
	Linear fluid (dielectric constant: 78.4, screening length: 8.12261 Bohr) occupying 0.499638 of unit cell:	Completed after 1 iterations at t[s]:   2436.59
	FillingsUpdate:  mu: -0.141571621  nElectrons: 190.000000  magneticMoment: [ Abs: 0.00000  Tot: +0.00000 ]
	SubspaceRotationAdjust: set factor to 0.948
ElecMinimize: Iter:  19  F: -1476.076512676287166  |grad|_K:  2.668e-08  alpha:  2.993e-01  linmin:  5.866e-05  t[s]:   2447.98
	Linear fluid (dielectric constant: 78.4, screening length: 8.12261 Bohr) occupying 0.499635 of unit cell:	Completed after 6 iterations at t[s]:   2457.80
	Linear fluid (dielectric constant: 78.4, screening length: 8.12261 Bohr) occupying 0.499636 of unit cell:	Completed after 2 iterations at t[s]:   2465.60
	FillingsUpdate:  mu: -0.141646640  nElectrons: 190.000000  magneticMoment: [ Abs: 0.00000  Tot: +0.00000 ]
	SubspaceRotationAdjust: set factor to 0.634
ElecMinimize: Iter:  20  F: -1476.076512702697755  |grad|_K:  1.812e-08  alpha:  1.856e-01  linmin:  1.120e-04  t[s]:   2477.13
ElecMinimize: Converged (|Delta F|<1.000000e-07 for 2 iters).
Setting wave functions to eigenvectors of Hamiltonian
Converging empty states (this may take a while): |deigs|: 1.235e-05

Computing DFT-D3 correction:
# coordination-number Ag 8.302 8.986 9.039 6.848 4.832 9.035 8.987 8.307 4.834 6.846
# diagonal-C6 Ag 268.61 268.61 268.61 268.61 268.61 268.61 268.61 268.61 268.61 268.61
EvdW_6 =   -0.054791
EvdW_8 =   -0.078660

# Ionic positions in cartesian coordinates:
ion Ag   3.833694589064217   1.743947981071439  12.972090970387594 1
ion Ag  -0.000645733950969   3.406217844233474   9.420564149074030 1
ion Ag   3.833335620259639   5.155662928446955   5.995491381308500 1
ion Ag   0.000797793429028   6.866315669840810   2.476706075569256 1
ion Ag   0.000779844398487  -0.022627157009935  16.239323354991946 1
ion Ag   3.833201419876106   6.842984166766981  11.144679505106659 1
ion Ag   3.833295631688121   0.021853823469933   7.718793884553493 1
ion Ag  -0.002036771649109   1.684344376476688   4.169930642323049 1
ion Ag   3.831310505445173   3.450990729076599   0.902710358537764 1
ion Ag   0.000434101439311   5.132223637627056  14.664504678147710 1

# Forces in Cartesian coordinates:
force Ag   0.000009672322188  -0.000094331346890   0.001545447426252 1
force Ag  -0.000010435484262   0.000375867172309  -0.000309178817602 1
force Ag   0.000008289049382   0.000099370760788   0.000300765320702 1
force Ag  -0.000027972544750   0.000170222554447  -0.002016095342516 1
force Ag   0.000009273323979  -0.000520376431889   0.000401169516285 1
force Ag   0.000003976150574  -0.000081284062555  -0.000255778916487 1
force Ag  -0.000001904640650  -0.000391726447558   0.000428484128584 1
force Ag  -0.000028432907871   0.000076309507136  -0.001618733110551 1
force Ag  -0.000007209157409   0.000510730812598  -0.000467928451196 1
force Ag   0.000040243951870  -0.000148100892457   0.001954925591241 1

# Energy components:
   A_diel =       -0.0009595770361259
   Eewald =     5514.7216233520202877
       EH =     6847.8667117232944292
     Eloc =   -14070.6007787115631800
      Enl =       39.4618882625443490
     EvdW =       -0.1334515795254125
      Exc =     -144.8672699380613551
 Exc_core =        2.0817048075700297
       KE =      335.3943125267140317
-------------------------------------
     Etot =    -1476.0762191340429581
       TS =        0.0002935686548501
-------------------------------------
        F =    -1476.0765127026977552


Dumping 'jdft.fillings' ... done
Dumping 'jdft.wfns' ... done
Dumping 'jdft.fluidState' ... done
Dumping 'jdft.ionpos' ... done
Dumping 'jdft.lattice' ... done
Dumping 'jdft.eigenvals' ... done
Dumping 'jdft.eigStats' ... 
	eMin: -3.525495 at state 63 ( [ +0.000000 +0.000000 +0.000000 ] spin -1 )
	HOMO: -0.141668 at state 11 ( [ +0.111111 -0.428571 +0.000000 ] spin 1 )
	mu  : -0.141647
	LUMO: -0.141538 at state 78 ( [ +0.222222 +0.142857 +0.000000 ] spin -1 )
	eMax: +0.153898 at state 17 ( [ +0.222222 +0.428571 +0.000000 ] spin 1 )
	HOMO-LUMO gap: +0.000129
	Optical gap  : +0.005942 at state 97 ( [ +0.444444 -0.142857 +0.000000 ] spin -1 )
Dumping 'jdft.Ecomponents' ... done
IonicMinimize: Iter:   2  F: -1476.076512702697755  |grad|_K:  6.981e-04  alpha:  8.214e-01  linmin: -7.997e-01  t[s]:   2533.46

#--- Lowdin population analysis ---
# oxidation-state Ag -0.067 +0.001 -0.032 -0.030 +0.156 -0.032 +0.001 -0.067 +0.156 -0.030
# magnetic-moments Ag -0.000 -0.000 -0.000 +0.000 +0.000 -0.000 -0.000 -0.000 +0.000 +0.000


Computing DFT-D3 correction:
# coordination-number Ag 8.199 8.881 8.950 6.762 4.861 8.954 8.879 8.195 4.861 6.765
# diagonal-C6 Ag 268.61 268.61 268.61 268.61 268.61 268.61 268.61 268.61 268.61 268.61
EvdW_6 =   -0.054557
EvdW_8 =   -0.078340

-------- Electronic minimization -----------
	Linear fluid (dielectric constant: 78.4, screening length: 8.12261 Bohr) occupying 0.499715 of unit cell:	Completed after 22 iterations at t[s]:   2544.22
	FillingsUpdate:  mu: +0.056108164  nElectrons: 190.000000  magneticMoment: [ Abs: 0.00000  Tot: -0.00000 ]
ElecMinimize: Iter:   0  F: -1475.477783849011075  |grad|_K:  1.096e-04  alpha:  1.000e+00
	Linear fluid (dielectric constant: 78.4, screening length: 8.12261 Bohr) occupying 0.434129 of unit cell:	Completed after 21 iterations at t[s]:   2568.13
	Linear fluid (dielectric constant: 78.4, screening length: 8.12261 Bohr) occupying 0.490167 of unit cell:	Completed after 25 iterations at t[s]:   2577.28
	FillingsUpdate:  mu: -0.246439526  nElectrons: 190.000000  magneticMoment: [ Abs: 0.00000  Tot: +0.00000 ]
	SubspaceRotationAdjust: set factor to 0.341
ElecMinimize: Iter:   1  F: -1475.972484036728474  |grad|_K:  3.851e-05  alpha:  1.908e-01  linmin: -1.631e-03  t[s]:   2588.65
	Linear fluid (dielectric constant: 78.4, screening length: 8.12261 Bohr) occupying 0.494622 of unit cell:	Completed after 20 iterations at t[s]:   2599.30
	Linear fluid (dielectric constant: 78.4, screening length: 8.12261 Bohr) occupying 0.496297 of unit cell:	Completed after 19 iterations at t[s]:   2608.15
	FillingsUpdate:  mu: -0.146374322  nElectrons: 190.000000  magneticMoment: [ Abs: 0.00000  Tot: -0.00000 ]
	SubspaceRotationAdjust: set factor to 0.35
ElecMinimize: Iter:   2  F: -1476.057733021941431  |grad|_K:  1.343e-05  alpha:  2.677e-01  linmin: -1.591e-05  t[s]:   2619.68
	Linear fluid (dielectric constant: 78.4, screening length: 8.12261 Bohr) occupying 0.497265 of unit cell:	Completed after 15 iterations at t[s]:   2630.25
	Linear fluid (dielectric constant: 78.4, screening length: 8.12261 Bohr) occupying 0.497305 of unit cell:	Completed after 10 iterations at t[s]:   2638.51
	FillingsUpdate:  mu: -0.146190751  nElectrons: 190.000000  magneticMoment: [ Abs: 0.00000  Tot: -0.00000 ]
	SubspaceRotationAdjust: set factor to 0.444
ElecMinimize: Iter:   3  F: -1476.068208064426017  |grad|_K:  6.653e-06  alpha:  2.790e-01  linmin: -6.865e-06  t[s]:   2649.96
	Linear fluid (dielectric constant: 78.4, screening length: 8.12261 Bohr) occupying 0.497799 of unit cell:	Completed after 11 iterations at t[s]:   2660.03
	Linear fluid (dielectric constant: 78.4, screening length: 8.12261 Bohr) occupying 0.498072 of unit cell:	Completed after 11 iterations at t[s]:   2668.39
	FillingsUpdate:  mu: -0.148252634  nElectrons: 190.000000  magneticMoment: [ Abs: 0.00000  Tot: -0.00000 ]
	SubspaceRotationAdjust: set factor to 0.602
ElecMinimize: Iter:   4  F: -1476.072231026959116  |grad|_K:  4.801e-06  alpha:  4.366e-01  linmin: -7.331e-06  t[s]:   2679.91
	Linear fluid (dielectric constant: 78.4, screening length: 8.12261 Bohr) occupying 0.499000 of unit cell:	Completed after 14 iterations at t[s]:   2690.16
	Linear fluid (dielectric constant: 78.4, screening length: 8.12261 Bohr) occupying 0.499260 of unit cell:	Completed after 13 iterations at t[s]:   2698.62
	FillingsUpdate:  mu: -0.136824342  nElectrons: 190.000000  magneticMoment: [ Abs: 0.00000  Tot: -0.00000 ]
	SubspaceRotationAdjust: set factor to 0.721
ElecMinimize: Iter:   5  F: -1476.074934201159067  |grad|_K:  3.819e-06  alpha:  5.629e-01  linmin: -1.022e-05  t[s]:   2710.20
	Linear fluid (dielectric constant: 78.4, screening length: 8.12261 Bohr) occupying 0.499241 of unit cell:	Completed after 14 iterations at t[s]:   2720.45
	Linear fluid (dielectric constant: 78.4, screening length: 8.12261 Bohr) occupying 0.499255 of unit cell:	Completed after 12 iterations at t[s]:   2728.86
	FillingsUpdate:  mu: -0.141573698  nElectrons: 190.000000  magneticMoment: [ Abs: 0.00000  Tot: -0.00000 ]
	SubspaceRotationAdjust: set factor to 0.897
ElecMinimize: Iter:   6  F: -1476.076111806828521  |grad|_K:  2.303e-06  alpha:  3.874e-01  linmin: -4.107e-07  t[s]:   2740.38
	Linear fluid (dielectric constant: 78.4, screening length: 8.12261 Bohr) occupying 0.499130 of unit cell:	Completed after 13 iterations at t[s]:   2750.50
	Linear fluid (dielectric constant: 78.4, screening length: 8.12261 Bohr) occupying 0.499125 of unit cell:	Completed after 2 iterations at t[s]:   2758.31
	FillingsUpdate:  mu: -0.140568950  nElectrons: 190.000000  magneticMoment: [ Abs: 0.00000  Tot: -0.00000 ]
	SubspaceRotationAdjust: set factor to 0.943
ElecMinimize: Iter:   7  F: -1476.076555658866482  |grad|_K:  1.425e-06  alpha:  4.023e-01  linmin:  6.655e-06  t[s]:   2769.77
	Linear fluid (dielectric constant: 78.4, screening length: 8.12261 Bohr) occupying 0.498806 of unit cell:	Completed after 12 iterations at t[s]:   2779.90
	Linear fluid (dielectric constant: 78.4, screening length: 8.12261 Bohr) occupying 0.498885 of unit cell:	Completed after 10 iterations at t[s]:   2788.25
	FillingsUpdate:  mu: -0.142768316  nElectrons: 190.000000  magneticMoment: [ Abs: 0.00000  Tot: -0.00000 ]
	SubspaceRotationAdjust: set factor to 0.793
ElecMinimize: Iter:   8  F: -1476.076683715374884  |grad|_K:  8.713e-07  alpha:  3.036e-01  linmin:  1.343e-06  t[s]:   2800.01
	Linear fluid (dielectric constant: 78.4, screening length: 8.12261 Bohr) occupying 0.498845 of unit cell:	Completed after 12 iterations at t[s]:   2810.22
	Linear fluid (dielectric constant: 78.4, screening length: 8.12261 Bohr) occupying 0.498851 of unit cell:	Completed after 10 iterations at t[s]:   2818.48
	FillingsUpdate:  mu: -0.141015205  nElectrons: 190.000000  magneticMoment: [ Abs: 0.00000  Tot: -0.00000 ]
	SubspaceRotationAdjust: set factor to 0.593
ElecMinimize: Iter:   9  F: -1476.076725099755549  |grad|_K:  5.486e-07  alpha:  2.620e-01  linmin:  1.995e-06  t[s]:   2830.22
	Linear fluid (dielectric constant: 78.4, screening length: 8.12261 Bohr) occupying 0.498740 of unit cell:	Completed after 11 iterations at t[s]:   2840.31
	Linear fluid (dielectric constant: 78.4, screening length: 8.12261 Bohr) occupying 0.498726 of unit cell:	Completed after 8 iterations at t[s]:   2848.46
	FillingsUpdate:  mu: -0.142546443  nElectrons: 190.000000  magneticMoment: [ Abs: 0.00000  Tot: -0.00000 ]
	SubspaceRotationAdjust: set factor to 0.515
ElecMinimize: Iter:  10  F: -1476.076743533444414  |grad|_K:  3.399e-07  alpha:  2.944e-01  linmin: -3.582e-06  t[s]:   2859.95
	Linear fluid (dielectric constant: 78.4, screening length: 8.12261 Bohr) occupying 0.498708 of unit cell:	Completed after 7 iterations at t[s]:   2869.82
	Linear fluid (dielectric constant: 78.4, screening length: 8.12261 Bohr) occupying 0.498703 of unit cell:	Completed after 2 iterations at t[s]:   2877.63
	FillingsUpdate:  mu: -0.142415586  nElectrons: 190.000000  magneticMoment: [ Abs: 0.00000  Tot: -0.00000 ]
	SubspaceRotationAdjust: set factor to 0.681
ElecMinimize: Iter:  11  F: -1476.076752840699100  |grad|_K:  2.145e-07  alpha:  3.872e-01  linmin:  8.437e-06  t[s]:   2889.15
	Linear fluid (dielectric constant: 78.4, screening length: 8.12261 Bohr) occupying 0.498721 of unit cell:	Completed after 10 iterations at t[s]:   2899.29
	Linear fluid (dielectric constant: 78.4, screening length: 8.12261 Bohr) occupying 0.498718 of unit cell:	Completed after 5 iterations at t[s]:   2907.27
	FillingsUpdate:  mu: -0.141879465  nElectrons: 190.000000  magneticMoment: [ Abs: 0.00000  Tot: -0.00000 ]
	SubspaceRotationAdjust: set factor to 0.693
ElecMinimize: Iter:  12  F: -1476.076755968140333  |grad|_K:  1.516e-07  alpha:  3.272e-01  linmin: -3.120e-05  t[s]:   2918.71
	Linear fluid (dielectric constant: 78.4, screening length: 8.12261 Bohr) occupying 0.498712 of unit cell:	Completed after 10 iterations at t[s]:   2928.77
	Linear fluid (dielectric constant: 78.4, screening length: 8.12261 Bohr) occupying 0.498712 of unit cell:	Completed after 0 iterations at t[s]:   2936.39
	FillingsUpdate:  mu: -0.142257972  nElectrons: 190.000000  magneticMoment: [ Abs: 0.00000  Tot: -0.00000 ]
	SubspaceRotationAdjust: set factor to 0.675
ElecMinimize: Iter:  13  F: -1476.076757581815173  |grad|_K:  1.012e-07  alpha:  3.363e-01  linmin: -6.078e-05  t[s]:   2947.94
	Linear fluid (dielectric constant: 78.4, screening length: 8.12261 Bohr) occupying 0.498729 of unit cell:	Completed after 8 iterations at t[s]:   2957.89
	Linear fluid (dielectric constant: 78.4, screening length: 8.12261 Bohr) occupying 0.498731 of unit cell:	Completed after 2 iterations at t[s]:   2965.70
	FillingsUpdate:  mu: -0.142139434  nElectrons: 190.000000  magneticMoment: [ Abs: 0.00000  Tot: -0.00000 ]
	SubspaceRotationAdjust: set factor to 0.86
ElecMinimize: Iter:  14  F: -1476.076758390513533  |grad|_K:  6.252e-08  alpha:  3.764e-01  linmin:  1.101e-05  t[s]:   2977.50
	Linear fluid (dielectric constant: 78.4, screening length: 8.12261 Bohr) occupying 0.498745 of unit cell:	Completed after 8 iterations at t[s]:   2987.55
	Linear fluid (dielectric constant: 78.4, screening length: 8.12261 Bohr) occupying 0.498744 of unit cell:	Completed after 2 iterations at t[s]:   2995.39
	FillingsUpdate:  mu: -0.142012530  nElectrons: 190.000000  magneticMoment: [ Abs: 0.00000  Tot: -0.00000 ]
	SubspaceRotationAdjust: set factor to 0.784
ElecMinimize: Iter:  15  F: -1476.076758660402675  |grad|_K:  4.416e-08  alpha:  3.328e-01  linmin:  2.366e-06  t[s]:   3007.17
	Linear fluid (dielectric constant: 78.4, screening length: 8.12261 Bohr) occupying 0.498743 of unit cell:	Completed after 9 iterations at t[s]:   3017.35
	Linear fluid (dielectric constant: 78.4, screening length: 8.12261 Bohr) occupying 0.498743 of unit cell:	Completed after 2 iterations at t[s]:   3025.15
	FillingsUpdate:  mu: -0.142148926  nElectrons: 190.000000  magneticMoment: [ Abs: 0.00000  Tot: -0.00000 ]
	SubspaceRotationAdjust: set factor to 0.53
ElecMinimize: Iter:  16  F: -1476.076758758692222  |grad|_K:  3.093e-08  alpha:  2.431e-01  linmin:  7.737e-05  t[s]:   3036.69
	Linear fluid (dielectric constant: 78.4, screening length: 8.12261 Bohr) occupying 0.498747 of unit cell:	Completed after 4 iterations at t[s]:   3046.40
	Linear fluid (dielectric constant: 78.4, screening length: 8.12261 Bohr) occupying 0.498748 of unit cell:	Completed after 0 iterations at t[s]:   3054.03
	FillingsUpdate:  mu: -0.142110441  nElectrons: 190.000000  magneticMoment: [ Abs: 0.00000  Tot: -0.00000 ]
	SubspaceRotationAdjust: set factor to 0.682
ElecMinimize: Iter:  17  F: -1476.076758815863059  |grad|_K:  1.706e-08  alpha:  2.877e-01  linmin: -4.537e-04  t[s]:   3065.49
ElecMinimize: Converged (|Delta F|<1.000000e-07 for 2 iters).
Setting wave functions to eigenvectors of Hamiltonian
Converging empty states (this may take a while): |deigs|: 1.536e-06

Computing DFT-D3 correction:
# coordination-number Ag 8.199 8.881 8.950 6.762 4.861 8.954 8.879 8.195 4.861 6.765
# diagonal-C6 Ag 268.61 268.61 268.61 268.61 268.61 268.61 268.61 268.61 268.61 268.61
EvdW_6 =   -0.054557
EvdW_8 =   -0.078340

# Ionic positions in cartesian coordinates:
ion Ag   3.833937294518989   1.747311332927831  13.018196582809642 1
ion Ag  -0.000710340402340   3.412015591510576   9.416827792664094 1
ion Ag   3.833796921094890   5.163048487864186   5.999681533900731 1
ion Ag  -0.000575736817604   6.870721632474282   2.411500986377570 1
ion Ag   0.001097968537320  -0.047056747116898  16.255439519179870 1
ion Ag   3.833037132882525   6.836149475791770  11.141660011697791 1
ion Ag   3.833105218464857   0.015541631799236   7.725659893323515 1
ion Ag  -0.002728140549961   1.680497483726562   4.122187344690029 1
ion Ag   3.830976877331579   3.475248603656973   0.885430952909350 1
ion Ag   0.002229804939751   5.128436507365481  14.728210382447408 1

# Forces in Cartesian coordinates:
force Ag   0.000028472725498  -0.000149927633876   0.000141706587141 1
force Ag  -0.000011710340530  -0.000609692833399   0.000442366861435 1
force Ag  -0.000017951920433  -0.000320438214934  -0.001135231202023 1
force Ag  -0.000003065251156   0.000565736859888  -0.000291252576669 1
force Ag   0.000022908688608  -0.000039386176317   0.000430448187035 1
force Ag   0.000007268954519   0.000270887131382   0.001126718694183 1
force Ag   0.000017614658655   0.000635899256773  -0.000545817416171 1
force Ag  -0.000004241833499   0.000182663412347  -0.000083392063228 1
force Ag  -0.000007971178261   0.000082999513824  -0.000408743010342 1
force Ag  -0.000016902789326  -0.000607747476614   0.000342768025239 1

# Energy components:
   A_diel =       -0.0009589034693936
   Eewald =     5477.6668169591212063
       EH =     6810.8362755947964615
     Eloc =   -13996.5081739681663748
      Enl =       39.4653779478980837
     EvdW =       -0.1328971501602058
      Exc =     -144.8574510973705003
 Exc_core =        2.0817048741377358
       KE =      335.3728315751815785
-------------------------------------
     Etot =    -1476.0764741680327461
       TS =        0.0002846478302908
-------------------------------------
        F =    -1476.0767588158630588


Dumping 'jdft.fillings' ... done
Dumping 'jdft.wfns' ... done
Dumping 'jdft.fluidState' ... done
Dumping 'jdft.ionpos' ... done
Dumping 'jdft.lattice' ... done
Dumping 'jdft.eigenvals' ... done
Dumping 'jdft.eigStats' ... 
	eMin: -3.525258 at state 63 ( [ +0.000000 +0.000000 +0.000000 ] spin -1 )
	HOMO: -0.142163 at state 15 ( [ +0.222222 +0.142857 +0.000000 ] spin 1 )
	mu  : -0.142110
	LUMO: -0.140749 at state 53 ( [ -0.222222 -0.428571 +0.000000 ] spin 1 )
	eMax: +0.153680 at state 17 ( [ +0.222222 +0.428571 +0.000000 ] spin 1 )
	HOMO-LUMO gap: +0.001413
	Optical gap  : +0.005692 at state 97 ( [ +0.444444 -0.142857 +0.000000 ] spin -1 )
Dumping 'jdft.Ecomponents' ... done
IonicMinimize: Iter:   3  F: -1476.076758815863059  |grad|_K:  4.220e-04  alpha:  1.000e+00  linmin: -1.657e-01  t[s]:   3116.62

[...]
	FillingsUpdate:  mu: -0.142348391  nElectrons: 190.000000  magneticMoment: [ Abs: 0.00000  Tot: -0.00000 ]
	SubspaceRotationAdjust: set factor to 0.475
ElecMinimize: Iter:  10  F: -1476.076887781835239  |grad|_K:  7.847e-08  alpha:  4.084e-01  linmin: -3.115e-04  t[s]:   5790.64
	Linear fluid (dielectric constant: 78.4, screening length: 8.12261 Bohr) occupying 0.496932 of unit cell:	Completed after 9 iterations at t[s]:   5801.23
	Linear fluid (dielectric constant: 78.4, screening length: 8.12261 Bohr) occupying 0.496931 of unit cell:	Completed after 2 iterations at t[s]:   5808.96
	FillingsUpdate:  mu: -0.142183067  nElectrons: 190.000000  magneticMoment: [ Abs: 0.00000  Tot: -0.00000 ]
	SubspaceRotationAdjust: set factor to 0.479
ElecMinimize: Iter:  11  F: -1476.076888246333965  |grad|_K:  4.767e-08  alpha:  3.602e-01  linmin:  1.431e-04  t[s]:   5820.46
	Linear fluid (dielectric constant: 78.4, screening length: 8.12261 Bohr) occupying 0.496931 of unit cell:	Completed after 2 iterations at t[s]:   5830.10
	Linear fluid (dielectric constant: 78.4, screening length: 8.12261 Bohr) occupying 0.496931 of unit cell:	Completed after 0 iterations at t[s]:   5837.83
	FillingsUpdate:  mu: -0.142211054  nElectrons: 190.000000  magneticMoment: [ Abs: 0.00000  Tot: -0.00000 ]
	SubspaceRotationAdjust: set factor to 0.604
ElecMinimize: Iter:  12  F: -1476.076888422534466  |grad|_K:  3.149e-08  alpha:  3.750e-01  linmin: -9.467e-05  t[s]:   5849.24
	Linear fluid (dielectric constant: 78.4, screening length: 8.12261 Bohr) occupying 0.496930 of unit cell:	Completed after 5 iterations at t[s]:   5859.02
	Linear fluid (dielectric constant: 78.4, screening length: 8.12261 Bohr) occupying 0.496930 of unit cell:	Completed after 0 iterations at t[s]:   5866.58
	FillingsUpdate:  mu: -0.142259595  nElectrons: 190.000000  magneticMoment: [ Abs: 0.00000  Tot: -0.00000 ]
	SubspaceRotationAdjust: set factor to 0.722
ElecMinimize: Iter:  13  F: -1476.076888505995612  |grad|_K:  2.288e-08  alpha:  4.001e-01  linmin: -2.930e-04  t[s]:   5878.04
	Linear fluid (dielectric constant: 78.4, screening length: 8.12261 Bohr) occupying 0.496933 of unit cell:	Completed after 3 iterations at t[s]:   5887.71
	Linear fluid (dielectric constant: 78.4, screening length: 8.12261 Bohr) occupying 0.496933 of unit cell:	Completed after 0 iterations at t[s]:   5895.46
	FillingsUpdate:  mu: -0.142211085  nElectrons: 190.000000  magneticMoment: [ Abs: 0.00000  Tot: -0.00000 ]
	SubspaceRotationAdjust: set factor to 0.685
ElecMinimize: Iter:  14  F: -1476.076888545357860  |grad|_K:  1.823e-08  alpha:  3.507e-01  linmin:  1.582e-04  t[s]:   5906.83
ElecMinimize: Converged (|Delta F|<1.000000e-07 for 2 iters).
Setting wave functions to eigenvectors of Hamiltonian
Converging empty states (this may take a while): |deigs|: 3.530e-07

Computing DFT-D3 correction:
# coordination-number Ag 8.139 8.762 8.849 6.726 4.829 8.848 8.763 8.139 4.828 6.725
# diagonal-C6 Ag 268.61 268.61 268.61 268.61 268.61 268.61 268.61 268.61 268.61 268.61
EvdW_6 =   -0.054284
EvdW_8 =   -0.077945

# Ionic positions in cartesian coordinates:
ion Ag   3.835349471274123   1.691205082296280  13.046332772543684 1
ion Ag  -0.000832029047613   3.398734686705264   9.427746697170972 1
ion Ag   3.832883923556060   5.193165572429193   5.967999066157398 1
ion Ag  -0.002541000279431   6.947532253827518   2.375235200625441 1
ion Ag   0.003405067985045  -0.116193400843904  16.305821116489561 1
ion Ag   3.833464753056797   6.804976001062875  11.173351138357660 1
ion Ag   3.833083109782029   0.028300321499192   7.712724305430127 1
ion Ag  -0.003343106802343   1.736697167106389   4.094752754519343 1
ion Ag   3.830155682725439   3.546235461351304   0.834908788189145 1
ion Ag   0.002541127749900   5.051260854565888  14.765923160516664 1

# Forces in Cartesian coordinates:
force Ag  -0.000007797561186  -0.000203770518860  -0.000099428041695 1
force Ag  -0.000002376636332  -0.000175499912779  -0.000152054763344 1
force Ag  -0.000000450864126  -0.000210537057554   0.000147741572581 1
force Ag   0.000006610927027  -0.000155166453574   0.000022829459414 1
force Ag  -0.000001734903283  -0.000226407313538  -0.000388398974180 1
force Ag  -0.000006367093883   0.000225060598344  -0.000163719930583 1
force Ag   0.000006727855452   0.000175000735557   0.000175021086108 1
force Ag  -0.000015163232940   0.000211420302554   0.000065125695460 1
force Ag   0.000008464735190   0.000212503801644   0.000406285444849 1
force Ag  -0.000002794229743   0.000169243726974  -0.000029927276078 1

# Energy components:
   A_diel =       -0.0009454992807132
   Eewald =     5435.7017027368528943
       EH =     6768.9783887030234837
     Eloc =   -13912.6776882421800110
      Enl =       39.4729985200011981
     EvdW =       -0.1322292331091454
      Exc =     -144.8457406474413744
 Exc_core =        2.0817048244409007
       KE =      335.3451963155787894
-------------------------------------
     Etot =    -1476.0766125221136917
       TS =        0.0002760232441029
-------------------------------------
        F =    -1476.0768885453578605


Dumping 'jdft.fillings' ... done
Dumping 'jdft.wfns' ... done
Dumping 'jdft.fluidState' ... done
Dumping 'jdft.ionpos' ... done
Dumping 'jdft.lattice' ... done
Dumping 'jdft.eigenvals' ... done
Dumping 'jdft.eigStats' ... 
	eMin: -3.524266 at state 0 ( [ +0.000000 +0.000000 +0.000000 ] spin 1 )
	HOMO: -0.142695 at state 24 ( [ +0.333333 +0.428571 +0.000000 ] spin 1 )
	mu  : -0.142211
	LUMO: -0.139709 at state 80 ( [ +0.222222 +0.428571 +0.000000 ] spin -1 )
	eMax: +0.153757 at state 53 ( [ -0.222222 -0.428571 +0.000000 ] spin 1 )
	HOMO-LUMO gap: +0.002985
	Optical gap  : +0.005466 at state 34 ( [ +0.444444 -0.142857 +0.000000 ] spin 1 )
Dumping 'jdft.Ecomponents' ... done
IonicMinimize: Iter:   9  F: -1476.076888545357860  |grad|_K:  1.659e-04  alpha:  1.000e+00  linmin: -1.617e-01  t[s]:   5934.89

#--- Lowdin population analysis ---
# oxidation-state Ag -0.066 +0.002 -0.030 -0.030 +0.152 -0.030 +0.002 -0.066 +0.152 -0.030
# magnetic-moments Ag +0.000 -0.000 -0.000 +0.000 +0.000 -0.000 -0.000 +0.000 -0.000 -0.000


Computing DFT-D3 correction:
# coordination-number Ag 8.148 8.778 8.866 6.732 4.846 8.864 8.780 8.150 4.847 6.730
# diagonal-C6 Ag 268.61 268.61 268.61 268.61 268.61 268.61 268.61 268.61 268.61 268.61
EvdW_6 =   -0.054332
EvdW_8 =   -0.078029

-------- Electronic minimization -----------
	Linear fluid (dielectric constant: 78.4, screening length: 8.12261 Bohr) occupying 0.496915 of unit cell:	Completed after 18 iterations at t[s]:   5945.34
	FillingsUpdate:  mu: -0.188798681  nElectrons: 190.000000  magneticMoment: [ Abs: 0.00000  Tot: -0.00000 ]
ElecMinimize: Iter:   0  F: -1476.013362597158903  |grad|_K:  3.285e-05  alpha:  1.000e+00
	Linear fluid (dielectric constant: 78.4, screening length: 8.12261 Bohr) occupying 0.507629 of unit cell:	Completed after 24 iterations at t[s]:   5969.24
	Linear fluid (dielectric constant: 78.4, screening length: 8.12261 Bohr) occupying 0.499654 of unit cell:	Completed after 23 iterations at t[s]:   5978.27
	FillingsUpdate:  mu: -0.108677882  nElectrons: 190.000000  magneticMoment: [ Abs: 0.00000  Tot: -0.00000 ]
	SubspaceRotationAdjust: set factor to 0.457
ElecMinimize: Iter:   1  F: -1476.066476551614187  |grad|_K:  1.324e-05  alpha:  2.402e-01  linmin:  6.711e-04  t[s]:   5989.65
	Linear fluid (dielectric constant: 78.4, screening length: 8.12261 Bohr) occupying 0.497944 of unit cell:	Completed after 20 iterations at t[s]:   6000.24
	Linear fluid (dielectric constant: 78.4, screening length: 8.12261 Bohr) occupying 0.498027 of unit cell:	Completed after 12 iterations at t[s]:   6008.71
	FillingsUpdate:  mu: -0.146032663  nElectrons: 190.000000  magneticMoment: [ Abs: 0.00000  Tot: -0.00000 ]
	SubspaceRotationAdjust: set factor to 0.284
ElecMinimize: Iter:   2  F: -1476.074700010058450  |grad|_K:  4.595e-06  alpha:  2.286e-01  linmin: -1.217e-05  t[s]:   6020.19
	Linear fluid (dielectric constant: 78.4, screening length: 8.12261 Bohr) occupying 0.497931 of unit cell:	Completed after 13 iterations at t[s]:   6030.41
	Linear fluid (dielectric constant: 78.4, screening length: 8.12261 Bohr) occupying 0.497906 of unit cell:	Completed after 11 iterations at t[s]:   6038.67
	FillingsUpdate:  mu: -0.142063954  nElectrons: 190.000000  magneticMoment: [ Abs: 0.00000  Tot: -0.00000 ]
	SubspaceRotationAdjust: set factor to 0.377
ElecMinimize: Iter:   3  F: -1476.075966068169464  |grad|_K:  2.340e-06  alpha:  2.880e-01  linmin:  6.145e-06  t[s]:   6050.10
	Linear fluid (dielectric constant: 78.4, screening length: 8.12261 Bohr) occupying 0.497852 of unit cell:	Completed after 12 iterations at t[s]:   6060.24
	Linear fluid (dielectric constant: 78.4, screening length: 8.12261 Bohr) occupying 0.497834 of unit cell:	Completed after 11 iterations at t[s]:   6068.52
	FillingsUpdate:  mu: -0.139111621  nElectrons: 190.000000  magneticMoment: [ Abs: 0.00000  Tot: -0.00000 ]
	SubspaceRotationAdjust: set factor to 0.468
ElecMinimize: Iter:   4  F: -1476.076402640390825  |grad|_K:  1.544e-06  alpha:  3.834e-01  linmin:  3.189e-07  t[s]:   6080.00
	Linear fluid (dielectric constant: 78.4, screening length: 8.12261 Bohr) occupying 0.497611 of unit cell:	Completed after 12 iterations at t[s]:   6090.16
	Linear fluid (dielectric constant: 78.4, screening length: 8.12261 Bohr) occupying 0.497509 of unit cell:	Completed after 11 iterations at t[s]:   6099.57
	FillingsUpdate:  mu: -0.143269642  nElectrons: 190.000000  magneticMoment: [ Abs: 0.00000  Tot: -0.00000 ]
	SubspaceRotationAdjust: set factor to 0.561
ElecMinimize: Iter:   5  F: -1476.076679220278720  |grad|_K:  1.206e-06  alpha:  5.572e-01  linmin: -3.064e-06  t[s]:   6110.92
	Linear fluid (dielectric constant: 78.4, screening length: 8.12261 Bohr) occupying 0.497404 of unit cell:	Completed after 12 iterations at t[s]:   6121.15
	Linear fluid (dielectric constant: 78.4, screening length: 8.12261 Bohr) occupying 0.497431 of unit cell:	Completed after 10 iterations at t[s]:   6129.35
	FillingsUpdate:  mu: -0.142196154  nElectrons: 190.000000  magneticMoment: [ Abs: 0.00000  Tot: -0.00000 ]
	SubspaceRotationAdjust: set factor to 0.716
ElecMinimize: Iter:   6  F: -1476.076806215173747  |grad|_K:  8.319e-07  alpha:  4.195e-01  linmin:  7.815e-07  t[s]:   6140.86
	Linear fluid (dielectric constant: 78.4, screening length: 8.12261 Bohr) occupying 0.497393 of unit cell:	Completed after 10 iterations at t[s]:   6150.92
	Linear fluid (dielectric constant: 78.4, screening length: 8.12261 Bohr) occupying 0.497393 of unit cell:	Completed after 0 iterations at t[s]:   6158.50
	FillingsUpdate:  mu: -0.141956000  nElectrons: 190.000000  magneticMoment: [ Abs: 0.00000  Tot: -0.00000 ]
	SubspaceRotationAdjust: set factor to 0.831
ElecMinimize: Iter:   7  F: -1476.076866883834100  |grad|_K:  5.414e-07  alpha:  4.214e-01  linmin: -1.518e-06  t[s]:   6169.97
	Linear fluid (dielectric constant: 78.4, screening length: 8.12261 Bohr) occupying 0.497350 of unit cell:	Completed after 11 iterations at t[s]:   6180.07
	Linear fluid (dielectric constant: 78.4, screening length: 8.12261 Bohr) occupying 0.497358 of unit cell:	Completed after 10 iterations at t[s]:   6188.35
	FillingsUpdate:  mu: -0.142858975  nElectrons: 190.000000  magneticMoment: [ Abs: 0.00000  Tot: -0.00000 ]
	SubspaceRotationAdjust: set factor to 0.768
ElecMinimize: Iter:   8  F: -1476.076887404252375  |grad|_K:  3.236e-07  alpha:  3.364e-01  linmin:  2.018e-06  t[s]:   6199.82
	Linear fluid (dielectric constant: 78.4, screening length: 8.12261 Bohr) occupying 0.497419 of unit cell:	Completed after 11 iterations at t[s]:   6209.94
	Linear fluid (dielectric constant: 78.4, screening length: 8.12261 Bohr) occupying 0.497411 of unit cell:	Completed after 8 iterations at t[s]:   6218.08
	FillingsUpdate:  mu: -0.141995640  nElectrons: 190.000000  magneticMoment: [ Abs: 0.00000  Tot: -0.00000 ]
	SubspaceRotationAdjust: set factor to 0.546
ElecMinimize: Iter:   9  F: -1476.076893727427887  |grad|_K:  1.956e-07  alpha:  2.902e-01  linmin:  3.146e-06  t[s]:   6229.43
	Linear fluid (dielectric constant: 78.4, screening length: 8.12261 Bohr) occupying 0.497410 of unit cell:	Completed after 10 iterations at t[s]:   6239.48
	Linear fluid (dielectric constant: 78.4, screening length: 8.12261 Bohr) occupying 0.497410 of unit cell:	Completed after 0 iterations at t[s]:   6247.11
	FillingsUpdate:  mu: -0.142374636  nElectrons: 190.000000  magneticMoment: [ Abs: 0.00000  Tot: -0.00000 ]
	SubspaceRotationAdjust: set factor to 0.465
ElecMinimize: Iter:  10  F: -1476.076896068687347  |grad|_K:  1.290e-07  alpha:  2.943e-01  linmin: -4.324e-05  t[s]:   6258.47
	Linear fluid (dielectric constant: 78.4, screening length: 8.12261 Bohr) occupying 0.497417 of unit cell:	Completed after 1 iterations at t[s]:   6267.98
	Linear fluid (dielectric constant: 78.4, screening length: 8.12261 Bohr) occupying 0.497418 of unit cell:	Completed after 2 iterations at t[s]:   6275.82
	FillingsUpdate:  mu: -0.142354903  nElectrons: 190.000000  magneticMoment: [ Abs: 0.00000  Tot: -0.00000 ]
	SubspaceRotationAdjust: set factor to 0.565
ElecMinimize: Iter:  11  F: -1476.076897252147546  |grad|_K:  7.607e-08  alpha:  3.410e-01  linmin:  3.723e-05  t[s]:   6287.29
	Linear fluid (dielectric constant: 78.4, screening length: 8.12261 Bohr) occupying 0.497427 of unit cell:	Completed after 8 iterations at t[s]:   6297.20
	Linear fluid (dielectric constant: 78.4, screening length: 8.12261 Bohr) occupying 0.497428 of unit cell:	Completed after 0 iterations at t[s]:   6304.85
	FillingsUpdate:  mu: -0.142199023  nElectrons: 190.000000  magneticMoment: [ Abs: 0.00000  Tot: -0.00000 ]
	SubspaceRotationAdjust: set factor to 0.596
ElecMinimize: Iter:  12  F: -1476.076897683353081  |grad|_K:  5.043e-08  alpha:  3.586e-01  linmin: -1.686e-04  t[s]:   6316.26
	Linear fluid (dielectric constant: 78.4, screening length: 8.12261 Bohr) occupying 0.497426 of unit cell:	Completed after 2 iterations at t[s]:   6325.84
	Linear fluid (dielectric constant: 78.4, screening length: 8.12261 Bohr) occupying 0.497426 of unit cell:	Completed after 0 iterations at t[s]:   6333.47
	FillingsUpdate:  mu: -0.142243689  nElectrons: 190.000000  magneticMoment: [ Abs: 0.00000  Tot: -0.00000 ]
	SubspaceRotationAdjust: set factor to 0.706
ElecMinimize: Iter:  13  F: -1476.076897872452037  |grad|_K:  3.842e-08  alpha:  3.529e-01  linmin:  4.666e-05  t[s]:   6345.08
	Linear fluid (dielectric constant: 78.4, screening length: 8.12261 Bohr) occupying 0.497425 of unit cell:	Completed after 2 iterations at t[s]:   6354.78
	Linear fluid (dielectric constant: 78.4, screening length: 8.12261 Bohr) occupying 0.497425 of unit cell:	Completed after 2 iterations at t[s]:   6362.55
	FillingsUpdate:  mu: -0.142278926  nElectrons: 190.000000  magneticMoment: [ Abs: 0.00000  Tot: -0.00000 ]
	SubspaceRotationAdjust: set factor to 0.901
ElecMinimize: Iter:  14  F: -1476.076897968615867  |grad|_K:  2.602e-08  alpha:  3.186e-01  linmin: -1.931e-04  t[s]:   6373.97
	Linear fluid (dielectric constant: 78.4, screening length: 8.12261 Bohr) occupying 0.497426 of unit cell:	Completed after 2 iterations at t[s]:   6383.54
	Linear fluid (dielectric constant: 78.4, screening length: 8.12261 Bohr) occupying 0.497426 of unit cell:	Completed after 0 iterations at t[s]:   6391.18
	FillingsUpdate:  mu: -0.142240715  nElectrons: 190.000000  magneticMoment: [ Abs: 0.00000  Tot: -0.00000 ]
	SubspaceRotationAdjust: set factor to 0.867
ElecMinimize: Iter:  15  F: -1476.076898013149730  |grad|_K:  2.027e-08  alpha:  3.083e-01  linmin:  3.219e-05  t[s]:   6403.05
ElecMinimize: Converged (|Delta F|<1.000000e-07 for 2 iters).
Setting wave functions to eigenvectors of Hamiltonian
Converging empty states (this may take a while): |deigs|: 3.905e-07

Computing DFT-D3 correction:
# coordination-number Ag 8.148 8.778 8.866 6.732 4.846 8.864 8.780 8.150 4.847 6.730
# diagonal-C6 Ag 268.61 268.61 268.61 268.61 268.61 268.61 268.61 268.61 268.61 268.61
EvdW_6 =   -0.054332
EvdW_8 =   -0.078029

# Ionic positions in cartesian coordinates:
ion Ag   3.835419855156057   1.682321153644548  13.043161136293445 1
ion Ag  -0.000732810698838   3.395353451398873   9.424075667950763 1
ion Ag   3.832741457734406   5.197410761074266   5.972661806737969 1
ion Ag  -0.002731660996718   6.958838705389037   2.379612865851581 1
ion Ag   0.003538597332576  -0.135710773885247  16.291682340852674 1
ion Ag   3.833408839293212   6.801047587745670  11.168023044905482 1
ion Ag   3.833049134852797   0.031479854238686   7.715877629625916 1
ion Ag  -0.003438505736078   1.745420470202557   4.098034261874517 1
ion Ag   3.830591613689088   3.565595590068988   0.850037985713916 1
ion Ag   0.002320479373505   5.040157200122622  14.761628260193730 1

# Forces in Cartesian coordinates:
force Ag  -0.000005123665981  -0.000039029832545  -0.000067646499078 1
force Ag  -0.000007159013319  -0.000037918528184   0.000043333454373 1
force Ag   0.000002492146928  -0.000063005601976   0.000121329654008 1
force Ag   0.000006923408262   0.000056026312239  -0.000007668692480 1
force Ag  -0.000005980643853   0.000012077752346   0.000023627741101 1
force Ag  -0.000006604305404   0.000057377243228  -0.000099806952660 1
force Ag   0.000004306214601   0.000051769244932   0.000003201800934 1
force Ag  -0.000009240386634   0.000058464912144   0.000033543157638 1
force Ag   0.000000502922876  -0.000020430411560  -0.000041242964550 1
force Ag   0.000006349545439  -0.000055996943811  -0.000018307390648 1

# Energy components:
   A_diel =       -0.0009516544843620
   Eewald =     5444.1291706385582074
       EH =     6777.3834241759641372
     Eloc =   -13929.5118871377344476
      Enl =       39.4712540970372316
     EvdW =       -0.1323606091679540
      Exc =     -144.8483665898881441
 Exc_core =        2.0817048160583105
       KE =      335.3513899691072311
-------------------------------------
     Etot =    -1476.0766222945496793
       TS =        0.0002757186000913
-------------------------------------
        F =    -1476.0768980131497301


Dumping 'jdft.fillings' ... done
Dumping 'jdft.wfns' ... done
Dumping 'jdft.fluidState' ... done
Dumping 'jdft.ionpos' ... done
Dumping 'jdft.lattice' ... done
Dumping 'jdft.eigenvals' ... done
Dumping 'jdft.eigStats' ... 
	eMin: -3.524404 at state 0 ( [ +0.000000 +0.000000 +0.000000 ] spin 1 )
	HOMO: -0.142536 at state 118 ( [ -0.222222 -0.142857 +0.000000 ] spin -1 )
	mu  : -0.142241
	LUMO: -0.139915 at state 116 ( [ -0.222222 -0.428571 +0.000000 ] spin -1 )
	eMax: +0.153806 at state 53 ( [ -0.222222 -0.428571 +0.000000 ] spin 1 )
	HOMO-LUMO gap: +0.002621
	Optical gap  : +0.005540 at state 34 ( [ +0.444444 -0.142857 +0.000000 ] spin 1 )
Dumping 'jdft.Ecomponents' ... done
IonicMinimize: Iter:  10  F: -1476.076898013149730  |grad|_K:  4.411e-05  alpha:  1.000e+00  linmin: -1.606e-01  t[s]:   6434.12
IonicMinimize: Converged (|grad|_K<1.000000e-04).

#--- Lowdin population analysis ---
# oxidation-state Ag -0.066 +0.002 -0.030 -0.029 +0.152 -0.030 +0.002 -0.066 +0.152 -0.029
# magnetic-moments Ag -0.000 +0.000 +0.000 -0.000 +0.000 -0.000 -0.000 -0.000 +0.000 -0.000


Dumping 'jdft.n_up' ... done
Dumping 'jdft.n_dn' ... done
Dumping 'jdft.tau_up' ... done
Dumping 'jdft.tau_dn' ... done
Dumping 'jdft.eigenvals' ... done
Dumping 'jdft.eigStats' ... 
	eMin: -3.524404 at state 0 ( [ +0.000000 +0.000000 +0.000000 ] spin 1 )
	HOMO: -0.142536 at state 118 ( [ -0.222222 -0.142857 +0.000000 ] spin -1 )
	mu  : -0.142241
	LUMO: -0.139915 at state 116 ( [ -0.222222 -0.428571 +0.000000 ] spin -1 )
	eMax: +0.153806 at state 53 ( [ -0.222222 -0.428571 +0.000000 ] spin 1 )
	HOMO-LUMO gap: +0.002621
	Optical gap  : +0.005540 at state 34 ( [ +0.444444 -0.142857 +0.000000 ] spin 1 )
Dumping 'jdft.kPts' ... done
Dumping 'jdft.dosUp' ... done.
Dumping 'jdft.dosDn' ... done.
End date and time: Mon Dec  6 19:02:54 2021  (Duration: 0-1:47:33.90)
Done!
