
*************** JDFTx 1.6.0  ***************

Start date and time: Thu Feb 17 03:43:59 2022
Executable /projects/musgravc/apps/jdftx-1.6.1/build/jdftx with command-line: -i in
Running on hosts (process indices):  shas0903.rc.int.colorado.edu (0-23)
Divided in process groups (process indices):  0 (0)  1 (1)  2 (2)  3 (3)  4 (4)  5 (5)  6 (6)  7 (7)  8 (8)  9 (9)  10 (10)  11 (11)  12 (12)  13 (13)  14 (14)  15 (15)  16 (16)  17 (17)  18 (18)  19 (19)  20 (20)  21 (21)  22 (22)  23 (23)
Resource initialization completed at t[s]:      0.00
Run totals: 24 processes, 24 threads, 0 GPUs


Input parsed successfully to the following command list (including defaults):

basis kpoint-dependent
converge-empty-states yes
coords-type Cartesian
core-overlap-check none
coulomb-interaction Periodic
davidson-band-ratio 1.1
density-of-states Etol 1.000000e-06 Esigma 1.000000e-03 \
		Complete \
	Total \
	OrthoOrbital Pt 1   s \
	OrthoOrbital Pt 1   p \
	OrthoOrbital Pt 1   px \
	OrthoOrbital Pt 1   py \
	OrthoOrbital Pt 1   pz \
	OrthoOrbital Pt 1   d \
	OrthoOrbital Pt 1   dxy \
	OrthoOrbital Pt 1   dyz \
	OrthoOrbital Pt 1   dz2 \
	OrthoOrbital Pt 1   dxz \
	OrthoOrbital Pt 1   dx2-y2 \
	OrthoOrbital Pt 2   s \
	OrthoOrbital Pt 2   p \
	OrthoOrbital Pt 2   px \
	OrthoOrbital Pt 2   py \
	OrthoOrbital Pt 2   pz \
	OrthoOrbital Pt 2   d \
	OrthoOrbital Pt 2   dxy \
	OrthoOrbital Pt 2   dyz \
	OrthoOrbital Pt 2   dz2 \
	OrthoOrbital Pt 2   dxz \
	OrthoOrbital Pt 2   dx2-y2 \
	OrthoOrbital Pt 3   s \
	OrthoOrbital Pt 3   p \
	OrthoOrbital Pt 3   px \
	OrthoOrbital Pt 3   py \
	OrthoOrbital Pt 3   pz \
	OrthoOrbital Pt 3   d \
	OrthoOrbital Pt 3   dxy \
	OrthoOrbital Pt 3   dyz \
	OrthoOrbital Pt 3   dz2 \
	OrthoOrbital Pt 3   dxz \
	OrthoOrbital Pt 3   dx2-y2 \
	OrthoOrbital Pt 4   s \
	OrthoOrbital Pt 4   p \
	OrthoOrbital Pt 4   px \
	OrthoOrbital Pt 4   py \
	OrthoOrbital Pt 4   pz \
	OrthoOrbital Pt 4   d \
	OrthoOrbital Pt 4   dxy \
	OrthoOrbital Pt 4   dyz \
	OrthoOrbital Pt 4   dz2 \
	OrthoOrbital Pt 4   dxz \
	OrthoOrbital Pt 4   dx2-y2 \
	OrthoOrbital Pt 5   s \
	OrthoOrbital Pt 5   p \
	OrthoOrbital Pt 5   px \
	OrthoOrbital Pt 5   py \
	OrthoOrbital Pt 5   pz \
	OrthoOrbital Pt 5   d \
	OrthoOrbital Pt 5   dxy \
	OrthoOrbital Pt 5   dyz \
	OrthoOrbital Pt 5   dz2 \
	OrthoOrbital Pt 5   dxz \
	OrthoOrbital Pt 5   dx2-y2 \
	OrthoOrbital Pt 6   s \
	OrthoOrbital Pt 6   p \
	OrthoOrbital Pt 6   px \
	OrthoOrbital Pt 6   py \
	OrthoOrbital Pt 6   pz \
	OrthoOrbital Pt 6   d \
	OrthoOrbital Pt 6   dxy \
	OrthoOrbital Pt 6   dyz \
	OrthoOrbital Pt 6   dz2 \
	OrthoOrbital Pt 6   dxz \
	OrthoOrbital Pt 6   dx2-y2 \
	OrthoOrbital Pt 7   s \
	OrthoOrbital Pt 7   p \
	OrthoOrbital Pt 7   px \
	OrthoOrbital Pt 7   py \
	OrthoOrbital Pt 7   pz \
	OrthoOrbital Pt 7   d \
	OrthoOrbital Pt 7   dxy \
	OrthoOrbital Pt 7   dyz \
	OrthoOrbital Pt 7   dz2 \
	OrthoOrbital Pt 7   dxz \
	OrthoOrbital Pt 7   dx2-y2 \
	OrthoOrbital Pt 8   s \
	OrthoOrbital Pt 8   p \
	OrthoOrbital Pt 8   px \
	OrthoOrbital Pt 8   py \
	OrthoOrbital Pt 8   pz \
	OrthoOrbital Pt 8   d \
	OrthoOrbital Pt 8   dxy \
	OrthoOrbital Pt 8   dyz \
	OrthoOrbital Pt 8   dz2 \
	OrthoOrbital Pt 8   dxz \
	OrthoOrbital Pt 8   dx2-y2 \
	OrthoOrbital Pt 9   s \
	OrthoOrbital Pt 9   p \
	OrthoOrbital Pt 9   px \
	OrthoOrbital Pt 9   py \
	OrthoOrbital Pt 9   pz \
	OrthoOrbital Pt 9   d \
	OrthoOrbital Pt 9   dxy \
	OrthoOrbital Pt 9   dyz \
	OrthoOrbital Pt 9   dz2 \
	OrthoOrbital Pt 9   dxz \
	OrthoOrbital Pt 9   dx2-y2 \
	OrthoOrbital Pt 10   s \
	OrthoOrbital Pt 10   p \
	OrthoOrbital Pt 10   px \
	OrthoOrbital Pt 10   py \
	OrthoOrbital Pt 10   pz \
	OrthoOrbital Pt 10   d \
	OrthoOrbital Pt 10   dxy \
	OrthoOrbital Pt 10   dyz \
	OrthoOrbital Pt 10   dz2 \
	OrthoOrbital Pt 10   dxz \
	OrthoOrbital Pt 10   dx2-y2 \
	OrthoOrbital Pt 11   s \
	OrthoOrbital Pt 11   p \
	OrthoOrbital Pt 11   px \
	OrthoOrbital Pt 11   py \
	OrthoOrbital Pt 11   pz \
	OrthoOrbital Pt 11   d \
	OrthoOrbital Pt 11   dxy \
	OrthoOrbital Pt 11   dyz \
	OrthoOrbital Pt 11   dz2 \
	OrthoOrbital Pt 11   dxz \
	OrthoOrbital Pt 11   dx2-y2 \
	OrthoOrbital Pt 12   s \
	OrthoOrbital Pt 12   p \
	OrthoOrbital Pt 12   px \
	OrthoOrbital Pt 12   py \
	OrthoOrbital Pt 12   pz \
	OrthoOrbital Pt 12   d \
	OrthoOrbital Pt 12   dxy \
	OrthoOrbital Pt 12   dyz \
	OrthoOrbital Pt 12   dz2 \
	OrthoOrbital Pt 12   dxz \
	OrthoOrbital Pt 12   dx2-y2 \
	OrthoOrbital Pt 13   s \
	OrthoOrbital Pt 13   p \
	OrthoOrbital Pt 13   px \
	OrthoOrbital Pt 13   py \
	OrthoOrbital Pt 13   pz \
	OrthoOrbital Pt 13   d \
	OrthoOrbital Pt 13   dxy \
	OrthoOrbital Pt 13   dyz \
	OrthoOrbital Pt 13   dz2 \
	OrthoOrbital Pt 13   dxz \
	OrthoOrbital Pt 13   dx2-y2 \
	OrthoOrbital Pt 14   s \
	OrthoOrbital Pt 14   p \
	OrthoOrbital Pt 14   px \
	OrthoOrbital Pt 14   py \
	OrthoOrbital Pt 14   pz \
	OrthoOrbital Pt 14   d \
	OrthoOrbital Pt 14   dxy \
	OrthoOrbital Pt 14   dyz \
	OrthoOrbital Pt 14   dz2 \
	OrthoOrbital Pt 14   dxz \
	OrthoOrbital Pt 14   dx2-y2 \
	OrthoOrbital Pt 15   s \
	OrthoOrbital Pt 15   p \
	OrthoOrbital Pt 15   px \
	OrthoOrbital Pt 15   py \
	OrthoOrbital Pt 15   pz \
	OrthoOrbital Pt 15   d \
	OrthoOrbital Pt 15   dxy \
	OrthoOrbital Pt 15   dyz \
	OrthoOrbital Pt 15   dz2 \
	OrthoOrbital Pt 15   dxz \
	OrthoOrbital Pt 15   dx2-y2 \
	OrthoOrbital Pt 16   s \
	OrthoOrbital Pt 16   p \
	OrthoOrbital Pt 16   px \
	OrthoOrbital Pt 16   py \
	OrthoOrbital Pt 16   pz \
	OrthoOrbital Pt 16   d \
	OrthoOrbital Pt 16   dxy \
	OrthoOrbital Pt 16   dyz \
	OrthoOrbital Pt 16   dz2 \
	OrthoOrbital Pt 16   dxz \
	OrthoOrbital Pt 16   dx2-y2 \
	OrthoOrbital Pt 17   s \
	OrthoOrbital Pt 17   p \
	OrthoOrbital Pt 17   px \
	OrthoOrbital Pt 17   py \
	OrthoOrbital Pt 17   pz \
	OrthoOrbital Pt 17   d \
	OrthoOrbital Pt 17   dxy \
	OrthoOrbital Pt 17   dyz \
	OrthoOrbital Pt 17   dz2 \
	OrthoOrbital Pt 17   dxz \
	OrthoOrbital Pt 17   dx2-y2 \
	OrthoOrbital Pt 18   s \
	OrthoOrbital Pt 18   p \
	OrthoOrbital Pt 18   px \
	OrthoOrbital Pt 18   py \
	OrthoOrbital Pt 18   pz \
	OrthoOrbital Pt 18   d \
	OrthoOrbital Pt 18   dxy \
	OrthoOrbital Pt 18   dyz \
	OrthoOrbital Pt 18   dz2 \
	OrthoOrbital Pt 18   dxz \
	OrthoOrbital Pt 18   dx2-y2 \
	OrthoOrbital Pt 19   s \
	OrthoOrbital Pt 19   p \
	OrthoOrbital Pt 19   px \
	OrthoOrbital Pt 19   py \
	OrthoOrbital Pt 19   pz \
	OrthoOrbital Pt 19   d \
	OrthoOrbital Pt 19   dxy \
	OrthoOrbital Pt 19   dyz \
	OrthoOrbital Pt 19   dz2 \
	OrthoOrbital Pt 19   dxz \
	OrthoOrbital Pt 19   dx2-y2 \
	OrthoOrbital Pt 20   s \
	OrthoOrbital Pt 20   p \
	OrthoOrbital Pt 20   px \
	OrthoOrbital Pt 20   py \
	OrthoOrbital Pt 20   pz \
	OrthoOrbital Pt 20   d \
	OrthoOrbital Pt 20   dxy \
	OrthoOrbital Pt 20   dyz \
	OrthoOrbital Pt 20   dz2 \
	OrthoOrbital Pt 20   dxz \
	OrthoOrbital Pt 20   dx2-y2 \
	OrthoOrbital Pt 21   s \
	OrthoOrbital Pt 21   p \
	OrthoOrbital Pt 21   px \
	OrthoOrbital Pt 21   py \
	OrthoOrbital Pt 21   pz \
	OrthoOrbital Pt 21   d \
	OrthoOrbital Pt 21   dxy \
	OrthoOrbital Pt 21   dyz \
	OrthoOrbital Pt 21   dz2 \
	OrthoOrbital Pt 21   dxz \
	OrthoOrbital Pt 21   dx2-y2 \
	OrthoOrbital Pt 22   s \
	OrthoOrbital Pt 22   p \
	OrthoOrbital Pt 22   px \
	OrthoOrbital Pt 22   py \
	OrthoOrbital Pt 22   pz \
	OrthoOrbital Pt 22   d \
	OrthoOrbital Pt 22   dxy \
	OrthoOrbital Pt 22   dyz \
	OrthoOrbital Pt 22   dz2 \
	OrthoOrbital Pt 22   dxz \
	OrthoOrbital Pt 22   dx2-y2 \
	OrthoOrbital Pt 23   s \
	OrthoOrbital Pt 23   p \
	OrthoOrbital Pt 23   px \
	OrthoOrbital Pt 23   py \
	OrthoOrbital Pt 23   pz \
	OrthoOrbital Pt 23   d \
	OrthoOrbital Pt 23   dxy \
	OrthoOrbital Pt 23   dyz \
	OrthoOrbital Pt 23   dz2 \
	OrthoOrbital Pt 23   dxz \
	OrthoOrbital Pt 23   dx2-y2 \
	OrthoOrbital Pt 24   s \
	OrthoOrbital Pt 24   p \
	OrthoOrbital Pt 24   px \
	OrthoOrbital Pt 24   py \
	OrthoOrbital Pt 24   pz \
	OrthoOrbital Pt 24   d \
	OrthoOrbital Pt 24   dxy \
	OrthoOrbital Pt 24   dyz \
	OrthoOrbital Pt 24   dz2 \
	OrthoOrbital Pt 24   dxz \
	OrthoOrbital Pt 24   dx2-y2 \
	OrthoOrbital C 1   s \
	OrthoOrbital C 1   p \
	OrthoOrbital C 1   px \
	OrthoOrbital C 1   py \
	OrthoOrbital C 1   pz \
	OrthoOrbital O 1   s \
	OrthoOrbital O 1   p \
	OrthoOrbital O 1   px \
	OrthoOrbital O 1   py \
	OrthoOrbital O 1   pz
dump End ElecDensity KEdensity BandEigs EigStats RhoAtom DOS Kpoints
dump Ionic State IonicPositions Lattice EigStats Ecomponents
dump 
dump 
dump 
dump 
dump 
dump 
dump 
dump 
dump-name jdft.$VAR
elec-cutoff 20
elec-eigen-algo Davidson
elec-ex-corr gga-PBE
elec-initial-magnetization 0.000000 no
elec-n-bands 237
elec-smearing Fermi 0.001
electronic-minimize  \
	dirUpdateScheme      FletcherReeves \
	linminMethod         DirUpdateRecommended \
	nIterations          100 \
	history              15 \
	knormThreshold       0 \
	energyDiffThreshold  1e-07 \
	nEnergyDiff          2 \
	alphaTstart          1 \
	alphaTmin            1e-10 \
	updateTestStepSize   yes \
	alphaTreduceFactor   0.1 \
	alphaTincreaseFactor 3 \
	nAlphaAdjustMax      3 \
	wolfeEnergy          0.0001 \
	wolfeGradient        0.9 \
	fdTest               no
exchange-regularization WignerSeitzTruncated
fluid LinearPCM 298.000000 1.013250
fluid-anion F- 0.5 MeanFieldLJ \
	epsBulk 1 \
	pMol 0 \
	epsInf 1 \
	Pvap 0 \
	sigmaBulk 0 \
	Rvdw 2.24877 \
	Res 0 \
	tauNuc 343133
fluid-cation Na+ 0.5 MeanFieldLJ \
	epsBulk 1 \
	pMol 0 \
	epsInf 1 \
	Pvap 0 \
	sigmaBulk 0 \
	Rvdw 2.19208 \
	Res 0 \
	tauNuc 343133
fluid-ex-corr lda-TF lda-PZ
fluid-gummel-loop 10 1.000000e-05
fluid-minimize  \
	dirUpdateScheme      PolakRibiere \
	linminMethod         DirUpdateRecommended \
	nIterations          400 \
	history              15 \
	knormThreshold       1e-11 \
	energyDiffThreshold  0 \
	nEnergyDiff          2 \
	alphaTstart          1 \
	alphaTmin            1e-10 \
	updateTestStepSize   yes \
	alphaTreduceFactor   0.1 \
	alphaTincreaseFactor 3 \
	nAlphaAdjustMax      6 \
	wolfeEnergy          0.0001 \
	wolfeGradient        0.9 \
	fdTest               no
fluid-solvent H2O 55.338 ScalarEOS \
	epsBulk 78.4 \
	pMol 0.92466 \
	epsInf 1.77 \
	Pvap 1.06736e-10 \
	sigmaBulk 4.62e-05 \
	Rvdw 2.61727 \
	Res 1.42 \
	tauNuc 343133 \
	poleEl 15 7 1
forces-output-coords Positions
ion Pt  -0.000046000000000   3.020563000000000   2.055063999999999 0
ion Pt  -2.616042999999999   7.551602999999998   2.055063999999999 0
ion Pt   5.231948999999999   3.020563000000000   2.055063999999999 0
ion Pt   2.615952000000000   7.551602999999998   2.055063999999999 0
ion Pt   0.000042000000000   0.000091000000000  10.683439000000000 0
ion Pt  -2.615955000000000   4.531130000000000  10.683439000000000 0
ion Pt   5.232038000000000   0.000091000000000  10.683439000000000 0
ion Pt   2.616040999999999   4.531130000000000  10.683439000000000 0
ion Pt   2.616092000000000   1.510449000000000   6.419136999999999 0
ion Pt   0.000095000000000   6.041488999999999   6.419136999999999 0
ion Pt   7.848087999999998   1.510449000000000   6.419136999999999 0
ion Pt   5.232081000000001   6.041488999999999   6.419136999999999 0
ion Pt  -0.000057000000000   3.020600000000000  14.945561999999999 0
ion Pt  -2.616048999999999   7.551629999999999  14.945561999999999 0
ion Pt   5.231938999999999   3.020600000000000  14.945561999999999 0
ion Pt   2.615947000000000   7.551629999999999  14.945561999999999 0
ion Pt   0.000052000000000   0.000127000000000  23.577845999999997 0
ion Pt  -2.615945000000000   4.531166999999999  23.577845999999997 0
ion Pt   5.232048000000000   0.000127000000000  23.577845999999997 0
ion Pt   2.616051000000000   4.531166999999999  23.577845999999997 0
ion Pt   2.615915000000000   1.510250000000000  19.213260999999996 0
ion Pt  -0.000082000000000   6.041289999999999  19.213260999999996 0
ion Pt   7.847910000000000   1.510250000000000  19.213260999999996 0
ion Pt   5.231912999999999   6.041289999999999  19.213260999999996 0
ion C   2.616051000000000   4.531166999999999  27.357328999999996 1  Linear 0 0 1
ion O   2.676146000000000   4.531166999999999  29.512612999999998 1  Linear 0 0 1
ion-species /projects/musgravc/apps/jdftx-1.6.0/build/pseudopotentials/GBRV_v1.5/$ID_pbe_v1.uspp
ion-species /projects/musgravc/apps/jdftx-1.6.0/build/pseudopotentials/GBRV_v1.5/$ID_pbe_v1.2.uspp
ion-species /projects/musgravc/apps/jdftx-1.6.0/build/pseudopotentials/GBRV_v1.5/$ID_pbe_v1.4.uspp
ion-species /projects/musgravc/apps/jdftx-1.6.0/build/pseudopotentials/GBRV_v1.5/$ID_pbe_v1.5.uspp
ion-width Ecut
ionic-minimize  \
	dirUpdateScheme      L-BFGS \
	linminMethod         DirUpdateRecommended \
	nIterations          100 \
	history              15 \
	knormThreshold       0.0001 \
	energyDiffThreshold  1e-06 \
	nEnergyDiff          2 \
	alphaTstart          1 \
	alphaTmin            1e-10 \
	updateTestStepSize   yes \
	alphaTreduceFactor   0.1 \
	alphaTincreaseFactor 3 \
	nAlphaAdjustMax      3 \
	wolfeEnergy          0.0001 \
	wolfeGradient        0.9 \
	fdTest               no
kpoint   0.000000000000   0.000000000000   0.000000000000  1.00000000000000
kpoint-folding 6 6 1 
latt-move-scale 0 0 0
latt-scale 1 1 1 
lattice  \
	  10.463991999999999   -5.231994000000000    0.000000000000000  \
	   0.000000000000000    9.062080000000000    0.000000000000000  \
	   0.000000000000000    0.000000000000000   64.078591000000003 
lattice-minimize  \
	dirUpdateScheme      L-BFGS \
	linminMethod         DirUpdateRecommended \
	nIterations          0 \
	history              15 \
	knormThreshold       0 \
	energyDiffThreshold  1e-06 \
	nEnergyDiff          2 \
	alphaTstart          1 \
	alphaTmin            1e-10 \
	updateTestStepSize   yes \
	alphaTreduceFactor   0.1 \
	alphaTincreaseFactor 3 \
	nAlphaAdjustMax      3 \
	wolfeEnergy          0.0001 \
	wolfeGradient        0.9 \
	fdTest               no
lcao-params 30 1e-06 0.001
pcm-variant CANDLE
spintype z-spin
subspace-rotation-factor 1 yes
symmetries automatic
symmetry-threshold 0.0001
van-der-waals D3



---------- Setting up symmetries ----------

Found 24 point-group symmetries of the bravais lattice
Found 1 space-group symmetries with basis
Applied RMS atom displacement 0 bohrs to make symmetries exact.

---------- Initializing the Grid ----------
R = 
[       10.464     -5.23199            0  ]
[            0      9.06208            0  ]
[            0            0      64.0786  ]
unit cell volume = 6076.29
G =
[   0.600458   0.346674         -0  ]
[          0   0.693349          0  ]
[          0         -0  0.0980544  ]
Minimum fftbox size, Smin = [  44  44  260  ]
Chosen fftbox size, S = [  48  48  270  ]

---------- Exchange Correlation functional ----------
Initalized PBE GGA exchange.
Initalized PBE GGA correlation.

---------- Setting up pseudopotentials ----------
Width of ionic core gaussian charges (only for fluid interactions / plotting) set to 0.397384

Reading pseudopotential file '/projects/musgravc/apps/jdftx-1.6.0/build/pseudopotentials/GBRV_v1.5/pt_pbe_v1.4.uspp':
  Title: Pt.  Created by USPP 7.3.6 on 31-3-15
  Reference state energy: -105.002503.  16 valence electrons in orbitals:
    |510>  occupation: 6  eigenvalue: -2.158104
    |520>  occupation: 9.5  eigenvalue: -0.335376
    |600>  occupation: 0  eigenvalue: -0.319640
    |610>  occupation: 0  eigenvalue: -0.122947
  lMax: 2  lLocal: 3  QijEcut: 5.5
  6 projectors sampled on a log grid with 745 points:
    l: 0  eig: -0.319640  rCut: 2.45
    l: 0  eig: 1.500000  rCut: 2.45
    l: 1  eig: -2.158104  rCut: 1.6
    l: 1  eig: -0.122947  rCut: 1.6
    l: 2  eig: -0.500000  rCut: 1.6
    l: 2  eig: -0.335375  rCut: 1.6
  Partial core density with radius 1.1
  Transforming core density to a uniform radial grid of dG=0.02 with 1591 points.
  Transforming local potential to a uniform radial grid of dG=0.02 with 1591 points.
  Transforming nonlocal projectors to a uniform radial grid of dG=0.02 with 432 points.
  Transforming density augmentations to a uniform radial grid of dG=0.02 with 1591 points.
  Transforming atomic orbitals to a uniform radial grid of dG=0.02 with 432 points.
  Core radius for overlap checks: 2.45 bohrs.

Reading pseudopotential file '/projects/musgravc/apps/jdftx-1.6.0/build/pseudopotentials/GBRV_v1.5/c_pbe_v1.2.uspp':
  Title: C.  Created by USPP 7.3.6 on 3-2-2014
  Reference state energy: -5.406344.  4 valence electrons in orbitals:
    |200>  occupation: 2  eigenvalue: -0.504890
    |210>  occupation: 2  eigenvalue: -0.194356
  lMax: 1  lLocal: 2  QijEcut: 5
  4 projectors sampled on a log grid with 503 points:
    l: 0  eig: -0.504890  rCut: 1.3
    l: 0  eig: 0.000000  rCut: 1.3
    l: 1  eig: -0.194357  rCut: 1.3
    l: 1  eig: 0.000000  rCut: 1.3
  Partial core density with radius 1.1
  Transforming core density to a uniform radial grid of dG=0.02 with 1591 points.
  Transforming local potential to a uniform radial grid of dG=0.02 with 1591 points.
  Transforming nonlocal projectors to a uniform radial grid of dG=0.02 with 432 points.
  Transforming density augmentations to a uniform radial grid of dG=0.02 with 1591 points.
  Transforming atomic orbitals to a uniform radial grid of dG=0.02 with 432 points.
  Core radius for overlap checks: 1.30 bohrs.

Reading pseudopotential file '/projects/musgravc/apps/jdftx-1.6.0/build/pseudopotentials/GBRV_v1.5/o_pbe_v1.2.uspp':
  Title: O.  Created by USPP 7.3.6 on 3-2-2014
  Reference state energy: -15.894388.  6 valence electrons in orbitals:
    |200>  occupation: 2  eigenvalue: -0.878823
    |210>  occupation: 4  eigenvalue: -0.332131
  lMax: 2  lLocal: 2  QijEcut: 6
  5 projectors sampled on a log grid with 511 points:
    l: 0  eig: -0.878823  rCut: 1.25
    l: 0  eig: 0.000000  rCut: 1.25
    l: 1  eig: -0.332132  rCut: 1.25
    l: 1  eig: 0.000000  rCut: 1.25
    l: 2  eig: 1.000000  rCut: 1.25
  Partial core density with radius 0.7
  Transforming core density to a uniform radial grid of dG=0.02 with 1591 points.
  Transforming local potential to a uniform radial grid of dG=0.02 with 1591 points.
  Transforming nonlocal projectors to a uniform radial grid of dG=0.02 with 432 points.
  Transforming density augmentations to a uniform radial grid of dG=0.02 with 1591 points.
  Transforming atomic orbitals to a uniform radial grid of dG=0.02 with 432 points.
  Core radius for overlap checks: 1.25 bohrs.

Initialized 3 species with 26 total atoms.

Folded 1 k-points by 6x6x1 to 36 k-points.

---------- Setting up k-points, bands, fillings ----------
Adding inversion symmetry to k-mesh for non-inversion-symmetric unit cell.
Reduced to 20 k-points under symmetry. 
Computing the number of bands and number of electrons
Calculating initial fillings.
nElectrons: 394.000000   nBands: 237   nStates: 40

----- Setting up reduced wavefunction bases (one per k-point) -----
average nbasis = 25958.417 , ideal nbasis = 25958.359

----- Initializing Supercell corresponding to k-point mesh -----
Lattice vector linear combinations in supercell:
[   6   0   0  ]
[   0   6   0  ]
[   0   0   1  ]
Supercell lattice vectors:
[  62.784  -31.392  0  ]
[  0  54.3725  0  ]
[  0  0  64.0786  ]

Initializing DFT-D3 calculator:
	Parameters set for gga-PBE functional
	s6:  1.000  s_r6:  1.217
	s8:  0.722  s_r8:  1.000
	Per-atom parameters loaded for:
	Pt:  sqrtQ[a0]:  5.888  Rcov[a0]:  2.116  CN: [ 0.00 1.92 6.67 ]
	 C:  sqrtQ[a0]:  3.105  Rcov[a0]:  1.417  CN: [ 0.00 0.99 2.00 3.00 3.98 ]
	 O:  sqrtQ[a0]:  2.594  Rcov[a0]:  1.191  CN: [ 0.00 0.99 1.99 ]

Initializing DFT-D2 calculator for fluid / solvation:
	Pt:  C6:  815.23 Eh-a0^6  R0: 3.326 a0 (WARNING: beyond Grimme's data set)
	 C:  C6:   30.35 Eh-a0^6  R0: 2.744 a0
	 O:  C6:   12.14 Eh-a0^6  R0: 2.536 a0

---------- Setting up ewald sum ----------
Optimum gaussian width for ewald sums = 4.229548 bohr.
Real space sum over 845 unit cells with max indices [  6  6  2  ]
Reciprocal space sum over 5929 terms with max indices [  5  5  24  ]

Computing DFT-D3 correction:
# coordination-number Pt 6.988 6.988 6.988 6.988 9.586 9.586 9.586 9.586 9.420 9.420 9.420 9.420 9.581 9.581 9.581 9.581 7.016 7.016 7.016 7.985 9.415 9.415 9.415 9.415
# coordination-number C 2.069
# coordination-number O 1.025
# diagonal-C6 Pt 336.87 336.87 336.87 336.87 336.87 336.87 336.87 336.87 336.87 336.87 336.87 336.87 336.87 336.87 336.87 336.87 336.87 336.87 336.87 336.87 336.87 336.87 336.87 336.87
# diagonal-C6 C 29.36
# diagonal-C6 O 12.79
EvdW_6 =   -0.219197
EvdW_8 =   -0.347659

---------- Allocating electronic variables ----------
Initializing wave functions:  linear combination of atomic orbitals
Pt pseudo-atom occupations:   s ( 0 )  p ( 6 0 )  d ( 10 )
C pseudo-atom occupations:   s ( 2 )  p ( 2 )
O pseudo-atom occupations:   s ( 2 )  p ( 4 )
	FillingsUpdate:  mu: -1.355658473  nElectrons: 394.000000  magneticMoment: [ Abs: 0.00367  Tot: +0.00034 ]
LCAOMinimize: Iter:   0  F: -2135.0842991319095745  |grad|_K:  2.279e-02  alpha:  1.000e+00
LCAOMinimize: 	Step increased F by 9.818787e+02, reducing alpha to 1.962863e-02.
LCAOMinimize: 	Step increased F by 8.646004e+00, reducing alpha to 1.962863e-03.
	FillingsUpdate:  mu: -1.566977149  nElectrons: 394.000000  magneticMoment: [ Abs: 0.00360  Tot: +0.00002 ]
LCAOMinimize: Iter:   1  F: -2138.4938361656300003  |grad|_K:  1.988e-02  alpha:  1.963e-03  linmin: -1.186e-01  cgtest:  9.671e-01  t[s]:    178.33
LCAOMinimize: Encountered beta<0, resetting CG.
LCAOMinimize: 	Predicted alpha/alphaT>3.000000, increasing alphaT to 5.888589e-03.
LCAOMinimize: 	Predicted alpha/alphaT>3.000000, increasing alphaT to 1.766577e-02.
	FillingsUpdate:  mu: -0.739277946  nElectrons: 394.000000  magneticMoment: [ Abs: 0.00349  Tot: -0.00024 ]
LCAOMinimize: Iter:   2  F: -2147.7994235939399914  |grad|_K:  1.263e-02  alpha:  8.936e-03  linmin: -6.148e-02  cgtest:  3.025e-01  t[s]:    246.98
	FillingsUpdate:  mu: +0.660670177  nElectrons: 394.000000  magneticMoment: [ Abs: 0.00321  Tot: +0.00007 ]
LCAOMinimize: Iter:   3  F: -2150.1559594343339086  |grad|_K:  1.652e-02  alpha:  1.451e-02  linmin:  8.865e-02  cgtest: -5.907e-01  t[s]:    293.00
LCAOMinimize: 	Bad step direction: g.d > 0.
LCAOMinimize: 	Undoing step.
LCAOMinimize: 	Step failed: resetting search direction.
	FillingsUpdate:  mu: +0.660670177  nElectrons: 394.000000  magneticMoment: [ Abs: 0.00321  Tot: +0.00007 ]
LCAOMinimize: Iter:   4  F: -2150.1559594343339086  |grad|_K:  1.652e-02  alpha:  0.000e+00
	FillingsUpdate:  mu: +0.231876391  nElectrons: 394.000000  magneticMoment: [ Abs: 0.00319  Tot: +0.00009 ]
LCAOMinimize: Iter:   5  F: -2152.6153460215609812  |grad|_K:  1.129e-02  alpha:  6.167e-03  linmin:  3.050e-02  cgtest: -3.236e-01  t[s]:    371.34
	FillingsUpdate:  mu: -0.097280840  nElectrons: 394.000000  magneticMoment: [ Abs: 0.00312  Tot: +0.00002 ]
LCAOMinimize: Iter:   6  F: -2153.7668246397829535  |grad|_K:  7.694e-03  alpha:  6.483e-03  linmin: -1.307e-02  cgtest:  8.418e-01  t[s]:    416.37
LCAOMinimize: Encountered beta<0, resetting CG.
	FillingsUpdate:  mu: -0.181696231  nElectrons: 394.000000  magneticMoment: [ Abs: 0.00308  Tot: +0.00004 ]
LCAOMinimize: Iter:   7  F: -2154.3344710384180871  |grad|_K:  3.771e-03  alpha:  5.402e-03  linmin:  4.604e-03  cgtest: -3.294e-02  t[s]:    461.50
LCAOMinimize: 	Predicted alpha/alphaT>3.000000, increasing alphaT to 1.620522e-02.
	FillingsUpdate:  mu: +0.162407268  nElectrons: 394.000000  magneticMoment: [ Abs: 0.00291  Tot: +0.00010 ]
LCAOMinimize: Iter:   8  F: -2155.0942962300891850  |grad|_K:  4.056e-03  alpha:  2.856e-02  linmin: -1.359e-02  cgtest:  5.302e-01  t[s]:    518.35
	FillingsUpdate:  mu: +0.129866724  nElectrons: 394.000000  magneticMoment: [ Abs: 0.00284  Tot: +0.00006 ]
LCAOMinimize: Iter:   9  F: -2155.3213261879468519  |grad|_K:  4.044e-03  alpha:  9.009e-03  linmin:  1.908e-02  cgtest: -3.238e-01  t[s]:    563.89
	FillingsUpdate:  mu: +0.103518369  nElectrons: 394.000000  magneticMoment: [ Abs: 0.00271  Tot: +0.00004 ]
LCAOMinimize: Iter:  10  F: -2155.6133437477215011  |grad|_K:  3.599e-03  alpha:  1.239e-02  linmin: -9.362e-03  cgtest:  7.933e-01  t[s]:    608.84
	FillingsUpdate:  mu: +0.058925946  nElectrons: 394.000000  magneticMoment: [ Abs: 0.00269  Tot: +0.00007 ]
LCAOMinimize: Iter:  11  F: -2155.7508609393016741  |grad|_K:  1.738e-03  alpha:  5.584e-03  linmin: -1.289e-02  cgtest:  3.314e-02  t[s]:    653.99
LCAOMinimize: 	Predicted alpha/alphaT>3.000000, increasing alphaT to 1.675302e-02.
	FillingsUpdate:  mu: +0.159347850  nElectrons: 394.000000  magneticMoment: [ Abs: 0.00263  Tot: +0.00009 ]
LCAOMinimize: Iter:  12  F: -2155.8696944988037103  |grad|_K:  1.527e-03  alpha:  2.220e-02  linmin:  1.181e-02  cgtest: -6.526e-02  t[s]:    710.76
LCAOMinimize: 	Predicted alpha/alphaT>3.000000, increasing alphaT to 6.659447e-02.
	FillingsUpdate:  mu: +0.241982361  nElectrons: 394.000000  magneticMoment: [ Abs: 0.00226  Tot: +0.00014 ]
LCAOMinimize: Iter:  13  F: -2156.2903758457018739  |grad|_K:  1.325e-03  alpha:  1.045e-01  linmin: -1.253e-02  cgtest:  6.492e-01  t[s]:    767.85
	FillingsUpdate:  mu: +0.196847257  nElectrons: 394.000000  magneticMoment: [ Abs: 0.00224  Tot: +0.00018 ]
LCAOMinimize: Iter:  14  F: -2156.3441093455921873  |grad|_K:  1.364e-03  alpha:  1.883e-02  linmin:  1.242e-02  cgtest: -1.194e-01  t[s]:    813.09
	FillingsUpdate:  mu: +0.181433146  nElectrons: 394.000000  magneticMoment: [ Abs: 0.00224  Tot: +0.00025 ]
LCAOMinimize: Iter:  15  F: -2156.3702376184542118  |grad|_K:  1.155e-03  alpha:  9.245e-03  linmin:  6.962e-04  cgtest:  2.095e-01  t[s]:    858.24
LCAOMinimize: 	Predicted alpha/alphaT>3.000000, increasing alphaT to 2.773429e-02.
	FillingsUpdate:  mu: +0.236207243  nElectrons: 394.000000  magneticMoment: [ Abs: 0.00209  Tot: +0.00007 ]
LCAOMinimize: Iter:  16  F: -2156.4473457389772193  |grad|_K:  5.777e-04  alpha:  3.288e-02  linmin: -3.677e-03  cgtest: -3.879e-01  t[s]:    915.12
	FillingsUpdate:  mu: +0.259338098  nElectrons: 394.000000  magneticMoment: [ Abs: 0.00203  Tot: +0.00006 ]
LCAOMinimize: Iter:  17  F: -2156.4813828558085333  |grad|_K:  1.489e-03  alpha:  5.643e-02  linmin:  1.510e-04  cgtest: -6.976e-02  t[s]:    960.12
	FillingsUpdate:  mu: +0.204145564  nElectrons: 394.000000  magneticMoment: [ Abs: 0.00197  Tot: +0.00006 ]
LCAOMinimize: Iter:  18  F: -2156.5259351350014185  |grad|_K:  8.385e-04  alpha:  1.167e-02  linmin:  1.429e-04  cgtest:  1.501e-01  t[s]:   1005.06
	FillingsUpdate:  mu: +0.242237890  nElectrons: 394.000000  magneticMoment: [ Abs: 0.00194  Tot: +0.00001 ]
LCAOMinimize: Iter:  19  F: -2156.5627484211181581  |grad|_K:  7.687e-04  alpha:  3.045e-02  linmin:  2.025e-03  cgtest:  8.431e-03  t[s]:   1050.05
	FillingsUpdate:  mu: +0.231995626  nElectrons: 394.000000  magneticMoment: [ Abs: 0.00194  Tot: -0.00001 ]
LCAOMinimize: Iter:  20  F: -2156.5715181155810569  |grad|_K:  6.830e-04  alpha:  8.559e-03  linmin: -1.044e-03  cgtest:  7.954e-02  t[s]:   1094.98
	FillingsUpdate:  mu: +0.176048478  nElectrons: 394.000000  magneticMoment: [ Abs: 0.00194  Tot: -0.00002 ]
LCAOMinimize: Iter:  21  F: -2156.5882817352339771  |grad|_K:  2.865e-04  alpha:  2.051e-02  linmin:  7.185e-03  cgtest: -3.831e-01  t[s]:   1139.99
	FillingsUpdate:  mu: +0.184634388  nElectrons: 394.000000  magneticMoment: [ Abs: 0.00194  Tot: -0.00003 ]
LCAOMinimize: Iter:  22  F: -2156.5916056342880438  |grad|_K:  3.806e-04  alpha:  2.548e-02  linmin:  9.163e-04  cgtest:  1.322e-01  t[s]:   1184.93
	FillingsUpdate:  mu: +0.182578337  nElectrons: 394.000000  magneticMoment: [ Abs: 0.00194  Tot: -0.00004 ]
LCAOMinimize: Iter:  23  F: -2156.5937902830219173  |grad|_K:  2.258e-04  alpha:  8.608e-03  linmin: -8.788e-04  cgtest: -1.812e-02  t[s]:   1230.03
LCAOMinimize: 	Predicted alpha/alphaT>3.000000, increasing alphaT to 2.582316e-02.
	FillingsUpdate:  mu: +0.200799261  nElectrons: 394.000000  magneticMoment: [ Abs: 0.00194  Tot: -0.00005 ]
LCAOMinimize: Iter:  24  F: -2156.5968586244925973  |grad|_K:  3.129e-04  alpha:  3.387e-02  linmin:  3.701e-04  cgtest: -5.051e-02  t[s]:   1286.97
	FillingsUpdate:  mu: +0.201698325  nElectrons: 394.000000  magneticMoment: [ Abs: 0.00194  Tot: -0.00005 ]
LCAOMinimize: Iter:  25  F: -2156.5984247694186706  |grad|_K:  1.954e-04  alpha:  9.084e-03  linmin: -3.899e-04  cgtest:  1.465e-02  t[s]:   1332.12
	FillingsUpdate:  mu: +0.197115043  nElectrons: 394.000000  magneticMoment: [ Abs: 0.00194  Tot: -0.00005 ]
LCAOMinimize: Iter:  26  F: -2156.5992495877462716  |grad|_K:  9.126e-05  alpha:  1.216e-02  linmin: -5.611e-04  cgtest: -3.421e-02  t[s]:   1377.20
	FillingsUpdate:  mu: +0.196105905  nElectrons: 394.000000  magneticMoment: [ Abs: 0.00194  Tot: -0.00006 ]
LCAOMinimize: Iter:  27  F: -2156.5994196077022025  |grad|_K:  9.655e-05  alpha:  1.152e-02  linmin: -1.515e-04  cgtest: -2.985e-03  t[s]:   1422.23
	FillingsUpdate:  mu: +0.198074445  nElectrons: 394.000000  magneticMoment: [ Abs: 0.00194  Tot: -0.00006 ]
LCAOMinimize: Iter:  28  F: -2156.5997548883292438  |grad|_K:  7.213e-05  alpha:  2.036e-02  linmin:  8.069e-05  cgtest: -1.149e-02  t[s]:   1467.80
	FillingsUpdate:  mu: +0.200279085  nElectrons: 394.000000  magneticMoment: [ Abs: 0.00195  Tot: -0.00006 ]
LCAOMinimize: Iter:  29  F: -2156.5998721811984069  |grad|_K:  6.515e-05  alpha:  1.280e-02  linmin:  4.971e-06  cgtest: -3.381e-03  t[s]:   1512.87
	FillingsUpdate:  mu: +0.202383531  nElectrons: 394.000000  magneticMoment: [ Abs: 0.00195  Tot: -0.00006 ]
LCAOMinimize: Iter:  30  F: -2156.5999596417227622  |grad|_K:  5.428e-05  alpha:  1.168e-02  linmin: -5.026e-05  cgtest: -1.682e-03  t[s]:   1557.95
LCAOMinimize: None of the convergence criteria satisfied after 30 iterations.
----- createFluidSolver() ----- (Fluid-side solver setup)
   Initializing fluid molecule 'H2O'
     Initializing site 'O'
       Electron density: proportional to exp(-r/0.36935)*erfc((r-0.51523)/0.36823) with norm 6.826
       Charge density: gaussian nuclear width 0.478731 with net site charge 0.826
       Polarizability: cuspless exponential with width 0.32 and norm 3.73
       Hard sphere radius: 2.57003 bohrs
       Positions in reference frame:
         [ +0.000000 +0.000000 +0.000000 ]
     Initializing site 'H'
       Electron density: proportional to exp(-r/0.34641)*erfc((r-0)/0.390882) with norm 0.587
       Charge density: gaussian nuclear width 0.377945 with net site charge -0.413
       Polarizability: cuspless exponential with width 0.39 and norm 3.3
       Positions in reference frame:
         [ +0.000000 -1.441945 +1.122523 ]
         [ +0.000000 +1.441945 +1.122523 ]
     Net charge: 0   dipole magnitude: 0.927204
     Initializing spherical shell mfKernel with radius 2.61727 Bohr
     deltaS corrections:
       site 'O': -7.54299
       site 'H': -6.83917
   Initializing fluid molecule 'Na+'
     Initializing site 'Na'
       Electron density: proportional to exp(-r/0.19682)*erfc((r-0.71491)/0.41314) with norm 8.1383
       Charge density: gaussian nuclear width 0.365347 with net site charge -1
       Hard sphere radius: 1.86327 bohrs
       Positions in reference frame:
         [ +0.000000 +0.000000 +0.000000 ]
     Net charge: -1   dipole magnitude: 0
     Initializing gaussian mfKernel with width: 1.55004 Bohr
     deltaS corrections:
       site 'Na': -22.3555
   Initializing fluid molecule 'F-'
     Initializing site 'F'
       Electron density: proportional to exp(-r/0.38886)*erfc((r-0)/0.438782) with norm 8
       Charge density: gaussian nuclear width 0.374796 with net site charge 1
       Hard sphere radius: 2.39995 bohrs
       Positions in reference frame:
         [ +0.000000 +0.000000 +0.000000 ]
     Net charge: 1   dipole magnitude: 0
     Initializing gaussian mfKernel with width: 1.59012 Bohr
     deltaS corrections:
       site 'F': -9.04335

Correction to mu due to finite nuclear width = -0.0643365
   Cavity determined by nc: 0.00142 and sigma: 0.707107
   Nonlocal vdW cavity from gaussian model electron density with norm = 8 and sigma = 0.993594 bohr
   Charge asymmetry in cavity with sensitivity pCavity = 36.5 e-bohr/Eh
   Electrostatic cavity expanded by eta = 1.46 bohrs
   Weighted density cavitation model constrained by Nbulk: 0.0049383 bohr^-3, Pvap: 3.14029 kPa, Rvdw: 2.61727 bohr and sigmaBulk: 4.62e-05 Eh/bohr^2 at T: 298 K.
   Weighted density dispersion model using vdW pair potentials with single solvent site with sqrtC6eff: 0.77 SI.


---- Citations for features of the code used in this run ----

   Software package:
      R. Sundararaman, K. Letchworth-Weaver, K.A. Schwarz, D. Gunceler, Y. Ozhabes and T.A. Arias, 'JDFTx: software for joint density-functional theory', SoftwareX 6, 278 (2017)

   gga-PBE exchange-correlation functional:
      J.P. Perdew, K. Burke and M. Ernzerhof, Phys. Rev. Lett. 77, 3865 (1996)

   Pseudopotentials:
      KF Garrity, JW Bennett, KM Rabe and D Vanderbilt, Comput. Mater. Sci. 81, 446 (2014)

   DFT-D3 dispersion correction:
      S. Grimme, J. Antony, S. Ehrlich and H. Krieg, J. Chem. Phys. 132, 154104 (2010)

   DFT-D2 dispersion correction:
      S. Grimme, J. Comput. Chem. 27, 1787 (2006)

   Charge-asymmetric nonlocally-determined local-electric (CANDLE) solvation model:
      R. Sundararaman and W.A. Goddard III, J. Chem. Phys. 142, 064107 (2015)

   Total energy minimization with Auxiliary Hamiltonian:
      C. Freysoldt, S. Boeck, and J. Neugebauer, Phys. Rev. B 79, 241103(R) (2009)

   Linear-tetrahedron sampling for density of states:
      G. Lehmann and M. Taut, Phys. status solidi (b) 54, 469 (1972)

This list may not be complete. Please suggest additional citations or
report any other bugs at https://github.com/shankar1729/jdftx/issues

Initialization completed successfully at t[s]:   1567.99


Computing DFT-D3 correction:
# coordination-number Pt 6.988 6.988 6.988 6.988 9.586 9.586 9.586 9.586 9.420 9.420 9.420 9.420 9.581 9.581 9.581 9.581 7.016 7.016 7.016 7.985 9.415 9.415 9.415 9.415
# coordination-number C 2.069
# coordination-number O 1.025
# diagonal-C6 Pt 336.87 336.87 336.87 336.87 336.87 336.87 336.87 336.87 336.87 336.87 336.87 336.87 336.87 336.87 336.87 336.87 336.87 336.87 336.87 336.87 336.87 336.87 336.87 336.87
# diagonal-C6 C 29.36
# diagonal-C6 O 12.79
EvdW_6 =   -0.219197
EvdW_8 =   -0.347659
Fluid solver invoked on fresh (random / LCAO) wavefunctions
Running a vacuum solve first:

-------- Initial electronic minimization -----------
	FillingsUpdate:  mu: +0.202384830  nElectrons: 394.000000  magneticMoment: [ Abs: 0.00195  Tot: -0.00006 ]
ElecMinimize: Iter:   0  F: -2156.599959641730038  |grad|_K:  6.265e-05  alpha:  1.000e+00
	FillingsUpdate:  mu: +0.281085273  nElectrons: 394.000000  magneticMoment: [ Abs: 0.00148  Tot: -0.00007 ]
	SubspaceRotationAdjust: set factor to 0.509
ElecMinimize: Iter:   1  F: -2156.944050742127274  |grad|_K:  2.244e-04  alpha:  3.601e-01  linmin:  7.915e-05  t[s]:   1666.51
ElecMinimize: 	Step increased F by 6.925567e-02, reducing alpha to 1.223457e-03.
	FillingsUpdate:  mu: +0.257913555  nElectrons: 394.000000  magneticMoment: [ Abs: 0.00146  Tot: -0.00007 ]
	SubspaceRotationAdjust: set factor to 0.269
ElecMinimize: Iter:   2  F: -2156.970314031625549  |grad|_K:  1.228e-04  alpha:  1.223e-03  linmin: -4.520e-03  t[s]:   1768.29
ElecMinimize: 	Predicted alpha/alphaT>3.000000, increasing alphaT to 3.670372e-03.
	FillingsUpdate:  mu: +0.206539265  nElectrons: 394.000000  magneticMoment: [ Abs: 0.00144  Tot: -0.00008 ]
	SubspaceRotationAdjust: set factor to 0.154
ElecMinimize: Iter:   3  F: -2157.005027649574004  |grad|_K:  3.506e-05  alpha:  5.350e-03  linmin: -5.068e-05  t[s]:   1845.74
ElecMinimize: 	Predicted alpha/alphaT>3.000000, increasing alphaT to 1.604985e-02.
ElecMinimize: 	Predicted alpha/alphaT>3.000000, increasing alphaT to 4.814954e-02.
	FillingsUpdate:  mu: +0.266496298  nElectrons: 394.000000  magneticMoment: [ Abs: 0.00136  Tot: -0.00009 ]
	SubspaceRotationAdjust: set factor to 0.105
	SubspaceRotationAdjust: resetting CG because factor has changed by 0.104949
ElecMinimize: 	State modified externally: resetting search direction.
ElecMinimize: Iter:   4  F: -2157.023217877091156  |grad|_K:  3.995e-05  alpha:  5.927e-02
	FillingsUpdate:  mu: +0.239212107  nElectrons: 394.000000  magneticMoment: [ Abs: 0.00132  Tot: -0.00008 ]
	SubspaceRotationAdjust: set factor to 0.0661
ElecMinimize: Iter:   5  F: -2157.044512110819142  |grad|_K:  2.521e-05  alpha:  5.398e-02  linmin: -1.478e-05  t[s]:   2033.65
ElecMinimize: 	Predicted alpha/alphaT>3.000000, increasing alphaT to 1.619349e-01.
	FillingsUpdate:  mu: +0.211231455  nElectrons: 394.000000  magneticMoment: [ Abs: 0.00106  Tot: -0.00008 ]
	SubspaceRotationAdjust: set factor to 0.0556
ElecMinimize: Iter:   6  F: -2157.086800576599671  |grad|_K:  1.670e-05  alpha:  2.688e-01  linmin: -1.444e-04  t[s]:   2111.15
	FillingsUpdate:  mu: +0.245456785  nElectrons: 394.000000  magneticMoment: [ Abs: 0.00076  Tot: -0.00008 ]
	SubspaceRotationAdjust: set factor to 0.0408
ElecMinimize: Iter:   7  F: -2157.112395215489414  |grad|_K:  1.113e-05  alpha:  3.696e-01  linmin: -3.332e-05  t[s]:   2172.98
	FillingsUpdate:  mu: +0.234369642  nElectrons: 394.000000  magneticMoment: [ Abs: 0.00062  Tot: -0.00007 ]
	SubspaceRotationAdjust: set factor to 0.0378
ElecMinimize: Iter:   8  F: -2157.120944904870157  |grad|_K:  6.958e-06  alpha:  2.793e-01  linmin: -1.145e-05  t[s]:   2234.52
	FillingsUpdate:  mu: +0.228090615  nElectrons: 394.000000  magneticMoment: [ Abs: 0.00058  Tot: -0.00007 ]
	SubspaceRotationAdjust: set factor to 0.0247
ElecMinimize: Iter:   9  F: -2157.122903090797081  |grad|_K:  4.766e-06  alpha:  1.641e-01  linmin:  1.510e-05  t[s]:   2296.27
	FillingsUpdate:  mu: +0.223623062  nElectrons: 394.000000  magneticMoment: [ Abs: 0.00051  Tot: -0.00007 ]
	SubspaceRotationAdjust: set factor to 0.0314
ElecMinimize: Iter:  10  F: -2157.125138801889989  |grad|_K:  3.441e-06  alpha:  3.987e-01  linmin:  3.699e-06  t[s]:   2357.98
	FillingsUpdate:  mu: +0.227960298  nElectrons: 394.000000  magneticMoment: [ Abs: 0.00048  Tot: -0.00007 ]
	SubspaceRotationAdjust: set factor to 0.0307
ElecMinimize: Iter:  11  F: -2157.126351339945813  |grad|_K:  2.633e-06  alpha:  4.145e-01  linmin:  1.385e-06  t[s]:   2419.81
	FillingsUpdate:  mu: +0.228215326  nElectrons: 394.000000  magneticMoment: [ Abs: 0.00047  Tot: -0.00007 ]
	SubspaceRotationAdjust: set factor to 0.0254
ElecMinimize: Iter:  12  F: -2157.126771717949850  |grad|_K:  2.278e-06  alpha:  2.456e-01  linmin:  1.605e-06  t[s]:   2481.63
	FillingsUpdate:  mu: +0.224916079  nElectrons: 394.000000  magneticMoment: [ Abs: 0.00045  Tot: -0.00007 ]
	SubspaceRotationAdjust: set factor to 0.0298
ElecMinimize: Iter:  13  F: -2157.127485175280526  |grad|_K:  2.176e-06  alpha:  5.565e-01  linmin:  1.517e-06  t[s]:   2543.46
	FillingsUpdate:  mu: +0.227414998  nElectrons: 394.000000  magneticMoment: [ Abs: 0.00043  Tot: -0.00006 ]
	SubspaceRotationAdjust: set factor to 0.0326
ElecMinimize: Iter:  14  F: -2157.128162958774737  |grad|_K:  2.378e-06  alpha:  5.795e-01  linmin: -2.883e-07  t[s]:   2605.22
	FillingsUpdate:  mu: +0.228438845  nElectrons: 394.000000  magneticMoment: [ Abs: 0.00042  Tot: -0.00006 ]
	SubspaceRotationAdjust: set factor to 0.027
ElecMinimize: Iter:  15  F: -2157.128658302817257  |grad|_K:  2.676e-06  alpha:  3.550e-01  linmin:  1.645e-06  t[s]:   2667.48
	FillingsUpdate:  mu: +0.224743797  nElectrons: 394.000000  magneticMoment: [ Abs: 0.00041  Tot: -0.00005 ]
	SubspaceRotationAdjust: set factor to 0.0261
ElecMinimize: Iter:  16  F: -2157.129465788355446  |grad|_K:  2.392e-06  alpha:  4.564e-01  linmin: -7.849e-07  t[s]:   2729.64
	FillingsUpdate:  mu: +0.221823232  nElectrons: 394.000000  magneticMoment: [ Abs: 0.00038  Tot: -0.00005 ]
	SubspaceRotationAdjust: set factor to 0.0285
ElecMinimize: Iter:  17  F: -2157.130316696044247  |grad|_K:  2.239e-06  alpha:  6.016e-01  linmin:  2.321e-06  t[s]:   2791.69
	FillingsUpdate:  mu: +0.224518526  nElectrons: 394.000000  magneticMoment: [ Abs: 0.00035  Tot: -0.00004 ]
	SubspaceRotationAdjust: set factor to 0.0245
ElecMinimize: Iter:  18  F: -2157.130918446485339  |grad|_K:  2.399e-06  alpha:  4.866e-01  linmin: -2.035e-06  t[s]:   2853.42
	FillingsUpdate:  mu: +0.224880834  nElectrons: 394.000000  magneticMoment: [ Abs: 0.00032  Tot: -0.00004 ]
	SubspaceRotationAdjust: set factor to 0.0182
ElecMinimize: Iter:  19  F: -2157.131356784855143  |grad|_K:  1.765e-06  alpha:  3.082e-01  linmin: -9.898e-08  t[s]:   2915.10
	FillingsUpdate:  mu: +0.222762455  nElectrons: 394.000000  magneticMoment: [ Abs: 0.00029  Tot: -0.00004 ]
	SubspaceRotationAdjust: set factor to 0.0202
ElecMinimize: Iter:  20  F: -2157.131702925571062  |grad|_K:  1.238e-06  alpha:  4.493e-01  linmin: -1.334e-06  t[s]:   2976.84
	FillingsUpdate:  mu: +0.222586800  nElectrons: 394.000000  magneticMoment: [ Abs: 0.00026  Tot: -0.00004 ]
	SubspaceRotationAdjust: set factor to 0.0194
ElecMinimize: Iter:  21  F: -2157.131885613353006  |grad|_K:  1.029e-06  alpha:  4.817e-01  linmin: -5.201e-07  t[s]:   3038.60
	FillingsUpdate:  mu: +0.222670340  nElectrons: 394.000000  magneticMoment: [ Abs: 0.00025  Tot: -0.00004 ]
	SubspaceRotationAdjust: set factor to 0.0159
ElecMinimize: Iter:  22  F: -2157.131981312086737  |grad|_K:  7.317e-07  alpha:  3.657e-01  linmin: -1.965e-07  t[s]:   3100.15
	FillingsUpdate:  mu: +0.222550792  nElectrons: 394.000000  magneticMoment: [ Abs: 0.00024  Tot: -0.00004 ]
	SubspaceRotationAdjust: set factor to 0.0172
ElecMinimize: Iter:  23  F: -2157.132038971261863  |grad|_K:  5.421e-07  alpha:  4.357e-01  linmin: -9.390e-08  t[s]:   3162.07
	FillingsUpdate:  mu: +0.222571344  nElectrons: 394.000000  magneticMoment: [ Abs: 0.00023  Tot: -0.00004 ]
	SubspaceRotationAdjust: set factor to 0.0193
ElecMinimize: Iter:  24  F: -2157.132074577762069  |grad|_K:  4.376e-07  alpha:  4.902e-01  linmin:  3.875e-07  t[s]:   3223.84
	FillingsUpdate:  mu: +0.222558009  nElectrons: 394.000000  magneticMoment: [ Abs: 0.00023  Tot: -0.00004 ]
	SubspaceRotationAdjust: set factor to 0.0193
ElecMinimize: Iter:  25  F: -2157.132096098504462  |grad|_K:  3.761e-07  alpha:  4.548e-01  linmin: -2.685e-08  t[s]:   3286.48
	FillingsUpdate:  mu: +0.222475488  nElectrons: 394.000000  magneticMoment: [ Abs: 0.00022  Tot: -0.00004 ]
	SubspaceRotationAdjust: set factor to 0.0209
ElecMinimize: Iter:  26  F: -2157.132113685402601  |grad|_K:  3.560e-07  alpha:  5.030e-01  linmin:  1.326e-07  t[s]:   3348.37
	FillingsUpdate:  mu: +0.222478091  nElectrons: 394.000000  magneticMoment: [ Abs: 0.00022  Tot: -0.00004 ]
	SubspaceRotationAdjust: set factor to 0.0246
ElecMinimize: Iter:  27  F: -2157.132134243241126  |grad|_K:  3.698e-07  alpha:  6.565e-01  linmin:  3.476e-07  t[s]:   3410.37
	FillingsUpdate:  mu: +0.222517698  nElectrons: 394.000000  magneticMoment: [ Abs: 0.00021  Tot: -0.00004 ]
	SubspaceRotationAdjust: set factor to 0.0253
ElecMinimize: Iter:  28  F: -2157.132155888891248  |grad|_K:  4.400e-07  alpha:  6.404e-01  linmin:  1.522e-07  t[s]:   3472.28
	FillingsUpdate:  mu: +0.222500952  nElectrons: 394.000000  magneticMoment: [ Abs: 0.00020  Tot: -0.00004 ]
	SubspaceRotationAdjust: set factor to 0.0221
ElecMinimize: Iter:  29  F: -2157.132178432148066  |grad|_K:  4.747e-07  alpha:  4.712e-01  linmin:  2.431e-07  t[s]:   3534.30
	FillingsUpdate:  mu: +0.222457974  nElectrons: 394.000000  magneticMoment: [ Abs: 0.00018  Tot: -0.00004 ]
	SubspaceRotationAdjust: set factor to 0.021
ElecMinimize: Iter:  30  F: -2157.132207708297756  |grad|_K:  4.398e-07  alpha:  5.257e-01  linmin:  1.152e-07  t[s]:   3596.99
	FillingsUpdate:  mu: +0.222561658  nElectrons: 394.000000  magneticMoment: [ Abs: 0.00017  Tot: -0.00003 ]
	SubspaceRotationAdjust: set factor to 0.0223
ElecMinimize: Iter:  31  F: -2157.132234500671075  |grad|_K:  4.092e-07  alpha:  5.605e-01  linmin:  2.447e-07  t[s]:   3658.83
	FillingsUpdate:  mu: +0.222450258  nElectrons: 394.000000  magneticMoment: [ Abs: 0.00015  Tot: -0.00003 ]
	SubspaceRotationAdjust: set factor to 0.0214
ElecMinimize: Iter:  32  F: -2157.132254667055349  |grad|_K:  3.460e-07  alpha:  4.873e-01  linmin:  9.049e-08  t[s]:   3720.87
	FillingsUpdate:  mu: +0.222384255  nElectrons: 394.000000  magneticMoment: [ Abs: 0.00014  Tot: -0.00003 ]
	SubspaceRotationAdjust: set factor to 0.0181
ElecMinimize: Iter:  33  F: -2157.132267001974924  |grad|_K:  2.888e-07  alpha:  4.170e-01  linmin: -7.653e-08  t[s]:   3782.55
	FillingsUpdate:  mu: +0.222497629  nElectrons: 394.000000  magneticMoment: [ Abs: 0.00013  Tot: -0.00003 ]
	SubspaceRotationAdjust: set factor to 0.0179
ElecMinimize: Iter:  34  F: -2157.132275412398030  |grad|_K:  2.111e-07  alpha:  4.079e-01  linmin:  6.641e-08  t[s]:   3844.35
	FillingsUpdate:  mu: +0.222518528  nElectrons: 394.000000  magneticMoment: [ Abs: 0.00013  Tot: -0.00003 ]
	SubspaceRotationAdjust: set factor to 0.0206
ElecMinimize: Iter:  35  F: -2157.132280789793640  |grad|_K:  1.634e-07  alpha:  4.884e-01  linmin: -5.498e-08  t[s]:   3906.66
	FillingsUpdate:  mu: +0.222441209  nElectrons: 394.000000  magneticMoment: [ Abs: 0.00012  Tot: -0.00003 ]
	SubspaceRotationAdjust: set factor to 0.0208
ElecMinimize: Iter:  36  F: -2157.132283764973181  |grad|_K:  1.423e-07  alpha:  4.508e-01  linmin:  6.923e-08  t[s]:   3968.40
	FillingsUpdate:  mu: +0.222449568  nElectrons: 394.000000  magneticMoment: [ Abs: 0.00012  Tot: -0.00003 ]
	SubspaceRotationAdjust: set factor to 0.0213
ElecMinimize: Iter:  37  F: -2157.132286108600510  |grad|_K:  1.255e-07  alpha:  4.687e-01  linmin:  1.163e-07  t[s]:   4029.96
	FillingsUpdate:  mu: +0.222491240  nElectrons: 394.000000  magneticMoment: [ Abs: 0.00012  Tot: -0.00003 ]
	SubspaceRotationAdjust: set factor to 0.025
ElecMinimize: Iter:  38  F: -2157.132288140192486  |grad|_K:  1.159e-07  alpha:  5.223e-01  linmin:  1.994e-07  t[s]:   4091.93
	FillingsUpdate:  mu: +0.222454917  nElectrons: 394.000000  magneticMoment: [ Abs: 0.00011  Tot: -0.00003 ]
	SubspaceRotationAdjust: set factor to 0.0285
ElecMinimize: Iter:  39  F: -2157.132290240061593  |grad|_K:  1.230e-07  alpha:  6.325e-01  linmin:  6.999e-08  t[s]:   4153.63
	FillingsUpdate:  mu: +0.222472091  nElectrons: 394.000000  magneticMoment: [ Abs: 0.00011  Tot: -0.00003 ]
	SubspaceRotationAdjust: set factor to 0.0272
ElecMinimize: Iter:  40  F: -2157.132292244772998  |grad|_K:  1.400e-07  alpha:  5.362e-01  linmin:  1.510e-07  t[s]:   4215.27
	FillingsUpdate:  mu: +0.222493971  nElectrons: 394.000000  magneticMoment: [ Abs: 0.00011  Tot: -0.00003 ]
	SubspaceRotationAdjust: set factor to 0.0228
ElecMinimize: Iter:  41  F: -2157.132294063996596  |grad|_K:  1.289e-07  alpha:  3.759e-01  linmin:  8.453e-08  t[s]:   4277.33
	FillingsUpdate:  mu: +0.222479901  nElectrons: 394.000000  magneticMoment: [ Abs: 0.00010  Tot: -0.00003 ]
	SubspaceRotationAdjust: set factor to 0.0234
ElecMinimize: Iter:  42  F: -2157.132296189952285  |grad|_K:  1.110e-07  alpha:  5.173e-01  linmin: -7.510e-08  t[s]:   4339.18
	FillingsUpdate:  mu: +0.222435354  nElectrons: 394.000000  magneticMoment: [ Abs: 0.00009  Tot: -0.00003 ]
	SubspaceRotationAdjust: set factor to 0.0248
ElecMinimize: Iter:  43  F: -2157.132297859477148  |grad|_K:  9.816e-08  alpha:  5.483e-01  linmin: -1.346e-08  t[s]:   4401.20
	FillingsUpdate:  mu: +0.222474401  nElectrons: 394.000000  magneticMoment: [ Abs: 0.00009  Tot: -0.00003 ]
	SubspaceRotationAdjust: set factor to 0.0231
ElecMinimize: Iter:  44  F: -2157.132298955904844  |grad|_K:  8.643e-08  alpha:  4.605e-01  linmin: -3.890e-08  t[s]:   4463.38
	FillingsUpdate:  mu: +0.222499578  nElectrons: 394.000000  magneticMoment: [ Abs: 0.00008  Tot: -0.00003 ]
	SubspaceRotationAdjust: set factor to 0.0195
ElecMinimize: Iter:  45  F: -2157.132299640864403  |grad|_K:  7.065e-08  alpha:  3.712e-01  linmin:  1.606e-07  t[s]:   4525.22
	FillingsUpdate:  mu: +0.222474951  nElectrons: 394.000000  magneticMoment: [ Abs: 0.00008  Tot: -0.00003 ]
	SubspaceRotationAdjust: set factor to 0.0214
ElecMinimize: Iter:  46  F: -2157.132300180919628  |grad|_K:  5.313e-08  alpha:  4.379e-01  linmin:  4.638e-08  t[s]:   4587.21
	FillingsUpdate:  mu: +0.222474001  nElectrons: 394.000000  magneticMoment: [ Abs: 0.00008  Tot: -0.00003 ]
	SubspaceRotationAdjust: set factor to 0.0247
ElecMinimize: Iter:  47  F: -2157.132300545859380  |grad|_K:  4.674e-08  alpha:  5.228e-01  linmin:  5.207e-07  t[s]:   4649.05
	FillingsUpdate:  mu: +0.222487496  nElectrons: 394.000000  magneticMoment: [ Abs: 0.00007  Tot: -0.00003 ]
	SubspaceRotationAdjust: set factor to 0.0253
ElecMinimize: Iter:  48  F: -2157.132300791027774  |grad|_K:  4.402e-08  alpha:  4.545e-01  linmin: -1.465e-06  t[s]:   4710.98
	FillingsUpdate:  mu: +0.222483361  nElectrons: 394.000000  magneticMoment: [ Abs: 0.00007  Tot: -0.00003 ]
	SubspaceRotationAdjust: set factor to 0.0251
ElecMinimize: Iter:  49  F: -2157.132301003274733  |grad|_K:  4.195e-08  alpha:  4.423e-01  linmin:  1.798e-08  t[s]:   4773.15
	FillingsUpdate:  mu: +0.222481583  nElectrons: 394.000000  magneticMoment: [ Abs: 0.00007  Tot: -0.00003 ]
	SubspaceRotationAdjust: set factor to 0.0279
ElecMinimize: Iter:  50  F: -2157.132301227314201  |grad|_K:  3.947e-08  alpha:  5.155e-01  linmin:  2.951e-07  t[s]:   4835.02
	FillingsUpdate:  mu: +0.222502493  nElectrons: 394.000000  magneticMoment: [ Abs: 0.00007  Tot: -0.00003 ]
	SubspaceRotationAdjust: set factor to 0.0314
ElecMinimize: Iter:  51  F: -2157.132301464418106  |grad|_K:  3.937e-08  alpha:  6.166e-01  linmin:  3.578e-07  t[s]:   4896.74
	FillingsUpdate:  mu: +0.222499591  nElectrons: 394.000000  magneticMoment: [ Abs: 0.00007  Tot: -0.00003 ]
	SubspaceRotationAdjust: set factor to 0.0326
ElecMinimize: Iter:  52  F: -2157.132301682703201  |grad|_K:  4.008e-08  alpha:  5.699e-01  linmin:  7.600e-07  t[s]:   4958.57
	FillingsUpdate:  mu: +0.222499643  nElectrons: 394.000000  magneticMoment: [ Abs: 0.00006  Tot: -0.00003 ]
	SubspaceRotationAdjust: set factor to 0.0275
ElecMinimize: Iter:  53  F: -2157.132301837600153  |grad|_K:  4.154e-08  alpha:  3.899e-01  linmin: -6.951e-07  t[s]:   5020.43
	FillingsUpdate:  mu: +0.222506453  nElectrons: 394.000000  magneticMoment: [ Abs: 0.00006  Tot: -0.00003 ]
	SubspaceRotationAdjust: set factor to 0.0226
ElecMinimize: Iter:  54  F: -2157.132301974285838  |grad|_K:  3.195e-08  alpha:  3.211e-01  linmin: -7.383e-08  t[s]:   5082.13
	FillingsUpdate:  mu: +0.222522615  nElectrons: 394.000000  magneticMoment: [ Abs: 0.00006  Tot: -0.00003 ]
	SubspaceRotationAdjust: set factor to 0.0248
ElecMinimize: Iter:  55  F: -2157.132302099023491  |grad|_K:  2.644e-08  alpha:  4.978e-01  linmin:  5.836e-06  t[s]:   5144.01
	FillingsUpdate:  mu: +0.222517260  nElectrons: 394.000000  magneticMoment: [ Abs: 0.00005  Tot: -0.00003 ]
	SubspaceRotationAdjust: set factor to 0.026
ElecMinimize: Iter:  56  F: -2157.132302181279101  |grad|_K:  2.263e-08  alpha:  4.790e-01  linmin: -4.267e-08  t[s]:   5205.81
	FillingsUpdate:  mu: +0.222514795  nElectrons: 394.000000  magneticMoment: [ Abs: 0.00005  Tot: -0.00003 ]
	SubspaceRotationAdjust: set factor to 0.0236
ElecMinimize: Iter:  57  F: -2157.132302230904770  |grad|_K:  2.000e-08  alpha:  3.926e-01  linmin:  3.419e-06  t[s]:   5267.77
ElecMinimize: Converged (|Delta F|<1.000000e-07 for 2 iters).
Setting wave functions to eigenvectors of Hamiltonian
Converging empty states (this may take a while): |deigs|: 2.241e-03
Vacuum energy after initial minimize, F = -2157.132302230904770


-------- Electronic minimization -----------
	Linear fluid (dielectric constant: 78.4, screening length: 8.12261 Bohr) occupying 0.432922 of unit cell:	Completed after 28 iterations at t[s]:   5553.91
	FillingsUpdate:  mu: -0.193160068  nElectrons: 394.000000  magneticMoment: [ Abs: 0.00003  Tot: -0.00002 ]
ElecMinimize: Iter:   0  F: -2157.135033514642146  |grad|_K:  8.902e-07  alpha:  1.000e+00
	Linear fluid (dielectric constant: 78.4, screening length: 8.12261 Bohr) occupying 0.433243 of unit cell:	Completed after 17 iterations at t[s]:   5606.99
	Linear fluid (dielectric constant: 78.4, screening length: 8.12261 Bohr) occupying 0.433052 of unit cell:	Completed after 14 iterations at t[s]:   5626.50
	FillingsUpdate:  mu: -0.193374024  nElectrons: 394.000000  magneticMoment: [ Abs: 0.00003  Tot: -0.00002 ]
	SubspaceRotationAdjust: set factor to 0.024
ElecMinimize: Iter:   1  F: -2157.135112994416886  |grad|_K:  6.791e-07  alpha:  4.058e-01  linmin:  1.806e-07  t[s]:   5652.10
	Linear fluid (dielectric constant: 78.4, screening length: 8.12261 Bohr) occupying 0.433224 of unit cell:	Completed after 17 iterations at t[s]:   5676.58
	Linear fluid (dielectric constant: 78.4, screening length: 8.12261 Bohr) occupying 0.433301 of unit cell:	Completed after 11 iterations at t[s]:   5695.63
	FillingsUpdate:  mu: -0.193966233  nElectrons: 394.000000  magneticMoment: [ Abs: 0.00003  Tot: -0.00002 ]
	SubspaceRotationAdjust: set factor to 0.0228
ElecMinimize: Iter:   2  F: -2157.135179488590438  |grad|_K:  4.193e-07  alpha:  5.818e-01  linmin: -6.462e-06  t[s]:   5721.27
	Linear fluid (dielectric constant: 78.4, screening length: 8.12261 Bohr) occupying 0.433423 of unit cell:	Completed after 12 iterations at t[s]:   5745.13
	Linear fluid (dielectric constant: 78.4, screening length: 8.12261 Bohr) occupying 0.433444 of unit cell:	Completed after 7 iterations at t[s]:   5763.67
	FillingsUpdate:  mu: -0.193184697  nElectrons: 394.000000  magneticMoment: [ Abs: 0.00003  Tot: -0.00002 ]
	SubspaceRotationAdjust: set factor to 0.0283
ElecMinimize: Iter:   3  F: -2157.135209420951014  |grad|_K:  3.535e-07  alpha:  6.838e-01  linmin: -3.571e-07  t[s]:   5789.20
	Linear fluid (dielectric constant: 78.4, screening length: 8.12261 Bohr) occupying 0.433533 of unit cell:	Completed after 10 iterations at t[s]:   5812.59
	Linear fluid (dielectric constant: 78.4, screening length: 8.12261 Bohr) occupying 0.433530 of unit cell:	Completed after 2 iterations at t[s]:   5830.12
	FillingsUpdate:  mu: -0.193098271  nElectrons: 394.000000  magneticMoment: [ Abs: 0.00003  Tot: -0.00002 ]
	SubspaceRotationAdjust: set factor to 0.0339
ElecMinimize: Iter:   4  F: -2157.135229793240342  |grad|_K:  3.247e-07  alpha:  6.588e-01  linmin:  5.712e-08  t[s]:   5855.62
	Linear fluid (dielectric constant: 78.4, screening length: 8.12261 Bohr) occupying 0.433580 of unit cell:	Completed after 11 iterations at t[s]:   5879.03
	Linear fluid (dielectric constant: 78.4, screening length: 8.12261 Bohr) occupying 0.433589 of unit cell:	Completed after 7 iterations at t[s]:   5897.49
	FillingsUpdate:  mu: -0.192753522  nElectrons: 394.000000  magneticMoment: [ Abs: 0.00003  Tot: -0.00002 ]
	SubspaceRotationAdjust: set factor to 0.0403
ElecMinimize: Iter:   5  F: -2157.135249925602238  |grad|_K:  3.262e-07  alpha:  7.727e-01  linmin: -1.070e-07  t[s]:   5923.19
	Linear fluid (dielectric constant: 78.4, screening length: 8.12261 Bohr) occupying 0.433618 of unit cell:	Completed after 11 iterations at t[s]:   5946.74
	Linear fluid (dielectric constant: 78.4, screening length: 8.12261 Bohr) occupying 0.433622 of unit cell:	Completed after 4 iterations at t[s]:   5965.03
	FillingsUpdate:  mu: -0.192357754  nElectrons: 394.000000  magneticMoment: [ Abs: 0.00003  Tot: -0.00002 ]
	SubspaceRotationAdjust: set factor to 0.0458
ElecMinimize: Iter:   6  F: -2157.135272638828610  |grad|_K:  3.469e-07  alpha:  8.629e-01  linmin: -1.178e-07  t[s]:   5990.66
	Linear fluid (dielectric constant: 78.4, screening length: 8.12261 Bohr) occupying 0.433640 of unit cell:	Completed after 9 iterations at t[s]:   6014.03
	Linear fluid (dielectric constant: 78.4, screening length: 8.12261 Bohr) occupying 0.433636 of unit cell:	Completed after 6 iterations at t[s]:   6032.37
	FillingsUpdate:  mu: -0.192183010  nElectrons: 394.000000  magneticMoment: [ Abs: 0.00003  Tot: -0.00002 ]
	SubspaceRotationAdjust: set factor to 0.0506
ElecMinimize: Iter:   7  F: -2157.135292822798874  |grad|_K:  3.584e-07  alpha:  6.780e-01  linmin: -1.409e-08  t[s]:   6057.86
	Linear fluid (dielectric constant: 78.4, screening length: 8.12261 Bohr) occupying 0.433654 of unit cell:	Completed after 11 iterations at t[s]:   6081.58
	Linear fluid (dielectric constant: 78.4, screening length: 8.12261 Bohr) occupying 0.433652 of unit cell:	Completed after 7 iterations at t[s]:   6099.97
	FillingsUpdate:  mu: -0.192065267  nElectrons: 394.000000  magneticMoment: [ Abs: 0.00003  Tot: -0.00002 ]
	SubspaceRotationAdjust: set factor to 0.057
ElecMinimize: Iter:   8  F: -2157.135311273073057  |grad|_K:  3.256e-07  alpha:  5.811e-01  linmin:  1.908e-08  t[s]:   6125.60
	Linear fluid (dielectric constant: 78.4, screening length: 8.12261 Bohr) occupying 0.433666 of unit cell:	Completed after 11 iterations at t[s]:   6149.23
	Linear fluid (dielectric constant: 78.4, screening length: 8.12261 Bohr) occupying 0.433666 of unit cell:	Completed after 0 iterations at t[s]:   6166.60
	FillingsUpdate:  mu: -0.191729677  nElectrons: 394.000000  magneticMoment: [ Abs: 0.00003  Tot: -0.00002 ]
	SubspaceRotationAdjust: set factor to 0.0644
ElecMinimize: Iter:   9  F: -2157.135327058471830  |grad|_K:  2.842e-07  alpha:  6.028e-01  linmin: -1.706e-07  t[s]:   6192.24
	Linear fluid (dielectric constant: 78.4, screening length: 8.12261 Bohr) occupying 0.433693 of unit cell:	Completed after 11 iterations at t[s]:   6216.14
	Linear fluid (dielectric constant: 78.4, screening length: 8.12261 Bohr) occupying 0.433691 of unit cell:	Completed after 2 iterations at t[s]:   6233.83
	FillingsUpdate:  mu: -0.191852847  nElectrons: 394.000000  magneticMoment: [ Abs: 0.00003  Tot: -0.00002 ]
	SubspaceRotationAdjust: set factor to 0.0621
ElecMinimize: Iter:  10  F: -2157.135338442421471  |grad|_K:  2.952e-07  alpha:  5.685e-01  linmin:  9.959e-08  t[s]:   6259.34
	Linear fluid (dielectric constant: 78.4, screening length: 8.12261 Bohr) occupying 0.433697 of unit cell:	Completed after 13 iterations at t[s]:   6283.49
	Linear fluid (dielectric constant: 78.4, screening length: 8.12261 Bohr) occupying 0.433694 of unit cell:	Completed after 11 iterations at t[s]:   6302.79
	FillingsUpdate:  mu: -0.191543335  nElectrons: 394.000000  magneticMoment: [ Abs: 0.00003  Tot: -0.00002 ]
	SubspaceRotationAdjust: set factor to 0.0453
ElecMinimize: Iter:  11  F: -2157.135343714410737  |grad|_K:  2.437e-07  alpha:  2.469e-01  linmin:  6.024e-08  t[s]:   6328.18
	Linear fluid (dielectric constant: 78.4, screening length: 8.12261 Bohr) occupying 0.433708 of unit cell:	Completed after 9 iterations at t[s]:   6351.65
	Linear fluid (dielectric constant: 78.4, screening length: 8.12261 Bohr) occupying 0.433720 of unit cell:	Completed after 9 iterations at t[s]:   6370.46
	FillingsUpdate:  mu: -0.191464639  nElectrons: 394.000000  magneticMoment: [ Abs: 0.00002  Tot: -0.00002 ]
	SubspaceRotationAdjust: set factor to 0.0469
ElecMinimize: Iter:  12  F: -2157.135350195312185  |grad|_K:  1.681e-07  alpha:  4.416e-01  linmin: -8.860e-08  t[s]:   6396.15
	Linear fluid (dielectric constant: 78.4, screening length: 8.12261 Bohr) occupying 0.433733 of unit cell:	Completed after 6 iterations at t[s]:   6418.90
	Linear fluid (dielectric constant: 78.4, screening length: 8.12261 Bohr) occupying 0.433738 of unit cell:	Completed after 2 iterations at t[s]:   6436.50
	FillingsUpdate:  mu: -0.191597817  nElectrons: 394.000000  magneticMoment: [ Abs: 0.00002  Tot: -0.00002 ]
	SubspaceRotationAdjust: set factor to 0.0525
ElecMinimize: Iter:  13  F: -2157.135354232375903  |grad|_K:  1.365e-07  alpha:  5.772e-01  linmin: -8.240e-08  t[s]:   6462.27
	Linear fluid (dielectric constant: 78.4, screening length: 8.12261 Bohr) occupying 0.433752 of unit cell:	Completed after 8 iterations at t[s]:   6485.41
	Linear fluid (dielectric constant: 78.4, screening length: 8.12261 Bohr) occupying 0.433751 of unit cell:	Completed after 1 iterations at t[s]:   6502.87
	FillingsUpdate:  mu: -0.191389192  nElectrons: 394.000000  magneticMoment: [ Abs: 0.00002  Tot: -0.00002 ]
	SubspaceRotationAdjust: set factor to 0.0579
ElecMinimize: Iter:  14  F: -2157.135356681906615  |grad|_K:  1.215e-07  alpha:  5.311e-01  linmin:  3.182e-07  t[s]:   6528.43
	Linear fluid (dielectric constant: 78.4, screening length: 8.12261 Bohr) occupying 0.433768 of unit cell:	Completed after 10 iterations at t[s]:   6551.77
	Linear fluid (dielectric constant: 78.4, screening length: 8.12261 Bohr) occupying 0.433764 of unit cell:	Completed after 5 iterations at t[s]:   6569.94
	FillingsUpdate:  mu: -0.191554414  nElectrons: 394.000000  magneticMoment: [ Abs: 0.00002  Tot: -0.00002 ]
	SubspaceRotationAdjust: set factor to 0.0529
ElecMinimize: Iter:  15  F: -2157.135358162330249  |grad|_K:  1.212e-07  alpha:  4.085e-01  linmin:  3.827e-08  t[s]:   6595.74
	Linear fluid (dielectric constant: 78.4, screening length: 8.12261 Bohr) occupying 0.433770 of unit cell:	Completed after 10 iterations at t[s]:   6619.02
	Linear fluid (dielectric constant: 78.4, screening length: 8.12261 Bohr) occupying 0.433768 of unit cell:	Completed after 7 iterations at t[s]:   6637.39
	FillingsUpdate:  mu: -0.191567268  nElectrons: 394.000000  magneticMoment: [ Abs: 0.00002  Tot: -0.00002 ]
	SubspaceRotationAdjust: set factor to 0.0454
ElecMinimize: Iter:  16  F: -2157.135359314798734  |grad|_K:  1.013e-07  alpha:  3.186e-01  linmin: -1.375e-07  t[s]:   6663.08
	Linear fluid (dielectric constant: 78.4, screening length: 8.12261 Bohr) occupying 0.433775 of unit cell:	Completed after 4 iterations at t[s]:   6685.56
	Linear fluid (dielectric constant: 78.4, screening length: 8.12261 Bohr) occupying 0.433779 of unit cell:	Completed after 4 iterations at t[s]:   6703.51
	FillingsUpdate:  mu: -0.191566232  nElectrons: 394.000000  magneticMoment: [ Abs: 0.00002  Tot: -0.00002 ]
	SubspaceRotationAdjust: set factor to 0.0527
ElecMinimize: Iter:  17  F: -2157.135360622942699  |grad|_K:  8.480e-08  alpha:  5.167e-01  linmin:  3.005e-07  t[s]:   6729.26
	Linear fluid (dielectric constant: 78.4, screening length: 8.12261 Bohr) occupying 0.433784 of unit cell:	Completed after 6 iterations at t[s]:   6752.31
	Linear fluid (dielectric constant: 78.4, screening length: 8.12261 Bohr) occupying 0.433785 of unit cell:	Completed after 1 iterations at t[s]:   6769.64
	FillingsUpdate:  mu: -0.191650918  nElectrons: 394.000000  magneticMoment: [ Abs: 0.00002  Tot: -0.00002 ]
	SubspaceRotationAdjust: set factor to 0.0606
ElecMinimize: Iter:  18  F: -2157.135361659364207  |grad|_K:  8.029e-08  alpha:  5.861e-01  linmin: -3.309e-07  t[s]:   6795.14
	Linear fluid (dielectric constant: 78.4, screening length: 8.12261 Bohr) occupying 0.433784 of unit cell:	Completed after 8 iterations at t[s]:   6818.15
	Linear fluid (dielectric constant: 78.4, screening length: 8.12261 Bohr) occupying 0.433784 of unit cell:	Completed after 5 iterations at t[s]:   6836.38
	FillingsUpdate:  mu: -0.191709775  nElectrons: 394.000000  magneticMoment: [ Abs: 0.00002  Tot: -0.00002 ]
	SubspaceRotationAdjust: set factor to 0.0534
ElecMinimize: Iter:  19  F: -2157.135362383339270  |grad|_K:  8.669e-08  alpha:  4.500e-01  linmin:  5.531e-07  t[s]:   6863.37
	Linear fluid (dielectric constant: 78.4, screening length: 8.12261 Bohr) occupying 0.433788 of unit cell:	Completed after 8 iterations at t[s]:   6886.64
	Linear fluid (dielectric constant: 78.4, screening length: 8.12261 Bohr) occupying 0.433787 of unit cell:	Completed after 7 iterations at t[s]:   6905.01
	FillingsUpdate:  mu: -0.191794485  nElectrons: 394.000000  magneticMoment: [ Abs: 0.00002  Tot: -0.00002 ]
	SubspaceRotationAdjust: set factor to 0.041
ElecMinimize: Iter:  20  F: -2157.135362904311023  |grad|_K:  6.622e-08  alpha:  2.850e-01  linmin:  1.114e-07  t[s]:   6930.79
	Linear fluid (dielectric constant: 78.4, screening length: 8.12261 Bohr) occupying 0.433785 of unit cell:	Completed after 2 iterations at t[s]:   6953.06
	Linear fluid (dielectric constant: 78.4, screening length: 8.12261 Bohr) occupying 0.433784 of unit cell:	Completed after 4 iterations at t[s]:   6971.01
	FillingsUpdate:  mu: -0.191800637  nElectrons: 394.000000  magneticMoment: [ Abs: 0.00002  Tot: -0.00002 ]
	SubspaceRotationAdjust: set factor to 0.0459
ElecMinimize: Iter:  21  F: -2157.135363445751864  |grad|_K:  5.035e-08  alpha:  5.040e-01  linmin:  4.577e-07  t[s]:   6996.56
	Linear fluid (dielectric constant: 78.4, screening length: 8.12261 Bohr) occupying 0.433781 of unit cell:	Completed after 7 iterations at t[s]:   7019.65
	Linear fluid (dielectric constant: 78.4, screening length: 8.12261 Bohr) occupying 0.433781 of unit cell:	Completed after 0 iterations at t[s]:   7036.77
	FillingsUpdate:  mu: -0.191887563  nElectrons: 394.000000  magneticMoment: [ Abs: 0.00002  Tot: -0.00002 ]
	SubspaceRotationAdjust: set factor to 0.0465
ElecMinimize: Iter:  22  F: -2157.135363753889123  |grad|_K:  4.157e-08  alpha:  4.952e-01  linmin: -9.109e-07  t[s]:   7062.43
	Linear fluid (dielectric constant: 78.4, screening length: 8.12261 Bohr) occupying 0.433779 of unit cell:	Completed after 6 iterations at t[s]:   7085.22
	Linear fluid (dielectric constant: 78.4, screening length: 8.12261 Bohr) occupying 0.433780 of unit cell:	Completed after 2 iterations at t[s]:   7102.96
	FillingsUpdate:  mu: -0.191890934  nElectrons: 394.000000  magneticMoment: [ Abs: 0.00002  Tot: -0.00002 ]
	SubspaceRotationAdjust: set factor to 0.0386
ElecMinimize: Iter:  23  F: -2157.135363916504048  |grad|_K:  3.757e-08  alpha:  3.797e-01  linmin:  1.622e-06  t[s]:   7128.69
	Linear fluid (dielectric constant: 78.4, screening length: 8.12261 Bohr) occupying 0.433776 of unit cell:	Completed after 6 iterations at t[s]:   7151.81
	Linear fluid (dielectric constant: 78.4, screening length: 8.12261 Bohr) occupying 0.433777 of unit cell:	Completed after 0 iterations at t[s]:   7169.89
	FillingsUpdate:  mu: -0.191878937  nElectrons: 394.000000  magneticMoment: [ Abs: 0.00002  Tot: -0.00002 ]
	SubspaceRotationAdjust: set factor to 0.031
ElecMinimize: Iter:  24  F: -2157.135364025892159  |grad|_K:  2.715e-08  alpha:  3.187e-01  linmin:  4.663e-06  t[s]:   7195.61
	Linear fluid (dielectric constant: 78.4, screening length: 8.12261 Bohr) occupying 0.433776 of unit cell:	Completed after 2 iterations at t[s]:   7217.81
	Linear fluid (dielectric constant: 78.4, screening length: 8.12261 Bohr) occupying 0.433775 of unit cell:	Completed after 0 iterations at t[s]:   7234.94
	FillingsUpdate:  mu: -0.191911280  nElectrons: 394.000000  magneticMoment: [ Abs: 0.00002  Tot: -0.00002 ]
	SubspaceRotationAdjust: set factor to 0.0354
ElecMinimize: Iter:  25  F: -2157.135364098722675  |grad|_K:  1.741e-08  alpha:  4.035e-01  linmin: -1.847e-05  t[s]:   7260.67
	Linear fluid (dielectric constant: 78.4, screening length: 8.12261 Bohr) occupying 0.433775 of unit cell:	Completed after 0 iterations at t[s]:   7282.46
	Linear fluid (dielectric constant: 78.4, screening length: 8.12261 Bohr) occupying 0.433775 of unit cell:	Completed after 2 iterations at t[s]:   7300.21
	FillingsUpdate:  mu: -0.191945566  nElectrons: 394.000000  magneticMoment: [ Abs: 0.00002  Tot: -0.00002 ]
	SubspaceRotationAdjust: set factor to 0.04
ElecMinimize: Iter:  26  F: -2157.135364142985964  |grad|_K:  1.672e-08  alpha:  5.912e-01  linmin:  1.055e-05  t[s]:   7325.83
ElecMinimize: Converged (|Delta F|<1.000000e-07 for 2 iters).
Setting wave functions to eigenvectors of Hamiltonian
Converging empty states (this may take a while): |deigs|: 4.264e-05
Single-point solvation energy estimate, DeltaF = -0.003061912081193

Computing DFT-D3 correction:
# coordination-number Pt 6.988 6.988 6.988 6.988 9.586 9.586 9.586 9.586 9.420 9.420 9.420 9.420 9.581 9.581 9.581 9.581 7.016 7.016 7.016 7.985 9.415 9.415 9.415 9.415
# coordination-number C 2.069
# coordination-number O 1.025
# diagonal-C6 Pt 336.87 336.87 336.87 336.87 336.87 336.87 336.87 336.87 336.87 336.87 336.87 336.87 336.87 336.87 336.87 336.87 336.87 336.87 336.87 336.87 336.87 336.87 336.87 336.87
# diagonal-C6 C 29.36
# diagonal-C6 O 12.79
EvdW_6 =   -0.219197
EvdW_8 =   -0.347659

# Ionic positions in cartesian coordinates:
ion Pt  -0.000046000000000   3.020563000000000   2.055063999999999 0
ion Pt  -2.616042999999999   7.551602999999998   2.055063999999999 0
ion Pt   5.231948999999999   3.020563000000000   2.055063999999999 0
ion Pt   2.615952000000000   7.551602999999998   2.055063999999999 0
ion Pt   0.000042000000000   0.000091000000000  10.683439000000000 0
ion Pt  -2.615955000000000   4.531130000000000  10.683439000000000 0
ion Pt   5.232038000000000   0.000091000000000  10.683439000000000 0
ion Pt   2.616040999999999   4.531130000000000  10.683439000000000 0
ion Pt   2.616092000000000   1.510449000000000   6.419136999999999 0
ion Pt   0.000095000000000   6.041488999999999   6.419136999999999 0
ion Pt   7.848087999999998   1.510449000000000   6.419136999999999 0
ion Pt   5.232081000000001   6.041488999999999   6.419136999999999 0
ion Pt  -0.000057000000000   3.020600000000000  14.945561999999999 0
ion Pt  -2.616048999999999   7.551629999999999  14.945561999999999 0
ion Pt   5.231938999999999   3.020600000000000  14.945561999999999 0
ion Pt   2.615947000000000   7.551629999999999  14.945561999999999 0
ion Pt   0.000052000000000   0.000127000000000  23.577845999999997 0
ion Pt  -2.615945000000000   4.531166999999999  23.577845999999997 0
ion Pt   5.232048000000000   0.000127000000000  23.577845999999997 0
ion Pt   2.616051000000000   4.531166999999999  23.577845999999997 0
ion Pt   2.615915000000000   1.510250000000000  19.213260999999996 0
ion Pt  -0.000082000000000   6.041289999999999  19.213260999999996 0
ion Pt   7.847910000000000   1.510250000000000  19.213260999999996 0
ion Pt   5.231912999999999   6.041289999999999  19.213260999999996 0
ion C   2.616051000000000   4.531166999999999  27.357328999999996 1  Linear 0 0 1
ion O   2.676146000000000   4.531166999999999  29.512612999999998 1  Linear 0 0 1

# Forces in Cartesian coordinates:
force Pt   0.000120796462887   0.000072838948106  -0.000076952383813 0
force Pt   0.000001578946700   0.000000880117750   0.000196890675861 0
force Pt  -0.000121165335154   0.000068871883608  -0.000081359643384 0
force Pt  -0.000001763929767  -0.000139341638524  -0.000079308100985 0
force Pt  -0.000836071173626   0.000477451343038   0.000059605472598 0
force Pt  -0.000011636104664  -0.000967008574140   0.000039378716979 0
force Pt   0.000838720655841   0.000486968024523   0.000024713171720 0
force Pt  -0.000002066627246  -0.000003235737216   0.000187036179260 0
force Pt   0.000008427102417  -0.000184572412556  -0.000173003206985 0
force Pt  -0.000157704572368   0.000092613605768  -0.000172037480666 0
force Pt   0.000000526497721  -0.000001457232815  -0.000931652046050 0
force Pt   0.000160852243501   0.000085653641235  -0.000173087990029 0
force Pt   0.000160129401373   0.000096484278498  -0.000227021034046 0
force Pt  -0.000024576225398   0.000001422266000  -0.004130618458967 0
force Pt  -0.000165888916424   0.000090008888116  -0.000242270890605 0
force Pt  -0.000008175704920  -0.000187243468726  -0.000233863305471 0
force Pt   0.000062132646069  -0.000065855956456  -0.002728360662034 0
force Pt  -0.000056056144546   0.000075826602691  -0.002753002836991 0
force Pt  -0.000072225258243  -0.000021071884680  -0.002761199167088 0
force Pt  -0.000272830645708  -0.000004449069301   0.052570151216670 0
force Pt   0.000019163893640   0.001355253092696   0.000132111148189 0
force Pt   0.001108629157336  -0.000630251645723  -0.000016907581640 0
force Pt   0.000009886388314  -0.000001021963399   0.000883837027266 0
force Pt  -0.001239538339256  -0.000727094043774   0.000284843425980 0
force C   0.000824187632474   0.000000449749322  -0.057658983380448 1  Linear 0 0 1
force O  -0.000273418445907   0.000007012173582   0.015885301351672 1  Linear 0 0 1

# Energy components:
   A_diel =       -0.0049294242672369
   Eewald =    17036.3835649316279159
       EH =    19022.9753083613832132
     Eloc =   -38594.8872793544433080
      Enl =      -22.3050508088509396
     EvdW =       -0.5668561768975500
      Exc =     -688.1136602126059643
 Exc_core =      393.4918528134951998
       KE =      695.8955185857536208
-------------------------------------
     Etot =    -2157.1315312848046233
       TS =        0.0038328581813880
-------------------------------------
        F =    -2157.1353641429859636


Dumping 'jdft.fillings' ... done
Dumping 'jdft.wfns' ... done
Dumping 'jdft.fluidState' ... done
Dumping 'jdft.ionpos' ... done
Dumping 'jdft.lattice' ... done
Dumping 'jdft.eigenvals' ... done
Dumping 'jdft.eigStats' ... 
	eMin: -2.163624 at state 20 ( [ +0.000000 +0.000000 +0.000000 ] spin -1 )
	HOMO: -0.192017 at state 18 ( [ +0.500000 +0.333333 +0.000000 ] spin 1 )
	mu  : -0.191946
	LUMO: -0.191724 at state 20 ( [ +0.000000 +0.000000 +0.000000 ] spin -1 )
	eMax: +0.095437 at state 7 ( [ +0.166667 +0.500000 +0.000000 ] spin 1 )
	HOMO-LUMO gap: +0.000293
	Optical gap  : +0.000543 at state 9 ( [ +0.166667 -0.166667 +0.000000 ] spin 1 )
Dumping 'jdft.Ecomponents' ... done
IonicMinimize: Iter:   0  F: -2157.135364142985964  |grad|_K:  4.229e-02  t[s]:   7554.33

#--- Lowdin population analysis ---
# oxidation-state Pt -0.007 -0.007 -0.007 -0.007 +0.014 +0.014 +0.014 +0.016 +0.014 +0.014 +0.017 +0.014 +0.014 -0.003 +0.014 +0.014 -0.032 -0.032 -0.032 -0.168 -0.000 -0.001 +0.008 -0.000
# magnetic-moments Pt -0.000 -0.000 -0.000 -0.000 -0.000 -0.000 -0.000 -0.000 -0.000 -0.000 -0.000 -0.000 -0.000 -0.000 -0.000 -0.000 -0.000 -0.000 -0.000 -0.000 -0.000 -0.000 -0.000 -0.000
# oxidation-state C +0.546
# magnetic-moments C -0.000
# oxidation-state O -0.060
# magnetic-moments O +0.000


Computing DFT-D3 correction:
# coordination-number Pt 6.988 6.988 6.988 6.988 9.586 9.586 9.586 9.586 9.420 9.420 9.420 9.420 9.581 9.581 9.581 9.581 7.017 7.017 7.017 7.989 9.415 9.415 9.415 9.415
# coordination-number C 2.079
# coordination-number O 1.024
# diagonal-C6 Pt 336.87 336.87 336.87 336.87 336.87 336.87 336.87 336.87 336.87 336.87 336.87 336.87 336.87 336.87 336.87 336.87 336.87 336.87 336.87 336.87 336.87 336.87 336.87 336.87
# diagonal-C6 C 29.34
# diagonal-C6 O 12.79
EvdW_6 =   -0.219216
EvdW_8 =   -0.347690

-------- Electronic minimization -----------
	Linear fluid (dielectric constant: 78.4, screening length: 8.12261 Bohr) occupying 0.433721 of unit cell:	Completed after 17 iterations at t[s]:   7579.66
	FillingsUpdate:  mu: -0.197550800  nElectrons: 394.000000  magneticMoment: [ Abs: 0.00001  Tot: -0.00001 ]
ElecMinimize: Iter:   0  F: -2157.123282938155171  |grad|_K:  1.053e-05  alpha:  1.000e+00
	Linear fluid (dielectric constant: 78.4, screening length: 8.12261 Bohr) occupying 0.433301 of unit cell:	Completed after 20 iterations at t[s]:   7633.77
	Linear fluid (dielectric constant: 78.4, screening length: 8.12261 Bohr) occupying 0.433550 of unit cell:	Completed after 19 iterations at t[s]:   7654.27
	FillingsUpdate:  mu: -0.197896585  nElectrons: 394.000000  magneticMoment: [ Abs: 0.00001  Tot: -0.00001 ]
	SubspaceRotationAdjust: set factor to 0.0406
ElecMinimize: Iter:   1  F: -2157.133831570324219  |grad|_K:  3.353e-06  alpha:  3.860e-01  linmin:  1.302e-03  t[s]:   7679.80
	Linear fluid (dielectric constant: 78.4, screening length: 8.12261 Bohr) occupying 0.433482 of unit cell:	Completed after 17 iterations at t[s]:   7704.15
	Linear fluid (dielectric constant: 78.4, screening length: 8.12261 Bohr) occupying 0.433485 of unit cell:	Completed after 6 iterations at t[s]:   7722.68
	FillingsUpdate:  mu: -0.195738591  nElectrons: 394.000000  magneticMoment: [ Abs: 0.00001  Tot: -0.00001 ]
	SubspaceRotationAdjust: set factor to 0.0421
ElecMinimize: Iter:   2  F: -2157.134848658430201  |grad|_K:  1.602e-06  alpha:  3.667e-01  linmin: -2.888e-05  t[s]:   7748.27
	Linear fluid (dielectric constant: 78.4, screening length: 8.12261 Bohr) occupying 0.433419 of unit cell:	Completed after 13 iterations at t[s]:   7773.13
	Linear fluid (dielectric constant: 78.4, screening length: 8.12261 Bohr) occupying 0.433404 of unit cell:	Completed after 10 iterations at t[s]:   7791.90
	FillingsUpdate:  mu: -0.195377561  nElectrons: 394.000000  magneticMoment: [ Abs: 0.00001  Tot: -0.00001 ]
	SubspaceRotationAdjust: set factor to 0.0446
ElecMinimize: Iter:   3  F: -2157.135132318911474  |grad|_K:  9.250e-07  alpha:  4.472e-01  linmin:  1.499e-05  t[s]:   7817.49
	Linear fluid (dielectric constant: 78.4, screening length: 8.12261 Bohr) occupying 0.433381 of unit cell:	Completed after 17 iterations at t[s]:   7842.17
	Linear fluid (dielectric constant: 78.4, screening length: 8.12261 Bohr) occupying 0.433384 of unit cell:	Completed after 9 iterations at t[s]:   7861.10
	FillingsUpdate:  mu: -0.195247519  nElectrons: 394.000000  magneticMoment: [ Abs: 0.00001  Tot: -0.00001 ]
	SubspaceRotationAdjust: set factor to 0.0394
ElecMinimize: Iter:   4  F: -2157.135216466175734  |grad|_K:  7.882e-07  alpha:  3.980e-01  linmin:  7.856e-06  t[s]:   7886.71
	Linear fluid (dielectric constant: 78.4, screening length: 8.12261 Bohr) occupying 0.433349 of unit cell:	Completed after 13 iterations at t[s]:   7910.69
	Linear fluid (dielectric constant: 78.4, screening length: 8.12261 Bohr) occupying 0.433348 of unit cell:	Completed after 2 iterations at t[s]:   7928.60
	FillingsUpdate:  mu: -0.194466267  nElectrons: 394.000000  magneticMoment: [ Abs: 0.00001  Tot: -0.00001 ]
	SubspaceRotationAdjust: set factor to 0.0396
ElecMinimize: Iter:   5  F: -2157.135278255982485  |grad|_K:  6.689e-07  alpha:  4.025e-01  linmin: -1.587e-05  t[s]:   7954.52
	Linear fluid (dielectric constant: 78.4, screening length: 8.12261 Bohr) occupying 0.433349 of unit cell:	Completed after 10 iterations at t[s]:   7978.11
	Linear fluid (dielectric constant: 78.4, screening length: 8.12261 Bohr) occupying 0.433349 of unit cell:	Completed after 10 iterations at t[s]:   7997.19
	FillingsUpdate:  mu: -0.195015481  nElectrons: 394.000000  magneticMoment: [ Abs: 0.00001  Tot: -0.00001 ]
	SubspaceRotationAdjust: set factor to 0.0461
ElecMinimize: Iter:   6  F: -2157.135368961596214  |grad|_K:  7.282e-07  alpha:  8.203e-01  linmin:  1.643e-05  t[s]:   8023.11
	Linear fluid (dielectric constant: 78.4, screening length: 8.12261 Bohr) occupying 0.433395 of unit cell:	Completed after 13 iterations at t[s]:   8047.07
	Linear fluid (dielectric constant: 78.4, screening length: 8.12261 Bohr) occupying 0.433405 of unit cell:	Completed after 10 iterations at t[s]:   8067.21
	FillingsUpdate:  mu: -0.193517971  nElectrons: 394.000000  magneticMoment: [ Abs: 0.00001  Tot: -0.00001 ]
	SubspaceRotationAdjust: set factor to 0.0501
ElecMinimize: Iter:   7  F: -2157.135500347677862  |grad|_K:  9.318e-07  alpha:  1.004e+00  linmin:  1.580e-07  t[s]:   8092.66
	Linear fluid (dielectric constant: 78.4, screening length: 8.12261 Bohr) occupying 0.433499 of unit cell:	Completed after 19 iterations at t[s]:   8117.60
	Linear fluid (dielectric constant: 78.4, screening length: 8.12261 Bohr) occupying 0.433476 of unit cell:	Completed after 12 iterations at t[s]:   8137.05
	FillingsUpdate:  mu: -0.195575559  nElectrons: 394.000000  magneticMoment: [ Abs: 0.00001  Tot: -0.00001 ]
	SubspaceRotationAdjust: set factor to 0.0483
ElecMinimize: Iter:   8  F: -2157.135662943848274  |grad|_K:  1.079e-06  alpha:  7.574e-01  linmin:  2.151e-06  t[s]:   8162.67
	Linear fluid (dielectric constant: 78.4, screening length: 8.12261 Bohr) occupying 0.433592 of unit cell:	Completed after 19 iterations at t[s]:   8187.80
	Linear fluid (dielectric constant: 78.4, screening length: 8.12261 Bohr) occupying 0.433541 of unit cell:	Completed after 17 iterations at t[s]:   8207.89
	FillingsUpdate:  mu: -0.194695032  nElectrons: 394.000000  magneticMoment: [ Abs: 0.00001  Tot: -0.00001 ]
	SubspaceRotationAdjust: set factor to 0.038
ElecMinimize: Iter:   9  F: -2157.135786282067784  |grad|_K:  1.029e-06  alpha:  4.281e-01  linmin: -7.833e-06  t[s]:   8233.78
	Linear fluid (dielectric constant: 78.4, screening length: 8.12261 Bohr) occupying 0.433554 of unit cell:	Completed after 14 iterations at t[s]:   8257.93
[...]
	Linear fluid (dielectric constant: 78.4, screening length: 8.12261 Bohr) occupying 0.437168 of unit cell:	Completed after 2 iterations at t[s]:  25788.23
	Linear fluid (dielectric constant: 78.4, screening length: 8.12261 Bohr) occupying 0.437168 of unit cell:	Completed after 0 iterations at t[s]:  25805.61
	FillingsUpdate:  mu: -0.195353818  nElectrons: 394.000000  magneticMoment: [ Abs: 0.00000  Tot: -0.00000 ]
	SubspaceRotationAdjust: set factor to 0.0362
ElecMinimize: Iter:  16  F: -2157.142497717495644  |grad|_K:  1.986e-08  alpha:  4.314e-01  linmin: -1.267e-03  t[s]:  25831.45
	Linear fluid (dielectric constant: 78.4, screening length: 8.12261 Bohr) occupying 0.437169 of unit cell:	Completed after 2 iterations at t[s]:  25853.95
	Linear fluid (dielectric constant: 78.4, screening length: 8.12261 Bohr) occupying 0.437169 of unit cell:	Completed after 0 iterations at t[s]:  25871.30
	FillingsUpdate:  mu: -0.195348763  nElectrons: 394.000000  magneticMoment: [ Abs: 0.00000  Tot: -0.00000 ]
	SubspaceRotationAdjust: set factor to 0.0402
ElecMinimize: Iter:  17  F: -2157.142497765600183  |grad|_K:  1.612e-08  alpha:  4.806e-01  linmin: -1.430e-03  t[s]:  25897.19
ElecMinimize: Converged (|Delta F|<1.000000e-07 for 2 iters).
Setting wave functions to eigenvectors of Hamiltonian
Converging empty states (this may take a while): |deigs|: 6.178e-08

Computing DFT-D3 correction:
# coordination-number Pt 6.988 6.988 6.988 6.988 9.586 9.586 9.586 9.586 9.420 9.420 9.420 9.420 9.581 9.582 9.581 9.582 7.025 7.025 7.025 8.011 9.415 9.415 9.415 9.416
# coordination-number C 2.112
# coordination-number O 1.038
# diagonal-C6 Pt 336.87 336.87 336.87 336.87 336.87 336.87 336.87 336.87 336.87 336.87 336.87 336.87 336.87 336.87 336.87 336.87 336.87 336.87 336.87 336.87 336.87 336.87 336.87 336.87
# diagonal-C6 C 29.28
# diagonal-C6 O 12.78
EvdW_6 =   -0.219418
EvdW_8 =   -0.347939

# Ionic positions in cartesian coordinates:
ion Pt  -0.000046000000000   3.020563000000000   2.055063999999999 0
ion Pt  -2.616042999999999   7.551602999999998   2.055063999999999 0
ion Pt   5.231948999999999   3.020563000000000   2.055063999999999 0
ion Pt   2.615952000000000   7.551602999999998   2.055063999999999 0
ion Pt   0.000042000000000   0.000091000000000  10.683439000000000 0
ion Pt  -2.615955000000000   4.531130000000000  10.683439000000000 0
ion Pt   5.232038000000000   0.000091000000000  10.683439000000000 0
ion Pt   2.616040999999999   4.531130000000000  10.683439000000000 0
ion Pt   2.616092000000000   1.510449000000000   6.419136999999999 0
ion Pt   0.000095000000000   6.041488999999999   6.419136999999999 0
ion Pt   7.848087999999998   1.510449000000000   6.419136999999999 0
ion Pt   5.232081000000001   6.041488999999999   6.419136999999999 0
ion Pt  -0.000057000000000   3.020600000000000  14.945561999999999 0
ion Pt  -2.616048999999999   7.551629999999999  14.945561999999999 0
ion Pt   5.231938999999999   3.020600000000000  14.945561999999999 0
ion Pt   2.615947000000000   7.551629999999999  14.945561999999999 0
ion Pt   0.000052000000000   0.000127000000000  23.577845999999997 0
ion Pt  -2.615945000000000   4.531166999999999  23.577845999999997 0
ion Pt   5.232048000000000   0.000127000000000  23.577845999999997 0
ion Pt   2.616051000000000   4.531166999999999  23.577845999999997 0
ion Pt   2.615915000000000   1.510250000000000  19.213260999999996 0
ion Pt  -0.000082000000000   6.041289999999999  19.213260999999996 0
ion Pt   7.847910000000000   1.510250000000000  19.213260999999996 0
ion Pt   5.231912999999999   6.041289999999999  19.213260999999996 0
ion C   2.616051000000000   4.531166999999999  27.072983381403471 1  Linear 0 0 1
ion O   2.676146000000000   4.531166999999999  29.251830354679662 1  Linear 0 0 1

# Forces in Cartesian coordinates:
force Pt  -0.000056256228328  -0.000030997689972   0.000347508181773 0
force Pt  -0.000000784632507   0.000000695220500   0.000606507980826 0
force Pt   0.000054451768130  -0.000031394515091   0.000340699136116 0
force Pt   0.000000423304064   0.000063839931988   0.000344005179862 0
force Pt  -0.000907199762443   0.000517451069933  -0.000056618299772 0
force Pt  -0.000013415209884  -0.001052472453593  -0.000081458385743 0
force Pt   0.000915662053814   0.000531802742817  -0.000104423849242 0
force Pt  -0.000001518147865  -0.000003252383213   0.000019980907685 0
force Pt   0.000009908082225  -0.000253583247218  -0.000245994666191 0
force Pt  -0.000216608063251   0.000127427141484  -0.000246535801237 0
force Pt  -0.000004768185970  -0.000001494287691  -0.000349822724400 0
force Pt   0.000221480549330   0.000119695102340  -0.000244586394707 0
force Pt   0.000187789425922   0.000112193471485  -0.000303152734942 0
force Pt  -0.000018939037982   0.000001668017350  -0.006419278822120 0
force Pt  -0.000195325193365   0.000107225445789  -0.000310541806563 0
force Pt  -0.000007889587465  -0.000220155383553  -0.000306497880132 0
force Pt   0.000284276017716  -0.000197994732662  -0.003565206121039 0
force Pt  -0.000059627114875   0.000329326248110  -0.003582419752423 0
force Pt  -0.000291215021281  -0.000140298145894  -0.003599575624913 0
force Pt  -0.000430243401577  -0.000002680930361   0.016334205711902 0
force Pt   0.000022844259583   0.001068278675520  -0.000077038633710 0
force Pt   0.000852686499165  -0.000479993025703  -0.000251344303372 0
force Pt   0.000005476923805  -0.000000768985176   0.000723309728887 0
force Pt  -0.000997251831431  -0.000589745227904   0.000100648504146 0
force C   0.001742517923222  -0.000000249869790   0.000347331975242 1  Linear 0 0 1
force O  -0.001027869690414   0.000000768187681   0.000095308232175 1  Linear 0 0 1

# Energy components:
   A_diel =       -0.0034935204244134
   Eewald =    17071.6207528884115163
       EH =    19056.5217976207241009
     Eloc =   -38663.7326030019976315
      Enl =      -22.2861860287405378
     EvdW =       -0.5673566883069285
      Exc =     -688.1599079804931307
 Exc_core =      393.4918575815322583
       KE =      695.9763037069926668
-------------------------------------
     Etot =    -2157.1388354222981434
       TS =        0.0036623433021090
-------------------------------------
        F =    -2157.1424977656001829


Dumping 'jdft.fillings' ... done
Dumping 'jdft.wfns' ... done
Dumping 'jdft.fluidState' ... done
Dumping 'jdft.ionpos' ... done
Dumping 'jdft.lattice' ... done
Dumping 'jdft.eigenvals' ... done
Dumping 'jdft.eigStats' ... 
	eMin: -2.182582 at state 20 ( [ +0.000000 +0.000000 +0.000000 ] spin -1 )
	HOMO: -0.195714 at state 9 ( [ +0.166667 -0.166667 +0.000000 ] spin 1 )
	mu  : -0.195349
	LUMO: -0.195286 at state 20 ( [ +0.000000 +0.000000 +0.000000 ] spin -1 )
	eMax: +0.094285 at state 7 ( [ +0.166667 +0.500000 +0.000000 ] spin 1 )
	HOMO-LUMO gap: +0.000428
	Optical gap  : +0.000518 at state 9 ( [ +0.166667 -0.166667 +0.000000 ] spin 1 )
Dumping 'jdft.Ecomponents' ... done
IonicMinimize: Iter:   9  F: -2157.142497765600183  |grad|_K:  2.547e-04  alpha:  8.805e-02  linmin:  1.637e-02  t[s]:  25996.13

#--- Lowdin population analysis ---
# oxidation-state Pt -0.001 -0.002 -0.001 -0.001 +0.015 +0.015 +0.015 +0.016 +0.013 +0.013 +0.018 +0.013 +0.014 -0.003 +0.014 +0.014 -0.030 -0.030 -0.030 -0.138 -0.008 -0.009 +0.007 -0.008
# magnetic-moments Pt -0.000 -0.000 -0.000 -0.000 -0.000 -0.000 -0.000 -0.000 -0.000 -0.000 -0.000 -0.000 -0.000 -0.000 -0.000 -0.000 -0.000 -0.000 -0.000 -0.000 -0.000 -0.000 -0.000 -0.000
# oxidation-state C +0.539
# magnetic-moments C -0.000
# oxidation-state O -0.091
# magnetic-moments O +0.000


Computing DFT-D3 correction:
# coordination-number Pt 6.988 6.988 6.988 6.988 9.586 9.586 9.586 9.586 9.420 9.420 9.420 9.420 9.581 9.582 9.581 9.582 7.025 7.025 7.025 8.011 9.415 9.415 9.415 9.416
# coordination-number C 2.112
# coordination-number O 1.038
# diagonal-C6 Pt 336.87 336.87 336.87 336.87 336.87 336.87 336.87 336.87 336.87 336.87 336.87 336.87 336.87 336.87 336.87 336.87 336.87 336.87 336.87 336.87 336.87 336.87 336.87 336.87
# diagonal-C6 C 29.28
# diagonal-C6 O 12.78
EvdW_6 =   -0.219417
EvdW_8 =   -0.347938

-------- Electronic minimization -----------
	Linear fluid (dielectric constant: 78.4, screening length: 8.12261 Bohr) occupying 0.437161 of unit cell:	Completed after 13 iterations at t[s]:  26023.13
	FillingsUpdate:  mu: -0.194597770  nElectrons: 394.000000  magneticMoment: [ Abs: 0.00000  Tot: -0.00000 ]
ElecMinimize: Iter:   0  F: -2157.142477795225204  |grad|_K:  6.827e-07  alpha:  1.000e+00
	Linear fluid (dielectric constant: 78.4, screening length: 8.12261 Bohr) occupying 0.437218 of unit cell:	Completed after 19 iterations at t[s]:  26077.85
	Linear fluid (dielectric constant: 78.4, screening length: 8.12261 Bohr) occupying 0.437165 of unit cell:	Completed after 19 iterations at t[s]:  26098.34
	FillingsUpdate:  mu: -0.195038324  nElectrons: 394.000000  magneticMoment: [ Abs: 0.00000  Tot: -0.00000 ]
	SubspaceRotationAdjust: set factor to 0.0774
ElecMinimize: Iter:   1  F: -2157.142496039790785  |grad|_K:  1.109e-07  alpha:  1.589e-01  linmin:  2.082e-03  t[s]:  26124.01
	Linear fluid (dielectric constant: 78.4, screening length: 8.12261 Bohr) occupying 0.437166 of unit cell:	Completed after 3 iterations at t[s]:  26146.61
	Linear fluid (dielectric constant: 78.4, screening length: 8.12261 Bohr) occupying 0.437167 of unit cell:	Completed after 7 iterations at t[s]:  26165.23
	FillingsUpdate:  mu: -0.195151014  nElectrons: 394.000000  magneticMoment: [ Abs: 0.00000  Tot: -0.00000 ]
	SubspaceRotationAdjust: set factor to 0.103
ElecMinimize: Iter:   2  F: -2157.142497226906016  |grad|_K:  5.508e-08  alpha:  3.938e-01  linmin:  4.354e-04  t[s]:  26191.26
	Linear fluid (dielectric constant: 78.4, screening length: 8.12261 Bohr) occupying 0.437167 of unit cell:	Completed after 7 iterations at t[s]:  26214.65
	Linear fluid (dielectric constant: 78.4, screening length: 8.12261 Bohr) occupying 0.437167 of unit cell:	Completed after 0 iterations at t[s]:  26231.94
	FillingsUpdate:  mu: -0.195329856  nElectrons: 394.000000  magneticMoment: [ Abs: 0.00000  Tot: -0.00000 ]
	SubspaceRotationAdjust: set factor to 0.083
ElecMinimize: Iter:   3  F: -2157.142497517910215  |grad|_K:  5.411e-08  alpha:  3.890e-01  linmin: -1.535e-04  t[s]:  26257.75
	Linear fluid (dielectric constant: 78.4, screening length: 8.12261 Bohr) occupying 0.437166 of unit cell:	Completed after 9 iterations at t[s]:  26281.39
	Linear fluid (dielectric constant: 78.4, screening length: 8.12261 Bohr) occupying 0.437167 of unit cell:	Completed after 8 iterations at t[s]:  26300.02
	FillingsUpdate:  mu: -0.195277949  nElectrons: 394.000000  magneticMoment: [ Abs: 0.00000  Tot: -0.00000 ]
	SubspaceRotationAdjust: set factor to 0.0582
ElecMinimize: Iter:   4  F: -2157.142497627877674  |grad|_K:  3.916e-08  alpha:  1.536e-01  linmin:  2.647e-04  t[s]:  26325.80
	Linear fluid (dielectric constant: 78.4, screening length: 8.12261 Bohr) occupying 0.437167 of unit cell:	Completed after 2 iterations at t[s]:  26348.28
	Linear fluid (dielectric constant: 78.4, screening length: 8.12261 Bohr) occupying 0.437167 of unit cell:	Completed after 3 iterations at t[s]:  26366.31
	FillingsUpdate:  mu: -0.195209420  nElectrons: 394.000000  magneticMoment: [ Abs: 0.00000  Tot: -0.00000 ]
	SubspaceRotationAdjust: set factor to 0.0579
ElecMinimize: Iter:   5  F: -2157.142497755168733  |grad|_K:  3.077e-08  alpha:  3.387e-01  linmin: -1.137e-04  t[s]:  26392.06
	Linear fluid (dielectric constant: 78.4, screening length: 8.12261 Bohr) occupying 0.437166 of unit cell:	Completed after 2 iterations at t[s]:  26414.46
	Linear fluid (dielectric constant: 78.4, screening length: 8.12261 Bohr) occupying 0.437166 of unit cell:	Completed after 0 iterations at t[s]:  26431.92
	FillingsUpdate:  mu: -0.195259513  nElectrons: 394.000000  magneticMoment: [ Abs: 0.00000  Tot: -0.00000 ]
	SubspaceRotationAdjust: set factor to 0.0626
ElecMinimize: Iter:   6  F: -2157.142497844119134  |grad|_K:  2.337e-08  alpha:  3.767e-01  linmin: -1.347e-03  t[s]:  26457.65
	Linear fluid (dielectric constant: 78.4, screening length: 8.12261 Bohr) occupying 0.437165 of unit cell:	Completed after 4 iterations at t[s]:  26480.41
	Linear fluid (dielectric constant: 78.4, screening length: 8.12261 Bohr) occupying 0.437165 of unit cell:	Completed after 0 iterations at t[s]:  26497.70
	FillingsUpdate:  mu: -0.195326336  nElectrons: 394.000000  magneticMoment: [ Abs: 0.00000  Tot: -0.00000 ]
	SubspaceRotationAdjust: set factor to 0.0588
ElecMinimize: Iter:   7  F: -2157.142497889054084  |grad|_K:  2.290e-08  alpha:  3.203e-01  linmin:  6.050e-04  t[s]:  26523.34
ElecMinimize: Converged (|Delta F|<1.000000e-07 for 2 iters).
Setting wave functions to eigenvectors of Hamiltonian
Converging empty states (this may take a while): |deigs|: 1.430e-09

Computing DFT-D3 correction:
# coordination-number Pt 6.988 6.988 6.988 6.988 9.586 9.586 9.586 9.586 9.420 9.420 9.420 9.420 9.581 9.582 9.581 9.582 7.025 7.025 7.025 8.011 9.415 9.415 9.415 9.416
# coordination-number C 2.112
# coordination-number O 1.038
# diagonal-C6 Pt 336.87 336.87 336.87 336.87 336.87 336.87 336.87 336.87 336.87 336.87 336.87 336.87 336.87 336.87 336.87 336.87 336.87 336.87 336.87 336.87 336.87 336.87 336.87 336.87
# diagonal-C6 C 29.28
# diagonal-C6 O 12.78
EvdW_6 =   -0.219417
EvdW_8 =   -0.347938

# Ionic positions in cartesian coordinates:
ion Pt  -0.000046000000000   3.020563000000000   2.055063999999999 0
ion Pt  -2.616042999999999   7.551602999999998   2.055063999999999 0
ion Pt   5.231948999999999   3.020563000000000   2.055063999999999 0
ion Pt   2.615952000000000   7.551602999999998   2.055063999999999 0
ion Pt   0.000042000000000   0.000091000000000  10.683439000000000 0
ion Pt  -2.615955000000000   4.531130000000000  10.683439000000000 0
ion Pt   5.232038000000000   0.000091000000000  10.683439000000000 0
ion Pt   2.616040999999999   4.531130000000000  10.683439000000000 0
ion Pt   2.616092000000000   1.510449000000000   6.419136999999999 0
ion Pt   0.000095000000000   6.041488999999999   6.419136999999999 0
ion Pt   7.848087999999998   1.510449000000000   6.419136999999999 0
ion Pt   5.232081000000001   6.041488999999999   6.419136999999999 0
ion Pt  -0.000057000000000   3.020600000000000  14.945561999999999 0
ion Pt  -2.616048999999999   7.551629999999999  14.945561999999999 0
ion Pt   5.231938999999999   3.020600000000000  14.945561999999999 0
ion Pt   2.615947000000000   7.551629999999999  14.945561999999999 0
ion Pt   0.000052000000000   0.000127000000000  23.577845999999997 0
ion Pt  -2.615945000000000   4.531166999999999  23.577845999999997 0
ion Pt   5.232048000000000   0.000127000000000  23.577845999999997 0
ion Pt   2.616051000000000   4.531166999999999  23.577845999999997 0
ion Pt   2.615915000000000   1.510250000000000  19.213260999999996 0
ion Pt  -0.000082000000000   6.041289999999999  19.213260999999996 0
ion Pt   7.847910000000000   1.510250000000000  19.213260999999996 0
ion Pt   5.231912999999999   6.041289999999999  19.213260999999996 0
ion C   2.616051000000000   4.531166999999999  27.073722787816386 1  Linear 0 0 1
ion O   2.676146000000000   4.531166999999999  29.252563899800990 1  Linear 0 0 1

# Forces in Cartesian coordinates:
force Pt  -0.000057156003632  -0.000031534676522  -0.000104377927231 0
force Pt  -0.000000761121172   0.000000695851137   0.000150592085152 0
force Pt   0.000055322494751  -0.000031890221947  -0.000111460341368 0
force Pt   0.000000441812679   0.000064860979028  -0.000108023644954 0
force Pt  -0.000907416855523   0.000517579351149   0.000176609317398 0
force Pt  -0.000013420482061  -0.001052741419036   0.000151752692042 0
force Pt   0.000915911661719   0.000531947093929   0.000128764511895 0
force Pt  -0.000001505864098  -0.000003257914865   0.000254659847690 0
force Pt   0.000009911870035  -0.000254370298663  -0.000485142498999 0
force Pt  -0.000217276242470   0.000127820607259  -0.000485696990825 0
force Pt  -0.000004782809782  -0.000001500634683  -0.000585585749440 0
force Pt   0.000222166860160   0.000120094096659  -0.000483727887621 0
force Pt   0.000185063522529   0.000110625620074   0.000142840006190 0
force Pt  -0.000018886237309   0.000001665855688  -0.005987624820656 0
force Pt  -0.000192609540257   0.000105653172950   0.000135477569004 0
force Pt  -0.000007901381466  -0.000217011436000   0.000139507797987 0
force Pt   0.000283119320789  -0.000197724507973  -0.003702091668002 0
force Pt  -0.000060322131253   0.000328029868233  -0.003719168245304 0
force Pt  -0.000290117364515  -0.000139277266387  -0.003736180741209 0
force Pt  -0.000427104877703  -0.000002702457153   0.016527540375470 0
force Pt   0.000022908097276   0.001043657709652   0.000158924048988 0
force Pt   0.000831331814800  -0.000467629292220  -0.000015521080449 0
force Pt   0.000005472687805  -0.000000759622266   0.000991563621462 0
force Pt  -0.000975929580991  -0.000577475043934   0.000336726115981 0
force C   0.001735967455009  -0.000000254807771  -0.000164250953626 1  Linear 0 0 1
force O  -0.001026644945325   0.000000774141187  -0.000066650105562 1  Linear 0 0 1

# Energy components:
   A_diel =       -0.0034951770284632
   Eewald =    17071.5238280291778210
       EH =    19056.4291654316330096
     Eloc =   -38663.5428057874814840
      Enl =      -22.2864299075999206
     EvdW =       -0.5673555388757422
      Exc =     -688.1597066275272709
 Exc_core =      393.4918576587142525
       KE =      695.9761059073982779
-------------------------------------
     Etot =    -2157.1388360115934120
       TS =        0.0036618774606134
-------------------------------------
        F =    -2157.1424978890540842


Dumping 'jdft.fillings' ... done
Dumping 'jdft.wfns' ... done
Dumping 'jdft.fluidState' ... done
Dumping 'jdft.ionpos' ... done
Dumping 'jdft.lattice' ... done
Dumping 'jdft.eigenvals' ... done
Dumping 'jdft.eigStats' ... 
	eMin: -2.182591 at state 20 ( [ +0.000000 +0.000000 +0.000000 ] spin -1 )
	HOMO: -0.195701 at state 9 ( [ +0.166667 -0.166667 +0.000000 ] spin 1 )
	mu  : -0.195326
	LUMO: -0.195262 at state 20 ( [ +0.000000 +0.000000 +0.000000 ] spin -1 )
	eMax: +0.094296 at state 7 ( [ +0.166667 +0.500000 +0.000000 ] spin 1 )
	HOMO-LUMO gap: +0.000439
	Optical gap  : +0.000523 at state 9 ( [ +0.166667 -0.166667 +0.000000 ] spin 1 )
Dumping 'jdft.Ecomponents' ... done
IonicMinimize: Iter:  10  F: -2157.142497889054084  |grad|_K:  1.253e-04  alpha:  1.000e+00  linmin:  8.566e-03  t[s]:  26589.15
IonicMinimize: Converged (|Delta F|<1.000000e-06 for 2 iters).

#--- Lowdin population analysis ---
# oxidation-state Pt -0.002 -0.002 -0.002 -0.002 +0.012 +0.012 +0.012 +0.014 +0.012 +0.012 +0.016 +0.012 +0.014 -0.004 +0.014 +0.014 -0.028 -0.028 -0.028 -0.138 -0.005 -0.005 +0.011 -0.005
# magnetic-moments Pt -0.000 -0.000 -0.000 -0.000 -0.000 -0.000 -0.000 -0.000 -0.000 -0.000 -0.000 -0.000 -0.000 -0.000 -0.000 -0.000 -0.000 -0.000 -0.000 -0.000 -0.000 -0.000 -0.000 -0.000
# oxidation-state C +0.540
# magnetic-moments C -0.000
# oxidation-state O -0.092
# magnetic-moments O +0.000


Dumping 'jdft.n_up' ... done
Dumping 'jdft.n_dn' ... done
Dumping 'jdft.tau_up' ... done
Dumping 'jdft.tau_dn' ... done
Dumping 'jdft.eigenvals' ... done
Dumping 'jdft.eigStats' ... 
	eMin: -2.182591 at state 20 ( [ +0.000000 +0.000000 +0.000000 ] spin -1 )
	HOMO: -0.195701 at state 9 ( [ +0.166667 -0.166667 +0.000000 ] spin 1 )
	mu  : -0.195326
	LUMO: -0.195262 at state 20 ( [ +0.000000 +0.000000 +0.000000 ] spin -1 )
	eMax: +0.094296 at state 7 ( [ +0.166667 +0.500000 +0.000000 ] spin 1 )
	HOMO-LUMO gap: +0.000439
	Optical gap  : +0.000523 at state 9 ( [ +0.166667 -0.166667 +0.000000 ] spin 1 )
Dumping 'jdft.kPts' ... done
Dumping 'jdft.kMap' ... done
Dumping 'jdft.dosUp' ... done.
Dumping 'jdft.dosDn' ... done.
End date and time: Thu Feb 17 11:07:49 2022  (Duration: 0-7:23:50.48)
Done!
