
*************** JDFTx 1.7.0 (git hash 5f12716a) ***************

Start date and time: Mon Sep 12 13:02:40 2022
Executable /home/nisi6161/jdftx_alpine/build/jdftx with command-line: -i in
Running on hosts (process indices):  c3cpu-a2-u15-2.rc.int.colorado.edu (0-23)
Divided in process groups (process indices):  0 (0)  1 (1)  2 (2)  3 (3)  4 (4)  5 (5)  6 (6)  7 (7)  8 (8)  9 (9)  10 (10)  11 (11)  12 (12)  13 (13)  14 (14)  15 (15)  16 (16)  17 (17)  18 (18)  19 (19)  20 (20)  21 (21)  22 (22)  23 (23)
Resource initialization completed at t[s]:      0.00
Run totals: 24 processes, 64 threads, 0 GPUs


Input parsed successfully to the following command list (including defaults):

basis kpoint-dependent
converge-empty-states yes
coords-type Cartesian
core-overlap-check none
coulomb-interaction Periodic
davidson-band-ratio 1.1
density-of-states Etol 1.000000e-06 Esigma 1.000000e-03 \
		Complete \
	Total \
	OrthoOrbital Cu 1   s \
	OrthoOrbital Cu 1   p \
	OrthoOrbital Cu 1   px \
	OrthoOrbital Cu 1   py \
	OrthoOrbital Cu 1   pz \
	OrthoOrbital Cu 1   d \
	OrthoOrbital Cu 1   dxy \
	OrthoOrbital Cu 1   dyz \
	OrthoOrbital Cu 1   dz2 \
	OrthoOrbital Cu 1   dxz \
	OrthoOrbital Cu 1   dx2-y2 \
	OrthoOrbital Cu 2   s \
	OrthoOrbital Cu 2   p \
	OrthoOrbital Cu 2   px \
	OrthoOrbital Cu 2   py \
	OrthoOrbital Cu 2   pz \
	OrthoOrbital Cu 2   d \
	OrthoOrbital Cu 2   dxy \
	OrthoOrbital Cu 2   dyz \
	OrthoOrbital Cu 2   dz2 \
	OrthoOrbital Cu 2   dxz \
	OrthoOrbital Cu 2   dx2-y2 \
	OrthoOrbital Cu 3   s \
	OrthoOrbital Cu 3   p \
	OrthoOrbital Cu 3   px \
	OrthoOrbital Cu 3   py \
	OrthoOrbital Cu 3   pz \
	OrthoOrbital Cu 3   d \
	OrthoOrbital Cu 3   dxy \
	OrthoOrbital Cu 3   dyz \
	OrthoOrbital Cu 3   dz2 \
	OrthoOrbital Cu 3   dxz \
	OrthoOrbital Cu 3   dx2-y2 \
	OrthoOrbital Cu 4   s \
	OrthoOrbital Cu 4   p \
	OrthoOrbital Cu 4   px \
	OrthoOrbital Cu 4   py \
	OrthoOrbital Cu 4   pz \
	OrthoOrbital Cu 4   d \
	OrthoOrbital Cu 4   dxy \
	OrthoOrbital Cu 4   dyz \
	OrthoOrbital Cu 4   dz2 \
	OrthoOrbital Cu 4   dxz \
	OrthoOrbital Cu 4   dx2-y2 \
	OrthoOrbital Cu 5   s \
	OrthoOrbital Cu 5   p \
	OrthoOrbital Cu 5   px \
	OrthoOrbital Cu 5   py \
	OrthoOrbital Cu 5   pz \
	OrthoOrbital Cu 5   d \
	OrthoOrbital Cu 5   dxy \
	OrthoOrbital Cu 5   dyz \
	OrthoOrbital Cu 5   dz2 \
	OrthoOrbital Cu 5   dxz \
	OrthoOrbital Cu 5   dx2-y2 \
	OrthoOrbital Cu 6   s \
	OrthoOrbital Cu 6   p \
	OrthoOrbital Cu 6   px \
	OrthoOrbital Cu 6   py \
	OrthoOrbital Cu 6   pz \
	OrthoOrbital Cu 6   d \
	OrthoOrbital Cu 6   dxy \
	OrthoOrbital Cu 6   dyz \
	OrthoOrbital Cu 6   dz2 \
	OrthoOrbital Cu 6   dxz \
	OrthoOrbital Cu 6   dx2-y2 \
	OrthoOrbital Cu 7   s \
	OrthoOrbital Cu 7   p \
	OrthoOrbital Cu 7   px \
	OrthoOrbital Cu 7   py \
	OrthoOrbital Cu 7   pz \
	OrthoOrbital Cu 7   d \
	OrthoOrbital Cu 7   dxy \
	OrthoOrbital Cu 7   dyz \
	OrthoOrbital Cu 7   dz2 \
	OrthoOrbital Cu 7   dxz \
	OrthoOrbital Cu 7   dx2-y2 \
	OrthoOrbital Cu 8   s \
	OrthoOrbital Cu 8   p \
	OrthoOrbital Cu 8   px \
	OrthoOrbital Cu 8   py \
	OrthoOrbital Cu 8   pz \
	OrthoOrbital Cu 8   d \
	OrthoOrbital Cu 8   dxy \
	OrthoOrbital Cu 8   dyz \
	OrthoOrbital Cu 8   dz2 \
	OrthoOrbital Cu 8   dxz \
	OrthoOrbital Cu 8   dx2-y2 \
	OrthoOrbital Cu 9   s \
	OrthoOrbital Cu 9   p \
	OrthoOrbital Cu 9   px \
	OrthoOrbital Cu 9   py \
	OrthoOrbital Cu 9   pz \
	OrthoOrbital Cu 9   d \
	OrthoOrbital Cu 9   dxy \
	OrthoOrbital Cu 9   dyz \
	OrthoOrbital Cu 9   dz2 \
	OrthoOrbital Cu 9   dxz \
	OrthoOrbital Cu 9   dx2-y2 \
	OrthoOrbital Cu 10   s \
	OrthoOrbital Cu 10   p \
	OrthoOrbital Cu 10   px \
	OrthoOrbital Cu 10   py \
	OrthoOrbital Cu 10   pz \
	OrthoOrbital Cu 10   d \
	OrthoOrbital Cu 10   dxy \
	OrthoOrbital Cu 10   dyz \
	OrthoOrbital Cu 10   dz2 \
	OrthoOrbital Cu 10   dxz \
	OrthoOrbital Cu 10   dx2-y2
dump End ElecDensity KEdensity BandEigs EigStats RhoAtom DOS Kpoints
dump Ionic State IonicPositions Lattice EigStats Ecomponents
dump 
dump 
dump 
dump 
dump 
dump 
dump 
dump 
dump-name jdft.$VAR
elec-cutoff 20
elec-eigen-algo Davidson
elec-ex-corr gga-PBE
elec-initial-magnetization 0.000000 no
elec-n-bands 114
elec-smearing Fermi 0.001
electronic-minimize  \
	dirUpdateScheme      FletcherReeves \
	linminMethod         DirUpdateRecommended \
	nIterations          100 \
	history              15 \
	knormThreshold       0 \
	energyDiffThreshold  1e-07 \
	nEnergyDiff          2 \
	alphaTstart          1 \
	alphaTmin            1e-10 \
	updateTestStepSize   yes \
	alphaTreduceFactor   0.1 \
	alphaTincreaseFactor 3 \
	nAlphaAdjustMax      3 \
	wolfeEnergy          0.0001 \
	wolfeGradient        0.9 \
	fdTest               no
exchange-regularization WignerSeitzTruncated
fluid LinearPCM 298.000000 1.013250
fluid-anion F- 0.5 MeanFieldLJ \
	epsBulk 1 \
	pMol 0 \
	epsInf 1 \
	Pvap 0 \
	sigmaBulk 0 \
	Rvdw 2.24877 \
	Res 0 \
	tauNuc 343133
fluid-cation Na+ 0.5 MeanFieldLJ \
	epsBulk 1 \
	pMol 0 \
	epsInf 1 \
	Pvap 0 \
	sigmaBulk 0 \
	Rvdw 2.19208 \
	Res 0 \
	tauNuc 343133
fluid-ex-corr lda-TF lda-PZ
fluid-gummel-loop 10 1.000000e-05
fluid-minimize  \
	dirUpdateScheme      PolakRibiere \
	linminMethod         DirUpdateRecommended \
	nIterations          400 \
	history              15 \
	knormThreshold       1e-11 \
	energyDiffThreshold  0 \
	nEnergyDiff          2 \
	alphaTstart          1 \
	alphaTmin            1e-10 \
	updateTestStepSize   yes \
	alphaTreduceFactor   0.1 \
	alphaTincreaseFactor 3 \
	nAlphaAdjustMax      6 \
	wolfeEnergy          0.0001 \
	wolfeGradient        0.9 \
	fdTest               no
fluid-solvent H2O 55.338 ScalarEOS \
	epsBulk 78.4 \
	pMol 0.92466 \
	epsInf 1.77 \
	Pvap 1.06736e-10 \
	sigmaBulk 4.62e-05 \
	Rvdw 2.61727 \
	Res 1.42 \
	tauNuc 343133 \
	poleEl 15 7 1
forces-output-coords Positions
initial-state jdft.$VAR
ion Cu   3.375032000000000   1.528856000000000  11.416236000000000 1
ion Cu   0.000010000000000   2.995692000000000   8.271535999999999 1
ion Cu   3.367323000000000   4.548016999999999   5.273258000000001 1
ion Cu  -0.002811000000000   6.036092000000000   2.210949000000000 1
ion Cu   0.003758000000000  -0.019377000000000  14.213103000000000 1
ion Cu   3.373811000000000   6.003525999999999   9.800068000000000 1
ion Cu   3.370724000000000   0.019603000000000   6.801881000000000 1
ion Cu  -0.005170000000000   1.486236000000000   3.657180000000000 1
ion Cu   3.366830999999999   3.033202000000000   0.860268000000000 1
ion Cu   0.003054000000000   4.514930999999999  12.862467000000002 1
ion-species /projects/musgravc/apps/jdftx-1.6.0/build/pseudopotentials/GBRV_v1.5/$ID_pbe_v1.uspp
ion-species /projects/musgravc/apps/jdftx-1.6.0/build/pseudopotentials/GBRV_v1.5/$ID_pbe_v1.2.uspp
ion-species /projects/musgravc/apps/jdftx-1.6.0/build/pseudopotentials/GBRV_v1.5/$ID_pbe_v1.4.uspp
ion-species /projects/musgravc/apps/jdftx-1.6.0/build/pseudopotentials/GBRV_v1.5/$ID_pbe_v1.5.uspp
ion-width Ecut
ionic-minimize  \
	dirUpdateScheme      L-BFGS \
	linminMethod         DirUpdateRecommended \
	nIterations          100 \
	history              15 \
	knormThreshold       0.0001 \
	energyDiffThreshold  0.0001 \
	nEnergyDiff          2 \
	alphaTstart          1 \
	alphaTmin            1e-10 \
	updateTestStepSize   yes \
	alphaTreduceFactor   0.1 \
	alphaTincreaseFactor 3 \
	nAlphaAdjustMax      3 \
	wolfeEnergy          0.0001 \
	wolfeGradient        0.9 \
	fdTest               no
kpoint   0.000000000000   0.000000000000   0.000000000000  1.00000000000000
kpoint-folding 9 7 1 
latt-move-scale 0 0 0
latt-scale 1 1 1 
lattice  \
	   6.741023000000000   -3.370512000000000    0.000000000000000  \
	   0.000000000000000    7.536693000000000    0.000000000000000  \
	   0.000000000000000    0.000000000000000   45.220160000000000 
lattice-minimize  \
	dirUpdateScheme      L-BFGS \
	linminMethod         DirUpdateRecommended \
	nIterations          0 \
	history              15 \
	knormThreshold       0 \
	energyDiffThreshold  1e-06 \
	nEnergyDiff          2 \
	alphaTstart          1 \
	alphaTmin            1e-10 \
	updateTestStepSize   yes \
	alphaTreduceFactor   0.1 \
	alphaTincreaseFactor 3 \
	nAlphaAdjustMax      3 \
	wolfeEnergy          0.0001 \
	wolfeGradient        0.9 \
	fdTest               no
lcao-params 30 1e-06 0.001
pcm-variant CANDLE
spintype z-spin
subspace-rotation-factor 1 yes
symmetries automatic
symmetry-threshold 0.0001
target-mu -0.208 no

van-der-waals D3



---------- Setting up symmetries ----------

Found 8 point-group symmetries of the bravais lattice
Found 1 space-group symmetries with basis
Applied RMS atom displacement 0 bohrs to make symmetries exact.

---------- Initializing the Grid ----------
R = 
[      6.74102     -3.37051            0  ]
[            0      7.53669            0  ]
[            0            0      45.2202  ]
unit cell volume = 2297.41
G =
[   0.932082    0.41684         -0  ]
[          0   0.833679          0  ]
[          0         -0   0.138947  ]
Minimum fftbox size, Smin = [  28  36  184  ]
Chosen fftbox size, S = [  28  36  192  ]

---------- Exchange Correlation functional ----------
Initalized PBE GGA exchange.
Initalized PBE GGA correlation.

---------- Setting up pseudopotentials ----------
Width of ionic core gaussian charges (only for fluid interactions / plotting) set to 0.397384

Reading pseudopotential file '/projects/musgravc/apps/jdftx-1.6.0/build/pseudopotentials/GBRV_v1.5/cu_pbe_v1.2.uspp':
  Title: Cu.  Created by USPP 7.3.6 on 3-2-2014
  Reference state energy: -201.059491.  19 valence electrons in orbitals:
    |300>  occupation: 2  eigenvalue: -5.020764
    |310>  occupation: 6  eigenvalue: -3.445588
    |320>  occupation: 8  eigenvalue: -0.925168
    |400>  occupation: 2  eigenvalue: -0.567638
    |410>  occupation: 0  eigenvalue: -0.326154
  lMax: 2  lLocal: 3  QijEcut: 6
  6 projectors sampled on a log grid with 613 points:
    l: 0  eig: -5.020767  rCut: 1.4
    l: 0  eig: -0.567640  rCut: 1.4
    l: 1  eig: -3.445589  rCut: 1.55
    l: 1  eig: -0.326157  rCut: 1.55
    l: 2  eig: -0.925170  rCut: 1.5
    l: 2  eig: 1.500000  rCut: 1.5
  Partial core density with radius 0.8
  Transforming core density to a uniform radial grid of dG=0.02 with 1404 points.
  Transforming local potential to a uniform radial grid of dG=0.02 with 1404 points.
  Transforming nonlocal projectors to a uniform radial grid of dG=0.02 with 432 points.
  Transforming density augmentations to a uniform radial grid of dG=0.02 with 1404 points.
  Transforming atomic orbitals to a uniform radial grid of dG=0.02 with 432 points.
  Core radius for overlap checks: 1.55 bohrs.

Initialized 1 species with 10 total atoms.

Folded 1 k-points by 9x7x1 to 63 k-points.

---------- Setting up k-points, bands, fillings ----------
Adding inversion symmetry to k-mesh for non-inversion-symmetric unit cell.
Reduced to 32 k-points under symmetry. 
Computing the number of bands and number of electrons
Reading initial fillings from file jdft.fillings.
nElectrons: 189.270817   nBands: 114   nStates: 64

----- Setting up reduced wavefunction bases (one per k-point) -----
average nbasis = 9814.460 , ideal nbasis = 9814.716

----- Initializing Supercell corresponding to k-point mesh -----
Lattice vector linear combinations in supercell:
[   9   0   0  ]
[   0   7   0  ]
[   0   0   1  ]
Supercell lattice vectors:
[  60.6692  -23.5936  0  ]
[  0  52.7569  0  ]
[  0  0  45.2202  ]

Initializing DFT-D3 calculator:
	Parameters set for gga-PBE functional
	s6:  1.000  s_r6:  1.217
	s8:  0.722  s_r8:  1.000
	Per-atom parameters loaded for:
	Cu:  sqrtQ[a0]:  5.226  Rcov[a0]:  1.909  CN: [ 0.00 0.96 ]

Initializing DFT-D2 calculator for fluid / solvation:
	Cu:  C6:  187.33 Eh-a0^6  R0: 2.952 a0

---------- Setting up ewald sum ----------
Optimum gaussian width for ewald sums = 3.586380 bohr.
Real space sum over 975 unit cells with max indices [  7  6  2  ]
Reciprocal space sum over 4257 terms with max indices [  4  5  21  ]

Computing DFT-D3 correction:
# coordination-number Cu 8.309 8.950 9.056 6.905 4.923 9.055 8.949 8.309 4.923 6.905
# diagonal-C6 Cu 175.00 175.00 175.00 175.00 175.00 175.00 175.00 175.00 175.00 175.00
EvdW_6 =   -0.050832
EvdW_8 =   -0.080578

---------- Allocating electronic variables ----------
Initializing wave functions:  reading from 'jdft.wfns'
----- createFluidSolver() ----- (Fluid-side solver setup)
   Initializing fluid molecule 'H2O'
     Initializing site 'O'
       Electron density: proportional to exp(-r/0.36935)*erfc((r-0.51523)/0.36823) with norm 6.826
       Charge density: gaussian nuclear width 0.478731 with net site charge 0.826
       Polarizability: cuspless exponential with width 0.32 and norm 3.73
       Hard sphere radius: 2.57003 bohrs
       Positions in reference frame:
         [ +0.000000 +0.000000 +0.000000 ]
     Initializing site 'H'
       Electron density: proportional to exp(-r/0.34641)*erfc((r-0)/0.390882) with norm 0.587
       Charge density: gaussian nuclear width 0.377945 with net site charge -0.413
       Polarizability: cuspless exponential with width 0.39 and norm 3.3
       Positions in reference frame:
         [ +0.000000 -1.441945 +1.122523 ]
         [ +0.000000 +1.441945 +1.122523 ]
     Net charge: 0   dipole magnitude: 0.927204
     Initializing spherical shell mfKernel with radius 2.61727 Bohr
     deltaS corrections:
       site 'O': -7.54299
       site 'H': -6.83917
   Initializing fluid molecule 'Na+'
     Initializing site 'Na'
       Electron density: proportional to exp(-r/0.19682)*erfc((r-0.71491)/0.41314) with norm 8.1383
       Charge density: gaussian nuclear width 0.365347 with net site charge -1
       Hard sphere radius: 1.86327 bohrs
       Positions in reference frame:
         [ +0.000000 +0.000000 +0.000000 ]
     Net charge: -1   dipole magnitude: 0
     Initializing gaussian mfKernel with width: 1.55004 Bohr
     deltaS corrections:
       site 'Na': -22.3555
   Initializing fluid molecule 'F-'
     Initializing site 'F'
       Electron density: proportional to exp(-r/0.38886)*erfc((r-0)/0.438782) with norm 8
       Charge density: gaussian nuclear width 0.374796 with net site charge 1
       Hard sphere radius: 2.39995 bohrs
       Positions in reference frame:
         [ +0.000000 +0.000000 +0.000000 ]
     Net charge: 1   dipole magnitude: 0
     Initializing gaussian mfKernel with width: 1.59012 Bohr
     deltaS corrections:
       site 'F': -9.04335

Correction to mu due to finite nuclear width = -0.0820568
   Cavity determined by nc: 0.00142 and sigma: 0.707107
   Nonlocal vdW cavity from gaussian model electron density with norm = 8 and sigma = 0.993594 bohr
   Charge asymmetry in cavity with sensitivity pCavity = 36.5 e-bohr/Eh
   Electrostatic cavity expanded by eta = 1.46 bohrs
   Weighted density cavitation model constrained by Nbulk: 0.0049383 bohr^-3, Pvap: 3.14029 kPa, Rvdw: 2.61727 bohr and sigmaBulk: 4.62e-05 Eh/bohr^2 at T: 298 K.
   Weighted density dispersion model using vdW pair potentials with single solvent site with sqrtC6eff: 0.77 SI.
Reading fluid state from 'jdft.fluidState'


---- Citations for features of the code used in this run ----

   Software package:
      R. Sundararaman, K. Letchworth-Weaver, K.A. Schwarz, D. Gunceler, Y. Ozhabes and T.A. Arias, 'JDFTx: software for joint density-functional theory', SoftwareX 6, 278 (2017)

   gga-PBE exchange-correlation functional:
      J.P. Perdew, K. Burke and M. Ernzerhof, Phys. Rev. Lett. 77, 3865 (1996)

   Pseudopotentials:
      KF Garrity, JW Bennett, KM Rabe and D Vanderbilt, Comput. Mater. Sci. 81, 446 (2014)

   DFT-D3 dispersion correction:
      S. Grimme, J. Antony, S. Ehrlich and H. Krieg, J. Chem. Phys. 132, 154104 (2010)

   DFT-D2 dispersion correction:
      S. Grimme, J. Comput. Chem. 27, 1787 (2006)

   Charge-asymmetric nonlocally-determined local-electric (CANDLE) solvation model:
      R. Sundararaman and W.A. Goddard III, J. Chem. Phys. 142, 064107 (2015)

   Total energy minimization with Auxiliary Hamiltonian:
      C. Freysoldt, S. Boeck, and J. Neugebauer, Phys. Rev. B 79, 241103(R) (2009)

   Grand-canonical (fixed-potential) DFT:
      R. Sundararaman, W. A. Goddard III and T. A. Arias, J. Chem. Phys. 146, 114104 (2017)

   Linear-tetrahedron sampling for density of states:
      G. Lehmann and M. Taut, Phys. status solidi (b) 54, 469 (1972)

This list may not be complete. Please suggest additional citations or
report any other bugs at https://github.com/shankar1729/jdftx/issues

Initialization completed successfully at t[s]:      6.15


Computing DFT-D3 correction:
# coordination-number Cu 8.309 8.950 9.056 6.905 4.923 9.055 8.949 8.309 4.923 6.905
# diagonal-C6 Cu 175.00 175.00 175.00 175.00 175.00 175.00 175.00 175.00 175.00 175.00
EvdW_6 =   -0.050832
EvdW_8 =   -0.080578
Shifting auxilliary hamiltonian by 0.036724 to set nElectrons=189.270817

-------- Electronic minimization -----------
	Linear fluid (dielectric constant: 78.4, screening length: 8.12261 Bohr) occupying 0.505733 of unit cell:	Completed after 19 iterations at t[s]:     13.10
	FillingsUpdate:  mu: -0.208000000  nElectrons: 189.270817  magneticMoment: [ Abs: 0.00000  Tot: +0.00000 ]
ElecMinimize: Iter:   0  G: -1978.483604508862982  |grad|_K:  1.447e-04  alpha:  1.000e+00
	Linear fluid (dielectric constant: 78.4, screening length: 8.12261 Bohr) occupying 0.570827 of unit cell:	Completed after 32 iterations at t[s]:     35.38
	Linear fluid (dielectric constant: 78.4, screening length: 8.12261 Bohr) occupying 0.504134 of unit cell:	Completed after 26 iterations at t[s]:     43.93
	FillingsUpdate:  mu: -0.208000000  nElectrons: 189.685163  magneticMoment: [ Abs: 0.00000  Tot: +0.00000 ]
	SubspaceRotationAdjust: set factor to 0.932
ElecMinimize: Iter:   1  G: -1978.683233225870708  |grad|_K:  1.765e-04  alpha:  1.614e-01  linmin:  1.729e-03  t[s]:     55.04
	Linear fluid (dielectric constant: 78.4, screening length: 8.12261 Bohr) occupying 0.502651 of unit cell:	Completed after 22 iterations at t[s]:     64.36
	Linear fluid (dielectric constant: 78.4, screening length: 8.12261 Bohr) occupying 0.504102 of unit cell:	Completed after 21 iterations at t[s]:     72.66
	FillingsUpdate:  mu: -0.208000000  nElectrons: 189.270363  magneticMoment: [ Abs: 0.00000  Tot: +0.00000 ]
	SubspaceRotationAdjust: set factor to 0.719
ElecMinimize: Iter:   2  G: -1978.751280016197370  |grad|_K:  1.753e-04  alpha:  4.741e-02  linmin:  1.671e-04  t[s]:     83.77
	Linear fluid (dielectric constant: 78.4, screening length: 8.12261 Bohr) occupying 0.502757 of unit cell:	Completed after 19 iterations at t[s]:     92.97
	Linear fluid (dielectric constant: 78.4, screening length: 8.12261 Bohr) occupying 0.501926 of unit cell:	Completed after 18 iterations at t[s]:    101.01
	FillingsUpdate:  mu: -0.208000000  nElectrons: 189.718661  magneticMoment: [ Abs: 0.00000  Tot: +0.00000 ]
	SubspaceRotationAdjust: set factor to 0.328
ElecMinimize: Iter:   3  G: -1978.900533531869087  |grad|_K:  8.535e-05  alpha:  7.566e-02  linmin:  1.664e-03  t[s]:    112.23
	Linear fluid (dielectric constant: 78.4, screening length: 8.12261 Bohr) occupying 0.502196 of unit cell:	Completed after 19 iterations at t[s]:    121.52
	Linear fluid (dielectric constant: 78.4, screening length: 8.12261 Bohr) occupying 0.502067 of unit cell:	Completed after 17 iterations at t[s]:    129.53
	FillingsUpdate:  mu: -0.208000000  nElectrons: 189.509015  magneticMoment: [ Abs: 0.00000  Tot: +0.00000 ]
	SubspaceRotationAdjust: set factor to 0.184
ElecMinimize: Iter:   4  G: -1978.918957219672620  |grad|_K:  4.940e-05  alpha:  4.349e-02  linmin:  1.795e-04  t[s]:    140.69
	Linear fluid (dielectric constant: 78.4, screening length: 8.12261 Bohr) occupying 0.501940 of unit cell:	Completed after 14 iterations at t[s]:    149.73
	Linear fluid (dielectric constant: 78.4, screening length: 8.12261 Bohr) occupying 0.501837 of unit cell:	Completed after 14 iterations at t[s]:    157.69
	FillingsUpdate:  mu: -0.208000000  nElectrons: 189.513873  magneticMoment: [ Abs: 0.00000  Tot: +0.00000 ]
	SubspaceRotationAdjust: set factor to 0.273
ElecMinimize: Iter:   5  G: -1978.932530832153589  |grad|_K:  3.268e-05  alpha:  7.832e-02  linmin: -3.754e-05  t[s]:    168.90
	Linear fluid (dielectric constant: 78.4, screening length: 8.12261 Bohr) occupying 0.501501 of unit cell:	Completed after 16 iterations at t[s]:    178.01
	Linear fluid (dielectric constant: 78.4, screening length: 8.12261 Bohr) occupying 0.501282 of unit cell:	Completed after 15 iterations at t[s]:    186.01
	FillingsUpdate:  mu: -0.208000000  nElectrons: 189.596539  magneticMoment: [ Abs: 0.00000  Tot: +0.00000 ]
	SubspaceRotationAdjust: set factor to 0.237
ElecMinimize: Iter:   6  G: -1978.942478109349167  |grad|_K:  2.882e-05  alpha:  1.295e-01  linmin:  9.834e-05  t[s]:    197.35
	Linear fluid (dielectric constant: 78.4, screening length: 8.12261 Bohr) occupying 0.500867 of unit cell:	Completed after 16 iterations at t[s]:    206.48
	Linear fluid (dielectric constant: 78.4, screening length: 8.12261 Bohr) occupying 0.501002 of unit cell:	Completed after 15 iterations at t[s]:    214.33
	FillingsUpdate:  mu: -0.208000000  nElectrons: 189.550312  magneticMoment: [ Abs: 0.00000  Tot: +0.00000 ]
	SubspaceRotationAdjust: set factor to 0.345
ElecMinimize: Iter:   7  G: -1978.947636766953337  |grad|_K:  1.504e-05  alpha:  8.688e-02  linmin:  4.265e-07  t[s]:    225.53
	Linear fluid (dielectric constant: 78.4, screening length: 8.12261 Bohr) occupying 0.500886 of unit cell:	Completed after 14 iterations at t[s]:    234.39
	Linear fluid (dielectric constant: 78.4, screening length: 8.12261 Bohr) occupying 0.500854 of unit cell:	Completed after 14 iterations at t[s]:    242.20
	FillingsUpdate:  mu: -0.208000000  nElectrons: 189.500967  magneticMoment: [ Abs: 0.00000  Tot: +0.00000 ]
	SubspaceRotationAdjust: set factor to 0.312
ElecMinimize: Iter:   8  G: -1978.949450495133760  |grad|_K:  1.332e-05  alpha:  1.112e-01  linmin: -3.628e-05  t[s]:    253.73
	Linear fluid (dielectric constant: 78.4, screening length: 8.12261 Bohr) occupying 0.500455 of unit cell:	Completed after 15 iterations at t[s]:    262.85
	Linear fluid (dielectric constant: 78.4, screening length: 8.12261 Bohr) occupying 0.500524 of unit cell:	Completed after 14 iterations at t[s]:    270.68
	FillingsUpdate:  mu: -0.208000000  nElectrons: 189.528361  magneticMoment: [ Abs: 0.00000  Tot: +0.00000 ]
	SubspaceRotationAdjust: set factor to 0.376
ElecMinimize: Iter:   9  G: -1978.950632707726982  |grad|_K:  8.350e-06  alpha:  9.220e-02  linmin:  6.025e-06  t[s]:    281.95
	Linear fluid (dielectric constant: 78.4, screening length: 8.12261 Bohr) occupying 0.500271 of unit cell:	Completed after 14 iterations at t[s]:    290.88
	Linear fluid (dielectric constant: 78.4, screening length: 8.12261 Bohr) occupying 0.500039 of unit cell:	Completed after 14 iterations at t[s]:    298.75
	FillingsUpdate:  mu: -0.208000000  nElectrons: 189.541920  magneticMoment: [ Abs: 0.00000  Tot: +0.00000 ]
	SubspaceRotationAdjust: set factor to 0.438
ElecMinimize: Iter:  10  G: -1978.951515894246768  |grad|_K:  9.768e-06  alpha:  1.758e-01  linmin: -9.616e-06  t[s]:    309.89
	Linear fluid (dielectric constant: 78.4, screening length: 8.12261 Bohr) occupying 0.499230 of unit cell:	Completed after 15 iterations at t[s]:    318.95
	Linear fluid (dielectric constant: 78.4, screening length: 8.12261 Bohr) occupying 0.499478 of unit cell:	Completed after 14 iterations at t[s]:    326.77
	FillingsUpdate:  mu: -0.208000000  nElectrons: 189.511471  magneticMoment: [ Abs: 0.00000  Tot: +0.00000 ]
	SubspaceRotationAdjust: set factor to 0.373
ElecMinimize: Iter:  11  G: -1978.952361540757920  |grad|_K:  1.143e-05  alpha:  1.227e-01  linmin:  1.621e-06  t[s]:    338.02
	Linear fluid (dielectric constant: 78.4, screening length: 8.12261 Bohr) occupying 0.498342 of unit cell:	Completed after 15 iterations at t[s]:    347.22
	Linear fluid (dielectric constant: 78.4, screening length: 8.12261 Bohr) occupying 0.498501 of unit cell:	Completed after 13 iterations at t[s]:    355.22
	FillingsUpdate:  mu: -0.208000000  nElectrons: 189.542405  magneticMoment: [ Abs: 0.00000  Tot: +0.00000 ]
	SubspaceRotationAdjust: set factor to 0.4
ElecMinimize: Iter:  12  G: -1978.953355505192121  |grad|_K:  7.048e-06  alpha:  1.059e-01  linmin: -1.260e-05  t[s]:    366.48
	Linear fluid (dielectric constant: 78.4, screening length: 8.12261 Bohr) occupying 0.498024 of unit cell:	Completed after 14 iterations at t[s]:    375.41
	Linear fluid (dielectric constant: 78.4, screening length: 8.12261 Bohr) occupying 0.497887 of unit cell:	Completed after 10 iterations at t[s]:    383.09
	FillingsUpdate:  mu: -0.208000000  nElectrons: 189.554263  magneticMoment: [ Abs: 0.00000  Tot: +0.00000 ]
	SubspaceRotationAdjust: set factor to 0.437
ElecMinimize: Iter:  13  G: -1978.953844532114317  |grad|_K:  6.721e-06  alpha:  1.360e-01  linmin: -1.493e-05  t[s]:    394.49
	Linear fluid (dielectric constant: 78.4, screening length: 8.12261 Bohr) occupying 0.497235 of unit cell:	Completed after 14 iterations at t[s]:    403.48
	Linear fluid (dielectric constant: 78.4, screening length: 8.12261 Bohr) occupying 0.497234 of unit cell:	Completed after 0 iterations at t[s]:    410.28
	FillingsUpdate:  mu: -0.208000000  nElectrons: 189.539395  magneticMoment: [ Abs: 0.00000  Tot: +0.00000 ]
	SubspaceRotationAdjust: set factor to 0.36
ElecMinimize: Iter:  14  G: -1978.954289732302186  |grad|_K:  7.179e-06  alpha:  1.362e-01  linmin: -2.238e-05  t[s]:    421.30
	Linear fluid (dielectric constant: 78.4, screening length: 8.12261 Bohr) occupying 0.496233 of unit cell:	Completed after 15 iterations at t[s]:    430.17
	Linear fluid (dielectric constant: 78.4, screening length: 8.12261 Bohr) occupying 0.496654 of unit cell:	Completed after 14 iterations at t[s]:    437.97
	FillingsUpdate:  mu: -0.208000000  nElectrons: 189.562594  magneticMoment: [ Abs: 0.00000  Tot: +0.00000 ]
	SubspaceRotationAdjust: set factor to 0.334
ElecMinimize: Iter:  15  G: -1978.954579861372395  |grad|_K:  3.563e-06  alpha:  7.910e-02  linmin:  2.880e-05  t[s]:    449.47
	Linear fluid (dielectric constant: 78.4, screening length: 8.12261 Bohr) occupying 0.496467 of unit cell:	Completed after 12 iterations at t[s]:    458.33
	Linear fluid (dielectric constant: 78.4, screening length: 8.12261 Bohr) occupying 0.496253 of unit cell:	Completed after 12 iterations at t[s]:    466.00
	FillingsUpdate:  mu: -0.208000000  nElectrons: 189.571635  magneticMoment: [ Abs: 0.00000  Tot: +0.00000 ]
	SubspaceRotationAdjust: set factor to 0.371
ElecMinimize: Iter:  16  G: -1978.954733431345403  |grad|_K:  3.539e-06  alpha:  1.687e-01  linmin: -1.282e-05  t[s]:    477.28
	Linear fluid (dielectric constant: 78.4, screening length: 8.12261 Bohr) occupying 0.495781 of unit cell:	Completed after 14 iterations at t[s]:    486.27
	Linear fluid (dielectric constant: 78.4, screening length: 8.12261 Bohr) occupying 0.495860 of unit cell:	Completed after 12 iterations at t[s]:    493.97
	FillingsUpdate:  mu: -0.208000000  nElectrons: 189.568115  magneticMoment: [ Abs: 0.00000  Tot: +0.00000 ]
	SubspaceRotationAdjust: set factor to 0.315
ElecMinimize: Iter:  17  G: -1978.954860914031087  |grad|_K:  2.802e-06  alpha:  1.408e-01  linmin: -1.158e-06  t[s]:    505.11
	Linear fluid (dielectric constant: 78.4, screening length: 8.12261 Bohr) occupying 0.495520 of unit cell:	Completed after 14 iterations at t[s]:    514.10
	Linear fluid (dielectric constant: 78.4, screening length: 8.12261 Bohr) occupying 0.495604 of unit cell:	Completed after 12 iterations at t[s]:    521.89
	FillingsUpdate:  mu: -0.208000000  nElectrons: 189.577848  magneticMoment: [ Abs: 0.00000  Tot: +0.00000 ]
	SubspaceRotationAdjust: set factor to 0.295
ElecMinimize: Iter:  18  G: -1978.954920632511175  |grad|_K:  2.084e-06  alpha:  1.061e-01  linmin: -1.222e-05  t[s]:    532.97
	Linear fluid (dielectric constant: 78.4, screening length: 8.12261 Bohr) occupying 0.495427 of unit cell:	Completed after 11 iterations at t[s]:    541.85
	Linear fluid (dielectric constant: 78.4, screening length: 8.12261 Bohr) occupying 0.495310 of unit cell:	Completed after 7 iterations at t[s]:    549.37
	FillingsUpdate:  mu: -0.208000000  nElectrons: 189.583097  magneticMoment: [ Abs: 0.00000  Tot: +0.00000 ]
	SubspaceRotationAdjust: set factor to 0.33
ElecMinimize: Iter:  19  G: -1978.954975736314964  |grad|_K:  1.822e-06  alpha:  1.758e-01  linmin:  7.321e-06  t[s]:    560.67
	Linear fluid (dielectric constant: 78.4, screening length: 8.12261 Bohr) occupying 0.495037 of unit cell:	Completed after 11 iterations at t[s]:    569.35
	Linear fluid (dielectric constant: 78.4, screening length: 8.12261 Bohr) occupying 0.495116 of unit cell:	Completed after 10 iterations at t[s]:    576.92
	FillingsUpdate:  mu: -0.208000000  nElectrons: 189.584554  magneticMoment: [ Abs: 0.00000  Tot: +0.00000 ]
	SubspaceRotationAdjust: set factor to 0.337
ElecMinimize: Iter:  20  G: -1978.955005655969444  |grad|_K:  1.268e-06  alpha:  1.251e-01  linmin:  3.085e-06  t[s]:    588.06
	Linear fluid (dielectric constant: 78.4, screening length: 8.12261 Bohr) occupying 0.494985 of unit cell:	Completed after 11 iterations at t[s]:    596.59
	Linear fluid (dielectric constant: 78.4, screening length: 8.12261 Bohr) occupying 0.494955 of unit cell:	Completed after 10 iterations at t[s]:    604.14
	FillingsUpdate:  mu: -0.208000000  nElectrons: 189.589310  magneticMoment: [ Abs: 0.00000  Tot: +0.00000 ]
	SubspaceRotationAdjust: set factor to 0.333
ElecMinimize: Iter:  21  G: -1978.955023456981735  |grad|_K:  1.252e-06  alpha:  1.537e-01  linmin: -4.084e-05  t[s]:    615.41
	Linear fluid (dielectric constant: 78.4, screening length: 8.12261 Bohr) occupying 0.494764 of unit cell:	Completed after 11 iterations at t[s]:    624.01
	Linear fluid (dielectric constant: 78.4, screening length: 8.12261 Bohr) occupying 0.494777 of unit cell:	Completed after 7 iterations at t[s]:    631.30
	FillingsUpdate:  mu: -0.208000000  nElectrons: 189.590440  magneticMoment: [ Abs: 0.00000  Tot: +0.00000 ]
	SubspaceRotationAdjust: set factor to 0.375
ElecMinimize: Iter:  22  G: -1978.955039667917617  |grad|_K:  8.390e-07  alpha:  1.430e-01  linmin:  1.507e-05  t[s]:    642.87
	Linear fluid (dielectric constant: 78.4, screening length: 8.12261 Bohr) occupying 0.494668 of unit cell:	Completed after 10 iterations at t[s]:    651.65
	Linear fluid (dielectric constant: 78.4, screening length: 8.12261 Bohr) occupying 0.494655 of unit cell:	Completed after 2 iterations at t[s]:    658.61
	FillingsUpdate:  mu: -0.208000000  nElectrons: 189.591893  magneticMoment: [ Abs: 0.00000  Tot: +0.00000 ]
	SubspaceRotationAdjust: set factor to 0.417
ElecMinimize: Iter:  23  G: -1978.955047756244085  |grad|_K:  8.383e-07  alpha:  1.597e-01  linmin:  3.214e-06  t[s]:    669.86
	Linear fluid (dielectric constant: 78.4, screening length: 8.12261 Bohr) occupying 0.494501 of unit cell:	Completed after 11 iterations at t[s]:    678.63
	Linear fluid (dielectric constant: 78.4, screening length: 8.12261 Bohr) occupying 0.494498 of unit cell:	Completed after 2 iterations at t[s]:    685.68
	FillingsUpdate:  mu: -0.208000000  nElectrons: 189.595285  magneticMoment: [ Abs: 0.00000  Tot: +0.00000 ]
	SubspaceRotationAdjust: set factor to 0.418
ElecMinimize: Iter:  24  G: -1978.955055973056233  |grad|_K:  7.158e-07  alpha:  1.624e-01  linmin: -2.316e-05  t[s]:    696.72
	Linear fluid (dielectric constant: 78.4, screening length: 8.12261 Bohr) occupying 0.494361 of unit cell:	Completed after 12 iterations at t[s]:    705.52
	Linear fluid (dielectric constant: 78.4, screening length: 8.12261 Bohr) occupying 0.494409 of unit cell:	Completed after 10 iterations at t[s]:    713.31
	FillingsUpdate:  mu: -0.208000000  nElectrons: 189.594456  magneticMoment: [ Abs: 0.00000  Tot: +0.00000 ]
	SubspaceRotationAdjust: set factor to 0.368
ElecMinimize: Iter:  25  G: -1978.955059880887120  |grad|_K:  5.518e-07  alpha:  1.055e-01  linmin:  4.658e-06  t[s]:    724.38
	Linear fluid (dielectric constant: 78.4, screening length: 8.12261 Bohr) occupying 0.494342 of unit cell:	Completed after 10 iterations at t[s]:    732.94
	Linear fluid (dielectric constant: 78.4, screening length: 8.12261 Bohr) occupying 0.494275 of unit cell:	Completed after 10 iterations at t[s]:    740.74
	FillingsUpdate:  mu: -0.208000000  nElectrons: 189.597000  magneticMoment: [ Abs: 0.00000  Tot: +0.00000 ]
	SubspaceRotationAdjust: set factor to 0.381
ElecMinimize: Iter:  26  G: -1978.955064463757935  |grad|_K:  5.899e-07  alpha:  2.089e-01  linmin: -6.786e-06  t[s]:    752.19
	Linear fluid (dielectric constant: 78.4, screening length: 8.12261 Bohr) occupying 0.494102 of unit cell:	Completed after 10 iterations at t[s]:    760.77
	Linear fluid (dielectric constant: 78.4, screening length: 8.12261 Bohr) occupying 0.494164 of unit cell:	Completed after 9 iterations at t[s]:    768.38
	FillingsUpdate:  mu: -0.208000000  nElectrons: 189.598748  magneticMoment: [ Abs: 0.00000  Tot: -0.00000 ]
	SubspaceRotationAdjust: set factor to 0.423
ElecMinimize: Iter:  27  G: -1978.955067845989333  |grad|_K:  3.717e-07  alpha:  1.347e-01  linmin:  1.238e-06  t[s]:    779.44
	Linear fluid (dielectric constant: 78.4, screening length: 8.12261 Bohr) occupying 0.494111 of unit cell:	Completed after 10 iterations at t[s]:    788.31
	Linear fluid (dielectric constant: 78.4, screening length: 8.12261 Bohr) occupying 0.494108 of unit cell:	Completed after 2 iterations at t[s]:    795.51
	FillingsUpdate:  mu: -0.208000000  nElectrons: 189.598670  magneticMoment: [ Abs: 0.00000  Tot: -0.00000 ]
	SubspaceRotationAdjust: set factor to 0.39
ElecMinimize: Iter:  28  G: -1978.955069272020182  |grad|_K:  3.422e-07  alpha:  1.433e-01  linmin: -2.202e-05  t[s]:    806.75
	Linear fluid (dielectric constant: 78.4, screening length: 8.12261 Bohr) occupying 0.494052 of unit cell:	Completed after 10 iterations at t[s]:    815.46
	Linear fluid (dielectric constant: 78.4, screening length: 8.12261 Bohr) occupying 0.494051 of unit cell:	Completed after 0 iterations at t[s]:    822.29
	FillingsUpdate:  mu: -0.208000000  nElectrons: 189.600188  magneticMoment: [ Abs: 0.00000  Tot: -0.00000 ]
	SubspaceRotationAdjust: set factor to 0.348
ElecMinimize: Iter:  29  G: -1978.955070507046003  |grad|_K:  2.697e-07  alpha:  1.458e-01  linmin: -2.355e-06  t[s]:    833.55
	Linear fluid (dielectric constant: 78.4, screening length: 8.12261 Bohr) occupying 0.494011 of unit cell:	Completed after 10 iterations at t[s]:    842.08
	Linear fluid (dielectric constant: 78.4, screening length: 8.12261 Bohr) occupying 0.494018 of unit cell:	Completed after 1 iterations at t[s]:    848.98
	FillingsUpdate:  mu: -0.208000000  nElectrons: 189.600431  magneticMoment: [ Abs: 0.00000  Tot: -0.00000 ]
	SubspaceRotationAdjust: set factor to 0.348
ElecMinimize: Iter:  30  G: -1978.955071143519490  |grad|_K:  2.047e-07  alpha:  1.213e-01  linmin:  1.709e-05  t[s]:    860.18
	Linear fluid (dielectric constant: 78.4, screening length: 8.12261 Bohr) occupying 0.493995 of unit cell:	Completed after 3 iterations at t[s]:    868.10
	Linear fluid (dielectric constant: 78.4, screening length: 8.12261 Bohr) occupying 0.493983 of unit cell:	Completed after 2 iterations at t[s]:    875.07
	FillingsUpdate:  mu: -0.208000000  nElectrons: 189.600905  magneticMoment: [ Abs: 0.00000  Tot: -0.00000 ]
	SubspaceRotationAdjust: set factor to 0.367
ElecMinimize: Iter:  31  G: -1978.955071714784935  |grad|_K:  1.764e-07  alpha:  1.900e-01  linmin: -3.187e-06  t[s]:    886.61
	Linear fluid (dielectric constant: 78.4, screening length: 8.12261 Bohr) occupying 0.493953 of unit cell:	Completed after 8 iterations at t[s]:    895.22
	Linear fluid (dielectric constant: 78.4, screening length: 8.12261 Bohr) occupying 0.493964 of unit cell:	Completed after 3 iterations at t[s]:    902.24
	FillingsUpdate:  mu: -0.208000000  nElectrons: 189.601197  magneticMoment: [ Abs: 0.00000  Tot: -0.00000 ]
	SubspaceRotationAdjust: set factor to 0.375
ElecMinimize: Iter:  32  G: -1978.955071991467548  |grad|_K:  1.349e-07  alpha:  1.235e-01  linmin:  2.754e-06  t[s]:    913.47
	Linear fluid (dielectric constant: 78.4, screening length: 8.12261 Bohr) occupying 0.493951 of unit cell:	Completed after 8 iterations at t[s]:    922.00
	Linear fluid (dielectric constant: 78.4, screening length: 8.12261 Bohr) occupying 0.493948 of unit cell:	Completed after 2 iterations at t[s]:    929.07
	FillingsUpdate:  mu: -0.208000000  nElectrons: 189.600990  magneticMoment: [ Abs: 0.00000  Tot: -0.00000 ]
	SubspaceRotationAdjust: set factor to 0.339
ElecMinimize: Iter:  33  G: -1978.955072198439666  |grad|_K:  1.233e-07  alpha:  1.567e-01  linmin: -1.230e-04  t[s]:    940.13
	Linear fluid (dielectric constant: 78.4, screening length: 8.12261 Bohr) occupying 0.493933 of unit cell:	Completed after 9 iterations at t[s]:    948.70
	Linear fluid (dielectric constant: 78.4, screening length: 8.12261 Bohr) occupying 0.493936 of unit cell:	Completed after 2 iterations at t[s]:    955.77
	FillingsUpdate:  mu: -0.208000000  nElectrons: 189.601250  magneticMoment: [ Abs: 0.00000  Tot: -0.00000 ]
	SubspaceRotationAdjust: set factor to 0.354
ElecMinimize: Iter:  34  G: -1978.955072332575810  |grad|_K:  7.071e-08  alpha:  1.182e-01  linmin:  7.132e-05  t[s]:    966.81
	Linear fluid (dielectric constant: 78.4, screening length: 8.12261 Bohr) occupying 0.493932 of unit cell:	Completed after 2 iterations at t[s]:    975.08
	Linear fluid (dielectric constant: 78.4, screening length: 8.12261 Bohr) occupying 0.493931 of unit cell:	Completed after 0 iterations at t[s]:    982.03
	FillingsUpdate:  mu: -0.208000000  nElectrons: 189.601319  magneticMoment: [ Abs: 0.00000  Tot: -0.00000 ]
	SubspaceRotationAdjust: set factor to 0.379
ElecMinimize: Iter:  35  G: -1978.955072386151869  |grad|_K:  6.250e-08  alpha:  1.499e-01  linmin: -6.808e-05  t[s]:    993.40
	Linear fluid (dielectric constant: 78.4, screening length: 8.12261 Bohr) occupying 0.493927 of unit cell:	Completed after 6 iterations at t[s]:   1001.72
	Linear fluid (dielectric constant: 78.4, screening length: 8.12261 Bohr) occupying 0.493925 of unit cell:	Completed after 0 iterations at t[s]:   1008.50
	FillingsUpdate:  mu: -0.208000000  nElectrons: 189.601260  magneticMoment: [ Abs: 0.00000  Tot: -0.00000 ]
	SubspaceRotationAdjust: set factor to 0.391
ElecMinimize: Iter:  36  G: -1978.955072443151494  |grad|_K:  5.100e-08  alpha:  1.978e-01  linmin: -1.228e-04  t[s]:   1019.79
ElecMinimize: Converged (|Delta G|<1.000000e-07 for 2 iters).
Setting wave functions to eigenvectors of Hamiltonian
Converging empty states (this may take a while): |deigs|: 1.370e-03

Computing DFT-D3 correction:
# coordination-number Cu 8.309 8.950 9.056 6.905 4.923 9.055 8.949 8.309 4.923 6.905
# diagonal-C6 Cu 175.00 175.00 175.00 175.00 175.00 175.00 175.00 175.00 175.00 175.00
EvdW_6 =   -0.050832
EvdW_8 =   -0.080578

# Ionic positions in cartesian coordinates:
ion Cu   3.375032000000000   1.528856000000000  11.416236000000000 1
ion Cu   0.000010000000000   2.995692000000000   8.271535999999999 1
ion Cu   3.367323000000000   4.548016999999999   5.273258000000001 1
ion Cu  -0.002811000000000   6.036092000000000   2.210949000000000 1
ion Cu   0.003758000000000  -0.019377000000000  14.213103000000000 1
ion Cu   3.373811000000000   6.003525999999999   9.800068000000000 1
ion Cu   3.370724000000000   0.019603000000000   6.801881000000000 1
ion Cu  -0.005170000000000   1.486236000000000   3.657180000000000 1
ion Cu   3.366830999999999   3.033202000000000   0.860268000000000 1
ion Cu   0.003054000000000   4.514930999999999  12.862467000000002 1

# Forces in Cartesian coordinates:
force Cu  -0.000073755122674  -0.000195272625339  -0.000305839037069 1
force Cu   0.000123112999149   0.000049926178566   0.000322915901543 1
force Cu  -0.000111209947921  -0.000168432623512  -0.000983812178933 1
force Cu   0.000076367207659   0.000097269672048   0.001234687607563 1
force Cu   0.000029749334896  -0.000156479710302   0.002177307560079 1
force Cu   0.000107682629262   0.000160220896602   0.000984904825680 1
force Cu  -0.000126059702105  -0.000038382386071  -0.000328846464695 1
force Cu   0.000074956732935   0.000204881091165   0.000316441151934 1
force Cu  -0.000033871133303   0.000143632824779  -0.002179542937107 1
force Cu  -0.000073021687617  -0.000107481650160  -0.001237680906761 1

# Energy components:
   A_diel =        0.0565719771801904
   Eewald =     6315.5608347247052734
       EH =     8154.8437680625283974
     Eloc =   -16867.9827521493643872
      Enl =      366.2770373401255597
     EvdW =       -0.1314103107303026
      Exc =     -193.9412094758454828
 Exc_core =        0.4697209560711540
       KE =      206.4228687289856623
  MuShift =        0.0327193364069535
-------------------------------------
     Etot =    -2018.3918508099368410
       TS =        0.0002836723928804
-------------------------------------
        F =    -2018.3921344823297659
      muN =      -39.4370620391783717
-------------------------------------
        G =    -1978.9550724431514936


Dumping 'jdft.fillings' ... done
Dumping 'jdft.wfns' ... done
Dumping 'jdft.fluidState' ... done
Dumping 'jdft.ionpos' ... done
Dumping 'jdft.lattice' ... done
Dumping 'jdft.eigenvals' ... done
Dumping 'jdft.eigStats' ... 
	eMin: -4.347253 at state 0 ( [ +0.000000 +0.000000 +0.000000 ] spin 1 )
	HOMO: -0.209214 at state 31 ( [ +0.444444 -0.142857 +0.000000 ] spin 1 )
	mu  : -0.208000
	LUMO: -0.207353 at state 14 ( [ +0.222222 +0.428571 +0.000000 ] spin 1 )
	eMax: +0.177081 at state 19 ( [ +0.333333 +0.142857 +0.000000 ] spin 1 )
	HOMO-LUMO gap: +0.001861
	Optical gap  : +0.009320 at state 20 ( [ +0.333333 +0.285714 +0.000000 ] spin 1 )
Dumping 'jdft.Ecomponents' ... done
IonicMinimize: Iter:   0  G: -1978.955072443151494  |grad|_K:  7.112e-04  t[s]:   1076.27

#--- Lowdin population analysis ---
# oxidation-state Cu +0.031 +0.075 +0.048 +0.104 +0.372 +0.048 +0.075 +0.031 +0.372 +0.104
# magnetic-moments Cu -0.000 -0.000 -0.000 -0.000 -0.000 -0.000 -0.000 -0.000 -0.000 -0.000


Computing DFT-D3 correction:
# coordination-number Cu 8.309 8.949 9.055 6.906 4.919 9.055 8.949 8.310 4.919 6.907
# diagonal-C6 Cu 175.00 175.00 175.00 175.00 175.00 175.00 175.00 175.00 175.00 175.00
EvdW_6 =   -0.050831
EvdW_8 =   -0.080571
Shifting auxilliary hamiltonian by 0.000018 to set nElectrons=189.601260

-------- Electronic minimization -----------
	Linear fluid (dielectric constant: 78.4, screening length: 8.12261 Bohr) occupying 0.493881 of unit cell:	Completed after 6 iterations at t[s]:   1085.55
	FillingsUpdate:  mu: -0.208000000  nElectrons: 189.601260  magneticMoment: [ Abs: 0.00000  Tot: +0.00000 ]
ElecMinimize: Iter:   0  G: -1978.955084610526683  |grad|_K:  3.497e-07  alpha:  1.000e+00
	Linear fluid (dielectric constant: 78.4, screening length: 8.12261 Bohr) occupying 0.493882 of unit cell:	Completed after 14 iterations at t[s]:   1106.53
	Linear fluid (dielectric constant: 78.4, screening length: 8.12261 Bohr) occupying 0.493881 of unit cell:	Completed after 13 iterations at t[s]:   1114.44
	FillingsUpdate:  mu: -0.208000000  nElectrons: 189.600568  magneticMoment: [ Abs: 0.00000  Tot: +0.00000 ]
	SubspaceRotationAdjust: set factor to 0.343
ElecMinimize: Iter:   1  G: -1978.955085556250197  |grad|_K:  2.264e-07  alpha:  1.059e-01  linmin: -5.971e-05  t[s]:   1125.45
	Linear fluid (dielectric constant: 78.4, screening length: 8.12261 Bohr) occupying 0.493881 of unit cell:	Completed after 10 iterations at t[s]:   1134.21
	Linear fluid (dielectric constant: 78.4, screening length: 8.12261 Bohr) occupying 0.493880 of unit cell:	Completed after 9 iterations at t[s]:   1141.78
	FillingsUpdate:  mu: -0.208000000  nElectrons: 189.601382  magneticMoment: [ Abs: 0.00000  Tot: +0.00000 ]
	SubspaceRotationAdjust: set factor to 0.268
ElecMinimize: Iter:   2  G: -1978.955086366150908  |grad|_K:  2.385e-07  alpha:  2.180e-01  linmin:  3.491e-07  t[s]:   1152.81
	Linear fluid (dielectric constant: 78.4, screening length: 8.12261 Bohr) occupying 0.493879 of unit cell:	Completed after 11 iterations at t[s]:   1161.75
	Linear fluid (dielectric constant: 78.4, screening length: 8.12261 Bohr) occupying 0.493880 of unit cell:	Completed after 10 iterations at t[s]:   1169.52
	FillingsUpdate:  mu: -0.208000000  nElectrons: 189.600797  magneticMoment: [ Abs: 0.00000  Tot: +0.00000 ]
	SubspaceRotationAdjust: set factor to 0.224
ElecMinimize: Iter:   3  G: -1978.955086838001762  |grad|_K:  1.332e-07  alpha:  1.153e-01  linmin:  8.019e-07  t[s]:   1180.91
	Linear fluid (dielectric constant: 78.4, screening length: 8.12261 Bohr) occupying 0.493879 of unit cell:	Completed after 2 iterations at t[s]:   1188.99
	Linear fluid (dielectric constant: 78.4, screening length: 8.12261 Bohr) occupying 0.493879 of unit cell:	Completed after 2 iterations at t[s]:   1196.01
	FillingsUpdate:  mu: -0.208000000  nElectrons: 189.600769  magneticMoment: [ Abs: 0.00000  Tot: +0.00000 ]
	SubspaceRotationAdjust: set factor to 0.267
ElecMinimize: Iter:   4  G: -1978.955087076050177  |grad|_K:  9.612e-08  alpha:  1.859e-01  linmin: -9.490e-06  t[s]:   1207.10
	Linear fluid (dielectric constant: 78.4, screening length: 8.12261 Bohr) occupying 0.493878 of unit cell:	Completed after 8 iterations at t[s]:   1215.47
	Linear fluid (dielectric constant: 78.4, screening length: 8.12261 Bohr) occupying 0.493878 of unit cell:	Completed after 2 iterations at t[s]:   1222.37
	FillingsUpdate:  mu: -0.208000000  nElectrons: 189.600973  magneticMoment: [ Abs: 0.00000  Tot: +0.00000 ]
	SubspaceRotationAdjust: set factor to 0.274
ElecMinimize: Iter:   5  G: -1978.955087184667036  |grad|_K:  8.327e-08  alpha:  1.621e-01  linmin:  2.342e-05  t[s]:   1233.56
	Linear fluid (dielectric constant: 78.4, screening length: 8.12261 Bohr) occupying 0.493877 of unit cell:	Completed after 2 iterations at t[s]:   1241.49
	Linear fluid (dielectric constant: 78.4, screening length: 8.12261 Bohr) occupying 0.493876 of unit cell:	Completed after 1 iterations at t[s]:   1248.32
	FillingsUpdate:  mu: -0.208000000  nElectrons: 189.601004  magneticMoment: [ Abs: 0.00000  Tot: +0.00000 ]
	SubspaceRotationAdjust: set factor to 0.308
ElecMinimize: Iter:   6  G: -1978.955087327470210  |grad|_K:  7.168e-08  alpha:  2.890e-01  linmin: -6.871e-06  t[s]:   1259.83
	Linear fluid (dielectric constant: 78.4, screening length: 8.12261 Bohr) occupying 0.493875 of unit cell:	Completed after 6 iterations at t[s]:   1268.28
	Linear fluid (dielectric constant: 78.4, screening length: 8.12261 Bohr) occupying 0.493876 of unit cell:	Completed after 2 iterations at t[s]:   1275.26
	FillingsUpdate:  mu: -0.208000000  nElectrons: 189.600969  magneticMoment: [ Abs: 0.00000  Tot: +0.00000 ]
	SubspaceRotationAdjust: set factor to 0.369
ElecMinimize: Iter:   7  G: -1978.955087371659829  |grad|_K:  4.129e-08  alpha:  1.185e-01  linmin:  1.132e-05  t[s]:   1286.37
	Linear fluid (dielectric constant: 78.4, screening length: 8.12261 Bohr) occupying 0.493876 of unit cell:	Completed after 2 iterations at t[s]:   1294.44
	Linear fluid (dielectric constant: 78.4, screening length: 8.12261 Bohr) occupying 0.493875 of unit cell:	Completed after 6 iterations at t[s]:   1301.87
	FillingsUpdate:  mu: -0.208000000  nElectrons: 189.601038  magneticMoment: [ Abs: 0.00000  Tot: +0.00000 ]
	SubspaceRotationAdjust: set factor to 0.388
ElecMinimize: Iter:   8  G: -1978.955087411580053  |grad|_K:  5.653e-08  alpha:  3.233e-01  linmin: -1.956e-05  t[s]:   1312.90
ElecMinimize: Converged (|Delta G|<1.000000e-07 for 2 iters).
Setting wave functions to eigenvectors of Hamiltonian
Converging empty states (this may take a while): |deigs|: 5.828e-08

Computing DFT-D3 correction:
# coordination-number Cu 8.309 8.949 9.055 6.906 4.919 9.055 8.949 8.310 4.919 6.907
# diagonal-C6 Cu 175.00 175.00 175.00 175.00 175.00 175.00 175.00 175.00 175.00 175.00
EvdW_6 =   -0.050831
EvdW_8 =   -0.080571
IonicMinimize: 	Wolfe criterion not satisfied: alpha: 1  (E-E0)/|gdotd0|: -0.986395  gdotd/gdotd0: 1.03662 (taking cubic step)

Computing DFT-D3 correction:
# coordination-number Cu 8.310 8.949 9.054 6.910 4.911 9.054 8.948 8.311 4.911 6.910
# diagonal-C6 Cu 175.00 175.00 175.00 175.00 175.00 175.00 175.00 175.00 175.00 175.00
EvdW_6 =   -0.050828
EvdW_8 =   -0.080557
Shifting auxilliary hamiltonian by -0.000042 to set nElectrons=189.601038

-------- Electronic minimization -----------
	Linear fluid (dielectric constant: 78.4, screening length: 8.12261 Bohr) occupying 0.493769 of unit cell:	Completed after 11 iterations at t[s]:   1347.16
	FillingsUpdate:  mu: -0.208000000  nElectrons: 189.601038  magneticMoment: [ Abs: 0.00000  Tot: +0.00000 ]
ElecMinimize: Iter:   0  G: -1978.955103718403279  |grad|_K:  6.445e-07  alpha:  1.000e+00
	Linear fluid (dielectric constant: 78.4, screening length: 8.12261 Bohr) occupying 0.493771 of unit cell:	Completed after 14 iterations at t[s]:   1368.47
	Linear fluid (dielectric constant: 78.4, screening length: 8.12261 Bohr) occupying 0.493769 of unit cell:	Completed after 14 iterations at t[s]:   1376.29
	FillingsUpdate:  mu: -0.208000000  nElectrons: 189.600217  magneticMoment: [ Abs: 0.00000  Tot: +0.00000 ]
	SubspaceRotationAdjust: set factor to 0.382
ElecMinimize: Iter:   1  G: -1978.955107382451843  |grad|_K:  4.471e-07  alpha:  1.227e-01  linmin:  6.821e-05  t[s]:   1387.44
	Linear fluid (dielectric constant: 78.4, screening length: 8.12261 Bohr) occupying 0.493769 of unit cell:	Completed after 10 iterations at t[s]:   1396.13
	Linear fluid (dielectric constant: 78.4, screening length: 8.12261 Bohr) occupying 0.493768 of unit cell:	Completed after 10 iterations at t[s]:   1403.65
	FillingsUpdate:  mu: -0.208000000  nElectrons: 189.601575  magneticMoment: [ Abs: 0.00000  Tot: +0.00000 ]
	SubspaceRotationAdjust: set factor to 0.314
ElecMinimize: Iter:   2  G: -1978.955110816739079  |grad|_K:  4.538e-07  alpha:  2.388e-01  linmin:  1.057e-05  t[s]:   1414.85
	Linear fluid (dielectric constant: 78.4, screening length: 8.12261 Bohr) occupying 0.493770 of unit cell:	Completed after 12 iterations at t[s]:   1423.69
	Linear fluid (dielectric constant: 78.4, screening length: 8.12261 Bohr) occupying 0.493769 of unit cell:	Completed after 12 iterations at t[s]:   1431.36
	FillingsUpdate:  mu: -0.208000000  nElectrons: 189.600129  magneticMoment: [ Abs: 0.00000  Tot: +0.00000 ]
	SubspaceRotationAdjust: set factor to 0.211
ElecMinimize: Iter:   3  G: -1978.955112246276485  |grad|_K:  2.686e-07  alpha:  9.663e-02  linmin:  2.359e-05  t[s]:   1442.76
	Linear fluid (dielectric constant: 78.4, screening length: 8.12261 Bohr) occupying 0.493769 of unit cell:	Completed after 2 iterations at t[s]:   1450.94
	Linear fluid (dielectric constant: 78.4, screening length: 8.12261 Bohr) occupying 0.493769 of unit cell:	Completed after 6 iterations at t[s]:   1458.24
	FillingsUpdate:  mu: -0.208000000  nElectrons: 189.600270  magneticMoment: [ Abs: 0.00000  Tot: +0.00000 ]
	SubspaceRotationAdjust: set factor to 0.28
ElecMinimize: Iter:   4  G: -1978.955113253149875  |grad|_K:  1.760e-07  alpha:  1.944e-01  linmin:  1.019e-04  t[s]:   1469.31
	Linear fluid (dielectric constant: 78.4, screening length: 8.12261 Bohr) occupying 0.493768 of unit cell:	Completed after 9 iterations at t[s]:   1477.92
	Linear fluid (dielectric constant: 78.4, screening length: 8.12261 Bohr) occupying 0.493768 of unit cell:	Completed after 0 iterations at t[s]:   1484.76
	FillingsUpdate:  mu: -0.208000000  nElectrons: 189.600664  magneticMoment: [ Abs: 0.00000  Tot: +0.00000 ]
	SubspaceRotationAdjust: set factor to 0.279
ElecMinimize: Iter:   5  G: -1978.955113669393313  |grad|_K:  1.771e-07  alpha:  1.869e-01  linmin:  2.689e-04  t[s]:   1495.90
	Linear fluid (dielectric constant: 78.4, screening length: 8.12261 Bohr) occupying 0.493768 of unit cell:	Completed after 8 iterations at t[s]:   1504.37
	Linear fluid (dielectric constant: 78.4, screening length: 8.12261 Bohr) occupying 0.493768 of unit cell:	Completed after 2 iterations at t[s]:   1511.35
	FillingsUpdate:  mu: -0.208000000  nElectrons: 189.600433  magneticMoment: [ Abs: 0.00000  Tot: +0.00000 ]
	SubspaceRotationAdjust: set factor to 0.294
ElecMinimize: Iter:   6  G: -1978.955114208007899  |grad|_K:  1.314e-07  alpha:  2.400e-01  linmin: -3.381e-04  t[s]:   1522.66
	Linear fluid (dielectric constant: 78.4, screening length: 8.12261 Bohr) occupying 0.493768 of unit cell:	Completed after 2 iterations at t[s]:   1530.73
	Linear fluid (dielectric constant: 78.4, screening length: 8.12261 Bohr) occupying 0.493768 of unit cell:	Completed after 1 iterations at t[s]:   1537.83
	FillingsUpdate:  mu: -0.208000000  nElectrons: 189.600447  magneticMoment: [ Abs: 0.00000  Tot: +0.00000 ]
	SubspaceRotationAdjust: set factor to 0.361
ElecMinimize: Iter:   7  G: -1978.955114353877889  |grad|_K:  8.110e-08  alpha:  1.158e-01  linmin:  6.435e-06  t[s]:   1549.33
	Linear fluid (dielectric constant: 78.4, screening length: 8.12261 Bohr) occupying 0.493768 of unit cell:	Completed after 2 iterations at t[s]:   1557.55
ElecMinimize: 	Predicted alpha/alphaT>3.000000, increasing alphaT to 3.474724e-01.
	Linear fluid (dielectric constant: 78.4, screening length: 8.12261 Bohr) occupying 0.493769 of unit cell:	Completed after 2 iterations at t[s]:   1564.44
	Linear fluid (dielectric constant: 78.4, screening length: 8.12261 Bohr) occupying 0.493769 of unit cell:	Completed after 0 iterations at t[s]:   1571.22
	FillingsUpdate:  mu: -0.208000000  nElectrons: 189.600480  magneticMoment: [ Abs: 0.00000  Tot: +0.00000 ]
	SubspaceRotationAdjust: set factor to 0.394
ElecMinimize: Iter:   8  G: -1978.955114533306414  |grad|_K:  9.930e-08  alpha:  3.786e-01  linmin: -1.399e-04  t[s]:   1582.50
	Linear fluid (dielectric constant: 78.4, screening length: 8.12261 Bohr) occupying 0.493773 of unit cell:	Completed after 2 iterations at t[s]:   1590.50
	Linear fluid (dielectric constant: 78.4, screening length: 8.12261 Bohr) occupying 0.493770 of unit cell:	Completed after 2 iterations at t[s]:   1597.46
	FillingsUpdate:  mu: -0.208000000  nElectrons: 189.600420  magneticMoment: [ Abs: 0.00000  Tot: +0.00000 ]
	SubspaceRotationAdjust: set factor to 0.47
ElecMinimize: Iter:   9  G: -1978.955114632535469  |grad|_K:  6.195e-08  alpha:  1.369e-01  linmin: -4.988e-05  t[s]:   1608.77
	Linear fluid (dielectric constant: 78.4, screening length: 8.12261 Bohr) occupying 0.493772 of unit cell:	Completed after 2 iterations at t[s]:   1616.75
	Linear fluid (dielectric constant: 78.4, screening length: 8.12261 Bohr) occupying 0.493772 of unit cell:	Completed after 6 iterations at t[s]:   1623.99
	FillingsUpdate:  mu: -0.208000000  nElectrons: 189.600193  magneticMoment: [ Abs: 0.00000  Tot: +0.00000 ]
	SubspaceRotationAdjust: set factor to 0.458
ElecMinimize: Iter:  10  G: -1978.955114686962588  |grad|_K:  6.497e-08  alpha:  2.080e-01  linmin:  9.168e-04  t[s]:   1635.43
ElecMinimize: Converged (|Delta G|<1.000000e-07 for 2 iters).
Setting wave functions to eigenvectors of Hamiltonian
Converging empty states (this may take a while): |deigs|: 2.090e-08

Computing DFT-D3 correction:
# coordination-number Cu 8.310 8.949 9.054 6.910 4.911 9.054 8.948 8.311 4.911 6.910
# diagonal-C6 Cu 175.00 175.00 175.00 175.00 175.00 175.00 175.00 175.00 175.00 175.00
EvdW_6 =   -0.050828
EvdW_8 =   -0.080557
IonicMinimize: 	Wolfe criterion not satisfied: alpha: 3  (E-E0)/|gdotd0|: -2.7838  gdotd/gdotd0: 0.903391 (taking cubic step)

Computing DFT-D3 correction:
# coordination-number Cu 8.312 8.947 9.052 6.917 4.893 9.051 8.947 8.312 4.894 6.917
# diagonal-C6 Cu 175.00 175.00 175.00 175.00 175.00 175.00 175.00 175.00 175.00 175.00
EvdW_6 =   -0.050823
EvdW_8 =   -0.080528
Shifting auxilliary hamiltonian by 0.000066 to set nElectrons=189.600193

-------- Electronic minimization -----------
	Linear fluid (dielectric constant: 78.4, screening length: 8.12261 Bohr) occupying 0.493599 of unit cell:	Completed after 14 iterations at t[s]:   1669.98
	FillingsUpdate:  mu: -0.208000000  nElectrons: 189.600193  magneticMoment: [ Abs: 0.00000  Tot: -0.00000 ]
ElecMinimize: Iter:   0  G: -1978.955113340360185  |grad|_K:  1.424e-06  alpha:  1.000e+00
	Linear fluid (dielectric constant: 78.4, screening length: 8.12261 Bohr) occupying 0.493620 of unit cell:	Completed after 15 iterations at t[s]:   1691.26
	Linear fluid (dielectric constant: 78.4, screening length: 8.12261 Bohr) occupying 0.493601 of unit cell:	Completed after 15 iterations at t[s]:   1699.26
	FillingsUpdate:  mu: -0.208000000  nElectrons: 189.596446  magneticMoment: [ Abs: 0.00000  Tot: -0.00000 ]
	SubspaceRotationAdjust: set factor to 0.33
ElecMinimize: Iter:   1  G: -1978.955126881027354  |grad|_K:  1.041e-06  alpha:  9.327e-02  linmin:  2.727e-04  t[s]:   1710.64
	Linear fluid (dielectric constant: 78.4, screening length: 8.12261 Bohr) occupying 0.493598 of unit cell:	Completed after 12 iterations at t[s]:   1719.37
	Linear fluid (dielectric constant: 78.4, screening length: 8.12261 Bohr) occupying 0.493597 of unit cell:	Completed after 10 iterations at t[s]:   1727.14
	FillingsUpdate:  mu: -0.208000000  nElectrons: 189.600206  magneticMoment: [ Abs: 0.00000  Tot: -0.00000 ]
	SubspaceRotationAdjust: set factor to 0.239
ElecMinimize: Iter:   2  G: -1978.955137119869050  |grad|_K:  9.666e-07  alpha:  1.320e-01  linmin: -1.761e-05  t[s]:   1738.58
	Linear fluid (dielectric constant: 78.4, screening length: 8.12261 Bohr) occupying 0.493595 of unit cell:	Completed after 10 iterations at t[s]:   1747.17
	Linear fluid (dielectric constant: 78.4, screening length: 8.12261 Bohr) occupying 0.493594 of unit cell:	Completed after 2 iterations at t[s]:   1754.18
	FillingsUpdate:  mu: -0.208000000  nElectrons: 189.600097  magneticMoment: [ Abs: 0.00000  Tot: -0.00000 ]
	SubspaceRotationAdjust: set factor to 0.35
ElecMinimize: Iter:   3  G: -1978.955147925042638  |grad|_K:  5.986e-07  alpha:  1.605e-01  linmin:  5.345e-06  t[s]:   1765.45
	Linear fluid (dielectric constant: 78.4, screening length: 8.12261 Bohr) occupying 0.493591 of unit cell:	Completed after 11 iterations at t[s]:   1774.18
	Linear fluid (dielectric constant: 78.4, screening length: 8.12261 Bohr) occupying 0.493591 of unit cell:	Completed after 6 iterations at t[s]:   1781.41
	FillingsUpdate:  mu: -0.208000000  nElectrons: 189.598142  magneticMoment: [ Abs: 0.00000  Tot: -0.00000 ]
	SubspaceRotationAdjust: set factor to 0.276
ElecMinimize: Iter:   4  G: -1978.955151895619565  |grad|_K:  4.611e-07  alpha:  1.540e-01  linmin: -2.000e-04  t[s]:   1792.60
	Linear fluid (dielectric constant: 78.4, screening length: 8.12261 Bohr) occupying 0.493587 of unit cell:	Completed after 12 iterations at t[s]:   1801.38
	Linear fluid (dielectric constant: 78.4, screening length: 8.12261 Bohr) occupying 0.493588 of unit cell:	Completed after 10 iterations at t[s]:   1808.89
	FillingsUpdate:  mu: -0.208000000  nElectrons: 189.599456  magneticMoment: [ Abs: 0.00000  Tot: -0.00000 ]
	SubspaceRotationAdjust: set factor to 0.232
ElecMinimize: Iter:   5  G: -1978.955153789248925  |grad|_K:  3.254e-07  alpha:  1.232e-01  linmin: -1.872e-05  t[s]:   1820.41
	Linear fluid (dielectric constant: 78.4, screening length: 8.12261 Bohr) occupying 0.493586 of unit cell:	Completed after 2 iterations at t[s]:   1828.57
	Linear fluid (dielectric constant: 78.4, screening length: 8.12261 Bohr) occupying 0.493584 of unit cell:	Completed after 2 iterations at t[s]:   1835.56
	FillingsUpdate:  mu: -0.208000000  nElectrons: 189.599441  magneticMoment: [ Abs: 0.00000  Tot: -0.00000 ]
	SubspaceRotationAdjust: set factor to 0.262
ElecMinimize: Iter:   6  G: -1978.955155636688460  |grad|_K:  3.509e-07  alpha:  2.418e-01  linmin: -3.446e-05  t[s]:   1846.67
	Linear fluid (dielectric constant: 78.4, screening length: 8.12261 Bohr) occupying 0.493579 of unit cell:	Completed after 9 iterations at t[s]:   1855.30
	Linear fluid (dielectric constant: 78.4, screening length: 8.12261 Bohr) occupying 0.493580 of unit cell:	Completed after 8 iterations at t[s]:   1862.93
	FillingsUpdate:  mu: -0.208000000  nElectrons: 189.598880  magneticMoment: [ Abs: 0.00000  Tot: -0.00000 ]
	SubspaceRotationAdjust: set factor to 0.28
ElecMinimize: Iter:   7  G: -1978.955157107010564  |grad|_K:  1.792e-07  alpha:  1.655e-01  linmin:  6.251e-06  t[s]:   1874.00
	Linear fluid (dielectric constant: 78.4, screening length: 8.12261 Bohr) occupying 0.493579 of unit cell:	Completed after 8 iterations at t[s]:   1882.59
	Linear fluid (dielectric constant: 78.4, screening length: 8.12261 Bohr) occupying 0.493579 of unit cell:	Completed after 0 iterations at t[s]:   1889.39
	FillingsUpdate:  mu: -0.208000000  nElectrons: 189.599041  magneticMoment: [ Abs: 0.00000  Tot: -0.00000 ]
	SubspaceRotationAdjust: set factor to 0.307
ElecMinimize: Iter:   8  G: -1978.955157483543644  |grad|_K:  1.771e-07  alpha:  1.628e-01  linmin:  9.785e-05  t[s]:   1900.59
	Linear fluid (dielectric constant: 78.4, screening length: 8.12261 Bohr) occupying 0.493579 of unit cell:	Completed after 2 iterations at t[s]:   1908.87
	Linear fluid (dielectric constant: 78.4, screening length: 8.12261 Bohr) occupying 0.493579 of unit cell:	Completed after 2 iterations at t[s]:   1916.07
	FillingsUpdate:  mu: -0.208000000  nElectrons: 189.599048  magneticMoment: [ Abs: 0.00000  Tot: -0.00000 ]
	SubspaceRotationAdjust: set factor to 0.343
ElecMinimize: Iter:   9  G: -1978.955158125611888  |grad|_K:  1.508e-07  alpha:  2.848e-01  linmin: -8.576e-05  t[s]:   1927.47
	Linear fluid (dielectric constant: 78.4, screening length: 8.12261 Bohr) occupying 0.493580 of unit cell:	Completed after 2 iterations at t[s]:   1935.39
	Linear fluid (dielectric constant: 78.4, screening length: 8.12261 Bohr) occupying 0.493579 of unit cell:	Completed after 2 iterations at t[s]:   1942.42
	FillingsUpdate:  mu: -0.208000000  nElectrons: 189.599014  magneticMoment: [ Abs: 0.00000  Tot: -0.00000 ]
	SubspaceRotationAdjust: set factor to 0.39
ElecMinimize: Iter:  10  G: -1978.955158348213672  |grad|_K:  1.089e-07  alpha:  1.353e-01  linmin:  3.964e-06  t[s]:   1953.72
	Linear fluid (dielectric constant: 78.4, screening length: 8.12261 Bohr) occupying 0.493581 of unit cell:	Completed after 6 iterations at t[s]:   1962.02
	Linear fluid (dielectric constant: 78.4, screening length: 8.12261 Bohr) occupying 0.493582 of unit cell:	Completed after 6 iterations at t[s]:   1969.26
	FillingsUpdate:  mu: -0.208000000  nElectrons: 189.598733  magneticMoment: [ Abs: 0.00000  Tot: -0.00000 ]
	SubspaceRotationAdjust: set factor to 0.401
ElecMinimize: Iter:  11  G: -1978.955158524975559  |grad|_K:  1.013e-07  alpha:  2.084e-01  linmin:  1.628e-04  t[s]:   1980.57
	Linear fluid (dielectric constant: 78.4, screening length: 8.12261 Bohr) occupying 0.493585 of unit cell:	Completed after 8 iterations at t[s]:   1989.00
	Linear fluid (dielectric constant: 78.4, screening length: 8.12261 Bohr) occupying 0.493584 of unit cell:	Completed after 3 iterations at t[s]:   1996.00
	FillingsUpdate:  mu: -0.208000000  nElectrons: 189.598994  magneticMoment: [ Abs: 0.00000  Tot: -0.00000 ]
	SubspaceRotationAdjust: set factor to 0.334
ElecMinimize: Iter:  12  G: -1978.955158650752765  |grad|_K:  9.330e-08  alpha:  1.716e-01  linmin:  2.266e-04  t[s]:   2007.48
	Linear fluid (dielectric constant: 78.4, screening length: 8.12261 Bohr) occupying 0.493588 of unit cell:	Completed after 10 iterations at t[s]:   2016.24
	Linear fluid (dielectric constant: 78.4, screening length: 8.12261 Bohr) occupying 0.493587 of unit cell:	Completed after 0 iterations at t[s]:   2022.98
	FillingsUpdate:  mu: -0.208000000  nElectrons: 189.598649  magneticMoment: [ Abs: 0.00000  Tot: -0.00000 ]
	SubspaceRotationAdjust: set factor to 0.231
ElecMinimize: Iter:  13  G: -1978.955158750829014  |grad|_K:  7.657e-08  alpha:  1.626e-01  linmin: -6.245e-05  t[s]:   2034.22
	Linear fluid (dielectric constant: 78.4, screening length: 8.12261 Bohr) occupying 0.493590 of unit cell:	Completed after 8 iterations at t[s]:   2042.79
	Linear fluid (dielectric constant: 78.4, screening length: 8.12261 Bohr) occupying 0.493589 of unit cell:	Completed after 6 iterations at t[s]:   2050.16
	FillingsUpdate:  mu: -0.208000000  nElectrons: 189.598774  magneticMoment: [ Abs: 0.00000  Tot: -0.00000 ]
	SubspaceRotationAdjust: set factor to 0.191
ElecMinimize: Iter:  14  G: -1978.955158794168938  |grad|_K:  4.265e-08  alpha:  1.034e-01  linmin:  3.836e-05  t[s]:   2061.23
	Linear fluid (dielectric constant: 78.4, screening length: 8.12261 Bohr) occupying 0.493590 of unit cell:	Completed after 2 iterations at t[s]:   2069.34
	Linear fluid (dielectric constant: 78.4, screening length: 8.12261 Bohr) occupying 0.493591 of unit cell:	Completed after 2 iterations at t[s]:   2076.44
	FillingsUpdate:  mu: -0.208000000  nElectrons: 189.598780  magneticMoment: [ Abs: 0.00000  Tot: +0.00000 ]
	SubspaceRotationAdjust: set factor to 0.199
ElecMinimize: Iter:  15  G: -1978.955158820425822  |grad|_K:  3.828e-08  alpha:  1.993e-01  linmin: -1.841e-04  t[s]:   2087.51
ElecMinimize: Converged (|Delta G|<1.000000e-07 for 2 iters).
Setting wave functions to eigenvectors of Hamiltonian
Converging empty states (this may take a while): |deigs|: 5.503e-08

Computing DFT-D3 correction:
# coordination-number Cu 8.312 8.947 9.052 6.917 4.893 9.051 8.947 8.312 4.894 6.917
# diagonal-C6 Cu 175.00 175.00 175.00 175.00 175.00 175.00 175.00 175.00 175.00 175.00
EvdW_6 =   -0.050823
EvdW_8 =   -0.080528

# Ionic positions in cartesian coordinates:
ion Cu   3.374519948224086   1.527496174455183  11.414094751874950 1
ion Cu   0.000876025076846   2.996048566082520   8.273796036445239 1
ion Cu   3.366548764447359   4.546845054467973   5.266370939881904 1
ion Cu  -0.002272195463582   6.036779970536892   2.219591438387380 1
ion Cu   0.003970479427074  -0.020465275139556  14.228343778054992 1
ion Cu   3.374569012487640   6.004654629108768   9.806961958914199 1
ion Cu   3.369845816168066   0.019341406130059   6.799578699881568 1
ion Cu  -0.004641068786654   1.487677250470709   3.659394713197972 1
ion Cu   3.366598136149680   3.034214512606010   0.845010824574684 1
ion Cu   0.002547082269486   4.514185711281437  12.853802858787116 1

# Forces in Cartesian coordinates:
force Cu  -0.000018846860874  -0.000332352966088   0.000048628689370 1
force Cu   0.000044994749613   0.000074277778607   0.000003093669166 1
force Cu  -0.000045603778279  -0.000196919210968  -0.000497214058757 1
force Cu   0.000040810289685   0.000093266387927   0.000803325920512 1
force Cu  -0.000006411392304  -0.000104659799720   0.001485344100183 1
force Cu   0.000044334133649   0.000198064154793   0.000492957839130 1
force Cu  -0.000049409908068  -0.000069515462241  -0.000006639822064 1
force Cu   0.000017488835272   0.000334920927410  -0.000044017008571 1
force Cu   0.000005631349435   0.000088574450859  -0.001489153262039 1
force Cu  -0.000037784348882  -0.000096581331186  -0.000800119940280 1

# Energy components:
   A_diel =        0.0568195240276970
   Eewald =     6311.0081060864467872
       EH =     8150.3446865004807478
     Eloc =   -16858.9312920869524532
      Enl =      366.2777797210899280
     EvdW =       -0.1313512008524353
      Exc =     -193.9393216558665074
 Exc_core =        0.4697221705259611
       KE =      206.4205019107926091
  MuShift =        0.0329228511804009
-------------------------------------
     Etot =    -2018.3914261791283025
       TS =        0.0002788050897917
-------------------------------------
        F =    -2018.3917049842179949
      muN =      -39.4365461637921229
-------------------------------------
        G =    -1978.9551588204258223


Dumping 'jdft.fillings' ... done
Dumping 'jdft.wfns' ... done
Dumping 'jdft.fluidState' ... done
Dumping 'jdft.ionpos' ... done
Dumping 'jdft.lattice' ... done
Dumping 'jdft.eigenvals' ... done
Dumping 'jdft.eigStats' ... 
	eMin: -4.347158 at state 0 ( [ +0.000000 +0.000000 +0.000000 ] spin 1 )
	HOMO: -0.209089 at state 31 ( [ +0.444444 -0.142857 +0.000000 ] spin 1 )
	mu  : -0.208000
	LUMO: -0.207143 at state 14 ( [ +0.222222 +0.428571 +0.000000 ] spin 1 )
	eMax: +0.176760 at state 51 ( [ +0.333333 +0.142857 +0.000000 ] spin -1 )
	HOMO-LUMO gap: +0.001947
	Optical gap  : +0.009485 at state 20 ( [ +0.333333 +0.285714 +0.000000 ] spin 1 )
Dumping 'jdft.Ecomponents' ... done
IonicMinimize: Iter:   1  G: -1978.955158820425822  |grad|_K:  4.678e-04  alpha:  7.000e+00  linmin: -9.713e-01  t[s]:   2113.06

#--- Lowdin population analysis ---
# oxidation-state Cu +0.031 +0.075 +0.048 +0.102 +0.376 +0.048 +0.075 +0.031 +0.376 +0.102
# magnetic-moments Cu +0.000 +0.000 +0.000 -0.000 -0.000 +0.000 +0.000 +0.000 -0.000 -0.000


Computing DFT-D3 correction:
# coordination-number Cu 8.297 8.936 9.040 6.932 4.825 9.040 8.936 8.298 4.824 6.932
# diagonal-C6 Cu 175.00 175.00 175.00 175.00 175.00 175.00 175.00 175.00 175.00 175.00
EvdW_6 =   -0.050796
EvdW_8 =   -0.080384
Shifting auxilliary hamiltonian by -0.000012 to set nElectrons=189.598780

-------- Electronic minimization -----------
	Linear fluid (dielectric constant: 78.4, screening length: 8.12261 Bohr) occupying 0.493539 of unit cell:	Completed after 18 iterations at t[s]:   2122.41
	FillingsUpdate:  mu: -0.208000000  nElectrons: 189.598780  magneticMoment: [ Abs: 0.00000  Tot: +0.00000 ]
ElecMinimize: Iter:   0  G: -1978.835215261520034  |grad|_K:  7.017e-05  alpha:  1.000e+00
	Linear fluid (dielectric constant: 78.4, screening length: 8.12261 Bohr) occupying 0.494434 of unit cell:	Completed after 22 iterations at t[s]:   2144.09
	Linear fluid (dielectric constant: 78.4, screening length: 8.12261 Bohr) occupying 0.493750 of unit cell:	Completed after 21 iterations at t[s]:   2152.42
	FillingsUpdate:  mu: -0.208000000  nElectrons: 189.476294  magneticMoment: [ Abs: 0.00000  Tot: +0.00000 ]
	SubspaceRotationAdjust: set factor to 0.186
ElecMinimize: Iter:   1  G: -1978.890746612977182  |grad|_K:  5.758e-05  alpha:  1.588e-01  linmin:  6.062e-04  t[s]:   2163.59
	Linear fluid (dielectric constant: 78.4, screening length: 8.12261 Bohr) occupying 0.493801 of unit cell:	Completed after 16 iterations at t[s]:   2172.53
	Linear fluid (dielectric constant: 78.4, screening length: 8.12261 Bohr) occupying 0.493818 of unit cell:	Completed after 15 iterations at t[s]:   2180.45
	FillingsUpdate:  mu: -0.208000000  nElectrons: 189.492665  magneticMoment: [ Abs: 0.00000  Tot: +0.00000 ]
	SubspaceRotationAdjust: set factor to 0.251
ElecMinimize: Iter:   2  G: -1978.940700983009492  |grad|_K:  2.597e-05  alpha:  2.127e-01  linmin:  1.561e-04  t[s]:   2191.70
	Linear fluid (dielectric constant: 78.4, screening length: 8.12261 Bohr) occupying 0.493808 of unit cell:	Completed after 17 iterations at t[s]:   2200.65
	Linear fluid (dielectric constant: 78.4, screening length: 8.12261 Bohr) occupying 0.493787 of unit cell:	Completed after 15 iterations at t[s]:   2208.64
	FillingsUpdate:  mu: -0.208000000  nElectrons: 189.578267  magneticMoment: [ Abs: 0.00000  Tot: +0.00000 ]
	SubspaceRotationAdjust: set factor to 0.243
ElecMinimize: Iter:   3  G: -1978.946645710659141  |grad|_K:  1.446e-05  alpha:  1.258e-01  linmin: -2.352e-05  t[s]:   2220.17
	Linear fluid (dielectric constant: 78.4, screening length: 8.12261 Bohr) occupying 0.493731 of unit cell:	Completed after 14 iterations at t[s]:   2229.28
	Linear fluid (dielectric constant: 78.4, screening length: 8.12261 Bohr) occupying 0.493701 of unit cell:	Completed after 14 iterations at t[s]:   2237.12
	FillingsUpdate:  mu: -0.208000000  nElectrons: 189.601758  magneticMoment: [ Abs: 0.00000  Tot: +0.00000 ]
	SubspaceRotationAdjust: set factor to 0.284
ElecMinimize: Iter:   4  G: -1978.949583488156577  |grad|_K:  1.231e-05  alpha:  1.950e-01  linmin:  1.257e-05  t[s]:   2248.63
	Linear fluid (dielectric constant: 78.4, screening length: 8.12261 Bohr) occupying 0.493579 of unit cell:	Completed after 15 iterations at t[s]:   2257.87
	Linear fluid (dielectric constant: 78.4, screening length: 8.12261 Bohr) occupying 0.493605 of unit cell:	Completed after 14 iterations at t[s]:   2265.82
	FillingsUpdate:  mu: -0.208000000  nElectrons: 189.575310  magneticMoment: [ Abs: 0.00000  Tot: +0.00000 ]
	SubspaceRotationAdjust: set factor to 0.288
ElecMinimize: Iter:   5  G: -1978.951252100284592  |grad|_K:  6.803e-06  alpha:  1.532e-01  linmin: -1.109e-05  t[s]:   2277.30
	Linear fluid (dielectric constant: 78.4, screening length: 8.12261 Bohr) occupying 0.493511 of unit cell:	Completed after 14 iterations at t[s]:   2286.45
	Linear fluid (dielectric constant: 78.4, screening length: 8.12261 Bohr) occupying 0.493465 of unit cell:	Completed after 13 iterations at t[s]:   2294.40
	FillingsUpdate:  mu: -0.208000000  nElectrons: 189.591308  magneticMoment: [ Abs: 0.00000  Tot: +0.00000 ]
	SubspaceRotationAdjust: set factor to 0.35
ElecMinimize: Iter:   6  G: -1978.952017311884447  |grad|_K:  7.046e-06  alpha:  2.289e-01  linmin: -1.400e-05  t[s]:   2305.55
	Linear fluid (dielectric constant: 78.4, screening length: 8.12261 Bohr) occupying 0.493236 of unit cell:	Completed after 12 iterations at t[s]:   2314.17
	Linear fluid (dielectric constant: 78.4, screening length: 8.12261 Bohr) occupying 0.493268 of unit cell:	Completed after 9 iterations at t[s]:   2321.64
	FillingsUpdate:  mu: -0.208000000  nElectrons: 189.592879  magneticMoment: [ Abs: 0.00000  Tot: +0.00000 ]
	SubspaceRotationAdjust: set factor to 0.415
ElecMinimize: Iter:   7  G: -1978.952724921703066  |grad|_K:  7.494e-06  alpha:  1.969e-01  linmin:  3.464e-06  t[s]:   2332.82
	Linear fluid (dielectric constant: 78.4, screening length: 8.12261 Bohr) occupying 0.493012 of unit cell:	Completed after 14 iterations at t[s]:   2341.92
	Linear fluid (dielectric constant: 78.4, screening length: 8.12261 Bohr) occupying 0.492878 of unit cell:	Completed after 13 iterations at t[s]:   2349.88
	FillingsUpdate:  mu: -0.208000000  nElectrons: 189.580956  magneticMoment: [ Abs: 0.00000  Tot: +0.00000 ]
	SubspaceRotationAdjust: set factor to 0.43
ElecMinimize: Iter:   8  G: -1978.953942929064397  |grad|_K:  7.859e-06  alpha:  3.024e-01  linmin:  9.620e-06  t[s]:   2361.10
	Linear fluid (dielectric constant: 78.4, screening length: 8.12261 Bohr) occupying 0.492439 of unit cell:	Completed after 15 iterations at t[s]:   2370.00
	Linear fluid (dielectric constant: 78.4, screening length: 8.12261 Bohr) occupying 0.492694 of unit cell:	Completed after 15 iterations at t[s]:   2377.95
	FillingsUpdate:  mu: -0.208000000  nElectrons: 189.605165  magneticMoment: [ Abs: 0.00000  Tot: +0.00000 ]
	SubspaceRotationAdjust: set factor to 0.302
ElecMinimize: Iter:   9  G: -1978.954484443990395  |grad|_K:  5.621e-06  alpha:  1.237e-01  linmin:  1.104e-05  t[s]:   2389.00
	Linear fluid (dielectric constant: 78.4, screening length: 8.12261 Bohr) occupying 0.492606 of unit cell:	Completed after 14 iterations at t[s]:   2397.75
	Linear fluid (dielectric constant: 78.4, screening length: 8.12261 Bohr) occupying 0.492603 of unit cell:	Completed after 9 iterations at t[s]:   2405.16
	FillingsUpdate:  mu: -0.208000000  nElectrons: 189.589873  magneticMoment: [ Abs: 0.00000  Tot: +0.00000 ]
	SubspaceRotationAdjust: set factor to 0.233
ElecMinimize: Iter:  10  G: -1978.954775565699038  |grad|_K:  4.627e-06  alpha:  1.286e-01  linmin:  1.055e-05  t[s]:   2416.51
	Linear fluid (dielectric constant: 78.4, screening length: 8.12261 Bohr) occupying 0.492556 of unit cell:	Completed after 12 iterations at t[s]:   2425.51
	Linear fluid (dielectric constant: 78.4, screening length: 8.12261 Bohr) occupying 0.492540 of unit cell:	Completed after 10 iterations at t[s]:   2433.28
	FillingsUpdate:  mu: -0.208000000  nElectrons: 189.590585  magneticMoment: [ Abs: 0.00000  Tot: +0.00000 ]
	SubspaceRotationAdjust: set factor to 0.286
ElecMinimize: Iter:  11  G: -1978.955038352440397  |grad|_K:  2.685e-06  alpha:  1.713e-01  linmin: -3.840e-06  t[s]:   2444.56
	Linear fluid (dielectric constant: 78.4, screening length: 8.12261 Bohr) occupying 0.492545 of unit cell:	Completed after 14 iterations at t[s]:   2453.47
	Linear fluid (dielectric constant: 78.4, screening length: 8.12261 Bohr) occupying 0.492543 of unit cell:	Completed after 12 iterations at t[s]:   2461.31
	FillingsUpdate:  mu: -0.208000000  nElectrons: 189.595768  magneticMoment: [ Abs: 0.00000  Tot: +0.00000 ]
	SubspaceRotationAdjust: set factor to 0.259
ElecMinimize: Iter:  12  G: -1978.955103368796017  |grad|_K:  2.006e-06  alpha:  1.251e-01  linmin: -6.118e-08  t[s]:   2472.54
	Linear fluid (dielectric constant: 78.4, screening length: 8.12261 Bohr) occupying 0.492562 of unit cell:	Completed after 11 iterations at t[s]:   2481.20
	Linear fluid (dielectric constant: 78.4, screening length: 8.12261 Bohr) occupying 0.492573 of unit cell:	Completed after 10 iterations at t[s]:   2488.83
	FillingsUpdate:  mu: -0.208000000  nElectrons: 189.594647  magneticMoment: [ Abs: 0.00000  Tot: +0.00000 ]
	SubspaceRotationAdjust: set factor to 0.273
ElecMinimize: Iter:  13  G: -1978.955159807461769  |grad|_K:  1.635e-06  alpha:  1.948e-01  linmin:  1.153e-06  t[s]:   2500.06
	Linear fluid (dielectric constant: 78.4, screening length: 8.12261 Bohr) occupying 0.492615 of unit cell:	Completed after 12 iterations at t[s]:   2508.90
	Linear fluid (dielectric constant: 78.4, screening length: 8.12261 Bohr) occupying 0.492605 of unit cell:	Completed after 10 iterations at t[s]:   2516.50
	FillingsUpdate:  mu: -0.208000000  nElectrons: 189.593102  magneticMoment: [ Abs: 0.00000  Tot: +0.00000 ]
	SubspaceRotationAdjust: set factor to 0.271
ElecMinimize: Iter:  14  G: -1978.955187993224854  |grad|_K:  1.057e-06  alpha:  1.465e-01  linmin:  3.874e-07  t[s]:   2527.74
	Linear fluid (dielectric constant: 78.4, screening length: 8.12261 Bohr) occupying 0.492631 of unit cell:	Completed after 9 iterations at t[s]:   2536.25
	Linear fluid (dielectric constant: 78.4, screening length: 8.12261 Bohr) occupying 0.492638 of unit cell:	Completed after 6 iterations at t[s]:   2543.71
	FillingsUpdate:  mu: -0.208000000  nElectrons: 189.593582  magneticMoment: [ Abs: 0.00000  Tot: +0.00000 ]
	SubspaceRotationAdjust: set factor to 0.278
ElecMinimize: Iter:  15  G: -1978.955202748484680  |grad|_K:  8.446e-07  alpha:  1.834e-01  linmin: -2.038e-06  t[s]:   2555.16
	Linear fluid (dielectric constant: 78.4, screening length: 8.12261 Bohr) occupying 0.492670 of unit cell:	Completed after 9 iterations at t[s]:   2563.69
	Linear fluid (dielectric constant: 78.4, screening length: 8.12261 Bohr) occupying 0.492660 of unit cell:	Completed after 8 iterations at t[s]:   2571.24
	FillingsUpdate:  mu: -0.208000000  nElectrons: 189.593923  magneticMoment: [ Abs: 0.00000  Tot: +0.00000 ]
	SubspaceRotationAdjust: set factor to 0.295
ElecMinimize: Iter:  16  G: -1978.955209454299620  |grad|_K:  5.683e-07  alpha:  1.305e-01  linmin: -7.192e-06  t[s]:   2582.53
	Linear fluid (dielectric constant: 78.4, screening length: 8.12261 Bohr) occupying 0.492676 of unit cell:	Completed after 8 iterations at t[s]:   2590.99
	Linear fluid (dielectric constant: 78.4, screening length: 8.12261 Bohr) occupying 0.492686 of unit cell:	Completed after 5 iterations at t[s]:   2598.23
	FillingsUpdate:  mu: -0.208000000  nElectrons: 189.593530  magneticMoment: [ Abs: 0.00001  Tot: +0.00000 ]
	SubspaceRotationAdjust: set factor to 0.32
ElecMinimize: Iter:  17  G: -1978.955214320576033  |grad|_K:  5.105e-07  alpha:  2.092e-01  linmin: -4.706e-06  t[s]:   2609.48
	Linear fluid (dielectric constant: 78.4, screening length: 8.12261 Bohr) occupying 0.492710 of unit cell:	Completed after 9 iterations at t[s]:   2618.15
	Linear fluid (dielectric constant: 78.4, screening length: 8.12261 Bohr) occupying 0.492701 of unit cell:	Completed after 9 iterations at t[s]:   2625.67
	FillingsUpdate:  mu: -0.208000000  nElectrons: 189.592963  magneticMoment: [ Abs: 0.00000  Tot: +0.00000 ]
	SubspaceRotationAdjust: set factor to 0.36
ElecMinimize: Iter:  18  G: -1978.955216816626717  |grad|_K:  3.279e-07  alpha:  1.331e-01  linmin: -4.111e-06  t[s]:   2636.80
	Linear fluid (dielectric constant: 78.4, screening length: 8.12261 Bohr) occupying 0.492709 of unit cell:	Completed after 9 iterations at t[s]:   2645.44
	Linear fluid (dielectric constant: 78.4, screening length: 8.12261 Bohr) occupying 0.492713 of unit cell:	Completed after 9 iterations at t[s]:   2653.16
	FillingsUpdate:  mu: -0.208000000  nElectrons: 189.593560  magneticMoment: [ Abs: 0.00000  Tot: +0.00000 ]
	SubspaceRotationAdjust: set factor to 0.388
ElecMinimize: Iter:  19  G: -1978.955218501440640  |grad|_K:  3.371e-07  alpha:  2.176e-01  linmin:  8.996e-08  t[s]:   2664.51
	Linear fluid (dielectric constant: 78.4, screening length: 8.12261 Bohr) occupying 0.492724 of unit cell:	Completed after 9 iterations at t[s]:   2672.95
	Linear fluid (dielectric constant: 78.4, screening length: 8.12261 Bohr) occupying 0.492721 of unit cell:	Completed after 7 iterations at t[s]:   2680.39
	FillingsUpdate:  mu: -0.208000000  nElectrons: 189.593268  magneticMoment: [ Abs: 0.00000  Tot: +0.00000 ]
	SubspaceRotationAdjust: set factor to 0.474
ElecMinimize: Iter:  20  G: -1978.955219826508483  |grad|_K:  2.427e-07  alpha:  1.619e-01  linmin: -7.736e-08  t[s]:   2691.71
	Linear fluid (dielectric constant: 78.4, screening length: 8.12261 Bohr) occupying 0.492722 of unit cell:	Completed after 3 iterations at t[s]:   2699.74
	Linear fluid (dielectric constant: 78.4, screening length: 8.12261 Bohr) occupying 0.492723 of unit cell:	Completed after 2 iterations at t[s]:   2707.04
	FillingsUpdate:  mu: -0.208000000  nElectrons: 189.593226  magneticMoment: [ Abs: 0.00000  Tot: +0.00000 ]
	SubspaceRotationAdjust: set factor to 0.539
ElecMinimize: Iter:  21  G: -1978.955220658607004  |grad|_K:  2.617e-07  alpha:  1.960e-01  linmin:  3.248e-06  t[s]:   2718.17
	Linear fluid (dielectric constant: 78.4, screening length: 8.12261 Bohr) occupying 0.492721 of unit cell:	Completed after 8 iterations at t[s]:   2726.85
	Linear fluid (dielectric constant: 78.4, screening length: 8.12261 Bohr) occupying 0.492721 of unit cell:	Completed after 0 iterations at t[s]:   2733.53
	FillingsUpdate:  mu: -0.208000000  nElectrons: 189.593606  magneticMoment: [ Abs: 0.00000  Tot: -0.00000 ]
	SubspaceRotationAdjust: set factor to 0.593
ElecMinimize: Iter:  22  G: -1978.955221597501122  |grad|_K:  1.994e-07  alpha:  1.907e-01  linmin:  1.828e-06  t[s]:   2744.92
	Linear fluid (dielectric constant: 78.4, screening length: 8.12261 Bohr) occupying 0.492717 of unit cell:	Completed after 10 iterations at t[s]:   2753.75
	Linear fluid (dielectric constant: 78.4, screening length: 8.12261 Bohr) occupying 0.492718 of unit cell:	Completed after 5 iterations at t[s]:   2761.10
	FillingsUpdate:  mu: -0.208000000  nElectrons: 189.593335  magneticMoment: [ Abs: 0.00000  Tot: -0.00000 ]
	SubspaceRotationAdjust: set factor to 0.584
ElecMinimize: Iter:  23  G: -1978.955222008102282  |grad|_K:  1.750e-07  alpha:  1.436e-01  linmin: -2.013e-06  t[s]:   2772.48
	Linear fluid (dielectric constant: 78.4, screening length: 8.12261 Bohr) occupying 0.492713 of unit cell:	Completed after 9 iterations at t[s]:   2781.03
	Linear fluid (dielectric constant: 78.4, screening length: 8.12261 Bohr) occupying 0.492714 of unit cell:	Completed after 3 iterations at t[s]:   2788.11
	FillingsUpdate:  mu: -0.208000000  nElectrons: 189.593827  magneticMoment: [ Abs: 0.00000  Tot: -0.00000 ]
	SubspaceRotationAdjust: set factor to 0.451
ElecMinimize: Iter:  24  G: -1978.955222284908359  |grad|_K:  1.760e-07  alpha:  1.255e-01  linmin:  8.605e-06  t[s]:   2799.31
	Linear fluid (dielectric constant: 78.4, screening length: 8.12261 Bohr) occupying 0.492708 of unit cell:	Completed after 10 iterations at t[s]:   2807.78
	Linear fluid (dielectric constant: 78.4, screening length: 8.12261 Bohr) occupying 0.492710 of unit cell:	Completed after 9 iterations at t[s]:   2815.33
	FillingsUpdate:  mu: -0.208000000  nElectrons: 189.593419  magneticMoment: [ Abs: 0.00001  Tot: -0.00000 ]
	SubspaceRotationAdjust: set factor to 0.307
ElecMinimize: Iter:  25  G: -1978.955222450516430  |grad|_K:  1.043e-07  alpha:  7.568e-02  linmin: -9.523e-06  t[s]:   2826.55
	Linear fluid (dielectric constant: 78.4, screening length: 8.12261 Bohr) occupying 0.492708 of unit cell:	Completed after 1 iterations at t[s]:   2834.59
	Linear fluid (dielectric constant: 78.4, screening length: 8.12261 Bohr) occupying 0.492706 of unit cell:	Completed after 2 iterations at t[s]:   2841.57
	FillingsUpdate:  mu: -0.208000000  nElectrons: 189.593462  magneticMoment: [ Abs: 0.00000  Tot: -0.00000 ]
	SubspaceRotationAdjust: set factor to 0.338
ElecMinimize: Iter:  26  G: -1978.955222575687003  |grad|_K:  9.867e-08  alpha:  1.589e-01  linmin: -5.848e-06  t[s]:   2852.78
	Linear fluid (dielectric constant: 78.4, screening length: 8.12261 Bohr) occupying 0.492701 of unit cell:	Completed after 8 iterations at t[s]:   2861.47
	Linear fluid (dielectric constant: 78.4, screening length: 8.12261 Bohr) occupying 0.492702 of unit cell:	Completed after 2 iterations at t[s]:   2868.65
	FillingsUpdate:  mu: -0.208000000  nElectrons: 189.593655  magneticMoment: [ Abs: 0.00000  Tot: -0.00000 ]
	SubspaceRotationAdjust: set factor to 0.292
ElecMinimize: Iter:  27  G: -1978.955222670080957  |grad|_K:  7.880e-08  alpha:  1.348e-01  linmin:  6.891e-06  t[s]:   2879.85
	Linear fluid (dielectric constant: 78.4, screening length: 8.12261 Bohr) occupying 0.492698 of unit cell:	Completed after 8 iterations at t[s]:   2888.41
	Linear fluid (dielectric constant: 78.4, screening length: 8.12261 Bohr) occupying 0.492699 of unit cell:	Completed after 0 iterations at t[s]:   2895.32
	FillingsUpdate:  mu: -0.208000000  nElectrons: 189.593477  magneticMoment: [ Abs: 0.00000  Tot: -0.00000 ]
	SubspaceRotationAdjust: set factor to 0.236
ElecMinimize: Iter:  28  G: -1978.955222721532209  |grad|_K:  6.051e-08  alpha:  1.151e-01  linmin:  3.661e-05  t[s]:   2906.88
ElecMinimize: Converged (|Delta G|<1.000000e-07 for 2 iters).
Setting wave functions to eigenvectors of Hamiltonian
Converging empty states (this may take a while): |deigs|: 1.857e-06

Computing DFT-D3 correction:
# coordination-number Cu 8.297 8.936 9.040 6.932 4.825 9.040 8.936 8.298 4.824 6.932
# diagonal-C6 Cu 175.00 175.00 175.00 175.00 175.00 175.00 175.00 175.00 175.00 175.00
EvdW_6 =   -0.050796
EvdW_8 =   -0.080384

# Ionic positions in cartesian coordinates:
ion Cu   3.374671986251076   1.515135484656420  11.420415624833511 1
ion Cu   0.001270038036896   2.998770479807665   8.269618794699195 1
ion Cu   3.365994553869253   4.540243831603182   5.257128370652200 1
ion Cu  -0.001439737436976   6.039724362745481   2.239334037615827 1
ion Cu   0.003294965213955  -0.023058079586159  14.266250427974041 1
ion Cu   3.375140315306199   6.011489390932375   9.816033260814267 1
ion Cu   3.369318966469813   0.016751285112917   6.803711040857869 1
ion Cu  -0.004843490404276   1.500096558082675   3.653175624774524 1
ion Cu   3.367320846408042   3.036324503340098   0.806997784428894 1
ion Cu   0.001833556286020   4.511300183305340  12.834281033349678 1

# Forces in Cartesian coordinates:
force Cu  -0.000056179576116   0.000464536954630   0.000341197421765 1
force Cu   0.000004882625694  -0.000188943468838   0.000192860414367 1
force Cu   0.000012443995965   0.000313316688569  -0.000179334574998 1
force Cu  -0.000014263807185   0.000273359978627  -0.000643112839027 1
force Cu   0.000013335233944  -0.000135128036639  -0.000227218094563 1
force Cu  -0.000016299471677  -0.000328300937422   0.000185500983259 1
force Cu  -0.000002872732654   0.000195014083668  -0.000192010935125 1
force Cu   0.000057006438234  -0.000449698023906  -0.000342303977987 1
force Cu  -0.000017891905903   0.000134395407329   0.000229688127711 1
force Cu   0.000012173088923  -0.000287709396405   0.000629382100565 1

# Energy components:
   A_diel =        0.0573616761737108
   Eewald =     6297.2992357318971699
       EH =     8136.7753900020315996
     Eloc =   -16831.6551376162715314
      Enl =      366.2833848841790427
     EvdW =       -0.1311799448154649
      Exc =     -193.9348155769054927
 Exc_core =        0.4697219934663693
       KE =      206.4122782017873305
  MuShift =        0.0333580007320442
-------------------------------------
     Etot =    -2018.3904026477248408
       TS =        0.0002632073907554
-------------------------------------
        F =    -2018.3906658551156852
      muN =      -39.4354431335834121
-------------------------------------
        G =    -1978.9552227215322091


Dumping 'jdft.fillings' ... done
Dumping 'jdft.wfns' ... done
Dumping 'jdft.fluidState' ... done
Dumping 'jdft.ionpos' ... done
Dumping 'jdft.lattice' ... done
Dumping 'jdft.eigenvals' ... done
Dumping 'jdft.eigStats' ... 
	eMin: -4.346984 at state 32 ( [ +0.000000 +0.000000 +0.000000 ] spin -1 )
	HOMO: -0.208925 at state 31 ( [ +0.444444 -0.142857 +0.000000 ] spin 1 )
	mu  : -0.208000
	LUMO: -0.206905 at state 14 ( [ +0.222222 +0.428571 +0.000000 ] spin 1 )
	eMax: +0.176432 at state 19 ( [ +0.333333 +0.142857 +0.000000 ] spin 1 )
	HOMO-LUMO gap: +0.002020
	Optical gap  : +0.009584 at state 31 ( [ +0.444444 -0.142857 +0.000000 ] spin 1 )
Dumping 'jdft.Ecomponents' ... done
IonicMinimize: Iter:   2  G: -1978.955222721532209  |grad|_K:  2.700e-04  alpha:  1.000e+00  linmin:  5.188e-01  t[s]:   2940.37
IonicMinimize: Converged (|Delta G|<1.000000e-04 for 2 iters).

#--- Lowdin population analysis ---
# oxidation-state Cu +0.031 +0.075 +0.048 +0.097 +0.384 +0.048 +0.075 +0.031 +0.384 +0.097
# magnetic-moments Cu -0.000 +0.000 +0.000 -0.000 -0.000 +0.000 +0.000 -0.000 -0.000 -0.000


Dumping 'jdft.n_up' ... done
Dumping 'jdft.n_dn' ... done
Dumping 'jdft.tau_up' ... done
Dumping 'jdft.tau_dn' ... done
Dumping 'jdft.eigenvals' ... done
Dumping 'jdft.eigStats' ... 
	eMin: -4.346984 at state 32 ( [ +0.000000 +0.000000 +0.000000 ] spin -1 )
	HOMO: -0.208925 at state 31 ( [ +0.444444 -0.142857 +0.000000 ] spin 1 )
	mu  : -0.208000
	LUMO: -0.206905 at state 14 ( [ +0.222222 +0.428571 +0.000000 ] spin 1 )
	eMax: +0.176432 at state 19 ( [ +0.333333 +0.142857 +0.000000 ] spin 1 )
	HOMO-LUMO gap: +0.002020
	Optical gap  : +0.009584 at state 31 ( [ +0.444444 -0.142857 +0.000000 ] spin 1 )
Dumping 'jdft.kPts' ... done
Dumping 'jdft.kMap' ... done
Dumping 'jdft.dosUp' ... done.
Dumping 'jdft.dosDn' ... done.
End date and time: Mon Sep 12 13:51:58 2022  (Duration: 0-0:49:18.37)
Done!

PROFILER:             augmentDensityGrid     1.652634 +/-     0.025081 s,  200 calls,    330.526782 s total
PROFILER:         augmentDensityGridGrad     0.089221 +/-     0.024370 s,  107 calls,      9.546614 s total
PROFILER:        augmentDensitySpherical     0.000909 +/-     0.000041 s,  400 calls,      0.363730 s total
PROFILER:    augmentDensitySphericalGrad     0.001014 +/-     0.000139 s,  246 calls,      0.249549 s total
PROFILER:                 augmentOverlap     0.296936 +/-     0.024343 s,  864 calls,    256.552797 s total
PROFILER:                     diagouterI     1.421502 +/-     0.036653 s,  406 calls,    577.129821 s total
PROFILER:              EdensityAndVscloc     1.372227 +/-     0.420703 s,  200 calls,    274.445462 s total
PROFILER:                     EnlAndGrad     0.001811 +/-     0.000259 s,  442 calls,      0.800608 s total
PROFILER:            ExCorrCommunication     0.008112 +/-     0.028924 s, 1257 calls,     10.196666 s total
PROFILER:               ExCorrFunctional     0.002707 +/-     0.000458 s,  216 calls,      0.584693 s total
PROFILER:                    ExCorrTotal     0.080019 +/-     0.072891 s,  216 calls,     17.284055 s total
PROFILER:                   Idag_DiagV_I     2.708065 +/-     0.508835 s,  236 calls,    639.103274 s total
PROFILER:                    initWeights     1.867231 +/-     0.000000 s,    1 calls,      1.867231 s total
PROFILER:                    inv(matrix)     0.001161 +/-     0.000095 s,  396 calls,      0.459711 s total
PROFILER:            matrix::diagonalize     0.004408 +/-     0.002176 s,  634 calls,      2.794639 s total
PROFILER:                    matrix::set     0.000004 +/-     0.000007 s, 7080 calls,      0.026159 s total
PROFILER:            orthoMatrix(matrix)     0.000712 +/-     0.000459 s,  422 calls,      0.300501 s total
PROFILER:     RadialFunctionR::transform     0.012723 +/-     0.080440 s,   57 calls,      0.725217 s total
PROFILER:                    reduceKmesh     0.000270 +/-     0.000000 s,    1 calls,      0.000270 s total
PROFILER:   VanDerWaalsD3::energyAndGrad     0.005072 +/-     0.000238 s,   11 calls,      0.055790 s total
PROFILER:               WavefunctionDrag     2.910123 +/-     0.563691 s,    5 calls,     14.550616 s total
PROFILER:                            Y*M     0.087772 +/-     0.022518 s, 2811 calls,    246.726629 s total
PROFILER:                          Y1^Y2     0.096207 +/-     0.026463 s, 1826 calls,    175.673096 s total

MEMUSAGE:                   ColumnBundle     0.176791 GB
MEMUSAGE:        complexScalarFieldTilde     0.005768 GB
MEMUSAGE:                    IndexArrays     0.009360 GB
MEMUSAGE:                         matrix     0.013003 GB
MEMUSAGE:                           misc     0.005809 GB
MEMUSAGE:                    ScalarField     0.041817 GB
MEMUSAGE:               ScalarFieldTilde     0.030596 GB
MEMUSAGE:                          Total     0.221494 GB
