
*************** JDFTx 1.6.0  ***************

Start date and time: Thu Dec  9 05:46:38 2021
Executable /projects/musgravc/apps/jdftx-1.6.1/build/jdftx with command-line: -i in
Running on hosts (process indices):  shas0111.rc.int.colorado.edu (0-23)
Divided in process groups (process indices):  0 (0)  1 (1)  2 (2)  3 (3)  4 (4)  5 (5)  6 (6)  7 (7)  8 (8)  9 (9)  10 (10)  11 (11)  12 (12)  13 (13)  14 (14)  15 (15)  16 (16)  17 (17)  18 (18)  19 (19)  20 (20)  21 (21)  22 (22)  23 (23)
Resource initialization completed at t[s]:      0.00
Run totals: 24 processes, 24 threads, 0 GPUs


Input parsed successfully to the following command list (including defaults):

basis kpoint-dependent
converge-empty-states yes
coords-type Cartesian
core-overlap-check none
coulomb-interaction Periodic
davidson-band-ratio 1.1
density-of-states Etol 1.000000e-06 Esigma 1.000000e-03 \
		Complete \
	Total \
	OrthoOrbital Cu 1   s \
	OrthoOrbital Cu 1   p \
	OrthoOrbital Cu 1   px \
	OrthoOrbital Cu 1   py \
	OrthoOrbital Cu 1   pz \
	OrthoOrbital Cu 1   d \
	OrthoOrbital Cu 1   dxy \
	OrthoOrbital Cu 1   dyz \
	OrthoOrbital Cu 1   dz2 \
	OrthoOrbital Cu 1   dxz \
	OrthoOrbital Cu 1   dx2-y2 \
	OrthoOrbital Cu 2   s \
	OrthoOrbital Cu 2   p \
	OrthoOrbital Cu 2   px \
	OrthoOrbital Cu 2   py \
	OrthoOrbital Cu 2   pz \
	OrthoOrbital Cu 2   d \
	OrthoOrbital Cu 2   dxy \
	OrthoOrbital Cu 2   dyz \
	OrthoOrbital Cu 2   dz2 \
	OrthoOrbital Cu 2   dxz \
	OrthoOrbital Cu 2   dx2-y2 \
	OrthoOrbital Cu 3   s \
	OrthoOrbital Cu 3   p \
	OrthoOrbital Cu 3   px \
	OrthoOrbital Cu 3   py \
	OrthoOrbital Cu 3   pz \
	OrthoOrbital Cu 3   d \
	OrthoOrbital Cu 3   dxy \
	OrthoOrbital Cu 3   dyz \
	OrthoOrbital Cu 3   dz2 \
	OrthoOrbital Cu 3   dxz \
	OrthoOrbital Cu 3   dx2-y2 \
	OrthoOrbital Cu 4   s \
	OrthoOrbital Cu 4   p \
	OrthoOrbital Cu 4   px \
	OrthoOrbital Cu 4   py \
	OrthoOrbital Cu 4   pz \
	OrthoOrbital Cu 4   d \
	OrthoOrbital Cu 4   dxy \
	OrthoOrbital Cu 4   dyz \
	OrthoOrbital Cu 4   dz2 \
	OrthoOrbital Cu 4   dxz \
	OrthoOrbital Cu 4   dx2-y2 \
	OrthoOrbital Cu 5   s \
	OrthoOrbital Cu 5   p \
	OrthoOrbital Cu 5   px \
	OrthoOrbital Cu 5   py \
	OrthoOrbital Cu 5   pz \
	OrthoOrbital Cu 5   d \
	OrthoOrbital Cu 5   dxy \
	OrthoOrbital Cu 5   dyz \
	OrthoOrbital Cu 5   dz2 \
	OrthoOrbital Cu 5   dxz \
	OrthoOrbital Cu 5   dx2-y2 \
	OrthoOrbital Cu 6   s \
	OrthoOrbital Cu 6   p \
	OrthoOrbital Cu 6   px \
	OrthoOrbital Cu 6   py \
	OrthoOrbital Cu 6   pz \
	OrthoOrbital Cu 6   d \
	OrthoOrbital Cu 6   dxy \
	OrthoOrbital Cu 6   dyz \
	OrthoOrbital Cu 6   dz2 \
	OrthoOrbital Cu 6   dxz \
	OrthoOrbital Cu 6   dx2-y2 \
	OrthoOrbital Cu 7   s \
	OrthoOrbital Cu 7   p \
	OrthoOrbital Cu 7   px \
	OrthoOrbital Cu 7   py \
	OrthoOrbital Cu 7   pz \
	OrthoOrbital Cu 7   d \
	OrthoOrbital Cu 7   dxy \
	OrthoOrbital Cu 7   dyz \
	OrthoOrbital Cu 7   dz2 \
	OrthoOrbital Cu 7   dxz \
	OrthoOrbital Cu 7   dx2-y2 \
	OrthoOrbital Cu 8   s \
	OrthoOrbital Cu 8   p \
	OrthoOrbital Cu 8   px \
	OrthoOrbital Cu 8   py \
	OrthoOrbital Cu 8   pz \
	OrthoOrbital Cu 8   d \
	OrthoOrbital Cu 8   dxy \
	OrthoOrbital Cu 8   dyz \
	OrthoOrbital Cu 8   dz2 \
	OrthoOrbital Cu 8   dxz \
	OrthoOrbital Cu 8   dx2-y2 \
	OrthoOrbital Cu 9   s \
	OrthoOrbital Cu 9   p \
	OrthoOrbital Cu 9   px \
	OrthoOrbital Cu 9   py \
	OrthoOrbital Cu 9   pz \
	OrthoOrbital Cu 9   d \
	OrthoOrbital Cu 9   dxy \
	OrthoOrbital Cu 9   dyz \
	OrthoOrbital Cu 9   dz2 \
	OrthoOrbital Cu 9   dxz \
	OrthoOrbital Cu 9   dx2-y2 \
	OrthoOrbital Cu 10   s \
	OrthoOrbital Cu 10   p \
	OrthoOrbital Cu 10   px \
	OrthoOrbital Cu 10   py \
	OrthoOrbital Cu 10   pz \
	OrthoOrbital Cu 10   d \
	OrthoOrbital Cu 10   dxy \
	OrthoOrbital Cu 10   dyz \
	OrthoOrbital Cu 10   dz2 \
	OrthoOrbital Cu 10   dxz \
	OrthoOrbital Cu 10   dx2-y2 \
	OrthoOrbital Cu 11   s \
	OrthoOrbital Cu 11   p \
	OrthoOrbital Cu 11   px \
	OrthoOrbital Cu 11   py \
	OrthoOrbital Cu 11   pz \
	OrthoOrbital Cu 11   d \
	OrthoOrbital Cu 11   dxy \
	OrthoOrbital Cu 11   dyz \
	OrthoOrbital Cu 11   dz2 \
	OrthoOrbital Cu 11   dxz \
	OrthoOrbital Cu 11   dx2-y2 \
	OrthoOrbital Cu 12   s \
	OrthoOrbital Cu 12   p \
	OrthoOrbital Cu 12   px \
	OrthoOrbital Cu 12   py \
	OrthoOrbital Cu 12   pz \
	OrthoOrbital Cu 12   d \
	OrthoOrbital Cu 12   dxy \
	OrthoOrbital Cu 12   dyz \
	OrthoOrbital Cu 12   dz2 \
	OrthoOrbital Cu 12   dxz \
	OrthoOrbital Cu 12   dx2-y2 \
	OrthoOrbital Cu 13   s \
	OrthoOrbital Cu 13   p \
	OrthoOrbital Cu 13   px \
	OrthoOrbital Cu 13   py \
	OrthoOrbital Cu 13   pz \
	OrthoOrbital Cu 13   d \
	OrthoOrbital Cu 13   dxy \
	OrthoOrbital Cu 13   dyz \
	OrthoOrbital Cu 13   dz2 \
	OrthoOrbital Cu 13   dxz \
	OrthoOrbital Cu 13   dx2-y2 \
	OrthoOrbital Cu 14   s \
	OrthoOrbital Cu 14   p \
	OrthoOrbital Cu 14   px \
	OrthoOrbital Cu 14   py \
	OrthoOrbital Cu 14   pz \
	OrthoOrbital Cu 14   d \
	OrthoOrbital Cu 14   dxy \
	OrthoOrbital Cu 14   dyz \
	OrthoOrbital Cu 14   dz2 \
	OrthoOrbital Cu 14   dxz \
	OrthoOrbital Cu 14   dx2-y2 \
	OrthoOrbital Cu 15   s \
	OrthoOrbital Cu 15   p \
	OrthoOrbital Cu 15   px \
	OrthoOrbital Cu 15   py \
	OrthoOrbital Cu 15   pz \
	OrthoOrbital Cu 15   d \
	OrthoOrbital Cu 15   dxy \
	OrthoOrbital Cu 15   dyz \
	OrthoOrbital Cu 15   dz2 \
	OrthoOrbital Cu 15   dxz \
	OrthoOrbital Cu 15   dx2-y2 \
	OrthoOrbital Cu 16   s \
	OrthoOrbital Cu 16   p \
	OrthoOrbital Cu 16   px \
	OrthoOrbital Cu 16   py \
	OrthoOrbital Cu 16   pz \
	OrthoOrbital Cu 16   d \
	OrthoOrbital Cu 16   dxy \
	OrthoOrbital Cu 16   dyz \
	OrthoOrbital Cu 16   dz2 \
	OrthoOrbital Cu 16   dxz \
	OrthoOrbital Cu 16   dx2-y2 \
	OrthoOrbital Cu 17   s \
	OrthoOrbital Cu 17   p \
	OrthoOrbital Cu 17   px \
	OrthoOrbital Cu 17   py \
	OrthoOrbital Cu 17   pz \
	OrthoOrbital Cu 17   d \
	OrthoOrbital Cu 17   dxy \
	OrthoOrbital Cu 17   dyz \
	OrthoOrbital Cu 17   dz2 \
	OrthoOrbital Cu 17   dxz \
	OrthoOrbital Cu 17   dx2-y2 \
	OrthoOrbital Cu 18   s \
	OrthoOrbital Cu 18   p \
	OrthoOrbital Cu 18   px \
	OrthoOrbital Cu 18   py \
	OrthoOrbital Cu 18   pz \
	OrthoOrbital Cu 18   d \
	OrthoOrbital Cu 18   dxy \
	OrthoOrbital Cu 18   dyz \
	OrthoOrbital Cu 18   dz2 \
	OrthoOrbital Cu 18   dxz \
	OrthoOrbital Cu 18   dx2-y2 \
	OrthoOrbital Cu 19   s \
	OrthoOrbital Cu 19   p \
	OrthoOrbital Cu 19   px \
	OrthoOrbital Cu 19   py \
	OrthoOrbital Cu 19   pz \
	OrthoOrbital Cu 19   d \
	OrthoOrbital Cu 19   dxy \
	OrthoOrbital Cu 19   dyz \
	OrthoOrbital Cu 19   dz2 \
	OrthoOrbital Cu 19   dxz \
	OrthoOrbital Cu 19   dx2-y2 \
	OrthoOrbital Cu 20   s \
	OrthoOrbital Cu 20   p \
	OrthoOrbital Cu 20   px \
	OrthoOrbital Cu 20   py \
	OrthoOrbital Cu 20   pz \
	OrthoOrbital Cu 20   d \
	OrthoOrbital Cu 20   dxy \
	OrthoOrbital Cu 20   dyz \
	OrthoOrbital Cu 20   dz2 \
	OrthoOrbital Cu 20   dxz \
	OrthoOrbital Cu 20   dx2-y2 \
	OrthoOrbital Cu 21   s \
	OrthoOrbital Cu 21   p \
	OrthoOrbital Cu 21   px \
	OrthoOrbital Cu 21   py \
	OrthoOrbital Cu 21   pz \
	OrthoOrbital Cu 21   d \
	OrthoOrbital Cu 21   dxy \
	OrthoOrbital Cu 21   dyz \
	OrthoOrbital Cu 21   dz2 \
	OrthoOrbital Cu 21   dxz \
	OrthoOrbital Cu 21   dx2-y2 \
	OrthoOrbital Cu 22   s \
	OrthoOrbital Cu 22   p \
	OrthoOrbital Cu 22   px \
	OrthoOrbital Cu 22   py \
	OrthoOrbital Cu 22   pz \
	OrthoOrbital Cu 22   d \
	OrthoOrbital Cu 22   dxy \
	OrthoOrbital Cu 22   dyz \
	OrthoOrbital Cu 22   dz2 \
	OrthoOrbital Cu 22   dxz \
	OrthoOrbital Cu 22   dx2-y2 \
	OrthoOrbital Cu 23   s \
	OrthoOrbital Cu 23   p \
	OrthoOrbital Cu 23   px \
	OrthoOrbital Cu 23   py \
	OrthoOrbital Cu 23   pz \
	OrthoOrbital Cu 23   d \
	OrthoOrbital Cu 23   dxy \
	OrthoOrbital Cu 23   dyz \
	OrthoOrbital Cu 23   dz2 \
	OrthoOrbital Cu 23   dxz \
	OrthoOrbital Cu 23   dx2-y2 \
	OrthoOrbital Cu 24   s \
	OrthoOrbital Cu 24   p \
	OrthoOrbital Cu 24   px \
	OrthoOrbital Cu 24   py \
	OrthoOrbital Cu 24   pz \
	OrthoOrbital Cu 24   d \
	OrthoOrbital Cu 24   dxy \
	OrthoOrbital Cu 24   dyz \
	OrthoOrbital Cu 24   dz2 \
	OrthoOrbital Cu 24   dxz \
	OrthoOrbital Cu 24   dx2-y2 \
	OrthoOrbital Cu 25   s \
	OrthoOrbital Cu 25   p \
	OrthoOrbital Cu 25   px \
	OrthoOrbital Cu 25   py \
	OrthoOrbital Cu 25   pz \
	OrthoOrbital Cu 25   d \
	OrthoOrbital Cu 25   dxy \
	OrthoOrbital Cu 25   dyz \
	OrthoOrbital Cu 25   dz2 \
	OrthoOrbital Cu 25   dxz \
	OrthoOrbital Cu 25   dx2-y2 \
	OrthoOrbital Cu 26   s \
	OrthoOrbital Cu 26   p \
	OrthoOrbital Cu 26   px \
	OrthoOrbital Cu 26   py \
	OrthoOrbital Cu 26   pz \
	OrthoOrbital Cu 26   d \
	OrthoOrbital Cu 26   dxy \
	OrthoOrbital Cu 26   dyz \
	OrthoOrbital Cu 26   dz2 \
	OrthoOrbital Cu 26   dxz \
	OrthoOrbital Cu 26   dx2-y2 \
	OrthoOrbital Cu 27   s \
	OrthoOrbital Cu 27   p \
	OrthoOrbital Cu 27   px \
	OrthoOrbital Cu 27   py \
	OrthoOrbital Cu 27   pz \
	OrthoOrbital Cu 27   d \
	OrthoOrbital Cu 27   dxy \
	OrthoOrbital Cu 27   dyz \
	OrthoOrbital Cu 27   dz2 \
	OrthoOrbital Cu 27   dxz \
	OrthoOrbital Cu 27   dx2-y2 \
	OrthoOrbital Cu 28   s \
	OrthoOrbital Cu 28   p \
	OrthoOrbital Cu 28   px \
	OrthoOrbital Cu 28   py \
	OrthoOrbital Cu 28   pz \
	OrthoOrbital Cu 28   d \
	OrthoOrbital Cu 28   dxy \
	OrthoOrbital Cu 28   dyz \
	OrthoOrbital Cu 28   dz2 \
	OrthoOrbital Cu 28   dxz \
	OrthoOrbital Cu 28   dx2-y2 \
	OrthoOrbital Cu 29   s \
	OrthoOrbital Cu 29   p \
	OrthoOrbital Cu 29   px \
	OrthoOrbital Cu 29   py \
	OrthoOrbital Cu 29   pz \
	OrthoOrbital Cu 29   d \
	OrthoOrbital Cu 29   dxy \
	OrthoOrbital Cu 29   dyz \
	OrthoOrbital Cu 29   dz2 \
	OrthoOrbital Cu 29   dxz \
	OrthoOrbital Cu 29   dx2-y2 \
	OrthoOrbital Cu 30   s \
	OrthoOrbital Cu 30   p \
	OrthoOrbital Cu 30   px \
	OrthoOrbital Cu 30   py \
	OrthoOrbital Cu 30   pz \
	OrthoOrbital Cu 30   d \
	OrthoOrbital Cu 30   dxy \
	OrthoOrbital Cu 30   dyz \
	OrthoOrbital Cu 30   dz2 \
	OrthoOrbital Cu 30   dxz \
	OrthoOrbital Cu 30   dx2-y2 \
	OrthoOrbital Cu 31   s \
	OrthoOrbital Cu 31   p \
	OrthoOrbital Cu 31   px \
	OrthoOrbital Cu 31   py \
	OrthoOrbital Cu 31   pz \
	OrthoOrbital Cu 31   d \
	OrthoOrbital Cu 31   dxy \
	OrthoOrbital Cu 31   dyz \
	OrthoOrbital Cu 31   dz2 \
	OrthoOrbital Cu 31   dxz \
	OrthoOrbital Cu 31   dx2-y2 \
	OrthoOrbital Cu 32   s \
	OrthoOrbital Cu 32   p \
	OrthoOrbital Cu 32   px \
	OrthoOrbital Cu 32   py \
	OrthoOrbital Cu 32   pz \
	OrthoOrbital Cu 32   d \
	OrthoOrbital Cu 32   dxy \
	OrthoOrbital Cu 32   dyz \
	OrthoOrbital Cu 32   dz2 \
	OrthoOrbital Cu 32   dxz \
	OrthoOrbital Cu 32   dx2-y2 \
	OrthoOrbital Cu 33   s \
	OrthoOrbital Cu 33   p \
	OrthoOrbital Cu 33   px \
	OrthoOrbital Cu 33   py \
	OrthoOrbital Cu 33   pz \
	OrthoOrbital Cu 33   d \
	OrthoOrbital Cu 33   dxy \
	OrthoOrbital Cu 33   dyz \
	OrthoOrbital Cu 33   dz2 \
	OrthoOrbital Cu 33   dxz \
	OrthoOrbital Cu 33   dx2-y2 \
	OrthoOrbital Cu 34   s \
	OrthoOrbital Cu 34   p \
	OrthoOrbital Cu 34   px \
	OrthoOrbital Cu 34   py \
	OrthoOrbital Cu 34   pz \
	OrthoOrbital Cu 34   d \
	OrthoOrbital Cu 34   dxy \
	OrthoOrbital Cu 34   dyz \
	OrthoOrbital Cu 34   dz2 \
	OrthoOrbital Cu 34   dxz \
	OrthoOrbital Cu 34   dx2-y2 \
	OrthoOrbital Cu 35   s \
	OrthoOrbital Cu 35   p \
	OrthoOrbital Cu 35   px \
	OrthoOrbital Cu 35   py \
	OrthoOrbital Cu 35   pz \
	OrthoOrbital Cu 35   d \
	OrthoOrbital Cu 35   dxy \
	OrthoOrbital Cu 35   dyz \
	OrthoOrbital Cu 35   dz2 \
	OrthoOrbital Cu 35   dxz \
	OrthoOrbital Cu 35   dx2-y2 \
	OrthoOrbital Cu 36   s \
	OrthoOrbital Cu 36   p \
	OrthoOrbital Cu 36   px \
	OrthoOrbital Cu 36   py \
	OrthoOrbital Cu 36   pz \
	OrthoOrbital Cu 36   d \
	OrthoOrbital Cu 36   dxy \
	OrthoOrbital Cu 36   dyz \
	OrthoOrbital Cu 36   dz2 \
	OrthoOrbital Cu 36   dxz \
	OrthoOrbital Cu 36   dx2-y2 \
	OrthoOrbital Cu 37   s \
	OrthoOrbital Cu 37   p \
	OrthoOrbital Cu 37   px \
	OrthoOrbital Cu 37   py \
	OrthoOrbital Cu 37   pz \
	OrthoOrbital Cu 37   d \
	OrthoOrbital Cu 37   dxy \
	OrthoOrbital Cu 37   dyz \
	OrthoOrbital Cu 37   dz2 \
	OrthoOrbital Cu 37   dxz \
	OrthoOrbital Cu 37   dx2-y2 \
	OrthoOrbital Cu 38   s \
	OrthoOrbital Cu 38   p \
	OrthoOrbital Cu 38   px \
	OrthoOrbital Cu 38   py \
	OrthoOrbital Cu 38   pz \
	OrthoOrbital Cu 38   d \
	OrthoOrbital Cu 38   dxy \
	OrthoOrbital Cu 38   dyz \
	OrthoOrbital Cu 38   dz2 \
	OrthoOrbital Cu 38   dxz \
	OrthoOrbital Cu 38   dx2-y2 \
	OrthoOrbital Cu 39   s \
	OrthoOrbital Cu 39   p \
	OrthoOrbital Cu 39   px \
	OrthoOrbital Cu 39   py \
	OrthoOrbital Cu 39   pz \
	OrthoOrbital Cu 39   d \
	OrthoOrbital Cu 39   dxy \
	OrthoOrbital Cu 39   dyz \
	OrthoOrbital Cu 39   dz2 \
	OrthoOrbital Cu 39   dxz \
	OrthoOrbital Cu 39   dx2-y2 \
	OrthoOrbital Cu 40   s \
	OrthoOrbital Cu 40   p \
	OrthoOrbital Cu 40   px \
	OrthoOrbital Cu 40   py \
	OrthoOrbital Cu 40   pz \
	OrthoOrbital Cu 40   d \
	OrthoOrbital Cu 40   dxy \
	OrthoOrbital Cu 40   dyz \
	OrthoOrbital Cu 40   dz2 \
	OrthoOrbital Cu 40   dxz \
	OrthoOrbital Cu 40   dx2-y2 \
	OrthoOrbital Cu 41   s \
	OrthoOrbital Cu 41   p \
	OrthoOrbital Cu 41   px \
	OrthoOrbital Cu 41   py \
	OrthoOrbital Cu 41   pz \
	OrthoOrbital Cu 41   d \
	OrthoOrbital Cu 41   dxy \
	OrthoOrbital Cu 41   dyz \
	OrthoOrbital Cu 41   dz2 \
	OrthoOrbital Cu 41   dxz \
	OrthoOrbital Cu 41   dx2-y2 \
	OrthoOrbital Cu 42   s \
	OrthoOrbital Cu 42   p \
	OrthoOrbital Cu 42   px \
	OrthoOrbital Cu 42   py \
	OrthoOrbital Cu 42   pz \
	OrthoOrbital Cu 42   d \
	OrthoOrbital Cu 42   dxy \
	OrthoOrbital Cu 42   dyz \
	OrthoOrbital Cu 42   dz2 \
	OrthoOrbital Cu 42   dxz \
	OrthoOrbital Cu 42   dx2-y2 \
	OrthoOrbital Cu 43   s \
	OrthoOrbital Cu 43   p \
	OrthoOrbital Cu 43   px \
	OrthoOrbital Cu 43   py \
	OrthoOrbital Cu 43   pz \
	OrthoOrbital Cu 43   d \
	OrthoOrbital Cu 43   dxy \
	OrthoOrbital Cu 43   dyz \
	OrthoOrbital Cu 43   dz2 \
	OrthoOrbital Cu 43   dxz \
	OrthoOrbital Cu 43   dx2-y2 \
	OrthoOrbital Cu 44   s \
	OrthoOrbital Cu 44   p \
	OrthoOrbital Cu 44   px \
	OrthoOrbital Cu 44   py \
	OrthoOrbital Cu 44   pz \
	OrthoOrbital Cu 44   d \
	OrthoOrbital Cu 44   dxy \
	OrthoOrbital Cu 44   dyz \
	OrthoOrbital Cu 44   dz2 \
	OrthoOrbital Cu 44   dxz \
	OrthoOrbital Cu 44   dx2-y2
dump End ElecDensity KEdensity BandEigs EigStats RhoAtom DOS Kpoints
dump Ionic State IonicPositions Lattice EigStats Ecomponents
dump 
dump 
dump 
dump 
dump 
dump 
dump 
dump 
dump-name jdft.$VAR
elec-cutoff 20
elec-eigen-algo Davidson
elec-ex-corr gga-PBE
elec-initial-magnetization 0.000000 no
elec-n-bands 502
elec-smearing Fermi 0.001
electronic-minimize  \
	dirUpdateScheme      FletcherReeves \
	linminMethod         DirUpdateRecommended \
	nIterations          100 \
	history              15 \
	knormThreshold       0 \
	energyDiffThreshold  1e-07 \
	nEnergyDiff          2 \
	alphaTstart          1 \
	alphaTmin            1e-10 \
	updateTestStepSize   yes \
	alphaTreduceFactor   0.1 \
	alphaTincreaseFactor 3 \
	nAlphaAdjustMax      3 \
	wolfeEnergy          0.0001 \
	wolfeGradient        0.9 \
	fdTest               no
exchange-regularization WignerSeitzTruncated
fluid LinearPCM 298.000000 1.013250
fluid-anion F- 0.5 MeanFieldLJ \
	epsBulk 1 \
	pMol 0 \
	epsInf 1 \
	Pvap 0 \
	sigmaBulk 0 \
	Rvdw 2.24877 \
	Res 0 \
	tauNuc 343133
fluid-cation Na+ 0.5 MeanFieldLJ \
	epsBulk 1 \
	pMol 0 \
	epsInf 1 \
	Pvap 0 \
	sigmaBulk 0 \
	Rvdw 2.19208 \
	Res 0 \
	tauNuc 343133
fluid-ex-corr lda-TF lda-PZ
fluid-gummel-loop 10 1.000000e-05
fluid-minimize  \
	dirUpdateScheme      PolakRibiere \
	linminMethod         DirUpdateRecommended \
	nIterations          400 \
	history              15 \
	knormThreshold       1e-11 \
	energyDiffThreshold  0 \
	nEnergyDiff          2 \
	alphaTstart          1 \
	alphaTmin            1e-10 \
	updateTestStepSize   yes \
	alphaTreduceFactor   0.1 \
	alphaTincreaseFactor 3 \
	nAlphaAdjustMax      6 \
	wolfeEnergy          0.0001 \
	wolfeGradient        0.9 \
	fdTest               no
fluid-solvent H2O 55.338 ScalarEOS \
	epsBulk 78.4 \
	pMol 0.92466 \
	epsInf 1.77 \
	Pvap 1.06736e-10 \
	sigmaBulk 4.62e-05 \
	Rvdw 2.61727 \
	Res 1.42 \
	tauNuc 343133 \
	poleEl 15 7 1
forces-output-coords Positions
initial-state jdft.$VAR
ion Cu   0.000198404207623  14.160685471281067  62.183563282950551 1
ion Cu   0.000097579932034  20.437164526132509  59.399421245736633 1
ion Cu  -0.000028266659583   6.130664867133904  60.782645057376428 1
ion Cu  -0.000014967819723  12.205574050205851  57.838142868374838 1
ion Cu   0.000052397428935  18.332794144477916  54.974024278829987 1
ion Cu   0.000004943856642  16.272735446736789  50.651688913038576 1
ion Cu  -0.000167871147824  22.488437211690389  32.112388270674259 1
ion Cu  -0.000022752404876   4.067248946211573  56.442182496710402 1
ion Cu   4.766680089886552  10.173521347851446  53.534409655538418 1
ion Cu   0.000072258281720   2.031502140524055  52.124916885764279 1
ion Cu  -0.000013844789408   8.130998697548781  49.232998143971784 1
ion Cu   0.000028574840431  14.232725094553036  46.330049941762901 1
ion Cu  -0.000046070721017  20.317495547299636  43.472008198454219 1
ion Cu  -0.000043007443513  12.194910682797918  42.016219660121777 1
ion Cu  -0.000085129687837  18.281723752639543  39.119978648551182 1
ion Cu  -0.000003347381378  22.356146140512983  47.796275862264459 1
ion Cu  -0.000003379485747   6.091800088855505  44.934176452691794 1
ion Cu  -0.000042547471148   4.049612882853549  40.628700373919301 1
ion Cu   0.000019976832423  10.149938647664531  37.729855765285599 1
ion Cu  -0.000031873461296  16.192266026572941  34.740422104862454 1
ion Cu  -0.000074287912268   2.013550609915889  36.366277173330175 1
ion Cu  -0.000040865817580   8.143986254909711  33.363045875295086 1
ion Cu   2.383467378457792  16.280808503542438  58.488357715750318 1
ion Cu   2.383354358654618  22.368592365900948  55.734436164108146 1
ion Cu   2.383259190496215   8.142059861572600  57.125598376358880 1
ion Cu   2.383348588518890  14.242387792211192  54.225680831237852 1
ion Cu   2.383347900084809  20.331441555266828  51.380805513290106 1
ion Cu   2.383282465790157  18.293275062907931  47.056290027352269 1
ion Cu   2.383351996822382   2.100260631006997  60.117429379295750 1
ion Cu   2.383374338997506   6.096482474528702  52.837631296987837 1
ion Cu   2.383318480589946  12.199884239406265  49.919003588998358 1
ion Cu   2.383306838655228   4.058817978621205  48.522644066272846 1
ion Cu   2.383347023667926  10.161471322527994  45.620076600486811 1
ion Cu   2.383255740440861  16.260786603538097  42.728170351671231 1
ion Cu   2.383240594177258  -0.038555191089557  39.880042267299878 1
ion Cu   2.383306804564647  14.224394989446168  38.413036921805947 1
ion Cu   2.383202148389923  20.215273179699114  35.456933993349800 1
ion Cu   2.383315207727647   2.019573880661229  44.201382249360627 1
ion Cu   2.383225276066449   8.119146732467836  41.319925651707486 1
ion Cu   2.383371188616806   6.086639839610276  37.017258184242429 1
ion Cu   2.383292154461148  12.160274555678479  34.074230751709280 1
ion Cu   2.383478413368497  18.162066864239808  62.743730652299774 1
ion Cu   2.383144672551592   4.132825882516848  32.671807587017803 1
ion Cu   2.383338225836532  10.147866297369104  61.493538673891976 1
ion-species /projects/musgravc/apps/jdftx-1.6.0/build/pseudopotentials/GBRV_v1.5/$ID_pbe_v1.uspp
ion-species /projects/musgravc/apps/jdftx-1.6.0/build/pseudopotentials/GBRV_v1.5/$ID_pbe_v1.2.uspp
ion-species /projects/musgravc/apps/jdftx-1.6.0/build/pseudopotentials/GBRV_v1.5/$ID_pbe_v1.4.uspp
ion-species /projects/musgravc/apps/jdftx-1.6.0/build/pseudopotentials/GBRV_v1.5/$ID_pbe_v1.5.uspp
ion-width Ecut
ionic-minimize  \
	dirUpdateScheme      L-BFGS \
	linminMethod         DirUpdateRecommended \
	nIterations          100 \
	history              15 \
	knormThreshold       0.0001 \
	energyDiffThreshold  1e-06 \
	nEnergyDiff          2 \
	alphaTstart          1 \
	alphaTmin            1e-10 \
	updateTestStepSize   yes \
	alphaTreduceFactor   0.1 \
	alphaTincreaseFactor 3 \
	nAlphaAdjustMax      3 \
	wolfeEnergy          0.0001 \
	wolfeGradient        0.9 \
	fdTest               no
kpoint   0.000000000000   0.000000000000   0.000000000000  1.00000000000000
kpoint-folding 11 2 1 
latt-move-scale 0 0 0
latt-scale 1 1 1 
lattice  \
	   4.766623000000000    0.000000000000000    0.000000000000000  \
	   0.000000000000000   22.357445999999999    0.000000000000000  \
	   0.000000000000000    0.000000000000000   63.236406000000002 
lattice-minimize  \
	dirUpdateScheme      L-BFGS \
	linminMethod         DirUpdateRecommended \
	nIterations          0 \
	history              15 \
	knormThreshold       0 \
	energyDiffThreshold  1e-06 \
	nEnergyDiff          2 \
	alphaTstart          1 \
	alphaTmin            1e-10 \
	updateTestStepSize   yes \
	alphaTreduceFactor   0.1 \
	alphaTincreaseFactor 3 \
	nAlphaAdjustMax      3 \
	wolfeEnergy          0.0001 \
	wolfeGradient        0.9 \
	fdTest               no
lcao-params 30 1e-06 0.001
pcm-variant CANDLE
spintype z-spin
subspace-rotation-factor 1 yes
symmetries none
symmetry-threshold 0.0001
target-mu -0.0978 no

van-der-waals D3


Applied RMS atom displacement 0 bohrs to make symmetries exact.

---------- Initializing the Grid ----------
R = 
[      4.76662            0            0  ]
[            0      22.3574            0  ]
[            0            0      63.2364  ]
unit cell volume = 6739.07
G =
[    1.31816          0          0  ]
[          0   0.281033          0  ]
[          0          0  0.0993603  ]
Minimum fftbox size, Smin = [  20  92  256  ]
Chosen fftbox size, S = [  20  96  256  ]

---------- Exchange Correlation functional ----------
Initalized PBE GGA exchange.
Initalized PBE GGA correlation.

---------- Setting up pseudopotentials ----------
Width of ionic core gaussian charges (only for fluid interactions / plotting) set to 0.397384

Reading pseudopotential file '/projects/musgravc/apps/jdftx-1.6.0/build/pseudopotentials/GBRV_v1.5/cu_pbe_v1.2.uspp':
  Title: Cu.  Created by USPP 7.3.6 on 3-2-2014
  Reference state energy: -201.059491.  19 valence electrons in orbitals:
    |300>  occupation: 2  eigenvalue: -5.020764
    |310>  occupation: 6  eigenvalue: -3.445588
    |320>  occupation: 8  eigenvalue: -0.925168
    |400>  occupation: 2  eigenvalue: -0.567638
    |410>  occupation: 0  eigenvalue: -0.326154
  lMax: 2  lLocal: 3  QijEcut: 6
  6 projectors sampled on a log grid with 613 points:
    l: 0  eig: -5.020767  rCut: 1.4
    l: 0  eig: -0.567640  rCut: 1.4
    l: 1  eig: -3.445589  rCut: 1.55
    l: 1  eig: -0.326157  rCut: 1.55
    l: 2  eig: -0.925170  rCut: 1.5
    l: 2  eig: 1.500000  rCut: 1.5
  Partial core density with radius 0.8
  Transforming core density to a uniform radial grid of dG=0.02 with 1143 points.
  Transforming local potential to a uniform radial grid of dG=0.02 with 1143 points.
  Transforming nonlocal projectors to a uniform radial grid of dG=0.02 with 432 points.
  Transforming density augmentations to a uniform radial grid of dG=0.02 with 1143 points.
  Transforming atomic orbitals to a uniform radial grid of dG=0.02 with 432 points.
  Core radius for overlap checks: 1.55 bohrs.

Initialized 1 species with 44 total atoms.

Folded 1 k-points by 11x2x1 to 22 k-points.

---------- Setting up k-points, bands, fillings ----------
No reducable k-points. 
Computing the number of bands and number of electrons
Reading initial fillings from file jdft.fillings.
nElectrons: 837.511526   nBands: 502   nStates: 44

----- Setting up reduced wavefunction bases (one per k-point) -----
average nbasis = 28786.227 , ideal nbasis = 28789.834

----- Initializing Supercell corresponding to k-point mesh -----
Lattice vector linear combinations in supercell:
[  11   0   0  ]
[   0   2   0  ]
[   0   0   1  ]
Supercell lattice vectors:
[  52.4329  0  0  ]
[  0  44.7149  0  ]
[  0  0  63.2364  ]

Initializing DFT-D3 calculator:
	Parameters set for gga-PBE functional
	s6:  1.000  s_r6:  1.217
	s8:  0.722  s_r8:  1.000
	Per-atom parameters loaded for:
	Cu:  sqrtQ[a0]:  5.226  Rcov[a0]:  1.909  CN: [ 0.00 0.96 ]

Initializing DFT-D2 calculator for fluid / solvation:
	Cu:  C6:  187.33 Eh-a0^6  R0: 2.952 a0

---------- Setting up ewald sum ----------
Optimum gaussian width for ewald sums = 4.010526 bohr.
Real space sum over 665 unit cells with max indices [  9  3  2  ]
Reciprocal space sum over 7497 terms with max indices [  3  10  25  ]

Computing DFT-D3 correction:
# coordination-number Cu 6.821 8.216 6.854 9.056 9.114 9.155 5.598 9.068 9.142 9.134 9.133 9.145 9.165 9.141 9.072 9.161 9.143 9.158 9.084 6.838 8.999 6.843 8.992 9.069 9.077 9.152 9.163 9.161 6.838 9.135 9.142 9.144 9.136 9.136 9.119 9.073 8.219 9.158 9.147 9.062 6.856 5.597 6.824 6.839
# diagonal-C6 Cu 175.00 175.00 175.00 175.00 175.00 175.00 175.00 175.00 175.00 175.00 175.00 175.00 175.00 175.00 175.00 175.00 175.00 175.00 175.00 175.00 175.00 175.00 175.00 175.00 175.00 175.00 175.00 175.00 175.00 175.00 175.00 175.00 175.00 175.00 175.00 175.00 175.00 175.00 175.00 175.00 175.00 175.00 175.00 175.00
EvdW_6 =   -0.293497
EvdW_8 =   -0.421915

---------- Allocating electronic variables ----------
Initializing wave functions:  reading from 'jdft.wfns'
----- createFluidSolver() ----- (Fluid-side solver setup)
   Initializing fluid molecule 'H2O'
     Initializing site 'O'
       Electron density: proportional to exp(-r/0.36935)*erfc((r-0.51523)/0.36823) with norm 6.826
       Charge density: gaussian nuclear width 0.478731 with net site charge 0.826
       Polarizability: cuspless exponential with width 0.32 and norm 3.73
       Hard sphere radius: 2.57003 bohrs
       Positions in reference frame:
         [ +0.000000 +0.000000 +0.000000 ]
     Initializing site 'H'
       Electron density: proportional to exp(-r/0.34641)*erfc((r-0)/0.390882) with norm 0.587
       Charge density: gaussian nuclear width 0.377945 with net site charge -0.413
       Polarizability: cuspless exponential with width 0.39 and norm 3.3
       Positions in reference frame:
         [ +0.000000 -1.441945 +1.122523 ]
         [ +0.000000 +1.441945 +1.122523 ]
     Net charge: 0   dipole magnitude: 0.927204
     Initializing spherical shell mfKernel with radius 2.61727 Bohr
     deltaS corrections:
       site 'O': -7.54299
       site 'H': -6.83917
   Initializing fluid molecule 'Na+'
     Initializing site 'Na'
       Electron density: proportional to exp(-r/0.19682)*erfc((r-0.71491)/0.41314) with norm 8.1383
       Charge density: gaussian nuclear width 0.365347 with net site charge -1
       Hard sphere radius: 1.86327 bohrs
       Positions in reference frame:
         [ +0.000000 +0.000000 +0.000000 ]
     Net charge: -1   dipole magnitude: 0
     Initializing gaussian mfKernel with width: 1.55004 Bohr
     deltaS corrections:
       site 'Na': -22.3555
   Initializing fluid molecule 'F-'
     Initializing site 'F'
       Electron density: proportional to exp(-r/0.38886)*erfc((r-0)/0.438782) with norm 8
       Charge density: gaussian nuclear width 0.374796 with net site charge 1
       Hard sphere radius: 2.39995 bohrs
       Positions in reference frame:
         [ +0.000000 +0.000000 +0.000000 ]
     Net charge: 1   dipole magnitude: 0
     Initializing gaussian mfKernel with width: 1.59012 Bohr
     deltaS corrections:
       site 'F': -9.04335

Correction to mu due to finite nuclear width = -0.123085
   Cavity determined by nc: 0.00142 and sigma: 0.707107
   Nonlocal vdW cavity from gaussian model electron density with norm = 8 and sigma = 0.993594 bohr
   Charge asymmetry in cavity with sensitivity pCavity = 36.5 e-bohr/Eh
   Electrostatic cavity expanded by eta = 1.46 bohrs
   Weighted density cavitation model constrained by Nbulk: 0.0049383 bohr^-3, Pvap: 3.14029 kPa, Rvdw: 2.61727 bohr and sigmaBulk: 4.62e-05 Eh/bohr^2 at T: 298 K.
   Weighted density dispersion model using vdW pair potentials with single solvent site with sqrtC6eff: 0.77 SI.
Reading fluid state from 'jdft.fluidState'


---- Citations for features of the code used in this run ----

   Software package:
      R. Sundararaman, K. Letchworth-Weaver, K.A. Schwarz, D. Gunceler, Y. Ozhabes and T.A. Arias, 'JDFTx: software for joint density-functional theory', SoftwareX 6, 278 (2017)

   gga-PBE exchange-correlation functional:
      J.P. Perdew, K. Burke and M. Ernzerhof, Phys. Rev. Lett. 77, 3865 (1996)

   Pseudopotentials:
      KF Garrity, JW Bennett, KM Rabe and D Vanderbilt, Comput. Mater. Sci. 81, 446 (2014)

   DFT-D3 dispersion correction:
      S. Grimme, J. Antony, S. Ehrlich and H. Krieg, J. Chem. Phys. 132, 154104 (2010)

   DFT-D2 dispersion correction:
      S. Grimme, J. Comput. Chem. 27, 1787 (2006)

   Charge-asymmetric nonlocally-determined local-electric (CANDLE) solvation model:
      R. Sundararaman and W.A. Goddard III, J. Chem. Phys. 142, 064107 (2015)

   Total energy minimization with Auxiliary Hamiltonian:
      C. Freysoldt, S. Boeck, and J. Neugebauer, Phys. Rev. B 79, 241103(R) (2009)

   Grand-canonical (fixed-potential) DFT:
      R. Sundararaman, W. A. Goddard III and T. A. Arias, J. Chem. Phys. 146, 114104 (2017)

   Linear-tetrahedron sampling for density of states:
      G. Lehmann and M. Taut, Phys. status solidi (b) 54, 469 (1972)

This list may not be complete. Please suggest additional citations or
report any other bugs at https://github.com/shankar1729/jdftx/issues

Initialization completed successfully at t[s]:     35.57


Computing DFT-D3 correction:
# coordination-number Cu 6.821 8.216 6.854 9.056 9.114 9.155 5.598 9.068 9.142 9.134 9.133 9.145 9.165 9.141 9.072 9.161 9.143 9.158 9.084 6.838 8.999 6.843 8.992 9.069 9.077 9.152 9.163 9.161 6.838 9.135 9.142 9.144 9.136 9.136 9.119 9.073 8.219 9.158 9.147 9.062 6.856 5.597 6.824 6.839
# diagonal-C6 Cu 175.00 175.00 175.00 175.00 175.00 175.00 175.00 175.00 175.00 175.00 175.00 175.00 175.00 175.00 175.00 175.00 175.00 175.00 175.00 175.00 175.00 175.00 175.00 175.00 175.00 175.00 175.00 175.00 175.00 175.00 175.00 175.00 175.00 175.00 175.00 175.00 175.00 175.00 175.00 175.00 175.00 175.00 175.00 175.00
EvdW_6 =   -0.293497
EvdW_8 =   -0.421915
Shifting auxilliary hamiltonian by -0.000028 to set nElectrons=837.511526

-------- Electronic minimization -----------
	Linear fluid (dielectric constant: 78.4, screening length: 8.12261 Bohr) occupying 0.390815 of unit cell:	Completed after 17 iterations at t[s]:     53.92
	FillingsUpdate:  mu: -0.097800000  nElectrons: 837.511526  magneticMoment: [ Abs: 0.00000  Tot: -0.00000 ]
ElecMinimize: Iter:   0  G: -8799.917710012872703  |grad|_K:  7.828e-07  alpha:  1.000e+00
	Linear fluid (dielectric constant: 78.4, screening length: 8.12261 Bohr) occupying 0.403136 of unit cell:	Completed after 34 iterations at t[s]:    204.48
	Linear fluid (dielectric constant: 78.4, screening length: 8.12261 Bohr) occupying 0.390908 of unit cell:	Completed after 31 iterations at t[s]:    254.25
	FillingsUpdate:  mu: -0.097800000  nElectrons: 837.514238  magneticMoment: [ Abs: 0.00000  Tot: +0.00000 ]
	SubspaceRotationAdjust: set factor to 0.533
ElecMinimize: Iter:   1  G: -8799.917713016180642  |grad|_K:  3.172e-07  alpha:  6.694e-03  linmin: -5.307e-03  t[s]:    322.06
	Linear fluid (dielectric constant: 78.4, screening length: 8.12261 Bohr) occupying 0.390908 of unit cell:	Completed after 9 iterations at t[s]:    390.02
ElecMinimize: 	Predicted alpha/alphaT>3.000000, increasing alphaT to 2.008318e-02.
	Linear fluid (dielectric constant: 78.4, screening length: 8.12261 Bohr) occupying 0.390908 of unit cell:	Completed after 10 iterations at t[s]:    436.71
	Linear fluid (dielectric constant: 78.4, screening length: 8.12261 Bohr) occupying 0.390908 of unit cell:	Completed after 2 iterations at t[s]:    482.71
	FillingsUpdate:  mu: -0.097800000  nElectrons: 837.514204  magneticMoment: [ Abs: 0.00000  Tot: +0.00000 ]
	SubspaceRotationAdjust: set factor to 0.282
ElecMinimize: Iter:   2  G: -8799.917714564349808  |grad|_K:  1.622e-07  alpha:  2.114e-02  linmin: -1.573e-04  t[s]:    550.39
	Linear fluid (dielectric constant: 78.4, screening length: 8.12261 Bohr) occupying 0.390851 of unit cell:	Completed after 14 iterations at t[s]:    618.35
	Linear fluid (dielectric constant: 78.4, screening length: 8.12261 Bohr) occupying 0.390873 of unit cell:	Completed after 10 iterations at t[s]:    664.99
	FillingsUpdate:  mu: -0.097800000  nElectrons: 837.513169  magneticMoment: [ Abs: 0.00000  Tot: -0.00000 ]
	SubspaceRotationAdjust: set factor to 0.223
ElecMinimize: Iter:   3  G: -8799.917714787963632  |grad|_K:  4.968e-08  alpha:  1.306e-02  linmin:  2.663e-04  t[s]:    732.94
	Linear fluid (dielectric constant: 78.4, screening length: 8.12261 Bohr) occupying 0.390868 of unit cell:	Completed after 2 iterations at t[s]:    799.46
ElecMinimize: 	Predicted alpha/alphaT>3.000000, increasing alphaT to 3.918868e-02.
	Linear fluid (dielectric constant: 78.4, screening length: 8.12261 Bohr) occupying 0.390860 of unit cell:	Completed after 5 iterations at t[s]:    845.47
	Linear fluid (dielectric constant: 78.4, screening length: 8.12261 Bohr) occupying 0.390848 of unit cell:	Completed after 9 iterations at t[s]:    892.05
	FillingsUpdate:  mu: -0.097800000  nElectrons: 837.512440  magneticMoment: [ Abs: 0.00000  Tot: +0.00000 ]
	SubspaceRotationAdjust: set factor to 0.124
	SubspaceRotationAdjust: resetting CG because factor has changed by 0.123706
	Linear fluid (dielectric constant: 78.4, screening length: 8.12261 Bohr) occupying 0.390848 of unit cell:	Completed after 0 iterations at t[s]:    974.47
ElecMinimize: 	State modified externally: resetting search direction.
ElecMinimize: Iter:   4  G: -8799.917714900284409  |grad|_K:  4.345e-08  alpha:  7.430e-02
	Linear fluid (dielectric constant: 78.4, screening length: 8.12261 Bohr) occupying 0.390868 of unit cell:	Completed after 11 iterations at t[s]:   1109.08
	Linear fluid (dielectric constant: 78.4, screening length: 8.12261 Bohr) occupying 0.390863 of unit cell:	Completed after 4 iterations at t[s]:   1154.99
	FillingsUpdate:  mu: -0.097800000  nElectrons: 837.512871  magneticMoment: [ Abs: 0.00000  Tot: +0.00000 ]
	SubspaceRotationAdjust: set factor to 0.088
ElecMinimize: Iter:   5  G: -8799.917714968070868  |grad|_K:  1.951e-08  alpha:  5.612e-02  linmin:  2.343e-03  t[s]:   1222.65
	Linear fluid (dielectric constant: 78.4, screening length: 8.12261 Bohr) occupying 0.390860 of unit cell:	Completed after 2 iterations at t[s]:   1289.98
ElecMinimize: 	Predicted alpha/alphaT>3.000000, increasing alphaT to 1.683572e-01.
	Linear fluid (dielectric constant: 78.4, screening length: 8.12261 Bohr) occupying 0.390855 of unit cell:	Completed after 2 iterations at t[s]:   1335.73
	Linear fluid (dielectric constant: 78.4, screening length: 8.12261 Bohr) occupying 0.390851 of unit cell:	Completed after 6 iterations at t[s]:   1382.20
	FillingsUpdate:  mu: -0.097800000  nElectrons: 837.512495  magneticMoment: [ Abs: 0.00000  Tot: +0.00000 ]
	SubspaceRotationAdjust: set factor to 0.0881
ElecMinimize: Iter:   6  G: -8799.917715020859760  |grad|_K:  1.824e-08  alpha:  2.391e-01  linmin:  2.515e-04  t[s]:   1450.01
ElecMinimize: Converged (|Delta G|<1.000000e-07 for 2 iters).
Setting wave functions to eigenvectors of Hamiltonian
Converging empty states (this may take a while): |deigs|: 9.457e-09

Computing DFT-D3 correction:
# coordination-number Cu 6.821 8.216 6.854 9.056 9.114 9.155 5.598 9.068 9.142 9.134 9.133 9.145 9.165 9.141 9.072 9.161 9.143 9.158 9.084 6.838 8.999 6.843 8.992 9.069 9.077 9.152 9.163 9.161 6.838 9.135 9.142 9.144 9.136 9.136 9.119 9.073 8.219 9.158 9.147 9.062 6.856 5.597 6.824 6.839
# diagonal-C6 Cu 175.00 175.00 175.00 175.00 175.00 175.00 175.00 175.00 175.00 175.00 175.00 175.00 175.00 175.00 175.00 175.00 175.00 175.00 175.00 175.00 175.00 175.00 175.00 175.00 175.00 175.00 175.00 175.00 175.00 175.00 175.00 175.00 175.00 175.00 175.00 175.00 175.00 175.00 175.00 175.00 175.00 175.00 175.00 175.00
EvdW_6 =   -0.293497
EvdW_8 =   -0.421915

# Ionic positions in cartesian coordinates:
ion Cu   0.000198404207623  14.160685471281067  62.183563282950551 1
ion Cu   0.000097579932034  20.437164526132509  59.399421245736633 1
ion Cu  -0.000028266659583   6.130664867133904  60.782645057376428 1
ion Cu  -0.000014967819723  12.205574050205851  57.838142868374838 1
ion Cu   0.000052397428935  18.332794144477916  54.974024278829987 1
ion Cu   0.000004943856642  16.272735446736789  50.651688913038576 1
ion Cu  -0.000167871147824  22.488437211690389  32.112388270674259 1
ion Cu  -0.000022752404876   4.067248946211573  56.442182496710402 1
ion Cu   4.766680089886552  10.173521347851446  53.534409655538418 1
ion Cu   0.000072258281720   2.031502140524055  52.124916885764279 1
ion Cu  -0.000013844789408   8.130998697548781  49.232998143971784 1
ion Cu   0.000028574840431  14.232725094553036  46.330049941762901 1
ion Cu  -0.000046070721017  20.317495547299636  43.472008198454219 1
ion Cu  -0.000043007443513  12.194910682797918  42.016219660121777 1
ion Cu  -0.000085129687837  18.281723752639543  39.119978648551182 1
ion Cu  -0.000003347381378  22.356146140512983  47.796275862264459 1
ion Cu  -0.000003379485747   6.091800088855505  44.934176452691794 1
ion Cu  -0.000042547471148   4.049612882853549  40.628700373919301 1
ion Cu   0.000019976832423  10.149938647664531  37.729855765285599 1
ion Cu  -0.000031873461296  16.192266026572941  34.740422104862454 1
ion Cu  -0.000074287912268   2.013550609915889  36.366277173330175 1
ion Cu  -0.000040865817580   8.143986254909711  33.363045875295086 1
ion Cu   2.383467378457792  16.280808503542438  58.488357715750318 1
ion Cu   2.383354358654618  22.368592365900948  55.734436164108146 1
ion Cu   2.383259190496215   8.142059861572600  57.125598376358880 1
ion Cu   2.383348588518890  14.242387792211192  54.225680831237852 1
ion Cu   2.383347900084809  20.331441555266828  51.380805513290106 1
ion Cu   2.383282465790157  18.293275062907931  47.056290027352269 1
ion Cu   2.383351996822382   2.100260631006997  60.117429379295750 1
ion Cu   2.383374338997506   6.096482474528702  52.837631296987837 1
ion Cu   2.383318480589946  12.199884239406265  49.919003588998358 1
ion Cu   2.383306838655228   4.058817978621205  48.522644066272846 1
ion Cu   2.383347023667926  10.161471322527994  45.620076600486811 1
ion Cu   2.383255740440861  16.260786603538097  42.728170351671231 1
ion Cu   2.383240594177258  -0.038555191089557  39.880042267299878 1
ion Cu   2.383306804564647  14.224394989446168  38.413036921805947 1
ion Cu   2.383202148389923  20.215273179699114  35.456933993349800 1
ion Cu   2.383315207727647   2.019573880661229  44.201382249360627 1
ion Cu   2.383225276066449   8.119146732467836  41.319925651707486 1
ion Cu   2.383371188616806   6.086639839610276  37.017258184242429 1
ion Cu   2.383292154461148  12.160274555678479  34.074230751709280 1
ion Cu   2.383478413368497  18.162066864239808  62.743730652299774 1
ion Cu   2.383144672551592   4.132825882516848  32.671807587017803 1
ion Cu   2.383338225836532  10.147866297369104  61.493538673891976 1

# Forces in Cartesian coordinates:
force Cu   0.000001169798126   0.000149591206258   0.000316409504848 1
force Cu   0.000001732564349   0.000199043073741   0.000456387868215 1
force Cu   0.000001990780764  -0.000202639195283   0.000268624601885 1
force Cu   0.000001428615903   0.000195816040625  -0.000005079226430 1
force Cu   0.000000302555064   0.000119475656018  -0.000023103680902 1
force Cu   0.000000078659520   0.000119031574142  -0.000016779192344 1
force Cu  -0.000000837119366   0.000114740968677  -0.000077569634120 1
force Cu   0.000001004454083  -0.000012244564811   0.000061743913800 1
force Cu   0.000000605077105   0.000141847530475  -0.000153046906508 1
force Cu  -0.000000574421884   0.000000287384674  -0.000008738845307 1
force Cu   0.000000416368358  -0.000037184959481   0.000117684976867 1
force Cu   0.000000163404044   0.000083773313069  -0.000241652369823 1
force Cu  -0.000000449566608  -0.000086533438417  -0.000152288720117 1
force Cu  -0.000000454173005  -0.000086958706289   0.000023062310078 1
force Cu  -0.000000301546529   0.000031197349838  -0.000113117066809 1
force Cu   0.000000036058853  -0.000011214454756   0.000038826985593 1
force Cu   0.000000098015161  -0.000094204810402  -0.000118044400564 1
force Cu  -0.000000193227456  -0.000153893675560   0.000158563587879 1
force Cu  -0.000000057054442  -0.000003667411342  -0.000066319530984 1
force Cu   0.000000214252273   0.000172178296805  -0.000377017546657 1
force Cu   0.000000297753077  -0.000005909344081   0.000035878435439 1
force Cu  -0.000001598590753  -0.000071555730224  -0.000130148136474 1
force Cu   0.000000855770135   0.000034160057624   0.000044576754953 1
force Cu   0.000000719614223  -0.000005876754417   0.000127102800049 1
force Cu   0.000001897506701   0.000022276969900   0.000130911412544 1
force Cu   0.000001267694859   0.000159869708774  -0.000197652922015 1
force Cu   0.000000236225224   0.000072391655772   0.000051925673525 1
force Cu   0.000000979203696   0.000014162771813  -0.000177270803008 1
force Cu   0.000000607280464  -0.000147291774361   0.000476395617906 1
force Cu  -0.000000640164470   0.000076790057623  -0.000082525461246 1
force Cu   0.000000661107854   0.000078705900140   0.000015904770786 1
force Cu  -0.000000194995355  -0.000097549315841   0.000118419179740 1
force Cu   0.000000723230902   0.000031954472703  -0.000203213881985 1
force Cu  -0.000002060801247   0.000004376207308  -0.000057076276014 1
force Cu  -0.000000251269036  -0.000118267086733   0.000013779659125 1
force Cu  -0.000001048720292   0.000031927710566  -0.000001940460499 1
force Cu  -0.000001398727708  -0.000172461489893  -0.000353411217081 1
force Cu   0.000000828637193  -0.000132772807841  -0.000084852461022 1
force Cu   0.000001577721763  -0.000147906378085   0.000112748243409 1
force Cu  -0.000000487870286  -0.000195068861359   0.000093129538624 1
force Cu   0.000000438433209   0.000212179029130  -0.000170206893082 1
force Cu  -0.000000306484403  -0.000044620102254   0.000148003473911 1
force Cu  -0.000001656534136  -0.000113720728145  -0.000208333927693 1
force Cu   0.000001354232854   0.000104218620210   0.000244163986930 1

# Energy components:
   A_diel =       -0.5049178612499490
   Eewald =    48915.9175501131830970
       EH =    57106.7074794442160055
     Eloc =  -116570.2645481882937020
      Enl =     1611.2997690955928647
     EvdW =       -0.7154126425990425
      Exc =     -854.3093832876784290
 Exc_core =        2.0666318609570569
       KE =      908.1639030751200607
  MuShift =       -0.1861657255871477
-------------------------------------
     Etot =    -8881.8250941163441894
       TS =        0.0013429426587034
-------------------------------------
        F =    -8881.8264370590022736
      muN =      -81.9087220381418462
-------------------------------------
        G =    -8799.9177150208597595


Dumping 'jdft.fillings' ... done
Dumping 'jdft.wfns' ... done
Dumping 'jdft.fluidState' ... done
Dumping 'jdft.ionpos' ... done
Dumping 'jdft.lattice' ... done
Dumping 'jdft.eigenvals' ... done
Dumping 'jdft.eigStats' ... 
	eMin: -4.238849 at state 22 ( [ +0.000000 +0.000000 +0.000000 ] spin -1 )
	HOMO: -0.097882 at state 1 ( [ +0.000000 +0.500000 +0.000000 ] spin 1 )
	mu  : -0.097800
	LUMO: -0.097633 at state 17 ( [ -0.272727 +0.500000 +0.000000 ] spin 1 )
	eMax: +0.292505 at state 24 ( [ +0.090909 +0.000000 +0.000000 ] spin -1 )
	HOMO-LUMO gap: +0.000249
	Optical gap  : +0.000737 at state 17 ( [ -0.272727 +0.500000 +0.000000 ] spin 1 )
Dumping 'jdft.Ecomponents' ... done
IonicMinimize: Iter:   0  G: -8799.917715020859760  |grad|_K:  1.231e-04  t[s]:   1643.95

#--- Lowdin population analysis ---
# oxidation-state Cu -0.065 +0.027 -0.026 +0.066 +0.072 +0.076 -0.007 +0.065 +0.074 +0.076 +0.077 +0.077 +0.076 +0.076 +0.073 +0.077 +0.078 +0.075 +0.066 +0.034 +0.064 -0.040 +0.064 +0.072 +0.066 +0.075 +0.075 +0.077 +0.034 +0.075 +0.078 +0.077 +0.077 +0.076 +0.072 +0.065 +0.027 +0.076 +0.074 +0.066 -0.026 -0.007 -0.065 -0.040
# magnetic-moments Cu -0.000 -0.000 +0.000 -0.000 -0.000 +0.000 -0.000 +0.000 +0.000 -0.000 -0.000 +0.000 +0.000 -0.000 +0.000 +0.000 +0.000 -0.000 -0.000 -0.000 -0.000 -0.000 +0.000 -0.000 +0.000 +0.000 -0.000 +0.000 +0.000 -0.000 +0.000 +0.000 +0.000 -0.000 -0.000 -0.000 -0.000 -0.000 -0.000 +0.000 -0.000 +0.000 +0.000 -0.000


Computing DFT-D3 correction:
# coordination-number Cu 6.821 8.216 6.854 9.055 9.114 9.155 5.599 9.067 9.142 9.134 9.133 9.145 9.165 9.141 9.072 9.161 9.143 9.158 9.083 6.838 8.999 6.843 8.991 9.068 9.076 9.152 9.163 9.161 6.837 9.135 9.141 9.144 9.136 9.137 9.119 9.072 8.219 9.159 9.147 9.061 6.856 5.598 6.824 6.838
# diagonal-C6 Cu 175.00 175.00 175.00 175.00 175.00 175.00 175.00 175.00 175.00 175.00 175.00 175.00 175.00 175.00 175.00 175.00 175.00 175.00 175.00 175.00 175.00 175.00 175.00 175.00 175.00 175.00 175.00 175.00 175.00 175.00 175.00 175.00 175.00 175.00 175.00 175.00 175.00 175.00 175.00 175.00 175.00 175.00 175.00 175.00
EvdW_6 =   -0.293495
EvdW_8 =   -0.421909
Shifting auxilliary hamiltonian by 0.000017 to set nElectrons=837.512495

-------- Electronic minimization -----------
	Linear fluid (dielectric constant: 78.4, screening length: 8.12261 Bohr) occupying 0.390863 of unit cell:	Completed after 17 iterations at t[s]:   1720.07
	FillingsUpdate:  mu: -0.097800000  nElectrons: 837.512495  magneticMoment: [ Abs: 0.00000  Tot: +0.00000 ]
ElecMinimize: Iter:   0  G: -8799.917700040528871  |grad|_K:  5.182e-07  alpha:  1.000e+00
	Linear fluid (dielectric constant: 78.4, screening length: 8.12261 Bohr) occupying 0.388027 of unit cell:	Completed after 27 iterations at t[s]:   1870.68
	Linear fluid (dielectric constant: 78.4, screening length: 8.12261 Bohr) occupying 0.390665 of unit cell:	Completed after 26 iterations at t[s]:   1920.11
	FillingsUpdate:  mu: -0.097800000  nElectrons: 837.506754  magneticMoment: [ Abs: 0.00000  Tot: -0.00000 ]
	SubspaceRotationAdjust: set factor to 0.0628
ElecMinimize: Iter:   1  G: -8799.917711992384284  |grad|_K:  1.369e-07  alpha:  7.086e-02  linmin:  2.311e-03  t[s]:   1987.86
	Linear fluid (dielectric constant: 78.4, screening length: 8.12261 Bohr) occupying 0.390682 of unit cell:	Completed after 10 iterations at t[s]:   2055.79
ElecMinimize: 	Predicted alpha/alphaT>3.000000, increasing alphaT to 2.125678e-01.
	Linear fluid (dielectric constant: 78.4, screening length: 8.12261 Bohr) occupying 0.390716 of unit cell:	Completed after 12 iterations at t[s]:   2103.08
	Linear fluid (dielectric constant: 78.4, screening length: 8.12261 Bohr) occupying 0.390719 of unit cell:	Completed after 2 iterations at t[s]:   2149.26
	FillingsUpdate:  mu: -0.097800000  nElectrons: 837.508394  magneticMoment: [ Abs: 0.00000  Tot: +0.00000 ]
	SubspaceRotationAdjust: set factor to 0.0755
ElecMinimize: Iter:   2  G: -8799.917714599059764  |grad|_K:  8.750e-08  alpha:  2.216e-01  linmin: -1.136e-04  t[s]:   2217.52
	Linear fluid (dielectric constant: 78.4, screening length: 8.12261 Bohr) occupying 0.390738 of unit cell:	Completed after 9 iterations at t[s]:   2284.98
	Linear fluid (dielectric constant: 78.4, screening length: 8.12261 Bohr) occupying 0.390729 of unit cell:	Completed after 5 iterations at t[s]:   2331.10
	FillingsUpdate:  mu: -0.097800000  nElectrons: 837.508708  magneticMoment: [ Abs: 0.00000  Tot: +0.00000 ]
	SubspaceRotationAdjust: set factor to 0.0992
ElecMinimize: Iter:   3  G: -8799.917715169374787  |grad|_K:  4.898e-08  alpha:  1.157e-01  linmin:  7.377e-05  t[s]:   2399.43
	Linear fluid (dielectric constant: 78.4, screening length: 8.12261 Bohr) occupying 0.390737 of unit cell:	Completed after 4 iterations at t[s]:   2466.80
	Linear fluid (dielectric constant: 78.4, screening length: 8.12261 Bohr) occupying 0.390754 of unit cell:	Completed after 5 iterations at t[s]:   2513.35
	FillingsUpdate:  mu: -0.097800000  nElectrons: 837.509499  magneticMoment: [ Abs: 0.00000  Tot: +0.00000 ]
	SubspaceRotationAdjust: set factor to 0.12
ElecMinimize: Iter:   4  G: -8799.917715682920971  |grad|_K:  4.586e-08  alpha:  3.449e-01  linmin:  5.976e-04  t[s]:   2581.24
	Linear fluid (dielectric constant: 78.4, screening length: 8.12261 Bohr) occupying 0.390808 of unit cell:	Completed after 11 iterations at t[s]:   2649.02
	Linear fluid (dielectric constant: 78.4, screening length: 8.12261 Bohr) occupying 0.390780 of unit cell:	Completed after 9 iterations at t[s]:   2695.68
	FillingsUpdate:  mu: -0.097800000  nElectrons: 837.510294  magneticMoment: [ Abs: 0.00000  Tot: +0.00000 ]
	SubspaceRotationAdjust: set factor to 0.124
ElecMinimize: Iter:   5  G: -8799.917715896284790  |grad|_K:  3.894e-08  alpha:  1.676e-01  linmin:  6.379e-05  t[s]:   2764.15
	Linear fluid (dielectric constant: 78.4, screening length: 8.12261 Bohr) occupying 0.390780 of unit cell:	Completed after 10 iterations at t[s]:   2832.06
	Linear fluid (dielectric constant: 78.4, screening length: 8.12261 Bohr) occupying 0.390780 of unit cell:	Completed after 0 iterations at t[s]:   2877.85
	FillingsUpdate:  mu: -0.097800000  nElectrons: 837.510323  magneticMoment: [ Abs: 0.00000  Tot: +0.00000 ]
	SubspaceRotationAdjust: set factor to 0.104
ElecMinimize: Iter:   6  G: -8799.917716045794805  |grad|_K:  3.265e-08  alpha:  1.535e-01  linmin:  7.640e-04  t[s]:   2945.82
	Linear fluid (dielectric constant: 78.4, screening length: 8.12261 Bohr) occupying 0.390805 of unit cell:	Completed after 10 iterations at t[s]:   3014.01
	Linear fluid (dielectric constant: 78.4, screening length: 8.12261 Bohr) occupying 0.390800 of unit cell:	Completed after 2 iterations at t[s]:   3060.43
	FillingsUpdate:  mu: -0.097800000  nElectrons: 837.510891  magneticMoment: [ Abs: 0.00000  Tot: +0.00000 ]
	SubspaceRotationAdjust: set factor to 0.0749
ElecMinimize: Iter:   7  G: -8799.917716122139609  |grad|_K:  3.121e-08  alpha:  1.199e-01  linmin:  3.258e-04  t[s]:   3128.69
	Linear fluid (dielectric constant: 78.4, screening length: 8.12261 Bohr) occupying 0.390802 of unit cell:	Completed after 5 iterations at t[s]:   3195.74
	Linear fluid (dielectric constant: 78.4, screening length: 8.12261 Bohr) occupying 0.390803 of unit cell:	Completed after 7 iterations at t[s]:   3242.20
	FillingsUpdate:  mu: -0.097800000  nElectrons: 837.510999  magneticMoment: [ Abs: 0.00000  Tot: +0.00000 ]
	SubspaceRotationAdjust: set factor to 0.066
ElecMinimize: Iter:   8  G: -8799.917716262663816  |grad|_K:  2.653e-08  alpha:  2.246e-01  linmin: -4.935e-04  t[s]:   3310.40
	Linear fluid (dielectric constant: 78.4, screening length: 8.12261 Bohr) occupying 0.390814 of unit cell:	Completed after 2 iterations at t[s]:   3377.24
	Linear fluid (dielectric constant: 78.4, screening length: 8.12261 Bohr) occupying 0.390810 of unit cell:	Completed after 1 iterations at t[s]:   3422.84
	FillingsUpdate:  mu: -0.097800000  nElectrons: 837.511181  magneticMoment: [ Abs: 0.00000  Tot: +0.00000 ]
	SubspaceRotationAdjust: set factor to 0.0759
ElecMinimize: Iter:   9  G: -8799.917716324665889  |grad|_K:  1.750e-08  alpha:  1.318e-01  linmin:  1.558e-04  t[s]:   3490.65
	Linear fluid (dielectric constant: 78.4, screening length: 8.12261 Bohr) occupying 0.390816 of unit cell:	Completed after 2 iterations at t[s]:   3557.14
	Linear fluid (dielectric constant: 78.4, screening length: 8.12261 Bohr) occupying 0.390820 of unit cell:	Completed after 2 iterations at t[s]:   3602.95
	FillingsUpdate:  mu: -0.097800000  nElectrons: 837.511459  magneticMoment: [ Abs: 0.00000  Tot: +0.00000 ]
	SubspaceRotationAdjust: set factor to 0.0769
ElecMinimize: Iter:  10  G: -8799.917716369196569  |grad|_K:  1.902e-08  alpha:  2.279e-01  linmin: -3.593e-04  t[s]:   3671.00
ElecMinimize: Converged (|Delta G|<1.000000e-07 for 2 iters).
Setting wave functions to eigenvectors of Hamiltonian
Converging empty states (this may take a while): |deigs|: 2.828e-09

Computing DFT-D3 correction:
# coordination-number Cu 6.821 8.216 6.854 9.055 9.114 9.155 5.599 9.067 9.142 9.134 9.133 9.145 9.165 9.141 9.072 9.161 9.143 9.158 9.083 6.838 8.999 6.843 8.991 9.068 9.076 9.152 9.163 9.161 6.837 9.135 9.141 9.144 9.136 9.137 9.119 9.072 8.219 9.159 9.147 9.061 6.856 5.598 6.824 6.838
# diagonal-C6 Cu 175.00 175.00 175.00 175.00 175.00 175.00 175.00 175.00 175.00 175.00 175.00 175.00 175.00 175.00 175.00 175.00 175.00 175.00 175.00 175.00 175.00 175.00 175.00 175.00 175.00 175.00 175.00 175.00 175.00 175.00 175.00 175.00 175.00 175.00 175.00 175.00 175.00 175.00 175.00 175.00 175.00 175.00 175.00 175.00
EvdW_6 =   -0.293495
EvdW_8 =   -0.421909

# Ionic positions in cartesian coordinates:
ion Cu   0.000199365511459  14.160829870351726  62.183878900325048 1
ion Cu   0.000099104002093  20.437358377070652  59.399876841474494 1
ion Cu  -0.000026484373109   6.130457035803023  60.782912889847964 1
ion Cu  -0.000013747698110  12.205764674110876  57.838136997018054 1
ion Cu   0.000052491489708  18.332908427998337  54.974000383018733 1
ion Cu   0.000004814021872  16.272849286175333  50.651671341715883 1
ion Cu  -0.000168916761481  22.488546760523469  32.112309908909793 1
ion Cu  -0.000021956445084   4.067231509511164  56.442243448493855 1
ion Cu   4.766680486469365  10.173658003246326  53.534255816501563 1
ion Cu   0.000071475365545   2.031497235773131  52.124907354788625 1
ion Cu  -0.000013636915340   8.130956320453702  49.233115036818305 1
ion Cu   0.000028529750185  14.232803675730507  46.329807497262728 1
ion Cu  -0.000046728781915  20.317403821725623  43.471855117603752 1
ion Cu  -0.000043670110808  12.194818531956031  42.016241930301504 1
ion Cu  -0.000085639728656  18.281749757853785  39.119864739354014 1
ion Cu  -0.000003519816816  22.356129733922629  47.796313897119695 1
ion Cu  -0.000003489964877   6.091700691909505  44.934057616160878 1
ion Cu  -0.000042949192895   4.049453797042391  40.628858145376832 1
ion Cu   0.000019711283691  10.149929788117591  37.729788653624269 1
ion Cu  -0.000031867703313  16.192433012734146  34.740044295185442 1
ion Cu  -0.000074198653481   2.013539508436210  36.366312259635258 1
ion Cu  -0.000042672902624   8.143909507043888  33.362914935028257 1
ion Cu   2.383468025733637  16.280837471464466  58.488401500374920 1
ion Cu   2.383354869774551  22.368581297010934  55.734562474777846 1
ion Cu   2.383260879508625   8.142076946406901  57.125728495641077 1
ion Cu   2.383349647719458  14.242542469784366  54.225482386185490 1
ion Cu   2.383347927815742  20.331508754787002  51.380856646833273 1
ion Cu   2.383283236499562  18.293284033544147  47.056111964418911 1
ion Cu   2.383352395608556   2.100108147097039  60.117904982783308 1
ion Cu   2.383373490338744   6.096554072450727  52.837547979396241 1
ion Cu   2.383318933203510  12.199957753170807  49.919018701638791 1
ion Cu   2.383306435165582   4.058715237169766  48.522761693322231 1
ion Cu   2.383347538404537  10.161498084865100  45.619872594474472 1
ion Cu   2.383253471145323  16.260785787609805  42.728112483264866 1
ion Cu   2.383240134413931  -0.038678650311888  39.880055254828655 1
ion Cu   2.383305547350065  14.224421725021134  38.413034189215104 1
ion Cu   2.383200541167924  20.215095526073622  35.456579790002365 1
ion Cu   2.383315827870549   2.019435915717791  44.201296604769254 1
ion Cu   2.383226645293921   8.118993633954153  41.320037607820545 1
ion Cu   2.383370492252229   6.086439578613319  37.017350521650705 1
ion Cu   2.383292384400066  12.160481542572011  34.074059752685848 1
ion Cu   2.383477898389803  18.162017052001957  62.743877863643334 1
ion Cu   2.383142807523165   4.132706969653104  32.671598460959757 1
ion Cu   2.383339371575095  10.147965323853716  61.493782045748553 1

# Forces in Cartesian coordinates:
force Cu   0.000001423102727   0.000176390432612   0.000251059344935 1
force Cu   0.000001888637226   0.000129212966217   0.000297479027775 1
force Cu   0.000002186329550  -0.000129237919173   0.000137984094113 1
force Cu   0.000001582492941   0.000177867491723  -0.000228945638915 1
force Cu   0.000000295068374   0.000098952036001  -0.000118479115705 1
force Cu   0.000000057831222   0.000160582929785   0.000032797473848 1
force Cu  -0.000000984663113   0.000048491554328  -0.000087309735910 1
force Cu   0.000001096378531   0.000024770947854  -0.000124974237153 1
force Cu   0.000000667646018   0.000143147851593  -0.000156405181797 1
force Cu  -0.000000686716183  -0.000004642447979  -0.000001836711382 1
force Cu   0.000000443464421  -0.000043974870071   0.000180098951730 1
force Cu   0.000000162069048   0.000104151670229  -0.000200712822996 1
force Cu  -0.000000522042761  -0.000093075102255  -0.000097100909321 1
force Cu  -0.000000547893531  -0.000060102146392   0.000075947239345 1
force Cu  -0.000000356227190   0.000056123667586   0.000034421692982 1
force Cu   0.000000047596686  -0.000017042017717   0.000121214393575 1
force Cu   0.000000150638896  -0.000115221028438  -0.000039793719740 1
force Cu  -0.000000259592017  -0.000161941087374   0.000258849093539 1
force Cu  -0.000000042474260  -0.000010209032697   0.000029002547413 1
force Cu   0.000000195345926   0.000140310867760  -0.000341050811245 1
force Cu   0.000000338182607  -0.000083260491587   0.000182297264143 1
force Cu  -0.000001797801990   0.000023358389473  -0.000088956442065 1
force Cu   0.000000925693979   0.000090909437011  -0.000201483992953 1
force Cu   0.000000761063910  -0.000046980166391  -0.000054352191535 1
force Cu   0.000002172601508   0.000034538884897  -0.000030113665071 1
force Cu   0.000001361101861   0.000169373467052  -0.000266862263050 1
force Cu   0.000000181751806   0.000081729449634   0.000090010597452 1
force Cu   0.000001100609821   0.000017063835895  -0.000129937374071 1
force Cu   0.000000604275174  -0.000110318316032   0.000325843210304 1
force Cu  -0.000000738048441   0.000058588156381  -0.000079940863878 1
force Cu   0.000000688486165   0.000105997575292   0.000053692325316 1
force Cu  -0.000000238141860  -0.000115176930000   0.000205925707028 1
force Cu   0.000000744294337   0.000032908939592  -0.000149443134657 1
force Cu  -0.000002329492295   0.000016266961607   0.000007878019514 1
force Cu  -0.000000280274834  -0.000115431933527   0.000107266676191 1
force Cu  -0.000001176335362  -0.000012387654292   0.000134067572646 1
force Cu  -0.000001625395089  -0.000114384220061  -0.000312019862589 1
force Cu   0.000000893058112  -0.000164761731491  -0.000022314203692 1
force Cu   0.000001750849318  -0.000138558804723   0.000160547888761 1
force Cu  -0.000000595415412  -0.000168876181942   0.000241213536556 1
force Cu   0.000000539406430   0.000148764776742  -0.000147417144691 1
force Cu  -0.000000371859420   0.000006437500718   0.000076392136013 1
force Cu  -0.000001917637048  -0.000133053150166  -0.000248772792448 1
force Cu   0.000001508694383   0.000025474758373   0.000081992851694 1

# Energy components:
   A_diel =       -0.5044202834459288
   Eewald =    48914.6166779937775573
       EH =    57105.4794968025744311
     Eloc =  -116567.7405150919948937
      Enl =     1611.3044257325141189
     EvdW =       -0.7154037233582835
      Exc =     -854.3103520200809271
 Exc_core =        2.0666319681080205
       KE =      908.1645031390611393
  MuShift =       -0.1860381776168874
-------------------------------------
     Etot =    -8881.8249936604606773
       TS =        0.0013434008552268
-------------------------------------
        F =    -8881.8263370613167353
      muN =      -81.9086206921198539
-------------------------------------
        G =    -8799.9177163691965688


Dumping 'jdft.fillings' ... done
Dumping 'jdft.wfns' ... done
Dumping 'jdft.fluidState' ... done
Dumping 'jdft.ionpos' ... done
Dumping 'jdft.lattice' ... done
Dumping 'jdft.eigenvals' ... done
Dumping 'jdft.eigStats' ... 
	eMin: -4.238762 at state 0 ( [ +0.000000 +0.000000 +0.000000 ] spin 1 )
	HOMO: -0.097861 at state 23 ( [ +0.000000 +0.500000 +0.000000 ] spin -1 )
	mu  : -0.097800
	LUMO: -0.097591 at state 29 ( [ +0.272727 +0.500000 +0.000000 ] spin -1 )
	eMax: +0.292570 at state 20 ( [ -0.090909 +0.000000 +0.000000 ] spin 1 )
	HOMO-LUMO gap: +0.000269
	Optical gap  : +0.000739 at state 39 ( [ -0.272727 +0.500000 +0.000000 ] spin -1 )
Dumping 'jdft.Ecomponents' ... done
IonicMinimize: Iter:   1  G: -8799.917716369196569  |grad|_K:  1.143e-04  alpha:  1.000e+00  linmin: -8.527e-01  t[s]:   3864.97

#--- Lowdin population analysis ---
# oxidation-state Cu -0.066 +0.027 -0.026 +0.066 +0.072 +0.077 -0.007 +0.065 +0.074 +0.076 +0.077 +0.078 +0.076 +0.076 +0.073 +0.077 +0.078 +0.075 +0.066 +0.034 +0.064 -0.040 +0.064 +0.072 +0.066 +0.075 +0.076 +0.077 +0.033 +0.076 +0.078 +0.078 +0.077 +0.076 +0.073 +0.065 +0.027 +0.077 +0.075 +0.066 -0.026 -0.007 -0.066 -0.041
# magnetic-moments Cu +0.000 -0.000 -0.000 -0.000 +0.000 +0.000 -0.000 +0.000 -0.000 -0.000 +0.000 -0.000 +0.000 -0.000 +0.000 +0.000 -0.000 -0.000 -0.000 +0.000 +0.000 -0.000 +0.000 +0.000 -0.000 -0.000 +0.000 +0.000 +0.000 +0.000 -0.000 +0.000 +0.000 +0.000 +0.000 -0.000 -0.000 -0.000 +0.000 +0.000 +0.000 +0.000 +0.000 -0.000


Computing DFT-D3 correction:
# coordination-number Cu 6.817 8.212 6.849 9.048 9.114 9.156 5.601 9.060 9.141 9.136 9.130 9.144 9.169 9.143 9.070 9.160 9.142 9.161 9.076 6.835 8.994 6.836 8.986 9.065 9.068 9.153 9.165 9.161 6.834 9.136 9.139 9.144 9.133 9.140 9.121 9.066 8.216 9.160 9.147 9.055 6.851 5.600 6.820 6.830
# diagonal-C6 Cu 175.00 175.00 175.00 175.00 175.00 175.00 175.00 175.00 175.00 175.00 175.00 175.00 175.00 175.00 175.00 175.00 175.00 175.00 175.00 175.00 175.00 175.00 175.00 175.00 175.00 175.00 175.00 175.00 175.00 175.00 175.00 175.00 175.00 175.00 175.00 175.00 175.00 175.00 175.00 175.00 175.00 175.00 175.00 175.00
EvdW_6 =   -0.293484
EvdW_8 =   -0.421866
Shifting auxilliary hamiltonian by -0.000026 to set nElectrons=837.511459

-------- Electronic minimization -----------
	Linear fluid (dielectric constant: 78.4, screening length: 8.12261 Bohr) occupying 0.390754 of unit cell:	Completed after 15 iterations at t[s]:   3941.40
	FillingsUpdate:  mu: -0.097800000  nElectrons: 837.511459  magneticMoment: [ Abs: 0.00000  Tot: +0.00000 ]
ElecMinimize: Iter:   0  G: -8799.917687352950452  |grad|_K:  3.424e-07  alpha:  1.000e+00
	Linear fluid (dielectric constant: 78.4, screening length: 8.12261 Bohr) occupying 0.391463 of unit cell:	Completed after 23 iterations at t[s]:   4090.80
	Linear fluid (dielectric constant: 78.4, screening length: 8.12261 Bohr) occupying 0.390840 of unit cell:	Completed after 23 iterations at t[s]:   4140.06
	FillingsUpdate:  mu: -0.097800000  nElectrons: 837.513994  magneticMoment: [ Abs: 0.00000  Tot: +0.00000 ]
	SubspaceRotationAdjust: set factor to 0.0697
ElecMinimize: Iter:   1  G: -8799.917696461536252  |grad|_K:  2.217e-07  alpha:  1.209e-01  linmin: -1.041e-04  t[s]:   4207.90
	Linear fluid (dielectric constant: 78.4, screening length: 8.12261 Bohr) occupying 0.390814 of unit cell:	Completed after 12 iterations at t[s]:   4276.10
	Linear fluid (dielectric constant: 78.4, screening length: 8.12261 Bohr) occupying 0.390785 of unit cell:	Completed after 12 iterations at t[s]:   4323.39
	FillingsUpdate:  mu: -0.097800000  nElectrons: 837.512396  magneticMoment: [ Abs: 0.00000  Tot: +0.00000 ]
	SubspaceRotationAdjust: set factor to 0.0668
ElecMinimize: Iter:   2  G: -8799.917704574805612  |grad|_K:  1.610e-07  alpha:  2.562e-01  linmin: -1.245e-04  t[s]:   4391.23
	Linear fluid (dielectric constant: 78.4, screening length: 8.12261 Bohr) occupying 0.390800 of unit cell:	Completed after 12 iterations at t[s]:   4459.01
	Linear fluid (dielectric constant: 78.4, screening length: 8.12261 Bohr) occupying 0.390795 of unit cell:	Completed after 5 iterations at t[s]:   4505.28
	FillingsUpdate:  mu: -0.097800000  nElectrons: 837.512713  magneticMoment: [ Abs: 0.00000  Tot: +0.00000 ]
	SubspaceRotationAdjust: set factor to 0.0757
ElecMinimize: Iter:   3  G: -8799.917707522556157  |grad|_K:  1.238e-07  alpha:  1.768e-01  linmin:  1.855e-05  t[s]:   4573.13
	Linear fluid (dielectric constant: 78.4, screening length: 8.12261 Bohr) occupying 0.390794 of unit cell:	Completed after 7 iterations at t[s]:   4640.62
	Linear fluid (dielectric constant: 78.4, screening length: 8.12261 Bohr) occupying 0.390794 of unit cell:	Completed after 2 iterations at t[s]:   4686.41
	FillingsUpdate:  mu: -0.097800000  nElectrons: 837.512677  magneticMoment: [ Abs: 0.00000  Tot: +0.00000 ]
	SubspaceRotationAdjust: set factor to 0.0984
ElecMinimize: Iter:   4  G: -8799.917709167764770  |grad|_K:  8.240e-08  alpha:  1.675e-01  linmin: -2.542e-05  t[s]:   4754.28
	Linear fluid (dielectric constant: 78.4, screening length: 8.12261 Bohr) occupying 0.390800 of unit cell:	Completed after 5 iterations at t[s]:   4821.27
	Linear fluid (dielectric constant: 78.4, screening length: 8.12261 Bohr) occupying 0.390808 of unit cell:	Completed after 9 iterations at t[s]:   4868.13
	FillingsUpdate:  mu: -0.097800000  nElectrons: 837.513128  magneticMoment: [ Abs: 0.00000  Tot: +0.00000 ]
	SubspaceRotationAdjust: set factor to 0.108
ElecMinimize: Iter:   5  G: -8799.917710879415608  |grad|_K:  1.191e-07  alpha:  3.953e-01  linmin:  7.290e-05  t[s]:   4935.88
	Linear fluid (dielectric constant: 78.4, screening length: 8.12261 Bohr) occupying 0.390808 of unit cell:	Completed after 9 iterations at t[s]:   5003.54
	Linear fluid (dielectric constant: 78.4, screening length: 8.12261 Bohr) occupying 0.390808 of unit cell:	Completed after 7 iterations at t[s]:   5050.01
	FillingsUpdate:  mu: -0.097800000  nElectrons: 837.513158  magneticMoment: [ Abs: 0.00000  Tot: +0.00000 ]
	SubspaceRotationAdjust: set factor to 0.142
ElecMinimize: Iter:   6  G: -8799.917712453367130  |grad|_K:  9.391e-08  alpha:  1.745e-01  linmin:  6.793e-06  t[s]:   5117.85
	Linear fluid (dielectric constant: 78.4, screening length: 8.12261 Bohr) occupying 0.390810 of unit cell:	Completed after 9 iterations at t[s]:   5186.20
	Linear fluid (dielectric constant: 78.4, screening length: 8.12261 Bohr) occupying 0.390812 of unit cell:	Completed after 5 iterations at t[s]:   5232.52
	FillingsUpdate:  mu: -0.097800000  nElectrons: 837.513280  magneticMoment: [ Abs: 0.00000  Tot: +0.00000 ]
	SubspaceRotationAdjust: set factor to 0.158
ElecMinimize: Iter:   7  G: -8799.917714040637293  |grad|_K:  1.290e-07  alpha:  2.802e-01  linmin: -1.955e-05  t[s]:   5300.17
	Linear fluid (dielectric constant: 78.4, screening length: 8.12261 Bohr) occupying 0.390809 of unit cell:	Completed after 11 iterations at t[s]:   5368.12
	Linear fluid (dielectric constant: 78.4, screening length: 8.12261 Bohr) occupying 0.390809 of unit cell:	Completed after 5 iterations at t[s]:   5414.16
	FillingsUpdate:  mu: -0.097800000  nElectrons: 837.513211  magneticMoment: [ Abs: 0.00000  Tot: +0.00000 ]
	SubspaceRotationAdjust: set factor to 0.176
ElecMinimize: Iter:   8  G: -8799.917716401076177  |grad|_K:  1.150e-07  alpha:  2.204e-01  linmin:  4.015e-07  t[s]:   5482.10
	Linear fluid (dielectric constant: 78.4, screening length: 8.12261 Bohr) occupying 0.390772 of unit cell:	Completed after 13 iterations at t[s]:   5550.18
	Linear fluid (dielectric constant: 78.4, screening length: 8.12261 Bohr) occupying 0.390766 of unit cell:	Completed after 4 iterations at t[s]:   5596.25
	FillingsUpdate:  mu: -0.097800000  nElectrons: 837.511930  magneticMoment: [ Abs: 0.00000  Tot: +0.00000 ]
	SubspaceRotationAdjust: set factor to 0.184
ElecMinimize: Iter:   9  G: -8799.917718547789264  |grad|_K:  1.481e-07  alpha:  2.528e-01  linmin: -2.330e-05  t[s]:   5664.16
	Linear fluid (dielectric constant: 78.4, screening length: 8.12261 Bohr) occupying 0.390872 of unit cell:	Completed after 16 iterations at t[s]:   5732.55
	Linear fluid (dielectric constant: 78.4, screening length: 8.12261 Bohr) occupying 0.390812 of unit cell:	Completed after 15 iterations at t[s]:   5779.97
	FillingsUpdate:  mu: -0.097800000  nElectrons: 837.513223  magneticMoment: [ Abs: 0.00000  Tot: -0.00000 ]
	SubspaceRotationAdjust: set factor to 0.129
ElecMinimize: Iter:  10  G: -8799.917720108382127  |grad|_K:  1.380e-07  alpha:  1.086e-01  linmin: -6.901e-06  t[s]:   5847.70
	Linear fluid (dielectric constant: 78.4, screening length: 8.12261 Bohr) occupying 0.390751 of unit cell:	Completed after 14 iterations at t[s]:   5915.81
	Linear fluid (dielectric constant: 78.4, screening length: 8.12261 Bohr) occupying 0.390765 of unit cell:	Completed after 7 iterations at t[s]:   5962.41
	FillingsUpdate:  mu: -0.097800000  nElectrons: 837.511827  magneticMoment: [ Abs: 0.00000  Tot: -0.00000 ]
	SubspaceRotationAdjust: set factor to 0.0982
ElecMinimize: Iter:  11  G: -8799.917721126845208  |grad|_K:  9.516e-08  alpha:  8.321e-02  linmin:  3.675e-05  t[s]:   6030.41
	Linear fluid (dielectric constant: 78.4, screening length: 8.12261 Bohr) occupying 0.390768 of unit cell:	Completed after 7 iterations at t[s]:   6097.55
	Linear fluid (dielectric constant: 78.4, screening length: 8.12261 Bohr) occupying 0.390774 of unit cell:	Completed after 10 iterations at t[s]:   6144.39
	FillingsUpdate:  mu: -0.097800000  nElectrons: 837.512036  magneticMoment: [ Abs: 0.00000  Tot: +0.00000 ]
	SubspaceRotationAdjust: set factor to 0.102
ElecMinimize: Iter:  12  G: -8799.917722509182568  |grad|_K:  9.405e-08  alpha:  2.362e-01  linmin: -6.830e-05  t[s]:   6212.35
	Linear fluid (dielectric constant: 78.4, screening length: 8.12261 Bohr) occupying 0.390786 of unit cell:	Completed after 9 iterations at t[s]:   6279.86
	Linear fluid (dielectric constant: 78.4, screening length: 8.12261 Bohr) occupying 0.390782 of unit cell:	Completed after 5 iterations at t[s]:   6326.15
	FillingsUpdate:  mu: -0.097800000  nElectrons: 837.512211  magneticMoment: [ Abs: 0.00000  Tot: +0.00000 ]
	SubspaceRotationAdjust: set factor to 0.101
ElecMinimize: Iter:  13  G: -8799.917723395661596  |grad|_K:  6.714e-08  alpha:  1.536e-01  linmin:  1.092e-05  t[s]:   6393.90
	Linear fluid (dielectric constant: 78.4, screening length: 8.12261 Bohr) occupying 0.390766 of unit cell:	Completed after 10 iterations at t[s]:   6461.65
	Linear fluid (dielectric constant: 78.4, screening length: 8.12261 Bohr) occupying 0.390766 of unit cell:	Completed after 0 iterations at t[s]:   6507.19
	FillingsUpdate:  mu: -0.097800000  nElectrons: 837.511680  magneticMoment: [ Abs: 0.00000  Tot: -0.00000 ]
	SubspaceRotationAdjust: set factor to 0.0888
ElecMinimize: Iter:  14  G: -8799.917723848562673  |grad|_K:  5.468e-08  alpha:  1.571e-01  linmin: -1.051e-04  t[s]:   6575.00
	Linear fluid (dielectric constant: 78.4, screening length: 8.12261 Bohr) occupying 0.390786 of unit cell:	Completed after 10 iterations at t[s]:   6643.79
	Linear fluid (dielectric constant: 78.4, screening length: 8.12261 Bohr) occupying 0.390783 of unit cell:	Completed after 2 iterations at t[s]:   6689.78
	FillingsUpdate:  mu: -0.097800000  nElectrons: 837.512140  magneticMoment: [ Abs: 0.00000  Tot: +0.00000 ]
	SubspaceRotationAdjust: set factor to 0.069
ElecMinimize: Iter:  15  G: -8799.917724110477138  |grad|_K:  3.825e-08  alpha:  1.347e-01  linmin:  2.236e-04  t[s]:   6757.71
	Linear fluid (dielectric constant: 78.4, screening length: 8.12261 Bohr) occupying 0.390779 of unit cell:	Completed after 5 iterations at t[s]:   6824.81
	Linear fluid (dielectric constant: 78.4, screening length: 8.12261 Bohr) occupying 0.390777 of unit cell:	Completed after 2 iterations at t[s]:   6870.65
	FillingsUpdate:  mu: -0.097800000  nElectrons: 837.511940  magneticMoment: [ Abs: 0.00000  Tot: +0.00000 ]
	SubspaceRotationAdjust: set factor to 0.0702
ElecMinimize: Iter:  16  G: -8799.917724276003355  |grad|_K:  3.373e-08  alpha:  1.782e-01  linmin: -4.115e-04  t[s]:   6939.24
	Linear fluid (dielectric constant: 78.4, screening length: 8.12261 Bohr) occupying 0.390772 of unit cell:	Completed after 7 iterations at t[s]:   7006.32
	Linear fluid (dielectric constant: 78.4, screening length: 8.12261 Bohr) occupying 0.390774 of unit cell:	Completed after 0 iterations at t[s]:   7051.61
	FillingsUpdate:  mu: -0.097800000  nElectrons: 837.511806  magneticMoment: [ Abs: 0.00000  Tot: +0.00000 ]
	SubspaceRotationAdjust: set factor to 0.0729
ElecMinimize: Iter:  17  G: -8799.917724377590275  |grad|_K:  2.431e-08  alpha:  1.349e-01  linmin:  4.986e-04  t[s]:   7119.52
	Linear fluid (dielectric constant: 78.4, screening length: 8.12261 Bohr) occupying 0.390783 of unit cell:	Completed after 5 iterations at t[s]:   7186.35
	Linear fluid (dielectric constant: 78.4, screening length: 8.12261 Bohr) occupying 0.390782 of unit cell:	Completed after 0 iterations at t[s]:   7231.93
	FillingsUpdate:  mu: -0.097800000  nElectrons: 837.512037  magneticMoment: [ Abs: 0.00000  Tot: +0.00000 ]
	SubspaceRotationAdjust: set factor to 0.063
ElecMinimize: Iter:  18  G: -8799.917724423017717  |grad|_K:  1.872e-08  alpha:  1.242e-01  linmin: -1.064e-03  t[s]:   7299.70
	Linear fluid (dielectric constant: 78.4, screening length: 8.12261 Bohr) occupying 0.390783 of unit cell:	Completed after 2 iterations at t[s]:   7366.21
	Linear fluid (dielectric constant: 78.4, screening length: 8.12261 Bohr) occupying 0.390784 of unit cell:	Completed after 0 iterations at t[s]:   7411.72
	FillingsUpdate:  mu: -0.097800000  nElectrons: 837.512061  magneticMoment: [ Abs: 0.00000  Tot: +0.00000 ]
	SubspaceRotationAdjust: set factor to 0.0771
ElecMinimize: Iter:  19  G: -8799.917724466269647  |grad|_K:  1.631e-08  alpha:  1.842e-01  linmin: -1.564e-03  t[s]:   7479.37
ElecMinimize: Converged (|Delta G|<1.000000e-07 for 2 iters).
Setting wave functions to eigenvectors of Hamiltonian
Converging empty states (this may take a while): |deigs|: 5.095e-09

Computing DFT-D3 correction:
# coordination-number Cu 6.817 8.212 6.849 9.048 9.114 9.156 5.601 9.060 9.141 9.136 9.130 9.144 9.169 9.143 9.070 9.160 9.142 9.161 9.076 6.835 8.994 6.836 8.986 9.065 9.068 9.153 9.165 9.161 6.834 9.136 9.139 9.144 9.133 9.140 9.121 9.066 8.216 9.160 9.147 9.055 6.851 5.600 6.820 6.830
# diagonal-C6 Cu 175.00 175.00 175.00 175.00 175.00 175.00 175.00 175.00 175.00 175.00 175.00 175.00 175.00 175.00 175.00 175.00 175.00 175.00 175.00 175.00 175.00 175.00 175.00 175.00 175.00 175.00 175.00 175.00 175.00 175.00 175.00 175.00 175.00 175.00 175.00 175.00 175.00 175.00 175.00 175.00 175.00 175.00 175.00 175.00
EvdW_6 =   -0.293484
EvdW_8 =   -0.421866

# Ionic positions in cartesian coordinates:
ion Cu   0.000208543113509  14.162169135279735  62.186367403428683 1
ion Cu   0.000112776932198  20.438775757318076  59.403233894962682 1
ion Cu  -0.000010446307455   6.128931431926866  60.784755095651974 1
ion Cu  -0.000002699512054  12.207340923985335  57.837287353600090 1
ion Cu   0.000053264321410  18.333818161074266  54.973457826298912 1
ion Cu   0.000003611226178  16.273978521255806  50.651704725621627 1
ion Cu  -0.000178459835956  22.489251223953637  32.111606515303571 1
ion Cu  -0.000014782965239   4.067214204205045  56.442102766116761 1
ion Cu   4.766684115901574  10.174838862330930  53.532925561030474 1
ion Cu   0.000064320800948   2.031436918741830  52.124856433143378 1
ion Cu  -0.000011759790723   8.130566693327767  49.234352274397850 1
ion Cu   0.000028126692953  14.233553181334266  46.327873762037498 1
ion Cu  -0.000052665152429  20.316590221980970  43.470742019282859 1
ion Cu  -0.000049722570360  12.194121426681994  42.016630231663349 1
ion Cu  -0.000090237697983  18.282062972767751  39.119421137694530 1
ion Cu  -0.000004972940269  22.355967162066779  47.796944064661453 1
ion Cu  -0.000004261861948   6.090768970806828  44.933322316922869 1
ion Cu  -0.000046656623992   4.048054842151327  40.630583576657962 1
ion Cu   0.000017467446695  10.149829623584889  37.729560096918895 1
ion Cu  -0.000031896198654  16.193755677904782  34.736927242933440 1
ion Cu  -0.000073294777697   2.013165292618895  36.367147405607227 1
ion Cu  -0.000058957747615   8.143589862387833  33.361942102642715 1
ion Cu   2.383473839968107  16.281290682710765  58.487899522215578 1
ion Cu   2.383359409334052  22.368337769194088  55.735003434845915 1
ion Cu   2.383276400711630   8.142267798957896  57.126275746063342 1
ion Cu   2.383359092904503  14.243908004079165  54.223531184767936 1
ion Cu   2.383347960537904  20.332120549700193  51.381440201775298 1
ion Cu   2.383290298651572  18.293371349646794  47.054755525375384 1
ion Cu   2.383355808096190   2.098928001544255  60.121464356686651 1
ion Cu   2.383365821606970   6.097104656647629  52.836846258806737 1
ion Cu   2.383322918428250  12.200688502725299  49.919291064781916 1
ion Cu   2.383302796044685   4.057766912628780  48.524095526764604 1
ion Cu   2.383352035758810  10.161731575400463  45.618315957845219 1
ion Cu   2.383232956933603  16.260821188231475  42.727854253077297 1
ion Cu   2.383236061678385  -0.039731726200453  39.880509710152992 1
ion Cu   2.383294254194241  14.224492119195999  38.413506278787736 1
ion Cu   2.383185878265651  20.213774606421712  35.453685492438240 1
ion Cu   2.383321388706238   2.018132667259020  44.200790543407102 1
ion Cu   2.383239046463901   8.117708808130891  41.321179765046878 1
ion Cu   2.383364099939578   6.084809310537077  37.018684561725578 1
ion Cu   2.383294717277709  12.162035098961894  34.072675830291878 1
ion Cu   2.383473219433075  18.161771528324905  62.744893949368411 1
ion Cu   2.383125801148747   4.131613284000607  32.669658808126400 1
ion Cu   2.383349781463096  10.148534244215972  61.495300221070607 1

# Forces in Cartesian coordinates:
force Cu   0.000001069729205   0.000023666969898  -0.000090887653581 1
force Cu   0.000000672161966   0.000007646725730   0.000021454948011 1
force Cu   0.000001201568104   0.000031707041604  -0.000065402745586 1
force Cu   0.000001131078444   0.000053931875577  -0.000048826831682 1
force Cu   0.000000475911943   0.000071029621278   0.000046295017544 1
force Cu   0.000000296958915   0.000108592185685  -0.000091369079504 1
force Cu  -0.000000821367142   0.000008433760330  -0.000047439611505 1
force Cu   0.000000683358438   0.000006024830423   0.000014701159738 1
force Cu   0.000000943238460   0.000060918954569   0.000032527248623 1
force Cu  -0.000000154552879   0.000020350247132   0.000096023356396 1
force Cu   0.000000337553998   0.000033757847988  -0.000057091193493 1
force Cu  -0.000000151501471  -0.000004111939053   0.000089368281010 1
force Cu  -0.000000235027051  -0.000022931528351   0.000074649618521 1
force Cu  -0.000000355749265  -0.000023880075154  -0.000000279438577 1
force Cu  -0.000000604142332  -0.000034978463334  -0.000102665501112 1
force Cu   0.000000273879328  -0.000032002921417   0.000060840703137 1
force Cu   0.000000900151926  -0.000055988447612   0.000233592619908 1
force Cu   0.000000172531257  -0.000087415197952   0.000083686038121 1
force Cu   0.000000043747808  -0.000044455249698  -0.000044468584703 1
force Cu  -0.000000321648750   0.000002890418483  -0.000151064466475 1
force Cu  -0.000000138020946  -0.000080882338284   0.000022678196036 1
force Cu  -0.000000627529128  -0.000004835791723   0.000057259410700 1
force Cu   0.000000759893289   0.000079289272858  -0.000093992273083 1
force Cu   0.000000524408482   0.000010541564149   0.000086000906967 1
force Cu   0.000001502307738   0.000049529956867   0.000004568837200 1
force Cu   0.000000369880824   0.000095027580103  -0.000044806352719 1
force Cu  -0.000000152698524   0.000040430946278   0.000016083758631 1
force Cu   0.000000301983533   0.000023720752464   0.000055943583966 1
force Cu   0.000001413135923   0.000010081323611   0.000033127998451 1
force Cu   0.000000242369762   0.000046379410079   0.000081355151656 1
force Cu   0.000000388779710   0.000069063601005  -0.000129069088634 1
force Cu  -0.000000122761676   0.000006298830619   0.000035439888549 1
force Cu   0.000000271136602  -0.000037259112771   0.000162466351031 1
force Cu  -0.000000988763700  -0.000003608361405  -0.000016011631766 1
force Cu  -0.000000042846473  -0.000075153189829  -0.000033348833333 1
force Cu  -0.000000376342670  -0.000020218816061  -0.000049476931731 1
force Cu  -0.000000633839698  -0.000011156869826  -0.000131353301545 1
force Cu   0.000000108124854  -0.000087934819901   0.000192819008970 1
force Cu   0.000000795590713  -0.000041301844742   0.000019123257742 1
force Cu  -0.000000603445705  -0.000044571925503  -0.000005204225586 1
force Cu   0.000000552756312   0.000004033034786  -0.000037668070444 1
force Cu   0.000000537463867  -0.000001587758760  -0.000055315645113 1
force Cu  -0.000000847745030   0.000021324667333  -0.000017833768228 1
force Cu   0.000001347215706   0.000049930241103  -0.000161359000977 1

# Energy components:
   A_diel =       -0.5046772248682584
   Eewald =    48906.6793618833835353
       EH =    57097.4926264254099806
     Eloc =  -116551.8132532203308074
      Enl =     1611.3014915388785084
     EvdW =       -0.7153498772718591
      Exc =     -854.3085878983533803
 Exc_core =        2.0666328995619963
       KE =      908.1628059760145106
  MuShift =       -0.1861123002523999
-------------------------------------
     Etot =    -8881.8250617978210357
       TS =        0.0013422563254657
-------------------------------------
        F =    -8881.8264040541471331
      muN =      -81.9086795878767475
-------------------------------------
        G =    -8799.9177244662696467


Dumping 'jdft.fillings' ... done
Dumping 'jdft.wfns' ... done
Dumping 'jdft.fluidState' ... done
Dumping 'jdft.ionpos' ... done
Dumping 'jdft.lattice' ... done
Dumping 'jdft.eigenvals' ... done
Dumping 'jdft.eigStats' ... 
	eMin: -4.238746 at state 22 ( [ +0.000000 +0.000000 +0.000000 ] spin -1 )
	HOMO: -0.097838 at state 1 ( [ +0.000000 +0.500000 +0.000000 ] spin 1 )
	mu  : -0.097800
	LUMO: -0.097599 at state 7 ( [ +0.272727 +0.500000 +0.000000 ] spin 1 )
	eMax: +0.292598 at state 24 ( [ +0.090909 +0.000000 +0.000000 ] spin -1 )
	HOMO-LUMO gap: +0.000238
	Optical gap  : +0.000752 at state 7 ( [ +0.272727 +0.500000 +0.000000 ] spin 1 )
Dumping 'jdft.Ecomponents' ... done
IonicMinimize: Iter:   2  G: -8799.917724466269647  |grad|_K:  5.643e-05  alpha:  1.000e+00  linmin: -1.403e-01  t[s]:   7673.05
IonicMinimize: Converged (|grad|_K<1.000000e-04).

#--- Lowdin population analysis ---
# oxidation-state Cu -0.067 +0.027 -0.026 +0.066 +0.073 +0.077 -0.008 +0.066 +0.075 +0.076 +0.077 +0.078 +0.076 +0.076 +0.072 +0.077 +0.078 +0.075 +0.066 +0.033 +0.064 -0.040 +0.064 +0.073 +0.067 +0.075 +0.076 +0.077 +0.033 +0.076 +0.078 +0.078 +0.077 +0.076 +0.072 +0.065 +0.027 +0.077 +0.074 +0.066 -0.026 -0.008 -0.067 -0.040
# magnetic-moments Cu -0.000 -0.000 -0.000 +0.000 +0.000 +0.000 -0.000 -0.000 -0.000 +0.000 +0.000 +0.000 +0.000 +0.000 -0.000 +0.000 +0.000 +0.000 -0.000 -0.000 +0.000 +0.000 -0.000 -0.000 +0.000 -0.000 -0.000 -0.000 -0.000 +0.000 +0.000 -0.000 -0.000 -0.000 -0.000 +0.000 +0.000 -0.000 +0.000 -0.000 -0.000 -0.000 -0.000 +0.000


Dumping 'jdft.n_up' ... done
Dumping 'jdft.n_dn' ... done
Dumping 'jdft.tau_up' ... done
Dumping 'jdft.tau_dn' ... done
Dumping 'jdft.eigenvals' ... done
Dumping 'jdft.eigStats' ... 
	eMin: -4.238746 at state 22 ( [ +0.000000 +0.000000 +0.000000 ] spin -1 )
	HOMO: -0.097838 at state 1 ( [ +0.000000 +0.500000 +0.000000 ] spin 1 )
	mu  : -0.097800
	LUMO: -0.097599 at state 7 ( [ +0.272727 +0.500000 +0.000000 ] spin 1 )
	eMax: +0.292598 at state 24 ( [ +0.090909 +0.000000 +0.000000 ] spin -1 )
	HOMO-LUMO gap: +0.000238
	Optical gap  : +0.000752 at state 7 ( [ +0.272727 +0.500000 +0.000000 ] spin 1 )
Dumping 'jdft.kPts' ... done
Dumping 'jdft.dosUp' ... done.
Dumping 'jdft.dosDn' ... done.
End date and time: Thu Dec  9 07:56:16 2021  (Duration: 0-2:09:37.99)
Done!
