
*************** JDFTx 1.6.0  ***************

Start date and time: Mon Dec  6 17:14:19 2021
Executable /projects/musgravc/apps/jdftx-1.6.1/build/jdftx with command-line: -i in
Running on hosts (process indices):  shas0247.rc.int.colorado.edu (0-23)
Divided in process groups (process indices):  0 (0)  1 (1)  2 (2)  3 (3)  4 (4)  5 (5)  6 (6)  7 (7)  8 (8)  9 (9)  10 (10)  11 (11)  12 (12)  13 (13)  14 (14)  15 (15)  16 (16)  17 (17)  18 (18)  19 (19)  20 (20)  21 (21)  22 (22)  23 (23)
Resource initialization completed at t[s]:      0.00
Run totals: 24 processes, 24 threads, 0 GPUs


Input parsed successfully to the following command list (including defaults):

basis kpoint-dependent
converge-empty-states yes
coords-type Cartesian
core-overlap-check none
coulomb-interaction Periodic
davidson-band-ratio 1.1
density-of-states Etol 1.000000e-06 Esigma 1.000000e-03 \
		Complete \
	Total \
	OrthoOrbital Ag 1   s \
	OrthoOrbital Ag 1   p \
	OrthoOrbital Ag 1   px \
	OrthoOrbital Ag 1   py \
	OrthoOrbital Ag 1   pz \
	OrthoOrbital Ag 1   d \
	OrthoOrbital Ag 1   dxy \
	OrthoOrbital Ag 1   dyz \
	OrthoOrbital Ag 1   dz2 \
	OrthoOrbital Ag 1   dxz \
	OrthoOrbital Ag 1   dx2-y2 \
	OrthoOrbital Ag 2   s \
	OrthoOrbital Ag 2   p \
	OrthoOrbital Ag 2   px \
	OrthoOrbital Ag 2   py \
	OrthoOrbital Ag 2   pz \
	OrthoOrbital Ag 2   d \
	OrthoOrbital Ag 2   dxy \
	OrthoOrbital Ag 2   dyz \
	OrthoOrbital Ag 2   dz2 \
	OrthoOrbital Ag 2   dxz \
	OrthoOrbital Ag 2   dx2-y2 \
	OrthoOrbital Ag 3   s \
	OrthoOrbital Ag 3   p \
	OrthoOrbital Ag 3   px \
	OrthoOrbital Ag 3   py \
	OrthoOrbital Ag 3   pz \
	OrthoOrbital Ag 3   d \
	OrthoOrbital Ag 3   dxy \
	OrthoOrbital Ag 3   dyz \
	OrthoOrbital Ag 3   dz2 \
	OrthoOrbital Ag 3   dxz \
	OrthoOrbital Ag 3   dx2-y2 \
	OrthoOrbital Ag 4   s \
	OrthoOrbital Ag 4   p \
	OrthoOrbital Ag 4   px \
	OrthoOrbital Ag 4   py \
	OrthoOrbital Ag 4   pz \
	OrthoOrbital Ag 4   d \
	OrthoOrbital Ag 4   dxy \
	OrthoOrbital Ag 4   dyz \
	OrthoOrbital Ag 4   dz2 \
	OrthoOrbital Ag 4   dxz \
	OrthoOrbital Ag 4   dx2-y2 \
	OrthoOrbital Ag 5   s \
	OrthoOrbital Ag 5   p \
	OrthoOrbital Ag 5   px \
	OrthoOrbital Ag 5   py \
	OrthoOrbital Ag 5   pz \
	OrthoOrbital Ag 5   d \
	OrthoOrbital Ag 5   dxy \
	OrthoOrbital Ag 5   dyz \
	OrthoOrbital Ag 5   dz2 \
	OrthoOrbital Ag 5   dxz \
	OrthoOrbital Ag 5   dx2-y2 \
	OrthoOrbital Ag 6   s \
	OrthoOrbital Ag 6   p \
	OrthoOrbital Ag 6   px \
	OrthoOrbital Ag 6   py \
	OrthoOrbital Ag 6   pz \
	OrthoOrbital Ag 6   d \
	OrthoOrbital Ag 6   dxy \
	OrthoOrbital Ag 6   dyz \
	OrthoOrbital Ag 6   dz2 \
	OrthoOrbital Ag 6   dxz \
	OrthoOrbital Ag 6   dx2-y2 \
	OrthoOrbital Ag 7   s \
	OrthoOrbital Ag 7   p \
	OrthoOrbital Ag 7   px \
	OrthoOrbital Ag 7   py \
	OrthoOrbital Ag 7   pz \
	OrthoOrbital Ag 7   d \
	OrthoOrbital Ag 7   dxy \
	OrthoOrbital Ag 7   dyz \
	OrthoOrbital Ag 7   dz2 \
	OrthoOrbital Ag 7   dxz \
	OrthoOrbital Ag 7   dx2-y2 \
	OrthoOrbital Ag 8   s \
	OrthoOrbital Ag 8   p \
	OrthoOrbital Ag 8   px \
	OrthoOrbital Ag 8   py \
	OrthoOrbital Ag 8   pz \
	OrthoOrbital Ag 8   d \
	OrthoOrbital Ag 8   dxy \
	OrthoOrbital Ag 8   dyz \
	OrthoOrbital Ag 8   dz2 \
	OrthoOrbital Ag 8   dxz \
	OrthoOrbital Ag 8   dx2-y2 \
	OrthoOrbital Ag 9   s \
	OrthoOrbital Ag 9   p \
	OrthoOrbital Ag 9   px \
	OrthoOrbital Ag 9   py \
	OrthoOrbital Ag 9   pz \
	OrthoOrbital Ag 9   d \
	OrthoOrbital Ag 9   dxy \
	OrthoOrbital Ag 9   dyz \
	OrthoOrbital Ag 9   dz2 \
	OrthoOrbital Ag 9   dxz \
	OrthoOrbital Ag 9   dx2-y2 \
	OrthoOrbital Ag 10   s \
	OrthoOrbital Ag 10   p \
	OrthoOrbital Ag 10   px \
	OrthoOrbital Ag 10   py \
	OrthoOrbital Ag 10   pz \
	OrthoOrbital Ag 10   d \
	OrthoOrbital Ag 10   dxy \
	OrthoOrbital Ag 10   dyz \
	OrthoOrbital Ag 10   dz2 \
	OrthoOrbital Ag 10   dxz \
	OrthoOrbital Ag 10   dx2-y2 \
	OrthoOrbital Ag 11   s \
	OrthoOrbital Ag 11   p \
	OrthoOrbital Ag 11   px \
	OrthoOrbital Ag 11   py \
	OrthoOrbital Ag 11   pz \
	OrthoOrbital Ag 11   d \
	OrthoOrbital Ag 11   dxy \
	OrthoOrbital Ag 11   dyz \
	OrthoOrbital Ag 11   dz2 \
	OrthoOrbital Ag 11   dxz \
	OrthoOrbital Ag 11   dx2-y2 \
	OrthoOrbital Ag 12   s \
	OrthoOrbital Ag 12   p \
	OrthoOrbital Ag 12   px \
	OrthoOrbital Ag 12   py \
	OrthoOrbital Ag 12   pz \
	OrthoOrbital Ag 12   d \
	OrthoOrbital Ag 12   dxy \
	OrthoOrbital Ag 12   dyz \
	OrthoOrbital Ag 12   dz2 \
	OrthoOrbital Ag 12   dxz \
	OrthoOrbital Ag 12   dx2-y2 \
	OrthoOrbital Ag 13   s \
	OrthoOrbital Ag 13   p \
	OrthoOrbital Ag 13   px \
	OrthoOrbital Ag 13   py \
	OrthoOrbital Ag 13   pz \
	OrthoOrbital Ag 13   d \
	OrthoOrbital Ag 13   dxy \
	OrthoOrbital Ag 13   dyz \
	OrthoOrbital Ag 13   dz2 \
	OrthoOrbital Ag 13   dxz \
	OrthoOrbital Ag 13   dx2-y2 \
	OrthoOrbital Ag 14   s \
	OrthoOrbital Ag 14   p \
	OrthoOrbital Ag 14   px \
	OrthoOrbital Ag 14   py \
	OrthoOrbital Ag 14   pz \
	OrthoOrbital Ag 14   d \
	OrthoOrbital Ag 14   dxy \
	OrthoOrbital Ag 14   dyz \
	OrthoOrbital Ag 14   dz2 \
	OrthoOrbital Ag 14   dxz \
	OrthoOrbital Ag 14   dx2-y2 \
	OrthoOrbital Ag 15   s \
	OrthoOrbital Ag 15   p \
	OrthoOrbital Ag 15   px \
	OrthoOrbital Ag 15   py \
	OrthoOrbital Ag 15   pz \
	OrthoOrbital Ag 15   d \
	OrthoOrbital Ag 15   dxy \
	OrthoOrbital Ag 15   dyz \
	OrthoOrbital Ag 15   dz2 \
	OrthoOrbital Ag 15   dxz \
	OrthoOrbital Ag 15   dx2-y2 \
	OrthoOrbital Ag 16   s \
	OrthoOrbital Ag 16   p \
	OrthoOrbital Ag 16   px \
	OrthoOrbital Ag 16   py \
	OrthoOrbital Ag 16   pz \
	OrthoOrbital Ag 16   d \
	OrthoOrbital Ag 16   dxy \
	OrthoOrbital Ag 16   dyz \
	OrthoOrbital Ag 16   dz2 \
	OrthoOrbital Ag 16   dxz \
	OrthoOrbital Ag 16   dx2-y2 \
	OrthoOrbital Ag 17   s \
	OrthoOrbital Ag 17   p \
	OrthoOrbital Ag 17   px \
	OrthoOrbital Ag 17   py \
	OrthoOrbital Ag 17   pz \
	OrthoOrbital Ag 17   d \
	OrthoOrbital Ag 17   dxy \
	OrthoOrbital Ag 17   dyz \
	OrthoOrbital Ag 17   dz2 \
	OrthoOrbital Ag 17   dxz \
	OrthoOrbital Ag 17   dx2-y2 \
	OrthoOrbital Ag 18   s \
	OrthoOrbital Ag 18   p \
	OrthoOrbital Ag 18   px \
	OrthoOrbital Ag 18   py \
	OrthoOrbital Ag 18   pz \
	OrthoOrbital Ag 18   d \
	OrthoOrbital Ag 18   dxy \
	OrthoOrbital Ag 18   dyz \
	OrthoOrbital Ag 18   dz2 \
	OrthoOrbital Ag 18   dxz \
	OrthoOrbital Ag 18   dx2-y2 \
	OrthoOrbital Ag 19   s \
	OrthoOrbital Ag 19   p \
	OrthoOrbital Ag 19   px \
	OrthoOrbital Ag 19   py \
	OrthoOrbital Ag 19   pz \
	OrthoOrbital Ag 19   d \
	OrthoOrbital Ag 19   dxy \
	OrthoOrbital Ag 19   dyz \
	OrthoOrbital Ag 19   dz2 \
	OrthoOrbital Ag 19   dxz \
	OrthoOrbital Ag 19   dx2-y2 \
	OrthoOrbital Ag 20   s \
	OrthoOrbital Ag 20   p \
	OrthoOrbital Ag 20   px \
	OrthoOrbital Ag 20   py \
	OrthoOrbital Ag 20   pz \
	OrthoOrbital Ag 20   d \
	OrthoOrbital Ag 20   dxy \
	OrthoOrbital Ag 20   dyz \
	OrthoOrbital Ag 20   dz2 \
	OrthoOrbital Ag 20   dxz \
	OrthoOrbital Ag 20   dx2-y2
dump End ElecDensity KEdensity BandEigs EigStats RhoAtom DOS Kpoints
dump Ionic State IonicPositions Lattice EigStats Ecomponents
dump 
dump 
dump 
dump 
dump 
dump 
dump 
dump 
dump-name jdft.$VAR
elec-cutoff 20
elec-eigen-algo Davidson
elec-ex-corr gga-PBE
elec-initial-magnetization 0.000000 no
elec-n-bands 228
elec-smearing Fermi 0.001
electronic-minimize  \
	dirUpdateScheme      FletcherReeves \
	linminMethod         DirUpdateRecommended \
	nIterations          100 \
	history              15 \
	knormThreshold       0 \
	energyDiffThreshold  1e-07 \
	nEnergyDiff          2 \
	alphaTstart          1 \
	alphaTmin            1e-10 \
	updateTestStepSize   yes \
	alphaTreduceFactor   0.1 \
	alphaTincreaseFactor 3 \
	nAlphaAdjustMax      3 \
	wolfeEnergy          0.0001 \
	wolfeGradient        0.9 \
	fdTest               no
exchange-regularization WignerSeitzTruncated
fluid LinearPCM 298.000000 1.013250
fluid-anion F- 0.5 MeanFieldLJ \
	epsBulk 1 \
	pMol 0 \
	epsInf 1 \
	Pvap 0 \
	sigmaBulk 0 \
	Rvdw 2.24877 \
	Res 0 \
	tauNuc 343133
fluid-cation Na+ 0.5 MeanFieldLJ \
	epsBulk 1 \
	pMol 0 \
	epsInf 1 \
	Pvap 0 \
	sigmaBulk 0 \
	Rvdw 2.19208 \
	Res 0 \
	tauNuc 343133
fluid-ex-corr lda-TF lda-PZ
fluid-gummel-loop 10 1.000000e-05
fluid-minimize  \
	dirUpdateScheme      PolakRibiere \
	linminMethod         DirUpdateRecommended \
	nIterations          400 \
	history              15 \
	knormThreshold       1e-11 \
	energyDiffThreshold  0 \
	nEnergyDiff          2 \
	alphaTstart          1 \
	alphaTmin            1e-10 \
	updateTestStepSize   yes \
	alphaTreduceFactor   0.1 \
	alphaTincreaseFactor 3 \
	nAlphaAdjustMax      6 \
	wolfeEnergy          0.0001 \
	wolfeGradient        0.9 \
	fdTest               no
fluid-solvent H2O 55.338 ScalarEOS \
	epsBulk 78.4 \
	pMol 0.92466 \
	epsInf 1.77 \
	Pvap 1.06736e-10 \
	sigmaBulk 4.62e-05 \
	Rvdw 2.61727 \
	Res 1.42 \
	tauNuc 343133 \
	poleEl 15 7 1
forces-output-coords Positions
ion Ag   0.000000000000000   4.848194000000000  21.210875000000005 1
ion Ag   0.000000000000000   9.696389000000000  18.786729000000005 1
ion Ag   0.000000000000000   2.424097000000000  16.362656000000001 1
ion Ag   0.000000000000000   7.272292000000000  13.938583000000000 1
ion Ag   0.000000000000000  12.120486000000000  11.514438000000002 1
ion Ag   0.000000000000000   4.848194000000000   9.090365000000000 1
ion Ag   0.000000000000000   9.696389000000000   6.666292000000000 1
ion Ag   0.000000000000000   2.424097000000000   4.242146000000000 1
ion Ag   0.000000000000000   7.272292000000000   1.818073000000000 1
ion Ag   0.000000000000000   0.000000000000000  23.634948000000001 1
ion Ag   3.832834000000000   1.212049000000000  19.998802000000001 1
ion Ag   3.832834000000000   6.060243000000000  17.574729000000001 1
ion Ag   3.832834000000000  10.908436999999999  15.150583000000001 1
ion Ag   3.832834000000000   3.636146000000000  12.726509999999999 1
ion Ag   3.832834000000000   8.484340000000000  10.302436999999999 1
ion Ag   3.832834000000000   1.212049000000000   7.878292000000001 1
ion Ag   3.832834000000000   6.060243000000000   5.454219000000000 1
ion Ag   3.832834000000000  10.908436999999999   3.030146000000000 1
ion Ag   3.832834000000000   3.636146000000000   0.606000000000000 1
ion Ag   3.832834000000000   8.484340000000000  22.422875000000005 1
ion-species /projects/musgravc/apps/jdftx-1.6.0/build/pseudopotentials/GBRV_v1.5/$ID_pbe_v1.uspp
ion-species /projects/musgravc/apps/jdftx-1.6.0/build/pseudopotentials/GBRV_v1.5/$ID_pbe_v1.2.uspp
ion-species /projects/musgravc/apps/jdftx-1.6.0/build/pseudopotentials/GBRV_v1.5/$ID_pbe_v1.4.uspp
ion-species /projects/musgravc/apps/jdftx-1.6.0/build/pseudopotentials/GBRV_v1.5/$ID_pbe_v1.5.uspp
ion-width Ecut
ionic-minimize  \
	dirUpdateScheme      L-BFGS \
	linminMethod         DirUpdateRecommended \
	nIterations          100 \
	history              15 \
	knormThreshold       0.0001 \
	energyDiffThreshold  1e-06 \
	nEnergyDiff          2 \
	alphaTstart          1 \
	alphaTmin            1e-10 \
	updateTestStepSize   yes \
	alphaTreduceFactor   0.1 \
	alphaTincreaseFactor 3 \
	nAlphaAdjustMax      3 \
	wolfeEnergy          0.0001 \
	wolfeGradient        0.9 \
	fdTest               no
kpoint   0.000000000000   0.000000000000   0.000000000000  1.00000000000000
kpoint-folding 9 5 1 
latt-move-scale 0 0 0
latt-scale 1 1 1 
lattice  \
	   7.665668000000000    0.000000000000000    0.000000000000000  \
	   0.000000000000000   12.120486000000000    0.000000000000000  \
	   0.000000000000000    0.000000000000000   72.722915999999998 
lattice-minimize  \
	dirUpdateScheme      L-BFGS \
	linminMethod         DirUpdateRecommended \
	nIterations          0 \
	history              15 \
	knormThreshold       0 \
	energyDiffThreshold  1e-06 \
	nEnergyDiff          2 \
	alphaTstart          1 \
	alphaTmin            1e-10 \
	updateTestStepSize   yes \
	alphaTreduceFactor   0.1 \
	alphaTincreaseFactor 3 \
	nAlphaAdjustMax      3 \
	wolfeEnergy          0.0001 \
	wolfeGradient        0.9 \
	fdTest               no
lcao-params 30 1e-06 0.001
pcm-variant CANDLE
spintype z-spin
subspace-rotation-factor 1 yes
symmetries none
symmetry-threshold 0.0001
van-der-waals D3


Applied RMS atom displacement 0 bohrs to make symmetries exact.

---------- Initializing the Grid ----------
R = 
[      7.66567            0            0  ]
[            0      12.1205            0  ]
[            0            0      72.7229  ]
unit cell volume = 6756.8
G =
[   0.819653          0          0  ]
[          0   0.518394          0  ]
[          0          0   0.086399  ]
Minimum fftbox size, Smin = [  32  52  296  ]
Chosen fftbox size, S = [  32  54  300  ]

---------- Exchange Correlation functional ----------
Initalized PBE GGA exchange.
Initalized PBE GGA correlation.

---------- Setting up pseudopotentials ----------
Width of ionic core gaussian charges (only for fluid interactions / plotting) set to 0.397384

Reading pseudopotential file '/projects/musgravc/apps/jdftx-1.6.0/build/pseudopotentials/GBRV_v1.5/ag_pbe_v1.4.uspp':
  Title: Ag.  Created by USPP 7.3.6 on 1-4-15
  Reference state energy: -147.606242.  19 valence electrons in orbitals:
    |400>  occupation: 2  eigenvalue: -3.637437
    |410>  occupation: 6  eigenvalue: -2.297267
    |420>  occupation: 10  eigenvalue: -0.417763
    |500>  occupation: 0.5  eigenvalue: -0.283525
    |510>  occupation: 0  eigenvalue: -0.122889
  lMax: 2  lLocal: 0  QijEcut: 5.5
  6 projectors sampled on a log grid with 717 points:
    l: 0  eig: -0.283528  rCut: 1.5
    l: 0  eig: -3.637440  rCut: 1.5
    l: 1  eig: -0.122892  rCut: 1.5
    l: 1  eig: -2.297267  rCut: 1.5
    l: 2  eig: -0.417762  rCut: 1.7
    l: 2  eig: -1.000000  rCut: 1.7
  Partial core density with radius 1.2
  Transforming core density to a uniform radial grid of dG=0.02 with 1163 points.
  Transforming local potential to a uniform radial grid of dG=0.02 with 1163 points.
  Transforming nonlocal projectors to a uniform radial grid of dG=0.02 with 432 points.
  Transforming density augmentations to a uniform radial grid of dG=0.02 with 1163 points.
  Transforming atomic orbitals to a uniform radial grid of dG=0.02 with 432 points.
  Core radius for overlap checks: 1.70 bohrs.

Initialized 1 species with 20 total atoms.

Folded 1 k-points by 9x5x1 to 45 k-points.

---------- Setting up k-points, bands, fillings ----------
No reducable k-points. 
Computing the number of bands and number of electrons
Calculating initial fillings.
nElectrons: 380.000000   nBands: 228   nStates: 90

----- Setting up reduced wavefunction bases (one per k-point) -----
average nbasis = 28863.000 , ideal nbasis = 28865.582

----- Initializing Supercell corresponding to k-point mesh -----
Lattice vector linear combinations in supercell:
[   9   0   0  ]
[   0   5   0  ]
[   0   0   1  ]
Supercell lattice vectors:
[  68.991  0  0  ]
[  0  60.6024  0  ]
[  0  0  72.7229  ]

Initializing DFT-D3 calculator:
	Parameters set for gga-PBE functional
	s6:  1.000  s_r6:  1.217
	s8:  0.722  s_r8:  1.000
	Per-atom parameters loaded for:
	Ag:  sqrtQ[a0]:  5.443  Rcov[a0]:  2.173  CN: [ 0.00 0.97 ]

Initializing DFT-D2 calculator for fluid / solvation:
	Ag:  C6:  427.91 Eh-a0^6  R0: 3.097 a0

---------- Setting up ewald sum ----------
Optimum gaussian width for ewald sums = 4.577751 bohr.
Real space sum over 825 unit cells with max indices [  7  5  2  ]
Reciprocal space sum over 5049 terms with max indices [  4  5  25  ]

Computing DFT-D3 correction:
# coordination-number Ag 6.912 9.173 9.203 9.209 9.210 9.208 9.182 8.416 6.135 4.627 8.416 9.182 9.208 9.210 9.209 9.203 9.173 6.912 4.627 6.135
# diagonal-C6 Ag 268.61 268.61 268.61 268.61 268.61 268.61 268.61 268.61 268.61 268.61 268.61 268.61 268.61 268.61 268.61 268.61 268.61 268.61 268.61 268.61
EvdW_6 =   -0.125728
EvdW_8 =   -0.172998

---------- Allocating electronic variables ----------
Initializing wave functions:  linear combination of atomic orbitals
Ag pseudo-atom occupations:   s ( 2 1 )  p ( 6 0 )  d ( 10 )
	FillingsUpdate:  mu: -0.021221969  nElectrons: 380.000000  magneticMoment: [ Abs: 0.00086  Tot: +0.00000 ]
LCAOMinimize: Iter:   0  F: -2951.8408534210102516  |grad|_K:  6.644e-04  alpha:  1.000e+00
	FillingsUpdate:  mu: +0.293942081  nElectrons: 380.000000  magneticMoment: [ Abs: 0.00070  Tot: +0.00001 ]
LCAOMinimize: Iter:   1  F: -2951.8717550459268750  |grad|_K:  8.545e-04  alpha:  1.661e-01  linmin:  8.963e-02  cgtest: -6.798e-01  t[s]:    172.31
LCAOMinimize: 	Bad step direction: g.d > 0.
LCAOMinimize: 	Undoing step.
LCAOMinimize: 	Step failed: resetting search direction.
	FillingsUpdate:  mu: +0.293942081  nElectrons: 380.000000  magneticMoment: [ Abs: 0.00070  Tot: +0.00001 ]
LCAOMinimize: Iter:   2  F: -2951.8717550459268750  |grad|_K:  8.545e-04  alpha:  0.000e+00
	FillingsUpdate:  mu: +0.107555512  nElectrons: 380.000000  magneticMoment: [ Abs: 0.00070  Tot: -0.00001 ]
LCAOMinimize: Iter:   3  F: -2952.0295207167559965  |grad|_K:  2.108e-04  alpha:  6.379e-02  linmin: -8.708e-02  cgtest:  3.465e-01  t[s]:    291.49
LCAOMinimize: Encountered beta<0, resetting CG.
LCAOMinimize: 	Predicted alpha/alphaT>3.000000, increasing alphaT to 1.913813e-01.
	FillingsUpdate:  mu: +0.098889892  nElectrons: 380.000000  magneticMoment: [ Abs: 0.00055  Tot: -0.00003 ]
LCAOMinimize: Iter:   4  F: -2952.1002980636185384  |grad|_K:  9.093e-05  alpha:  5.002e-01  linmin: -2.100e-02  cgtest:  2.135e-01  t[s]:    377.79
	FillingsUpdate:  mu: +0.116459177  nElectrons: 380.000000  magneticMoment: [ Abs: 0.00054  Tot: -0.00002 ]
LCAOMinimize: Iter:   5  F: -2952.1020388415481648  |grad|_K:  4.348e-05  alpha:  7.080e-02  linmin:  1.455e-02  cgtest: -2.131e-01  t[s]:    446.32
	FillingsUpdate:  mu: +0.118681654  nElectrons: 380.000000  magneticMoment: [ Abs: 0.00054  Tot: -0.00002 ]
LCAOMinimize: Iter:   6  F: -2952.1022421316729378  |grad|_K:  2.785e-05  alpha:  3.848e-02  linmin:  1.273e-04  cgtest:  1.692e-01  t[s]:    515.18
LCAOMinimize: 	Predicted alpha/alphaT>3.000000, increasing alphaT to 1.154362e-01.
	FillingsUpdate:  mu: +0.111035453  nElectrons: 380.000000  magneticMoment: [ Abs: 0.00054  Tot: -0.00003 ]
LCAOMinimize: Iter:   7  F: -2952.1026820100369150  |grad|_K:  2.474e-05  alpha:  1.854e-01  linmin:  3.019e-04  cgtest: -1.045e-01  t[s]:    601.15
	FillingsUpdate:  mu: +0.112100259  nElectrons: 380.000000  magneticMoment: [ Abs: 0.00054  Tot: -0.00003 ]
LCAOMinimize: Iter:   8  F: -2952.1027979991490611  |grad|_K:  2.258e-05  alpha:  6.228e-02  linmin:  2.836e-04  cgtest: -9.882e-04  t[s]:    669.64
	FillingsUpdate:  mu: +0.114987023  nElectrons: 380.000000  magneticMoment: [ Abs: 0.00053  Tot: -0.00003 ]
LCAOMinimize: Iter:   9  F: -2952.1028886329786474  |grad|_K:  5.274e-06  alpha:  5.818e-02  linmin: -3.609e-04  cgtest:  1.328e-02  t[s]:    738.65
	FillingsUpdate:  mu: +0.114320370  nElectrons: 380.000000  magneticMoment: [ Abs: 0.00053  Tot: -0.00003 ]
LCAOMinimize: Iter:  10  F: -2952.1028950061640899  |grad|_K:  5.234e-06  alpha:  7.465e-02  linmin:  2.077e-06  cgtest: -1.292e-03  t[s]:    808.57
	FillingsUpdate:  mu: +0.113781108  nElectrons: 380.000000  magneticMoment: [ Abs: 0.00053  Tot: -0.00003 ]
LCAOMinimize: Iter:  11  F: -2952.1028996222089518  |grad|_K:  3.033e-06  alpha:  5.497e-02  linmin:  5.513e-07  cgtest:  1.159e-03  t[s]:    877.54
	FillingsUpdate:  mu: +0.114459197  nElectrons: 380.000000  magneticMoment: [ Abs: 0.00053  Tot: -0.00003 ]
LCAOMinimize: Iter:  12  F: -2952.1029039971954262  |grad|_K:  2.236e-06  alpha:  1.550e-01  linmin: -1.500e-04  cgtest:  6.174e-04  t[s]:    946.48
	FillingsUpdate:  mu: +0.114466965  nElectrons: 380.000000  magneticMoment: [ Abs: 0.00053  Tot: -0.00003 ]
LCAOMinimize: Iter:  13  F: -2952.1029045227110146  |grad|_K:  1.094e-06  alpha:  3.424e-02  linmin:  4.943e-05  cgtest: -3.823e-03  t[s]:   1015.06
LCAOMinimize: 	Predicted alpha/alphaT>3.000000, increasing alphaT to 1.027327e-01.
	FillingsUpdate:  mu: +0.114224052  nElectrons: 380.000000  magneticMoment: [ Abs: 0.00053  Tot: -0.00003 ]
LCAOMinimize: Iter:  14  F: -2952.1029049471594590  |grad|_K:  8.165e-07  alpha:  1.157e-01  linmin: -5.591e-05  cgtest:  2.701e-03  t[s]:   1101.42
LCAOMinimize: Converged (|Delta F|<1.000000e-06 for 2 iters).
----- createFluidSolver() ----- (Fluid-side solver setup)
   Initializing fluid molecule 'H2O'
     Initializing site 'O'
       Electron density: proportional to exp(-r/0.36935)*erfc((r-0.51523)/0.36823) with norm 6.826
       Charge density: gaussian nuclear width 0.478731 with net site charge 0.826
       Polarizability: cuspless exponential with width 0.32 and norm 3.73
       Hard sphere radius: 2.57003 bohrs
       Positions in reference frame:
         [ +0.000000 +0.000000 +0.000000 ]
     Initializing site 'H'
       Electron density: proportional to exp(-r/0.34641)*erfc((r-0)/0.390882) with norm 0.587
       Charge density: gaussian nuclear width 0.377945 with net site charge -0.413
       Polarizability: cuspless exponential with width 0.39 and norm 3.3
       Positions in reference frame:
         [ +0.000000 -1.441945 +1.122523 ]
         [ +0.000000 +1.441945 +1.122523 ]
     Net charge: 0   dipole magnitude: 0.927204
     Initializing spherical shell mfKernel with radius 2.61727 Bohr
     deltaS corrections:
       site 'O': -7.54299
       site 'H': -6.83917
   Initializing fluid molecule 'Na+'
     Initializing site 'Na'
       Electron density: proportional to exp(-r/0.19682)*erfc((r-0.71491)/0.41314) with norm 8.1383
       Charge density: gaussian nuclear width 0.365347 with net site charge -1
       Hard sphere radius: 1.86327 bohrs
       Positions in reference frame:
         [ +0.000000 +0.000000 +0.000000 ]
     Net charge: -1   dipole magnitude: 0
     Initializing gaussian mfKernel with width: 1.55004 Bohr
     deltaS corrections:
       site 'Na': -22.3555
   Initializing fluid molecule 'F-'
     Initializing site 'F'
       Electron density: proportional to exp(-r/0.38886)*erfc((r-0)/0.438782) with norm 8
       Charge density: gaussian nuclear width 0.374796 with net site charge 1
       Hard sphere radius: 2.39995 bohrs
       Positions in reference frame:
         [ +0.000000 +0.000000 +0.000000 ]
     Net charge: 1   dipole magnitude: 0
     Initializing gaussian mfKernel with width: 1.59012 Bohr
     deltaS corrections:
       site 'F': -9.04335

Correction to mu due to finite nuclear width = -0.055801
   Cavity determined by nc: 0.00142 and sigma: 0.707107
   Nonlocal vdW cavity from gaussian model electron density with norm = 8 and sigma = 0.993594 bohr
   Charge asymmetry in cavity with sensitivity pCavity = 36.5 e-bohr/Eh
   Electrostatic cavity expanded by eta = 1.46 bohrs
   Weighted density cavitation model constrained by Nbulk: 0.0049383 bohr^-3, Pvap: 3.14029 kPa, Rvdw: 2.61727 bohr and sigmaBulk: 4.62e-05 Eh/bohr^2 at T: 298 K.
   Weighted density dispersion model using vdW pair potentials with single solvent site with sqrtC6eff: 0.77 SI.


---- Citations for features of the code used in this run ----

   Software package:
      R. Sundararaman, K. Letchworth-Weaver, K.A. Schwarz, D. Gunceler, Y. Ozhabes and T.A. Arias, 'JDFTx: software for joint density-functional theory', SoftwareX 6, 278 (2017)

   gga-PBE exchange-correlation functional:
      J.P. Perdew, K. Burke and M. Ernzerhof, Phys. Rev. Lett. 77, 3865 (1996)

   Pseudopotentials:
      KF Garrity, JW Bennett, KM Rabe and D Vanderbilt, Comput. Mater. Sci. 81, 446 (2014)

   DFT-D3 dispersion correction:
      S. Grimme, J. Antony, S. Ehrlich and H. Krieg, J. Chem. Phys. 132, 154104 (2010)

   DFT-D2 dispersion correction:
      S. Grimme, J. Comput. Chem. 27, 1787 (2006)

   Charge-asymmetric nonlocally-determined local-electric (CANDLE) solvation model:
      R. Sundararaman and W.A. Goddard III, J. Chem. Phys. 142, 064107 (2015)

   Total energy minimization with Auxiliary Hamiltonian:
      C. Freysoldt, S. Boeck, and J. Neugebauer, Phys. Rev. B 79, 241103(R) (2009)

   Linear-tetrahedron sampling for density of states:
      G. Lehmann and M. Taut, Phys. status solidi (b) 54, 469 (1972)

This list may not be complete. Please suggest additional citations or
report any other bugs at https://github.com/shankar1729/jdftx/issues

Initialization completed successfully at t[s]:   1118.27


Computing DFT-D3 correction:
# coordination-number Ag 6.912 9.173 9.203 9.209 9.210 9.208 9.182 8.416 6.135 4.627 8.416 9.182 9.208 9.210 9.209 9.203 9.173 6.912 4.627 6.135
# diagonal-C6 Ag 268.61 268.61 268.61 268.61 268.61 268.61 268.61 268.61 268.61 268.61 268.61 268.61 268.61 268.61 268.61 268.61 268.61 268.61 268.61 268.61
EvdW_6 =   -0.125728
EvdW_8 =   -0.172998
Fluid solver invoked on fresh (random / LCAO) wavefunctions
Running a vacuum solve first:

-------- Initial electronic minimization -----------
	FillingsUpdate:  mu: +0.114224054  nElectrons: 380.000000  magneticMoment: [ Abs: 0.00053  Tot: -0.00003 ]
ElecMinimize: Iter:   0  F: -2952.102904947166735  |grad|_K:  1.800e-05  alpha:  1.000e+00
	FillingsUpdate:  mu: +0.122816495  nElectrons: 380.000000  magneticMoment: [ Abs: 0.00041  Tot: -0.00003 ]
	SubspaceRotationAdjust: set factor to 0.999
ElecMinimize: Iter:   1  F: -2952.185813502260771  |grad|_K:  1.240e-05  alpha:  4.318e-01  linmin:  2.110e-05  t[s]:   1291.73
	FillingsUpdate:  mu: +0.104742172  nElectrons: 380.000000  magneticMoment: [ Abs: 0.00032  Tot: -0.00004 ]
	SubspaceRotationAdjust: set factor to 0.877
ElecMinimize: Iter:   2  F: -2952.210364370557272  |grad|_K:  7.623e-06  alpha:  2.678e-01  linmin: -1.629e-05  t[s]:   1404.14
	FillingsUpdate:  mu: +0.118442217  nElectrons: 380.000000  magneticMoment: [ Abs: 0.00029  Tot: -0.00003 ]
	SubspaceRotationAdjust: set factor to 0.615
ElecMinimize: Iter:   3  F: -2952.213217291054661  |grad|_K:  7.892e-06  alpha:  8.321e-02  linmin:  3.227e-05  t[s]:   1515.84
	FillingsUpdate:  mu: +0.130440740  nElectrons: 380.000000  magneticMoment: [ Abs: 0.00025  Tot: -0.00003 ]
	SubspaceRotationAdjust: set factor to 0.457
ElecMinimize: Iter:   4  F: -2952.216335490454640  |grad|_K:  5.852e-06  alpha:  8.473e-02  linmin: -1.027e-05  t[s]:   1627.63
	FillingsUpdate:  mu: +0.119717313  nElectrons: 380.000000  magneticMoment: [ Abs: 0.00019  Tot: -0.00003 ]
	SubspaceRotationAdjust: set factor to 0.773
ElecMinimize: Iter:   5  F: -2952.219923723533611  |grad|_K:  3.014e-06  alpha:  1.762e-01  linmin:  2.611e-05  t[s]:   1740.02
	FillingsUpdate:  mu: +0.115496731  nElectrons: 380.000000  magneticMoment: [ Abs: 0.00017  Tot: -0.00003 ]
	SubspaceRotationAdjust: set factor to 0.527
ElecMinimize: Iter:   6  F: -2952.220692465333741  |grad|_K:  3.873e-06  alpha:  1.426e-01  linmin:  4.623e-06  t[s]:   1851.94
	FillingsUpdate:  mu: +0.114043201  nElectrons: 380.000000  magneticMoment: [ Abs: 0.00013  Tot: -0.00003 ]
	SubspaceRotationAdjust: set factor to 0.33
ElecMinimize: Iter:   7  F: -2952.221710302376323  |grad|_K:  2.182e-06  alpha:  1.141e-01  linmin:  4.341e-06  t[s]:   1963.92
	FillingsUpdate:  mu: +0.119826232  nElectrons: 380.000000  magneticMoment: [ Abs: 0.00011  Tot: -0.00002 ]
	SubspaceRotationAdjust: set factor to 0.195
ElecMinimize: Iter:   8  F: -2952.222155161764022  |grad|_K:  1.513e-06  alpha:  1.570e-01  linmin: -1.354e-05  t[s]:   2075.92
	FillingsUpdate:  mu: +0.122303085  nElectrons: 380.000000  magneticMoment: [ Abs: 0.00009  Tot: -0.00002 ]
	SubspaceRotationAdjust: set factor to 0.161
ElecMinimize: Iter:   9  F: -2952.222483909199582  |grad|_K:  1.101e-06  alpha:  2.412e-01  linmin: -3.077e-06  t[s]:   2187.79
	FillingsUpdate:  mu: +0.119863045  nElectrons: 380.000000  magneticMoment: [ Abs: 0.00007  Tot: -0.00002 ]
	SubspaceRotationAdjust: set factor to 0.181
ElecMinimize: Iter:  10  F: -2952.222702177818064  |grad|_K:  6.937e-07  alpha:  3.030e-01  linmin:  2.573e-05  t[s]:   2299.54
	FillingsUpdate:  mu: +0.118442171  nElectrons: 380.000000  magneticMoment: [ Abs: 0.00006  Tot: -0.00002 ]
	SubspaceRotationAdjust: set factor to 0.183
ElecMinimize: Iter:  11  F: -2952.222801228565913  |grad|_K:  5.519e-07  alpha:  3.471e-01  linmin:  1.787e-05  t[s]:   2411.15
	FillingsUpdate:  mu: +0.119258142  nElectrons: 380.000000  magneticMoment: [ Abs: 0.00006  Tot: -0.00001 ]
	SubspaceRotationAdjust: set factor to 0.17
ElecMinimize: Iter:  12  F: -2952.222855945502033  |grad|_K:  3.931e-07  alpha:  3.025e-01  linmin:  3.006e-06  t[s]:   2522.82
	FillingsUpdate:  mu: +0.120082911  nElectrons: 380.000000  magneticMoment: [ Abs: 0.00005  Tot: -0.00001 ]
	SubspaceRotationAdjust: set factor to 0.161
ElecMinimize: Iter:  13  F: -2952.222882851473969  |grad|_K:  2.977e-07  alpha:  2.929e-01  linmin:  1.971e-06  t[s]:   2635.08
	FillingsUpdate:  mu: +0.119987567  nElectrons: 380.000000  magneticMoment: [ Abs: 0.00005  Tot: -0.00001 ]
	SubspaceRotationAdjust: set factor to 0.204
ElecMinimize: Iter:  14  F: -2952.222902126615281  |grad|_K:  2.200e-07  alpha:  3.661e-01  linmin:  8.787e-06  t[s]:   2746.77
	FillingsUpdate:  mu: +0.119666378  nElectrons: 380.000000  magneticMoment: [ Abs: 0.00005  Tot: -0.00001 ]
	SubspaceRotationAdjust: set factor to 0.199
ElecMinimize: Iter:  15  F: -2952.222912586595612  |grad|_K:  2.028e-07  alpha:  3.642e-01  linmin:  4.084e-06  t[s]:   2859.47
	FillingsUpdate:  mu: +0.119749882  nElectrons: 380.000000  magneticMoment: [ Abs: 0.00004  Tot: -0.00001 ]
	SubspaceRotationAdjust: set factor to 0.198
ElecMinimize: Iter:  16  F: -2952.222919713524789  |grad|_K:  1.614e-07  alpha:  2.916e-01  linmin:  9.889e-07  t[s]:   2971.18
	FillingsUpdate:  mu: +0.120180657  nElectrons: 380.000000  magneticMoment: [ Abs: 0.00004  Tot: -0.00001 ]
	SubspaceRotationAdjust: set factor to 0.219
ElecMinimize: Iter:  17  F: -2952.222926254503363  |grad|_K:  1.411e-07  alpha:  4.231e-01  linmin:  3.741e-06  t[s]:   3082.76
	FillingsUpdate:  mu: +0.120140623  nElectrons: 380.000000  magneticMoment: [ Abs: 0.00003  Tot: -0.00000 ]
	SubspaceRotationAdjust: set factor to 0.245
ElecMinimize: Iter:  18  F: -2952.222930650465969  |grad|_K:  1.194e-07  alpha:  3.720e-01  linmin:  2.867e-06  t[s]:   3194.55
	FillingsUpdate:  mu: +0.119982811  nElectrons: 380.000000  magneticMoment: [ Abs: 0.00003  Tot: -0.00000 ]
	SubspaceRotationAdjust: set factor to 0.207
ElecMinimize: Iter:  19  F: -2952.222933134024515  |grad|_K:  1.016e-07  alpha:  2.932e-01  linmin:  9.487e-07  t[s]:   3306.42
	FillingsUpdate:  mu: +0.120015927  nElectrons: 380.000000  magneticMoment: [ Abs: 0.00002  Tot: -0.00000 ]
	SubspaceRotationAdjust: set factor to 0.183
ElecMinimize: Iter:  20  F: -2952.222934712090591  |grad|_K:  7.646e-08  alpha:  2.573e-01  linmin:  6.692e-07  t[s]:   3418.13
	FillingsUpdate:  mu: +0.120181651  nElectrons: 380.000000  magneticMoment: [ Abs: 0.00002  Tot: -0.00000 ]
	SubspaceRotationAdjust: set factor to 0.189
ElecMinimize: Iter:  21  F: -2952.222935877533928  |grad|_K:  5.313e-08  alpha:  3.358e-01  linmin:  1.206e-06  t[s]:   3530.20
	FillingsUpdate:  mu: +0.120177413  nElectrons: 380.000000  magneticMoment: [ Abs: 0.00001  Tot: -0.00000 ]
	SubspaceRotationAdjust: set factor to 0.193
ElecMinimize: Iter:  22  F: -2952.222936457346350  |grad|_K:  4.378e-08  alpha:  3.462e-01  linmin: -5.811e-07  t[s]:   3642.24
	FillingsUpdate:  mu: +0.120117726  nElectrons: 380.000000  magneticMoment: [ Abs: 0.00001  Tot: -0.00000 ]
	SubspaceRotationAdjust: set factor to 0.164
ElecMinimize: Iter:  23  F: -2952.222936777746327  |grad|_K:  3.161e-08  alpha:  2.808e-01  linmin:  3.597e-08  t[s]:   3753.79
	FillingsUpdate:  mu: +0.120102103  nElectrons: 380.000000  magneticMoment: [ Abs: 0.00001  Tot: -0.00000 ]
	SubspaceRotationAdjust: set factor to 0.171
ElecMinimize: Iter:  24  F: -2952.222936968645172  |grad|_K:  2.407e-08  alpha:  3.217e-01  linmin:  1.821e-07  t[s]:   3865.60
	FillingsUpdate:  mu: +0.120129203  nElectrons: 380.000000  magneticMoment: [ Abs: 0.00001  Tot: -0.00000 ]
	SubspaceRotationAdjust: set factor to 0.193
ElecMinimize: Iter:  25  F: -2952.222937083658508  |grad|_K:  1.782e-08  alpha:  3.347e-01  linmin:  2.722e-06  t[s]:   3977.27
	FillingsUpdate:  mu: +0.120140598  nElectrons: 380.000000  magneticMoment: [ Abs: 0.00000  Tot: -0.00000 ]
	SubspaceRotationAdjust: set factor to 0.197
ElecMinimize: Iter:  26  F: -2952.222937148749224  |grad|_K:  1.547e-08  alpha:  3.465e-01  linmin: -1.709e-06  t[s]:   4088.90
	FillingsUpdate:  mu: +0.120124712  nElectrons: 380.000000  magneticMoment: [ Abs: 0.00000  Tot: -0.00000 ]
	SubspaceRotationAdjust: set factor to 0.213
ElecMinimize: Iter:  27  F: -2952.222937193009784  |grad|_K:  1.241e-08  alpha:  3.097e-01  linmin:  6.638e-07  t[s]:   4200.52
ElecMinimize: Converged (|Delta F|<1.000000e-07 for 2 iters).
Setting wave functions to eigenvectors of Hamiltonian
Converging empty states (this may take a while): |deigs|: 1.309e-02
Vacuum energy after initial minimize, F = -2952.222937193009784


-------- Electronic minimization -----------
	Linear fluid (dielectric constant: 78.4, screening length: 8.12261 Bohr) occupying 0.547130 of unit cell:	Completed after 23 iterations at t[s]:   4621.29
	FillingsUpdate:  mu: -0.144843064  nElectrons: 380.000000  magneticMoment: [ Abs: 0.00000  Tot: -0.00000 ]
ElecMinimize: Iter:   0  F: -2952.224039965255997  |grad|_K:  5.253e-07  alpha:  1.000e+00
	Linear fluid (dielectric constant: 78.4, screening length: 8.12261 Bohr) occupying 0.548074 of unit cell:	Completed after 18 iterations at t[s]:   4712.99
	Linear fluid (dielectric constant: 78.4, screening length: 8.12261 Bohr) occupying 0.547920 of unit cell:	Completed after 12 iterations at t[s]:   4743.46
	FillingsUpdate:  mu: -0.138032476  nElectrons: 380.000000  magneticMoment: [ Abs: 0.00000  Tot: -0.00000 ]
	SubspaceRotationAdjust: set factor to 0.223
ElecMinimize: Iter:   1  F: -2952.224175959041077  |grad|_K:  5.915e-07  alpha:  8.330e-01  linmin: -1.513e-06  t[s]:   4788.60
	Linear fluid (dielectric constant: 78.4, screening length: 8.12261 Bohr) occupying 0.549103 of unit cell:	Completed after 15 iterations at t[s]:   4829.02
	Linear fluid (dielectric constant: 78.4, screening length: 8.12261 Bohr) occupying 0.548671 of unit cell:	Completed after 13 iterations at t[s]:   4859.85
	FillingsUpdate:  mu: -0.140135999  nElectrons: 380.000000  magneticMoment: [ Abs: 0.00000  Tot: -0.00000 ]
	SubspaceRotationAdjust: set factor to 0.213
ElecMinimize: Iter:   2  F: -2952.224284935240576  |grad|_K:  4.184e-07  alpha:  5.196e-01  linmin:  6.789e-09  t[s]:   4905.13
	Linear fluid (dielectric constant: 78.4, screening length: 8.12261 Bohr) occupying 0.549145 of unit cell:	Completed after 12 iterations at t[s]:   4945.26
	Linear fluid (dielectric constant: 78.4, screening length: 8.12261 Bohr) occupying 0.549135 of unit cell:	Completed after 2 iterations at t[s]:   4974.82
	FillingsUpdate:  mu: -0.138957215  nElectrons: 380.000000  magneticMoment: [ Abs: 0.00000  Tot: -0.00000 ]
	SubspaceRotationAdjust: set factor to 0.243
ElecMinimize: Iter:   3  F: -2952.224337865616235  |grad|_K:  2.922e-07  alpha:  5.086e-01  linmin: -3.547e-07  t[s]:   5020.03
	Linear fluid (dielectric constant: 78.4, screening length: 8.12261 Bohr) occupying 0.549373 of unit cell:	Completed after 10 iterations at t[s]:   5060.40
	Linear fluid (dielectric constant: 78.4, screening length: 8.12261 Bohr) occupying 0.549338 of unit cell:	Completed after 2 iterations at t[s]:   5090.13
	FillingsUpdate:  mu: -0.138780704  nElectrons: 380.000000  magneticMoment: [ Abs: 0.00000  Tot: -0.00000 ]
	SubspaceRotationAdjust: set factor to 0.282
ElecMinimize: Iter:   4  F: -2952.224359871479919  |grad|_K:  2.311e-07  alpha:  4.322e-01  linmin:  1.783e-08  t[s]:   5135.47
	Linear fluid (dielectric constant: 78.4, screening length: 8.12261 Bohr) occupying 0.549460 of unit cell:	Completed after 7 iterations at t[s]:   5175.74
	Linear fluid (dielectric constant: 78.4, screening length: 8.12261 Bohr) occupying 0.549464 of unit cell:	Completed after 2 iterations at t[s]:   5205.41
	FillingsUpdate:  mu: -0.139081046  nElectrons: 380.000000  magneticMoment: [ Abs: 0.00000  Tot: -0.00000 ]
	SubspaceRotationAdjust: set factor to 0.327
ElecMinimize: Iter:   5  F: -2952.224374050740153  |grad|_K:  1.533e-07  alpha:  4.465e-01  linmin: -5.028e-08  t[s]:   5250.72
	Linear fluid (dielectric constant: 78.4, screening length: 8.12261 Bohr) occupying 0.549522 of unit cell:	Completed after 9 iterations at t[s]:   5291.19
	Linear fluid (dielectric constant: 78.4, screening length: 8.12261 Bohr) occupying 0.549533 of unit cell:	Completed after 2 iterations at t[s]:   5321.08
	FillingsUpdate:  mu: -0.138839117  nElectrons: 380.000000  magneticMoment: [ Abs: 0.00000  Tot: -0.00000 ]
	SubspaceRotationAdjust: set factor to 0.374
ElecMinimize: Iter:   6  F: -2952.224381540695958  |grad|_K:  1.110e-07  alpha:  5.354e-01  linmin: -1.166e-07  t[s]:   5366.42
	Linear fluid (dielectric constant: 78.4, screening length: 8.12261 Bohr) occupying 0.549562 of unit cell:	Completed after 7 iterations at t[s]:   5406.43
	Linear fluid (dielectric constant: 78.4, screening length: 8.12261 Bohr) occupying 0.549558 of unit cell:	Completed after 2 iterations at t[s]:   5435.89
	FillingsUpdate:  mu: -0.138971609  nElectrons: 380.000000  magneticMoment: [ Abs: 0.00000  Tot: -0.00000 ]
	SubspaceRotationAdjust: set factor to 0.411
ElecMinimize: Iter:   7  F: -2952.224384926608764  |grad|_K:  7.819e-08  alpha:  4.614e-01  linmin:  1.827e-07  t[s]:   5481.20
	Linear fluid (dielectric constant: 78.4, screening length: 8.12261 Bohr) occupying 0.549572 of unit cell:	Completed after 7 iterations at t[s]:   5521.21
	Linear fluid (dielectric constant: 78.4, screening length: 8.12261 Bohr) occupying 0.549571 of unit cell:	Completed after 0 iterations at t[s]:   5550.87
	FillingsUpdate:  mu: -0.138803339  nElectrons: 380.000000  magneticMoment: [ Abs: 0.00000  Tot: -0.00000 ]
	SubspaceRotationAdjust: set factor to 0.402
ElecMinimize: Iter:   8  F: -2952.224386519303607  |grad|_K:  5.341e-08  alpha:  4.392e-01  linmin:  3.023e-07  t[s]:   5596.27
	Linear fluid (dielectric constant: 78.4, screening length: 8.12261 Bohr) occupying 0.549571 of unit cell:	Completed after 9 iterations at t[s]:   5636.79
	Linear fluid (dielectric constant: 78.4, screening length: 8.12261 Bohr) occupying 0.549571 of unit cell:	Completed after 2 iterations at t[s]:   5666.45
	FillingsUpdate:  mu: -0.138986520  nElectrons: 380.000000  magneticMoment: [ Abs: 0.00000  Tot: -0.00000 ]
	SubspaceRotationAdjust: set factor to 0.303
ElecMinimize: Iter:   9  F: -2952.224387069839395  |grad|_K:  4.294e-08  alpha:  3.269e-01  linmin:  1.580e-06  t[s]:   5711.84
	Linear fluid (dielectric constant: 78.4, screening length: 8.12261 Bohr) occupying 0.549572 of unit cell:	Completed after 6 iterations at t[s]:   5751.86
	Linear fluid (dielectric constant: 78.4, screening length: 8.12261 Bohr) occupying 0.549572 of unit cell:	Completed after 2 iterations at t[s]:   5781.56
	FillingsUpdate:  mu: -0.138873859  nElectrons: 380.000000  magneticMoment: [ Abs: 0.00000  Tot: -0.00000 ]
	SubspaceRotationAdjust: set factor to 0.223
ElecMinimize: Iter:  10  F: -2952.224387377830681  |grad|_K:  2.405e-08  alpha:  2.878e-01  linmin: -2.895e-06  t[s]:   5826.76
	Linear fluid (dielectric constant: 78.4, screening length: 8.12261 Bohr) occupying 0.549570 of unit cell:	Completed after 2 iterations at t[s]:   5866.87
	Linear fluid (dielectric constant: 78.4, screening length: 8.12261 Bohr) occupying 0.549570 of unit cell:	Completed after 0 iterations at t[s]:   5895.94
	FillingsUpdate:  mu: -0.138883720  nElectrons: 380.000000  magneticMoment: [ Abs: 0.00000  Tot: -0.00000 ]
	SubspaceRotationAdjust: set factor to 0.271
ElecMinimize: Iter:  11  F: -2952.224387521191602  |grad|_K:  1.619e-08  alpha:  4.051e-01  linmin: -9.766e-06  t[s]:   5941.23
	Linear fluid (dielectric constant: 78.4, screening length: 8.12261 Bohr) occupying 0.549567 of unit cell:	Completed after 4 iterations at t[s]:   5981.08
	Linear fluid (dielectric constant: 78.4, screening length: 8.12261 Bohr) occupying 0.549567 of unit cell:	Completed after 0 iterations at t[s]:   6010.41
	FillingsUpdate:  mu: -0.138928141  nElectrons: 380.000000  magneticMoment: [ Abs: 0.00000  Tot: -0.00000 ]
	SubspaceRotationAdjust: set factor to 0.244
ElecMinimize: Iter:  12  F: -2952.224387573594413  |grad|_K:  1.280e-08  alpha:  3.319e-01  linmin:  6.766e-06  t[s]:   6055.69
	Linear fluid (dielectric constant: 78.4, screening length: 8.12261 Bohr) occupying 0.549565 of unit cell:	Completed after 2 iterations at t[s]:   6095.13
	Linear fluid (dielectric constant: 78.4, screening length: 8.12261 Bohr) occupying 0.549566 of unit cell:	Completed after 0 iterations at t[s]:   6124.30
	FillingsUpdate:  mu: -0.138907919  nElectrons: 380.000000  magneticMoment: [ Abs: 0.00000  Tot: -0.00000 ]
	SubspaceRotationAdjust: set factor to 0.241
ElecMinimize: Iter:  13  F: -2952.224387598756493  |grad|_K:  8.312e-09  alpha:  2.678e-01  linmin: -2.716e-05  t[s]:   6169.62
ElecMinimize: Converged (|Delta F|<1.000000e-07 for 2 iters).
Setting wave functions to eigenvectors of Hamiltonian
Converging empty states (this may take a while): |deigs|: 1.258e-04
Single-point solvation energy estimate, DeltaF = -0.001450405746709

Computing DFT-D3 correction:
# coordination-number Ag 6.912 9.173 9.203 9.209 9.210 9.208 9.182 8.416 6.135 4.627 8.416 9.182 9.208 9.210 9.209 9.203 9.173 6.912 4.627 6.135
# diagonal-C6 Ag 268.61 268.61 268.61 268.61 268.61 268.61 268.61 268.61 268.61 268.61 268.61 268.61 268.61 268.61 268.61 268.61 268.61 268.61 268.61 268.61
EvdW_6 =   -0.125728
EvdW_8 =   -0.172998

# Ionic positions in cartesian coordinates:
ion Ag   0.000000000000000   4.848194000000000  21.210875000000005 1
ion Ag   0.000000000000000   9.696389000000000  18.786729000000005 1
ion Ag   0.000000000000000   2.424097000000000  16.362656000000001 1
ion Ag   0.000000000000000   7.272292000000000  13.938583000000000 1
ion Ag   0.000000000000000  12.120486000000000  11.514438000000002 1
ion Ag   0.000000000000000   4.848194000000000   9.090365000000000 1
ion Ag   0.000000000000000   9.696389000000000   6.666292000000000 1
ion Ag   0.000000000000000   2.424097000000000   4.242146000000000 1
ion Ag   0.000000000000000   7.272292000000000   1.818073000000000 1
ion Ag   0.000000000000000   0.000000000000000  23.634948000000001 1
ion Ag   3.832834000000000   1.212049000000000  19.998802000000001 1
ion Ag   3.832834000000000   6.060243000000000  17.574729000000001 1
ion Ag   3.832834000000000  10.908436999999999  15.150583000000001 1
ion Ag   3.832834000000000   3.636146000000000  12.726509999999999 1
ion Ag   3.832834000000000   8.484340000000000  10.302436999999999 1
ion Ag   3.832834000000000   1.212049000000000   7.878292000000001 1
ion Ag   3.832834000000000   6.060243000000000   5.454219000000000 1
ion Ag   3.832834000000000  10.908436999999999   3.030146000000000 1
ion Ag   3.832834000000000   3.636146000000000   0.606000000000000 1
ion Ag   3.832834000000000   8.484340000000000  22.422875000000005 1

# Forces in Cartesian coordinates:
force Ag   0.000002129441829   0.000061269524473   0.004921253899516 1
force Ag  -0.000001302614147  -0.000692924511945   0.000611760376138 1
force Ag   0.000000253479739  -0.000386019579021  -0.001798893142205 1
force Ag  -0.000002417517473   0.000488651909092   0.000542326839919 1
force Ag   0.000001122376588  -0.000577966160800  -0.000480327623294 1
force Ag   0.000005914480280   0.000090580798635   0.000977631221137 1
force Ag  -0.000002675480180   0.000353296677917   0.000829035445743 1
force Ag  -0.000001426870917  -0.003325391884093  -0.005044144386966 1
force Ag   0.000001360430779   0.002340393390869  -0.001928234013301 1
force Ag  -0.000003114152884  -0.000544773254726  -0.003828845044066 1
force Ag   0.000000599513954   0.003350233988492   0.004980940214247 1
force Ag   0.000002549623789  -0.000422442750668  -0.000836636939371 1
force Ag  -0.000005780132171  -0.000007100464324  -0.000927774613422 1
force Ag  -0.000000140219204   0.000509388252535   0.000553756794549 1
force Ag   0.000003205683030  -0.000463320909469  -0.000481820289646 1
force Ag  -0.000000506523319   0.000409885840178   0.001823930362970 1
force Ag   0.000000088130772   0.000630229642579  -0.000646272615627 1
force Ag  -0.000000665301425   0.000023215052538  -0.005015072945638 1
force Ag   0.000005136219387   0.000415398418836   0.003785298255632 1
force Ag   0.000001614433735  -0.002274386800998   0.001830667957760 1

# Energy components:
   A_diel =       -0.0018695380419920
   Eewald =    24221.6625686443767336
       EH =    26888.3663821756199468
     Eloc =   -54526.0428768373894854
      Enl =       78.8956488674659511
     EvdW =       -0.2987257164288569
      Exc =     -289.8412900778992025
 Exc_core =        4.1634126338420181
       KE =      670.8729083348413269
-------------------------------------
     Etot =    -2952.2238415136175718
       TS =        0.0005460851389242
-------------------------------------
        F =    -2952.2243875987564934


Dumping 'jdft.fillings' ... done
Dumping 'jdft.wfns' ... done
Dumping 'jdft.fluidState' ... done
Dumping 'jdft.ionpos' ... done
Dumping 'jdft.lattice' ... done
Dumping 'jdft.eigenvals' ... done
Dumping 'jdft.eigStats' ... 
	eMin: -3.523714 at state 0 ( [ +0.000000 +0.000000 +0.000000 ] spin 1 )
	HOMO: -0.140325 at state 28 ( [ -0.444444 -0.400000 +0.000000 ] spin 1 )
	mu  : -0.138908
	LUMO: -0.138246 at state 87 ( [ -0.111111 +0.400000 +0.000000 ] spin -1 )
	eMax: +0.159359 at state 0 ( [ +0.000000 +0.000000 +0.000000 ] spin 1 )
	HOMO-LUMO gap: +0.002079
	Optical gap  : +0.008292 at state 62 ( [ +0.333333 +0.400000 +0.000000 ] spin -1 )
Dumping 'jdft.Ecomponents' ... done
IonicMinimize: Iter:   0  F: -2952.224387598756493  |grad|_K:  1.748e-03  t[s]:   6484.88

#--- Lowdin population analysis ---
# oxidation-state Ag -0.005 -0.049 -0.002 +0.001 +0.006 -0.000 -0.025 -0.065 +0.024 +0.167 -0.065 -0.024 -0.000 +0.006 +0.001 -0.002 -0.049 -0.005 +0.167 +0.024
# magnetic-moments Ag +0.000 -0.000 +0.000 -0.000 -0.000 -0.000 +0.000 -0.000 -0.000 -0.000 -0.000 -0.000 -0.000 -0.000 -0.000 -0.000 -0.000 -0.000 -0.000 -0.000


Computing DFT-D3 correction:
# coordination-number Ag 6.910 9.167 9.197 9.211 9.212 9.204 9.178 8.410 6.133 4.638 8.410 9.178 9.205 9.212 9.211 9.197 9.166 6.910 4.638 6.134
# diagonal-C6 Ag 268.61 268.61 268.61 268.61 268.61 268.61 268.61 268.61 268.61 268.61 268.61 268.61 268.61 268.61 268.61 268.61 268.61 268.61 268.61 268.61
EvdW_6 =   -0.125714
EvdW_8 =   -0.172979

-------- Electronic minimization -----------
	Linear fluid (dielectric constant: 78.4, screening length: 8.12261 Bohr) occupying 0.549588 of unit cell:	Completed after 7 iterations at t[s]:   6526.87
	FillingsUpdate:  mu: -0.138912471  nElectrons: 380.000000  magneticMoment: [ Abs: 0.00000  Tot: -0.00000 ]
ElecMinimize: Iter:   0  F: -2952.224532120081676  |grad|_K:  1.496e-07  alpha:  1.000e+00
	Linear fluid (dielectric constant: 78.4, screening length: 8.12261 Bohr) occupying 0.549586 of unit cell:	Completed after 10 iterations at t[s]:   6618.83
	Linear fluid (dielectric constant: 78.4, screening length: 8.12261 Bohr) occupying 0.549586 of unit cell:	Completed after 3 iterations at t[s]:   6648.62
	FillingsUpdate:  mu: -0.139079753  nElectrons: 380.000000  magneticMoment: [ Abs: 0.00000  Tot: -0.00000 ]
	SubspaceRotationAdjust: set factor to 0.327
ElecMinimize: Iter:   1  F: -2952.224542879002911  |grad|_K:  1.687e-07  alpha:  8.083e-01  linmin:  7.420e-06  t[s]:   6693.60
	Linear fluid (dielectric constant: 78.4, screening length: 8.12261 Bohr) occupying 0.549590 of unit cell:	Completed after 10 iterations at t[s]:   6733.39
	Linear fluid (dielectric constant: 78.4, screening length: 8.12261 Bohr) occupying 0.549590 of unit cell:	Completed after 7 iterations at t[s]:   6763.54
	FillingsUpdate:  mu: -0.138910594  nElectrons: 380.000000  magneticMoment: [ Abs: 0.00000  Tot: +0.00000 ]
	SubspaceRotationAdjust: set factor to 0.356
ElecMinimize: Iter:   2  F: -2952.224553515686694  |grad|_K:  1.790e-07  alpha:  6.299e-01  linmin: -1.076e-05  t[s]:   6809.64
	Linear fluid (dielectric constant: 78.4, screening length: 8.12261 Bohr) occupying 0.549591 of unit cell:	Completed after 10 iterations at t[s]:   6850.24
	Linear fluid (dielectric constant: 78.4, screening length: 8.12261 Bohr) occupying 0.549590 of unit cell:	Completed after 7 iterations at t[s]:   6880.83
	FillingsUpdate:  mu: -0.138912603  nElectrons: 380.000000  magneticMoment: [ Abs: 0.00000  Tot: +0.00000 ]
	SubspaceRotationAdjust: set factor to 0.352
ElecMinimize: Iter:   3  F: -2952.224561497868763  |grad|_K:  1.105e-07  alpha:  4.184e-01  linmin:  2.154e-06  t[s]:   6926.06
	Linear fluid (dielectric constant: 78.4, screening length: 8.12261 Bohr) occupying 0.549590 of unit cell:	Completed after 7 iterations at t[s]:   6966.36
	Linear fluid (dielectric constant: 78.4, screening length: 8.12261 Bohr) occupying 0.549590 of unit cell:	Completed after 0 iterations at t[s]:   6995.61
	FillingsUpdate:  mu: -0.138983192  nElectrons: 380.000000  magneticMoment: [ Abs: 0.00000  Tot: +0.00000 ]
	SubspaceRotationAdjust: set factor to 0.322
ElecMinimize: Iter:   4  F: -2952.224564399821702  |grad|_K:  6.460e-08  alpha:  4.000e-01  linmin:  9.951e-05  t[s]:   7040.64
	Linear fluid (dielectric constant: 78.4, screening length: 8.12261 Bohr) occupying 0.549592 of unit cell:	Completed after 7 iterations at t[s]:   7081.03
	Linear fluid (dielectric constant: 78.4, screening length: 8.12261 Bohr) occupying 0.549591 of unit cell:	Completed after 2 iterations at t[s]:   7110.81
	FillingsUpdate:  mu: -0.138896425  nElectrons: 380.000000  magneticMoment: [ Abs: 0.00000  Tot: +0.00000 ]
	SubspaceRotationAdjust: set factor to 0.254
ElecMinimize: Iter:   5  F: -2952.224565184952553  |grad|_K:  3.828e-08  alpha:  3.207e-01  linmin: -9.791e-05  t[s]:   7155.89
	Linear fluid (dielectric constant: 78.4, screening length: 8.12261 Bohr) occupying 0.549590 of unit cell:	Completed after 6 iterations at t[s]:   7195.93
	Linear fluid (dielectric constant: 78.4, screening length: 8.12261 Bohr) occupying 0.549590 of unit cell:	Completed after 0 iterations at t[s]:   7225.06
	FillingsUpdate:  mu: -0.138959898  nElectrons: 380.000000  magneticMoment: [ Abs: 0.00000  Tot: +0.00000 ]
	SubspaceRotationAdjust: set factor to 0.196
ElecMinimize: Iter:   6  F: -2952.224565490509576  |grad|_K:  2.152e-08  alpha:  3.478e-01  linmin: -1.064e-03  t[s]:   7270.24
	Linear fluid (dielectric constant: 78.4, screening length: 8.12261 Bohr) occupying 0.549590 of unit cell:	Completed after 2 iterations at t[s]:   7309.72
	Linear fluid (dielectric constant: 78.4, screening length: 8.12261 Bohr) occupying 0.549590 of unit cell:	Completed after 0 iterations at t[s]:   7338.99
	FillingsUpdate:  mu: -0.138949820  nElectrons: 380.000000  magneticMoment: [ Abs: 0.00000  Tot: +0.00000 ]
	SubspaceRotationAdjust: set factor to 0.226
ElecMinimize: Iter:   7  F: -2952.224565604451072  |grad|_K:  1.438e-08  alpha:  3.969e-01  linmin: -6.955e-04  t[s]:   7384.20
	Linear fluid (dielectric constant: 78.4, screening length: 8.12261 Bohr) occupying 0.549590 of unit cell:	Completed after 2 iterations at t[s]:   7423.71
	Linear fluid (dielectric constant: 78.4, screening length: 8.12261 Bohr) occupying 0.549590 of unit cell:	Completed after 0 iterations at t[s]:   7453.25
	FillingsUpdate:  mu: -0.138934201  nElectrons: 380.000000  magneticMoment: [ Abs: 0.00000  Tot: +0.00000 ]
	SubspaceRotationAdjust: set factor to 0.206
ElecMinimize: Iter:   8  F: -2952.224565645772145  |grad|_K:  1.048e-08  alpha:  3.296e-01  linmin:  1.022e-03  t[s]:   7498.43
	Linear fluid (dielectric constant: 78.4, screening length: 8.12261 Bohr) occupying 0.549590 of unit cell:	Completed after 1 iterations at t[s]:   7537.75
	Linear fluid (dielectric constant: 78.4, screening length: 8.12261 Bohr) occupying 0.549590 of unit cell:	Completed after 0 iterations at t[s]:   7566.97
	FillingsUpdate:  mu: -0.138939240  nElectrons: 380.000000  magneticMoment: [ Abs: 0.00000  Tot: +0.00000 ]
	SubspaceRotationAdjust: set factor to 0.245
ElecMinimize: Iter:   9  F: -2952.224565663148041  |grad|_K:  6.487e-09  alpha:  2.798e-01  linmin: -2.301e-03  t[s]:   7612.33
ElecMinimize: Converged (|Delta F|<1.000000e-07 for 2 iters).
Setting wave functions to eigenvectors of Hamiltonian
Converging empty states (this may take a while): |deigs|: 1.934e-08

Computing DFT-D3 correction:
# coordination-number Ag 6.910 9.167 9.197 9.211 9.212 9.204 9.178 8.410 6.133 4.638 8.410 9.178 9.205 9.212 9.211 9.197 9.166 6.910 4.638 6.134
# diagonal-C6 Ag 268.61 268.61 268.61 268.61 268.61 268.61 268.61 268.61 268.61 268.61 268.61 268.61 268.61 268.61 268.61 268.61 268.61 268.61 268.61 268.61
EvdW_6 =   -0.125714
EvdW_8 =   -0.172979
IonicMinimize: 	Wolfe criterion not satisfied: alpha: 1  (E-E0)/|gdotd0|: -0.971643  gdotd/gdotd0: 0.937476 (taking cubic step)

Computing DFT-D3 correction:
# coordination-number Ag 6.907 9.154 9.185 9.215 9.218 9.197 9.170 8.397 6.130 4.659 8.398 9.170 9.197 9.218 9.214 9.184 9.153 6.906 4.659 6.130
# diagonal-C6 Ag 268.61 268.61 268.61 268.61 268.61 268.61 268.61 268.61 268.61 268.61 268.61 268.61 268.61 268.61 268.61 268.61 268.61 268.61 268.61 268.61
EvdW_6 =   -0.125687
EvdW_8 =   -0.172943

-------- Electronic minimization -----------
	Linear fluid (dielectric constant: 78.4, screening length: 8.12261 Bohr) occupying 0.549653 of unit cell:	Completed after 8 iterations at t[s]:   7767.68
	FillingsUpdate:  mu: -0.138999447  nElectrons: 380.000000  magneticMoment: [ Abs: 0.00000  Tot: +0.00000 ]
ElecMinimize: Iter:   0  F: -2952.224759035306761  |grad|_K:  2.974e-07  alpha:  1.000e+00
	Linear fluid (dielectric constant: 78.4, screening length: 8.12261 Bohr) occupying 0.549653 of unit cell:	Completed after 10 iterations at t[s]:   7859.65
	Linear fluid (dielectric constant: 78.4, screening length: 8.12261 Bohr) occupying 0.549653 of unit cell:	Completed after 3 iterations at t[s]:   7889.64
	FillingsUpdate:  mu: -0.139196032  nElectrons: 380.000000  magneticMoment: [ Abs: 0.00000  Tot: +0.00000 ]
	SubspaceRotationAdjust: set factor to 0.338
ElecMinimize: Iter:   1  F: -2952.224803889731902  |grad|_K:  3.364e-07  alpha:  8.533e-01  linmin: -9.714e-06  t[s]:   7934.59
	Linear fluid (dielectric constant: 78.4, screening length: 8.12261 Bohr) occupying 0.549663 of unit cell:	Completed after 11 iterations at t[s]:   7974.76
	Linear fluid (dielectric constant: 78.4, screening length: 8.12261 Bohr) occupying 0.549661 of unit cell:	Completed after 6 iterations at t[s]:   8004.77
	FillingsUpdate:  mu: -0.138880675  nElectrons: 380.000000  magneticMoment: [ Abs: 0.00000  Tot: -0.00000 ]
	SubspaceRotationAdjust: set factor to 0.388
ElecMinimize: Iter:   2  F: -2952.224847058252635  |grad|_K:  3.547e-07  alpha:  6.412e-01  linmin:  8.504e-07  t[s]:   8050.01
	Linear fluid (dielectric constant: 78.4, screening length: 8.12261 Bohr) occupying 0.549661 of unit cell:	Completed after 10 iterations at t[s]:   8090.65
	Linear fluid (dielectric constant: 78.4, screening length: 8.12261 Bohr) occupying 0.549661 of unit cell:	Completed after 6 iterations at t[s]:   8121.03
	FillingsUpdate:  mu: -0.138985480  nElectrons: 380.000000  magneticMoment: [ Abs: 0.00000  Tot: -0.00000 ]
	SubspaceRotationAdjust: set factor to 0.426
ElecMinimize: Iter:   3  F: -2952.224877533554718  |grad|_K:  2.121e-07  alpha:  4.075e-01  linmin:  9.978e-07  t[s]:   8166.38
	Linear fluid (dielectric constant: 78.4, screening length: 8.12261 Bohr) occupying 0.549661 of unit cell:	Completed after 7 iterations at t[s]:   8206.96
	Linear fluid (dielectric constant: 78.4, screening length: 8.12261 Bohr) occupying 0.549661 of unit cell:	Completed after 0 iterations at t[s]:   8236.66
	FillingsUpdate:  mu: -0.138979612  nElectrons: 380.000000  magneticMoment: [ Abs: 0.00000  Tot: -0.00000 ]
	SubspaceRotationAdjust: set factor to 0.433
ElecMinimize: Iter:   4  F: -2952.224888425670542  |grad|_K:  1.157e-07  alpha:  4.071e-01  linmin: -2.475e-06  t[s]:   8281.85
	Linear fluid (dielectric constant: 78.4, screening length: 8.12261 Bohr) occupying 0.549661 of unit cell:	Completed after 6 iterations at t[s]:   8322.01
	Linear fluid (dielectric constant: 78.4, screening length: 8.12261 Bohr) occupying 0.549661 of unit cell:	Completed after 2 iterations at t[s]:   8351.84
	FillingsUpdate:  mu: -0.139022296  nElectrons: 380.000000  magneticMoment: [ Abs: 0.00000  Tot: -0.00000 ]
	SubspaceRotationAdjust: set factor to 0.398
ElecMinimize: Iter:   5  F: -2952.224891299327282  |grad|_K:  6.899e-08  alpha:  3.613e-01  linmin:  3.328e-05  t[s]:   8397.12
	Linear fluid (dielectric constant: 78.4, screening length: 8.12261 Bohr) occupying 0.549662 of unit cell:	Completed after 7 iterations at t[s]:   8437.14
	Linear fluid (dielectric constant: 78.4, screening length: 8.12261 Bohr) occupying 0.549662 of unit cell:	Completed after 2 iterations at t[s]:   8466.66
	FillingsUpdate:  mu: -0.138954034  nElectrons: 380.000000  magneticMoment: [ Abs: 0.00000  Tot: -0.00000 ]
	SubspaceRotationAdjust: set factor to 0.287
ElecMinimize: Iter:   6  F: -2952.224892214451302  |grad|_K:  4.950e-08  alpha:  3.248e-01  linmin:  1.146e-04  t[s]:   8511.95
	Linear fluid (dielectric constant: 78.4, screening length: 8.12261 Bohr) occupying 0.549661 of unit cell:	Completed after 7 iterations at t[s]:   8552.00
	Linear fluid (dielectric constant: 78.4, screening length: 8.12261 Bohr) occupying 0.549661 of unit cell:	Completed after 2 iterations at t[s]:   8581.78
	FillingsUpdate:  mu: -0.139007746  nElectrons: 380.000000  magneticMoment: [ Abs: 0.00000  Tot: -0.00000 ]
	SubspaceRotationAdjust: set factor to 0.2
ElecMinimize: Iter:   7  F: -2952.224892589720639  |grad|_K:  2.825e-08  alpha:  2.594e-01  linmin:  3.026e-04  t[s]:   8627.01
	Linear fluid (dielectric constant: 78.4, screening length: 8.12261 Bohr) occupying 0.549660 of unit cell:	Completed after 2 iterations at t[s]:   8666.43
	Linear fluid (dielectric constant: 78.4, screening length: 8.12261 Bohr) occupying 0.549660 of unit cell:	Completed after 0 iterations at t[s]:   8695.62
	FillingsUpdate:  mu: -0.139007080  nElectrons: 380.000000  magneticMoment: [ Abs: 0.00000  Tot: +0.00000 ]
	SubspaceRotationAdjust: set factor to 0.26
ElecMinimize: Iter:   8  F: -2952.224892793694380  |grad|_K:  1.763e-08  alpha:  4.278e-01  linmin: -1.808e-03  t[s]:   8740.91
	Linear fluid (dielectric constant: 78.4, screening length: 8.12261 Bohr) occupying 0.549659 of unit cell:	Completed after 4 iterations at t[s]:   8780.62
	Linear fluid (dielectric constant: 78.4, screening length: 8.12261 Bohr) occupying 0.549660 of unit cell:	Completed after 1 iterations at t[s]:   8810.22
	FillingsUpdate:  mu: -0.138998359  nElectrons: 380.000000  magneticMoment: [ Abs: 0.00000  Tot: +0.00000 ]
	SubspaceRotationAdjust: set factor to 0.234
ElecMinimize: Iter:   9  F: -2952.224892848845229  |grad|_K:  1.350e-08  alpha:  3.133e-01  linmin: -1.161e-03  t[s]:   8855.62
	Linear fluid (dielectric constant: 78.4, screening length: 8.12261 Bohr) occupying 0.549659 of unit cell:	Completed after 2 iterations at t[s]:   8895.45
	Linear fluid (dielectric constant: 78.4, screening length: 8.12261 Bohr) occupying 0.549659 of unit cell:	Completed after 0 iterations at t[s]:   8924.59
	FillingsUpdate:  mu: -0.139007157  nElectrons: 380.000000  magneticMoment: [ Abs: 0.00000  Tot: +0.00000 ]
	SubspaceRotationAdjust: set factor to 0.309
ElecMinimize: Iter:  10  F: -2952.224892885392364  |grad|_K:  8.855e-09  alpha:  3.271e-01  linmin: -2.165e-03  t[s]:   8969.74
ElecMinimize: Converged (|Delta F|<1.000000e-07 for 2 iters).
Setting wave functions to eigenvectors of Hamiltonian
Converging empty states (this may take a while): |deigs|: 5.642e-08

Computing DFT-D3 correction:
# coordination-number Ag 6.907 9.154 9.185 9.215 9.218 9.197 9.170 8.397 6.130 4.659 8.398 9.170 9.197 9.218 9.214 9.184 9.153 6.906 4.659 6.130
# diagonal-C6 Ag 268.61 268.61 268.61 268.61 268.61 268.61 268.61 268.61 268.61 268.61 268.61 268.61 268.61 268.61 268.61 268.61 268.61 268.61 268.61 268.61
EvdW_6 =   -0.125687
EvdW_8 =   -0.172943

# Ionic positions in cartesian coordinates:
ion Ag   0.000005496575163   4.848381075996404  21.225658474735440 1
ion Ag  -0.000004799592766   9.694313493887151  18.788583994165307 1
ion Ag  -0.000000131311106   2.422942208685923  16.357279033610276 1
ion Ag  -0.000008144302742   7.273761223150260  13.940229693556645 1
ion Ag   0.000002475379440  12.118755368940583  11.513016730167008 1
ion Ag   0.000016851690516   4.848469009818889   9.093317606700301 1
ion Ag  -0.000008918190863   9.697452157456736   6.668798819374119 1
ion Ag  -0.000005172363077   2.414124091770705   4.227033279875990 1
ion Ag   0.000003189542013   7.279316447595592   1.812308010996987 1
ion Ag  -0.000010234208976  -0.001631052341193  23.623481177904690 1
ion Ag   3.832834906791537   1.222102969388460  20.013764533679630 1
ion Ag   3.832840757121041   6.058978939170981  17.572238802218781 1
ion Ag   3.832815767853161  10.908418966030013  15.147819389196624 1
ion Ag   3.832832687592064   3.637677432180589  12.728190983420536 1
ion Ag   3.832842725298766   8.482953304694579  10.301011252167950 1
ion Ag   3.832831588679719   1.213281924943520   7.883783504125801 1
ion Ag   3.832833372641990   6.062136956350724   5.452299895190008 1
ion Ag   3.832831112345401  10.908509912580598   3.015120494199974 1
ion Ag   3.832848516907835   3.637395462679493   0.617375607803784 1
ion Ag   3.832837951550881   8.477520107019991  22.428386716910172 1

# Forces in Cartesian coordinates:
force Ag   0.000002264584730   0.000233962404227   0.004303771830533 1
force Ag  -0.000001108500359  -0.000522370226888   0.000564774615776 1
force Ag   0.000000321084221  -0.000408389857465  -0.001087427543957 1
force Ag  -0.000001818128900   0.000490033009752   0.000481530079811 1
force Ag   0.000000361505794  -0.000495134086438  -0.000456550261229 1
force Ag   0.000004969459469  -0.000036343969055   0.000413768511884 1
force Ag  -0.000002205175003   0.000370293069696   0.000378709346933 1
force Ag  -0.000000462877368  -0.002845232689941  -0.004136543358197 1
force Ag   0.000002078712517   0.002103786725717  -0.001649024625183 1
force Ag  -0.000004159343181  -0.000689216241370  -0.003109454068431 1
force Ag   0.000000488972754   0.002888722812937   0.004110662478845 1
force Ag   0.000002031693479  -0.000422112123507  -0.000425759205319 1
force Ag  -0.000004868934021   0.000097593244372  -0.000444847440782 1
force Ag  -0.000000052507181   0.000447436889688   0.000406478368102 1
force Ag   0.000002576897223  -0.000465398552015  -0.000525034806893 1
force Ag  -0.000000185588074   0.000432349936084   0.001046637845962 1
force Ag   0.000000117433172   0.000468670056675  -0.000598526529001 1
force Ag  -0.000001067601089  -0.000162516924468  -0.004305226420758 1
force Ag   0.000004156179299   0.000583946536161   0.003116227244775 1
force Ag   0.000000582116945  -0.002047218535905   0.001656312178434 1

# Energy components:
   A_diel =       -0.0018715566283742
   Eewald =    24212.8671872646627889
       EH =    26879.5347140517806110
     Eloc =   -54508.4135485044535017
      Enl =       78.8959568384887575
     EvdW =       -0.2986300266972682
      Exc =     -289.8394091786283298
 Exc_core =        4.1634125335553280
       KE =      670.8678378672771032
-------------------------------------
     Etot =    -2952.2243507106468314
       TS =        0.0005421747456254
-------------------------------------
        F =    -2952.2248928853923644


Dumping 'jdft.fillings' ... done
Dumping 'jdft.wfns' ... done
Dumping 'jdft.fluidState' ... done
Dumping 'jdft.ionpos' ... done
Dumping 'jdft.lattice' ... done
Dumping 'jdft.eigenvals' ... done
Dumping 'jdft.eigStats' ... 
	eMin: -3.523822 at state 0 ( [ +0.000000 +0.000000 +0.000000 ] spin 1 )
	HOMO: -0.140366 at state 62 ( [ +0.333333 +0.400000 +0.000000 ] spin -1 )
	mu  : -0.139007
	LUMO: -0.138293 at state 87 ( [ -0.111111 +0.400000 +0.000000 ] spin -1 )
	eMax: +0.159288 at state 45 ( [ +0.000000 +0.000000 +0.000000 ] spin -1 )
	HOMO-LUMO gap: +0.002073
	Optical gap  : +0.008210 at state 62 ( [ +0.333333 +0.400000 +0.000000 ] spin -1 )
Dumping 'jdft.Ecomponents' ... done
IonicMinimize: Iter:   1  F: -2952.224892885392364  |grad|_K:  1.463e-03  alpha:  3.000e+00  linmin: -9.951e-01  t[s]:   9084.30

#--- Lowdin population analysis ---
# oxidation-state Ag -0.006 -0.049 -0.002 +0.001 +0.005 -0.000 -0.024 -0.065 +0.025 +0.165 -0.065 -0.024 -0.000 +0.005 +0.001 -0.002 -0.049 -0.006 +0.165 +0.025
# magnetic-moments Ag +0.000 -0.000 +0.000 -0.000 +0.000 -0.000 -0.000 +0.000 +0.000 +0.000 -0.000 +0.000 -0.000 -0.000 +0.000 +0.000 +0.000 -0.000 +0.000 -0.000


Computing DFT-D3 correction:
# coordination-number Ag 6.875 9.063 9.075 9.171 9.179 9.123 9.111 8.312 6.117 4.801 8.297 9.096 9.112 9.177 9.177 9.090 9.080 6.888 4.803 6.109
# diagonal-C6 Ag 268.61 268.61 268.61 268.61 268.61 268.61 268.61 268.61 268.61 268.61 268.61 268.61 268.61 268.61 268.61 268.61 268.61 268.61 268.61 268.61
EvdW_6 =   -0.125316
EvdW_8 =   -0.172545

-------- Electronic minimization -----------
	Linear fluid (dielectric constant: 78.4, screening length: 8.12261 Bohr) occupying 0.549808 of unit cell:	Completed after 25 iterations at t[s]:   9123.63
	FillingsUpdate:  mu: +0.103380122  nElectrons: 380.000000  magneticMoment: [ Abs: 0.00000  Tot: +0.00000 ]
ElecMinimize: Iter:   0  F: -2950.107646992314130  |grad|_K:  1.142e-04  alpha:  1.000e+00
	Linear fluid (dielectric constant: 78.4, screening length: 8.12261 Bohr) occupying 0.527358 of unit cell:	Completed after 26 iterations at t[s]:   9217.66
	Linear fluid (dielectric constant: 78.4, screening length: 8.12261 Bohr) occupying 0.544869 of unit cell:	Completed after 26 iterations at t[s]:   9250.46
	FillingsUpdate:  mu: -0.298656092  nElectrons: 380.000000  magneticMoment: [ Abs: 0.00000  Tot: -0.00000 ]
	SubspaceRotationAdjust: set factor to 0.202
ElecMinimize: Iter:   1  F: -2951.904556633317043  |grad|_K:  4.247e-05  alpha:  2.449e-01  linmin:  3.153e-03  t[s]:   9295.65
	Linear fluid (dielectric constant: 78.4, screening length: 8.12261 Bohr) occupying 0.548909 of unit cell:	Completed after 24 iterations at t[s]:   9337.70
	Linear fluid (dielectric constant: 78.4, screening length: 8.12261 Bohr) occupying 0.548919 of unit cell:	Completed after 10 iterations at t[s]:   9368.43
	FillingsUpdate:  mu: -0.133762242  nElectrons: 380.000000  magneticMoment: [ Abs: 0.00000  Tot: -0.00000 ]
	SubspaceRotationAdjust: set factor to 0.158
ElecMinimize: Iter:   2  F: -2952.154641439633451  |grad|_K:  1.268e-05  alpha:  2.456e-01  linmin:  2.221e-06  t[s]:   9413.68
	Linear fluid (dielectric constant: 78.4, screening length: 8.12261 Bohr) occupying 0.549237 of unit cell:	Completed after 17 iterations at t[s]:   9455.41
	Linear fluid (dielectric constant: 78.4, screening length: 8.12261 Bohr) occupying 0.549322 of unit cell:	Completed after 15 iterations at t[s]:   9486.61
	FillingsUpdate:  mu: -0.142623230  nElectrons: 380.000000  magneticMoment: [ Abs: 0.00000  Tot: -0.00000 ]
	SubspaceRotationAdjust: set factor to 0.204
ElecMinimize: Iter:   3  F: -2952.184509956447528  |grad|_K:  6.884e-06  alpha:  3.122e-01  linmin: -2.107e-05  t[s]:   9531.92
	Linear fluid (dielectric constant: 78.4, screening length: 8.12261 Bohr) occupying 0.549542 of unit cell:	Completed after 17 iterations at t[s]:   9573.47
	Linear fluid (dielectric constant: 78.4, screening length: 8.12261 Bohr) occupying 0.549607 of unit cell:	Completed after 14 iterations at t[s]:   9604.69
	FillingsUpdate:  mu: -0.153182176  nElectrons: 380.000000  magneticMoment: [ Abs: 0.00000  Tot: -0.00000 ]
	SubspaceRotationAdjust: set factor to 0.257
ElecMinimize: Iter:   4  F: -2952.195938671830845  |grad|_K:  5.269e-06  alpha:  4.052e-01  linmin: -3.106e-06  t[s]:   9650.02
	Linear fluid (dielectric constant: 78.4, screening length: 8.12261 Bohr) occupying 0.550132 of unit cell:	Completed after 15 iterations at t[s]:   9691.38
	Linear fluid (dielectric constant: 78.4, screening length: 8.12261 Bohr) occupying 0.550511 of unit cell:	Completed after 15 iterations at t[s]:   9722.82
	FillingsUpdate:  mu: -0.128157274  nElectrons: 380.000000  magneticMoment: [ Abs: 0.00000  Tot: -0.00000 ]
	SubspaceRotationAdjust: set factor to 0.312
ElecMinimize: Iter:   5  F: -2952.207623409516145  |grad|_K:  5.111e-06  alpha:  7.069e-01  linmin: -8.869e-06  t[s]:   9768.27
	Linear fluid (dielectric constant: 78.4, screening length: 8.12261 Bohr) occupying 0.550835 of unit cell:	Completed after 15 iterations at t[s]:   9809.33
	Linear fluid (dielectric constant: 78.4, screening length: 8.12261 Bohr) occupying 0.550764 of unit cell:	Completed after 12 iterations at t[s]:   9840.18
	FillingsUpdate:  mu: -0.135790246  nElectrons: 380.000000  magneticMoment: [ Abs: 0.00000  Tot: -0.00000 ]
	SubspaceRotationAdjust: set factor to 0.379
ElecMinimize: Iter:   6  F: -2952.215799836068527  |grad|_K:  4.593e-06  alpha:  5.267e-01  linmin: -4.057e-06  t[s]:   9885.63
	Linear fluid (dielectric constant: 78.4, screening length: 8.12261 Bohr) occupying 0.550711 of unit cell:	Completed after 15 iterations at t[s]:   9926.63
	Linear fluid (dielectric constant: 78.4, screening length: 8.12261 Bohr) occupying 0.550718 of unit cell:	Completed after 9 iterations at t[s]:   9957.58
	FillingsUpdate:  mu: -0.139558055  nElectrons: 380.000000  magneticMoment: [ Abs: 0.00000  Tot: +0.00000 ]
	SubspaceRotationAdjust: set factor to 0.418
ElecMinimize: Iter:   7  F: -2952.221902375596983  |grad|_K:  3.482e-06  alpha:  4.854e-01  linmin:  7.876e-06  t[s]:  10002.79
	Linear fluid (dielectric constant: 78.4, screening length: 8.12261 Bohr) occupying 0.550557 of unit cell:	Completed after 16 iterations at t[s]:  10043.90
	Linear fluid (dielectric constant: 78.4, screening length: 8.12261 Bohr) occupying 0.550594 of unit cell:	Completed after 13 iterations at t[s]:  10075.62
	FillingsUpdate:  mu: -0.133588578  nElectrons: 380.000000  magneticMoment: [ Abs: 0.00000  Tot: +0.00000 ]
	SubspaceRotationAdjust: set factor to 0.421
ElecMinimize: Iter:   8  F: -2952.224677514318046  |grad|_K:  2.232e-06  alpha:  3.856e-01  linmin:  3.358e-06  t[s]:  10120.83
	Linear fluid (dielectric constant: 78.4, screening length: 8.12261 Bohr) occupying 0.550216 of unit cell:	Completed after 16 iterations at t[s]:  10162.10
	Linear fluid (dielectric constant: 78.4, screening length: 8.12261 Bohr) occupying 0.550267 of unit cell:	Completed after 11 iterations at t[s]:  10192.68
	FillingsUpdate:  mu: -0.142795722  nElectrons: 380.000000  magneticMoment: [ Abs: 0.00000  Tot: +0.00000 ]
	SubspaceRotationAdjust: set factor to 0.346
ElecMinimize: Iter:   9  F: -2952.225666316144270  |grad|_K:  1.415e-06  alpha:  3.342e-01  linmin:  1.410e-06  t[s]:  10237.92
	Linear fluid (dielectric constant: 78.4, screening length: 8.12261 Bohr) occupying 0.550196 of unit cell:	Completed after 14 iterations at t[s]:  10278.79
	Linear fluid (dielectric constant: 78.4, screening length: 8.12261 Bohr) occupying 0.550190 of unit cell:	Completed after 10 iterations at t[s]:  10309.33
	FillingsUpdate:  mu: -0.137420335  nElectrons: 380.000000  magneticMoment: [ Abs: 0.00000  Tot: +0.00000 ]
	SubspaceRotationAdjust: set factor to 0.295
ElecMinimize: Iter:  10  F: -2952.226097065783051  |grad|_K:  1.005e-06  alpha:  3.621e-01  linmin:  3.387e-06  t[s]:  10354.44
	Linear fluid (dielectric constant: 78.4, screening length: 8.12261 Bohr) occupying 0.550056 of unit cell:	Completed after 14 iterations at t[s]:  10395.38
	Linear fluid (dielectric constant: 78.4, screening length: 8.12261 Bohr) occupying 0.550073 of unit cell:	Completed after 10 iterations at t[s]:  10426.15
	FillingsUpdate:  mu: -0.139728331  nElectrons: 380.000000  magneticMoment: [ Abs: 0.00000  Tot: +0.00000 ]
	SubspaceRotationAdjust: set factor to 0.326
ElecMinimize: Iter:  11  F: -2952.226286556187006  |grad|_K:  6.044e-07  alpha:  3.154e-01  linmin:  1.977e-06  t[s]:  10471.42
	Linear fluid (dielectric constant: 78.4, screening length: 8.12261 Bohr) occupying 0.550024 of unit cell:	Completed after 11 iterations at t[s]:  10512.59
	Linear fluid (dielectric constant: 78.4, screening length: 8.12261 Bohr) occupying 0.550009 of unit cell:	Completed after 6 iterations at t[s]:  10542.68
	FillingsUpdate:  mu: -0.140293202  nElectrons: 380.000000  magneticMoment: [ Abs: 0.00000  Tot: +0.00000 ]
	SubspaceRotationAdjust: set factor to 0.396
ElecMinimize: Iter:  12  F: -2952.226375027807990  |grad|_K:  4.232e-07  alpha:  4.073e-01  linmin: -2.224e-06  t[s]:  10588.00
	Linear fluid (dielectric constant: 78.4, screening length: 8.12261 Bohr) occupying 0.549999 of unit cell:	Completed after 12 iterations at t[s]:  10628.85
	Linear fluid (dielectric constant: 78.4, screening length: 8.12261 Bohr) occupying 0.549999 of unit cell:	Completed after 2 iterations at t[s]:  10658.49
	FillingsUpdate:  mu: -0.138882662  nElectrons: 380.000000  magneticMoment: [ Abs: 0.00000  Tot: +0.00000 ]
	SubspaceRotationAdjust: set factor to 0.457
ElecMinimize: Iter:  13  F: -2952.226420833663269  |grad|_K:  3.538e-07  alpha:  4.301e-01  linmin: -6.798e-06  t[s]:  10704.52
	Linear fluid (dielectric constant: 78.4, screening length: 8.12261 Bohr) occupying 0.549967 of unit cell:	Completed after 12 iterations at t[s]:  10745.39
	Linear fluid (dielectric constant: 78.4, screening length: 8.12261 Bohr) occupying 0.549973 of unit cell:	Completed after 10 iterations at t[s]:  10775.95
	FillingsUpdate:  mu: -0.140193152  nElectrons: 380.000000  magneticMoment: [ Abs: 0.00000  Tot: +0.00000 ]
	SubspaceRotationAdjust: set factor to 0.504
ElecMinimize: Iter:  14  F: -2952.226447049489252  |grad|_K:  2.821e-07  alpha:  3.518e-01  linmin:  4.503e-06  t[s]:  10821.54
	Linear fluid (dielectric constant: 78.4, screening length: 8.12261 Bohr) occupying 0.549987 of unit cell:	Completed after 10 iterations at t[s]:  10862.16
	Linear fluid (dielectric constant: 78.4, screening length: 8.12261 Bohr) occupying 0.549990 of unit cell:	Completed after 5 iterations at t[s]:  10892.26
	FillingsUpdate:  mu: -0.139402656  nElectrons: 380.000000  magneticMoment: [ Abs: 0.00000  Tot: +0.00000 ]
	SubspaceRotationAdjust: set factor to 0.575
ElecMinimize: Iter:  15  F: -2952.226466320243617  |grad|_K:  2.107e-07  alpha:  4.077e-01  linmin: -2.176e-06  t[s]:  10937.58
	Linear fluid (dielectric constant: 78.4, screening length: 8.12261 Bohr) occupying 0.549997 of unit cell:	Completed after 10 iterations at t[s]:  10978.31
	Linear fluid (dielectric constant: 78.4, screening length: 8.12261 Bohr) occupying 0.549996 of unit cell:	Completed after 2 iterations at t[s]:  11007.92
	FillingsUpdate:  mu: -0.139714786  nElectrons: 380.000000  magneticMoment: [ Abs: 0.00000  Tot: -0.00000 ]
	SubspaceRotationAdjust: set factor to 0.596
ElecMinimize: Iter:  16  F: -2952.226476288012691  |grad|_K:  1.464e-07  alpha:  3.775e-01  linmin:  3.735e-06  t[s]:  11053.29
	Linear fluid (dielectric constant: 78.4, screening length: 8.12261 Bohr) occupying 0.550012 of unit cell:	Completed after 9 iterations at t[s]:  11093.77
	Linear fluid (dielectric constant: 78.4, screening length: 8.12261 Bohr) occupying 0.550011 of unit cell:	Completed after 0 iterations at t[s]:  11123.10
	FillingsUpdate:  mu: -0.139472382  nElectrons: 380.000000  magneticMoment: [ Abs: 0.00000  Tot: -0.00000 ]
	SubspaceRotationAdjust: set factor to 0.508
ElecMinimize: Iter:  17  F: -2952.226480878246093  |grad|_K:  1.190e-07  alpha:  3.605e-01  linmin:  1.783e-05  t[s]:  11168.28
	Linear fluid (dielectric constant: 78.4, screening length: 8.12261 Bohr) occupying 0.550018 of unit cell:	Completed after 10 iterations at t[s]:  11208.97
	Linear fluid (dielectric constant: 78.4, screening length: 8.12261 Bohr) occupying 0.550015 of unit cell:	Completed after 9 iterations at t[s]:  11239.48
	FillingsUpdate:  mu: -0.139631148  nElectrons: 380.000000  magneticMoment: [ Abs: 0.00000  Tot: -0.00000 ]
	SubspaceRotationAdjust: set factor to 0.339
ElecMinimize: Iter:  18  F: -2952.226482620598745  |grad|_K:  8.904e-08  alpha:  2.111e-01  linmin: -1.308e-05  t[s]:  11284.44
	Linear fluid (dielectric constant: 78.4, screening length: 8.12261 Bohr) occupying 0.550019 of unit cell:	Completed after 6 iterations at t[s]:  11324.44
	Linear fluid (dielectric constant: 78.4, screening length: 8.12261 Bohr) occupying 0.550021 of unit cell:	Completed after 3 iterations at t[s]:  11354.29
	FillingsUpdate:  mu: -0.139647186  nElectrons: 380.000000  magneticMoment: [ Abs: 0.00000  Tot: -0.00000 ]
	SubspaceRotationAdjust: set factor to 0.368
ElecMinimize: Iter:  19  F: -2952.226484016318864  |grad|_K:  5.902e-08  alpha:  2.950e-01  linmin: -4.701e-05  t[s]:  11399.38
	Linear fluid (dielectric constant: 78.4, screening length: 8.12261 Bohr) occupying 0.550025 of unit cell:	Completed after 6 iterations at t[s]:  11439.56
	Linear fluid (dielectric constant: 78.4, screening length: 8.12261 Bohr) occupying 0.550026 of unit cell:	Completed after 0 iterations at t[s]:  11468.86
	FillingsUpdate:  mu: -0.139570379  nElectrons: 380.000000  magneticMoment: [ Abs: 0.00000  Tot: -0.00000 ]
	SubspaceRotationAdjust: set factor to 0.403
ElecMinimize: Iter:  20  F: -2952.226484743784113  |grad|_K:  4.463e-08  alpha:  3.463e-01  linmin: -9.784e-04  t[s]:  11514.04
	Linear fluid (dielectric constant: 78.4, screening length: 8.12261 Bohr) occupying 0.550028 of unit cell:	Completed after 6 iterations at t[s]:  11554.28
	Linear fluid (dielectric constant: 78.4, screening length: 8.12261 Bohr) occupying 0.550028 of unit cell:	Completed after 0 iterations at t[s]:  11583.63
	FillingsUpdate:  mu: -0.139577735  nElectrons: 380.000000  magneticMoment: [ Abs: 0.00000  Tot: -0.00000 ]
	SubspaceRotationAdjust: set factor to 0.401
ElecMinimize: Iter:  21  F: -2952.226485155551472  |grad|_K:  3.687e-08  alpha:  3.349e-01  linmin:  3.228e-04  t[s]:  11628.86
	Linear fluid (dielectric constant: 78.4, screening length: 8.12261 Bohr) occupying 0.550029 of unit cell:	Completed after 2 iterations at t[s]:  11668.09
	Linear fluid (dielectric constant: 78.4, screening length: 8.12261 Bohr) occupying 0.550029 of unit cell:	Completed after 0 iterations at t[s]:  11697.18
	FillingsUpdate:  mu: -0.139599436  nElectrons: 380.000000  magneticMoment: [ Abs: 0.00000  Tot: -0.00000 ]
	SubspaceRotationAdjust: set factor to 0.548
ElecMinimize: Iter:  22  F: -2952.226485405885796  |grad|_K:  2.706e-08  alpha:  3.172e-01  linmin: -3.978e-06  t[s]:  11742.47
	Linear fluid (dielectric constant: 78.4, screening length: 8.12261 Bohr) occupying 0.550029 of unit cell:	Completed after 3 iterations at t[s]:  11782.10
	Linear fluid (dielectric constant: 78.4, screening length: 8.12261 Bohr) occupying 0.550029 of unit cell:	Completed after 0 iterations at t[s]:  11811.47
	FillingsUpdate:  mu: -0.139608914  nElectrons: 380.000000  magneticMoment: [ Abs: 0.00000  Tot: -0.00000 ]
	SubspaceRotationAdjust: set factor to 0.593
ElecMinimize: Iter:  23  F: -2952.226485557710475  |grad|_K:  2.353e-08  alpha:  3.478e-01  linmin: -1.707e-04  t[s]:  11856.76
	Linear fluid (dielectric constant: 78.4, screening length: 8.12261 Bohr) occupying 0.550029 of unit cell:	Completed after 3 iterations at t[s]:  11896.49
	Linear fluid (dielectric constant: 78.4, screening length: 8.12261 Bohr) occupying 0.550029 of unit cell:	Completed after 0 iterations at t[s]:  11925.81
	FillingsUpdate:  mu: -0.139580162  nElectrons: 380.000000  magneticMoment: [ Abs: 0.00000  Tot: -0.00000 ]
	SubspaceRotationAdjust: set factor to 0.54
ElecMinimize: Iter:  24  F: -2952.226485658281945  |grad|_K:  2.028e-08  alpha:  2.905e-01  linmin:  2.086e-04  t[s]:  11971.02
	Linear fluid (dielectric constant: 78.4, screening length: 8.12261 Bohr) occupying 0.550028 of unit cell:	Completed after 2 iterations at t[s]:  12010.79
	Linear fluid (dielectric constant: 78.4, screening length: 8.12261 Bohr) occupying 0.550028 of unit cell:	Completed after 0 iterations at t[s]:  12040.26
[...]
	Linear fluid (dielectric constant: 78.4, screening length: 8.12261 Bohr) occupying 0.547350 of unit cell:	Completed after 6 iterations at t[s]:  51281.56
	Linear fluid (dielectric constant: 78.4, screening length: 8.12261 Bohr) occupying 0.547350 of unit cell:	Completed after 2 iterations at t[s]:  51311.24
	FillingsUpdate:  mu: -0.140139233  nElectrons: 380.000000  magneticMoment: [ Abs: 0.00000  Tot: -0.00000 ]
	SubspaceRotationAdjust: set factor to 0.235
ElecMinimize: Iter:   6  F: -2952.227083948671861  |grad|_K:  2.682e-08  alpha:  3.818e-01  linmin: -4.886e-04  t[s]:  51356.21
	Linear fluid (dielectric constant: 78.4, screening length: 8.12261 Bohr) occupying 0.547350 of unit cell:	Completed after 2 iterations at t[s]:  51395.41
	Linear fluid (dielectric constant: 78.4, screening length: 8.12261 Bohr) occupying 0.547350 of unit cell:	Completed after 0 iterations at t[s]:  51424.49
	FillingsUpdate:  mu: -0.140183429  nElectrons: 380.000000  magneticMoment: [ Abs: 0.00000  Tot: -0.00000 ]
	SubspaceRotationAdjust: set factor to 0.243
ElecMinimize: Iter:   7  F: -2952.227084101160017  |grad|_K:  1.777e-08  alpha:  3.475e-01  linmin:  2.326e-04  t[s]:  51469.70
	Linear fluid (dielectric constant: 78.4, screening length: 8.12261 Bohr) occupying 0.547350 of unit cell:	Completed after 2 iterations at t[s]:  51509.11
	Linear fluid (dielectric constant: 78.4, screening length: 8.12261 Bohr) occupying 0.547350 of unit cell:	Completed after 0 iterations at t[s]:  51538.23
	FillingsUpdate:  mu: -0.140210411  nElectrons: 380.000000  magneticMoment: [ Abs: 0.00000  Tot: -0.00000 ]
	SubspaceRotationAdjust: set factor to 0.252
ElecMinimize: Iter:   8  F: -2952.227084154295881  |grad|_K:  1.150e-08  alpha:  2.910e-01  linmin: -2.319e-04  t[s]:  51583.35
	Linear fluid (dielectric constant: 78.4, screening length: 8.12261 Bohr) occupying 0.547350 of unit cell:	Completed after 2 iterations at t[s]:  51622.46
	Linear fluid (dielectric constant: 78.4, screening length: 8.12261 Bohr) occupying 0.547350 of unit cell:	Completed after 0 iterations at t[s]:  51651.90
	FillingsUpdate:  mu: -0.140208228  nElectrons: 380.000000  magneticMoment: [ Abs: 0.00000  Tot: +0.00000 ]
	SubspaceRotationAdjust: set factor to 0.308
ElecMinimize: Iter:   9  F: -2952.227084178202404  |grad|_K:  6.382e-09  alpha:  3.000e-01  linmin: -1.419e-03  t[s]:  51696.79
ElecMinimize: Converged (|Delta F|<1.000000e-07 for 2 iters).
Setting wave functions to eigenvectors of Hamiltonian
Converging empty states (this may take a while): |deigs|: 4.216e-08

Computing DFT-D3 correction:
# coordination-number Ag 6.728 8.928 8.880 8.990 8.985 8.933 8.928 8.174 6.085 4.831 8.172 8.920 8.938 8.984 8.993 8.884 8.923 6.745 4.839 6.096
# diagonal-C6 Ag 268.61 268.61 268.61 268.61 268.61 268.61 268.61 268.61 268.61 268.61 268.61 268.61 268.61 268.61 268.61 268.61 268.61 268.61 268.61 268.61
EvdW_6 =   -0.124014
EvdW_8 =   -0.170787

# Ionic positions in cartesian coordinates:
ion Ag  -0.002925750205388   4.733719630755409  21.482674965731373 1
ion Ag  -0.004141256477793   9.558322754930646  18.866746566528448 1
ion Ag  -0.005543446183890   2.343598488110580  16.431592253619893 1
ion Ag  -0.004767384275845   7.249763527008977  13.971413574719705 1
ion Ag  -0.001405935019454  12.130431683449951  11.507096156402730 1
ion Ag   0.004391173504488   4.899809954596173   9.039452334511923 1
ion Ag   0.003107696118678   9.812559075872814   6.587051598596697 1
ion Ag  -0.000718684738480   2.458931819902674   4.047532497833600 1
ion Ag  -0.000781327429352   7.469015828774982   1.654163627438862 1
ion Ag   0.015127947208868  -0.222408227250702  23.646726792389721 1
ion Ag   3.831353386099380   1.171259570609867  20.187009828606975 1
ion Ag   3.828548020980548   5.951449486892752  17.660175189718007 1
ion Ag   3.826655457854202  10.862906300239134  15.199922184766473 1
ion Ag   3.829530792742708   3.628749959066836  12.734697053073184 1
ion Ag   3.835521632673501   8.507291592382023  10.267219470040787 1
ion Ag   3.837939076110434   1.295278428847673   7.806882191662060 1
ion Ag   3.833713995365745   6.196412785203981   5.372077687252347 1
ion Ag   3.835155887345020  11.019330436420843   2.766885226814888 1
ion Ag   3.832287482408662   3.854262415760038   0.597147917497777 1
ion Ag   3.835291235917965   8.284174488425343  22.583230882794584 1

# Forces in Cartesian coordinates:
force Ag   0.000042213832552   0.000010528137381   0.000043748150854 1
force Ag   0.000057345164368   0.000267395448400  -0.000306080077086 1
force Ag   0.000072316696140   0.000056388768292   0.000074786775772 1
force Ag   0.000056932208408  -0.000044461994374   0.000181789596676 1
force Ag   0.000026196352636  -0.000087128534406  -0.000191201297185 1
force Ag  -0.000003666653679  -0.000045862964966  -0.000075531268566 1
force Ag   0.000017656205370  -0.000155857324025   0.000270608602407 1
force Ag   0.000058490770703   0.000139499806075   0.000038120428039 1
force Ag   0.000059055339489  -0.000033457670752   0.000017486346009 1
force Ag  -0.000018598544874  -0.000016040401756   0.000169589795816 1
force Ag   0.000015498655835   0.000002128575028  -0.000142840777056 1
force Ag   0.000013858280812   0.000006013381661  -0.000363949506738 1
force Ag  -0.000008123779994   0.000035240829007   0.000225834691314 1
force Ag   0.000001819528368   0.000128706478941   0.000166091872264 1
force Ag  -0.000017205575216   0.000018465394034  -0.000109618629982 1
force Ag  -0.000015379311697   0.000004894653837   0.000120080290857 1
force Ag   0.000010118583330  -0.000190671722117   0.000191184995315 1
force Ag   0.000023860455680  -0.000070578291360  -0.000073726267943 1
force Ag   0.000040192702175  -0.000089624799421  -0.000002623332484 1
force Ag   0.000037840200197   0.000048232718721   0.000120946385857 1

# Energy components:
   A_diel =       -0.0018255210673344
   Eewald =    23834.9620765895633667
       EH =    26501.4852352336893091
     Eloc =   -53752.4114062649896368
      Enl =       78.9176025408327178
     EvdW =       -0.2948015216438841
      Exc =     -289.7829666135662592
 Exc_core =        4.1634156133769817
       KE =      670.7361440302585152
-------------------------------------
     Etot =    -2952.2265259135497217
       TS =        0.0005582646525108
-------------------------------------
        F =    -2952.2270841782024036


Dumping 'jdft.fillings' ... done
Dumping 'jdft.wfns' ... done
Dumping 'jdft.fluidState' ... done
Dumping 'jdft.ionpos' ... done
Dumping 'jdft.lattice' ... done
Dumping 'jdft.eigenvals' ... done
Dumping 'jdft.eigStats' ... 
	eMin: -3.523749 at state 0 ( [ +0.000000 +0.000000 +0.000000 ] spin 1 )
	HOMO: -0.140806 at state 32 ( [ -0.333333 +0.400000 +0.000000 ] spin 1 )
	mu  : -0.140208
	LUMO: -0.138071 at state 29 ( [ -0.444444 -0.200000 +0.000000 ] spin 1 )
	eMax: +0.160631 at state 45 ( [ +0.000000 +0.000000 +0.000000 ] spin -1 )
	HOMO-LUMO gap: +0.002734
	Optical gap  : +0.006908 at state 17 ( [ +0.333333 +0.400000 +0.000000 ] spin 1 )
Dumping 'jdft.Ecomponents' ... done
IonicMinimize: Iter:  16  F: -2952.227084178202404  |grad|_K:  1.159e-04  alpha:  1.000e+00  linmin:  3.767e-01  t[s]:  51811.27

#--- Lowdin population analysis ---
# oxidation-state Ag -0.001 -0.045 +0.002 -0.000 +0.005 -0.000 -0.020 -0.063 +0.024 +0.151 -0.063 -0.020 -0.001 +0.005 -0.000 +0.002 -0.044 -0.002 +0.150 +0.023
# magnetic-moments Ag -0.000 -0.000 +0.000 +0.000 -0.000 +0.000 -0.000 +0.000 +0.000 -0.000 -0.000 -0.000 +0.000 +0.000 -0.000 +0.000 -0.000 +0.000 +0.000 -0.000


Computing DFT-D3 correction:
# coordination-number Ag 6.722 8.928 8.883 8.991 8.982 8.935 8.927 8.172 6.084 4.827 8.172 8.921 8.939 8.983 8.994 8.883 8.926 6.739 4.838 6.090
# diagonal-C6 Ag 268.61 268.61 268.61 268.61 268.61 268.61 268.61 268.61 268.61 268.61 268.61 268.61 268.61 268.61 268.61 268.61 268.61 268.61 268.61 268.61
EvdW_6 =   -0.124011
EvdW_8 =   -0.170792

-------- Electronic minimization -----------
	Linear fluid (dielectric constant: 78.4, screening length: 8.12261 Bohr) occupying 0.547281 of unit cell:	Completed after 8 iterations at t[s]:  51853.52
	FillingsUpdate:  mu: -0.139894867  nElectrons: 380.000000  magneticMoment: [ Abs: 0.00000  Tot: +0.00000 ]
ElecMinimize: Iter:   0  F: -2952.227078741014338  |grad|_K:  1.106e-07  alpha:  1.000e+00
	Linear fluid (dielectric constant: 78.4, screening length: 8.12261 Bohr) occupying 0.547267 of unit cell:	Completed after 12 iterations at t[s]:  51945.53
	Linear fluid (dielectric constant: 78.4, screening length: 8.12261 Bohr) occupying 0.547275 of unit cell:	Completed after 10 iterations at t[s]:  51976.28
	FillingsUpdate:  mu: -0.140757993  nElectrons: 380.000000  magneticMoment: [ Abs: 0.00000  Tot: +0.00000 ]
	SubspaceRotationAdjust: set factor to 0.217
ElecMinimize: Iter:   1  F: -2952.227081932737292  |grad|_K:  1.110e-07  alpha:  4.376e-01  linmin: -2.566e-05  t[s]:  52021.14
	Linear fluid (dielectric constant: 78.4, screening length: 8.12261 Bohr) occupying 0.547292 of unit cell:	Completed after 10 iterations at t[s]:  52061.21
	Linear fluid (dielectric constant: 78.4, screening length: 8.12261 Bohr) occupying 0.547297 of unit cell:	Completed after 6 iterations at t[s]:  52091.10
	FillingsUpdate:  mu: -0.140100892  nElectrons: 380.000000  magneticMoment: [ Abs: 0.00000  Tot: +0.00000 ]
	SubspaceRotationAdjust: set factor to 0.233
ElecMinimize: Iter:   2  F: -2952.227086152686297  |grad|_K:  9.325e-08  alpha:  5.748e-01  linmin: -1.314e-05  t[s]:  52136.21
	Linear fluid (dielectric constant: 78.4, screening length: 8.12261 Bohr) occupying 0.547311 of unit cell:	Completed after 2 iterations at t[s]:  52175.65
	Linear fluid (dielectric constant: 78.4, screening length: 8.12261 Bohr) occupying 0.547311 of unit cell:	Completed after 0 iterations at t[s]:  52204.77
	FillingsUpdate:  mu: -0.140129054  nElectrons: 380.000000  magneticMoment: [ Abs: 0.00000  Tot: +0.00000 ]
	SubspaceRotationAdjust: set factor to 0.271
ElecMinimize: Iter:   3  F: -2952.227089104797415  |grad|_K:  6.618e-08  alpha:  5.703e-01  linmin:  3.160e-05  t[s]:  52249.81
	Linear fluid (dielectric constant: 78.4, screening length: 8.12261 Bohr) occupying 0.547316 of unit cell:	Completed after 6 iterations at t[s]:  52289.65
	Linear fluid (dielectric constant: 78.4, screening length: 8.12261 Bohr) occupying 0.547314 of unit cell:	Completed after 2 iterations at t[s]:  52319.25
	FillingsUpdate:  mu: -0.140318308  nElectrons: 380.000000  magneticMoment: [ Abs: 0.00000  Tot: +0.00000 ]
	SubspaceRotationAdjust: set factor to 0.269
ElecMinimize: Iter:   4  F: -2952.227089998902557  |grad|_K:  4.149e-08  alpha:  3.474e-01  linmin:  4.902e-05  t[s]:  52365.13
	Linear fluid (dielectric constant: 78.4, screening length: 8.12261 Bohr) occupying 0.547319 of unit cell:	Completed after 6 iterations at t[s]:  52404.87
	Linear fluid (dielectric constant: 78.4, screening length: 8.12261 Bohr) occupying 0.547319 of unit cell:	Completed after 0 iterations at t[s]:  52434.18
	FillingsUpdate:  mu: -0.140169940  nElectrons: 380.000000  magneticMoment: [ Abs: 0.00000  Tot: +0.00000 ]
	SubspaceRotationAdjust: set factor to 0.242
ElecMinimize: Iter:   5  F: -2952.227090367643996  |grad|_K:  2.138e-08  alpha:  3.604e-01  linmin: -9.203e-04  t[s]:  52479.28
	Linear fluid (dielectric constant: 78.4, screening length: 8.12261 Bohr) occupying 0.547319 of unit cell:	Completed after 2 iterations at t[s]:  52518.65
	Linear fluid (dielectric constant: 78.4, screening length: 8.12261 Bohr) occupying 0.547319 of unit cell:	Completed after 0 iterations at t[s]:  52547.88
	FillingsUpdate:  mu: -0.140206050  nElectrons: 380.000000  magneticMoment: [ Abs: 0.00000  Tot: +0.00000 ]
	SubspaceRotationAdjust: set factor to 0.256
ElecMinimize: Iter:   6  F: -2952.227090470094481  |grad|_K:  1.539e-08  alpha:  3.622e-01  linmin: -4.494e-04  t[s]:  52592.91
	Linear fluid (dielectric constant: 78.4, screening length: 8.12261 Bohr) occupying 0.547319 of unit cell:	Completed after 2 iterations at t[s]:  52632.19
	Linear fluid (dielectric constant: 78.4, screening length: 8.12261 Bohr) occupying 0.547319 of unit cell:	Completed after 0 iterations at t[s]:  52661.62
	FillingsUpdate:  mu: -0.140225464  nElectrons: 380.000000  magneticMoment: [ Abs: 0.00000  Tot: +0.00000 ]
	SubspaceRotationAdjust: set factor to 0.279
ElecMinimize: Iter:   7  F: -2952.227090509763002  |grad|_K:  1.019e-08  alpha:  2.749e-01  linmin:  8.559e-04  t[s]:  52706.56
	Linear fluid (dielectric constant: 78.4, screening length: 8.12261 Bohr) occupying 0.547319 of unit cell:	Completed after 2 iterations at t[s]:  52745.74
	Linear fluid (dielectric constant: 78.4, screening length: 8.12261 Bohr) occupying 0.547319 of unit cell:	Completed after 0 iterations at t[s]:  52774.83
	FillingsUpdate:  mu: -0.140218084  nElectrons: 380.000000  magneticMoment: [ Abs: 0.00000  Tot: +0.00000 ]
	SubspaceRotationAdjust: set factor to 0.357
ElecMinimize: Iter:   8  F: -2952.227090527914243  |grad|_K:  5.906e-09  alpha:  3.025e-01  linmin: -3.128e-03  t[s]:  52819.75
ElecMinimize: Converged (|Delta F|<1.000000e-07 for 2 iters).
Setting wave functions to eigenvectors of Hamiltonian
Converging empty states (this may take a while): |deigs|: 1.217e-08

Computing DFT-D3 correction:
# coordination-number Ag 6.722 8.928 8.883 8.991 8.982 8.935 8.927 8.172 6.084 4.827 8.172 8.921 8.939 8.983 8.994 8.883 8.926 6.739 4.838 6.090
# diagonal-C6 Ag 268.61 268.61 268.61 268.61 268.61 268.61 268.61 268.61 268.61 268.61 268.61 268.61 268.61 268.61 268.61 268.61 268.61 268.61 268.61 268.61
EvdW_6 =   -0.124011
EvdW_8 =   -0.170792

# Ionic positions in cartesian coordinates:
ion Ag  -0.002665298135994   4.733661741718588  21.483458608035995 1
ion Ag  -0.003722308751910   9.560411815192307  18.864316029424561 1
ion Ag  -0.004920027120280   2.344180732199978  16.432403327651329 1
ion Ag  -0.004393790876509   7.249545216777732  13.972813438050657 1
ion Ag  -0.001382535041610  12.129640969970358  11.505413865968096 1
ion Ag   0.004062944982245   4.899212426112185   9.038384563292469 1
ion Ag   0.002924951906224   9.810901175620565   6.588703372790364 1
ion Ag  -0.000474348884729   2.460229671060729   4.046815482677405 1
ion Ag  -0.000454362298875   7.469371392753166   1.654099264621867 1
ion Ag   0.014486471006980  -0.223233429546909  23.648725068014084 1
ion Ag   3.831109553590037   1.171348541711666  20.186765713472639 1
ion Ag   3.828633721872619   5.951949880039534  17.657352199698376 1
ion Ag   3.826552062685394  10.863491028151159  15.202015403141230 1
ion Ag   3.829417002794592   3.629842245330387  12.735775749781107 1
ion Ag   3.835144818129431   8.507021510295266  10.265914509258581 1
ion Ag   3.837543692215420   1.295109902005471   7.807334523700765 1
ion Ag   3.833571463358795   6.195075339847089   5.373416967607138 1
ion Ag   3.835144260547515  11.018958882765695   2.765333434031138 1
ion Ag   3.832515476091182   3.854172230581415   0.596358087603425 1
ion Ag   3.835246251929472   8.283968727413610  22.584298391178809 1

# Forces in Cartesian coordinates:
force Ag   0.000027621814555   0.000048504911678  -0.000010954288266 1
force Ag   0.000038146549720   0.000199449475524  -0.000112632084168 1
force Ag   0.000042307574095   0.000055028396103   0.000010470841195 1
force Ag   0.000030692988851  -0.000009967405061   0.000037020035311 1
force Ag   0.000011717613817  -0.000040517532680  -0.000070675699699 1
force Ag  -0.000003988148111  -0.000074417029729   0.000019647971380 1
force Ag   0.000014288391056  -0.000068175480892   0.000145886981960 1
force Ag   0.000044481254988   0.000014973913722   0.000063190660518 1
force Ag   0.000050468416091  -0.000044983719827   0.000061461132769 1
force Ag  -0.000005214959362  -0.000019196861618   0.000050375642754 1
force Ag   0.000029087511811   0.000022050102733  -0.000085450065332 1
force Ag   0.000029985248251   0.000018162461859  -0.000189455422415 1
force Ag   0.000014602133742   0.000071477217586   0.000065406402846 1
force Ag   0.000012952686203   0.000049125939933   0.000085745224457 1
force Ag  -0.000001069830132   0.000031690734642   0.000023082747881 1
force Ag  -0.000000146067365  -0.000032011892140   0.000095287270479 1
force Ag   0.000015612817036  -0.000158719639785   0.000079799469208 1
force Ag   0.000029793136377  -0.000063067068800   0.000002529634419 1
force Ag   0.000040739051777  -0.000068670107995   0.000071308472965 1
force Ag   0.000041604562411   0.000054119047724   0.000015516188563 1

# Energy components:
   A_diel =       -0.0018253970039424
   Eewald =    23834.0369838685110153
       EH =    26500.5666548535518814
     Eloc =   -53750.5676883080668631
      Enl =       78.9178564334924317
     EvdW =       -0.2948026096649955
      Exc =     -289.7826748672005692
 Exc_core =        4.1634156066992523
       KE =      670.7355487290587917
-------------------------------------
     Etot =    -2952.2265316906200496
       TS =        0.0005588372941062
-------------------------------------
        F =    -2952.2270905279142426


Dumping 'jdft.fillings' ... done
Dumping 'jdft.wfns' ... done
Dumping 'jdft.fluidState' ... done
Dumping 'jdft.ionpos' ... done
Dumping 'jdft.lattice' ... done
Dumping 'jdft.eigenvals' ... done
Dumping 'jdft.eigStats' ... 
	eMin: -3.523752 at state 0 ( [ +0.000000 +0.000000 +0.000000 ] spin 1 )
	HOMO: -0.140814 at state 18 ( [ +0.333333 -0.400000 +0.000000 ] spin 1 )
	mu  : -0.140218
	LUMO: -0.138085 at state 46 ( [ +0.000000 +0.200000 +0.000000 ] spin -1 )
	eMax: +0.160606 at state 45 ( [ +0.000000 +0.000000 +0.000000 ] spin -1 )
	HOMO-LUMO gap: +0.002729
	Optical gap  : +0.006911 at state 17 ( [ +0.333333 +0.400000 +0.000000 ] spin 1 )
Dumping 'jdft.Ecomponents' ... done
IonicMinimize: Iter:  17  F: -2952.227090527914243  |grad|_K:  6.240e-05  alpha:  1.000e+00  linmin: -6.930e-01  t[s]:  52933.71
IonicMinimize: Converged (|grad|_K<1.000000e-04).

#--- Lowdin population analysis ---
# oxidation-state Ag -0.001 -0.044 +0.002 -0.000 +0.005 -0.000 -0.020 -0.063 +0.024 +0.151 -0.063 -0.020 -0.001 +0.005 -0.000 +0.002 -0.044 -0.001 +0.150 +0.023
# magnetic-moments Ag -0.000 -0.000 +0.000 +0.000 +0.000 +0.000 -0.000 +0.000 -0.000 +0.000 -0.000 -0.000 +0.000 +0.000 +0.000 +0.000 -0.000 -0.000 +0.000 +0.000


Dumping 'jdft.n_up' ... done
Dumping 'jdft.n_dn' ... done
Dumping 'jdft.tau_up' ... done
Dumping 'jdft.tau_dn' ... done
Dumping 'jdft.eigenvals' ... done
Dumping 'jdft.eigStats' ... 
	eMin: -3.523752 at state 0 ( [ +0.000000 +0.000000 +0.000000 ] spin 1 )
	HOMO: -0.140814 at state 18 ( [ +0.333333 -0.400000 +0.000000 ] spin 1 )
	mu  : -0.140218
	LUMO: -0.138085 at state 46 ( [ +0.000000 +0.200000 +0.000000 ] spin -1 )
	eMax: +0.160606 at state 45 ( [ +0.000000 +0.000000 +0.000000 ] spin -1 )
	HOMO-LUMO gap: +0.002729
	Optical gap  : +0.006911 at state 17 ( [ +0.333333 +0.400000 +0.000000 ] spin 1 )
Dumping 'jdft.kPts' ... done
Dumping 'jdft.dosUp' ... done.
Dumping 'jdft.dosDn' ... done.
End date and time: Tue Dec  7 07:57:40 2021  (Duration: 0-14:43:21.31)
Done!
ipcrm: permission denied for id (144244736)
ipcrm: permission denied for id (144277505)
ipcrm: permission denied for id (144310274)
ipcrm: permission denied for id (144343043)
ipcrm: permission denied for id (144375812)
ipcrm: permission denied for id (144408581)
ipcrm: permission denied for id (144441350)
ipcrm: permission denied for id (144474119)
ipcrm: permission denied for id (144506888)
ipcrm: permission denied for id (144539657)
ipcrm: permission denied for id (144572426)
ipcrm: permission denied for id (144605195)
ipcrm: permission denied for id (144637964)
ipcrm: permission denied for id (144670733)
ipcrm: permission denied for id (144703502)
ipcrm: permission denied for id (144736271)
ipcrm: permission denied for id (144769040)
ipcrm: permission denied for id (144801809)
ipcrm: permission denied for id (144834578)
ipcrm: permission denied for id (144867347)
ipcrm: permission denied for id (144900116)
ipcrm: permission denied for id (144932885)
