
*************** JDFTx 1.6.0  ***************

Start date and time: Mon Dec  6 15:24:21 2021
Executable /projects/musgravc/apps/jdftx-1.6.1/build/jdftx with command-line: -i in
Running on hosts (process indices):  shas0916.rc.int.colorado.edu (0-23)
Divided in process groups (process indices):  0 (0)  1 (1)  2 (2)  3 (3)  4 (4)  5 (5)  6 (6)  7 (7)  8 (8)  9 (9)  10 (10)  11 (11)  12 (12)  13 (13)  14 (14)  15 (15)  16 (16)  17 (17)  18 (18)  19 (19)  20 (20)  21 (21)  22 (22)  23 (23)
Resource initialization completed at t[s]:      0.00
Run totals: 24 processes, 24 threads, 0 GPUs


Input parsed successfully to the following command list (including defaults):

basis kpoint-dependent
converge-empty-states yes
coords-type Cartesian
core-overlap-check none
coulomb-interaction Periodic
davidson-band-ratio 1.1
density-of-states Etol 1.000000e-06 Esigma 1.000000e-03 \
		Complete \
	Total \
	OrthoOrbital Cu 1   s \
	OrthoOrbital Cu 1   p \
	OrthoOrbital Cu 1   px \
	OrthoOrbital Cu 1   py \
	OrthoOrbital Cu 1   pz \
	OrthoOrbital Cu 1   d \
	OrthoOrbital Cu 1   dxy \
	OrthoOrbital Cu 1   dyz \
	OrthoOrbital Cu 1   dz2 \
	OrthoOrbital Cu 1   dxz \
	OrthoOrbital Cu 1   dx2-y2 \
	OrthoOrbital Cu 2   s \
	OrthoOrbital Cu 2   p \
	OrthoOrbital Cu 2   px \
	OrthoOrbital Cu 2   py \
	OrthoOrbital Cu 2   pz \
	OrthoOrbital Cu 2   d \
	OrthoOrbital Cu 2   dxy \
	OrthoOrbital Cu 2   dyz \
	OrthoOrbital Cu 2   dz2 \
	OrthoOrbital Cu 2   dxz \
	OrthoOrbital Cu 2   dx2-y2 \
	OrthoOrbital Cu 3   s \
	OrthoOrbital Cu 3   p \
	OrthoOrbital Cu 3   px \
	OrthoOrbital Cu 3   py \
	OrthoOrbital Cu 3   pz \
	OrthoOrbital Cu 3   d \
	OrthoOrbital Cu 3   dxy \
	OrthoOrbital Cu 3   dyz \
	OrthoOrbital Cu 3   dz2 \
	OrthoOrbital Cu 3   dxz \
	OrthoOrbital Cu 3   dx2-y2 \
	OrthoOrbital Cu 4   s \
	OrthoOrbital Cu 4   p \
	OrthoOrbital Cu 4   px \
	OrthoOrbital Cu 4   py \
	OrthoOrbital Cu 4   pz \
	OrthoOrbital Cu 4   d \
	OrthoOrbital Cu 4   dxy \
	OrthoOrbital Cu 4   dyz \
	OrthoOrbital Cu 4   dz2 \
	OrthoOrbital Cu 4   dxz \
	OrthoOrbital Cu 4   dx2-y2 \
	OrthoOrbital Cu 5   s \
	OrthoOrbital Cu 5   p \
	OrthoOrbital Cu 5   px \
	OrthoOrbital Cu 5   py \
	OrthoOrbital Cu 5   pz \
	OrthoOrbital Cu 5   d \
	OrthoOrbital Cu 5   dxy \
	OrthoOrbital Cu 5   dyz \
	OrthoOrbital Cu 5   dz2 \
	OrthoOrbital Cu 5   dxz \
	OrthoOrbital Cu 5   dx2-y2 \
	OrthoOrbital Cu 6   s \
	OrthoOrbital Cu 6   p \
	OrthoOrbital Cu 6   px \
	OrthoOrbital Cu 6   py \
	OrthoOrbital Cu 6   pz \
	OrthoOrbital Cu 6   d \
	OrthoOrbital Cu 6   dxy \
	OrthoOrbital Cu 6   dyz \
	OrthoOrbital Cu 6   dz2 \
	OrthoOrbital Cu 6   dxz \
	OrthoOrbital Cu 6   dx2-y2 \
	OrthoOrbital Cu 7   s \
	OrthoOrbital Cu 7   p \
	OrthoOrbital Cu 7   px \
	OrthoOrbital Cu 7   py \
	OrthoOrbital Cu 7   pz \
	OrthoOrbital Cu 7   d \
	OrthoOrbital Cu 7   dxy \
	OrthoOrbital Cu 7   dyz \
	OrthoOrbital Cu 7   dz2 \
	OrthoOrbital Cu 7   dxz \
	OrthoOrbital Cu 7   dx2-y2 \
	OrthoOrbital Cu 8   s \
	OrthoOrbital Cu 8   p \
	OrthoOrbital Cu 8   px \
	OrthoOrbital Cu 8   py \
	OrthoOrbital Cu 8   pz \
	OrthoOrbital Cu 8   d \
	OrthoOrbital Cu 8   dxy \
	OrthoOrbital Cu 8   dyz \
	OrthoOrbital Cu 8   dz2 \
	OrthoOrbital Cu 8   dxz \
	OrthoOrbital Cu 8   dx2-y2 \
	OrthoOrbital Cu 9   s \
	OrthoOrbital Cu 9   p \
	OrthoOrbital Cu 9   px \
	OrthoOrbital Cu 9   py \
	OrthoOrbital Cu 9   pz \
	OrthoOrbital Cu 9   d \
	OrthoOrbital Cu 9   dxy \
	OrthoOrbital Cu 9   dyz \
	OrthoOrbital Cu 9   dz2 \
	OrthoOrbital Cu 9   dxz \
	OrthoOrbital Cu 9   dx2-y2 \
	OrthoOrbital Cu 10   s \
	OrthoOrbital Cu 10   p \
	OrthoOrbital Cu 10   px \
	OrthoOrbital Cu 10   py \
	OrthoOrbital Cu 10   pz \
	OrthoOrbital Cu 10   d \
	OrthoOrbital Cu 10   dxy \
	OrthoOrbital Cu 10   dyz \
	OrthoOrbital Cu 10   dz2 \
	OrthoOrbital Cu 10   dxz \
	OrthoOrbital Cu 10   dx2-y2 \
	OrthoOrbital Cu 11   s \
	OrthoOrbital Cu 11   p \
	OrthoOrbital Cu 11   px \
	OrthoOrbital Cu 11   py \
	OrthoOrbital Cu 11   pz \
	OrthoOrbital Cu 11   d \
	OrthoOrbital Cu 11   dxy \
	OrthoOrbital Cu 11   dyz \
	OrthoOrbital Cu 11   dz2 \
	OrthoOrbital Cu 11   dxz \
	OrthoOrbital Cu 11   dx2-y2 \
	OrthoOrbital Cu 12   s \
	OrthoOrbital Cu 12   p \
	OrthoOrbital Cu 12   px \
	OrthoOrbital Cu 12   py \
	OrthoOrbital Cu 12   pz \
	OrthoOrbital Cu 12   d \
	OrthoOrbital Cu 12   dxy \
	OrthoOrbital Cu 12   dyz \
	OrthoOrbital Cu 12   dz2 \
	OrthoOrbital Cu 12   dxz \
	OrthoOrbital Cu 12   dx2-y2 \
	OrthoOrbital Cu 13   s \
	OrthoOrbital Cu 13   p \
	OrthoOrbital Cu 13   px \
	OrthoOrbital Cu 13   py \
	OrthoOrbital Cu 13   pz \
	OrthoOrbital Cu 13   d \
	OrthoOrbital Cu 13   dxy \
	OrthoOrbital Cu 13   dyz \
	OrthoOrbital Cu 13   dz2 \
	OrthoOrbital Cu 13   dxz \
	OrthoOrbital Cu 13   dx2-y2 \
	OrthoOrbital Cu 14   s \
	OrthoOrbital Cu 14   p \
	OrthoOrbital Cu 14   px \
	OrthoOrbital Cu 14   py \
	OrthoOrbital Cu 14   pz \
	OrthoOrbital Cu 14   d \
	OrthoOrbital Cu 14   dxy \
	OrthoOrbital Cu 14   dyz \
	OrthoOrbital Cu 14   dz2 \
	OrthoOrbital Cu 14   dxz \
	OrthoOrbital Cu 14   dx2-y2 \
	OrthoOrbital Cu 15   s \
	OrthoOrbital Cu 15   p \
	OrthoOrbital Cu 15   px \
	OrthoOrbital Cu 15   py \
	OrthoOrbital Cu 15   pz \
	OrthoOrbital Cu 15   d \
	OrthoOrbital Cu 15   dxy \
	OrthoOrbital Cu 15   dyz \
	OrthoOrbital Cu 15   dz2 \
	OrthoOrbital Cu 15   dxz \
	OrthoOrbital Cu 15   dx2-y2 \
	OrthoOrbital Cu 16   s \
	OrthoOrbital Cu 16   p \
	OrthoOrbital Cu 16   px \
	OrthoOrbital Cu 16   py \
	OrthoOrbital Cu 16   pz \
	OrthoOrbital Cu 16   d \
	OrthoOrbital Cu 16   dxy \
	OrthoOrbital Cu 16   dyz \
	OrthoOrbital Cu 16   dz2 \
	OrthoOrbital Cu 16   dxz \
	OrthoOrbital Cu 16   dx2-y2 \
	OrthoOrbital Cu 17   s \
	OrthoOrbital Cu 17   p \
	OrthoOrbital Cu 17   px \
	OrthoOrbital Cu 17   py \
	OrthoOrbital Cu 17   pz \
	OrthoOrbital Cu 17   d \
	OrthoOrbital Cu 17   dxy \
	OrthoOrbital Cu 17   dyz \
	OrthoOrbital Cu 17   dz2 \
	OrthoOrbital Cu 17   dxz \
	OrthoOrbital Cu 17   dx2-y2 \
	OrthoOrbital Cu 18   s \
	OrthoOrbital Cu 18   p \
	OrthoOrbital Cu 18   px \
	OrthoOrbital Cu 18   py \
	OrthoOrbital Cu 18   pz \
	OrthoOrbital Cu 18   d \
	OrthoOrbital Cu 18   dxy \
	OrthoOrbital Cu 18   dyz \
	OrthoOrbital Cu 18   dz2 \
	OrthoOrbital Cu 18   dxz \
	OrthoOrbital Cu 18   dx2-y2 \
	OrthoOrbital Cu 19   s \
	OrthoOrbital Cu 19   p \
	OrthoOrbital Cu 19   px \
	OrthoOrbital Cu 19   py \
	OrthoOrbital Cu 19   pz \
	OrthoOrbital Cu 19   d \
	OrthoOrbital Cu 19   dxy \
	OrthoOrbital Cu 19   dyz \
	OrthoOrbital Cu 19   dz2 \
	OrthoOrbital Cu 19   dxz \
	OrthoOrbital Cu 19   dx2-y2 \
	OrthoOrbital Cu 20   s \
	OrthoOrbital Cu 20   p \
	OrthoOrbital Cu 20   px \
	OrthoOrbital Cu 20   py \
	OrthoOrbital Cu 20   pz \
	OrthoOrbital Cu 20   d \
	OrthoOrbital Cu 20   dxy \
	OrthoOrbital Cu 20   dyz \
	OrthoOrbital Cu 20   dz2 \
	OrthoOrbital Cu 20   dxz \
	OrthoOrbital Cu 20   dx2-y2 \
	OrthoOrbital Cu 21   s \
	OrthoOrbital Cu 21   p \
	OrthoOrbital Cu 21   px \
	OrthoOrbital Cu 21   py \
	OrthoOrbital Cu 21   pz \
	OrthoOrbital Cu 21   d \
	OrthoOrbital Cu 21   dxy \
	OrthoOrbital Cu 21   dyz \
	OrthoOrbital Cu 21   dz2 \
	OrthoOrbital Cu 21   dxz \
	OrthoOrbital Cu 21   dx2-y2 \
	OrthoOrbital Cu 22   s \
	OrthoOrbital Cu 22   p \
	OrthoOrbital Cu 22   px \
	OrthoOrbital Cu 22   py \
	OrthoOrbital Cu 22   pz \
	OrthoOrbital Cu 22   d \
	OrthoOrbital Cu 22   dxy \
	OrthoOrbital Cu 22   dyz \
	OrthoOrbital Cu 22   dz2 \
	OrthoOrbital Cu 22   dxz \
	OrthoOrbital Cu 22   dx2-y2 \
	OrthoOrbital Cu 23   s \
	OrthoOrbital Cu 23   p \
	OrthoOrbital Cu 23   px \
	OrthoOrbital Cu 23   py \
	OrthoOrbital Cu 23   pz \
	OrthoOrbital Cu 23   d \
	OrthoOrbital Cu 23   dxy \
	OrthoOrbital Cu 23   dyz \
	OrthoOrbital Cu 23   dz2 \
	OrthoOrbital Cu 23   dxz \
	OrthoOrbital Cu 23   dx2-y2 \
	OrthoOrbital Cu 24   s \
	OrthoOrbital Cu 24   p \
	OrthoOrbital Cu 24   px \
	OrthoOrbital Cu 24   py \
	OrthoOrbital Cu 24   pz \
	OrthoOrbital Cu 24   d \
	OrthoOrbital Cu 24   dxy \
	OrthoOrbital Cu 24   dyz \
	OrthoOrbital Cu 24   dz2 \
	OrthoOrbital Cu 24   dxz \
	OrthoOrbital Cu 24   dx2-y2 \
	OrthoOrbital Cu 25   s \
	OrthoOrbital Cu 25   p \
	OrthoOrbital Cu 25   px \
	OrthoOrbital Cu 25   py \
	OrthoOrbital Cu 25   pz \
	OrthoOrbital Cu 25   d \
	OrthoOrbital Cu 25   dxy \
	OrthoOrbital Cu 25   dyz \
	OrthoOrbital Cu 25   dz2 \
	OrthoOrbital Cu 25   dxz \
	OrthoOrbital Cu 25   dx2-y2 \
	OrthoOrbital Cu 26   s \
	OrthoOrbital Cu 26   p \
	OrthoOrbital Cu 26   px \
	OrthoOrbital Cu 26   py \
	OrthoOrbital Cu 26   pz \
	OrthoOrbital Cu 26   d \
	OrthoOrbital Cu 26   dxy \
	OrthoOrbital Cu 26   dyz \
	OrthoOrbital Cu 26   dz2 \
	OrthoOrbital Cu 26   dxz \
	OrthoOrbital Cu 26   dx2-y2 \
	OrthoOrbital Cu 27   s \
	OrthoOrbital Cu 27   p \
	OrthoOrbital Cu 27   px \
	OrthoOrbital Cu 27   py \
	OrthoOrbital Cu 27   pz \
	OrthoOrbital Cu 27   d \
	OrthoOrbital Cu 27   dxy \
	OrthoOrbital Cu 27   dyz \
	OrthoOrbital Cu 27   dz2 \
	OrthoOrbital Cu 27   dxz \
	OrthoOrbital Cu 27   dx2-y2 \
	OrthoOrbital Cu 28   s \
	OrthoOrbital Cu 28   p \
	OrthoOrbital Cu 28   px \
	OrthoOrbital Cu 28   py \
	OrthoOrbital Cu 28   pz \
	OrthoOrbital Cu 28   d \
	OrthoOrbital Cu 28   dxy \
	OrthoOrbital Cu 28   dyz \
	OrthoOrbital Cu 28   dz2 \
	OrthoOrbital Cu 28   dxz \
	OrthoOrbital Cu 28   dx2-y2 \
	OrthoOrbital Cu 29   s \
	OrthoOrbital Cu 29   p \
	OrthoOrbital Cu 29   px \
	OrthoOrbital Cu 29   py \
	OrthoOrbital Cu 29   pz \
	OrthoOrbital Cu 29   d \
	OrthoOrbital Cu 29   dxy \
	OrthoOrbital Cu 29   dyz \
	OrthoOrbital Cu 29   dz2 \
	OrthoOrbital Cu 29   dxz \
	OrthoOrbital Cu 29   dx2-y2 \
	OrthoOrbital Cu 30   s \
	OrthoOrbital Cu 30   p \
	OrthoOrbital Cu 30   px \
	OrthoOrbital Cu 30   py \
	OrthoOrbital Cu 30   pz \
	OrthoOrbital Cu 30   d \
	OrthoOrbital Cu 30   dxy \
	OrthoOrbital Cu 30   dyz \
	OrthoOrbital Cu 30   dz2 \
	OrthoOrbital Cu 30   dxz \
	OrthoOrbital Cu 30   dx2-y2 \
	OrthoOrbital Cu 31   s \
	OrthoOrbital Cu 31   p \
	OrthoOrbital Cu 31   px \
	OrthoOrbital Cu 31   py \
	OrthoOrbital Cu 31   pz \
	OrthoOrbital Cu 31   d \
	OrthoOrbital Cu 31   dxy \
	OrthoOrbital Cu 31   dyz \
	OrthoOrbital Cu 31   dz2 \
	OrthoOrbital Cu 31   dxz \
	OrthoOrbital Cu 31   dx2-y2 \
	OrthoOrbital Cu 32   s \
	OrthoOrbital Cu 32   p \
	OrthoOrbital Cu 32   px \
	OrthoOrbital Cu 32   py \
	OrthoOrbital Cu 32   pz \
	OrthoOrbital Cu 32   d \
	OrthoOrbital Cu 32   dxy \
	OrthoOrbital Cu 32   dyz \
	OrthoOrbital Cu 32   dz2 \
	OrthoOrbital Cu 32   dxz \
	OrthoOrbital Cu 32   dx2-y2 \
	OrthoOrbital Cu 33   s \
	OrthoOrbital Cu 33   p \
	OrthoOrbital Cu 33   px \
	OrthoOrbital Cu 33   py \
	OrthoOrbital Cu 33   pz \
	OrthoOrbital Cu 33   d \
	OrthoOrbital Cu 33   dxy \
	OrthoOrbital Cu 33   dyz \
	OrthoOrbital Cu 33   dz2 \
	OrthoOrbital Cu 33   dxz \
	OrthoOrbital Cu 33   dx2-y2 \
	OrthoOrbital Cu 34   s \
	OrthoOrbital Cu 34   p \
	OrthoOrbital Cu 34   px \
	OrthoOrbital Cu 34   py \
	OrthoOrbital Cu 34   pz \
	OrthoOrbital Cu 34   d \
	OrthoOrbital Cu 34   dxy \
	OrthoOrbital Cu 34   dyz \
	OrthoOrbital Cu 34   dz2 \
	OrthoOrbital Cu 34   dxz \
	OrthoOrbital Cu 34   dx2-y2
dump End ElecDensity KEdensity BandEigs EigStats RhoAtom DOS Kpoints
dump Ionic State IonicPositions Lattice EigStats Ecomponents
dump 
dump 
dump 
dump 
dump 
dump 
dump 
dump 
dump-name jdft.$VAR
elec-cutoff 20
elec-eigen-algo Davidson
elec-ex-corr gga-PBE
elec-initial-magnetization 0.000000 no
elec-n-bands 388
elec-smearing Fermi 0.001
electronic-minimize  \
	dirUpdateScheme      FletcherReeves \
	linminMethod         DirUpdateRecommended \
	nIterations          100 \
	history              15 \
	knormThreshold       0 \
	energyDiffThreshold  1e-07 \
	nEnergyDiff          2 \
	alphaTstart          1 \
	alphaTmin            1e-10 \
	updateTestStepSize   yes \
	alphaTreduceFactor   0.1 \
	alphaTincreaseFactor 3 \
	nAlphaAdjustMax      3 \
	wolfeEnergy          0.0001 \
	wolfeGradient        0.9 \
	fdTest               no
exchange-regularization WignerSeitzTruncated
fluid LinearPCM 298.000000 1.013250
fluid-anion F- 0.5 MeanFieldLJ \
	epsBulk 1 \
	pMol 0 \
	epsInf 1 \
	Pvap 0 \
	sigmaBulk 0 \
	Rvdw 2.24877 \
	Res 0 \
	tauNuc 343133
fluid-cation Na+ 0.5 MeanFieldLJ \
	epsBulk 1 \
	pMol 0 \
	epsInf 1 \
	Pvap 0 \
	sigmaBulk 0 \
	Rvdw 2.19208 \
	Res 0 \
	tauNuc 343133
fluid-ex-corr lda-TF lda-PZ
fluid-gummel-loop 10 1.000000e-05
fluid-minimize  \
	dirUpdateScheme      PolakRibiere \
	linminMethod         DirUpdateRecommended \
	nIterations          400 \
	history              15 \
	knormThreshold       1e-11 \
	energyDiffThreshold  0 \
	nEnergyDiff          2 \
	alphaTstart          1 \
	alphaTmin            1e-10 \
	updateTestStepSize   yes \
	alphaTreduceFactor   0.1 \
	alphaTincreaseFactor 3 \
	nAlphaAdjustMax      6 \
	wolfeEnergy          0.0001 \
	wolfeGradient        0.9 \
	fdTest               no
fluid-solvent H2O 55.338 ScalarEOS \
	epsBulk 78.4 \
	pMol 0.92466 \
	epsInf 1.77 \
	Pvap 1.06736e-10 \
	sigmaBulk 4.62e-05 \
	Rvdw 2.61727 \
	Res 1.42 \
	tauNuc 343133 \
	poleEl 15 7 1
forces-output-coords Positions
ion Cu   0.000000000000000  11.560753999999998   1.226214000000000 1
ion Cu   0.000000000000000  15.028989999999999   4.496115999999999 1
ion Cu   0.000000000000000   0.000000000000000  27.385186000000001 1
ion Cu   0.000000000000000   3.468236000000000   2.861165000000000 1
ion Cu   0.000000000000000   6.936451999999999   6.130983999999999 1
ion Cu   0.000000000000000  10.404687999999998   9.400886999999999 1
ion Cu   0.000000000000000  17.341140999999997  15.940609999999996 1
ion Cu   0.000000000000000  18.497205999999995   7.765935999999999 1
ion Cu   0.000000000000000   2.312151000000000  11.035838999999999 1
ion Cu   0.000000000000000   5.780386999999998  14.305741999999999 1
ion Cu   0.000000000000000   9.248602999999997  17.575560999999997 1
ion Cu   0.000000000000000  12.716838999999998  20.845463999999996 1
ion Cu   0.000000000000000  13.872904999999996  12.670789999999998 1
ion Cu   0.000000000000000   1.156085000000000  19.210512999999995 1
ion Cu   0.000000000000000   4.624301999999999  22.480414999999997 1
ion Cu   0.000000000000000   8.092537999999998  25.750317999999996 1
ion Cu   0.000000000000000  16.185055999999996  24.115366999999996 1
ion Cu   2.383311000000000  10.982730999999998   5.313509000000000 1
ion Cu   2.383311000000000  14.450946999999996   8.583411999999999 1
ion Cu   2.383311000000000  19.075248999999996   3.678640999999999 1
ion Cu   2.383311000000000   2.890193000000000   6.948459999999999 1
ion Cu   2.383311000000000   6.358409999999999  10.218362999999998 1
ion Cu   2.383311000000000   9.826645999999998  13.488265999999998 1
ion Cu   2.383311000000000  16.763097999999996  20.027988000000001 1
ion Cu   2.383311000000000  17.919182999999997  11.853315000000000 1
ion Cu   2.383311000000000   1.734108000000000  15.123216999999999 1
ion Cu   2.383311000000000   5.202343999999999  18.393036999999996 1
ion Cu   2.383311000000000   8.670560999999998  21.662939999999999 1
ion Cu   2.383311000000000  12.138796999999999  24.932842999999998 1
ion Cu   2.383311000000000  13.294881999999998  16.758085000000001 1
ion Cu   2.383311000000000   0.578043000000000  23.297890999999996 1
ion Cu   2.383311000000000   4.046258999999999  26.567710999999996 1
ion Cu   2.383311000000000   7.514494999999999   2.043689000000000 1
ion Cu   2.383311000000000  15.607032999999998   0.408738000000000 1
ion-species /projects/musgravc/apps/jdftx-1.6.0/build/pseudopotentials/GBRV_v1.5/$ID_pbe_v1.uspp
ion-species /projects/musgravc/apps/jdftx-1.6.0/build/pseudopotentials/GBRV_v1.5/$ID_pbe_v1.2.uspp
ion-species /projects/musgravc/apps/jdftx-1.6.0/build/pseudopotentials/GBRV_v1.5/$ID_pbe_v1.4.uspp
ion-species /projects/musgravc/apps/jdftx-1.6.0/build/pseudopotentials/GBRV_v1.5/$ID_pbe_v1.5.uspp
ion-width Ecut
ionic-minimize  \
	dirUpdateScheme      L-BFGS \
	linminMethod         DirUpdateRecommended \
	nIterations          100 \
	history              15 \
	knormThreshold       0.0001 \
	energyDiffThreshold  1e-06 \
	nEnergyDiff          2 \
	alphaTstart          1 \
	alphaTmin            1e-10 \
	updateTestStepSize   yes \
	alphaTreduceFactor   0.1 \
	alphaTincreaseFactor 3 \
	nAlphaAdjustMax      3 \
	wolfeEnergy          0.0001 \
	wolfeGradient        0.9 \
	fdTest               no
kpoint   0.000000000000   0.000000000000   0.000000000000  1.00000000000000
kpoint-folding 12 3 1 
latt-move-scale 0 0 0
latt-scale 1 1 1 
lattice  \
	   4.766623000000000   -0.000000000000000    0.000000000000000  \
	   0.000000000000000   19.653292000000000    0.000000000000000  \
	   0.000000000000000    0.000000000000000   83.381855999999999 
lattice-minimize  \
	dirUpdateScheme      L-BFGS \
	linminMethod         DirUpdateRecommended \
	nIterations          0 \
	history              15 \
	knormThreshold       0 \
	energyDiffThreshold  1e-06 \
	nEnergyDiff          2 \
	alphaTstart          1 \
	alphaTmin            1e-10 \
	updateTestStepSize   yes \
	alphaTreduceFactor   0.1 \
	alphaTincreaseFactor 3 \
	nAlphaAdjustMax      3 \
	wolfeEnergy          0.0001 \
	wolfeGradient        0.9 \
	fdTest               no
lcao-params 30 1e-06 0.001
pcm-variant CANDLE
spintype z-spin
subspace-rotation-factor 1 yes
symmetries none
symmetry-threshold 0.0001
van-der-waals D3


Applied RMS atom displacement 0 bohrs to make symmetries exact.

---------- Initializing the Grid ----------
R = 
[      4.76662            0            0  ]
[            0      19.6533            0  ]
[            0            0      83.3819  ]
unit cell volume = 7811.2
G =
[    1.31816          0         -0  ]
[          0   0.319701          0  ]
[          0         -0  0.0753543  ]
Minimum fftbox size, Smin = [  20  80  336  ]
Chosen fftbox size, S = [  20  80  336  ]

---------- Exchange Correlation functional ----------
Initalized PBE GGA exchange.
Initalized PBE GGA correlation.

---------- Setting up pseudopotentials ----------
Width of ionic core gaussian charges (only for fluid interactions / plotting) set to 0.397384

Reading pseudopotential file '/projects/musgravc/apps/jdftx-1.6.0/build/pseudopotentials/GBRV_v1.5/cu_pbe_v1.2.uspp':
  Title: Cu.  Created by USPP 7.3.6 on 3-2-2014
  Reference state energy: -201.059491.  19 valence electrons in orbitals:
    |300>  occupation: 2  eigenvalue: -5.020764
    |310>  occupation: 6  eigenvalue: -3.445588
    |320>  occupation: 8  eigenvalue: -0.925168
    |400>  occupation: 2  eigenvalue: -0.567638
    |410>  occupation: 0  eigenvalue: -0.326154
  lMax: 2  lLocal: 3  QijEcut: 6
  6 projectors sampled on a log grid with 613 points:
    l: 0  eig: -5.020767  rCut: 1.4
    l: 0  eig: -0.567640  rCut: 1.4
    l: 1  eig: -3.445589  rCut: 1.55
    l: 1  eig: -0.326157  rCut: 1.55
    l: 2  eig: -0.925170  rCut: 1.5
    l: 2  eig: 1.500000  rCut: 1.5
  Partial core density with radius 0.8
  Transforming core density to a uniform radial grid of dG=0.02 with 1121 points.
  Transforming local potential to a uniform radial grid of dG=0.02 with 1121 points.
  Transforming nonlocal projectors to a uniform radial grid of dG=0.02 with 432 points.
  Transforming density augmentations to a uniform radial grid of dG=0.02 with 1121 points.
  Transforming atomic orbitals to a uniform radial grid of dG=0.02 with 432 points.
  Core radius for overlap checks: 1.55 bohrs.

Initialized 1 species with 34 total atoms.

Folded 1 k-points by 12x3x1 to 36 k-points.

---------- Setting up k-points, bands, fillings ----------
No reducable k-points. 
Computing the number of bands and number of electrons
Calculating initial fillings.
nElectrons: 646.000000   nBands: 388   nStates: 72

----- Setting up reduced wavefunction bases (one per k-point) -----
average nbasis = 33374.861 , ideal nbasis = 33370.035

----- Initializing Supercell corresponding to k-point mesh -----
Lattice vector linear combinations in supercell:
[  12   0   0  ]
[   0   3   0  ]
[   0   0   1  ]
Supercell lattice vectors:
[  57.1995  0  0  ]
[  0  58.9599  0  ]
[  0  0  83.3819  ]

Initializing DFT-D3 calculator:
	Parameters set for gga-PBE functional
	s6:  1.000  s_r6:  1.217
	s8:  0.722  s_r8:  1.000
	Per-atom parameters loaded for:
	Cu:  sqrtQ[a0]:  5.226  Rcov[a0]:  1.909  CN: [ 0.00 0.96 ]

Initializing DFT-D2 calculator for fluid / solvation:
	Cu:  C6:  187.33 Eh-a0^6  R0: 2.952 a0

---------- Setting up ewald sum ----------
Optimum gaussian width for ewald sums = 4.397807 bohr.
Real space sum over 945 unit cells with max indices [  10  4  2  ]
Reciprocal space sum over 7259 terms with max indices [  3  8  30  ]

Computing DFT-D3 correction:
# coordination-number Cu 6.829 9.125 5.330 6.839 9.150 9.160 9.161 9.156 9.160 9.161 9.160 9.151 9.161 9.159 9.149 6.833 7.625 9.149 9.159 7.625 9.151 9.160 9.161 9.156 9.161 9.161 9.160 9.149 6.838 9.160 9.124 6.830 6.833 5.330
# diagonal-C6 Cu 175.00 175.00 175.00 175.00 175.00 175.00 175.00 175.00 175.00 175.00 175.00 175.00 175.00 175.00 175.00 175.00 175.00 175.00 175.00 175.00 175.00 175.00 175.00 175.00 175.00 175.00 175.00 175.00 175.00 175.00 175.00 175.00 175.00 175.00
EvdW_6 =   -0.219447
EvdW_8 =   -0.319260

---------- Allocating electronic variables ----------
Initializing wave functions:  linear combination of atomic orbitals
Cu pseudo-atom occupations:   s ( 2 1 )  p ( 6 0 )  d ( 10 )
	FillingsUpdate:  mu: -4.179989738  nElectrons: 646.000000  magneticMoment: [ Abs: 0.18757  Tot: -0.00080 ]
LCAOMinimize: Iter:   0  F: -6715.3749846209811949  |grad|_K:  2.975e-02  alpha:  1.000e+00
LCAOMinimize: 	Step increased F by 2.768075e+03, reducing alpha to 3.903288e-02.
LCAOMinimize: 	Step increased F by 4.138400e+02, reducing alpha to 3.903288e-03.
	FillingsUpdate:  mu: -2.734627400  nElectrons: 646.000000  magneticMoment: [ Abs: 0.18839  Tot: -0.00201 ]
LCAOMinimize: Iter:   1  F: -6742.6829807633066594  |grad|_K:  8.993e-03  alpha:  3.903e-03  linmin: -1.422e-01  cgtest:  5.152e-01  t[s]:    470.77
LCAOMinimize: Encountered beta<0, resetting CG.
LCAOMinimize: 	Predicted alpha/alphaT>3.000000, increasing alphaT to 1.170987e-02.
	FillingsUpdate:  mu: -1.337194877  nElectrons: 646.000000  magneticMoment: [ Abs: 0.19681  Tot: -0.00468 ]
LCAOMinimize: Iter:   2  F: -6755.7402673881297233  |grad|_K:  1.372e-02  alpha:  2.386e-02  linmin:  3.003e-03  cgtest: -4.324e-02  t[s]:    612.79
	FillingsUpdate:  mu: -0.261599488  nElectrons: 646.000000  magneticMoment: [ Abs: 0.01622  Tot: +0.00272 ]
LCAOMinimize: Iter:   3  F: -6785.6773751363343763  |grad|_K:  2.537e-02  alpha:  2.360e-02  linmin: -2.380e-03  cgtest: -2.592e-01  t[s]:    726.23
	FillingsUpdate:  mu: +3.971841647  nElectrons: 646.000000  magneticMoment: [ Abs: 0.00276  Tot: -0.00136 ]
LCAOMinimize: Iter:   4  F: -6812.7909546072505691  |grad|_K:  3.891e-02  alpha:  1.518e-02  linmin: -2.047e-03  cgtest: -6.564e-01  t[s]:    841.82
	FillingsUpdate:  mu: +2.063298082  nElectrons: 646.000000  magneticMoment: [ Abs: 0.00048  Tot: +0.00003 ]
LCAOMinimize: Iter:   5  F: -6823.3346426877724298  |grad|_K:  3.295e-03  alpha:  7.473e-03  linmin:  2.242e-02  cgtest:  2.402e+00  t[s]:    955.49
LCAOMinimize: Encountered beta<0, resetting CG.
LCAOMinimize: 	Predicted alpha/alphaT>3.000000, increasing alphaT to 2.241993e-02.
	FillingsUpdate:  mu: +1.982393751  nElectrons: 646.000000  magneticMoment: [ Abs: 0.00057  Tot: +0.00027 ]
LCAOMinimize: Iter:   6  F: -6826.1683197338434184  |grad|_K:  3.336e-03  alpha:  4.695e-02  linmin:  1.625e-02  cgtest: -3.336e-01  t[s]:   1097.92
LCAOMinimize: 	Predicted alpha/alphaT>3.000000, increasing alphaT to 1.408496e-01.
	FillingsUpdate:  mu: +1.977781259  nElectrons: 646.000000  magneticMoment: [ Abs: 0.00059  Tot: +0.00030 ]
LCAOMinimize: Iter:   7  F: -6826.6808520498143480  |grad|_K:  3.381e-03  alpha:  5.483e-03  linmin: -1.814e-02  cgtest:  1.031e+00  t[s]:   1240.03
LCAOMinimize: Encountered beta<0, resetting CG.
LCAOMinimize: 	Predicted alpha/alphaT>3.000000, increasing alphaT to 1.645004e-02.
LCAOMinimize: 	Predicted alpha/alphaT>3.000000, increasing alphaT to 4.935011e-02.
	FillingsUpdate:  mu: +1.718766098  nElectrons: 646.000000  magneticMoment: [ Abs: 0.00057  Tot: +0.00029 ]
LCAOMinimize: Iter:   8  F: -6829.6110455777998141  |grad|_K:  2.607e-03  alpha:  3.276e-02  linmin:  1.374e-02  cgtest: -8.914e-02  t[s]:   1412.38
LCAOMinimize: 	Wrong curvature in test step, increasing alphaT to 9.828050e-02.
	FillingsUpdate:  mu: +1.662744961  nElectrons: 646.000000  magneticMoment: [ Abs: 0.00054  Tot: +0.00019 ]
LCAOMinimize: Iter:   9  F: -6832.1122308400008478  |grad|_K:  2.834e-03  alpha: -6.337e-01  linmin: -2.740e-02  cgtest:  1.021e+00  t[s]:   1519.57
	FillingsUpdate:  mu: +1.572035022  nElectrons: 646.000000  magneticMoment: [ Abs: 0.00048  Tot: +0.00003 ]
LCAOMinimize: Iter:  10  F: -6832.9785667371488671  |grad|_K:  2.326e-03  alpha:  8.022e-03  linmin: -7.922e-02  cgtest:  9.840e-01  t[s]:   1633.32
LCAOMinimize: Encountered beta<0, resetting CG.
LCAOMinimize: 	Predicted alpha/alphaT>3.000000, increasing alphaT to 2.406599e-02.
	FillingsUpdate:  mu: +1.662383744  nElectrons: 646.000000  magneticMoment: [ Abs: 0.00052  Tot: +0.00010 ]
LCAOMinimize: Iter:  11  F: -6835.0921712802246475  |grad|_K:  3.477e-03  alpha:  6.640e-02  linmin:  4.729e-03  cgtest: -1.685e-01  t[s]:   1776.37
	FillingsUpdate:  mu: +1.606506635  nElectrons: 646.000000  magneticMoment: [ Abs: 0.00058  Tot: +0.00010 ]
LCAOMinimize: Iter:  12  F: -6838.5135648506784491  |grad|_K:  4.646e-03  alpha:  2.462e-02  linmin: -1.242e-02  cgtest:  8.861e-01  t[s]:   1890.20
	FillingsUpdate:  mu: +0.744243046  nElectrons: 646.000000  magneticMoment: [ Abs: 0.00091  Tot: +0.00031 ]
LCAOMinimize: Iter:  13  F: -6846.4099977376117749  |grad|_K:  3.952e-03  alpha:  4.138e-02  linmin:  1.524e-02  cgtest: -6.877e-01  t[s]:   2004.19
	FillingsUpdate:  mu: +0.740871548  nElectrons: 646.000000  magneticMoment: [ Abs: 0.00092  Tot: +0.00030 ]
LCAOMinimize: Iter:  14  F: -6846.4409368023043498  |grad|_K:  4.054e-03  alpha:  4.039e-04  linmin: -7.061e-03  cgtest:  9.917e-01  t[s]:   2117.69
LCAOMinimize: 	Predicted alpha/alphaT>3.000000, increasing alphaT to 1.211629e-03.
LCAOMinimize: 	Predicted alpha/alphaT>3.000000, increasing alphaT to 3.634888e-03.
LCAOMinimize: 	Predicted alpha/alphaT>3.000000, increasing alphaT to 1.090467e-02.
	FillingsUpdate:  mu: +0.736601296  nElectrons: 646.000000  magneticMoment: [ Abs: 0.00089  Tot: +0.00014 ]
LCAOMinimize: Iter:  15  F: -6848.7657050612751846  |grad|_K:  1.706e-03  alpha:  1.537e-02  linmin: -1.040e-01  cgtest:  6.791e-01  t[s]:   2289.08
LCAOMinimize: Encountered beta<0, resetting CG.
LCAOMinimize: 	Predicted alpha/alphaT>3.000000, increasing alphaT to 4.610974e-02.
	FillingsUpdate:  mu: +1.574184158  nElectrons: 646.000000  magneticMoment: [ Abs: 0.00106  Tot: +0.00010 ]
LCAOMinimize: Iter:  16  F: -6849.9722811837245899  |grad|_K:  4.890e-03  alpha:  1.117e-01  linmin:  1.479e-02  cgtest: -1.753e-01  t[s]:   2431.56
	FillingsUpdate:  mu: +1.585929945  nElectrons: 646.000000  magneticMoment: [ Abs: 0.00107  Tot: +0.00009 ]
LCAOMinimize: Iter:  17  F: -6849.9804590365438344  |grad|_K:  4.932e-03  alpha:  1.903e-04  linmin: -1.980e-03  cgtest:  9.986e-01  t[s]:   2544.78
LCAOMinimize: 	Predicted alpha/alphaT>3.000000, increasing alphaT to 5.708482e-04.
LCAOMinimize: 	Predicted alpha/alphaT>3.000000, increasing alphaT to 1.712545e-03.
LCAOMinimize: 	Predicted alpha/alphaT>3.000000, increasing alphaT to 5.137634e-03.
	FillingsUpdate:  mu: +0.884180505  nElectrons: 646.000000  magneticMoment: [ Abs: 0.00111  Tot: +0.00001 ]
LCAOMinimize: Iter:  18  F: -6852.6482435614325368  |grad|_K:  1.593e-03  alpha:  1.543e-02  linmin:  2.007e-02  cgtest: -2.105e-01  t[s]:   2716.20
LCAOMinimize: 	Predicted alpha/alphaT>3.000000, increasing alphaT to 4.628963e-02.
	FillingsUpdate:  mu: +0.275979786  nElectrons: 646.000000  magneticMoment: [ Abs: 0.00152  Tot: -0.00007 ]
LCAOMinimize: Iter:  19  F: -6853.4157872959976885  |grad|_K:  3.527e-03  alpha:  1.028e-01  linmin:  4.647e-02  cgtest:  4.002e-02  t[s]:   2858.55
LCAOMinimize: 	Bad step direction: g.d > 0.
LCAOMinimize: 	Undoing step.
LCAOMinimize: 	Step failed: resetting search direction.
	FillingsUpdate:  mu: +0.275979786  nElectrons: 646.000000  magneticMoment: [ Abs: 0.00152  Tot: -0.00007 ]
LCAOMinimize: Iter:  20  F: -6853.4157872959976885  |grad|_K:  3.527e-03  alpha:  0.000e+00
	FillingsUpdate:  mu: +0.374141599  nElectrons: 646.000000  magneticMoment: [ Abs: 0.00149  Tot: -0.00004 ]
LCAOMinimize: Iter:  21  F: -6854.5569798338428882  |grad|_K:  2.418e-03  alpha:  7.796e-03  linmin: -9.851e-02  cgtest:  9.406e-01  t[s]:   3056.62
LCAOMinimize: Encountered beta<0, resetting CG.
LCAOMinimize: 	Predicted alpha/alphaT>3.000000, increasing alphaT to 2.338850e-02.
	FillingsUpdate:  mu: +0.632231650  nElectrons: 646.000000  magneticMoment: [ Abs: 0.00152  Tot: +0.00004 ]
LCAOMinimize: Iter:  22  F: -6855.7241610744176796  |grad|_K:  1.405e-03  alpha:  2.871e-02  linmin:  7.929e-03  cgtest: -1.651e-01  t[s]:   3199.08
	FillingsUpdate:  mu: +0.701467310  nElectrons: 646.000000  magneticMoment: [ Abs: 0.00158  Tot: +0.00004 ]
LCAOMinimize: Iter:  23  F: -6855.9903848253161414  |grad|_K:  1.363e-03  alpha:  1.981e-02  linmin:  2.938e-04  cgtest:  1.312e-01  t[s]:   3312.72
LCAOMinimize: 	Predicted alpha/alphaT>3.000000, increasing alphaT to 5.943936e-02.
LCAOMinimize: 	Step increased F by 2.946160e+01, reducing alpha to 1.662553e-02.
	FillingsUpdate:  mu: +0.647582977  nElectrons: 646.000000  magneticMoment: [ Abs: 0.00167  Tot: +0.00004 ]
LCAOMinimize: Iter:  24  F: -6856.4129374900585390  |grad|_K:  1.275e-03  alpha:  1.663e-02  linmin: -8.032e-02  cgtest:  9.637e-01  t[s]:   3540.62
LCAOMinimize: Encountered beta<0, resetting CG.
	FillingsUpdate:  mu: +0.539965615  nElectrons: 646.000000  magneticMoment: [ Abs: 0.00173  Tot: +0.00003 ]
LCAOMinimize: Iter:  25  F: -6856.6542849461211517  |grad|_K:  1.304e-03  alpha:  2.165e-02  linmin:  1.033e-02  cgtest: -8.395e-02  t[s]:   3653.90
	FillingsUpdate:  mu: +0.344906910  nElectrons: 646.000000  magneticMoment: [ Abs: 0.00187  Tot: +0.00001 ]
LCAOMinimize: Iter:  26  F: -6856.9675027487064654  |grad|_K:  1.420e-03  alpha:  2.931e-02  linmin:  3.300e-03  cgtest:  2.818e-01  t[s]:   3767.74
	FillingsUpdate:  mu: +0.716397458  nElectrons: 646.000000  magneticMoment: [ Abs: 0.00226  Tot: -0.00009 ]
LCAOMinimize: Iter:  27  F: -6857.2377045508974334  |grad|_K:  3.283e-03  alpha:  4.576e-02  linmin:  4.465e-02  cgtest: -2.487e-01  t[s]:   3881.15
LCAOMinimize: 	Bad step direction: g.d > 0.
LCAOMinimize: 	Undoing step.
LCAOMinimize: 	Step failed: resetting search direction.
	FillingsUpdate:  mu: +0.716397458  nElectrons: 646.000000  magneticMoment: [ Abs: 0.00226  Tot: -0.00009 ]
LCAOMinimize: Iter:  28  F: -6857.2377045508974334  |grad|_K:  3.283e-03  alpha:  0.000e+00
	FillingsUpdate:  mu: +0.426179433  nElectrons: 646.000000  magneticMoment: [ Abs: 0.00224  Tot: -0.00005 ]
LCAOMinimize: Iter:  29  F: -6857.6972119416823261  |grad|_K:  1.148e-03  alpha:  8.457e-03  linmin:  6.430e-02  cgtest: -6.008e-01  t[s]:   4078.98
	FillingsUpdate:  mu: +0.346399857  nElectrons: 646.000000  magneticMoment: [ Abs: 0.00222  Tot: -0.00003 ]
LCAOMinimize: Iter:  30  F: -6857.7591146756913076  |grad|_K:  9.383e-04  alpha:  1.374e-02  linmin: -6.142e-03  cgtest:  8.285e-01  t[s]:   4191.98
LCAOMinimize: Encountered beta<0, resetting CG.
LCAOMinimize: None of the convergence criteria satisfied after 30 iterations.
----- createFluidSolver() ----- (Fluid-side solver setup)
   Initializing fluid molecule 'H2O'
     Initializing site 'O'
       Electron density: proportional to exp(-r/0.36935)*erfc((r-0.51523)/0.36823) with norm 6.826
       Charge density: gaussian nuclear width 0.478731 with net site charge 0.826
       Polarizability: cuspless exponential with width 0.32 and norm 3.73
       Hard sphere radius: 2.57003 bohrs
       Positions in reference frame:
         [ +0.000000 +0.000000 +0.000000 ]
     Initializing site 'H'
       Electron density: proportional to exp(-r/0.34641)*erfc((r-0)/0.390882) with norm 0.587
       Charge density: gaussian nuclear width 0.377945 with net site charge -0.413
       Polarizability: cuspless exponential with width 0.39 and norm 3.3
       Positions in reference frame:
         [ +0.000000 -1.441945 +1.122523 ]
         [ +0.000000 +1.441945 +1.122523 ]
     Net charge: 0   dipole magnitude: 0.927204
     Initializing spherical shell mfKernel with radius 2.61727 Bohr
     deltaS corrections:
       site 'O': -7.54299
       site 'H': -6.83917
   Initializing fluid molecule 'Na+'
     Initializing site 'Na'
       Electron density: proportional to exp(-r/0.19682)*erfc((r-0.71491)/0.41314) with norm 8.1383
       Charge density: gaussian nuclear width 0.365347 with net site charge -1
       Hard sphere radius: 1.86327 bohrs
       Positions in reference frame:
         [ +0.000000 +0.000000 +0.000000 ]
     Net charge: -1   dipole magnitude: 0
     Initializing gaussian mfKernel with width: 1.55004 Bohr
     deltaS corrections:
       site 'Na': -22.3555
   Initializing fluid molecule 'F-'
     Initializing site 'F'
       Electron density: proportional to exp(-r/0.38886)*erfc((r-0)/0.438782) with norm 8
       Charge density: gaussian nuclear width 0.374796 with net site charge 1
       Hard sphere radius: 2.39995 bohrs
       Positions in reference frame:
         [ +0.000000 +0.000000 +0.000000 ]
     Net charge: 1   dipole magnitude: 0
     Initializing gaussian mfKernel with width: 1.59012 Bohr
     deltaS corrections:
       site 'F': -9.04335

Correction to mu due to finite nuclear width = -0.0820568
   Cavity determined by nc: 0.00142 and sigma: 0.707107
   Nonlocal vdW cavity from gaussian model electron density with norm = 8 and sigma = 0.993594 bohr
   Charge asymmetry in cavity with sensitivity pCavity = 36.5 e-bohr/Eh
   Electrostatic cavity expanded by eta = 1.46 bohrs
   Weighted density cavitation model constrained by Nbulk: 0.0049383 bohr^-3, Pvap: 3.14029 kPa, Rvdw: 2.61727 bohr and sigmaBulk: 4.62e-05 Eh/bohr^2 at T: 298 K.
   Weighted density dispersion model using vdW pair potentials with single solvent site with sqrtC6eff: 0.77 SI.


---- Citations for features of the code used in this run ----

   Software package:
      R. Sundararaman, K. Letchworth-Weaver, K.A. Schwarz, D. Gunceler, Y. Ozhabes and T.A. Arias, 'JDFTx: software for joint density-functional theory', SoftwareX 6, 278 (2017)

   gga-PBE exchange-correlation functional:
      J.P. Perdew, K. Burke and M. Ernzerhof, Phys. Rev. Lett. 77, 3865 (1996)

   Pseudopotentials:
      KF Garrity, JW Bennett, KM Rabe and D Vanderbilt, Comput. Mater. Sci. 81, 446 (2014)

   DFT-D3 dispersion correction:
      S. Grimme, J. Antony, S. Ehrlich and H. Krieg, J. Chem. Phys. 132, 154104 (2010)

   DFT-D2 dispersion correction:
      S. Grimme, J. Comput. Chem. 27, 1787 (2006)

   Charge-asymmetric nonlocally-determined local-electric (CANDLE) solvation model:
      R. Sundararaman and W.A. Goddard III, J. Chem. Phys. 142, 064107 (2015)

   Total energy minimization with Auxiliary Hamiltonian:
      C. Freysoldt, S. Boeck, and J. Neugebauer, Phys. Rev. B 79, 241103(R) (2009)

   Linear-tetrahedron sampling for density of states:
      G. Lehmann and M. Taut, Phys. status solidi (b) 54, 469 (1972)

This list may not be complete. Please suggest additional citations or
report any other bugs at https://github.com/shankar1729/jdftx/issues

Initialization completed successfully at t[s]:   4227.96


Computing DFT-D3 correction:
# coordination-number Cu 6.829 9.125 5.330 6.839 9.150 9.160 9.161 9.156 9.160 9.161 9.160 9.151 9.161 9.159 9.149 6.833 7.625 9.149 9.159 7.625 9.151 9.160 9.161 9.156 9.161 9.161 9.160 9.149 6.838 9.160 9.124 6.830 6.833 5.330
# diagonal-C6 Cu 175.00 175.00 175.00 175.00 175.00 175.00 175.00 175.00 175.00 175.00 175.00 175.00 175.00 175.00 175.00 175.00 175.00 175.00 175.00 175.00 175.00 175.00 175.00 175.00 175.00 175.00 175.00 175.00 175.00 175.00 175.00 175.00 175.00 175.00
EvdW_6 =   -0.219447
EvdW_8 =   -0.319260
Fluid solver invoked on fresh (random / LCAO) wavefunctions
Running a vacuum solve first:

-------- Initial electronic minimization -----------
	FillingsUpdate:  mu: +0.346802856  nElectrons: 646.000000  magneticMoment: [ Abs: 0.00222  Tot: -0.00003 ]
ElecMinimize: Iter:   0  F: -6857.759114675691308  |grad|_K:  1.901e-04  alpha:  1.000e+00
	FillingsUpdate:  mu: +0.415306146  nElectrons: 646.000000  magneticMoment: [ Abs: 0.00221  Tot: -0.00003 ]
	SubspaceRotationAdjust: set factor to 0.769
ElecMinimize: Iter:   1  F: -6858.628733090162314  |grad|_K:  1.962e-04  alpha:  1.872e-02  linmin: -5.964e-04  t[s]:   4555.55
	FillingsUpdate:  mu: +0.290851506  nElectrons: 646.000000  magneticMoment: [ Abs: 0.00217  Tot: -0.00004 ]
	SubspaceRotationAdjust: set factor to 0.384
ElecMinimize: Iter:   2  F: -6860.170095545850927  |grad|_K:  1.449e-04  alpha:  3.181e-02  linmin:  1.269e-04  t[s]:   4767.73
	FillingsUpdate:  mu: +0.074489294  nElectrons: 646.000000  magneticMoment: [ Abs: 0.00212  Tot: -0.00004 ]
	SubspaceRotationAdjust: set factor to 0.235
ElecMinimize: Iter:   3  F: -6860.444373736531816  |grad|_K:  6.486e-05  alpha:  1.490e-02  linmin:  2.269e-05  t[s]:   4979.29
ElecMinimize: 	Predicted alpha/alphaT>3.000000, increasing alphaT to 4.470005e-02.
ElecMinimize: 	Predicted alpha/alphaT>3.000000, increasing alphaT to 1.341001e-01.
	FillingsUpdate:  mu: +0.062593339  nElectrons: 646.000000  magneticMoment: [ Abs: 0.00167  Tot: -0.00002 ]
	SubspaceRotationAdjust: set factor to 0.226
ElecMinimize: Iter:   4  F: -6861.276290068471098  |grad|_K:  8.817e-05  alpha:  2.090e-01  linmin: -2.650e-05  t[s]:   5295.74
	FillingsUpdate:  mu: +0.234733345  nElectrons: 646.000000  magneticMoment: [ Abs: 0.00127  Tot: -0.00004 ]
	SubspaceRotationAdjust: set factor to 0.167
ElecMinimize: Iter:   5  F: -6862.198370947608964  |grad|_K:  6.392e-05  alpha:  1.233e-01  linmin:  5.670e-06  t[s]:   5506.99
	FillingsUpdate:  mu: +0.135755830  nElectrons: 646.000000  magneticMoment: [ Abs: 0.00115  Tot: -0.00004 ]
	SubspaceRotationAdjust: set factor to 0.108
	SubspaceRotationAdjust: resetting CG because factor has changed by 0.107652
ElecMinimize: 	State modified externally: resetting search direction.
ElecMinimize: Iter:   6  F: -6862.415214565980932  |grad|_K:  3.555e-05  alpha:  5.852e-02
	FillingsUpdate:  mu: +0.109505299  nElectrons: 646.000000  magneticMoment: [ Abs: 0.00110  Tot: -0.00004 ]
	SubspaceRotationAdjust: set factor to 0.155
ElecMinimize: Iter:   7  F: -6862.571527653349222  |grad|_K:  2.541e-05  alpha:  1.318e-01  linmin: -6.333e-06  t[s]:   6033.23
	FillingsUpdate:  mu: +0.088743007  nElectrons: 646.000000  magneticMoment: [ Abs: 0.00105  Tot: -0.00003 ]
	SubspaceRotationAdjust: set factor to 0.173
ElecMinimize: Iter:   8  F: -6862.686320500514739  |grad|_K:  1.533e-05  alpha:  1.891e-01  linmin: -1.954e-05  t[s]:   6244.84
	FillingsUpdate:  mu: +0.097967374  nElectrons: 646.000000  magneticMoment: [ Abs: 0.00092  Tot: -0.00003 ]
	SubspaceRotationAdjust: set factor to 0.193
ElecMinimize: Iter:   9  F: -6862.739957719887570  |grad|_K:  2.012e-05  alpha:  2.418e-01  linmin: -4.761e-06  t[s]:   6456.97
	FillingsUpdate:  mu: +0.107645843  nElectrons: 646.000000  magneticMoment: [ Abs: 0.00077  Tot: -0.00002 ]
	SubspaceRotationAdjust: set factor to 0.168
ElecMinimize: Iter:  10  F: -6862.814651318005417  |grad|_K:  2.009e-05  alpha:  1.967e-01  linmin: -5.059e-06  t[s]:   6668.25
	FillingsUpdate:  mu: +0.096797488  nElectrons: 646.000000  magneticMoment: [ Abs: 0.00070  Tot: -0.00002 ]
	SubspaceRotationAdjust: set factor to 0.126
ElecMinimize: Iter:  11  F: -6862.863477938969481  |grad|_K:  1.891e-05  alpha:  1.304e-01  linmin:  4.171e-08  t[s]:   6879.87
	FillingsUpdate:  mu: +0.098738098  nElectrons: 646.000000  magneticMoment: [ Abs: 0.00063  Tot: -0.00000 ]
	SubspaceRotationAdjust: set factor to 0.131
ElecMinimize: Iter:  12  F: -6862.948208783066548  |grad|_K:  1.511e-05  alpha:  2.500e-01  linmin: -8.701e-06  t[s]:   7091.81
	FillingsUpdate:  mu: +0.099534407  nElectrons: 646.000000  magneticMoment: [ Abs: 0.00064  Tot: +0.00001 ]
	SubspaceRotationAdjust: set factor to 0.134
ElecMinimize: Iter:  13  F: -6862.985203401548461  |grad|_K:  1.274e-05  alpha:  1.691e-01  linmin:  3.139e-08  t[s]:   7302.69
	FillingsUpdate:  mu: +0.102283221  nElectrons: 646.000000  magneticMoment: [ Abs: 0.00063  Tot: +0.00002 ]
	SubspaceRotationAdjust: set factor to 0.135
ElecMinimize: Iter:  14  F: -6863.016428543294751  |grad|_K:  7.695e-06  alpha:  2.051e-01  linmin:  2.611e-10  t[s]:   7515.27
	FillingsUpdate:  mu: +0.103133376  nElectrons: 646.000000  magneticMoment: [ Abs: 0.00058  Tot: +0.00002 ]
	SubspaceRotationAdjust: set factor to 0.141
ElecMinimize: Iter:  15  F: -6863.025218306604984  |grad|_K:  6.203e-06  alpha:  1.583e-01  linmin: -9.731e-08  t[s]:   7727.77
	FillingsUpdate:  mu: +0.097770605  nElectrons: 646.000000  magneticMoment: [ Abs: 0.00050  Tot: +0.00002 ]
	SubspaceRotationAdjust: set factor to 0.144
ElecMinimize: Iter:  16  F: -6863.033541098008754  |grad|_K:  5.176e-06  alpha:  2.306e-01  linmin:  1.571e-07  t[s]:   7939.24
	FillingsUpdate:  mu: +0.097567755  nElectrons: 646.000000  magneticMoment: [ Abs: 0.00045  Tot: +0.00002 ]
	SubspaceRotationAdjust: set factor to 0.152
ElecMinimize: Iter:  17  F: -6863.037054115206956  |grad|_K:  3.812e-06  alpha:  1.399e-01  linmin: -2.242e-08  t[s]:   8151.35
	FillingsUpdate:  mu: +0.100522509  nElectrons: 646.000000  magneticMoment: [ Abs: 0.00038  Tot: +0.00002 ]
	SubspaceRotationAdjust: set factor to 0.159
ElecMinimize: Iter:  18  F: -6863.040556119577559  |grad|_K:  3.679e-06  alpha:  2.569e-01  linmin: -1.756e-07  t[s]:   8363.92
	FillingsUpdate:  mu: +0.099789504  nElectrons: 646.000000  magneticMoment: [ Abs: 0.00035  Tot: +0.00002 ]
	SubspaceRotationAdjust: set factor to 0.179
ElecMinimize: Iter:  19  F: -6863.042176414138339  |grad|_K:  2.153e-06  alpha:  1.276e-01  linmin: -5.102e-08  t[s]:   8576.39
	FillingsUpdate:  mu: +0.098497594  nElectrons: 646.000000  magneticMoment: [ Abs: 0.00031  Tot: +0.00002 ]
	SubspaceRotationAdjust: set factor to 0.207
ElecMinimize: Iter:  20  F: -6863.043216987076448  |grad|_K:  2.057e-06  alpha:  2.394e-01  linmin:  1.047e-07  t[s]:   8787.55
	FillingsUpdate:  mu: +0.098147517  nElectrons: 646.000000  magneticMoment: [ Abs: 0.00028  Tot: +0.00001 ]
	SubspaceRotationAdjust: set factor to 0.251
ElecMinimize: Iter:  21  F: -6863.043858453458597  |grad|_K:  1.735e-06  alpha:  1.616e-01  linmin: -7.731e-09  t[s]:   8999.73
	FillingsUpdate:  mu: +0.097652040  nElectrons: 646.000000  magneticMoment: [ Abs: 0.00024  Tot: +0.00001 ]
	SubspaceRotationAdjust: set factor to 0.272
ElecMinimize: Iter:  22  F: -6863.044603724332774  |grad|_K:  2.021e-06  alpha:  2.642e-01  linmin:  1.654e-07  t[s]:   9210.70
	FillingsUpdate:  mu: +0.096982329  nElectrons: 646.000000  magneticMoment: [ Abs: 0.00022  Tot: +0.00001 ]
	SubspaceRotationAdjust: set factor to 0.235
ElecMinimize: Iter:  23  F: -6863.045101443891326  |grad|_K:  1.771e-06  alpha:  1.298e-01  linmin: -2.016e-07  t[s]:   9421.83
	FillingsUpdate:  mu: +0.095677534  nElectrons: 646.000000  magneticMoment: [ Abs: 0.00020  Tot: +0.00001 ]
	SubspaceRotationAdjust: set factor to 0.183
ElecMinimize: Iter:  24  F: -6863.045435119329341  |grad|_K:  1.724e-06  alpha:  1.133e-01  linmin:  1.172e-07  t[s]:   9634.02
	FillingsUpdate:  mu: +0.092670985  nElectrons: 646.000000  magneticMoment: [ Abs: 0.00017  Tot: +0.00001 ]
	SubspaceRotationAdjust: set factor to 0.186
ElecMinimize: Iter:  25  F: -6863.045955226149999  |grad|_K:  1.342e-06  alpha:  1.870e-01  linmin:  6.170e-07  t[s]:   9845.08
	FillingsUpdate:  mu: +0.091973478  nElectrons: 646.000000  magneticMoment: [ Abs: 0.00015  Tot: +0.00001 ]
	SubspaceRotationAdjust: set factor to 0.202
ElecMinimize: Iter:  26  F: -6863.046177388318938  |grad|_K:  9.868e-07  alpha:  1.321e-01  linmin:  2.506e-08  t[s]:  10056.98
	FillingsUpdate:  mu: +0.092897674  nElectrons: 646.000000  magneticMoment: [ Abs: 0.00013  Tot: +0.00001 ]
	SubspaceRotationAdjust: set factor to 0.179
ElecMinimize: Iter:  27  F: -6863.046361997767235  |grad|_K:  1.088e-06  alpha:  2.022e-01  linmin:  9.245e-08  t[s]:  10268.10
	FillingsUpdate:  mu: +0.093320216  nElectrons: 646.000000  magneticMoment: [ Abs: 0.00011  Tot: +0.00001 ]
	SubspaceRotationAdjust: set factor to 0.147
ElecMinimize: Iter:  28  F: -6863.046489920546264  |grad|_K:  7.064e-07  alpha:  1.152e-01  linmin: -1.745e-08  t[s]:  10480.12
	FillingsUpdate:  mu: +0.092743512  nElectrons: 646.000000  magneticMoment: [ Abs: 0.00009  Tot: +0.00001 ]
	SubspaceRotationAdjust: set factor to 0.156
ElecMinimize: Iter:  29  F: -6863.046578694878008  |grad|_K:  6.809e-07  alpha:  1.897e-01  linmin:  5.706e-08  t[s]:  10691.68
	FillingsUpdate:  mu: +0.092464168  nElectrons: 646.000000  magneticMoment: [ Abs: 0.00007  Tot: +0.00001 ]
	SubspaceRotationAdjust: set factor to 0.162
ElecMinimize: Iter:  30  F: -6863.046643824938656  |grad|_K:  4.791e-07  alpha:  1.498e-01  linmin:  1.277e-08  t[s]:  10902.63
	FillingsUpdate:  mu: +0.092985083  nElectrons: 646.000000  magneticMoment: [ Abs: 0.00006  Tot: +0.00001 ]
	SubspaceRotationAdjust: set factor to 0.159
ElecMinimize: Iter:  31  F: -6863.046675336513545  |grad|_K:  3.901e-07  alpha:  1.464e-01  linmin: -6.505e-09  t[s]:  11114.61
	FillingsUpdate:  mu: +0.093644568  nElectrons: 646.000000  magneticMoment: [ Abs: 0.00005  Tot: +0.00001 ]
	SubspaceRotationAdjust: set factor to 0.169
ElecMinimize: Iter:  32  F: -6863.046699654923032  |grad|_K:  2.873e-07  alpha:  1.704e-01  linmin:  1.200e-08  t[s]:  11325.76
	FillingsUpdate:  mu: +0.093637191  nElectrons: 646.000000  magneticMoment: [ Abs: 0.00004  Tot: +0.00001 ]
	SubspaceRotationAdjust: set factor to 0.195
ElecMinimize: Iter:  33  F: -6863.046711985394722  |grad|_K:  2.641e-07  alpha:  1.593e-01  linmin: -1.991e-09  t[s]:  11537.07
	FillingsUpdate:  mu: +0.093378228  nElectrons: 646.000000  magneticMoment: [ Abs: 0.00004  Tot: +0.00001 ]
	SubspaceRotationAdjust: set factor to 0.201
ElecMinimize: Iter:  34  F: -6863.046723681500225  |grad|_K:  2.223e-07  alpha:  1.788e-01  linmin: -2.943e-08  t[s]:  11748.69
	FillingsUpdate:  mu: +0.093404098  nElectrons: 646.000000  magneticMoment: [ Abs: 0.00004  Tot: +0.00001 ]
	SubspaceRotationAdjust: set factor to 0.212
ElecMinimize: Iter:  35  F: -6863.046730058490539  |grad|_K:  1.871e-07  alpha:  1.376e-01  linmin:  5.857e-09  t[s]:  11960.22
	FillingsUpdate:  mu: +0.093784075  nElectrons: 646.000000  magneticMoment: [ Abs: 0.00004  Tot: +0.00001 ]
	SubspaceRotationAdjust: set factor to 0.215
ElecMinimize: Iter:  36  F: -6863.046737011379264  |grad|_K:  1.872e-07  alpha:  2.117e-01  linmin: -3.018e-07  t[s]:  12172.09
	FillingsUpdate:  mu: +0.094003455  nElectrons: 646.000000  magneticMoment: [ Abs: 0.00004  Tot: +0.00000 ]
	SubspaceRotationAdjust: set factor to 0.233
ElecMinimize: Iter:  37  F: -6863.046741310437937  |grad|_K:  1.386e-07  alpha:  1.309e-01  linmin: -1.077e-07  t[s]:  12382.86
	FillingsUpdate:  mu: +0.094016695  nElectrons: 646.000000  magneticMoment: [ Abs: 0.00003  Tot: +0.00000 ]
	SubspaceRotationAdjust: set factor to 0.244
ElecMinimize: Iter:  38  F: -6863.046745114565965  |grad|_K:  1.367e-07  alpha:  2.112e-01  linmin: -2.937e-09  t[s]:  12595.27
	FillingsUpdate:  mu: +0.094059728  nElectrons: 646.000000  magneticMoment: [ Abs: 0.00003  Tot: +0.00000 ]
	SubspaceRotationAdjust: set factor to 0.267
ElecMinimize: Iter:  39  F: -6863.046747825958846  |grad|_K:  1.004e-07  alpha:  1.547e-01  linmin:  2.013e-08  t[s]:  12806.75
	FillingsUpdate:  mu: +0.094222343  nElectrons: 646.000000  magneticMoment: [ Abs: 0.00003  Tot: +0.00000 ]
	SubspaceRotationAdjust: set factor to 0.288
ElecMinimize: Iter:  40  F: -6863.046749431543503  |grad|_K:  8.946e-08  alpha:  1.701e-01  linmin:  8.072e-08  t[s]:  13017.63
	FillingsUpdate:  mu: +0.094314844  nElectrons: 646.000000  magneticMoment: [ Abs: 0.00002  Tot: +0.00000 ]
	SubspaceRotationAdjust: set factor to 0.327
ElecMinimize: Iter:  41  F: -6863.046750607258218  |grad|_K:  7.015e-08  alpha:  1.568e-01  linmin:  4.088e-07  t[s]:  13229.97
	FillingsUpdate:  mu: +0.094226143  nElectrons: 646.000000  magneticMoment: [ Abs: 0.00002  Tot: +0.00000 ]
	SubspaceRotationAdjust: set factor to 0.324
ElecMinimize: Iter:  42  F: -6863.046751421110457  |grad|_K:  7.931e-08  alpha:  1.770e-01  linmin:  2.931e-07  t[s]:  13441.28
	FillingsUpdate:  mu: +0.094173004  nElectrons: 646.000000  magneticMoment: [ Abs: 0.00002  Tot: +0.00000 ]
	SubspaceRotationAdjust: set factor to 0.252
ElecMinimize: Iter:  43  F: -6863.046752028983065  |grad|_K:  8.064e-08  alpha:  1.032e-01  linmin: -1.092e-07  t[s]:  13652.40
	FillingsUpdate:  mu: +0.094194486  nElectrons: 646.000000  magneticMoment: [ Abs: 0.00001  Tot: +0.00000 ]
	SubspaceRotationAdjust: set factor to 0.232
ElecMinimize: Iter:  44  F: -6863.046752571962315  |grad|_K:  5.250e-08  alpha:  8.932e-02  linmin:  3.893e-08  t[s]:  13864.57
	FillingsUpdate:  mu: +0.094286531  nElectrons: 646.000000  magneticMoment: [ Abs: 0.00001  Tot: +0.00000 ]
	SubspaceRotationAdjust: set factor to 0.255
ElecMinimize: Iter:  45  F: -6863.046752980126257  |grad|_K:  4.464e-08  alpha:  1.604e-01  linmin:  1.879e-06  t[s]:  14076.55
	FillingsUpdate:  mu: +0.094307816  nElectrons: 646.000000  magneticMoment: [ Abs: 0.00001  Tot: +0.00000 ]
	SubspaceRotationAdjust: set factor to 0.277
ElecMinimize: Iter:  46  F: -6863.046753263421124  |grad|_K:  3.957e-08  alpha:  1.542e-01  linmin:  1.000e-06  t[s]:  14288.10
	FillingsUpdate:  mu: +0.094260800  nElectrons: 646.000000  magneticMoment: [ Abs: 0.00001  Tot: +0.00000 ]
	SubspaceRotationAdjust: set factor to 0.23
ElecMinimize: Iter:  47  F: -6863.046753424477174  |grad|_K:  3.745e-08  alpha:  1.112e-01  linmin:  1.445e-07  t[s]:  14498.83
	FillingsUpdate:  mu: +0.094196088  nElectrons: 646.000000  magneticMoment: [ Abs: 0.00001  Tot: +0.00000 ]
	SubspaceRotationAdjust: set factor to 0.194
ElecMinimize: Iter:  48  F: -6863.046753582813835  |grad|_K:  3.097e-08  alpha:  1.206e-01  linmin:  3.877e-07  t[s]:  14710.96
	FillingsUpdate:  mu: +0.094193208  nElectrons: 646.000000  magneticMoment: [ Abs: 0.00001  Tot: +0.00000 ]
	SubspaceRotationAdjust: set factor to 0.24
ElecMinimize: Iter:  49  F: -6863.046753731013268  |grad|_K:  2.583e-08  alpha:  1.650e-01  linmin:  1.063e-06  t[s]:  14922.64
	FillingsUpdate:  mu: +0.094224425  nElectrons: 646.000000  magneticMoment: [ Abs: 0.00001  Tot: +0.00000 ]
	SubspaceRotationAdjust: set factor to 0.239
ElecMinimize: Iter:  50  F: -6863.046753824225561  |grad|_K:  2.115e-08  alpha:  1.494e-01  linmin: -1.782e-06  t[s]:  15133.80
	FillingsUpdate:  mu: +0.094228655  nElectrons: 646.000000  magneticMoment: [ Abs: 0.00001  Tot: +0.00000 ]
	SubspaceRotationAdjust: set factor to 0.201
ElecMinimize: Iter:  51  F: -6863.046753879436437  |grad|_K:  2.056e-08  alpha:  1.309e-01  linmin:  3.248e-07  t[s]:  15345.75
ElecMinimize: Converged (|Delta F|<1.000000e-07 for 2 iters).
Setting wave functions to eigenvectors of Hamiltonian
Converging empty states (this may take a while): |deigs|: 1.950e-02
Vacuum energy after initial minimize, F = -6863.046753879436437


-------- Electronic minimization -----------
	Linear fluid (dielectric constant: 78.4, screening length: 8.12261 Bohr) occupying 0.563297 of unit cell:	Completed after 24 iterations at t[s]:  16399.81
	FillingsUpdate:  mu: -0.166233584  nElectrons: 646.000000  magneticMoment: [ Abs: 0.00000  Tot: +0.00000 ]
ElecMinimize: Iter:   0  F: -6863.047293319345954  |grad|_K:  6.523e-07  alpha:  1.000e+00
	Linear fluid (dielectric constant: 78.4, screening length: 8.12261 Bohr) occupying 0.563998 of unit cell:	Completed after 23 iterations at t[s]:  16576.72
	Linear fluid (dielectric constant: 78.4, screening length: 8.12261 Bohr) occupying 0.563403 of unit cell:	Completed after 22 iterations at t[s]:  16633.53
	FillingsUpdate:  mu: -0.163611494  nElectrons: 646.000000  magneticMoment: [ Abs: 0.00000  Tot: +0.00000 ]
	SubspaceRotationAdjust: set factor to 0.193
ElecMinimize: Iter:   1  F: -6863.047356029788716  |grad|_K:  4.788e-07  alpha:  1.582e-01  linmin:  8.412e-07  t[s]:  16717.59
	Linear fluid (dielectric constant: 78.4, screening length: 8.12261 Bohr) occupying 0.563538 of unit cell:	Completed after 14 iterations at t[s]:  16795.93
	Linear fluid (dielectric constant: 78.4, screening length: 8.12261 Bohr) occupying 0.563629 of unit cell:	Completed after 12 iterations at t[s]:  16851.01
	FillingsUpdate:  mu: -0.161748944  nElectrons: 646.000000  magneticMoment: [ Abs: 0.00000  Tot: +0.00000 ]
	SubspaceRotationAdjust: set factor to 0.247
ElecMinimize: Iter:   2  F: -6863.047412788191650  |grad|_K:  6.258e-07  alpha:  2.646e-01  linmin: -1.347e-07  t[s]:  16934.82
	Linear fluid (dielectric constant: 78.4, screening length: 8.12261 Bohr) occupying 0.564097 of unit cell:	Completed after 17 iterations at t[s]:  17014.64
	Linear fluid (dielectric constant: 78.4, screening length: 8.12261 Bohr) occupying 0.564140 of unit cell:	Completed after 8 iterations at t[s]:  17069.67
	FillingsUpdate:  mu: -0.160378127  nElectrons: 646.000000  magneticMoment: [ Abs: 0.00000  Tot: +0.00000 ]
	SubspaceRotationAdjust: set factor to 0.28
ElecMinimize: Iter:   3  F: -6863.047519354797259  |grad|_K:  4.172e-07  alpha:  2.891e-01  linmin: -3.335e-07  t[s]:  17153.39
	Linear fluid (dielectric constant: 78.4, screening length: 8.12261 Bohr) occupying 0.564405 of unit cell:	Completed after 12 iterations at t[s]:  17231.88
	Linear fluid (dielectric constant: 78.4, screening length: 8.12261 Bohr) occupying 0.564403 of unit cell:	Completed after 0 iterations at t[s]:  17286.75
	FillingsUpdate:  mu: -0.161299240  nElectrons: 646.000000  magneticMoment: [ Abs: 0.00000  Tot: +0.00000 ]
	SubspaceRotationAdjust: set factor to 0.316
ElecMinimize: Iter:   4  F: -6863.047566345589985  |grad|_K:  4.516e-07  alpha:  2.863e-01  linmin:  8.950e-08  t[s]:  17370.42
	Linear fluid (dielectric constant: 78.4, screening length: 8.12261 Bohr) occupying 0.564749 of unit cell:	Completed after 14 iterations at t[s]:  17449.07
	Linear fluid (dielectric constant: 78.4, screening length: 8.12261 Bohr) occupying 0.564628 of unit cell:	Completed after 11 iterations at t[s]:  17504.34
	FillingsUpdate:  mu: -0.160743501  nElectrons: 646.000000  magneticMoment: [ Abs: 0.00000  Tot: +0.00000 ]
	SubspaceRotationAdjust: set factor to 0.371
ElecMinimize: Iter:   5  F: -6863.047601649579519  |grad|_K:  3.776e-07  alpha:  1.853e-01  linmin:  7.854e-09  t[s]:  17588.26
	Linear fluid (dielectric constant: 78.4, screening length: 8.12261 Bohr) occupying 0.564798 of unit cell:	Completed after 14 iterations at t[s]:  17666.71
	Linear fluid (dielectric constant: 78.4, screening length: 8.12261 Bohr) occupying 0.564805 of unit cell:	Completed after 2 iterations at t[s]:  17720.79
	FillingsUpdate:  mu: -0.159848324  nElectrons: 646.000000  magneticMoment: [ Abs: 0.00000  Tot: +0.00000 ]
	SubspaceRotationAdjust: set factor to 0.379
ElecMinimize: Iter:   6  F: -6863.047627426295549  |grad|_K:  3.111e-07  alpha:  1.928e-01  linmin: -1.054e-07  t[s]:  17804.75
	Linear fluid (dielectric constant: 78.4, screening length: 8.12261 Bohr) occupying 0.564918 of unit cell:	Completed after 12 iterations at t[s]:  17884.00
	Linear fluid (dielectric constant: 78.4, screening length: 8.12261 Bohr) occupying 0.564898 of unit cell:	Completed after 6 iterations at t[s]:  17938.42
	FillingsUpdate:  mu: -0.160334205  nElectrons: 646.000000  magneticMoment: [ Abs: 0.00000  Tot: +0.00000 ]
	SubspaceRotationAdjust: set factor to 0.409
ElecMinimize: Iter:   7  F: -6863.047641819627643  |grad|_K:  2.272e-07  alpha:  1.579e-01  linmin:  4.505e-08  t[s]:  18022.06
	Linear fluid (dielectric constant: 78.4, screening length: 8.12261 Bohr) occupying 0.564946 of unit cell:	Completed after 7 iterations at t[s]:  18099.68
	Linear fluid (dielectric constant: 78.4, screening length: 8.12261 Bohr) occupying 0.564965 of unit cell:	Completed after 3 iterations at t[s]:  18153.46
	FillingsUpdate:  mu: -0.160349351  nElectrons: 646.000000  magneticMoment: [ Abs: 0.00000  Tot: +0.00000 ]
	SubspaceRotationAdjust: set factor to 0.432
ElecMinimize: Iter:   8  F: -6863.047652636595558  |grad|_K:  2.319e-07  alpha:  2.234e-01  linmin: -8.648e-08  t[s]:  18237.17
	Linear fluid (dielectric constant: 78.4, screening length: 8.12261 Bohr) occupying 0.565028 of unit cell:	Completed after 12 iterations at t[s]:  18315.22
	Linear fluid (dielectric constant: 78.4, screening length: 8.12261 Bohr) occupying 0.565010 of unit cell:	Completed after 7 iterations at t[s]:  18369.86
	FillingsUpdate:  mu: -0.159781129  nElectrons: 646.000000  magneticMoment: [ Abs: 0.00000  Tot: +0.00000 ]
	SubspaceRotationAdjust: set factor to 0.506
ElecMinimize: Iter:   9  F: -6863.047660641977018  |grad|_K:  1.412e-07  alpha:  1.585e-01  linmin: -2.912e-08  t[s]:  18453.47
	Linear fluid (dielectric constant: 78.4, screening length: 8.12261 Bohr) occupying 0.565015 of unit cell:	Completed after 7 iterations at t[s]:  18532.29
	Linear fluid (dielectric constant: 78.4, screening length: 8.12261 Bohr) occupying 0.565018 of unit cell:	Completed after 3 iterations at t[s]:  18586.26
	FillingsUpdate:  mu: -0.159964085  nElectrons: 646.000000  magneticMoment: [ Abs: 0.00000  Tot: +0.00000 ]
	SubspaceRotationAdjust: set factor to 0.551
ElecMinimize: Iter:  10  F: -6863.047665152959780  |grad|_K:  1.490e-07  alpha:  2.409e-01  linmin: -3.510e-08  t[s]:  18669.88
	Linear fluid (dielectric constant: 78.4, screening length: 8.12261 Bohr) occupying 0.565011 of unit cell:	Completed after 11 iterations at t[s]:  18748.12
	Linear fluid (dielectric constant: 78.4, screening length: 8.12261 Bohr) occupying 0.565014 of unit cell:	Completed after 6 iterations at t[s]:  18803.56
	FillingsUpdate:  mu: -0.160332423  nElectrons: 646.000000  magneticMoment: [ Abs: 0.00000  Tot: +0.00000 ]
	SubspaceRotationAdjust: set factor to 0.566
ElecMinimize: Iter:  11  F: -6863.047668115590568  |grad|_K:  9.070e-08  alpha:  1.425e-01  linmin:  2.795e-08  t[s]:  18887.33
	Linear fluid (dielectric constant: 78.4, screening length: 8.12261 Bohr) occupying 0.565010 of unit cell:	Completed after 8 iterations at t[s]:  18964.94
	Linear fluid (dielectric constant: 78.4, screening length: 8.12261 Bohr) occupying 0.565010 of unit cell:	Completed after 2 iterations at t[s]:  19018.66
	FillingsUpdate:  mu: -0.160036958  nElectrons: 646.000000  magneticMoment: [ Abs: 0.00000  Tot: +0.00000 ]
	SubspaceRotationAdjust: set factor to 0.534
ElecMinimize: Iter:  12  F: -6863.047669375827354  |grad|_K:  8.198e-08  alpha:  1.634e-01  linmin: -9.826e-07  t[s]:  19103.04
	Linear fluid (dielectric constant: 78.4, screening length: 8.12261 Bohr) occupying 0.564997 of unit cell:	Completed after 8 iterations at t[s]:  19180.84
	Linear fluid (dielectric constant: 78.4, screening length: 8.12261 Bohr) occupying 0.564999 of unit cell:	Completed after 3 iterations at t[s]:  19234.97
	FillingsUpdate:  mu: -0.160195622  nElectrons: 646.000000  magneticMoment: [ Abs: 0.00000  Tot: +0.00000 ]
	SubspaceRotationAdjust: set factor to 0.414
ElecMinimize: Iter:  13  F: -6863.047670273111180  |grad|_K:  6.617e-08  alpha:  1.399e-01  linmin:  1.563e-06  t[s]:  19318.71
	Linear fluid (dielectric constant: 78.4, screening length: 8.12261 Bohr) occupying 0.564988 of unit cell:	Completed after 6 iterations at t[s]:  19397.13
	Linear fluid (dielectric constant: 78.4, screening length: 8.12261 Bohr) occupying 0.564989 of unit cell:	Completed after 2 iterations at t[s]:  19451.32
	FillingsUpdate:  mu: -0.160160999  nElectrons: 646.000000  magneticMoment: [ Abs: 0.00000  Tot: +0.00000 ]
	SubspaceRotationAdjust: set factor to 0.367
ElecMinimize: Iter:  14  F: -6863.047670744250354  |grad|_K:  4.824e-08  alpha:  1.171e-01  linmin:  4.177e-06  t[s]:  19535.04
	Linear fluid (dielectric constant: 78.4, screening length: 8.12261 Bohr) occupying 0.564981 of unit cell:	Completed after 2 iterations at t[s]:  19611.98
	Linear fluid (dielectric constant: 78.4, screening length: 8.12261 Bohr) occupying 0.564978 of unit cell:	Completed after 3 iterations at t[s]:  19666.48
	FillingsUpdate:  mu: -0.160150105  nElectrons: 646.000000  magneticMoment: [ Abs: 0.00000  Tot: +0.00000 ]
	SubspaceRotationAdjust: set factor to 0.388
ElecMinimize: Iter:  15  F: -6863.047671108180111  |grad|_K:  3.746e-08  alpha:  1.693e-01  linmin:  1.120e-06  t[s]:  19750.22
	Linear fluid (dielectric constant: 78.4, screening length: 8.12261 Bohr) occupying 0.564968 of unit cell:	Completed after 2 iterations at t[s]:  19827.12
	Linear fluid (dielectric constant: 78.4, screening length: 8.12261 Bohr) occupying 0.564970 of unit cell:	Completed after 1 iterations at t[s]:  19881.09
	FillingsUpdate:  mu: -0.160188541  nElectrons: 646.000000  magneticMoment: [ Abs: 0.00000  Tot: +0.00000 ]
	SubspaceRotationAdjust: set factor to 0.418
ElecMinimize: Iter:  16  F: -6863.047671285989054  |grad|_K:  2.913e-08  alpha:  1.367e-01  linmin:  1.784e-06  t[s]:  19965.84
	Linear fluid (dielectric constant: 78.4, screening length: 8.12261 Bohr) occupying 0.564963 of unit cell:	Completed after 2 iterations at t[s]:  20042.69
	Linear fluid (dielectric constant: 78.4, screening length: 8.12261 Bohr) occupying 0.564961 of unit cell:	Completed after 1 iterations at t[s]:  20096.54
	FillingsUpdate:  mu: -0.160206953  nElectrons: 646.000000  magneticMoment: [ Abs: 0.00000  Tot: +0.00000 ]
	SubspaceRotationAdjust: set factor to 0.462
ElecMinimize: Iter:  17  F: -6863.047671422667918  |grad|_K:  2.128e-08  alpha:  1.738e-01  linmin: -5.259e-06  t[s]:  20179.94
	Linear fluid (dielectric constant: 78.4, screening length: 8.12261 Bohr) occupying 0.564954 of unit cell:	Completed after 2 iterations at t[s]:  20257.69
	Linear fluid (dielectric constant: 78.4, screening length: 8.12261 Bohr) occupying 0.564955 of unit cell:	Completed after 0 iterations at t[s]:  20311.61
	FillingsUpdate:  mu: -0.160218167  nElectrons: 646.000000  magneticMoment: [ Abs: 0.00000  Tot: +0.00000 ]
	SubspaceRotationAdjust: set factor to 0.517
ElecMinimize: Iter:  18  F: -6863.047671489169261  |grad|_K:  1.795e-08  alpha:  1.432e-01  linmin:  1.160e-06  t[s]:  20395.56
	Linear fluid (dielectric constant: 78.4, screening length: 8.12261 Bohr) occupying 0.564950 of unit cell:	Completed after 2 iterations at t[s]:  20473.28
	Linear fluid (dielectric constant: 78.4, screening length: 8.12261 Bohr) occupying 0.564949 of unit cell:	Completed after 0 iterations at t[s]:  20526.88
	FillingsUpdate:  mu: -0.160225991  nElectrons: 646.000000  magneticMoment: [ Abs: 0.00000  Tot: +0.00000 ]
	SubspaceRotationAdjust: set factor to 0.579
ElecMinimize: Iter:  19  F: -6863.047671539115072  |grad|_K:  1.460e-08  alpha:  1.670e-01  linmin: -1.759e-06  t[s]:  20610.71
ElecMinimize: Converged (|Delta F|<1.000000e-07 for 2 iters).
Setting wave functions to eigenvectors of Hamiltonian
Converging empty states (this may take a while): |deigs|: 1.319e-04
Single-point solvation energy estimate, DeltaF = -0.000917659678635

Computing DFT-D3 correction:
# coordination-number Cu 6.829 9.125 5.330 6.839 9.150 9.160 9.161 9.156 9.160 9.161 9.160 9.151 9.161 9.159 9.149 6.833 7.625 9.149 9.159 7.625 9.151 9.160 9.161 9.156 9.161 9.161 9.160 9.149 6.838 9.160 9.124 6.830 6.833 5.330
# diagonal-C6 Cu 175.00 175.00 175.00 175.00 175.00 175.00 175.00 175.00 175.00 175.00 175.00 175.00 175.00 175.00 175.00 175.00 175.00 175.00 175.00 175.00 175.00 175.00 175.00 175.00 175.00 175.00 175.00 175.00 175.00 175.00 175.00 175.00 175.00 175.00
EvdW_6 =   -0.219447
EvdW_8 =   -0.319260

# Ionic positions in cartesian coordinates:
ion Cu   0.000000000000000  11.560753999999998   1.226214000000000 1
ion Cu   0.000000000000000  15.028989999999999   4.496115999999999 1
ion Cu   0.000000000000000   0.000000000000000  27.385186000000001 1
ion Cu   0.000000000000000   3.468236000000000   2.861165000000000 1
ion Cu   0.000000000000000   6.936451999999999   6.130983999999999 1
ion Cu   0.000000000000000  10.404687999999998   9.400886999999999 1
ion Cu   0.000000000000000  17.341140999999997  15.940609999999996 1
ion Cu   0.000000000000000  18.497205999999995   7.765935999999999 1
ion Cu   0.000000000000000   2.312151000000000  11.035838999999999 1
ion Cu   0.000000000000000   5.780386999999998  14.305741999999999 1
ion Cu   0.000000000000000   9.248602999999997  17.575560999999997 1
ion Cu   0.000000000000000  12.716838999999998  20.845463999999996 1
ion Cu   0.000000000000000  13.872904999999996  12.670789999999998 1
ion Cu   0.000000000000000   1.156085000000000  19.210512999999995 1
ion Cu   0.000000000000000   4.624301999999999  22.480414999999997 1
ion Cu   0.000000000000000   8.092537999999998  25.750317999999996 1
ion Cu   0.000000000000000  16.185055999999996  24.115366999999996 1
ion Cu   2.383311000000000  10.982730999999998   5.313509000000000 1
ion Cu   2.383311000000000  14.450946999999996   8.583411999999999 1
ion Cu   2.383311000000000  19.075248999999996   3.678640999999999 1
ion Cu   2.383311000000000   2.890193000000000   6.948459999999999 1
ion Cu   2.383311000000000   6.358409999999999  10.218362999999998 1
ion Cu   2.383311000000000   9.826645999999998  13.488265999999998 1
ion Cu   2.383311000000000  16.763097999999996  20.027988000000001 1
ion Cu   2.383311000000000  17.919182999999997  11.853315000000000 1
ion Cu   2.383311000000000   1.734108000000000  15.123216999999999 1
ion Cu   2.383311000000000   5.202343999999999  18.393036999999996 1
ion Cu   2.383311000000000   8.670560999999998  21.662939999999999 1
ion Cu   2.383311000000000  12.138796999999999  24.932842999999998 1
ion Cu   2.383311000000000  13.294881999999998  16.758085000000001 1
ion Cu   2.383311000000000   0.578043000000000  23.297890999999996 1
ion Cu   2.383311000000000   4.046258999999999  26.567710999999996 1
ion Cu   2.383311000000000   7.514494999999999   2.043689000000000 1
ion Cu   2.383311000000000  15.607032999999998   0.408738000000000 1

# Forces in Cartesian coordinates:
force Cu  -0.000001517391211  -0.000573999638739  -0.002478985840690 1
force Cu  -0.000001698792135   0.003134891100479  -0.001559441808567 1
force Cu   0.000001423622806   0.001478756046329  -0.005577104980265 1
force Cu  -0.000001179942962  -0.000698062120738  -0.001622024010846 1
force Cu   0.000000666423230  -0.000000468279082   0.001860643392383 1
force Cu   0.000000574309482  -0.000679136583749   0.000426584899840 1
force Cu  -0.000000662561473   0.000039997272986   0.000140891067147 1
force Cu  -0.000001300447084  -0.000461283037230   0.001800812943246 1
force Cu   0.000000746384636  -0.000336416384561   0.000168950549190 1
force Cu   0.000001341827258   0.000196469085718  -0.000136898134511 1
force Cu  -0.000000240186133   0.000210378109595   0.000116498172859 1
force Cu   0.000000177873295   0.000683343865724  -0.001274332985716 1
force Cu   0.000000199647781  -0.000141237185905  -0.000206431115195 1
force Cu  -0.000000812675005   0.000474200933730   0.000109776615845 1
force Cu   0.000000381388077   0.000541190918438  -0.002481091982870 1
force Cu   0.000005251284699   0.000275184698670   0.001375264335602 1
force Cu  -0.000000889488086  -0.002342146224253   0.005563873634019 1
force Cu  -0.000001637418597  -0.000351395639922   0.002434755207836 1
force Cu  -0.000000076990024  -0.000283172037964  -0.000161443534975 1
force Cu  -0.000000321611965   0.002457792661735  -0.005554219771450 1
force Cu  -0.000001414858513  -0.000532819268036   0.001248085890018 1
force Cu  -0.000000771470140  -0.000096283292613  -0.000110014112204 1
force Cu   0.000000159235065  -0.000193292950907   0.000187482340740 1
force Cu   0.000002662211783   0.000287677507587  -0.001846583153944 1
force Cu   0.000003334183471   0.000050993097106  -0.000151201287399 1
force Cu   0.000000064340874   0.000104442365090   0.000214124620581 1
force Cu  -0.000001108673612   0.000538496546584  -0.000453639330141 1
force Cu   0.000000228552704  -0.000179658864164  -0.001899406174084 1
force Cu   0.000003190636882   0.000571313434847   0.001626884989277 1
force Cu  -0.000000341141414   0.000211137337422  -0.000165079673759 1
force Cu   0.000000825999997  -0.003273405378364   0.001531823947488 1
force Cu   0.000000212489990   0.000534603577854   0.002497589991678 1
force Cu  -0.000001178291218  -0.000189725396256  -0.001385252930730 1
force Cu  -0.000000372342173  -0.001468292767689   0.005639116348045 1

# Energy components:
   A_diel =       -0.0014806596801119
   Eewald =    82423.0177314409811515
       EH =    88700.3414782790059689
     Eloc =  -179274.4673869252728764
      Enl =     1245.1594794825214194
     EvdW =       -0.5387067686339196
      Exc =     -659.8955319323229105
 Exc_core =        1.5969607206831944
       KE =      701.7409934732426109
-------------------------------------
     Etot =    -6863.0464628894696943
       TS =        0.0012086496456237
-------------------------------------
        F =    -6863.0476715391150719


Dumping 'jdft.fillings' ... done
Dumping 'jdft.wfns' ... done
Dumping 'jdft.fluidState' ... done
Dumping 'jdft.ionpos' ... done
Dumping 'jdft.lattice' ... done
Dumping 'jdft.eigenvals' ... done
Dumping 'jdft.eigStats' ... 
	eMin: -4.299778 at state 0 ( [ +0.000000 +0.000000 +0.000000 ] spin 1 )
	HOMO: -0.161063 at state 48 ( [ +0.333333 +0.000000 +0.000000 ] spin -1 )
	mu  : -0.160226
	LUMO: -0.159989 at state 53 ( [ +0.416667 -0.333333 +0.000000 ] spin -1 )
	eMax: +0.216163 at state 54 ( [ +0.500000 +0.000000 +0.000000 ] spin -1 )
	HOMO-LUMO gap: +0.001075
	Optical gap  : +0.002910 at state 66 ( [ -0.166667 +0.000000 +0.000000 ] spin -1 )
Dumping 'jdft.Ecomponents' ... done
IonicMinimize: Iter:   0  F: -6863.047671539115072  |grad|_K:  1.474e-03  t[s]:  21333.65

#--- Lowdin population analysis ---
# oxidation-state Cu +0.085 +0.042 +0.202 +0.111 +0.063 +0.075 +0.076 +0.071 +0.075 +0.078 +0.075 +0.066 +0.076 +0.075 +0.063 +0.102 +0.062 +0.063 +0.075 +0.062 +0.066 +0.075 +0.078 +0.071 +0.076 +0.077 +0.075 +0.063 +0.111 +0.075 +0.042 +0.085 +0.102 +0.202
# magnetic-moments Cu -0.000 -0.000 -0.000 -0.000 +0.000 +0.000 +0.000 +0.000 +0.000 -0.000 +0.000 +0.000 +0.000 +0.000 +0.000 -0.000 -0.000 -0.000 +0.000 -0.000 +0.000 +0.000 -0.000 +0.000 +0.000 -0.000 +0.000 +0.000 -0.000 +0.000 +0.000 -0.000 -0.000 -0.000


Computing DFT-D3 correction:
# coordination-number Cu 6.824 9.124 5.346 6.837 9.147 9.164 9.163 9.151 9.162 9.162 9.163 9.147 9.160 9.158 9.140 6.827 7.622 9.140 9.158 7.622 9.147 9.163 9.162 9.150 9.163 9.161 9.164 9.147 6.837 9.163 9.124 6.824 6.827 5.346
# diagonal-C6 Cu 175.00 175.00 175.00 175.00 175.00 175.00 175.00 175.00 175.00 175.00 175.00 175.00 175.00 175.00 175.00 175.00 175.00 175.00 175.00 175.00 175.00 175.00 175.00 175.00 175.00 175.00 175.00 175.00 175.00 175.00 175.00 175.00 175.00 175.00
EvdW_6 =   -0.219448
EvdW_8 =   -0.319256

-------- Electronic minimization -----------
	Linear fluid (dielectric constant: 78.4, screening length: 8.12261 Bohr) occupying 0.564951 of unit cell:	Completed after 7 iterations at t[s]:  21420.24
	FillingsUpdate:  mu: -0.160089554  nElectrons: 646.000000  magneticMoment: [ Abs: 0.00000  Tot: +0.00000 ]
ElecMinimize: Iter:   0  F: -6863.047816575303841  |grad|_K:  3.704e-07  alpha:  1.000e+00
	Linear fluid (dielectric constant: 78.4, screening length: 8.12261 Bohr) occupying 0.564930 of unit cell:	Completed after 13 iterations at t[s]:  21595.72
	Linear fluid (dielectric constant: 78.4, screening length: 8.12261 Bohr) occupying 0.564949 of unit cell:	Completed after 14 iterations at t[s]:  21651.21
	FillingsUpdate:  mu: -0.160677539  nElectrons: 646.000000  magneticMoment: [ Abs: 0.00000  Tot: +0.00000 ]
	SubspaceRotationAdjust: set factor to 0.667
ElecMinimize: Iter:   1  F: -6863.047834256526585  |grad|_K:  3.066e-07  alpha:  1.371e-01  linmin: -1.128e-05  t[s]:  21735.09
	Linear fluid (dielectric constant: 78.4, screening length: 8.12261 Bohr) occupying 0.564954 of unit cell:	Completed after 11 iterations at t[s]:  21813.85
	Linear fluid (dielectric constant: 78.4, screening length: 8.12261 Bohr) occupying 0.564958 of unit cell:	Completed after 11 iterations at t[s]:  21869.27
	FillingsUpdate:  mu: -0.159521167  nElectrons: 646.000000  magneticMoment: [ Abs: 0.00000  Tot: -0.00000 ]
	SubspaceRotationAdjust: set factor to 0.582
ElecMinimize: Iter:   2  F: -6863.047855716183221  |grad|_K:  3.517e-07  alpha:  2.432e-01  linmin: -3.157e-06  t[s]:  21952.82
	Linear fluid (dielectric constant: 78.4, screening length: 8.12261 Bohr) occupying 0.564943 of unit cell:	Completed after 14 iterations at t[s]:  22031.67
	Linear fluid (dielectric constant: 78.4, screening length: 8.12261 Bohr) occupying 0.564953 of unit cell:	Completed after 13 iterations at t[s]:  22088.23
	FillingsUpdate:  mu: -0.160834174  nElectrons: 646.000000  magneticMoment: [ Abs: 0.00000  Tot: -0.00000 ]
	SubspaceRotationAdjust: set factor to 0.407
ElecMinimize: Iter:   3  F: -6863.047865964925222  |grad|_K:  2.259e-07  alpha:  8.836e-02  linmin:  3.628e-06  t[s]:  22172.01
	Linear fluid (dielectric constant: 78.4, screening length: 8.12261 Bohr) occupying 0.564957 of unit cell:	Completed after 10 iterations at t[s]:  22250.02
	Linear fluid (dielectric constant: 78.4, screening length: 8.12261 Bohr) occupying 0.564961 of unit cell:	Completed after 9 iterations at t[s]:  22304.86
	FillingsUpdate:  mu: -0.160212259  nElectrons: 646.000000  magneticMoment: [ Abs: 0.00000  Tot: +0.00000 ]
	SubspaceRotationAdjust: set factor to 0.427
ElecMinimize: Iter:   4  F: -6863.047873922128019  |grad|_K:  1.605e-07  alpha:  1.662e-01  linmin: -7.300e-06  t[s]:  22388.84
	Linear fluid (dielectric constant: 78.4, screening length: 8.12261 Bohr) occupying 0.564965 of unit cell:	Completed after 3 iterations at t[s]:  22465.91
	Linear fluid (dielectric constant: 78.4, screening length: 8.12261 Bohr) occupying 0.564964 of unit cell:	Completed after 1 iterations at t[s]:  22519.78
	FillingsUpdate:  mu: -0.160178637  nElectrons: 646.000000  magneticMoment: [ Abs: 0.00000  Tot: +0.00000 ]
	SubspaceRotationAdjust: set factor to 0.482
ElecMinimize: Iter:   5  F: -6863.047877374828204  |grad|_K:  1.238e-07  alpha:  1.428e-01  linmin:  3.160e-06  t[s]:  22603.61
	Linear fluid (dielectric constant: 78.4, screening length: 8.12261 Bohr) occupying 0.564965 of unit cell:	Completed after 6 iterations at t[s]:  22681.82
	Linear fluid (dielectric constant: 78.4, screening length: 8.12261 Bohr) occupying 0.564965 of unit cell:	Completed after 7 iterations at t[s]:  22736.58
	FillingsUpdate:  mu: -0.160563608  nElectrons: 646.000000  magneticMoment: [ Abs: 0.00000  Tot: +0.00000 ]
	SubspaceRotationAdjust: set factor to 0.438
ElecMinimize: Iter:   6  F: -6863.047881178668831  |grad|_K:  1.184e-07  alpha:  2.664e-01  linmin:  4.804e-05  t[s]:  22820.47
	Linear fluid (dielectric constant: 78.4, screening length: 8.12261 Bohr) occupying 0.564975 of unit cell:	Completed after 12 iterations at t[s]:  22899.09
	Linear fluid (dielectric constant: 78.4, screening length: 8.12261 Bohr) occupying 0.564969 of unit cell:	Completed after 11 iterations at t[s]:  22954.46
	FillingsUpdate:  mu: -0.160169751  nElectrons: 646.000000  magneticMoment: [ Abs: 0.00000  Tot: +0.00000 ]
	SubspaceRotationAdjust: set factor to 0.3
ElecMinimize: Iter:   7  F: -6863.047882354473586  |grad|_K:  5.126e-08  alpha:  9.029e-02  linmin:  5.987e-06  t[s]:  23038.31
	Linear fluid (dielectric constant: 78.4, screening length: 8.12261 Bohr) occupying 0.564968 of unit cell:	Completed after 2 iterations at t[s]:  23115.19
	Linear fluid (dielectric constant: 78.4, screening length: 8.12261 Bohr) occupying 0.564968 of unit cell:	Completed after 2 iterations at t[s]:  23169.36
	FillingsUpdate:  mu: -0.160210810  nElectrons: 646.000000  magneticMoment: [ Abs: 0.00000  Tot: +0.00000 ]
	SubspaceRotationAdjust: set factor to 0.332
ElecMinimize: Iter:   8  F: -6863.047882710117847  |grad|_K:  4.318e-08  alpha:  1.438e-01  linmin: -6.978e-05  t[s]:  23253.04
	Linear fluid (dielectric constant: 78.4, screening length: 8.12261 Bohr) occupying 0.564967 of unit cell:	Completed after 3 iterations at t[s]:  23330.79
	Linear fluid (dielectric constant: 78.4, screening length: 8.12261 Bohr) occupying 0.564966 of unit cell:	Completed after 3 iterations at t[s]:  23385.11
	FillingsUpdate:  mu: -0.160355755  nElectrons: 646.000000  magneticMoment: [ Abs: 0.00000  Tot: +0.00000 ]
	SubspaceRotationAdjust: set factor to 0.321
ElecMinimize: Iter:   9  F: -6863.047883097444355  |grad|_K:  2.977e-08  alpha:  2.201e-01  linmin: -7.806e-05  t[s]:  23468.81
	Linear fluid (dielectric constant: 78.4, screening length: 8.12261 Bohr) occupying 0.564967 of unit cell:	Completed after 4 iterations at t[s]:  23546.15
	Linear fluid (dielectric constant: 78.4, screening length: 8.12261 Bohr) occupying 0.564967 of unit cell:	Completed after 3 iterations at t[s]:  23601.16
	FillingsUpdate:  mu: -0.160271734  nElectrons: 646.000000  magneticMoment: [ Abs: 0.00000  Tot: +0.00000 ]
	SubspaceRotationAdjust: set factor to 0.28
ElecMinimize: Iter:  10  F: -6863.047883197698866  |grad|_K:  1.914e-08  alpha:  1.209e-01  linmin:  1.954e-04  t[s]:  23684.59
	Linear fluid (dielectric constant: 78.4, screening length: 8.12261 Bohr) occupying 0.564967 of unit cell:	Completed after 0 iterations at t[s]:  23761.00
	Linear fluid (dielectric constant: 78.4, screening length: 8.12261 Bohr) occupying 0.564967 of unit cell:	Completed after 1 iterations at t[s]:  23814.85
	FillingsUpdate:  mu: -0.160276650  nElectrons: 646.000000  magneticMoment: [ Abs: 0.00000  Tot: +0.00000 ]
	SubspaceRotationAdjust: set factor to 0.305
ElecMinimize: Iter:  11  F: -6863.047883257771900  |grad|_K:  1.592e-08  alpha:  2.177e-01  linmin:  1.475e-03  t[s]:  23899.08
	Linear fluid (dielectric constant: 78.4, screening length: 8.12261 Bohr) occupying 0.564967 of unit cell:	Completed after 2 iterations at t[s]:  23976.11
	Linear fluid (dielectric constant: 78.4, screening length: 8.12261 Bohr) occupying 0.564967 of unit cell:	Completed after 0 iterations at t[s]:  24029.63
	FillingsUpdate:  mu: -0.160283309  nElectrons: 646.000000  magneticMoment: [ Abs: 0.00000  Tot: +0.00000 ]
	SubspaceRotationAdjust: set factor to 0.325
ElecMinimize: Iter:  12  F: -6863.047883287836157  |grad|_K:  1.226e-08  alpha:  1.550e-01  linmin:  1.770e-04  t[s]:  24113.21
ElecMinimize: Converged (|Delta F|<1.000000e-07 for 2 iters).
Setting wave functions to eigenvectors of Hamiltonian
Converging empty states (this may take a while): |deigs|: 1.723e-08

Computing DFT-D3 correction:
# coordination-number Cu 6.824 9.124 5.346 6.837 9.147 9.164 9.163 9.151 9.162 9.162 9.163 9.147 9.160 9.158 9.140 6.827 7.622 9.140 9.158 7.622 9.147 9.163 9.162 9.150 9.163 9.161 9.164 9.147 6.837 9.163 9.124 6.824 6.827 5.346
# diagonal-C6 Cu 175.00 175.00 175.00 175.00 175.00 175.00 175.00 175.00 175.00 175.00 175.00 175.00 175.00 175.00 175.00 175.00 175.00 175.00 175.00 175.00 175.00 175.00 175.00 175.00 175.00 175.00 175.00 175.00 175.00 175.00 175.00 175.00 175.00 175.00
EvdW_6 =   -0.219448
EvdW_8 =   -0.319256
IonicMinimize: 	Wolfe criterion not satisfied: alpha: 1  (E-E0)/|gdotd0|: -0.956125  gdotd/gdotd0: 0.90318 (taking cubic step)

Computing DFT-D3 correction:
# coordination-number Cu 6.814 9.122 5.377 6.834 9.142 9.171 9.166 9.140 9.167 9.163 9.170 9.139 9.160 9.155 9.124 6.816 7.615 9.124 9.156 7.615 9.139 9.170 9.163 9.140 9.167 9.161 9.172 9.142 6.833 9.167 9.121 6.813 6.815 5.377
# diagonal-C6 Cu 175.00 175.00 175.00 175.00 175.00 175.00 175.00 175.00 175.00 175.00 175.00 175.00 175.00 175.00 175.00 175.00 175.00 175.00 175.00 175.00 175.00 175.00 175.00 175.00 175.00 175.00 175.00 175.00 175.00 175.00 175.00 175.00 175.00 175.00
EvdW_6 =   -0.219452
EvdW_8 =   -0.319247

-------- Electronic minimization -----------
[...]
       EH =    88723.4701897038321476
     Eloc =  -179321.3220997445750982
      Enl =     1245.1495808396134635
     EvdW =       -0.5388847667468208
      Exc =     -659.8971175842935963
 Exc_core =        1.5969510123209902
       KE =      701.7380372693536401
-------------------------------------
     Etot =    -6863.0485603402739798
       TS =        0.0012129602567215
-------------------------------------
        F =    -6863.0497733005304326


Dumping 'jdft.fillings' ... done
Dumping 'jdft.wfns' ... done
Dumping 'jdft.fluidState' ... done
Dumping 'jdft.ionpos' ... done
Dumping 'jdft.lattice' ... done
Dumping 'jdft.eigenvals' ... done
Dumping 'jdft.eigStats' ... 
	eMin: -4.300959 at state 36 ( [ +0.000000 +0.000000 +0.000000 ] spin -1 )
	HOMO: -0.162357 at state 24 ( [ -0.333333 +0.000000 +0.000000 ] spin 1 )
	mu  : -0.161463
	LUMO: -0.161096 at state 50 ( [ +0.333333 -0.333333 +0.000000 ] spin -1 )
	eMax: +0.216131 at state 54 ( [ +0.500000 +0.000000 +0.000000 ] spin -1 )
	HOMO-LUMO gap: +0.001261
	Optical gap  : +0.002755 at state 6 ( [ +0.166667 +0.000000 +0.000000 ] spin 1 )
Dumping 'jdft.Ecomponents' ... done
IonicMinimize: Iter:   5  F: -6863.049773300530433  |grad|_K:  1.331e-04  alpha:  1.000e+00  linmin: -4.511e-02  t[s]:  50264.02

#--- Lowdin population analysis ---
# oxidation-state Cu +0.087 +0.040 +0.193 +0.106 +0.065 +0.074 +0.077 +0.074 +0.075 +0.078 +0.074 +0.068 +0.076 +0.074 +0.067 +0.100 +0.069 +0.067 +0.074 +0.069 +0.067 +0.074 +0.078 +0.074 +0.076 +0.076 +0.075 +0.065 +0.106 +0.075 +0.040 +0.087 +0.100 +0.193
# magnetic-moments Cu -0.000 -0.000 +0.000 -0.000 +0.000 -0.000 -0.000 -0.000 +0.000 +0.000 -0.000 +0.000 -0.000 +0.000 -0.000 +0.000 +0.000 -0.000 +0.000 +0.000 +0.000 -0.000 -0.000 +0.000 +0.000 +0.000 -0.000 -0.000 +0.000 -0.000 +0.000 +0.000 -0.000 -0.000


Computing DFT-D3 correction:
# coordination-number Cu 6.838 9.109 5.569 6.881 9.102 9.183 9.149 9.034 9.175 9.195 9.193 9.092 9.169 9.161 9.045 6.875 7.485 9.041 9.159 7.485 9.087 9.189 9.198 9.035 9.150 9.172 9.186 9.107 6.885 9.177 9.106 6.834 6.872 5.572
# diagonal-C6 Cu 175.00 175.00 175.00 175.00 175.00 175.00 175.00 175.00 175.00 175.00 175.00 175.00 175.00 175.00 175.00 175.00 175.00 175.00 175.00 175.00 175.00 175.00 175.00 175.00 175.00 175.00 175.00 175.00 175.00 175.00 175.00 175.00 175.00 175.00
EvdW_6 =   -0.219506
EvdW_8 =   -0.319387

-------- Electronic minimization -----------
	Linear fluid (dielectric constant: 78.4, screening length: 8.12261 Bohr) occupying 0.566037 of unit cell:	Completed after 11 iterations at t[s]:  50351.07
	FillingsUpdate:  mu: -0.161872891  nElectrons: 646.000000  magneticMoment: [ Abs: 0.00000  Tot: -0.00000 ]
ElecMinimize: Iter:   0  F: -6863.049602835934820  |grad|_K:  6.608e-07  alpha:  1.000e+00
	Linear fluid (dielectric constant: 78.4, screening length: 8.12261 Bohr) occupying 0.566093 of unit cell:	Completed after 21 iterations at t[s]:  50527.90
	Linear fluid (dielectric constant: 78.4, screening length: 8.12261 Bohr) occupying 0.566043 of unit cell:	Completed after 20 iterations at t[s]:  50584.67
	FillingsUpdate:  mu: -0.160849193  nElectrons: 646.000000  magneticMoment: [ Abs: 0.00000  Tot: -0.00000 ]
	SubspaceRotationAdjust: set factor to 0.495
ElecMinimize: Iter:   1  F: -6863.049659109334243  |grad|_K:  5.287e-07  alpha:  1.374e-01  linmin: -1.028e-05  t[s]:  50668.55
	Linear fluid (dielectric constant: 78.4, screening length: 8.12261 Bohr) occupying 0.566039 of unit cell:	Completed after 15 iterations at t[s]:  50747.52
	Linear fluid (dielectric constant: 78.4, screening length: 8.12261 Bohr) occupying 0.566037 of unit cell:	Completed after 11 iterations at t[s]:  50802.93
	FillingsUpdate:  mu: -0.162121373  nElectrons: 646.000000  magneticMoment: [ Abs: 0.00000  Tot: -0.00000 ]
	SubspaceRotationAdjust: set factor to 0.419
ElecMinimize: Iter:   2  F: -6863.049712132674358  |grad|_K:  5.315e-07  alpha:  2.023e-01  linmin:  1.109e-05  t[s]:  50887.27
	Linear fluid (dielectric constant: 78.4, screening length: 8.12261 Bohr) occupying 0.566046 of unit cell:	Completed after 17 iterations at t[s]:  50966.14
	Linear fluid (dielectric constant: 78.4, screening length: 8.12261 Bohr) occupying 0.566041 of unit cell:	Completed after 12 iterations at t[s]:  51021.64
	FillingsUpdate:  mu: -0.161320527  nElectrons: 646.000000  magneticMoment: [ Abs: 0.00000  Tot: -0.00000 ]
	SubspaceRotationAdjust: set factor to 0.335
ElecMinimize: Iter:   3  F: -6863.049742135055567  |grad|_K:  3.557e-07  alpha:  1.134e-01  linmin:  8.414e-07  t[s]:  51105.46
	Linear fluid (dielectric constant: 78.4, screening length: 8.12261 Bohr) occupying 0.566042 of unit cell:	Completed after 10 iterations at t[s]:  51184.70
	Linear fluid (dielectric constant: 78.4, screening length: 8.12261 Bohr) occupying 0.566043 of unit cell:	Completed after 6 iterations at t[s]:  51239.36
	FillingsUpdate:  mu: -0.161092855  nElectrons: 646.000000  magneticMoment: [ Abs: 0.00000  Tot: -0.00000 ]
	SubspaceRotationAdjust: set factor to 0.387
ElecMinimize: Iter:   4  F: -6863.049763660801545  |grad|_K:  2.279e-07  alpha:  1.814e-01  linmin: -6.212e-06  t[s]:  51323.20
	Linear fluid (dielectric constant: 78.4, screening length: 8.12261 Bohr) occupying 0.566038 of unit cell:	Completed after 11 iterations at t[s]:  51401.52
	Linear fluid (dielectric constant: 78.4, screening length: 8.12261 Bohr) occupying 0.566039 of unit cell:	Completed after 2 iterations at t[s]:  51455.56
	FillingsUpdate:  mu: -0.161806775  nElectrons: 646.000000  magneticMoment: [ Abs: 0.00000  Tot: -0.00000 ]
	SubspaceRotationAdjust: set factor to 0.387
ElecMinimize: Iter:   5  F: -6863.049771267394135  |grad|_K:  2.154e-07  alpha:  1.560e-01  linmin:  2.594e-05  t[s]:  51539.27
	Linear fluid (dielectric constant: 78.4, screening length: 8.12261 Bohr) occupying 0.566040 of unit cell:	Completed after 6 iterations at t[s]:  51616.92
	Linear fluid (dielectric constant: 78.4, screening length: 8.12261 Bohr) occupying 0.566041 of unit cell:	Completed after 7 iterations at t[s]:  51671.84
	FillingsUpdate:  mu: -0.161373371  nElectrons: 646.000000  magneticMoment: [ Abs: 0.00000  Tot: -0.00000 ]
	SubspaceRotationAdjust: set factor to 0.39
ElecMinimize: Iter:   6  F: -6863.049783046678385  |grad|_K:  1.860e-07  alpha:  2.713e-01  linmin: -1.925e-05  t[s]:  51755.94
	Linear fluid (dielectric constant: 78.4, screening length: 8.12261 Bohr) occupying 0.566041 of unit cell:	Completed after 11 iterations at t[s]:  51834.89
	Linear fluid (dielectric constant: 78.4, screening length: 8.12261 Bohr) occupying 0.566041 of unit cell:	Completed after 10 iterations at t[s]:  51890.24
	FillingsUpdate:  mu: -0.161485817  nElectrons: 646.000000  magneticMoment: [ Abs: 0.00000  Tot: -0.00000 ]
	SubspaceRotationAdjust: set factor to 0.392
ElecMinimize: Iter:   7  F: -6863.049786538635090  |grad|_K:  9.743e-08  alpha:  1.073e-01  linmin:  2.641e-06  t[s]:  51974.22
	Linear fluid (dielectric constant: 78.4, screening length: 8.12261 Bohr) occupying 0.566041 of unit cell:	Completed after 6 iterations at t[s]:  52051.50
	Linear fluid (dielectric constant: 78.4, screening length: 8.12261 Bohr) occupying 0.566042 of unit cell:	Completed after 6 iterations at t[s]:  52106.55
	FillingsUpdate:  mu: -0.161472806  nElectrons: 646.000000  magneticMoment: [ Abs: 0.00000  Tot: -0.00000 ]
	SubspaceRotationAdjust: set factor to 0.384
ElecMinimize: Iter:   8  F: -6863.049788610843279  |grad|_K:  1.189e-07  alpha:  2.310e-01  linmin: -3.611e-05  t[s]:  52190.40
	Linear fluid (dielectric constant: 78.4, screening length: 8.12261 Bohr) occupying 0.566043 of unit cell:	Completed after 8 iterations at t[s]:  52268.44
	Linear fluid (dielectric constant: 78.4, screening length: 8.12261 Bohr) occupying 0.566043 of unit cell:	Completed after 3 iterations at t[s]:  52322.71
	FillingsUpdate:  mu: -0.161361353  nElectrons: 646.000000  magneticMoment: [ Abs: 0.00000  Tot: -0.00000 ]
	SubspaceRotationAdjust: set factor to 0.338
ElecMinimize: Iter:   9  F: -6863.049790787392340  |grad|_K:  6.223e-08  alpha:  1.627e-01  linmin:  2.249e-05  t[s]:  52407.03
	Linear fluid (dielectric constant: 78.4, screening length: 8.12261 Bohr) occupying 0.566042 of unit cell:	Completed after 6 iterations at t[s]:  52484.95
	Linear fluid (dielectric constant: 78.4, screening length: 8.12261 Bohr) occupying 0.566042 of unit cell:	Completed after 2 iterations at t[s]:  52539.31
	FillingsUpdate:  mu: -0.161522657  nElectrons: 646.000000  magneticMoment: [ Abs: 0.00000  Tot: -0.00000 ]
	SubspaceRotationAdjust: set factor to 0.283
ElecMinimize: Iter:  10  F: -6863.049791245507549  |grad|_K:  4.614e-08  alpha:  1.278e-01  linmin: -9.637e-05  t[s]:  52622.97
	Linear fluid (dielectric constant: 78.4, screening length: 8.12261 Bohr) occupying 0.566042 of unit cell:	Completed after 2 iterations at t[s]:  52700.76
	Linear fluid (dielectric constant: 78.4, screening length: 8.12261 Bohr) occupying 0.566042 of unit cell:	Completed after 3 iterations at t[s]:  52754.84
	FillingsUpdate:  mu: -0.161460177  nElectrons: 646.000000  magneticMoment: [ Abs: 0.00000  Tot: -0.00000 ]
	SubspaceRotationAdjust: set factor to 0.311
ElecMinimize: Iter:  11  F: -6863.049791625543548  |grad|_K:  3.284e-08  alpha:  1.901e-01  linmin:  4.649e-05  t[s]:  52838.59
	Linear fluid (dielectric constant: 78.4, screening length: 8.12261 Bohr) occupying 0.566043 of unit cell:	Completed after 2 iterations at t[s]:  52915.78
	Linear fluid (dielectric constant: 78.4, screening length: 8.12261 Bohr) occupying 0.566043 of unit cell:	Completed after 0 iterations at t[s]:  52970.27
	FillingsUpdate:  mu: -0.161432059  nElectrons: 646.000000  magneticMoment: [ Abs: 0.00000  Tot: -0.00000 ]
	SubspaceRotationAdjust: set factor to 0.312
ElecMinimize: Iter:  12  F: -6863.049791813930824  |grad|_K:  2.915e-08  alpha:  1.878e-01  linmin: -1.122e-04  t[s]:  53054.17
	Linear fluid (dielectric constant: 78.4, screening length: 8.12261 Bohr) occupying 0.566043 of unit cell:	Completed after 2 iterations at t[s]:  53131.20
	Linear fluid (dielectric constant: 78.4, screening length: 8.12261 Bohr) occupying 0.566043 of unit cell:	Completed after 0 iterations at t[s]:  53184.87
	FillingsUpdate:  mu: -0.161438514  nElectrons: 646.000000  magneticMoment: [ Abs: 0.00000  Tot: -0.00000 ]
	SubspaceRotationAdjust: set factor to 0.344
ElecMinimize: Iter:  13  F: -6863.049791946697951  |grad|_K:  1.837e-08  alpha:  1.657e-01  linmin:  6.828e-05  t[s]:  53269.44
	Linear fluid (dielectric constant: 78.4, screening length: 8.12261 Bohr) occupying 0.566043 of unit cell:	Completed after 2 iterations at t[s]:  53346.45
	Linear fluid (dielectric constant: 78.4, screening length: 8.12261 Bohr) occupying 0.566043 of unit cell:	Completed after 0 iterations at t[s]:  53400.09
	FillingsUpdate:  mu: -0.161449756  nElectrons: 646.000000  magneticMoment: [ Abs: 0.00000  Tot: -0.00000 ]
	SubspaceRotationAdjust: set factor to 0.359
ElecMinimize: Iter:  14  F: -6863.049791983985415  |grad|_K:  1.490e-08  alpha:  1.252e-01  linmin:  5.711e-04  t[s]:  53483.70
	Linear fluid (dielectric constant: 78.4, screening length: 8.12261 Bohr) occupying 0.566043 of unit cell:	Completed after 2 iterations at t[s]:  53560.61
	Linear fluid (dielectric constant: 78.4, screening length: 8.12261 Bohr) occupying 0.566043 of unit cell:	Completed after 0 iterations at t[s]:  53615.14
	FillingsUpdate:  mu: -0.161457529  nElectrons: 646.000000  magneticMoment: [ Abs: 0.00000  Tot: -0.00000 ]
	SubspaceRotationAdjust: set factor to 0.399
ElecMinimize: Iter:  15  F: -6863.049792017705840  |grad|_K:  9.068e-09  alpha:  1.727e-01  linmin: -9.317e-04  t[s]:  53698.74
ElecMinimize: Converged (|Delta F|<1.000000e-07 for 2 iters).
Setting wave functions to eigenvectors of Hamiltonian
Converging empty states (this may take a while): |deigs|: 2.591e-08

Computing DFT-D3 correction:
# coordination-number Cu 6.838 9.109 5.569 6.881 9.102 9.183 9.149 9.034 9.175 9.195 9.193 9.092 9.169 9.161 9.045 6.875 7.485 9.041 9.159 7.485 9.087 9.189 9.198 9.035 9.150 9.172 9.186 9.107 6.885 9.177 9.106 6.834 6.872 5.572
# diagonal-C6 Cu 175.00 175.00 175.00 175.00 175.00 175.00 175.00 175.00 175.00 175.00 175.00 175.00 175.00 175.00 175.00 175.00 175.00 175.00 175.00 175.00 175.00 175.00 175.00 175.00 175.00 175.00 175.00 175.00 175.00 175.00 175.00 175.00 175.00 175.00
EvdW_6 =   -0.219506
EvdW_8 =   -0.319387

# Ionic positions in cartesian coordinates:
ion Cu  -0.000044699259201  11.518927960702978   1.222737307308350 1
ion Cu  -0.000076648002732  15.101468343448991   4.524613044942511 1
ion Cu   0.000106156741651   0.078747575034930  27.257455784985648 1
ion Cu  -0.000121812481066   3.508410820804273   2.814616569047859 1
ion Cu  -0.000086001913622   6.937766348774426   6.154843791705837 1
ion Cu  -0.000062349455776  10.386587908297077   9.422690980099445 1
ion Cu  -0.000017046345307  17.348685884944864  15.945229854192114 1
ion Cu  -0.000095157869104  18.506752111087877   7.750220940671973 1
ion Cu  -0.000021562945587   2.296087025259451  11.032536208008905 1
ion Cu  -0.000002188260394   5.783229563798517  14.301363759464950 1
ion Cu  -0.000030110298377   9.272355420494907  17.568046607009933 1
ion Cu   0.000076784018884  12.728051680099135  20.856923331589375 1
ion Cu  -0.000015811253738  13.867397351478830  12.676869838356449 1
ion Cu   0.000020363703620   1.161038219196789  19.200852333831239 1
ion Cu   0.000042656259946   4.607916429292604  22.443297058853389 1
ion Cu   0.000219555196629   8.085206177003714  25.755153037910052 1
ion Cu   0.000146943679324  16.102350460281762  24.252413260419434 1
ion Cu   2.383248368777744  11.001865845495463   5.350858118184015 1
ion Cu   2.383242652154852  14.448109644722416   8.594213747748324 1
ion Cu   2.383144867844739  19.156553592941822   3.541118564694746 1
ion Cu   2.383220782503393   2.880320695854731   6.937267905310278 1
ion Cu   2.383278837233159   6.336534235241245  10.227076577105624 1
ion Cu   2.383269982394579   9.824497812224214  13.493637578571024 1
ion Cu   2.383406166515940  16.753160577661589  20.043644224798097 1
ion Cu   2.383317893082132  17.913009275740841  11.850035226564179 1
ion Cu   2.383294705967046   1.739361110441268  15.117846190826926 1
ion Cu   2.383257013345070   5.219809494742314  18.371612107785761 1
ion Cu   2.383388504129674   8.668208558202252  21.637630642178991 1
ion Cu   2.383483937279142  12.095598695221693  24.977982031896719 1
ion Cu   2.383306057286203  13.309705782236117  16.762145171070379 1
ion Cu   2.383490984055786   0.505486523160536  23.268230012436078 1
ion Cu   2.383473487811039   4.088522609173941  26.570564055277110 1
ion Cu   2.383210048638064   7.522809430610759   2.038553855958744 1
ion Cu   2.383213639466285  15.524778836327600   0.534932281195484 1

# Forces in Cartesian coordinates:
force Cu  -0.000001276763322  -0.000069250569559  -0.000020814410577 1
force Cu  -0.000000535029298   0.000004781032970  -0.000072280071497 1
force Cu   0.000002028530579  -0.000226331500418   0.000112074338323 1
force Cu  -0.000000762979007  -0.000095470185881  -0.000158087769483 1
force Cu   0.000000550571392   0.000065929027779   0.000018752080072 1
force Cu  -0.000000159633640   0.000114085538366   0.000103223764237 1
force Cu   0.000000676159457  -0.000013318418866   0.000078724451103 1
force Cu  -0.000001126501331   0.000014409577241   0.000117859575232 1
force Cu   0.000000014759246   0.000010081837355  -0.000136067877145 1
force Cu  -0.000000249667948  -0.000008127723334  -0.000126645862511 1
force Cu   0.000000282238570  -0.000244487739696   0.000229200228331 1
force Cu  -0.000000739479063   0.000001851438266   0.000104527094799 1
force Cu  -0.000000602611030   0.000155736584053  -0.000057488528959 1
force Cu   0.000001443705223  -0.000067570338603  -0.000132995775102 1
force Cu   0.000001128581518   0.000094677978639  -0.000053790941481 1
force Cu   0.000000801409399   0.000080391556192  -0.000076360671433 1
force Cu   0.000001807177415  -0.000023630300908   0.000120615129833 1
force Cu  -0.000000512482407  -0.000099296548816   0.000076463555522 1
force Cu  -0.000000237787651   0.000101997042924   0.000120522672555 1
force Cu  -0.000001859051715   0.000052395237606  -0.000132020397908 1
force Cu  -0.000000394740035   0.000019569301022  -0.000083686204120 1
force Cu  -0.000000272218320   0.000224426616285  -0.000249420096352 1
force Cu  -0.000000152769473   0.000004402929232   0.000172880471944 1
force Cu   0.000000896901297  -0.000058156159495  -0.000116219320053 1
force Cu   0.000000504584908  -0.000020453029307  -0.000076180063120 1
force Cu   0.000000988114329  -0.000119690984127   0.000083877461801 1
force Cu   0.000001576100195  -0.000136533170973  -0.000127725705676 1
force Cu  -0.000000018197499  -0.000075211388843   0.000025386555928 1
force Cu   0.000000538103549   0.000098743846171   0.000141212378099 1
force Cu   0.000000223687615   0.000020420059300   0.000130554087318 1
force Cu   0.000001261240940  -0.000001611971091   0.000088918117783 1
force Cu   0.000000591239209   0.000055183729955  -0.000037970632241 1
force Cu  -0.000000655993162  -0.000086650928757   0.000035225215227 1
force Cu  -0.000000881041515   0.000217812070371  -0.000172726475250 1

# Energy components:
   A_diel =       -0.0015062149072885
   Eewald =    82447.4155995504406746
       EH =    88724.1161746825237060
     Eloc =  -179322.6270815454190597
      Enl =     1245.1488331098744311
     EvdW =       -0.5388925871600945
      Exc =     -659.8970326951588277
 Exc_core =        1.5969488862683916
       KE =      701.7383819054698506
-------------------------------------
     Etot =    -6863.0485749080489768
       TS =        0.0012171096567517
-------------------------------------
        F =    -6863.0497920177058404


Dumping 'jdft.fillings' ... done
Dumping 'jdft.wfns' ... done
Dumping 'jdft.fluidState' ... done
Dumping 'jdft.ionpos' ... done
Dumping 'jdft.lattice' ... done
Dumping 'jdft.eigenvals' ... done
Dumping 'jdft.eigStats' ... 
	eMin: -4.300988 at state 0 ( [ +0.000000 +0.000000 +0.000000 ] spin 1 )
	HOMO: -0.162359 at state 48 ( [ +0.333333 +0.000000 +0.000000 ] spin -1 )
	mu  : -0.161458
	LUMO: -0.161076 at state 25 ( [ -0.333333 +0.333333 +0.000000 ] spin 1 )
	eMax: +0.216148 at state 54 ( [ +0.500000 +0.000000 +0.000000 ] spin -1 )
	HOMO-LUMO gap: +0.001283
	Optical gap  : +0.002749 at state 42 ( [ +0.166667 +0.000000 +0.000000 ] spin -1 )
Dumping 'jdft.Ecomponents' ... done
IonicMinimize: Iter:   6  F: -6863.049792017705840  |grad|_K:  9.108e-05  alpha:  1.000e+00  linmin: -1.869e-01  t[s]:  53929.36
IonicMinimize: Converged (|grad|_K<1.000000e-04).

#--- Lowdin population analysis ---
# oxidation-state Cu +0.087 +0.040 +0.193 +0.106 +0.065 +0.074 +0.077 +0.074 +0.074 +0.077 +0.074 +0.067 +0.076 +0.074 +0.067 +0.100 +0.069 +0.067 +0.074 +0.068 +0.067 +0.074 +0.077 +0.074 +0.076 +0.076 +0.074 +0.065 +0.106 +0.074 +0.040 +0.087 +0.100 +0.193
# magnetic-moments Cu -0.000 +0.000 +0.000 -0.000 +0.000 +0.000 +0.000 -0.000 -0.000 +0.000 -0.000 +0.000 -0.000 +0.000 +0.000 -0.000 -0.000 -0.000 -0.000 +0.000 +0.000 +0.000 -0.000 +0.000 +0.000 +0.000 -0.000 -0.000 +0.000 +0.000 -0.000 -0.000 +0.000 +0.000


Dumping 'jdft.n_up' ... done
Dumping 'jdft.n_dn' ... done
Dumping 'jdft.tau_up' ... done
Dumping 'jdft.tau_dn' ... done
Dumping 'jdft.eigenvals' ... done
Dumping 'jdft.eigStats' ... 
	eMin: -4.300988 at state 0 ( [ +0.000000 +0.000000 +0.000000 ] spin 1 )
	HOMO: -0.162359 at state 48 ( [ +0.333333 +0.000000 +0.000000 ] spin -1 )
	mu  : -0.161458
	LUMO: -0.161076 at state 25 ( [ -0.333333 +0.333333 +0.000000 ] spin 1 )
	eMax: +0.216148 at state 54 ( [ +0.500000 +0.000000 +0.000000 ] spin -1 )
	HOMO-LUMO gap: +0.001283
	Optical gap  : +0.002749 at state 42 ( [ +0.166667 +0.000000 +0.000000 ] spin -1 )
Dumping 'jdft.kPts' ... done
Dumping 'jdft.dosUp' ... done.
Dumping 'jdft.dosDn' ... done.
End date and time: Tue Dec  7 06:25:16 2021  (Duration: 0-15:00:54.09)
Done!
