
*************** JDFTx 1.6.0  ***************

Start date and time: Mon Dec  6 15:18:38 2021
Executable /projects/musgravc/apps/jdftx-1.6.1/build/jdftx with command-line: -i in
Running on hosts (process indices):  shas0847.rc.int.colorado.edu (0-23)
Divided in process groups (process indices):  0 (0)  1 (1)  2 (2)  3 (3)  4 (4)  5 (5)  6 (6)  7 (7)  8 (8)  9 (9)  10 (10)  11 (11)  12 (12)  13 (13)  14 (14)  15 (15)  16 (16)  17 (17)  18 (18)  19 (19)  20 (20)  21 (21)  22 (22)  23 (23)
Resource initialization completed at t[s]:      0.00
Run totals: 24 processes, 24 threads, 0 GPUs


Input parsed successfully to the following command list (including defaults):

basis kpoint-dependent
converge-empty-states yes
coords-type Cartesian
core-overlap-check none
coulomb-interaction Periodic
davidson-band-ratio 1.1
density-of-states Etol 1.000000e-06 Esigma 1.000000e-03 \
		Complete \
	Total \
	OrthoOrbital Cu 1   s \
	OrthoOrbital Cu 1   p \
	OrthoOrbital Cu 1   px \
	OrthoOrbital Cu 1   py \
	OrthoOrbital Cu 1   pz \
	OrthoOrbital Cu 1   d \
	OrthoOrbital Cu 1   dxy \
	OrthoOrbital Cu 1   dyz \
	OrthoOrbital Cu 1   dz2 \
	OrthoOrbital Cu 1   dxz \
	OrthoOrbital Cu 1   dx2-y2 \
	OrthoOrbital Cu 2   s \
	OrthoOrbital Cu 2   p \
	OrthoOrbital Cu 2   px \
	OrthoOrbital Cu 2   py \
	OrthoOrbital Cu 2   pz \
	OrthoOrbital Cu 2   d \
	OrthoOrbital Cu 2   dxy \
	OrthoOrbital Cu 2   dyz \
	OrthoOrbital Cu 2   dz2 \
	OrthoOrbital Cu 2   dxz \
	OrthoOrbital Cu 2   dx2-y2 \
	OrthoOrbital Cu 3   s \
	OrthoOrbital Cu 3   p \
	OrthoOrbital Cu 3   px \
	OrthoOrbital Cu 3   py \
	OrthoOrbital Cu 3   pz \
	OrthoOrbital Cu 3   d \
	OrthoOrbital Cu 3   dxy \
	OrthoOrbital Cu 3   dyz \
	OrthoOrbital Cu 3   dz2 \
	OrthoOrbital Cu 3   dxz \
	OrthoOrbital Cu 3   dx2-y2 \
	OrthoOrbital Cu 4   s \
	OrthoOrbital Cu 4   p \
	OrthoOrbital Cu 4   px \
	OrthoOrbital Cu 4   py \
	OrthoOrbital Cu 4   pz \
	OrthoOrbital Cu 4   d \
	OrthoOrbital Cu 4   dxy \
	OrthoOrbital Cu 4   dyz \
	OrthoOrbital Cu 4   dz2 \
	OrthoOrbital Cu 4   dxz \
	OrthoOrbital Cu 4   dx2-y2 \
	OrthoOrbital Cu 5   s \
	OrthoOrbital Cu 5   p \
	OrthoOrbital Cu 5   px \
	OrthoOrbital Cu 5   py \
	OrthoOrbital Cu 5   pz \
	OrthoOrbital Cu 5   d \
	OrthoOrbital Cu 5   dxy \
	OrthoOrbital Cu 5   dyz \
	OrthoOrbital Cu 5   dz2 \
	OrthoOrbital Cu 5   dxz \
	OrthoOrbital Cu 5   dx2-y2 \
	OrthoOrbital Cu 6   s \
	OrthoOrbital Cu 6   p \
	OrthoOrbital Cu 6   px \
	OrthoOrbital Cu 6   py \
	OrthoOrbital Cu 6   pz \
	OrthoOrbital Cu 6   d \
	OrthoOrbital Cu 6   dxy \
	OrthoOrbital Cu 6   dyz \
	OrthoOrbital Cu 6   dz2 \
	OrthoOrbital Cu 6   dxz \
	OrthoOrbital Cu 6   dx2-y2 \
	OrthoOrbital Cu 7   s \
	OrthoOrbital Cu 7   p \
	OrthoOrbital Cu 7   px \
	OrthoOrbital Cu 7   py \
	OrthoOrbital Cu 7   pz \
	OrthoOrbital Cu 7   d \
	OrthoOrbital Cu 7   dxy \
	OrthoOrbital Cu 7   dyz \
	OrthoOrbital Cu 7   dz2 \
	OrthoOrbital Cu 7   dxz \
	OrthoOrbital Cu 7   dx2-y2 \
	OrthoOrbital Cu 8   s \
	OrthoOrbital Cu 8   p \
	OrthoOrbital Cu 8   px \
	OrthoOrbital Cu 8   py \
	OrthoOrbital Cu 8   pz \
	OrthoOrbital Cu 8   d \
	OrthoOrbital Cu 8   dxy \
	OrthoOrbital Cu 8   dyz \
	OrthoOrbital Cu 8   dz2 \
	OrthoOrbital Cu 8   dxz \
	OrthoOrbital Cu 8   dx2-y2 \
	OrthoOrbital Cu 9   s \
	OrthoOrbital Cu 9   p \
	OrthoOrbital Cu 9   px \
	OrthoOrbital Cu 9   py \
	OrthoOrbital Cu 9   pz \
	OrthoOrbital Cu 9   d \
	OrthoOrbital Cu 9   dxy \
	OrthoOrbital Cu 9   dyz \
	OrthoOrbital Cu 9   dz2 \
	OrthoOrbital Cu 9   dxz \
	OrthoOrbital Cu 9   dx2-y2 \
	OrthoOrbital Cu 10   s \
	OrthoOrbital Cu 10   p \
	OrthoOrbital Cu 10   px \
	OrthoOrbital Cu 10   py \
	OrthoOrbital Cu 10   pz \
	OrthoOrbital Cu 10   d \
	OrthoOrbital Cu 10   dxy \
	OrthoOrbital Cu 10   dyz \
	OrthoOrbital Cu 10   dz2 \
	OrthoOrbital Cu 10   dxz \
	OrthoOrbital Cu 10   dx2-y2 \
	OrthoOrbital Cu 11   s \
	OrthoOrbital Cu 11   p \
	OrthoOrbital Cu 11   px \
	OrthoOrbital Cu 11   py \
	OrthoOrbital Cu 11   pz \
	OrthoOrbital Cu 11   d \
	OrthoOrbital Cu 11   dxy \
	OrthoOrbital Cu 11   dyz \
	OrthoOrbital Cu 11   dz2 \
	OrthoOrbital Cu 11   dxz \
	OrthoOrbital Cu 11   dx2-y2 \
	OrthoOrbital Cu 12   s \
	OrthoOrbital Cu 12   p \
	OrthoOrbital Cu 12   px \
	OrthoOrbital Cu 12   py \
	OrthoOrbital Cu 12   pz \
	OrthoOrbital Cu 12   d \
	OrthoOrbital Cu 12   dxy \
	OrthoOrbital Cu 12   dyz \
	OrthoOrbital Cu 12   dz2 \
	OrthoOrbital Cu 12   dxz \
	OrthoOrbital Cu 12   dx2-y2
dump End ElecDensity KEdensity BandEigs EigStats RhoAtom DOS Kpoints
dump Ionic State IonicPositions Lattice EigStats Ecomponents
dump 
dump 
dump 
dump 
dump 
dump 
dump 
dump 
dump-name jdft.$VAR
elec-cutoff 20
elec-eigen-algo Davidson
elec-ex-corr gga-PBE
elec-initial-magnetization 0.000000 no
elec-n-bands 137
elec-smearing Fermi 0.001
electronic-minimize  \
	dirUpdateScheme      FletcherReeves \
	linminMethod         DirUpdateRecommended \
	nIterations          100 \
	history              15 \
	knormThreshold       0 \
	energyDiffThreshold  1e-07 \
	nEnergyDiff          2 \
	alphaTstart          1 \
	alphaTmin            1e-10 \
	updateTestStepSize   yes \
	alphaTreduceFactor   0.1 \
	alphaTincreaseFactor 3 \
	nAlphaAdjustMax      3 \
	wolfeEnergy          0.0001 \
	wolfeGradient        0.9 \
	fdTest               no
exchange-regularization WignerSeitzTruncated
fluid LinearPCM 298.000000 1.013250
fluid-anion F- 0.5 MeanFieldLJ \
	epsBulk 1 \
	pMol 0 \
	epsInf 1 \
	Pvap 0 \
	sigmaBulk 0 \
	Rvdw 2.24877 \
	Res 0 \
	tauNuc 343133
fluid-cation Na+ 0.5 MeanFieldLJ \
	epsBulk 1 \
	pMol 0 \
	epsInf 1 \
	Pvap 0 \
	sigmaBulk 0 \
	Rvdw 2.19208 \
	Res 0 \
	tauNuc 343133
fluid-ex-corr lda-TF lda-PZ
fluid-gummel-loop 10 1.000000e-05
fluid-minimize  \
	dirUpdateScheme      PolakRibiere \
	linminMethod         DirUpdateRecommended \
	nIterations          400 \
	history              15 \
	knormThreshold       1e-11 \
	energyDiffThreshold  0 \
	nEnergyDiff          2 \
	alphaTstart          1 \
	alphaTmin            1e-10 \
	updateTestStepSize   yes \
	alphaTreduceFactor   0.1 \
	alphaTincreaseFactor 3 \
	nAlphaAdjustMax      6 \
	wolfeEnergy          0.0001 \
	wolfeGradient        0.9 \
	fdTest               no
fluid-solvent H2O 55.338 ScalarEOS \
	epsBulk 78.4 \
	pMol 0.92466 \
	epsInf 1.77 \
	Pvap 1.06736e-10 \
	sigmaBulk 4.62e-05 \
	Rvdw 2.61727 \
	Res 1.42 \
	tauNuc 343133 \
	poleEl 15 7 1
forces-output-coords Positions
ion Cu   0.000000000000000   0.000000000000000  15.824043000000001 1
ion Cu   0.000000000000000   3.891928000000000   2.064025000000000 1
ion Cu   0.000000000000000   7.783867999999999   4.816009000000000 1
ion Cu   0.000000000000000   0.000000000000000   7.568042000000000 1
ion Cu   0.000000000000000   3.891928000000000  10.320026000000000 1
ion Cu   0.000000000000000   7.783867999999999  13.072058999999999 1
ion Cu   2.383311000000000   0.000000000000000   3.439992000000000 1
ion Cu   2.383311000000000   3.891928000000000   6.192025000000000 1
ion Cu   2.383311000000000   7.783867999999999   8.944058999999999 1
ion Cu   2.383311000000000   0.000000000000000  11.696043000000000 1
ion Cu   2.383311000000000   3.891928000000000  14.448076000000000 1
ion Cu   2.383311000000000   7.783867999999999   0.688008000000000 1
ion-species /projects/musgravc/apps/jdftx-1.6.0/build/pseudopotentials/GBRV_v1.5/$ID_pbe_v1.uspp
ion-species /projects/musgravc/apps/jdftx-1.6.0/build/pseudopotentials/GBRV_v1.5/$ID_pbe_v1.2.uspp
ion-species /projects/musgravc/apps/jdftx-1.6.0/build/pseudopotentials/GBRV_v1.5/$ID_pbe_v1.4.uspp
ion-species /projects/musgravc/apps/jdftx-1.6.0/build/pseudopotentials/GBRV_v1.5/$ID_pbe_v1.5.uspp
ion-width Ecut
ionic-minimize  \
	dirUpdateScheme      L-BFGS \
	linminMethod         DirUpdateRecommended \
	nIterations          100 \
	history              15 \
	knormThreshold       0.0001 \
	energyDiffThreshold  1e-06 \
	nEnergyDiff          2 \
	alphaTstart          1 \
	alphaTmin            1e-10 \
	updateTestStepSize   yes \
	alphaTreduceFactor   0.1 \
	alphaTincreaseFactor 3 \
	nAlphaAdjustMax      3 \
	wolfeEnergy          0.0001 \
	wolfeGradient        0.9 \
	fdTest               no
kpoint   0.000000000000   0.000000000000   0.000000000000  1.00000000000000
kpoint-folding 12 5 1 
latt-move-scale 0 0 0
latt-scale 1 1 1 
lattice  \
	   4.766623000000000   -0.000000000000000    0.000000000000000  \
	   0.000000000000000   11.675796000000000    0.000000000000000  \
	   0.000000000000000    0.000000000000000   49.536203999999998 
lattice-minimize  \
	dirUpdateScheme      L-BFGS \
	linminMethod         DirUpdateRecommended \
	nIterations          0 \
	history              15 \
	knormThreshold       0 \
	energyDiffThreshold  1e-06 \
	nEnergyDiff          2 \
	alphaTstart          1 \
	alphaTmin            1e-10 \
	updateTestStepSize   yes \
	alphaTreduceFactor   0.1 \
	alphaTincreaseFactor 3 \
	nAlphaAdjustMax      3 \
	wolfeEnergy          0.0001 \
	wolfeGradient        0.9 \
	fdTest               no
lcao-params 30 1e-06 0.001
pcm-variant CANDLE
spintype z-spin
subspace-rotation-factor 1 yes
symmetries none
symmetry-threshold 0.0001
van-der-waals D3


Applied RMS atom displacement 0 bohrs to make symmetries exact.

---------- Initializing the Grid ----------
R = 
[      4.76662            0            0  ]
[            0      11.6758            0  ]
[            0            0      49.5362  ]
unit cell volume = 2756.89
G =
[    1.31816          0         -0  ]
[          0   0.538138          0  ]
[          0         -0    0.12684  ]
Minimum fftbox size, Smin = [  20  48  200  ]
Chosen fftbox size, S = [  20  48  200  ]

---------- Exchange Correlation functional ----------
Initalized PBE GGA exchange.
Initalized PBE GGA correlation.

---------- Setting up pseudopotentials ----------
Width of ionic core gaussian charges (only for fluid interactions / plotting) set to 0.397384

Reading pseudopotential file '/projects/musgravc/apps/jdftx-1.6.0/build/pseudopotentials/GBRV_v1.5/cu_pbe_v1.2.uspp':
  Title: Cu.  Created by USPP 7.3.6 on 3-2-2014
  Reference state energy: -201.059491.  19 valence electrons in orbitals:
    |300>  occupation: 2  eigenvalue: -5.020764
    |310>  occupation: 6  eigenvalue: -3.445588
    |320>  occupation: 8  eigenvalue: -0.925168
    |400>  occupation: 2  eigenvalue: -0.567638
    |410>  occupation: 0  eigenvalue: -0.326154
  lMax: 2  lLocal: 3  QijEcut: 6
  6 projectors sampled on a log grid with 613 points:
    l: 0  eig: -5.020767  rCut: 1.4
    l: 0  eig: -0.567640  rCut: 1.4
    l: 1  eig: -3.445589  rCut: 1.55
    l: 1  eig: -0.326157  rCut: 1.55
    l: 2  eig: -0.925170  rCut: 1.5
    l: 2  eig: 1.500000  rCut: 1.5
  Partial core density with radius 0.8
  Transforming core density to a uniform radial grid of dG=0.02 with 1125 points.
  Transforming local potential to a uniform radial grid of dG=0.02 with 1125 points.
  Transforming nonlocal projectors to a uniform radial grid of dG=0.02 with 432 points.
  Transforming density augmentations to a uniform radial grid of dG=0.02 with 1125 points.
  Transforming atomic orbitals to a uniform radial grid of dG=0.02 with 432 points.
  Core radius for overlap checks: 1.55 bohrs.

Initialized 1 species with 12 total atoms.

Folded 1 k-points by 12x5x1 to 60 k-points.

---------- Setting up k-points, bands, fillings ----------
No reducable k-points. 
Computing the number of bands and number of electrons
Calculating initial fillings.
nElectrons: 228.000000   nBands: 137   nStates: 120

----- Setting up reduced wavefunction bases (one per k-point) -----
average nbasis = 11778.483 , ideal nbasis = 11777.660

----- Initializing Supercell corresponding to k-point mesh -----
Lattice vector linear combinations in supercell:
[  12   0   0  ]
[   0   5   0  ]
[   0   0   1  ]
Supercell lattice vectors:
[  57.1995  0  0  ]
[  0  58.379  0  ]
[  0  0  49.5362  ]

Initializing DFT-D3 calculator:
	Parameters set for gga-PBE functional
	s6:  1.000  s_r6:  1.217
	s8:  0.722  s_r8:  1.000
	Per-atom parameters loaded for:
	Cu:  sqrtQ[a0]:  5.226  Rcov[a0]:  1.909  CN: [ 0.00 0.96 ]

Initializing DFT-D2 calculator for fluid / solvation:
	Cu:  C6:  187.33 Eh-a0^6  R0: 2.952 a0

---------- Setting up ewald sum ----------
Optimum gaussian width for ewald sums = 3.697032 bohr.
Real space sum over 1045 unit cells with max indices [  9  5  2  ]
Reciprocal space sum over 4095 terms with max indices [  3  6  22  ]

Computing DFT-D3 correction:
# coordination-number Cu 5.330 6.833 9.123 9.152 9.148 7.624 7.624 9.148 9.152 9.123 6.833 5.330
# diagonal-C6 Cu 175.00 175.00 175.00 175.00 175.00 175.00 175.00 175.00 175.00 175.00 175.00 175.00
EvdW_6 =   -0.063958
EvdW_8 =   -0.098710

---------- Allocating electronic variables ----------
Initializing wave functions:  linear combination of atomic orbitals
Cu pseudo-atom occupations:   s ( 2 1 )  p ( 6 0 )  d ( 10 )
	FillingsUpdate:  mu: -3.261445699  nElectrons: 228.000000  magneticMoment: [ Abs: 0.15810  Tot: -0.00054 ]
LCAOMinimize: Iter:   0  F: -2360.5212737281881346  |grad|_K:  2.611e-02  alpha:  1.000e+00
LCAOMinimize: 	Step increased F by 3.128245e+02, reducing alpha to 4.292484e-02.
LCAOMinimize: 	Step increased F by 2.157138e+01, reducing alpha to 4.292484e-03.
	FillingsUpdate:  mu: -2.951004360  nElectrons: 228.000000  magneticMoment: [ Abs: 0.16096  Tot: -0.00078 ]
LCAOMinimize: Iter:   1  F: -2367.8709281344199553  |grad|_K:  1.704e-02  alpha:  4.292e-03  linmin: -1.878e-01  cgtest:  9.475e-01  t[s]:     59.92
LCAOMinimize: Encountered beta<0, resetting CG.
LCAOMinimize: 	Predicted alpha/alphaT>3.000000, increasing alphaT to 1.287745e-02.
	FillingsUpdate:  mu: -1.937978368  nElectrons: 228.000000  magneticMoment: [ Abs: 0.16551  Tot: -0.00748 ]
LCAOMinimize: Iter:   2  F: -2374.4010808379357513  |grad|_K:  1.094e-02  alpha:  1.487e-02  linmin: -4.079e-02  cgtest:  3.943e-02  t[s]:     79.01
LCAOMinimize: 	Wrong curvature in test step, increasing alphaT to 4.461570e-02.
	FillingsUpdate:  mu: -1.717742566  nElectrons: 228.000000  magneticMoment: [ Abs: 0.18227  Tot: -0.05050 ]
LCAOMinimize: Iter:   3  F: -2380.9195275571901220  |grad|_K:  1.237e-02  alpha: -5.924e-02  linmin: -1.696e-01  cgtest:  8.216e-01  t[s]:     93.52
	FillingsUpdate:  mu: +1.565659332  nElectrons: 228.000000  magneticMoment: [ Abs: 0.00120  Tot: +0.00017 ]
LCAOMinimize: Iter:   4  F: -2407.8494703763090001  |grad|_K:  2.170e-03  alpha:  5.162e-01  linmin:  8.719e-02  cgtest: -4.122e+00  t[s]:    108.56
	FillingsUpdate:  mu: +1.559238137  nElectrons: 228.000000  magneticMoment: [ Abs: 0.00123  Tot: +0.00020 ]
LCAOMinimize: Iter:   5  F: -2407.8497997213967210  |grad|_K:  2.160e-03  alpha:  5.598e-03  linmin: -1.747e-04  cgtest:  1.000e+00  t[s]:    123.54
LCAOMinimize: Encountered beta<0, resetting CG.
LCAOMinimize: 	Wrong curvature in test step, increasing alphaT to 1.679312e-02.
	FillingsUpdate:  mu: +1.552277607  nElectrons: 228.000000  magneticMoment: [ Abs: 0.00123  Tot: +0.00021 ]
LCAOMinimize: Iter:   6  F: -2407.9273031975189951  |grad|_K:  2.156e-03  alpha: -9.827e-01  linmin: -8.407e-02  cgtest:  9.922e-01  t[s]:    138.20
	FillingsUpdate:  mu: +1.528892956  nElectrons: 228.000000  magneticMoment: [ Abs: 0.00124  Tot: +0.00030 ]
LCAOMinimize: Iter:   7  F: -2408.1985945653109411  |grad|_K:  2.141e-03  alpha:  1.941e-02  linmin: -8.273e-02  cgtest:  9.726e-01  t[s]:    153.16
LCAOMinimize: 	Wrong curvature in test step, increasing alphaT to 5.824284e-02.
	FillingsUpdate:  mu: +1.506645855  nElectrons: 228.000000  magneticMoment: [ Abs: 0.00129  Tot: +0.00053 ]
LCAOMinimize: Iter:   8  F: -2408.4700359202352047  |grad|_K:  2.125e-03  alpha: -1.033e+00  linmin: -1.019e-01  cgtest:  9.736e-01  t[s]:    167.80
	FillingsUpdate:  mu: +1.484419460  nElectrons: 228.000000  magneticMoment: [ Abs: 0.00133  Tot: +0.00070 ]
LCAOMinimize: Iter:   9  F: -2408.7489776844918197  |grad|_K:  2.112e-03  alpha:  2.026e-02  linmin: -1.268e-01  cgtest:  9.722e-01  t[s]:    182.84
LCAOMinimize: 	Wrong curvature in test step, increasing alphaT to 6.077745e-02.
	FillingsUpdate:  mu: +1.463830750  nElectrons: 228.000000  magneticMoment: [ Abs: 0.00134  Tot: +0.00075 ]
LCAOMinimize: Iter:  10  F: -2409.0255488028228683  |grad|_K:  2.103e-03  alpha: -8.294e-01  linmin: -1.349e-01  cgtest:  9.708e-01  t[s]:    197.25
	FillingsUpdate:  mu: +1.443108077  nElectrons: 228.000000  magneticMoment: [ Abs: 0.00132  Tot: +0.00074 ]
LCAOMinimize: Iter:  11  F: -2409.3208777482041114  |grad|_K:  2.097e-03  alpha:  2.168e-02  linmin: -1.409e-01  cgtest:  9.676e-01  t[s]:    213.14
LCAOMinimize: 	Wrong curvature in test step, increasing alphaT to 6.503076e-02.
	FillingsUpdate:  mu: +1.420956245  nElectrons: 228.000000  magneticMoment: [ Abs: 0.00128  Tot: +0.00068 ]
LCAOMinimize: Iter:  12  F: -2409.6164253287852262  |grad|_K:  2.094e-03  alpha: -6.807e-01  linmin: -1.466e-01  cgtest:  9.667e-01  t[s]:    227.71
	FillingsUpdate:  mu: +1.397103247  nElectrons: 228.000000  magneticMoment: [ Abs: 0.00121  Tot: +0.00058 ]
LCAOMinimize: Iter:  13  F: -2409.9454850428305690  |grad|_K:  2.094e-03  alpha:  2.408e-02  linmin: -1.516e-01  cgtest:  9.619e-01  t[s]:    242.82
LCAOMinimize: 	Wrong curvature in test step, increasing alphaT to 7.222602e-02.
	FillingsUpdate:  mu: +1.373529573  nElectrons: 228.000000  magneticMoment: [ Abs: 0.00114  Tot: +0.00043 ]
LCAOMinimize: Iter:  14  F: -2410.2768146442226680  |grad|_K:  2.095e-03  alpha: -5.940e-01  linmin: -1.535e-01  cgtest:  9.606e-01  t[s]:    257.13
	FillingsUpdate:  mu: +1.343201657  nElectrons: 228.000000  magneticMoment: [ Abs: 0.00104  Tot: +0.00020 ]
LCAOMinimize: Iter:  15  F: -2410.6695515445726414  |grad|_K:  2.100e-03  alpha:  2.827e-02  linmin: -1.527e-01  cgtest:  9.523e-01  t[s]:    272.16
LCAOMinimize: 	Wrong curvature in test step, increasing alphaT to 8.479990e-02.
	FillingsUpdate:  mu: +1.314748390  nElectrons: 228.000000  magneticMoment: [ Abs: 0.00098  Tot: -0.00003 ]
LCAOMinimize: Iter:  16  F: -2411.0687055047155809  |grad|_K:  2.106e-03  alpha: -5.302e-01  linmin: -1.560e-01  cgtest:  9.507e-01  t[s]:    286.75
	FillingsUpdate:  mu: +1.278834070  nElectrons: 228.000000  magneticMoment: [ Abs: 0.00096  Tot: -0.00020 ]
LCAOMinimize: Iter:  17  F: -2411.5890472870296435  |grad|_K:  2.114e-03  alpha:  3.623e-02  linmin: -1.698e-01  cgtest:  9.355e-01  t[s]:    301.68
LCAOMinimize: 	Wrong curvature in test step, increasing alphaT to 1.086778e-01.
	FillingsUpdate:  mu: +1.242307988  nElectrons: 228.000000  magneticMoment: [ Abs: 0.00094  Tot: -0.00024 ]
LCAOMinimize: Iter:  18  F: -2412.1236204554297728  |grad|_K:  2.122e-03  alpha: -4.927e-01  linmin: -1.765e-01  cgtest:  9.327e-01  t[s]:    316.03
	FillingsUpdate:  mu: +1.179962981  nElectrons: 228.000000  magneticMoment: [ Abs: 0.00098  Tot: -0.00040 ]
LCAOMinimize: Iter:  19  F: -2412.9631801046980399  |grad|_K:  2.135e-03  alpha:  5.496e-02  linmin: -1.422e-01  cgtest:  8.916e-01  t[s]:    331.05
LCAOMinimize: 	Wrong curvature in test step, increasing alphaT to 1.648803e-01.
	FillingsUpdate:  mu: +1.118154106  nElectrons: 228.000000  magneticMoment: [ Abs: 0.00109  Tot: -0.00060 ]
LCAOMinimize: Iter:  20  F: -2413.8585174127815662  |grad|_K:  2.126e-03  alpha: -4.527e-01  linmin: -1.411e-01  cgtest:  8.860e-01  t[s]:    345.64
	FillingsUpdate:  mu: +1.038590276  nElectrons: 228.000000  magneticMoment: [ Abs: 0.00107  Tot: -0.00020 ]
LCAOMinimize: Iter:  21  F: -2414.9310145612207634  |grad|_K:  2.056e-03  alpha:  6.648e-02  linmin: -1.825e-01  cgtest:  8.680e-01  t[s]:    360.63
LCAOMinimize: 	Wrong curvature in test step, increasing alphaT to 1.994397e-01.
	FillingsUpdate:  mu: +0.959163191  nElectrons: 228.000000  magneticMoment: [ Abs: 0.00128  Tot: -0.00032 ]
LCAOMinimize: Iter:  22  F: -2415.9048758046419607  |grad|_K:  1.937e-03  alpha: -8.921e-01  linmin: -1.820e-01  cgtest:  8.749e-01  t[s]:    375.02
	FillingsUpdate:  mu: +0.924725561  nElectrons: 228.000000  magneticMoment: [ Abs: 0.00140  Tot: -0.00034 ]
LCAOMinimize: Iter:  23  F: -2416.3313063749387766  |grad|_K:  1.872e-03  alpha:  3.500e-02  linmin: -1.804e-01  cgtest:  9.429e-01  t[s]:    390.00
LCAOMinimize: 	Wrong curvature in test step, increasing alphaT to 1.049963e-01.
	FillingsUpdate:  mu: +0.893164872  nElectrons: 228.000000  magneticMoment: [ Abs: 0.00152  Tot: -0.00034 ]
LCAOMinimize: Iter:  24  F: -2416.7082698665417411  |grad|_K:  1.815e-03  alpha: -1.515e+00  linmin: -1.845e-01  cgtest:  9.450e-01  t[s]:    404.45
	FillingsUpdate:  mu: +0.862746052  nElectrons: 228.000000  magneticMoment: [ Abs: 0.00163  Tot: -0.00038 ]
LCAOMinimize: Iter:  25  F: -2417.0112496487590761  |grad|_K:  1.772e-03  alpha:  2.994e-02  linmin: -1.699e-01  cgtest:  9.505e-01  t[s]:    419.44
LCAOMinimize: 	Wrong curvature in test step, increasing alphaT to 8.980854e-02.
	FillingsUpdate:  mu: +0.832693948  nElectrons: 228.000000  magneticMoment: [ Abs: 0.00177  Tot: -0.00047 ]
LCAOMinimize: Iter:  26  F: -2417.3012354581246655  |grad|_K:  1.731e-03  alpha: -1.074e+00  linmin: -1.419e-01  cgtest:  9.498e-01  t[s]:    434.13
	FillingsUpdate:  mu: +0.804879766  nElectrons: 228.000000  magneticMoment: [ Abs: 0.00191  Tot: -0.00046 ]
LCAOMinimize: Iter:  27  F: -2417.5610375403944090  |grad|_K:  1.685e-03  alpha:  2.825e-02  linmin: -1.777e-01  cgtest:  9.567e-01  t[s]:    449.04
LCAOMinimize: 	Wrong curvature in test step, increasing alphaT to 8.475127e-02.
	FillingsUpdate:  mu: +0.778498536  nElectrons: 228.000000  magneticMoment: [ Abs: 0.00205  Tot: -0.00042 ]
LCAOMinimize: Iter:  28  F: -2417.8049169395012541  |grad|_K:  1.644e-03  alpha: -1.535e+00  linmin: -2.083e-01  cgtest:  9.554e-01  t[s]:    463.62
	FillingsUpdate:  mu: +0.751395757  nElectrons: 228.000000  magneticMoment: [ Abs: 0.00218  Tot: -0.00040 ]
LCAOMinimize: Iter:  29  F: -2418.0296228149754825  |grad|_K:  1.608e-03  alpha:  2.719e-02  linmin: -2.138e-01  cgtest:  9.535e-01  t[s]:    478.65
LCAOMinimize: 	Wrong curvature in test step, increasing alphaT to 8.157734e-02.
	FillingsUpdate:  mu: +0.725538609  nElectrons: 228.000000  magneticMoment: [ Abs: 0.00231  Tot: -0.00040 ]
LCAOMinimize: Iter:  30  F: -2418.2458895290606051  |grad|_K:  1.571e-03  alpha: -1.039e+00  linmin: -2.168e-01  cgtest:  9.515e-01  t[s]:    493.34
LCAOMinimize: None of the convergence criteria satisfied after 30 iterations.
----- createFluidSolver() ----- (Fluid-side solver setup)
   Initializing fluid molecule 'H2O'
     Initializing site 'O'
       Electron density: proportional to exp(-r/0.36935)*erfc((r-0.51523)/0.36823) with norm 6.826
       Charge density: gaussian nuclear width 0.478731 with net site charge 0.826
       Polarizability: cuspless exponential with width 0.32 and norm 3.73
       Hard sphere radius: 2.57003 bohrs
       Positions in reference frame:
         [ +0.000000 +0.000000 +0.000000 ]
     Initializing site 'H'
       Electron density: proportional to exp(-r/0.34641)*erfc((r-0)/0.390882) with norm 0.587
       Charge density: gaussian nuclear width 0.377945 with net site charge -0.413
       Polarizability: cuspless exponential with width 0.39 and norm 3.3
       Positions in reference frame:
         [ +0.000000 -1.441945 +1.122523 ]
         [ +0.000000 +1.441945 +1.122523 ]
     Net charge: 0   dipole magnitude: 0.927204
     Initializing spherical shell mfKernel with radius 2.61727 Bohr
     deltaS corrections:
       site 'O': -7.54299
       site 'H': -6.83917
   Initializing fluid molecule 'Na+'
     Initializing site 'Na'
       Electron density: proportional to exp(-r/0.19682)*erfc((r-0.71491)/0.41314) with norm 8.1383
       Charge density: gaussian nuclear width 0.365347 with net site charge -1
       Hard sphere radius: 1.86327 bohrs
       Positions in reference frame:
         [ +0.000000 +0.000000 +0.000000 ]
     Net charge: -1   dipole magnitude: 0
     Initializing gaussian mfKernel with width: 1.55004 Bohr
     deltaS corrections:
       site 'Na': -22.3555
   Initializing fluid molecule 'F-'
     Initializing site 'F'
       Electron density: proportional to exp(-r/0.38886)*erfc((r-0)/0.438782) with norm 8
       Charge density: gaussian nuclear width 0.374796 with net site charge 1
       Hard sphere radius: 2.39995 bohrs
       Positions in reference frame:
         [ +0.000000 +0.000000 +0.000000 ]
     Net charge: 1   dipole magnitude: 0
     Initializing gaussian mfKernel with width: 1.59012 Bohr
     deltaS corrections:
       site 'F': -9.04335

Correction to mu due to finite nuclear width = -0.0820568
   Cavity determined by nc: 0.00142 and sigma: 0.707107
   Nonlocal vdW cavity from gaussian model electron density with norm = 8 and sigma = 0.993594 bohr
   Charge asymmetry in cavity with sensitivity pCavity = 36.5 e-bohr/Eh
   Electrostatic cavity expanded by eta = 1.46 bohrs
   Weighted density cavitation model constrained by Nbulk: 0.0049383 bohr^-3, Pvap: 3.14029 kPa, Rvdw: 2.61727 bohr and sigmaBulk: 4.62e-05 Eh/bohr^2 at T: 298 K.
   Weighted density dispersion model using vdW pair potentials with single solvent site with sqrtC6eff: 0.77 SI.


---- Citations for features of the code used in this run ----

   Software package:
      R. Sundararaman, K. Letchworth-Weaver, K.A. Schwarz, D. Gunceler, Y. Ozhabes and T.A. Arias, 'JDFTx: software for joint density-functional theory', SoftwareX 6, 278 (2017)

   gga-PBE exchange-correlation functional:
      J.P. Perdew, K. Burke and M. Ernzerhof, Phys. Rev. Lett. 77, 3865 (1996)

   Pseudopotentials:
      KF Garrity, JW Bennett, KM Rabe and D Vanderbilt, Comput. Mater. Sci. 81, 446 (2014)

   DFT-D3 dispersion correction:
      S. Grimme, J. Antony, S. Ehrlich and H. Krieg, J. Chem. Phys. 132, 154104 (2010)

   DFT-D2 dispersion correction:
      S. Grimme, J. Comput. Chem. 27, 1787 (2006)

   Charge-asymmetric nonlocally-determined local-electric (CANDLE) solvation model:
      R. Sundararaman and W.A. Goddard III, J. Chem. Phys. 142, 064107 (2015)

   Total energy minimization with Auxiliary Hamiltonian:
      C. Freysoldt, S. Boeck, and J. Neugebauer, Phys. Rev. B 79, 241103(R) (2009)

   Linear-tetrahedron sampling for density of states:
      G. Lehmann and M. Taut, Phys. status solidi (b) 54, 469 (1972)

This list may not be complete. Please suggest additional citations or
report any other bugs at https://github.com/shankar1729/jdftx/issues

Initialization completed successfully at t[s]:    499.57


Computing DFT-D3 correction:
# coordination-number Cu 5.330 6.833 9.123 9.152 9.148 7.624 7.624 9.148 9.152 9.123 6.833 5.330
# diagonal-C6 Cu 175.00 175.00 175.00 175.00 175.00 175.00 175.00 175.00 175.00 175.00 175.00 175.00
EvdW_6 =   -0.063958
EvdW_8 =   -0.098710
Fluid solver invoked on fresh (random / LCAO) wavefunctions
Running a vacuum solve first:

-------- Initial electronic minimization -----------
	FillingsUpdate:  mu: +0.764291682  nElectrons: 228.000000  magneticMoment: [ Abs: 0.00231  Tot: -0.00040 ]
ElecMinimize: Iter:   0  F: -2418.245889529056512  |grad|_K:  4.244e-04  alpha:  1.000e+00
	FillingsUpdate:  mu: +0.230908829  nElectrons: 228.000000  magneticMoment: [ Abs: 0.00271  Tot: -0.00079 ]
	SubspaceRotationAdjust: set factor to 0.972
ElecMinimize: Iter:   1  F: -2420.985357318666502  |grad|_K:  1.678e-04  alpha:  1.002e-01  linmin:  2.591e-03  t[s]:    535.74
	FillingsUpdate:  mu: +0.282955798  nElectrons: 228.000000  magneticMoment: [ Abs: 0.00243  Tot: -0.00089 ]
	SubspaceRotationAdjust: set factor to 1.08
ElecMinimize: Iter:   2  F: -2421.620460864974120  |grad|_K:  9.307e-05  alpha:  1.528e-01  linmin: -3.344e-05  t[s]:    558.10
	FillingsUpdate:  mu: +0.147586871  nElectrons: 228.000000  magneticMoment: [ Abs: 0.00240  Tot: -0.00125 ]
	SubspaceRotationAdjust: set factor to 1
ElecMinimize: Iter:   3  F: -2421.918675653250830  |grad|_K:  7.968e-05  alpha:  1.772e-01  linmin:  6.306e-05  t[s]:    580.31
	FillingsUpdate:  mu: +0.077764695  nElectrons: 228.000000  magneticMoment: [ Abs: 0.00199  Tot: -0.00086 ]
	SubspaceRotationAdjust: set factor to 0.837
ElecMinimize: Iter:   4  F: -2422.057800203742772  |grad|_K:  4.429e-05  alpha:  1.192e-01  linmin: -9.157e-06  t[s]:    602.79
	FillingsUpdate:  mu: +0.108370012  nElectrons: 228.000000  magneticMoment: [ Abs: 0.00169  Tot: -0.00053 ]
	SubspaceRotationAdjust: set factor to 0.894
ElecMinimize: Iter:   5  F: -2422.097831807417151  |grad|_K:  3.186e-05  alpha:  1.044e-01  linmin: -6.744e-06  t[s]:    625.05
	FillingsUpdate:  mu: +0.124911419  nElectrons: 228.000000  magneticMoment: [ Abs: 0.00133  Tot: -0.00022 ]
	SubspaceRotationAdjust: set factor to 0.595
ElecMinimize: Iter:   6  F: -2422.127419738321350  |grad|_K:  4.526e-05  alpha:  1.464e-01  linmin: -1.201e-05  t[s]:    647.32
	FillingsUpdate:  mu: +0.090478706  nElectrons: 228.000000  magneticMoment: [ Abs: 0.00101  Tot: +0.00002 ]
	SubspaceRotationAdjust: set factor to 0.387
ElecMinimize: Iter:   7  F: -2422.155124260389130  |grad|_K:  2.406e-05  alpha:  7.010e-02  linmin:  7.055e-06  t[s]:    669.55
	FillingsUpdate:  mu: +0.094708177  nElectrons: 228.000000  magneticMoment: [ Abs: 0.00085  Tot: +0.00005 ]
	SubspaceRotationAdjust: set factor to 0.563
ElecMinimize: Iter:   8  F: -2422.165668384062883  |grad|_K:  1.177e-05  alpha:  9.504e-02  linmin: -3.563e-06  t[s]:    691.96
	FillingsUpdate:  mu: +0.099792809  nElectrons: 228.000000  magneticMoment: [ Abs: 0.00075  Tot: +0.00001 ]
	SubspaceRotationAdjust: set factor to 0.528
ElecMinimize: Iter:   9  F: -2422.169702611854063  |grad|_K:  1.060e-05  alpha:  1.482e-01  linmin: -4.203e-06  t[s]:    714.34
	FillingsUpdate:  mu: +0.100330238  nElectrons: 228.000000  magneticMoment: [ Abs: 0.00065  Tot: -0.00009 ]
	SubspaceRotationAdjust: set factor to 0.402
ElecMinimize: Iter:  10  F: -2422.172728424426168  |grad|_K:  8.426e-06  alpha:  1.376e-01  linmin: -2.146e-06  t[s]:    736.67
	FillingsUpdate:  mu: +0.101076780  nElectrons: 228.000000  magneticMoment: [ Abs: 0.00059  Tot: -0.00016 ]
	SubspaceRotationAdjust: set factor to 0.367
ElecMinimize: Iter:  11  F: -2422.174295382036235  |grad|_K:  5.487e-06  alpha:  1.131e-01  linmin: -8.137e-07  t[s]:    758.92
	FillingsUpdate:  mu: +0.103133768  nElectrons: 228.000000  magneticMoment: [ Abs: 0.00052  Tot: -0.00018 ]
	SubspaceRotationAdjust: set factor to 0.418
ElecMinimize: Iter:  12  F: -2422.175362687475172  |grad|_K:  4.827e-06  alpha:  1.817e-01  linmin: -1.756e-06  t[s]:    781.35
	FillingsUpdate:  mu: +0.101264667  nElectrons: 228.000000  magneticMoment: [ Abs: 0.00045  Tot: -0.00016 ]
	SubspaceRotationAdjust: set factor to 0.393
ElecMinimize: Iter:  13  F: -2422.176027657912982  |grad|_K:  3.423e-06  alpha:  1.463e-01  linmin: -4.462e-07  t[s]:    804.64
	FillingsUpdate:  mu: +0.100323927  nElectrons: 228.000000  magneticMoment: [ Abs: 0.00039  Tot: -0.00014 ]
	SubspaceRotationAdjust: set factor to 0.386
ElecMinimize: Iter:  14  F: -2422.176377471384512  |grad|_K:  2.952e-06  alpha:  1.532e-01  linmin:  7.357e-07  t[s]:    826.92
	FillingsUpdate:  mu: +0.101206277  nElectrons: 228.000000  magneticMoment: [ Abs: 0.00033  Tot: -0.00011 ]
	SubspaceRotationAdjust: set factor to 0.432
ElecMinimize: Iter:  15  F: -2422.176674644755167  |grad|_K:  2.256e-06  alpha:  1.751e-01  linmin: -3.152e-07  t[s]:    849.24
	FillingsUpdate:  mu: +0.100697421  nElectrons: 228.000000  magneticMoment: [ Abs: 0.00029  Tot: -0.00009 ]
	SubspaceRotationAdjust: set factor to 0.455
ElecMinimize: Iter:  16  F: -2422.176819798348333  |grad|_K:  1.772e-06  alpha:  1.463e-01  linmin:  1.538e-06  t[s]:    871.43
	FillingsUpdate:  mu: +0.100124704  nElectrons: 228.000000  magneticMoment: [ Abs: 0.00024  Tot: -0.00008 ]
	SubspaceRotationAdjust: set factor to 0.445
ElecMinimize: Iter:  17  F: -2422.176920018891906  |grad|_K:  1.491e-06  alpha:  1.639e-01  linmin:  5.014e-06  t[s]:    893.71
	FillingsUpdate:  mu: +0.100167568  nElectrons: 228.000000  magneticMoment: [ Abs: 0.00021  Tot: -0.00006 ]
	SubspaceRotationAdjust: set factor to 0.447
ElecMinimize: Iter:  18  F: -2422.176982475221848  |grad|_K:  1.118e-06  alpha:  1.444e-01  linmin:  5.001e-07  t[s]:    916.13
	FillingsUpdate:  mu: +0.099841150  nElectrons: 228.000000  magneticMoment: [ Abs: 0.00018  Tot: -0.00005 ]
	SubspaceRotationAdjust: set factor to 0.484
ElecMinimize: Iter:  19  F: -2422.177025703614163  |grad|_K:  9.451e-07  alpha:  1.775e-01  linmin:  1.603e-06  t[s]:    938.53
	FillingsUpdate:  mu: +0.099696378  nElectrons: 228.000000  magneticMoment: [ Abs: 0.00015  Tot: -0.00005 ]
	SubspaceRotationAdjust: set factor to 0.505
ElecMinimize: Iter:  20  F: -2422.177049786105727  |grad|_K:  6.635e-07  alpha:  1.385e-01  linmin:  4.615e-07  t[s]:    960.91
	FillingsUpdate:  mu: +0.099868190  nElectrons: 228.000000  magneticMoment: [ Abs: 0.00013  Tot: -0.00004 ]
	SubspaceRotationAdjust: set factor to 0.467
ElecMinimize: Iter:  21  F: -2422.177063636307139  |grad|_K:  6.535e-07  alpha:  1.616e-01  linmin:  4.183e-07  t[s]:    983.07
	FillingsUpdate:  mu: +0.099791900  nElectrons: 228.000000  magneticMoment: [ Abs: 0.00010  Tot: -0.00003 ]
	SubspaceRotationAdjust: set factor to 0.405
ElecMinimize: Iter:  22  F: -2422.177077679777085  |grad|_K:  4.958e-07  alpha:  1.689e-01  linmin:  1.213e-06  t[s]:   1005.36
	FillingsUpdate:  mu: +0.099577525  nElectrons: 228.000000  magneticMoment: [ Abs: 0.00008  Tot: -0.00003 ]
	SubspaceRotationAdjust: set factor to 0.461
ElecMinimize: Iter:  23  F: -2422.177083399973526  |grad|_K:  3.154e-07  alpha:  1.196e-01  linmin:  1.072e-07  t[s]:   1027.69
	FillingsUpdate:  mu: +0.099505430  nElectrons: 228.000000  magneticMoment: [ Abs: 0.00007  Tot: -0.00003 ]
	SubspaceRotationAdjust: set factor to 0.464
ElecMinimize: Iter:  24  F: -2422.177087337337980  |grad|_K:  3.275e-07  alpha:  2.033e-01  linmin:  8.246e-07  t[s]:   1049.97
	FillingsUpdate:  mu: +0.099442752  nElectrons: 228.000000  magneticMoment: [ Abs: 0.00006  Tot: -0.00002 ]
	SubspaceRotationAdjust: set factor to 0.405
ElecMinimize: Iter:  25  F: -2422.177090497283189  |grad|_K:  2.349e-07  alpha:  1.514e-01  linmin:  1.725e-07  t[s]:   1072.27
	FillingsUpdate:  mu: +0.099429494  nElectrons: 228.000000  magneticMoment: [ Abs: 0.00005  Tot: -0.00002 ]
	SubspaceRotationAdjust: set factor to 0.414
ElecMinimize: Iter:  26  F: -2422.177091970083893  |grad|_K:  1.831e-07  alpha:  1.370e-01  linmin:  3.446e-07  t[s]:   1094.71
	FillingsUpdate:  mu: +0.099500184  nElectrons: 228.000000  magneticMoment: [ Abs: 0.00004  Tot: -0.00002 ]
	SubspaceRotationAdjust: set factor to 0.445
ElecMinimize: Iter:  27  F: -2422.177093162051733  |grad|_K:  1.546e-07  alpha:  1.827e-01  linmin:  3.035e-07  t[s]:   1118.16
	FillingsUpdate:  mu: +0.099510266  nElectrons: 228.000000  magneticMoment: [ Abs: 0.00003  Tot: -0.00002 ]
	SubspaceRotationAdjust: set factor to 0.468
ElecMinimize: Iter:  28  F: -2422.177093864282597  |grad|_K:  1.268e-07  alpha:  1.509e-01  linmin:  1.568e-07  t[s]:   1140.46
	FillingsUpdate:  mu: +0.099448265  nElectrons: 228.000000  magneticMoment: [ Abs: 0.00003  Tot: -0.00001 ]
	SubspaceRotationAdjust: set factor to 0.473
ElecMinimize: Iter:  29  F: -2422.177094422692790  |grad|_K:  1.127e-07  alpha:  1.784e-01  linmin:  3.090e-07  t[s]:   1162.76
	FillingsUpdate:  mu: +0.099430953  nElectrons: 228.000000  magneticMoment: [ Abs: 0.00002  Tot: -0.00001 ]
	SubspaceRotationAdjust: set factor to 0.5
ElecMinimize: Iter:  30  F: -2422.177094773743647  |grad|_K:  8.404e-08  alpha:  1.419e-01  linmin:  2.676e-08  t[s]:   1185.06
	FillingsUpdate:  mu: +0.099449863  nElectrons: 228.000000  magneticMoment: [ Abs: 0.00002  Tot: -0.00001 ]
	SubspaceRotationAdjust: set factor to 0.527
ElecMinimize: Iter:  31  F: -2422.177095022022513  |grad|_K:  7.966e-08  alpha:  1.806e-01  linmin:  1.609e-07  t[s]:   1207.47
	FillingsUpdate:  mu: +0.099455622  nElectrons: 228.000000  magneticMoment: [ Abs: 0.00002  Tot: -0.00001 ]
	SubspaceRotationAdjust: set factor to 0.585
ElecMinimize: Iter:  32  F: -2422.177095223536071  |grad|_K:  5.826e-08  alpha:  1.631e-01  linmin:  4.532e-07  t[s]:   1229.65
	FillingsUpdate:  mu: +0.099454375  nElectrons: 228.000000  magneticMoment: [ Abs: 0.00001  Tot: -0.00001 ]
	SubspaceRotationAdjust: set factor to 0.589
ElecMinimize: Iter:  33  F: -2422.177095318514603  |grad|_K:  5.174e-08  alpha:  1.440e-01  linmin:  3.009e-07  t[s]:   1252.11
	FillingsUpdate:  mu: +0.099445241  nElectrons: 228.000000  magneticMoment: [ Abs: 0.00001  Tot: -0.00001 ]
	SubspaceRotationAdjust: set factor to 0.484
ElecMinimize: Iter:  34  F: -2422.177095403077146  |grad|_K:  4.787e-08  alpha:  1.623e-01  linmin:  7.318e-08  t[s]:   1274.50
ElecMinimize: Converged (|Delta F|<1.000000e-07 for 2 iters).
Setting wave functions to eigenvectors of Hamiltonian
Converging empty states (this may take a while): |deigs|: 2.045e-02
Vacuum energy after initial minimize, F = -2422.177095403077146


-------- Electronic minimization -----------
	Linear fluid (dielectric constant: 78.4, screening length: 8.12261 Bohr) occupying 0.488481 of unit cell:	Completed after 22 iterations at t[s]:   1365.38
	FillingsUpdate:  mu: -0.158829303  nElectrons: 228.000000  magneticMoment: [ Abs: 0.00000  Tot: -0.00000 ]
ElecMinimize: Iter:   0  F: -2422.177307025447590  |grad|_K:  1.017e-06  alpha:  1.000e+00
	Linear fluid (dielectric constant: 78.4, screening length: 8.12261 Bohr) occupying 0.490724 of unit cell:	Completed after 19 iterations at t[s]:   1384.49
	Linear fluid (dielectric constant: 78.4, screening length: 8.12261 Bohr) occupying 0.489106 of unit cell:	Completed after 18 iterations at t[s]:   1391.52
	FillingsUpdate:  mu: -0.155163869  nElectrons: 228.000000  magneticMoment: [ Abs: 0.00000  Tot: -0.00000 ]
	SubspaceRotationAdjust: set factor to 0.435
ElecMinimize: Iter:   1  F: -2422.177360502394549  |grad|_K:  1.227e-06  alpha:  2.723e-01  linmin:  2.298e-06  t[s]:   1401.01
	Linear fluid (dielectric constant: 78.4, screening length: 8.12261 Bohr) occupying 0.490297 of unit cell:	Completed after 18 iterations at t[s]:   1410.11
	Linear fluid (dielectric constant: 78.4, screening length: 8.12261 Bohr) occupying 0.489963 of unit cell:	Completed after 13 iterations at t[s]:   1416.97
	FillingsUpdate:  mu: -0.153037985  nElectrons: 228.000000  magneticMoment: [ Abs: 0.00000  Tot: -0.00000 ]
	SubspaceRotationAdjust: set factor to 0.604
ElecMinimize: Iter:   2  F: -2422.177416053373236  |grad|_K:  1.113e-06  alpha:  1.942e-01  linmin: -5.968e-08  t[s]:   1425.79
	Linear fluid (dielectric constant: 78.4, screening length: 8.12261 Bohr) occupying 0.490716 of unit cell:	Completed after 18 iterations at t[s]:   1434.58
	Linear fluid (dielectric constant: 78.4, screening length: 8.12261 Bohr) occupying 0.490758 of unit cell:	Completed after 6 iterations at t[s]:   1441.13
	FillingsUpdate:  mu: -0.153167512  nElectrons: 228.000000  magneticMoment: [ Abs: 0.00000  Tot: -0.00000 ]
	SubspaceRotationAdjust: set factor to 0.684
ElecMinimize: Iter:   3  F: -2422.177465706927251  |grad|_K:  6.476e-07  alpha:  2.054e-01  linmin: -2.121e-07  t[s]:   1449.93
	Linear fluid (dielectric constant: 78.4, screening length: 8.12261 Bohr) occupying 0.491062 of unit cell:	Completed after 11 iterations at t[s]:   1458.36
	Linear fluid (dielectric constant: 78.4, screening length: 8.12261 Bohr) occupying 0.491165 of unit cell:	Completed after 9 iterations at t[s]:   1465.05
	FillingsUpdate:  mu: -0.153758639  nElectrons: 228.000000  magneticMoment: [ Abs: 0.00000  Tot: -0.00000 ]
	SubspaceRotationAdjust: set factor to 0.778
ElecMinimize: Iter:   4  F: -2422.177488284674382  |grad|_K:  6.222e-07  alpha:  2.759e-01  linmin:  4.137e-08  t[s]:   1473.89
	Linear fluid (dielectric constant: 78.4, screening length: 8.12261 Bohr) occupying 0.491597 of unit cell:	Completed after 16 iterations at t[s]:   1482.54
	Linear fluid (dielectric constant: 78.4, screening length: 8.12261 Bohr) occupying 0.491373 of unit cell:	Completed after 15 iterations at t[s]:   1489.37
	FillingsUpdate:  mu: -0.153470542  nElectrons: 228.000000  magneticMoment: [ Abs: 0.00000  Tot: -0.00000 ]
	SubspaceRotationAdjust: set factor to 0.814
ElecMinimize: Iter:   5  F: -2422.177498190471852  |grad|_K:  3.857e-07  alpha:  1.316e-01  linmin:  3.042e-08  t[s]:   1498.29
	Linear fluid (dielectric constant: 78.4, screening length: 8.12261 Bohr) occupying 0.491465 of unit cell:	Completed after 11 iterations at t[s]:   1506.73
	Linear fluid (dielectric constant: 78.4, screening length: 8.12261 Bohr) occupying 0.491481 of unit cell:	Completed after 7 iterations at t[s]:   1513.35
	FillingsUpdate:  mu: -0.153200363  nElectrons: 228.000000  magneticMoment: [ Abs: 0.00000  Tot: -0.00000 ]
	SubspaceRotationAdjust: set factor to 0.673
ElecMinimize: Iter:   6  F: -2422.177502675910546  |grad|_K:  2.840e-07  alpha:  1.549e-01  linmin:  3.130e-08  t[s]:   1522.21
	Linear fluid (dielectric constant: 78.4, screening length: 8.12261 Bohr) occupying 0.491532 of unit cell:	Completed after 10 iterations at t[s]:   1530.68
	Linear fluid (dielectric constant: 78.4, screening length: 8.12261 Bohr) occupying 0.491537 of unit cell:	Completed after 4 iterations at t[s]:   1537.13
	FillingsUpdate:  mu: -0.153352221  nElectrons: 228.000000  magneticMoment: [ Abs: 0.00000  Tot: -0.00000 ]
	SubspaceRotationAdjust: set factor to 0.672
ElecMinimize: Iter:   7  F: -2422.177505365168145  |grad|_K:  2.131e-07  alpha:  1.713e-01  linmin: -8.059e-08  t[s]:   1545.96
	Linear fluid (dielectric constant: 78.4, screening length: 8.12261 Bohr) occupying 0.491563 of unit cell:	Completed after 10 iterations at t[s]:   1554.33
	Linear fluid (dielectric constant: 78.4, screening length: 8.12261 Bohr) occupying 0.491562 of unit cell:	Completed after 2 iterations at t[s]:   1560.70
	FillingsUpdate:  mu: -0.153528344  nElectrons: 228.000000  magneticMoment: [ Abs: 0.00000  Tot: -0.00000 ]
	SubspaceRotationAdjust: set factor to 0.686
ElecMinimize: Iter:   8  F: -2422.177506790692405  |grad|_K:  1.596e-07  alpha:  1.610e-01  linmin: -6.015e-08  t[s]:   1569.52
	Linear fluid (dielectric constant: 78.4, screening length: 8.12261 Bohr) occupying 0.491577 of unit cell:	Completed after 6 iterations at t[s]:   1577.69
	Linear fluid (dielectric constant: 78.4, screening length: 8.12261 Bohr) occupying 0.491576 of unit cell:	Completed after 0 iterations at t[s]:   1583.97
	FillingsUpdate:  mu: -0.153483619  nElectrons: 228.000000  magneticMoment: [ Abs: 0.00000  Tot: -0.00000 ]
	SubspaceRotationAdjust: set factor to 0.768
ElecMinimize: Iter:   9  F: -2422.177507563282234  |grad|_K:  9.384e-08  alpha:  1.556e-01  linmin:  1.434e-06  t[s]:   1592.82
	Linear fluid (dielectric constant: 78.4, screening length: 8.12261 Bohr) occupying 0.491579 of unit cell:	Completed after 8 iterations at t[s]:   1601.16
	Linear fluid (dielectric constant: 78.4, screening length: 8.12261 Bohr) occupying 0.491580 of unit cell:	Completed after 2 iterations at t[s]:   1607.49
	FillingsUpdate:  mu: -0.153388956  nElectrons: 228.000000  magneticMoment: [ Abs: 0.00000  Tot: -0.00000 ]
	SubspaceRotationAdjust: set factor to 0.745
ElecMinimize: Iter:  10  F: -2422.177507854274609  |grad|_K:  8.799e-08  alpha:  1.710e-01  linmin: -4.282e-06  t[s]:   1616.37
	Linear fluid (dielectric constant: 78.4, screening length: 8.12261 Bohr) occupying 0.491575 of unit cell:	Completed after 6 iterations at t[s]:   1624.56
	Linear fluid (dielectric constant: 78.4, screening length: 8.12261 Bohr) occupying 0.491573 of unit cell:	Completed after 2 iterations at t[s]:   1630.94
	FillingsUpdate:  mu: -0.153450300  nElectrons: 228.000000  magneticMoment: [ Abs: 0.00000  Tot: -0.00000 ]
	SubspaceRotationAdjust: set factor to 0.692
ElecMinimize: Iter:  11  F: -2422.177508192508412  |grad|_K:  5.884e-08  alpha:  2.221e-01  linmin:  2.338e-07  t[s]:   1639.71
	Linear fluid (dielectric constant: 78.4, screening length: 8.12261 Bohr) occupying 0.491566 of unit cell:	Completed after 6 iterations at t[s]:   1648.04
	Linear fluid (dielectric constant: 78.4, screening length: 8.12261 Bohr) occupying 0.491569 of unit cell:	Completed after 2 iterations at t[s]:   1654.37
	FillingsUpdate:  mu: -0.153456303  nElectrons: 228.000000  magneticMoment: [ Abs: 0.00000  Tot: -0.00000 ]
	SubspaceRotationAdjust: set factor to 0.758
ElecMinimize: Iter:  12  F: -2422.177508277785364  |grad|_K:  3.931e-08  alpha:  1.269e-01  linmin: -1.064e-07  t[s]:   1663.18
	Linear fluid (dielectric constant: 78.4, screening length: 8.12261 Bohr) occupying 0.491565 of unit cell:	Completed after 2 iterations at t[s]:   1671.20
	Linear fluid (dielectric constant: 78.4, screening length: 8.12261 Bohr) occupying 0.491561 of unit cell:	Completed after 2 iterations at t[s]:   1677.60
	FillingsUpdate:  mu: -0.153467887  nElectrons: 228.000000  magneticMoment: [ Abs: 0.00000  Tot: -0.00000 ]
	SubspaceRotationAdjust: set factor to 0.755
ElecMinimize: Iter:  13  F: -2422.177508356774524  |grad|_K:  3.673e-08  alpha:  2.601e-01  linmin: -8.979e-07  t[s]:   1686.43
ElecMinimize: Converged (|Delta F|<1.000000e-07 for 2 iters).
Setting wave functions to eigenvectors of Hamiltonian
Converging empty states (this may take a while): |deigs|: 9.351e-05
Single-point solvation energy estimate, DeltaF = -0.000412953697378

Computing DFT-D3 correction:
# coordination-number Cu 5.330 6.833 9.123 9.152 9.148 7.624 7.624 9.148 9.152 9.123 6.833 5.330
# diagonal-C6 Cu 175.00 175.00 175.00 175.00 175.00 175.00 175.00 175.00 175.00 175.00 175.00 175.00
EvdW_6 =   -0.063958
EvdW_8 =   -0.098710

# Ionic positions in cartesian coordinates:
ion Cu   0.000000000000000   0.000000000000000  15.824043000000001 1
ion Cu   0.000000000000000   3.891928000000000   2.064025000000000 1
ion Cu   0.000000000000000   7.783867999999999   4.816009000000000 1
ion Cu   0.000000000000000   0.000000000000000   7.568042000000000 1
ion Cu   0.000000000000000   3.891928000000000  10.320026000000000 1
ion Cu   0.000000000000000   7.783867999999999  13.072058999999999 1
ion Cu   2.383311000000000   0.000000000000000   3.439992000000000 1
ion Cu   2.383311000000000   3.891928000000000   6.192025000000000 1
ion Cu   2.383311000000000   7.783867999999999   8.944058999999999 1
ion Cu   2.383311000000000   0.000000000000000  11.696043000000000 1
ion Cu   2.383311000000000   3.891928000000000  14.448076000000000 1
ion Cu   2.383311000000000   7.783867999999999   0.688008000000000 1

# Forces in Cartesian coordinates:
force Cu  -0.000000272979119   0.001009651283284  -0.005461919468457 1
force Cu  -0.000001380914769  -0.001230329669242  -0.002551455715955 1
force Cu  -0.000000305636774   0.002656826554713  -0.002140496350054 1
force Cu  -0.000002874427712   0.000094349659356   0.002503583634925 1
force Cu   0.000000735094307   0.001062478419104  -0.002219884025947 1
force Cu   0.000007552296217  -0.002036380794722   0.005597760548937 1
force Cu   0.000002227595929   0.002029477210414  -0.005514733976571 1
force Cu   0.000000262853912  -0.001058437656355   0.002136250510844 1
force Cu   0.000001642946861  -0.000084648099101  -0.002648365289885 1
force Cu  -0.000005220654979  -0.002659186468345   0.001996460428236 1
force Cu  -0.000000776303656   0.001223608434085   0.002514387315614 1
force Cu   0.000008272652081  -0.001011158432271   0.005627148930131 1

# Energy components:
   A_diel =       -0.0006620295507925
   Eewald =     9377.3716686180068791
       EH =    11594.4085609198464226
     Eloc =   -23848.7046093895041849
      Enl =      439.4744218074193896
     EvdW =       -0.1626682514596578
      Exc =     -232.8316289839800106
 Exc_core =        0.5635932894139307
       KE =      247.7041562256964937
-------------------------------------
     Etot =    -2422.1771677941110283
       TS =        0.0003405626637221
-------------------------------------
        F =    -2422.1775083567745241


Dumping 'jdft.fillings' ... done
Dumping 'jdft.wfns' ... done
Dumping 'jdft.fluidState' ... done
Dumping 'jdft.ionpos' ... done
Dumping 'jdft.lattice' ... done
Dumping 'jdft.eigenvals' ... done
Dumping 'jdft.eigStats' ... 
	eMin: -4.294402 at state 60 ( [ +0.000000 +0.000000 +0.000000 ] spin -1 )
	HOMO: -0.154059 at state 40 ( [ -0.333333 +0.000000 +0.000000 ] spin 1 )
	mu  : -0.153468
	LUMO: -0.152138 at state 62 ( [ +0.000000 +0.400000 +0.000000 ] spin -1 )
	eMax: +0.214797 at state 34 ( [ +0.500000 -0.200000 +0.000000 ] spin 1 )
	HOMO-LUMO gap: +0.001921
	Optical gap  : +0.002943 at state 100 ( [ -0.333333 +0.000000 +0.000000 ] spin -1 )
Dumping 'jdft.Ecomponents' ... done
IonicMinimize: Iter:   0  F: -2422.177508356774524  |grad|_K:  2.340e-03  t[s]:   1747.12

#--- Lowdin population analysis ---
# oxidation-state Cu +0.192 +0.091 +0.040 +0.069 +0.064 +0.061 +0.062 +0.064 +0.069 +0.040 +0.091 +0.192
# magnetic-moments Cu -0.000 -0.000 -0.000 -0.000 -0.000 -0.000 -0.000 -0.000 -0.000 +0.000 -0.000 -0.000


Computing DFT-D3 correction:
# coordination-number Cu 5.344 6.833 9.123 9.147 9.142 7.619 7.619 9.143 9.147 9.123 6.833 5.345
# diagonal-C6 Cu 175.00 175.00 175.00 175.00 175.00 175.00 175.00 175.00 175.00 175.00 175.00 175.00
EvdW_6 =   -0.063957
EvdW_8 =   -0.098707

-------- Electronic minimization -----------
	Linear fluid (dielectric constant: 78.4, screening length: 8.12261 Bohr) occupying 0.491686 of unit cell:	Completed after 12 iterations at t[s]:   1756.71
	FillingsUpdate:  mu: -0.153344668  nElectrons: 228.000000  magneticMoment: [ Abs: 0.00000  Tot: -0.00000 ]
ElecMinimize: Iter:   0  F: -2422.177637876535300  |grad|_K:  7.913e-07  alpha:  1.000e+00
	Linear fluid (dielectric constant: 78.4, screening length: 8.12261 Bohr) occupying 0.491638 of unit cell:	Completed after 18 iterations at t[s]:   1775.85
	Linear fluid (dielectric constant: 78.4, screening length: 8.12261 Bohr) occupying 0.491678 of unit cell:	Completed after 18 iterations at t[s]:   1782.87
	FillingsUpdate:  mu: -0.153547356  nElectrons: 228.000000  magneticMoment: [ Abs: 0.00000  Tot: -0.00000 ]
	SubspaceRotationAdjust: set factor to 0.884
ElecMinimize: Iter:   1  F: -2422.177654865413842  |grad|_K:  6.593e-07  alpha:  1.394e-01  linmin:  2.376e-06  t[s]:   1791.74
	Linear fluid (dielectric constant: 78.4, screening length: 8.12261 Bohr) occupying 0.491673 of unit cell:	Completed after 9 iterations at t[s]:   1800.31
	Linear fluid (dielectric constant: 78.4, screening length: 8.12261 Bohr) occupying 0.491668 of unit cell:	Completed after 9 iterations at t[s]:   1806.95
	FillingsUpdate:  mu: -0.153689031  nElectrons: 228.000000  magneticMoment: [ Abs: 0.00000  Tot: -0.00000 ]
	SubspaceRotationAdjust: set factor to 0.95
ElecMinimize: Iter:   2  F: -2422.177677616522942  |grad|_K:  6.315e-07  alpha:  2.688e-01  linmin:  9.563e-07  t[s]:   1815.74
	Linear fluid (dielectric constant: 78.4, screening length: 8.12261 Bohr) occupying 0.491678 of unit cell:	Completed after 14 iterations at t[s]:   1824.36
	Linear fluid (dielectric constant: 78.4, screening length: 8.12261 Bohr) occupying 0.491673 of unit cell:	Completed after 10 iterations at t[s]:   1831.10
	FillingsUpdate:  mu: -0.153520197  nElectrons: 228.000000  magneticMoment: [ Abs: 0.00000  Tot: -0.00000 ]
	SubspaceRotationAdjust: set factor to 0.949
ElecMinimize: Iter:   3  F: -2422.177687134209009  |grad|_K:  4.223e-07  alpha:  1.226e-01  linmin:  6.624e-07  t[s]:   1839.98
	Linear fluid (dielectric constant: 78.4, screening length: 8.12261 Bohr) occupying 0.491676 of unit cell:	Completed after 9 iterations at t[s]:   1848.35
	Linear fluid (dielectric constant: 78.4, screening length: 8.12261 Bohr) occupying 0.491677 of unit cell:	Completed after 6 iterations at t[s]:   1854.93
	FillingsUpdate:  mu: -0.153475625  nElectrons: 228.000000  magneticMoment: [ Abs: 0.00000  Tot: -0.00000 ]
	SubspaceRotationAdjust: set factor to 0.834
ElecMinimize: Iter:   4  F: -2422.177692505849791  |grad|_K:  2.720e-07  alpha:  1.547e-01  linmin:  9.001e-06  t[s]:   1863.73
	Linear fluid (dielectric constant: 78.4, screening length: 8.12261 Bohr) occupying 0.491678 of unit cell:	Completed after 9 iterations at t[s]:   1872.06
	Linear fluid (dielectric constant: 78.4, screening length: 8.12261 Bohr) occupying 0.491678 of unit cell:	Completed after 7 iterations at t[s]:   1878.64
	FillingsUpdate:  mu: -0.153495258  nElectrons: 228.000000  magneticMoment: [ Abs: 0.00000  Tot: -0.00000 ]
	SubspaceRotationAdjust: set factor to 0.646
ElecMinimize: Iter:   5  F: -2422.177694339951813  |grad|_K:  2.201e-07  alpha:  1.273e-01  linmin:  4.435e-06  t[s]:   1887.68
	Linear fluid (dielectric constant: 78.4, screening length: 8.12261 Bohr) occupying 0.491680 of unit cell:	Completed after 6 iterations at t[s]:   1895.88
	Linear fluid (dielectric constant: 78.4, screening length: 8.12261 Bohr) occupying 0.491682 of unit cell:	Completed after 2 iterations at t[s]:   1902.18
	FillingsUpdate:  mu: -0.153506613  nElectrons: 228.000000  magneticMoment: [ Abs: 0.00000  Tot: -0.00000 ]
	SubspaceRotationAdjust: set factor to 0.717
ElecMinimize: Iter:   6  F: -2422.177696281934004  |grad|_K:  1.416e-07  alpha:  2.059e-01  linmin: -9.710e-06  t[s]:   1911.01
	Linear fluid (dielectric constant: 78.4, screening length: 8.12261 Bohr) occupying 0.491685 of unit cell:	Completed after 6 iterations at t[s]:   1919.32
	Linear fluid (dielectric constant: 78.4, screening length: 8.12261 Bohr) occupying 0.491684 of unit cell:	Completed after 6 iterations at t[s]:   1925.81
	FillingsUpdate:  mu: -0.153480409  nElectrons: 228.000000  magneticMoment: [ Abs: 0.00000  Tot: -0.00000 ]
	SubspaceRotationAdjust: set factor to 0.732
ElecMinimize: Iter:   7  F: -2422.177696696768180  |grad|_K:  5.378e-08  alpha:  1.069e-01  linmin:  7.019e-06  t[s]:   1934.67
	Linear fluid (dielectric constant: 78.4, screening length: 8.12261 Bohr) occupying 0.491684 of unit cell:	Completed after 2 iterations at t[s]:   1942.79
	Linear fluid (dielectric constant: 78.4, screening length: 8.12261 Bohr) occupying 0.491685 of unit cell:	Completed after 2 iterations at t[s]:   1949.20
	FillingsUpdate:  mu: -0.153422961  nElectrons: 228.000000  magneticMoment: [ Abs: 0.00000  Tot: -0.00000 ]
	SubspaceRotationAdjust: set factor to 0.701
ElecMinimize: Iter:   8  F: -2422.177696857133469  |grad|_K:  5.750e-08  alpha:  2.825e-01  linmin: -1.757e-04  t[s]:   1958.02
	Linear fluid (dielectric constant: 78.4, screening length: 8.12261 Bohr) occupying 0.491681 of unit cell:	Completed after 6 iterations at t[s]:   1966.23
	Linear fluid (dielectric constant: 78.4, screening length: 8.12261 Bohr) occupying 0.491683 of unit cell:	Completed after 6 iterations at t[s]:   1972.84
	FillingsUpdate:  mu: -0.153469834  nElectrons: 228.000000  magneticMoment: [ Abs: 0.00000  Tot: -0.00000 ]
	SubspaceRotationAdjust: set factor to 0.721
ElecMinimize: Iter:   9  F: -2422.177696939583711  |grad|_K:  3.225e-08  alpha:  1.259e-01  linmin:  3.748e-05  t[s]:   1981.72
	Linear fluid (dielectric constant: 78.4, screening length: 8.12261 Bohr) occupying 0.491682 of unit cell:	Completed after 2 iterations at t[s]:   1989.78
	Linear fluid (dielectric constant: 78.4, screening length: 8.12261 Bohr) occupying 0.491682 of unit cell:	Completed after 2 iterations at t[s]:   1996.11
	FillingsUpdate:  mu: -0.153500147  nElectrons: 228.000000  magneticMoment: [ Abs: 0.00000  Tot: -0.00000 ]
	SubspaceRotationAdjust: set factor to 0.729
ElecMinimize: Iter:  10  F: -2422.177696972556987  |grad|_K:  2.369e-08  alpha:  1.625e-01  linmin: -2.975e-04  t[s]:   2005.98
ElecMinimize: Converged (|Delta F|<1.000000e-07 for 2 iters).
Setting wave functions to eigenvectors of Hamiltonian
Converging empty states (this may take a while): |deigs|: 1.263e-07

Computing DFT-D3 correction:
# coordination-number Cu 5.344 6.833 9.123 9.147 9.142 7.619 7.619 9.143 9.147 9.123 6.833 5.345
# diagonal-C6 Cu 175.00 175.00 175.00 175.00 175.00 175.00 175.00 175.00 175.00 175.00 175.00 175.00
EvdW_6 =   -0.063957
EvdW_8 =   -0.098707
IonicMinimize: 	Wolfe criterion not satisfied: alpha: 1  (E-E0)/|gdotd0|: -0.956814  gdotd/gdotd0: 0.91552 (taking cubic step)

Computing DFT-D3 correction:
# coordination-number Cu 5.373 6.832 9.123 9.136 9.132 7.610 7.611 9.132 9.135 9.122 6.831 5.374
# diagonal-C6 Cu 175.00 175.00 175.00 175.00 175.00 175.00 175.00 175.00 175.00 175.00 175.00 175.00
EvdW_6 =   -0.063954
EvdW_8 =   -0.098700

-------- Electronic minimization -----------
	Linear fluid (dielectric constant: 78.4, screening length: 8.12261 Bohr) occupying 0.491958 of unit cell:	Completed after 14 iterations at t[s]:   2041.28
	FillingsUpdate:  mu: -0.153258659  nElectrons: 228.000000  magneticMoment: [ Abs: 0.00000  Tot: -0.00000 ]
ElecMinimize: Iter:   0  F: -2422.177794368773903  |grad|_K:  1.553e-06  alpha:  1.000e+00
	Linear fluid (dielectric constant: 78.4, screening length: 8.12261 Bohr) occupying 0.491862 of unit cell:	Completed after 18 iterations at t[s]:   2060.23
	Linear fluid (dielectric constant: 78.4, screening length: 8.12261 Bohr) occupying 0.491944 of unit cell:	Completed after 16 iterations at t[s]:   2067.20
	FillingsUpdate:  mu: -0.153535617  nElectrons: 228.000000  magneticMoment: [ Abs: 0.00000  Tot: -0.00000 ]
	SubspaceRotationAdjust: set factor to 0.897
ElecMinimize: Iter:   1  F: -2422.177862321825160  |grad|_K:  1.307e-06  alpha:  1.445e-01  linmin: -9.375e-06  t[s]:   2076.07
	Linear fluid (dielectric constant: 78.4, screening length: 8.12261 Bohr) occupying 0.491931 of unit cell:	Completed after 10 iterations at t[s]:   2084.42
	Linear fluid (dielectric constant: 78.4, screening length: 8.12261 Bohr) occupying 0.491918 of unit cell:	Completed after 9 iterations at t[s]:   2091.03
	FillingsUpdate:  mu: -0.154092433  nElectrons: 228.000000  magneticMoment: [ Abs: 0.00000  Tot: -0.00000 ]
	SubspaceRotationAdjust: set factor to 1.03
ElecMinimize: Iter:   2  F: -2422.177956002953579  |grad|_K:  1.165e-06  alpha:  2.812e-01  linmin: -4.915e-07  t[s]:   2099.99
	Linear fluid (dielectric constant: 78.4, screening length: 8.12261 Bohr) occupying 0.491953 of unit cell:	Completed after 15 iterations at t[s]:   2108.62
	Linear fluid (dielectric constant: 78.4, screening length: 8.12261 Bohr) occupying 0.491935 of unit cell:	Completed after 13 iterations at t[s]:   2115.49
	FillingsUpdate:  mu: -0.153340553  nElectrons: 228.000000  magneticMoment: [ Abs: 0.00000  Tot: -0.00000 ]
	SubspaceRotationAdjust: set factor to 1.08
ElecMinimize: Iter:   3  F: -2422.177992240897311  |grad|_K:  8.423e-07  alpha:  1.370e-01  linmin: -2.308e-07  t[s]:   2124.42
	Linear fluid (dielectric constant: 78.4, screening length: 8.12261 Bohr) occupying 0.491932 of unit cell:	Completed after 11 iterations at t[s]:   2132.89
	Linear fluid (dielectric constant: 78.4, screening length: 8.12261 Bohr) occupying 0.491931 of unit cell:	Completed after 6 iterations at t[s]:   2139.41
	FillingsUpdate:  mu: -0.153719790  nElectrons: 228.000000  magneticMoment: [ Abs: 0.00000  Tot: +0.00000 ]
	SubspaceRotationAdjust: set factor to 1.19
ElecMinimize: Iter:   4  F: -2422.178013558004295  |grad|_K:  4.694e-07  alpha:  1.543e-01  linmin:  2.350e-08  t[s]:   2148.22
	Linear fluid (dielectric constant: 78.4, screening length: 8.12261 Bohr) occupying 0.491946 of unit cell:	Completed after 13 iterations at t[s]:   2156.80
	Linear fluid (dielectric constant: 78.4, screening length: 8.12261 Bohr) occupying 0.491950 of unit cell:	Completed after 8 iterations at t[s]:   2163.44
	FillingsUpdate:  mu: -0.153221693  nElectrons: 228.000000  magneticMoment: [ Abs: 0.00000  Tot: +0.00000 ]
	SubspaceRotationAdjust: set factor to 1.09
ElecMinimize: Iter:   5  F: -2422.178021679839276  |grad|_K:  5.138e-07  alpha:  1.893e-01  linmin:  1.156e-06  t[s]:   2172.35
	Linear fluid (dielectric constant: 78.4, screening length: 8.12261 Bohr) occupying 0.491945 of unit cell:	Completed after 16 iterations at t[s]:   2180.94
	Linear fluid (dielectric constant: 78.4, screening length: 8.12261 Bohr) occupying 0.491947 of unit cell:	Completed after 10 iterations at t[s]:   2187.81
	FillingsUpdate:  mu: -0.153616991  nElectrons: 228.000000  magneticMoment: [ Abs: 0.00000  Tot: +0.00000 ]
	SubspaceRotationAdjust: set factor to 0.677
ElecMinimize: Iter:   6  F: -2422.178027412489428  |grad|_K:  2.893e-07  alpha:  1.115e-01  linmin:  3.442e-07  t[s]:   2196.75
	Linear fluid (dielectric constant: 78.4, screening length: 8.12261 Bohr) occupying 0.491952 of unit cell:	Completed after 10 iterations at t[s]:   2205.17
	Linear fluid (dielectric constant: 78.4, screening length: 8.12261 Bohr) occupying 0.491951 of unit cell:	Completed after 6 iterations at t[s]:   2211.75
	FillingsUpdate:  mu: -0.153510701  nElectrons: 228.000000  magneticMoment: [ Abs: 0.00000  Tot: +0.00000 ]
	SubspaceRotationAdjust: set factor to 0.531
ElecMinimize: Iter:   7  F: -2422.178028901953439  |grad|_K:  1.203e-07  alpha:  9.137e-02  linmin:  9.227e-06  t[s]:   2220.56
	Linear fluid (dielectric constant: 78.4, screening length: 8.12261 Bohr) occupying 0.491953 of unit cell:	Completed after 6 iterations at t[s]:   2228.83
	Linear fluid (dielectric constant: 78.4, screening length: 8.12261 Bohr) occupying 0.491954 of unit cell:	Completed after 7 iterations at t[s]:   2235.36
	FillingsUpdate:  mu: -0.153364649  nElectrons: 228.000000  magneticMoment: [ Abs: 0.00000  Tot: +0.00000 ]
	SubspaceRotationAdjust: set factor to 0.494
ElecMinimize: Iter:   8  F: -2422.178029430242987  |grad|_K:  1.242e-07  alpha:  1.869e-01  linmin: -7.419e-05  t[s]:   2244.31
	Linear fluid (dielectric constant: 78.4, screening length: 8.12261 Bohr) occupying 0.491951 of unit cell:	Completed after 7 iterations at t[s]:   2252.55
	Linear fluid (dielectric constant: 78.4, screening length: 8.12261 Bohr) occupying 0.491951 of unit cell:	Completed after 2 iterations at t[s]:   2258.93
	FillingsUpdate:  mu: -0.153437455  nElectrons: 228.000000  magneticMoment: [ Abs: 0.00000  Tot: +0.00000 ]
	SubspaceRotationAdjust: set factor to 0.619
ElecMinimize: Iter:   9  F: -2422.178029943198908  |grad|_K:  6.957e-08  alpha:  1.698e-01  linmin:  1.831e-05  t[s]:   2267.67
	Linear fluid (dielectric constant: 78.4, screening length: 8.12261 Bohr) occupying 0.491948 of unit cell:	Completed after 8 iterations at t[s]:   2276.10
	Linear fluid (dielectric constant: 78.4, screening length: 8.12261 Bohr) occupying 0.491948 of unit cell:	Completed after 0 iterations at t[s]:   2282.36
	FillingsUpdate:  mu: -0.153542611  nElectrons: 228.000000  magneticMoment: [ Abs: 0.00000  Tot: +0.00000 ]
	SubspaceRotationAdjust: set factor to 0.628
ElecMinimize: Iter:  10  F: -2422.178030103549645  |grad|_K:  5.461e-08  alpha:  1.704e-01  linmin: -1.807e-05  t[s]:   2291.28
	Linear fluid (dielectric constant: 78.4, screening length: 8.12261 Bohr) occupying 0.491947 of unit cell:	Completed after 2 iterations at t[s]:   2300.04
	Linear fluid (dielectric constant: 78.4, screening length: 8.12261 Bohr) occupying 0.491947 of unit cell:	Completed after 0 iterations at t[s]:   2306.72
	FillingsUpdate:  mu: -0.153549782  nElectrons: 228.000000  magneticMoment: [ Abs: 0.00000  Tot: +0.00000 ]
	SubspaceRotationAdjust: set factor to 0.7
ElecMinimize: Iter:  11  F: -2422.178030201314868  |grad|_K:  4.759e-08  alpha:  1.679e-01  linmin:  9.502e-05  t[s]:   2315.47
	Linear fluid (dielectric constant: 78.4, screening length: 8.12261 Bohr) occupying 0.491949 of unit cell:	Completed after 2 iterations at t[s]:   2323.49
	Linear fluid (dielectric constant: 78.4, screening length: 8.12261 Bohr) occupying 0.491950 of unit cell:	Completed after 2 iterations at t[s]:   2329.90
	FillingsUpdate:  mu: -0.153534920  nElectrons: 228.000000  magneticMoment: [ Abs: 0.00000  Tot: +0.00000 ]
	SubspaceRotationAdjust: set factor to 0.768
ElecMinimize: Iter:  12  F: -2422.178030296471206  |grad|_K:  4.405e-08  alpha:  2.174e-01  linmin: -3.996e-05  t[s]:   2338.87
ElecMinimize: Converged (|Delta F|<1.000000e-07 for 2 iters).
Setting wave functions to eigenvectors of Hamiltonian
Converging empty states (this may take a while): |deigs|: 1.562e-07

Computing DFT-D3 correction:
# coordination-number Cu 5.373 6.832 9.123 9.136 9.132 7.610 7.611 9.132 9.135 9.122 6.831 5.374
# diagonal-C6 Cu 175.00 175.00 175.00 175.00 175.00 175.00 175.00 175.00 175.00 175.00 175.00 175.00
EvdW_6 =   -0.063954
EvdW_8 =   -0.098700

# Ionic positions in cartesian coordinates:
ion Cu  -0.000003284567931   0.003029891239621  15.807697557459175 1
ion Cu  -0.000006608374882   3.888237948382043   2.056410948716681 1
ion Cu  -0.000003382540896   7.791839417053907   4.809627826814383 1
ion Cu  -0.000011088913711   0.000283986367838   7.575593066769321 1
ion Cu  -0.000000260347655   3.895116372647083  10.313406663786706 1
ion Cu   0.000020191258077   7.777759795005603  13.088892597511354 1
ion Cu   2.383315217157211   0.006089369021011   3.423488113934832 1
ion Cu   2.383309322931162   3.888753624420705   6.198474067397079 1
ion Cu   2.383313463210007   7.783614993092468   8.936154219994890 1
ion Cu   2.383292872404489  -0.007976622015264  11.702072697149255 1
ion Cu   2.383306205458458   3.895599762692025  14.455659477811388 1
ion Cu   2.383333352325669   7.780835462092957   0.704929762654938 1

# Forces in Cartesian coordinates:
force Cu   0.000003063690760   0.000980447586739  -0.004452526726833 1
force Cu  -0.000000502301395  -0.000920427093892  -0.001985964523105 1
force Cu  -0.000001158788819   0.002101152214996  -0.001392306577588 1
force Cu  -0.000000835302643  -0.000004520432654   0.001681401554633 1
force Cu   0.000002798660626   0.000715541541554  -0.000924217967052 1
force Cu   0.000003156018885  -0.001893512985625   0.004392762562868 1
force Cu   0.000005150117998   0.001916573680771  -0.004329974784659 1
force Cu  -0.000000080252016  -0.000694797271249   0.000971440488379 1
force Cu   0.000003735888395  -0.000001577634941  -0.001613102145426 1
force Cu  -0.000004346794516  -0.002113451424587   0.001345569372276 1
force Cu  -0.000000861131657   0.000893635379467   0.001892176098385 1
force Cu   0.000006957460502  -0.000981506017724   0.004454131177601 1

# Energy components:
   A_diel =       -0.0006755098974412
   Eewald =     9375.9614779510557128
       EH =    11592.9853147681023984
     Eloc =   -23845.8691617207550735
      Enl =      439.4735797278556220
     EvdW =       -0.1626537435203947
      Exc =     -232.8313565245775294
 Exc_core =        0.5635932323964918
       KE =      247.7021836703117685
-------------------------------------
     Etot =    -2422.1776981490261278
       TS =        0.0003321474452683
-------------------------------------
        F =    -2422.1780302964712064


Dumping 'jdft.fillings' ... done
Dumping 'jdft.wfns' ... done
Dumping 'jdft.fluidState' ... done
Dumping 'jdft.ionpos' ... done
Dumping 'jdft.lattice' ... done
Dumping 'jdft.eigenvals' ... done
Dumping 'jdft.eigStats' ... 
	eMin: -4.294425 at state 60 ( [ +0.000000 +0.000000 +0.000000 ] spin -1 )
	HOMO: -0.154030 at state 100 ( [ -0.333333 +0.000000 +0.000000 ] spin -1 )
	mu  : -0.153535
	LUMO: -0.152105 at state 2 ( [ +0.000000 +0.400000 +0.000000 ] spin 1 )
	eMax: +0.214828 at state 34 ( [ +0.500000 -0.200000 +0.000000 ] spin 1 )
	HOMO-LUMO gap: +0.001924
	Optical gap  : +0.002937 at state 100 ( [ -0.333333 +0.000000 +0.000000 ] spin -1 )
Dumping 'jdft.Ecomponents' ... done
IonicMinimize: Iter:   1  F: -2422.178030296471206  |grad|_K:  1.802e-03  alpha:  3.000e+00  linmin: -9.920e-01  t[s]:   2364.74

#--- Lowdin population analysis ---
# oxidation-state Cu +0.191 +0.091 +0.040 +0.069 +0.065 +0.062 +0.062 +0.065 +0.070 +0.040 +0.091 +0.191
# magnetic-moments Cu -0.000 -0.000 -0.000 -0.000 -0.000 +0.000 +0.000 +0.000 +0.000 +0.000 +0.000 +0.000


Computing DFT-D3 correction:
# coordination-number Cu 5.543 6.878 9.102 9.043 9.040 7.569 7.557 9.028 9.048 9.118 6.891 5.535
# diagonal-C6 Cu 175.00 175.00 175.00 175.00 175.00 175.00 175.00 175.00 175.00 175.00 175.00 175.00
EvdW_6 =   -0.063924
EvdW_8 =   -0.098636

-------- Electronic minimization -----------
	Linear fluid (dielectric constant: 78.4, screening length: 8.12261 Bohr) occupying 0.492138 of unit cell:	Completed after 23 iterations at t[s]:   2373.74
	FillingsUpdate:  mu: -0.120220528  nElectrons: 228.000000  magneticMoment: [ Abs: 0.00002  Tot: +0.00000 ]
ElecMinimize: Iter:   0  F: -2421.275863497691716  |grad|_K:  1.248e-04  alpha:  1.000e+00
	Linear fluid (dielectric constant: 78.4, screening length: 8.12261 Bohr) occupying 0.486704 of unit cell:	Completed after 25 iterations at t[s]:   2393.21
	Linear fluid (dielectric constant: 78.4, screening length: 8.12261 Bohr) occupying 0.491763 of unit cell:	Completed after 25 iterations at t[s]:   2400.60
	FillingsUpdate:  mu: -0.149460992  nElectrons: 228.000000  magneticMoment: [ Abs: 0.00007  Tot: +0.00000 ]
	SubspaceRotationAdjust: set factor to 0.734
ElecMinimize: Iter:   1  F: -2421.670292294167666  |grad|_K:  1.156e-04  alpha:  1.559e-01  linmin:  1.552e-03  t[s]:   2409.44
	Linear fluid (dielectric constant: 78.4, screening length: 8.12261 Bohr) occupying 0.495347 of unit cell:	Completed after 21 iterations at t[s]:   2418.31
	Linear fluid (dielectric constant: 78.4, screening length: 8.12261 Bohr) occupying 0.495717 of unit cell:	Completed after 18 iterations at t[s]:   2425.39
	FillingsUpdate:  mu: -0.181708456  nElectrons: 228.000000  magneticMoment: [ Abs: 0.00006  Tot: +0.00000 ]
	SubspaceRotationAdjust: set factor to 0.76
ElecMinimize: Iter:   2  F: -2422.047079898923130  |grad|_K:  6.351e-05  alpha:  1.718e-01  linmin:  1.322e-04  t[s]:   2434.22
	Linear fluid (dielectric constant: 78.4, screening length: 8.12261 Bohr) occupying 0.498417 of unit cell:	Completed after 17 iterations at t[s]:   2442.95
	Linear fluid (dielectric constant: 78.4, screening length: 8.12261 Bohr) occupying 0.497186 of unit cell:	Completed after 16 iterations at t[s]:   2449.88
	FillingsUpdate:  mu: -0.154651069  nElectrons: 228.000000  magneticMoment: [ Abs: 0.00004  Tot: +0.00000 ]
	SubspaceRotationAdjust: set factor to 0.973
ElecMinimize: Iter:   3  F: -2422.118712483122636  |grad|_K:  2.875e-05  alpha:  9.265e-02  linmin:  1.446e-05  t[s]:   2458.82
	Linear fluid (dielectric constant: 78.4, screening length: 8.12261 Bohr) occupying 0.497337 of unit cell:	Completed after 18 iterations at t[s]:   2467.56
	Linear fluid (dielectric constant: 78.4, screening length: 8.12261 Bohr) occupying 0.497473 of unit cell:	Completed after 18 iterations at t[s]:   2474.62
	FillingsUpdate:  mu: -0.115042681  nElectrons: 228.000000  magneticMoment: [ Abs: 0.00005  Tot: +0.00000 ]
	SubspaceRotationAdjust: set factor to 1.06
ElecMinimize: Iter:   4  F: -2422.149105489379963  |grad|_K:  2.467e-05  alpha:  1.882e-01  linmin: -3.828e-05  t[s]:   2483.51
	Linear fluid (dielectric constant: 78.4, screening length: 8.12261 Bohr) occupying 0.494779 of unit cell:	Completed after 20 iterations at t[s]:   2492.38
	Linear fluid (dielectric constant: 78.4, screening length: 8.12261 Bohr) occupying 0.495661 of unit cell:	Completed after 19 iterations at t[s]:   2499.42
	FillingsUpdate:  mu: -0.140392054  nElectrons: 228.000000  magneticMoment: [ Abs: 0.00004  Tot: +0.00000 ]
	SubspaceRotationAdjust: set factor to 1.37
ElecMinimize: Iter:   5  F: -2422.164657907821038  |grad|_K:  1.655e-05  alpha:  1.292e-01  linmin:  1.076e-06  t[s]:   2508.24
	Linear fluid (dielectric constant: 78.4, screening length: 8.12261 Bohr) occupying 0.493975 of unit cell:	Completed after 18 iterations at t[s]:   2517.10
	Linear fluid (dielectric constant: 78.4, screening length: 8.12261 Bohr) occupying 0.493947 of unit cell:	Completed after 10 iterations at t[s]:   2523.78
	FillingsUpdate:  mu: -0.174392495  nElectrons: 228.000000  magneticMoment: [ Abs: 0.00002  Tot: +0.00000 ]
	SubspaceRotationAdjust: set factor to 1.06
ElecMinimize: Iter:   6  F: -2422.171653742987928  |grad|_K:  1.315e-05  alpha:  1.312e-01  linmin:  1.372e-05  t[s]:   2532.68
	Linear fluid (dielectric constant: 78.4, screening length: 8.12261 Bohr) occupying 0.494230 of unit cell:	Completed after 18 iterations at t[s]:   2541.53
	Linear fluid (dielectric constant: 78.4, screening length: 8.12261 Bohr) occupying 0.494190 of unit cell:	Completed after 13 iterations at t[s]:   2548.52
	FillingsUpdate:  mu: -0.149220979  nElectrons: 228.000000  magneticMoment: [ Abs: 0.00001  Tot: +0.00000 ]
	SubspaceRotationAdjust: set factor to 1.05
ElecMinimize: Iter:   7  F: -2422.175331696974354  |grad|_K:  8.347e-06  alpha:  1.096e-01  linmin:  2.724e-07  t[s]:   2557.25
	Linear fluid (dielectric constant: 78.4, screening length: 8.12261 Bohr) occupying 0.494027 of unit cell:	Completed after 13 iterations at t[s]:   2565.78
	Linear fluid (dielectric constant: 78.4, screening length: 8.12261 Bohr) occupying 0.493997 of unit cell:	Completed after 11 iterations at t[s]:   2572.58
	FillingsUpdate:  mu: -0.147829515  nElectrons: 228.000000  magneticMoment: [ Abs: 0.00001  Tot: +0.00000 ]
	SubspaceRotationAdjust: set factor to 1.22
ElecMinimize: Iter:   8  F: -2422.177075330879234  |grad|_K:  6.142e-06  alpha:  1.286e-01  linmin:  6.720e-06  t[s]:   2581.52
	Linear fluid (dielectric constant: 78.4, screening length: 8.12261 Bohr) occupying 0.493529 of unit cell:	Completed after 14 iterations at t[s]:   2590.09
	Linear fluid (dielectric constant: 78.4, screening length: 8.12261 Bohr) occupying 0.493359 of unit cell:	Completed after 12 iterations at t[s]:   2596.80
	FillingsUpdate:  mu: -0.157746181  nElectrons: 228.000000  magneticMoment: [ Abs: 0.00001  Tot: +0.00000 ]
	SubspaceRotationAdjust: set factor to 1.11
ElecMinimize: Iter:   9  F: -2422.178347973623204  |grad|_K:  4.205e-06  alpha:  1.738e-01  linmin:  4.562e-06  t[s]:   2606.51
	Linear fluid (dielectric constant: 78.4, screening length: 8.12261 Bohr) occupying 0.493398 of unit cell:	Completed after 18 iterations at t[s]:   2615.23
	Linear fluid (dielectric constant: 78.4, screening length: 8.12261 Bohr) occupying 0.493381 of unit cell:	Completed after 16 iterations at t[s]:   2622.09
	FillingsUpdate:  mu: -0.153585702  nElectrons: 228.000000  magneticMoment: [ Abs: 0.00001  Tot: +0.00000 ]
	SubspaceRotationAdjust: set factor to 1.11
ElecMinimize: Iter:  10  F: -2422.178669783771056  |grad|_K:  2.469e-06  alpha:  9.362e-02  linmin:  1.274e-08  t[s]:   2630.98
	Linear fluid (dielectric constant: 78.4, screening length: 8.12261 Bohr) occupying 0.493375 of unit cell:	Completed after 11 iterations at t[s]:   2639.51
	Linear fluid (dielectric constant: 78.4, screening length: 8.12261 Bohr) occupying 0.493372 of unit cell:	Completed after 11 iterations at t[s]:   2646.19
	FillingsUpdate:  mu: -0.154186923  nElectrons: 228.000000  magneticMoment: [ Abs: 0.00001  Tot: +0.00000 ]
	SubspaceRotationAdjust: set factor to 1.07
ElecMinimize: Iter:  11  F: -2422.178848212632602  |grad|_K:  2.034e-06  alpha:  1.503e-01  linmin: -3.457e-06  t[s]:   2655.03
	Linear fluid (dielectric constant: 78.4, screening length: 8.12261 Bohr) occupying 0.493386 of unit cell:	Completed after 13 iterations at t[s]:   2663.68
	Linear fluid (dielectric constant: 78.4, screening length: 8.12261 Bohr) occupying 0.493382 of unit cell:	Completed after 9 iterations at t[s]:   2670.42
	FillingsUpdate:  mu: -0.154127201  nElectrons: 228.000000  magneticMoment: [ Abs: 0.00001  Tot: +0.00000 ]
	SubspaceRotationAdjust: set factor to 1.02
ElecMinimize: Iter:  12  F: -2422.178934587438107  |grad|_K:  1.034e-06  alpha:  1.071e-01  linmin:  4.430e-07  t[s]:   2679.25
	Linear fluid (dielectric constant: 78.4, screening length: 8.12261 Bohr) occupying 0.493404 of unit cell:	Completed after 11 iterations at t[s]:   2687.65
	Linear fluid (dielectric constant: 78.4, screening length: 8.12261 Bohr) occupying 0.493414 of unit cell:	Completed after 9 iterations at t[s]:   2694.39
	FillingsUpdate:  mu: -0.154516382  nElectrons: 228.000000  magneticMoment: [ Abs: 0.00001  Tot: +0.00000 ]
	SubspaceRotationAdjust: set factor to 1.14
ElecMinimize: Iter:  13  F: -2422.178966146014318  |grad|_K:  8.951e-07  alpha:  1.516e-01  linmin:  1.240e-06  t[s]:   2703.32
	Linear fluid (dielectric constant: 78.4, screening length: 8.12261 Bohr) occupying 0.493487 of unit cell:	Completed after 12 iterations at t[s]:   2711.74
	Linear fluid (dielectric constant: 78.4, screening length: 8.12261 Bohr) occupying 0.493489 of unit cell:	Completed after 2 iterations at t[s]:   2718.04
	FillingsUpdate:  mu: -0.154989678  nElectrons: 228.000000  magneticMoment: [ Abs: 0.00001  Tot: +0.00000 ]
	SubspaceRotationAdjust: set factor to 1.12
ElecMinimize: Iter:  14  F: -2422.178990570812857  |grad|_K:  7.467e-07  alpha:  1.565e-01  linmin: -4.291e-07  t[s]:   2726.97
	Linear fluid (dielectric constant: 78.4, screening length: 8.12261 Bohr) occupying 0.493623 of unit cell:	Completed after 15 iterations at t[s]:   2735.56
	Linear fluid (dielectric constant: 78.4, screening length: 8.12261 Bohr) occupying 0.493576 of unit cell:	Completed after 11 iterations at t[s]:   2742.35
	FillingsUpdate:  mu: -0.153737318  nElectrons: 228.000000  magneticMoment: [ Abs: 0.00000  Tot: +0.00000 ]
	SubspaceRotationAdjust: set factor to 0.938
ElecMinimize: Iter:  15  F: -2422.179001602780318  |grad|_K:  4.622e-07  alpha:  1.015e-01  linmin:  2.139e-06  t[s]:   2751.18
	Linear fluid (dielectric constant: 78.4, screening length: 8.12261 Bohr) occupying 0.493600 of unit cell:	Completed after 6 iterations at t[s]:   2759.55
	Linear fluid (dielectric constant: 78.4, screening length: 8.12261 Bohr) occupying 0.493627 of unit cell:	Completed after 8 iterations at t[s]:   2766.16
	FillingsUpdate:  mu: -0.153698450  nElectrons: 228.000000  magneticMoment: [ Abs: 0.00000  Tot: +0.00000 ]
	SubspaceRotationAdjust: set factor to 1.06
ElecMinimize: Iter:  16  F: -2422.179010723655665  |grad|_K:  4.336e-07  alpha:  2.194e-01  linmin:  3.175e-06  t[s]:   2775.03
	Linear fluid (dielectric constant: 78.4, screening length: 8.12261 Bohr) occupying 0.493647 of unit cell:	Completed after 11 iterations at t[s]:   2783.52
	Linear fluid (dielectric constant: 78.4, screening length: 8.12261 Bohr) occupying 0.493639 of unit cell:	Completed after 10 iterations at t[s]:   2790.32
	FillingsUpdate:  mu: -0.154143809  nElectrons: 228.000000  magneticMoment: [ Abs: 0.00000  Tot: +0.00000 ]
	SubspaceRotationAdjust: set factor to 0.969
ElecMinimize: Iter:  17  F: -2422.179015677252664  |grad|_K:  3.096e-07  alpha:  1.353e-01  linmin:  1.085e-06  t[s]:   2799.28
	Linear fluid (dielectric constant: 78.4, screening length: 8.12261 Bohr) occupying 0.493653 of unit cell:	Completed after 10 iterations at t[s]:   2807.73
	Linear fluid (dielectric constant: 78.4, screening length: 8.12261 Bohr) occupying 0.493655 of unit cell:	Completed after 2 iterations at t[s]:   2814.07
	FillingsUpdate:  mu: -0.153900635  nElectrons: 228.000000  magneticMoment: [ Abs: 0.00000  Tot: +0.00000 ]
	SubspaceRotationAdjust: set factor to 0.881
ElecMinimize: Iter:  18  F: -2422.179018542327867  |grad|_K:  2.665e-07  alpha:  1.535e-01  linmin: -4.479e-06  t[s]:   2823.01
	Linear fluid (dielectric constant: 78.4, screening length: 8.12261 Bohr) occupying 0.493660 of unit cell:	Completed after 6 iterations at t[s]:   2831.31
	Linear fluid (dielectric constant: 78.4, screening length: 8.12261 Bohr) occupying 0.493659 of unit cell:	Completed after 1 iterations at t[s]:   2837.61
	FillingsUpdate:  mu: -0.153951600  nElectrons: 228.000000  magneticMoment: [ Abs: 0.00000  Tot: +0.00000 ]
	SubspaceRotationAdjust: set factor to 0.933
ElecMinimize: Iter:  19  F: -2422.179020428866806  |grad|_K:  1.603e-07  alpha:  1.362e-01  linmin: -5.145e-07  t[s]:   2846.42
	Linear fluid (dielectric constant: 78.4, screening length: 8.12261 Bohr) occupying 0.493658 of unit cell:	Completed after 5 iterations at t[s]:   2854.62
	Linear fluid (dielectric constant: 78.4, screening length: 8.12261 Bohr) occupying 0.493658 of unit cell:	Completed after 2 iterations at t[s]:   2860.97
	FillingsUpdate:  mu: -0.153984915  nElectrons: 228.000000  magneticMoment: [ Abs: 0.00000  Tot: +0.00000 ]
	SubspaceRotationAdjust: set factor to 0.946
ElecMinimize: Iter:  20  F: -2422.179021286798616  |grad|_K:  1.444e-07  alpha:  1.714e-01  linmin:  3.222e-07  t[s]:   2869.83
[...]
	SubspaceRotationAdjust: set factor to 1.04
ElecMinimize: Iter:   3  F: -2422.179121514401231  |grad|_K:  5.774e-07  alpha:  1.262e-01  linmin:  2.275e-07  t[s]:   3719.17
	Linear fluid (dielectric constant: 78.4, screening length: 8.12261 Bohr) occupying 0.493884 of unit cell:	Completed after 11 iterations at t[s]:   3727.61
	Linear fluid (dielectric constant: 78.4, screening length: 8.12261 Bohr) occupying 0.493883 of unit cell:	Completed after 2 iterations at t[s]:   3733.95
	FillingsUpdate:  mu: -0.154830681  nElectrons: 228.000000  magneticMoment: [ Abs: 0.00000  Tot: -0.00000 ]
	SubspaceRotationAdjust: set factor to 0.926
ElecMinimize: Iter:   4  F: -2422.179130286788222  |grad|_K:  2.982e-07  alpha:  1.351e-01  linmin: -9.119e-06  t[s]:   3742.97
	Linear fluid (dielectric constant: 78.4, screening length: 8.12261 Bohr) occupying 0.493894 of unit cell:	Completed after 10 iterations at t[s]:   3751.53
	Linear fluid (dielectric constant: 78.4, screening length: 8.12261 Bohr) occupying 0.493897 of unit cell:	Completed after 6 iterations at t[s]:   3758.06
	FillingsUpdate:  mu: -0.154334778  nElectrons: 228.000000  magneticMoment: [ Abs: 0.00000  Tot: -0.00000 ]
	SubspaceRotationAdjust: set factor to 0.788
ElecMinimize: Iter:   5  F: -2422.179133104429184  |grad|_K:  2.779e-07  alpha:  1.627e-01  linmin:  1.610e-05  t[s]:   3767.00
	Linear fluid (dielectric constant: 78.4, screening length: 8.12261 Bohr) occupying 0.493898 of unit cell:	Completed after 9 iterations at t[s]:   3775.50
	Linear fluid (dielectric constant: 78.4, screening length: 8.12261 Bohr) occupying 0.493898 of unit cell:	Completed after 2 iterations at t[s]:   3781.79
	FillingsUpdate:  mu: -0.154432277  nElectrons: 228.000000  magneticMoment: [ Abs: 0.00000  Tot: -0.00000 ]
	SubspaceRotationAdjust: set factor to 0.736
ElecMinimize: Iter:   6  F: -2422.179135722652973  |grad|_K:  1.709e-07  alpha:  1.746e-01  linmin:  2.435e-06  t[s]:   3790.72
	Linear fluid (dielectric constant: 78.4, screening length: 8.12261 Bohr) occupying 0.493894 of unit cell:	Completed after 9 iterations at t[s]:   3799.82
	Linear fluid (dielectric constant: 78.4, screening length: 8.12261 Bohr) occupying 0.493895 of unit cell:	Completed after 7 iterations at t[s]:   3807.13
	FillingsUpdate:  mu: -0.154539585  nElectrons: 228.000000  magneticMoment: [ Abs: 0.00000  Tot: -0.00000 ]
	SubspaceRotationAdjust: set factor to 0.638
ElecMinimize: Iter:   7  F: -2422.179136284419201  |grad|_K:  7.257e-08  alpha:  9.870e-02  linmin:  2.182e-05  t[s]:   3816.03
	Linear fluid (dielectric constant: 78.4, screening length: 8.12261 Bohr) occupying 0.493896 of unit cell:	Completed after 2 iterations at t[s]:   3824.09
	Linear fluid (dielectric constant: 78.4, screening length: 8.12261 Bohr) occupying 0.493897 of unit cell:	Completed after 2 iterations at t[s]:   3830.46
	FillingsUpdate:  mu: -0.154535572  nElectrons: 228.000000  magneticMoment: [ Abs: 0.00000  Tot: -0.00000 ]
	SubspaceRotationAdjust: set factor to 0.631
ElecMinimize: Iter:   8  F: -2422.179136521192959  |grad|_K:  8.148e-08  alpha:  2.286e-01  linmin: -2.362e-04  t[s]:   3839.35
	Linear fluid (dielectric constant: 78.4, screening length: 8.12261 Bohr) occupying 0.493900 of unit cell:	Completed after 3 iterations at t[s]:   3847.49
	Linear fluid (dielectric constant: 78.4, screening length: 8.12261 Bohr) occupying 0.493899 of unit cell:	Completed after 2 iterations at t[s]:   3853.80
	FillingsUpdate:  mu: -0.154555529  nElectrons: 228.000000  magneticMoment: [ Abs: 0.00000  Tot: -0.00000 ]
	SubspaceRotationAdjust: set factor to 0.639
ElecMinimize: Iter:   9  F: -2422.179136716470566  |grad|_K:  4.456e-08  alpha:  1.492e-01  linmin: -2.882e-05  t[s]:   3862.72
	Linear fluid (dielectric constant: 78.4, screening length: 8.12261 Bohr) occupying 0.493901 of unit cell:	Completed after 2 iterations at t[s]:   3870.96
	Linear fluid (dielectric constant: 78.4, screening length: 8.12261 Bohr) occupying 0.493902 of unit cell:	Completed after 2 iterations at t[s]:   3877.31
	FillingsUpdate:  mu: -0.154507948  nElectrons: 228.000000  magneticMoment: [ Abs: 0.00000  Tot: -0.00000 ]
	SubspaceRotationAdjust: set factor to 0.627
ElecMinimize: Iter:  10  F: -2422.179136791825385  |grad|_K:  3.959e-08  alpha:  1.959e-01  linmin:  9.567e-05  t[s]:   3886.18
	Linear fluid (dielectric constant: 78.4, screening length: 8.12261 Bohr) occupying 0.493903 of unit cell:	Completed after 2 iterations at t[s]:   3894.31
	Linear fluid (dielectric constant: 78.4, screening length: 8.12261 Bohr) occupying 0.493903 of unit cell:	Completed after 0 iterations at t[s]:   3900.53
	FillingsUpdate:  mu: -0.154501737  nElectrons: 228.000000  magneticMoment: [ Abs: 0.00000  Tot: -0.00000 ]
	SubspaceRotationAdjust: set factor to 0.692
ElecMinimize: Iter:  11  F: -2422.179136843406013  |grad|_K:  3.379e-08  alpha:  1.700e-01  linmin:  5.335e-04  t[s]:   3909.36
ElecMinimize: Converged (|Delta F|<1.000000e-07 for 2 iters).
Setting wave functions to eigenvectors of Hamiltonian
Converging empty states (this may take a while): |deigs|: 5.323e-08

Computing DFT-D3 correction:
# coordination-number Cu 5.566 6.860 9.102 9.045 9.010 7.540 7.546 9.014 9.042 9.097 6.858 5.567
# diagonal-C6 Cu 175.00 175.00 175.00 175.00 175.00 175.00 175.00 175.00 175.00 175.00 175.00 175.00
EvdW_6 =   -0.063922
EvdW_8 =   -0.098632

# Ionic positions in cartesian coordinates:
ion Cu  -0.000049659926477   0.031575129552743  15.715333110076463 1
ion Cu  -0.000005453641372   3.880760606477560   2.009092991510880 1
ion Cu   0.000043622520058   7.847554617342497   4.820229430112254 1
ion Cu   0.000002759375722   0.010071963428719   7.576467958527295 1
ion Cu   0.000048231317429   3.893768487445773  10.320129212825968 1
ion Cu  -0.000078471458246   7.731882217555370  13.183346917827462 1
ion Cu   2.383322319648370   0.051885170955960   3.330602212572565 1
ion Cu   2.383304756148951   3.890456440535806   6.190827896785803 1
ion Cu   2.383354147504732   7.773706259925840   8.934244730657541 1
ion Cu   2.383286414801316  -0.064138507601714  11.690727801932983 1
ion Cu   2.383310904248341   3.902738031542261  14.503661083546421 1
ion Cu   2.383326429461174   7.752923582839185   0.797743653624370 1

# Forces in Cartesian coordinates:
force Cu  -0.000001206400832  -0.000184550188113  -0.000129701631647 1
force Cu  -0.000000826062722   0.000158908836761   0.000191310762561 1
force Cu  -0.000002011098814  -0.000131243930348   0.000154137258474 1
force Cu   0.000000189664927   0.000025716818915  -0.000285387864111 1
force Cu  -0.000001248955841  -0.000199760456825   0.000210060034148 1
force Cu   0.000000084232283  -0.000093321076563  -0.000269057499405 1
force Cu  -0.000002468436781   0.000087408010779   0.000068250233443 1
force Cu   0.000000113078927   0.000181471785168  -0.000073655197659 1
force Cu   0.000000277448451  -0.000021690183082   0.000426576567472 1
force Cu  -0.000001411190302   0.000140111084714  -0.000150566088505 1
force Cu  -0.000001906942771  -0.000149398821097  -0.000329183884475 1
force Cu  -0.000000595147947   0.000145239464785  -0.000000101996650 1

# Energy components:
   A_diel =       -0.0007033087653333
   Eewald =     9368.0751926907578309
       EH =    11584.8919203875157109
     Eloc =   -23829.8810242300569371
      Enl =      439.4681643109976221
     EvdW =       -0.1625540966278559
      Exc =     -232.8313588438327315
 Exc_core =        0.5636154658161545
       KE =      247.6979450920015040
-------------------------------------
     Etot =    -2422.1788025321966416
       TS =        0.0003343112091972
-------------------------------------
        F =    -2422.1791368434060132


Dumping 'jdft.fillings' ... done
Dumping 'jdft.wfns' ... done
Dumping 'jdft.fluidState' ... done
Dumping 'jdft.ionpos' ... done
Dumping 'jdft.lattice' ... done
Dumping 'jdft.eigenvals' ... done
Dumping 'jdft.eigStats' ... 
	eMin: -4.295299 at state 0 ( [ +0.000000 +0.000000 +0.000000 ] spin 1 )
	HOMO: -0.154501 at state 80 ( [ +0.333333 +0.000000 +0.000000 ] spin -1 )
	mu  : -0.154502
	LUMO: -0.153121 at state 62 ( [ +0.000000 +0.400000 +0.000000 ] spin -1 )
	eMax: +0.214677 at state 34 ( [ +0.500000 -0.200000 +0.000000 ] spin 1 )
	HOMO-LUMO gap: +0.001380
	Optical gap  : +0.002866 at state 80 ( [ +0.333333 +0.000000 +0.000000 ] spin -1 )
Dumping 'jdft.Ecomponents' ... done
IonicMinimize: Iter:   4  F: -2422.179136843406013  |grad|_K:  1.514e-04  alpha:  1.000e+00  linmin: -6.103e-01  t[s]:   3931.93

#--- Lowdin population analysis ---
# oxidation-state Cu +0.185 +0.089 +0.039 +0.071 +0.069 +0.065 +0.065 +0.068 +0.071 +0.039 +0.089 +0.185
# magnetic-moments Cu -0.000 -0.000 +0.000 +0.000 +0.000 -0.000 +0.000 -0.000 -0.000 -0.000 +0.000 -0.000


Computing DFT-D3 correction:
# coordination-number Cu 5.564 6.865 9.103 9.045 9.019 7.549 7.549 9.019 9.045 9.103 6.865 5.565
# diagonal-C6 Cu 175.00 175.00 175.00 175.00 175.00 175.00 175.00 175.00 175.00 175.00 175.00 175.00
EvdW_6 =   -0.063927
EvdW_8 =   -0.098649

-------- Electronic minimization -----------
	Linear fluid (dielectric constant: 78.4, screening length: 8.12261 Bohr) occupying 0.493966 of unit cell:	Completed after 9 iterations at t[s]:   3941.41
	FillingsUpdate:  mu: -0.154795974  nElectrons: 228.000000  magneticMoment: [ Abs: 0.00000  Tot: -0.00000 ]
ElecMinimize: Iter:   0  F: -2422.179107841106998  |grad|_K:  6.175e-07  alpha:  1.000e+00
	Linear fluid (dielectric constant: 78.4, screening length: 8.12261 Bohr) occupying 0.494045 of unit cell:	Completed after 18 iterations at t[s]:   3960.65
	Linear fluid (dielectric constant: 78.4, screening length: 8.12261 Bohr) occupying 0.493977 of unit cell:	Completed after 18 iterations at t[s]:   3967.69
	FillingsUpdate:  mu: -0.154297786  nElectrons: 228.000000  magneticMoment: [ Abs: 0.00000  Tot: -0.00000 ]
	SubspaceRotationAdjust: set factor to 0.786
ElecMinimize: Iter:   1  F: -2422.179118635534451  |grad|_K:  5.059e-07  alpha:  1.453e-01  linmin: -3.550e-07  t[s]:   3976.62
	Linear fluid (dielectric constant: 78.4, screening length: 8.12261 Bohr) occupying 0.493974 of unit cell:	Completed after 7 iterations at t[s]:   3984.98
	Linear fluid (dielectric constant: 78.4, screening length: 8.12261 Bohr) occupying 0.493971 of unit cell:	Completed after 7 iterations at t[s]:   3991.52
	FillingsUpdate:  mu: -0.154338174  nElectrons: 228.000000  magneticMoment: [ Abs: 0.00000  Tot: -0.00000 ]
	SubspaceRotationAdjust: set factor to 0.878
ElecMinimize: Iter:   2  F: -2422.179131494063313  |grad|_K:  4.577e-07  alpha:  2.580e-01  linmin:  6.834e-07  t[s]:   4000.37
	Linear fluid (dielectric constant: 78.4, screening length: 8.12261 Bohr) occupying 0.493948 of unit cell:	Completed after 9 iterations at t[s]:   4008.70
	Linear fluid (dielectric constant: 78.4, screening length: 8.12261 Bohr) occupying 0.493959 of unit cell:	Completed after 9 iterations at t[s]:   4015.42
	FillingsUpdate:  mu: -0.154444669  nElectrons: 228.000000  magneticMoment: [ Abs: 0.00000  Tot: -0.00000 ]
	SubspaceRotationAdjust: set factor to 0.926
ElecMinimize: Iter:   3  F: -2422.179137255306614  |grad|_K:  3.394e-07  alpha:  1.412e-01  linmin:  8.255e-07  t[s]:   4024.21
	Linear fluid (dielectric constant: 78.4, screening length: 8.12261 Bohr) occupying 0.493947 of unit cell:	Completed after 10 iterations at t[s]:   4032.67
	Linear fluid (dielectric constant: 78.4, screening length: 8.12261 Bohr) occupying 0.493947 of unit cell:	Completed after 2 iterations at t[s]:   4038.95
	FillingsUpdate:  mu: -0.154658215  nElectrons: 228.000000  magneticMoment: [ Abs: 0.00000  Tot: -0.00000 ]
	SubspaceRotationAdjust: set factor to 0.88
ElecMinimize: Iter:   4  F: -2422.179140500892117  |grad|_K:  1.994e-07  alpha:  1.447e-01  linmin:  3.929e-06  t[s]:   4047.87
	Linear fluid (dielectric constant: 78.4, screening length: 8.12261 Bohr) occupying 0.493952 of unit cell:	Completed after 9 iterations at t[s]:   4056.20
	Linear fluid (dielectric constant: 78.4, screening length: 8.12261 Bohr) occupying 0.493952 of unit cell:	Completed after 6 iterations at t[s]:   4062.74
	FillingsUpdate:  mu: -0.154438575  nElectrons: 228.000000  magneticMoment: [ Abs: 0.00000  Tot: -0.00000 ]
	SubspaceRotationAdjust: set factor to 0.714
ElecMinimize: Iter:   5  F: -2422.179141830721619  |grad|_K:  1.889e-07  alpha:  1.719e-01  linmin:  1.220e-05  t[s]:   4071.62
	Linear fluid (dielectric constant: 78.4, screening length: 8.12261 Bohr) occupying 0.493953 of unit cell:	Completed after 9 iterations at t[s]:   4080.09
	Linear fluid (dielectric constant: 78.4, screening length: 8.12261 Bohr) occupying 0.493953 of unit cell:	Completed after 1 iterations at t[s]:   4086.39
	FillingsUpdate:  mu: -0.154384797  nElectrons: 228.000000  magneticMoment: [ Abs: 0.00000  Tot: -0.00000 ]
	SubspaceRotationAdjust: set factor to 0.626
ElecMinimize: Iter:   6  F: -2422.179142988502463  |grad|_K:  1.221e-07  alpha:  1.669e-01  linmin:  2.374e-05  t[s]:   4095.20
	Linear fluid (dielectric constant: 78.4, screening length: 8.12261 Bohr) occupying 0.493947 of unit cell:	Completed after 9 iterations at t[s]:   4104.52
	Linear fluid (dielectric constant: 78.4, screening length: 8.12261 Bohr) occupying 0.493949 of unit cell:	Completed after 6 iterations at t[s]:   4111.37
	FillingsUpdate:  mu: -0.154523997  nElectrons: 228.000000  magneticMoment: [ Abs: 0.00000  Tot: -0.00000 ]
	SubspaceRotationAdjust: set factor to 0.665
ElecMinimize: Iter:   7  F: -2422.179143284009569  |grad|_K:  4.853e-08  alpha:  1.023e-01  linmin:  2.656e-05  t[s]:   4120.24
	Linear fluid (dielectric constant: 78.4, screening length: 8.12261 Bohr) occupying 0.493949 of unit cell:	Completed after 2 iterations at t[s]:   4128.26
	Linear fluid (dielectric constant: 78.4, screening length: 8.12261 Bohr) occupying 0.493949 of unit cell:	Completed after 2 iterations at t[s]:   4134.61
	FillingsUpdate:  mu: -0.154564516  nElectrons: 228.000000  magneticMoment: [ Abs: 0.00000  Tot: -0.00000 ]
	SubspaceRotationAdjust: set factor to 0.652
ElecMinimize: Iter:   8  F: -2422.179143387237218  |grad|_K:  4.496e-08  alpha:  2.202e-01  linmin: -5.466e-04  t[s]:   4143.46
	Linear fluid (dielectric constant: 78.4, screening length: 8.12261 Bohr) occupying 0.493952 of unit cell:	Completed after 4 iterations at t[s]:   4151.60
	Linear fluid (dielectric constant: 78.4, screening length: 8.12261 Bohr) occupying 0.493951 of unit cell:	Completed after 2 iterations at t[s]:   4157.89
	FillingsUpdate:  mu: -0.154546576  nElectrons: 228.000000  magneticMoment: [ Abs: 0.00000  Tot: -0.00000 ]
	SubspaceRotationAdjust: set factor to 0.704
ElecMinimize: Iter:   9  F: -2422.179143455573922  |grad|_K:  2.989e-08  alpha:  1.683e-01  linmin:  7.201e-05  t[s]:   4166.75
	Linear fluid (dielectric constant: 78.4, screening length: 8.12261 Bohr) occupying 0.493954 of unit cell:	Completed after 6 iterations at t[s]:   4174.95
	Linear fluid (dielectric constant: 78.4, screening length: 8.12261 Bohr) occupying 0.493953 of unit cell:	Completed after 2 iterations at t[s]:   4181.32
	FillingsUpdate:  mu: -0.154499609  nElectrons: 228.000000  magneticMoment: [ Abs: 0.00000  Tot: -0.00000 ]
	SubspaceRotationAdjust: set factor to 0.547
ElecMinimize: Iter:  10  F: -2422.179143477048910  |grad|_K:  1.734e-08  alpha:  1.251e-01  linmin:  2.587e-04  t[s]:   4190.26
ElecMinimize: Converged (|Delta F|<1.000000e-07 for 2 iters).
Setting wave functions to eigenvectors of Hamiltonian
Converging empty states (this may take a while): |deigs|: 3.044e-08

Computing DFT-D3 correction:
# coordination-number Cu 5.564 6.865 9.103 9.045 9.019 7.549 7.549 9.019 9.045 9.103 6.865 5.565
# diagonal-C6 Cu 175.00 175.00 175.00 175.00 175.00 175.00 175.00 175.00 175.00 175.00 175.00 175.00
EvdW_6 =   -0.063927
EvdW_8 =   -0.098649

# Ionic positions in cartesian coordinates:
ion Cu  -0.000069981162235   0.029056697738024  15.714298890072589 1
ion Cu   0.000001365558744   3.882767842309522   2.011873659728246 1
ion Cu   0.000042426179766   7.846207770376830   4.822825850855561 1
ion Cu   0.000017490177471   0.010639729368013   7.572418268572487 1
ion Cu   0.000040915307659   3.891057380769805  10.322489072310242 1
ion Cu  -0.000059555222851   7.731160826892448  13.180668103468230 1
ion Cu   2.383287991703812   0.052654491156404   3.331301039051696 1
ion Cu   2.383323418469646   3.893048523670301   6.189946622835568 1
ion Cu   2.383359741571930   7.773308729225621   8.939662091675874 1
ion Cu   2.383289450919152  -0.062707359508009  11.688525760268726 1
ion Cu   2.383307462723201   3.900842494583143  14.500216872256123 1
ion Cu   2.383325273773703   7.755146873417897   0.798180768904661 1

# Forces in Cartesian coordinates:
force Cu  -0.000001131096434  -0.000179595880511  -0.000199279948874 1
force Cu  -0.000001593897002   0.000111618666473   0.000056962071022 1
force Cu  -0.000001879732542   0.000049915883435   0.000055831975312 1
force Cu  -0.000000691724948   0.000015846715488  -0.000153000192110 1
force Cu  -0.000001712062723  -0.000076982052140  -0.000133048724023 1
force Cu  -0.000000340975922  -0.000072641682851  -0.000008754538245 1
force Cu  -0.000001686320867   0.000059357533050  -0.000077512547890 1
force Cu  -0.000000238653618   0.000070005777399   0.000103660772560 1
force Cu  -0.000000422671380  -0.000027943533524   0.000068385738722 1
force Cu  -0.000000704065273  -0.000035710468941  -0.000087645765205 1
force Cu   0.000000227503341  -0.000108957892635  -0.000104438217234 1
force Cu  -0.000000760582115   0.000153170238147   0.000126264742659 1

# Energy components:
   A_diel =       -0.0007023309605320
   Eewald =     9370.7547997621131799
       EH =    11587.5639896712709742
     Eloc =   -23835.2328262054143124
      Enl =      439.4675790018742418
     EvdW =       -0.1625767367520580
      Exc =     -232.8318109424882891
 Exc_core =        0.5636151050357651
       KE =      247.6991248299957533
-------------------------------------
     Etot =    -2422.1788078453255366
       TS =        0.0003356317231545
-------------------------------------
        F =    -2422.1791434770489104


Dumping 'jdft.fillings' ... done
Dumping 'jdft.wfns' ... done
Dumping 'jdft.fluidState' ... done
Dumping 'jdft.ionpos' ... done
Dumping 'jdft.lattice' ... done
Dumping 'jdft.eigenvals' ... done
Dumping 'jdft.eigStats' ... 
	eMin: -4.295319 at state 60 ( [ +0.000000 +0.000000 +0.000000 ] spin -1 )
	HOMO: -0.154525 at state 20 ( [ +0.333333 +0.000000 +0.000000 ] spin 1 )
	mu  : -0.154500
	LUMO: -0.153097 at state 2 ( [ +0.000000 +0.400000 +0.000000 ] spin 1 )
	eMax: +0.214694 at state 94 ( [ +0.500000 -0.200000 +0.000000 ] spin -1 )
	HOMO-LUMO gap: +0.001428
	Optical gap  : +0.002841 at state 40 ( [ -0.333333 +0.000000 +0.000000 ] spin 1 )
Dumping 'jdft.Ecomponents' ... done
IonicMinimize: Iter:   5  F: -2422.179143477048910  |grad|_K:  8.117e-05  alpha:  1.000e+00  linmin: -5.774e-01  t[s]:   4212.72
IonicMinimize: Converged (|grad|_K<1.000000e-04).

#--- Lowdin population analysis ---
# oxidation-state Cu +0.185 +0.089 +0.039 +0.071 +0.068 +0.064 +0.065 +0.068 +0.071 +0.039 +0.089 +0.185
# magnetic-moments Cu +0.000 +0.000 +0.000 +0.000 +0.000 +0.000 -0.000 -0.000 -0.000 -0.000 -0.000 +0.000


Dumping 'jdft.n_up' ... done
Dumping 'jdft.n_dn' ... done
Dumping 'jdft.tau_up' ... done
Dumping 'jdft.tau_dn' ... done
Dumping 'jdft.eigenvals' ... done
Dumping 'jdft.eigStats' ... 
	eMin: -4.295319 at state 60 ( [ +0.000000 +0.000000 +0.000000 ] spin -1 )
	HOMO: -0.154525 at state 20 ( [ +0.333333 +0.000000 +0.000000 ] spin 1 )
	mu  : -0.154500
	LUMO: -0.153097 at state 2 ( [ +0.000000 +0.400000 +0.000000 ] spin 1 )
	eMax: +0.214694 at state 94 ( [ +0.500000 -0.200000 +0.000000 ] spin -1 )
	HOMO-LUMO gap: +0.001428
	Optical gap  : +0.002841 at state 40 ( [ -0.333333 +0.000000 +0.000000 ] spin 1 )
Dumping 'jdft.kPts' ... done
Dumping 'jdft.dosUp' ... done.
Dumping 'jdft.dosDn' ... done.
End date and time: Mon Dec  6 16:29:08 2021  (Duration: 0-1:10:29.39)
Done!
