
*************** JDFTx 1.7.0 (git hash 5f12716a) ***************

Start date and time: Fri Sep  9 08:27:23 2022
Executable /home/nisi6161/jdftx_alpine/build/jdftx with command-line: -i in
Running on hosts (process indices):  c3cpu-a2-u1-4.rc.int.colorado.edu (0-23)
Divided in process groups (process indices):  0 (0)  1 (1)  2 (2)  3 (3)  4 (4)  5 (5)  6 (6)  7 (7)  8 (8)  9 (9)  10 (10)  11 (11)  12 (12)  13 (13)  14 (14)  15 (15)  16 (16)  17 (17)  18 (18)  19 (19)  20 (20)  21 (21)  22 (22)  23 (23)
Resource initialization completed at t[s]:      0.00
Run totals: 24 processes, 64 threads, 0 GPUs


Input parsed successfully to the following command list (including defaults):

basis kpoint-dependent
converge-empty-states yes
coords-type Cartesian
core-overlap-check none
coulomb-interaction Periodic
davidson-band-ratio 1.1
density-of-states Etol 1.000000e-06 Esigma 1.000000e-03 \
		Complete \
	Total \
	OrthoOrbital Ag 1   s \
	OrthoOrbital Ag 1   p \
	OrthoOrbital Ag 1   px \
	OrthoOrbital Ag 1   py \
	OrthoOrbital Ag 1   pz \
	OrthoOrbital Ag 1   d \
	OrthoOrbital Ag 1   dxy \
	OrthoOrbital Ag 1   dyz \
	OrthoOrbital Ag 1   dz2 \
	OrthoOrbital Ag 1   dxz \
	OrthoOrbital Ag 1   dx2-y2 \
	OrthoOrbital Ag 2   s \
	OrthoOrbital Ag 2   p \
	OrthoOrbital Ag 2   px \
	OrthoOrbital Ag 2   py \
	OrthoOrbital Ag 2   pz \
	OrthoOrbital Ag 2   d \
	OrthoOrbital Ag 2   dxy \
	OrthoOrbital Ag 2   dyz \
	OrthoOrbital Ag 2   dz2 \
	OrthoOrbital Ag 2   dxz \
	OrthoOrbital Ag 2   dx2-y2 \
	OrthoOrbital Ag 3   s \
	OrthoOrbital Ag 3   p \
	OrthoOrbital Ag 3   px \
	OrthoOrbital Ag 3   py \
	OrthoOrbital Ag 3   pz \
	OrthoOrbital Ag 3   d \
	OrthoOrbital Ag 3   dxy \
	OrthoOrbital Ag 3   dyz \
	OrthoOrbital Ag 3   dz2 \
	OrthoOrbital Ag 3   dxz \
	OrthoOrbital Ag 3   dx2-y2 \
	OrthoOrbital Ag 4   s \
	OrthoOrbital Ag 4   p \
	OrthoOrbital Ag 4   px \
	OrthoOrbital Ag 4   py \
	OrthoOrbital Ag 4   pz \
	OrthoOrbital Ag 4   d \
	OrthoOrbital Ag 4   dxy \
	OrthoOrbital Ag 4   dyz \
	OrthoOrbital Ag 4   dz2 \
	OrthoOrbital Ag 4   dxz \
	OrthoOrbital Ag 4   dx2-y2 \
	OrthoOrbital Ag 5   s \
	OrthoOrbital Ag 5   p \
	OrthoOrbital Ag 5   px \
	OrthoOrbital Ag 5   py \
	OrthoOrbital Ag 5   pz \
	OrthoOrbital Ag 5   d \
	OrthoOrbital Ag 5   dxy \
	OrthoOrbital Ag 5   dyz \
	OrthoOrbital Ag 5   dz2 \
	OrthoOrbital Ag 5   dxz \
	OrthoOrbital Ag 5   dx2-y2 \
	OrthoOrbital Ag 6   s \
	OrthoOrbital Ag 6   p \
	OrthoOrbital Ag 6   px \
	OrthoOrbital Ag 6   py \
	OrthoOrbital Ag 6   pz \
	OrthoOrbital Ag 6   d \
	OrthoOrbital Ag 6   dxy \
	OrthoOrbital Ag 6   dyz \
	OrthoOrbital Ag 6   dz2 \
	OrthoOrbital Ag 6   dxz \
	OrthoOrbital Ag 6   dx2-y2 \
	OrthoOrbital Ag 7   s \
	OrthoOrbital Ag 7   p \
	OrthoOrbital Ag 7   px \
	OrthoOrbital Ag 7   py \
	OrthoOrbital Ag 7   pz \
	OrthoOrbital Ag 7   d \
	OrthoOrbital Ag 7   dxy \
	OrthoOrbital Ag 7   dyz \
	OrthoOrbital Ag 7   dz2 \
	OrthoOrbital Ag 7   dxz \
	OrthoOrbital Ag 7   dx2-y2 \
	OrthoOrbital Ag 8   s \
	OrthoOrbital Ag 8   p \
	OrthoOrbital Ag 8   px \
	OrthoOrbital Ag 8   py \
	OrthoOrbital Ag 8   pz \
	OrthoOrbital Ag 8   d \
	OrthoOrbital Ag 8   dxy \
	OrthoOrbital Ag 8   dyz \
	OrthoOrbital Ag 8   dz2 \
	OrthoOrbital Ag 8   dxz \
	OrthoOrbital Ag 8   dx2-y2 \
	OrthoOrbital Ag 9   s \
	OrthoOrbital Ag 9   p \
	OrthoOrbital Ag 9   px \
	OrthoOrbital Ag 9   py \
	OrthoOrbital Ag 9   pz \
	OrthoOrbital Ag 9   d \
	OrthoOrbital Ag 9   dxy \
	OrthoOrbital Ag 9   dyz \
	OrthoOrbital Ag 9   dz2 \
	OrthoOrbital Ag 9   dxz \
	OrthoOrbital Ag 9   dx2-y2 \
	OrthoOrbital Ag 10   s \
	OrthoOrbital Ag 10   p \
	OrthoOrbital Ag 10   px \
	OrthoOrbital Ag 10   py \
	OrthoOrbital Ag 10   pz \
	OrthoOrbital Ag 10   d \
	OrthoOrbital Ag 10   dxy \
	OrthoOrbital Ag 10   dyz \
	OrthoOrbital Ag 10   dz2 \
	OrthoOrbital Ag 10   dxz \
	OrthoOrbital Ag 10   dx2-y2 \
	OrthoOrbital Ag 11   s \
	OrthoOrbital Ag 11   p \
	OrthoOrbital Ag 11   px \
	OrthoOrbital Ag 11   py \
	OrthoOrbital Ag 11   pz \
	OrthoOrbital Ag 11   d \
	OrthoOrbital Ag 11   dxy \
	OrthoOrbital Ag 11   dyz \
	OrthoOrbital Ag 11   dz2 \
	OrthoOrbital Ag 11   dxz \
	OrthoOrbital Ag 11   dx2-y2 \
	OrthoOrbital Ag 12   s \
	OrthoOrbital Ag 12   p \
	OrthoOrbital Ag 12   px \
	OrthoOrbital Ag 12   py \
	OrthoOrbital Ag 12   pz \
	OrthoOrbital Ag 12   d \
	OrthoOrbital Ag 12   dxy \
	OrthoOrbital Ag 12   dyz \
	OrthoOrbital Ag 12   dz2 \
	OrthoOrbital Ag 12   dxz \
	OrthoOrbital Ag 12   dx2-y2 \
	OrthoOrbital Ag 13   s \
	OrthoOrbital Ag 13   p \
	OrthoOrbital Ag 13   px \
	OrthoOrbital Ag 13   py \
	OrthoOrbital Ag 13   pz \
	OrthoOrbital Ag 13   d \
	OrthoOrbital Ag 13   dxy \
	OrthoOrbital Ag 13   dyz \
	OrthoOrbital Ag 13   dz2 \
	OrthoOrbital Ag 13   dxz \
	OrthoOrbital Ag 13   dx2-y2 \
	OrthoOrbital Ag 14   s \
	OrthoOrbital Ag 14   p \
	OrthoOrbital Ag 14   px \
	OrthoOrbital Ag 14   py \
	OrthoOrbital Ag 14   pz \
	OrthoOrbital Ag 14   d \
	OrthoOrbital Ag 14   dxy \
	OrthoOrbital Ag 14   dyz \
	OrthoOrbital Ag 14   dz2 \
	OrthoOrbital Ag 14   dxz \
	OrthoOrbital Ag 14   dx2-y2 \
	OrthoOrbital Ag 15   s \
	OrthoOrbital Ag 15   p \
	OrthoOrbital Ag 15   px \
	OrthoOrbital Ag 15   py \
	OrthoOrbital Ag 15   pz \
	OrthoOrbital Ag 15   d \
	OrthoOrbital Ag 15   dxy \
	OrthoOrbital Ag 15   dyz \
	OrthoOrbital Ag 15   dz2 \
	OrthoOrbital Ag 15   dxz \
	OrthoOrbital Ag 15   dx2-y2 \
	OrthoOrbital Ag 16   s \
	OrthoOrbital Ag 16   p \
	OrthoOrbital Ag 16   px \
	OrthoOrbital Ag 16   py \
	OrthoOrbital Ag 16   pz \
	OrthoOrbital Ag 16   d \
	OrthoOrbital Ag 16   dxy \
	OrthoOrbital Ag 16   dyz \
	OrthoOrbital Ag 16   dz2 \
	OrthoOrbital Ag 16   dxz \
	OrthoOrbital Ag 16   dx2-y2 \
	OrthoOrbital Ag 17   s \
	OrthoOrbital Ag 17   p \
	OrthoOrbital Ag 17   px \
	OrthoOrbital Ag 17   py \
	OrthoOrbital Ag 17   pz \
	OrthoOrbital Ag 17   d \
	OrthoOrbital Ag 17   dxy \
	OrthoOrbital Ag 17   dyz \
	OrthoOrbital Ag 17   dz2 \
	OrthoOrbital Ag 17   dxz \
	OrthoOrbital Ag 17   dx2-y2 \
	OrthoOrbital Ag 18   s \
	OrthoOrbital Ag 18   p \
	OrthoOrbital Ag 18   px \
	OrthoOrbital Ag 18   py \
	OrthoOrbital Ag 18   pz \
	OrthoOrbital Ag 18   d \
	OrthoOrbital Ag 18   dxy \
	OrthoOrbital Ag 18   dyz \
	OrthoOrbital Ag 18   dz2 \
	OrthoOrbital Ag 18   dxz \
	OrthoOrbital Ag 18   dx2-y2 \
	OrthoOrbital Ag 19   s \
	OrthoOrbital Ag 19   p \
	OrthoOrbital Ag 19   px \
	OrthoOrbital Ag 19   py \
	OrthoOrbital Ag 19   pz \
	OrthoOrbital Ag 19   d \
	OrthoOrbital Ag 19   dxy \
	OrthoOrbital Ag 19   dyz \
	OrthoOrbital Ag 19   dz2 \
	OrthoOrbital Ag 19   dxz \
	OrthoOrbital Ag 19   dx2-y2 \
	OrthoOrbital Ag 20   s \
	OrthoOrbital Ag 20   p \
	OrthoOrbital Ag 20   px \
	OrthoOrbital Ag 20   py \
	OrthoOrbital Ag 20   pz \
	OrthoOrbital Ag 20   d \
	OrthoOrbital Ag 20   dxy \
	OrthoOrbital Ag 20   dyz \
	OrthoOrbital Ag 20   dz2 \
	OrthoOrbital Ag 20   dxz \
	OrthoOrbital Ag 20   dx2-y2 \
	OrthoOrbital Ag 21   s \
	OrthoOrbital Ag 21   p \
	OrthoOrbital Ag 21   px \
	OrthoOrbital Ag 21   py \
	OrthoOrbital Ag 21   pz \
	OrthoOrbital Ag 21   d \
	OrthoOrbital Ag 21   dxy \
	OrthoOrbital Ag 21   dyz \
	OrthoOrbital Ag 21   dz2 \
	OrthoOrbital Ag 21   dxz \
	OrthoOrbital Ag 21   dx2-y2 \
	OrthoOrbital Ag 22   s \
	OrthoOrbital Ag 22   p \
	OrthoOrbital Ag 22   px \
	OrthoOrbital Ag 22   py \
	OrthoOrbital Ag 22   pz \
	OrthoOrbital Ag 22   d \
	OrthoOrbital Ag 22   dxy \
	OrthoOrbital Ag 22   dyz \
	OrthoOrbital Ag 22   dz2 \
	OrthoOrbital Ag 22   dxz \
	OrthoOrbital Ag 22   dx2-y2 \
	OrthoOrbital Ag 23   s \
	OrthoOrbital Ag 23   p \
	OrthoOrbital Ag 23   px \
	OrthoOrbital Ag 23   py \
	OrthoOrbital Ag 23   pz \
	OrthoOrbital Ag 23   d \
	OrthoOrbital Ag 23   dxy \
	OrthoOrbital Ag 23   dyz \
	OrthoOrbital Ag 23   dz2 \
	OrthoOrbital Ag 23   dxz \
	OrthoOrbital Ag 23   dx2-y2 \
	OrthoOrbital Ag 24   s \
	OrthoOrbital Ag 24   p \
	OrthoOrbital Ag 24   px \
	OrthoOrbital Ag 24   py \
	OrthoOrbital Ag 24   pz \
	OrthoOrbital Ag 24   d \
	OrthoOrbital Ag 24   dxy \
	OrthoOrbital Ag 24   dyz \
	OrthoOrbital Ag 24   dz2 \
	OrthoOrbital Ag 24   dxz \
	OrthoOrbital Ag 24   dx2-y2 \
	OrthoOrbital Ag 25   s \
	OrthoOrbital Ag 25   p \
	OrthoOrbital Ag 25   px \
	OrthoOrbital Ag 25   py \
	OrthoOrbital Ag 25   pz \
	OrthoOrbital Ag 25   d \
	OrthoOrbital Ag 25   dxy \
	OrthoOrbital Ag 25   dyz \
	OrthoOrbital Ag 25   dz2 \
	OrthoOrbital Ag 25   dxz \
	OrthoOrbital Ag 25   dx2-y2 \
	OrthoOrbital Ag 26   s \
	OrthoOrbital Ag 26   p \
	OrthoOrbital Ag 26   px \
	OrthoOrbital Ag 26   py \
	OrthoOrbital Ag 26   pz \
	OrthoOrbital Ag 26   d \
	OrthoOrbital Ag 26   dxy \
	OrthoOrbital Ag 26   dyz \
	OrthoOrbital Ag 26   dz2 \
	OrthoOrbital Ag 26   dxz \
	OrthoOrbital Ag 26   dx2-y2
dump End ElecDensity KEdensity BandEigs EigStats RhoAtom DOS Kpoints
dump Ionic State IonicPositions Lattice EigStats Ecomponents
dump 
dump 
dump 
dump 
dump 
dump 
dump 
dump 
dump-name jdft.$VAR
elec-cutoff 20
elec-eigen-algo Davidson
elec-ex-corr gga-PBE
elec-initial-magnetization 0.000000 no
elec-n-bands 297
elec-smearing Fermi 0.001
electronic-minimize  \
	dirUpdateScheme      FletcherReeves \
	linminMethod         DirUpdateRecommended \
	nIterations          100 \
	history              15 \
	knormThreshold       0 \
	energyDiffThreshold  1e-07 \
	nEnergyDiff          2 \
	alphaTstart          1 \
	alphaTmin            1e-10 \
	updateTestStepSize   yes \
	alphaTreduceFactor   0.1 \
	alphaTincreaseFactor 3 \
	nAlphaAdjustMax      3 \
	wolfeEnergy          0.0001 \
	wolfeGradient        0.9 \
	fdTest               no
exchange-regularization WignerSeitzTruncated
fluid LinearPCM 298.000000 1.013250
fluid-anion F- 0.5 MeanFieldLJ \
	epsBulk 1 \
	pMol 0 \
	epsInf 1 \
	Pvap 0 \
	sigmaBulk 0 \
	Rvdw 2.24877 \
	Res 0 \
	tauNuc 343133
fluid-cation Na+ 0.5 MeanFieldLJ \
	epsBulk 1 \
	pMol 0 \
	epsInf 1 \
	Pvap 0 \
	sigmaBulk 0 \
	Rvdw 2.19208 \
	Res 0 \
	tauNuc 343133
fluid-ex-corr lda-TF lda-PZ
fluid-gummel-loop 10 1.000000e-05
fluid-minimize  \
	dirUpdateScheme      PolakRibiere \
	linminMethod         DirUpdateRecommended \
	nIterations          400 \
	history              15 \
	knormThreshold       1e-11 \
	energyDiffThreshold  0 \
	nEnergyDiff          2 \
	alphaTstart          1 \
	alphaTmin            1e-10 \
	updateTestStepSize   yes \
	alphaTreduceFactor   0.1 \
	alphaTincreaseFactor 3 \
	nAlphaAdjustMax      6 \
	wolfeEnergy          0.0001 \
	wolfeGradient        0.9 \
	fdTest               no
fluid-solvent H2O 55.338 ScalarEOS \
	epsBulk 78.4 \
	pMol 0.92466 \
	epsInf 1.77 \
	Pvap 1.06736e-10 \
	sigmaBulk 4.62e-05 \
	Rvdw 2.61727 \
	Res 1.42 \
	tauNuc 343133 \
	poleEl 15 7 1
forces-output-coords Positions
ion Ag  -0.004149999999999  10.556798000000001  25.140646999999998 1
ion Ag  -0.003288000000000   4.277406000000000  20.821008999999997 1
ion Ag   3.828162000000000   7.451063000000000  23.074192999999998 1
ion Ag   3.829937000000001   1.100003000000000  18.661106999999998 1
ion Ag   0.001292000000001   8.510685000000000  14.360291999999996 1
ion Ag   0.001506000000000   2.095047000000000  10.036258999999998 1
ion Ag   3.830581000000000  11.722706000000001  16.511735999999999 1
ion Ag   3.833946000000001   5.296979000000000  12.203954999999999 1
ion Ag   0.001473000000000  12.740428000000000   7.920717999999998 1
ion Ag   0.004355000000000   6.395379000000000   3.522225999999999 1
ion Ag  -3.835762000000000  13.708316000000000  27.136208000000000 1
ion Ag   3.836438000000000   9.568137999999999   5.781461999999999 1
ion Ag   3.837967000000000   3.225287000000000   1.458591000000000 1
ion Ag   3.829340000000000  12.754716999999999  21.857386999999992 1
ion Ag   3.830803000000000   6.409668000000000  17.602672999999996 1
ion Ag  -0.001483000000000   9.582856000000000  19.718297999999997 1
ion Ag  -0.000981000000000   3.208690000000000  15.434894999999996 1
ion Ag   3.834671000000001  10.601960000000000  11.127030999999999 1
ion Ag   3.836322000000000   4.226246000000000   6.817923000000000 1
ion Ag  -0.000631000000000  13.814768000000001  13.278724000000000 1
ion Ag   0.002469000000000   7.404339000000000   8.977824999999998 1
ion Ag   0.004530000000000   1.052326000000000   4.564739999999999 1
ion Ag   3.836610000000001   8.615078000000000   0.502808000000000 1
ion Ag   3.828147000000001   2.108258000000000  24.116790000000002 1
ion Ag   0.004041000000000  11.766707000000000   2.498368999999999 1
ion Ag  -0.005105000000000   5.278903000000000  26.180341999999992 1
ion-species /projects/musgravc/apps/jdftx-1.6.0/build/pseudopotentials/GBRV_v1.5/$ID_pbe_v1.uspp
ion-species /projects/musgravc/apps/jdftx-1.6.0/build/pseudopotentials/GBRV_v1.5/$ID_pbe_v1.2.uspp
ion-species /projects/musgravc/apps/jdftx-1.6.0/build/pseudopotentials/GBRV_v1.5/$ID_pbe_v1.4.uspp
ion-species /projects/musgravc/apps/jdftx-1.6.0/build/pseudopotentials/GBRV_v1.5/$ID_pbe_v1.5.uspp
ion-width Ecut
ionic-minimize  \
	dirUpdateScheme      L-BFGS \
	linminMethod         DirUpdateRecommended \
	nIterations          100 \
	history              15 \
	knormThreshold       0.0001 \
	energyDiffThreshold  0.0001 \
	nEnergyDiff          2 \
	alphaTstart          1 \
	alphaTmin            1e-10 \
	updateTestStepSize   yes \
	alphaTreduceFactor   0.1 \
	alphaTincreaseFactor 3 \
	nAlphaAdjustMax      3 \
	wolfeEnergy          0.0001 \
	wolfeGradient        0.9 \
	fdTest               no
kpoint   0.000000000000   0.000000000000   0.000000000000  1.00000000000000
kpoint-folding 9 4 1 
latt-move-scale 0 0 0
latt-scale 1 1 1 
lattice  \
	   7.665668000000000   -3.832833000000000    0.000000000000000  \
	   0.000000000000000   13.819480000000000    0.000000000000000  \
	   0.000000000000000    0.000000000000000   82.916881000000004 
lattice-minimize  \
	dirUpdateScheme      L-BFGS \
	linminMethod         DirUpdateRecommended \
	nIterations          0 \
	history              15 \
	knormThreshold       0 \
	energyDiffThreshold  1e-06 \
	nEnergyDiff          2 \
	alphaTstart          1 \
	alphaTmin            1e-10 \
	updateTestStepSize   yes \
	alphaTreduceFactor   0.1 \
	alphaTincreaseFactor 3 \
	nAlphaAdjustMax      3 \
	wolfeEnergy          0.0001 \
	wolfeGradient        0.9 \
	fdTest               no
lcao-params 30 1e-06 0.001
pcm-variant CANDLE
spintype z-spin
subspace-rotation-factor 1 yes
symmetries automatic
symmetry-threshold 0.0001
target-mu -0.24475 no

van-der-waals D3



---------- Setting up symmetries ----------

Found 8 point-group symmetries of the bravais lattice
Found 1 space-group symmetries with basis
Applied RMS atom displacement 0 bohrs to make symmetries exact.

---------- Initializing the Grid ----------
R = 
[      7.66567     -3.83283            0  ]
[            0      13.8195            0  ]
[            0            0      82.9169  ]
unit cell volume = 8783.85
G =
[   0.819653   0.227331         -0  ]
[          0   0.454661          0  ]
[          0         -0  0.0757769  ]
Minimum fftbox size, Smin = [  32  60  336  ]
Chosen fftbox size, S = [  32  60  336  ]

---------- Exchange Correlation functional ----------
Initalized PBE GGA exchange.
Initalized PBE GGA correlation.

---------- Setting up pseudopotentials ----------
Width of ionic core gaussian charges (only for fluid interactions / plotting) set to 0.397384

Reading pseudopotential file '/projects/musgravc/apps/jdftx-1.6.0/build/pseudopotentials/GBRV_v1.5/ag_pbe_v1.4.uspp':
  Title: Ag.  Created by USPP 7.3.6 on 1-4-15
  Reference state energy: -147.606242.  19 valence electrons in orbitals:
    |400>  occupation: 2  eigenvalue: -3.637437
    |410>  occupation: 6  eigenvalue: -2.297267
    |420>  occupation: 10  eigenvalue: -0.417763
    |500>  occupation: 0.5  eigenvalue: -0.283525
    |510>  occupation: 0  eigenvalue: -0.122889
  lMax: 2  lLocal: 0  QijEcut: 5.5
  6 projectors sampled on a log grid with 717 points:
    l: 0  eig: -0.283528  rCut: 1.5
    l: 0  eig: -3.637440  rCut: 1.5
    l: 1  eig: -0.122892  rCut: 1.5
    l: 1  eig: -2.297267  rCut: 1.5
    l: 2  eig: -0.417762  rCut: 1.7
    l: 2  eig: -1.000000  rCut: 1.7
  Partial core density with radius 1.2
  Transforming core density to a uniform radial grid of dG=0.02 with 1263 points.
  Transforming local potential to a uniform radial grid of dG=0.02 with 1263 points.
  Transforming nonlocal projectors to a uniform radial grid of dG=0.02 with 432 points.
  Transforming density augmentations to a uniform radial grid of dG=0.02 with 1263 points.
  Transforming atomic orbitals to a uniform radial grid of dG=0.02 with 432 points.
  Core radius for overlap checks: 1.70 bohrs.

Initialized 1 species with 26 total atoms.

Folded 1 k-points by 9x4x1 to 36 k-points.

---------- Setting up k-points, bands, fillings ----------
Adding inversion symmetry to k-mesh for non-inversion-symmetric unit cell.
Reduced to 19 k-points under symmetry. 
Computing the number of bands and number of electrons
Calculating initial fillings.
nElectrons: 494.000000   nBands: 297   nStates: 38

----- Setting up reduced wavefunction bases (one per k-point) -----
average nbasis = 37531.861 , ideal nbasis = 37525.255

----- Initializing Supercell corresponding to k-point mesh -----
Lattice vector linear combinations in supercell:
[   9   0   0  ]
[   0   4   0  ]
[   0   0   1  ]
Supercell lattice vectors:
[  68.991  -15.3313  0  ]
[  0  55.2779  0  ]
[  0  0  82.9169  ]

Initializing DFT-D3 calculator:
	Parameters set for gga-PBE functional
	s6:  1.000  s_r6:  1.217
	s8:  0.722  s_r8:  1.000
	Per-atom parameters loaded for:
	Ag:  sqrtQ[a0]:  5.443  Rcov[a0]:  2.173  CN: [ 0.00 0.97 ]

Initializing DFT-D2 calculator for fluid / solvation:
	Ag:  C6:  427.91 Eh-a0^6  R0: 3.097 a0

---------- Setting up ewald sum ----------
Optimum gaussian width for ewald sums = 4.782365 bohr.
Real space sum over 935 unit cells with max indices [  8  5  2  ]
Reciprocal space sum over 6669 terms with max indices [  4  6  28  ]

Computing DFT-D3 correction:
# coordination-number Ag 6.886 8.940 8.236 8.999 9.039 8.989 9.060 9.023 8.980 8.222 4.784 8.993 5.431 8.993 8.989 8.980 9.023 9.060 8.940 9.040 8.999 8.236 4.784 8.222 6.886 5.431
# diagonal-C6 Ag 268.61 268.61 268.61 268.61 268.61 268.61 268.61 268.61 268.61 268.61 268.61 268.61 268.61 268.61 268.61 268.61 268.61 268.61 268.61 268.61 268.61 268.61 268.61 268.61 268.61 268.61
EvdW_6 =   -0.168400
EvdW_8 =   -0.227459

---------- Allocating electronic variables ----------
Initializing wave functions:  linear combination of atomic orbitals
Ag pseudo-atom occupations:   s ( 2 1 )  p ( 6 0 )  d ( 10 )
	FillingsUpdate:  mu: -0.244750000  nElectrons: 494.000000  magneticMoment: [ Abs: 0.00135  Tot: +0.00003 ]
LCAOMinimize: Iter:   0  G: -3716.5175314826619797  |grad|_K:  9.597e-04  alpha:  1.000e+00
	FillingsUpdate:  mu: -0.244750000  nElectrons: 494.000000  magneticMoment: [ Abs: 0.00115  Tot: -0.00001 ]
LCAOMinimize: Iter:   1  G: -3716.5642669314570412  |grad|_K:  1.178e-03  alpha:  1.234e-01  linmin:  8.905e-02  cgtest: -6.629e-01  t[s]:    315.93
	FillingsUpdate:  mu: -0.244750000  nElectrons: 494.000000  magneticMoment: [ Abs: 0.00112  Tot: -0.00001 ]
LCAOMinimize: Iter:   2  G: -3716.5649363233374061  |grad|_K:  1.230e-03  alpha:  7.339e-03  linmin:  1.077e-03  cgtest:  1.001e+00  t[s]:    437.71
LCAOMinimize: 	Predicted alpha/alphaT>3.000000, increasing alphaT to 2.201835e-02.
	FillingsUpdate:  mu: -0.244750000  nElectrons: 494.000000  magneticMoment: [ Abs: 0.00110  Tot: +0.00001 ]
LCAOMinimize: Iter:   3  G: -3716.7533840924670585  |grad|_K:  3.247e-04  alpha:  5.689e-02  linmin:  1.140e-02  cgtest: -5.081e-02  t[s]:    591.00
LCAOMinimize: 	Predicted alpha/alphaT>3.000000, increasing alphaT to 1.706638e-01.
	FillingsUpdate:  mu: -0.244750000  nElectrons: 494.000000  magneticMoment: [ Abs: 0.00081  Tot: +0.00001 ]
LCAOMinimize: Iter:   4  G: -3716.8588939878382007  |grad|_K:  5.651e-05  alpha:  4.381e-01  linmin: -9.354e-02  cgtest:  6.318e-01  t[s]:    746.55
LCAOMinimize: Encountered beta<0, resetting CG.
	FillingsUpdate:  mu: -0.244750000  nElectrons: 494.000000  magneticMoment: [ Abs: 0.00081  Tot: +0.00001 ]
LCAOMinimize: Iter:   5  G: -3716.8592813248883431  |grad|_K:  7.103e-05  alpha:  5.631e-02  linmin:  1.293e-03  cgtest: -1.123e-02  t[s]:    874.76
	FillingsUpdate:  mu: -0.244750000  nElectrons: 494.000000  magneticMoment: [ Abs: 0.00079  Tot: +0.00001 ]
LCAOMinimize: Iter:   6  G: -3716.8609980361625276  |grad|_K:  2.417e-05  alpha:  1.575e-01  linmin: -2.689e-03  cgtest:  2.192e-01  t[s]:   1003.71
	FillingsUpdate:  mu: -0.244750000  nElectrons: 494.000000  magneticMoment: [ Abs: 0.00078  Tot: +0.00001 ]
LCAOMinimize: Iter:   7  G: -3716.8611246831769677  |grad|_K:  2.733e-05  alpha:  9.766e-02  linmin:  1.915e-03  cgtest: -1.937e-02  t[s]:   1132.84
	FillingsUpdate:  mu: -0.244750000  nElectrons: 494.000000  magneticMoment: [ Abs: 0.00078  Tot: +0.00001 ]
LCAOMinimize: Iter:   8  G: -3716.8611976860283903  |grad|_K:  1.977e-05  alpha:  4.478e-02  linmin:  1.870e-03  cgtest:  2.173e-02  t[s]:   1261.35
	FillingsUpdate:  mu: -0.244750000  nElectrons: 494.000000  magneticMoment: [ Abs: 0.00078  Tot: +0.00001 ]
LCAOMinimize: Iter:   9  G: -3716.8612572910769813  |grad|_K:  6.253e-06  alpha:  7.263e-02  linmin:  2.161e-02  cgtest: -1.313e-01  t[s]:   1390.58
LCAOMinimize: 	Predicted alpha/alphaT>3.000000, increasing alphaT to 2.178935e-01.
	FillingsUpdate:  mu: -0.244750000  nElectrons: 494.000000  magneticMoment: [ Abs: 0.00078  Tot: +0.00001 ]
LCAOMinimize: Iter:  10  G: -3716.8612807224230892  |grad|_K:  4.692e-06  alpha:  3.184e-01  linmin:  2.258e-02  cgtest: -1.085e-01  t[s]:   1551.93
	FillingsUpdate:  mu: -0.244750000  nElectrons: 494.000000  magneticMoment: [ Abs: 0.00078  Tot: +0.00001 ]
LCAOMinimize: Iter:  11  G: -3716.8612815859278271  |grad|_K:  2.349e-06  alpha:  2.193e-02  linmin:  9.924e-04  cgtest:  4.373e-01  t[s]:   1680.79
	FillingsUpdate:  mu: -0.244750000  nElectrons: 494.000000  magneticMoment: [ Abs: 0.00078  Tot: +0.00001 ]
LCAOMinimize: Iter:  12  G: -3716.8612822983836850  |grad|_K:  1.992e-06  alpha:  4.208e-02  linmin: -1.825e-01  cgtest:  9.977e-01  t[s]:   1810.12
LCAOMinimize: Encountered beta<0, resetting CG.
LCAOMinimize: Converged (|Delta G|<1.000000e-06 for 2 iters).
----- createFluidSolver() ----- (Fluid-side solver setup)
   Initializing fluid molecule 'H2O'
     Initializing site 'O'
       Electron density: proportional to exp(-r/0.36935)*erfc((r-0.51523)/0.36823) with norm 6.826
       Charge density: gaussian nuclear width 0.478731 with net site charge 0.826
       Polarizability: cuspless exponential with width 0.32 and norm 3.73
       Hard sphere radius: 2.57003 bohrs
       Positions in reference frame:
         [ +0.000000 +0.000000 +0.000000 ]
     Initializing site 'H'
       Electron density: proportional to exp(-r/0.34641)*erfc((r-0)/0.390882) with norm 0.587
       Charge density: gaussian nuclear width 0.377945 with net site charge -0.413
       Polarizability: cuspless exponential with width 0.39 and norm 3.3
       Positions in reference frame:
         [ +0.000000 -1.441945 +1.122523 ]
         [ +0.000000 +1.441945 +1.122523 ]
     Net charge: 0   dipole magnitude: 0.927204
     Initializing spherical shell mfKernel with radius 2.61727 Bohr
     deltaS corrections:
       site 'O': -7.54299
       site 'H': -6.83917
   Initializing fluid molecule 'Na+'
     Initializing site 'Na'
       Electron density: proportional to exp(-r/0.19682)*erfc((r-0.71491)/0.41314) with norm 8.1383
       Charge density: gaussian nuclear width 0.365347 with net site charge -1
       Hard sphere radius: 1.86327 bohrs
       Positions in reference frame:
         [ +0.000000 +0.000000 +0.000000 ]
     Net charge: -1   dipole magnitude: 0
     Initializing gaussian mfKernel with width: 1.55004 Bohr
     deltaS corrections:
       site 'Na': -22.3555
   Initializing fluid molecule 'F-'
     Initializing site 'F'
       Electron density: proportional to exp(-r/0.38886)*erfc((r-0)/0.438782) with norm 8
       Charge density: gaussian nuclear width 0.374796 with net site charge 1
       Hard sphere radius: 2.39995 bohrs
       Positions in reference frame:
         [ +0.000000 +0.000000 +0.000000 ]
     Net charge: 1   dipole magnitude: 0
     Initializing gaussian mfKernel with width: 1.59012 Bohr
     deltaS corrections:
       site 'F': -9.04335

Correction to mu due to finite nuclear width = -0.055801
   Cavity determined by nc: 0.00142 and sigma: 0.707107
   Nonlocal vdW cavity from gaussian model electron density with norm = 8 and sigma = 0.993594 bohr
   Charge asymmetry in cavity with sensitivity pCavity = 36.5 e-bohr/Eh
   Electrostatic cavity expanded by eta = 1.46 bohrs
   Weighted density cavitation model constrained by Nbulk: 0.0049383 bohr^-3, Pvap: 3.14029 kPa, Rvdw: 2.61727 bohr and sigmaBulk: 4.62e-05 Eh/bohr^2 at T: 298 K.
   Weighted density dispersion model using vdW pair potentials with single solvent site with sqrtC6eff: 0.77 SI.


---- Citations for features of the code used in this run ----

   Software package:
      R. Sundararaman, K. Letchworth-Weaver, K.A. Schwarz, D. Gunceler, Y. Ozhabes and T.A. Arias, 'JDFTx: software for joint density-functional theory', SoftwareX 6, 278 (2017)

   gga-PBE exchange-correlation functional:
      J.P. Perdew, K. Burke and M. Ernzerhof, Phys. Rev. Lett. 77, 3865 (1996)

   Pseudopotentials:
      KF Garrity, JW Bennett, KM Rabe and D Vanderbilt, Comput. Mater. Sci. 81, 446 (2014)

   DFT-D3 dispersion correction:
      S. Grimme, J. Antony, S. Ehrlich and H. Krieg, J. Chem. Phys. 132, 154104 (2010)

   DFT-D2 dispersion correction:
      S. Grimme, J. Comput. Chem. 27, 1787 (2006)

   Charge-asymmetric nonlocally-determined local-electric (CANDLE) solvation model:
      R. Sundararaman and W.A. Goddard III, J. Chem. Phys. 142, 064107 (2015)

   Total energy minimization with Auxiliary Hamiltonian:
      C. Freysoldt, S. Boeck, and J. Neugebauer, Phys. Rev. B 79, 241103(R) (2009)

   Grand-canonical (fixed-potential) DFT:
      R. Sundararaman, W. A. Goddard III and T. A. Arias, J. Chem. Phys. 146, 114104 (2017)

   Linear-tetrahedron sampling for density of states:
      G. Lehmann and M. Taut, Phys. status solidi (b) 54, 469 (1972)

This list may not be complete. Please suggest additional citations or
report any other bugs at https://github.com/shankar1729/jdftx/issues

Initialization completed successfully at t[s]:   1839.78


Computing DFT-D3 correction:
# coordination-number Ag 6.886 8.940 8.236 8.999 9.039 8.989 9.060 9.023 8.980 8.222 4.784 8.993 5.431 8.993 8.989 8.980 9.023 9.060 8.940 9.040 8.999 8.236 4.784 8.222 6.886 5.431
# diagonal-C6 Ag 268.61 268.61 268.61 268.61 268.61 268.61 268.61 268.61 268.61 268.61 268.61 268.61 268.61 268.61 268.61 268.61 268.61 268.61 268.61 268.61 268.61 268.61 268.61 268.61 268.61 268.61
EvdW_6 =   -0.168400
EvdW_8 =   -0.227459
Fluid solver invoked on fresh (random / LCAO) wavefunctions
Running a vacuum solve first:

-------- Initial electronic minimization -----------
	FillingsUpdate:  mu: +0.111299906  nElectrons: 494.000000  magneticMoment: [ Abs: 0.00078  Tot: +0.00001 ]
ElecMinimize: Iter:   0  G: -3716.861775927653071  |grad|_K:  2.426e-05  alpha:  1.000e+00
	FillingsUpdate:  mu: +0.118527637  nElectrons: 494.000000  magneticMoment: [ Abs: 0.00059  Tot: +0.00001 ]
	SubspaceRotationAdjust: set factor to 1
ElecMinimize: Iter:   1  G: -3716.968822552416441  |grad|_K:  1.669e-05  alpha:  4.291e-01  linmin:  2.561e-05  t[s]:   2154.36
	FillingsUpdate:  mu: +0.102726803  nElectrons: 494.000000  magneticMoment: [ Abs: 0.00044  Tot: +0.00001 ]
	SubspaceRotationAdjust: set factor to 0.906
ElecMinimize: Iter:   2  G: -3717.001366991558825  |grad|_K:  9.070e-06  alpha:  2.744e-01  linmin: -3.308e-06  t[s]:   2353.75
	FillingsUpdate:  mu: +0.122775202  nElectrons: 494.000000  magneticMoment: [ Abs: 0.00040  Tot: +0.00001 ]
	SubspaceRotationAdjust: set factor to 0.647
ElecMinimize: Iter:   3  G: -3717.005264425899441  |grad|_K:  1.074e-05  alpha:  1.120e-01  linmin:  1.606e-05  t[s]:   2553.01
	FillingsUpdate:  mu: +0.127318168  nElectrons: 494.000000  magneticMoment: [ Abs: 0.00034  Tot: +0.00001 ]
	SubspaceRotationAdjust: set factor to 0.393
ElecMinimize: Iter:   4  G: -3717.008620978289855  |grad|_K:  9.950e-06  alpha:  6.881e-02  linmin:  2.685e-06  t[s]:   2750.45
	FillingsUpdate:  mu: +0.115608142  nElectrons: 494.000000  magneticMoment: [ Abs: 0.00026  Tot: +0.00001 ]
	SubspaceRotationAdjust: set factor to 0.606
ElecMinimize: Iter:   5  G: -3717.012841311924149  |grad|_K:  3.565e-06  alpha:  1.004e-01  linmin:  2.370e-05  t[s]:   2946.62
	FillingsUpdate:  mu: +0.110565918  nElectrons: 494.000000  magneticMoment: [ Abs: 0.00021  Tot: +0.00000 ]
	SubspaceRotationAdjust: set factor to 0.346
ElecMinimize: Iter:   6  G: -3717.014247665949824  |grad|_K:  5.907e-06  alpha:  2.612e-01  linmin:  2.931e-05  t[s]:   3142.65
	FillingsUpdate:  mu: +0.111143282  nElectrons: 494.000000  magneticMoment: [ Abs: 0.00017  Tot: +0.00000 ]
	SubspaceRotationAdjust: set factor to 0.288
ElecMinimize: Iter:   7  G: -3717.015166419083926  |grad|_K:  2.416e-06  alpha:  6.226e-02  linmin:  2.172e-05  t[s]:   3337.97
ElecMinimize: 	Predicted alpha/alphaT>3.000000, increasing alphaT to 1.867803e-01.
	FillingsUpdate:  mu: +0.119445646  nElectrons: 494.000000  magneticMoment: [ Abs: 0.00013  Tot: +0.00000 ]
	SubspaceRotationAdjust: set factor to 0.243
ElecMinimize: Iter:   8  G: -3717.015770487038935  |grad|_K:  1.931e-06  alpha:  2.438e-01  linmin:  3.512e-06  t[s]:   3577.47
	FillingsUpdate:  mu: +0.118567105  nElectrons: 494.000000  magneticMoment: [ Abs: 0.00011  Tot: +0.00000 ]
	SubspaceRotationAdjust: set factor to 0.179
ElecMinimize: Iter:   9  G: -3717.016107547970478  |grad|_K:  1.797e-06  alpha:  2.127e-01  linmin:  4.340e-05  t[s]:   3766.10
	FillingsUpdate:  mu: +0.115844161  nElectrons: 494.000000  magneticMoment: [ Abs: 0.00009  Tot: +0.00000 ]
	SubspaceRotationAdjust: set factor to 0.157
ElecMinimize: Iter:  10  G: -3717.016317848775998  |grad|_K:  9.514e-07  alpha:  1.536e-01  linmin:  3.343e-05  t[s]:   3952.96
	FillingsUpdate:  mu: +0.115033892  nElectrons: 494.000000  magneticMoment: [ Abs: 0.00007  Tot: +0.00000 ]
	SubspaceRotationAdjust: set factor to 0.163
ElecMinimize: Iter:  11  G: -3717.016439808323867  |grad|_K:  8.917e-07  alpha:  3.183e-01  linmin:  7.333e-05  t[s]:   4139.91
	FillingsUpdate:  mu: +0.116003303  nElectrons: 494.000000  magneticMoment: [ Abs: 0.00006  Tot: +0.00000 ]
	SubspaceRotationAdjust: set factor to 0.144
ElecMinimize: Iter:  12  G: -3717.016515434830580  |grad|_K:  6.377e-07  alpha:  2.253e-01  linmin:  3.912e-05  t[s]:   4330.97
	FillingsUpdate:  mu: +0.117204525  nElectrons: 494.000000  magneticMoment: [ Abs: 0.00006  Tot: +0.00000 ]
	SubspaceRotationAdjust: set factor to 0.172
ElecMinimize: Iter:  13  G: -3717.016561056592309  |grad|_K:  4.716e-07  alpha:  2.654e-01  linmin:  4.117e-05  t[s]:   4534.18
	FillingsUpdate:  mu: +0.117204259  nElectrons: 494.000000  magneticMoment: [ Abs: 0.00005  Tot: +0.00000 ]
	SubspaceRotationAdjust: set factor to 0.159
ElecMinimize: Iter:  14  G: -3717.016587969556895  |grad|_K:  4.247e-07  alpha:  2.866e-01  linmin:  3.578e-05  t[s]:   4740.81
	FillingsUpdate:  mu: +0.116781093  nElectrons: 494.000000  magneticMoment: [ Abs: 0.00005  Tot: +0.00000 ]
	SubspaceRotationAdjust: set factor to 0.17
ElecMinimize: Iter:  15  G: -3717.016605499790330  |grad|_K:  2.940e-07  alpha:  2.303e-01  linmin:  2.151e-05  t[s]:   4946.16
	FillingsUpdate:  mu: +0.116728354  nElectrons: 494.000000  magneticMoment: [ Abs: 0.00005  Tot: +0.00000 ]
	SubspaceRotationAdjust: set factor to 0.186
ElecMinimize: Iter:  16  G: -3717.016619592667212  |grad|_K:  2.921e-07  alpha:  3.866e-01  linmin:  2.200e-05  t[s]:   5150.69
	FillingsUpdate:  mu: +0.116988993  nElectrons: 494.000000  magneticMoment: [ Abs: 0.00004  Tot: +0.00000 ]
	SubspaceRotationAdjust: set factor to 0.162
ElecMinimize: Iter:  17  G: -3717.016627404693281  |grad|_K:  2.350e-07  alpha:  2.175e-01  linmin:  5.319e-06  t[s]:   5350.38
	FillingsUpdate:  mu: +0.117375423  nElectrons: 494.000000  magneticMoment: [ Abs: 0.00004  Tot: +0.00000 ]
	SubspaceRotationAdjust: set factor to 0.198
ElecMinimize: Iter:  18  G: -3717.016635824453260  |grad|_K:  2.035e-07  alpha:  3.599e-01  linmin:  5.568e-06  t[s]:   5552.02
	FillingsUpdate:  mu: +0.117272416  nElectrons: 494.000000  magneticMoment: [ Abs: 0.00003  Tot: +0.00000 ]
	SubspaceRotationAdjust: set factor to 0.192
ElecMinimize: Iter:  19  G: -3717.016641084005641  |grad|_K:  1.920e-07  alpha:  3.000e-01  linmin:  2.784e-06  t[s]:   5748.39
	FillingsUpdate:  mu: +0.117099437  nElectrons: 494.000000  magneticMoment: [ Abs: 0.00003  Tot: +0.00000 ]
	SubspaceRotationAdjust: set factor to 0.159
ElecMinimize: Iter:  20  G: -3717.016644604584144  |grad|_K:  1.476e-07  alpha:  2.251e-01  linmin:  3.929e-07  t[s]:   5940.06
	FillingsUpdate:  mu: +0.117151167  nElectrons: 494.000000  magneticMoment: [ Abs: 0.00003  Tot: +0.00000 ]
	SubspaceRotationAdjust: set factor to 0.191
ElecMinimize: Iter:  21  G: -3717.016647437260417  |grad|_K:  1.120e-07  alpha:  3.059e-01  linmin:  1.020e-07  t[s]:   6130.16
	FillingsUpdate:  mu: +0.117323287  nElectrons: 494.000000  magneticMoment: [ Abs: 0.00002  Tot: +0.00000 ]
	SubspaceRotationAdjust: set factor to 0.174
ElecMinimize: Iter:  22  G: -3717.016649096191941  |grad|_K:  9.948e-08  alpha:  3.108e-01  linmin: -7.514e-07  t[s]:   6320.05
	FillingsUpdate:  mu: +0.117360526  nElectrons: 494.000000  magneticMoment: [ Abs: 0.00002  Tot: +0.00000 ]
	SubspaceRotationAdjust: set factor to 0.145
ElecMinimize: Iter:  23  G: -3717.016650017591019  |grad|_K:  7.177e-08  alpha:  2.188e-01  linmin: -5.865e-07  t[s]:   6509.31
	FillingsUpdate:  mu: +0.117265293  nElectrons: 494.000000  magneticMoment: [ Abs: 0.00001  Tot: +0.00000 ]
	SubspaceRotationAdjust: set factor to 0.16
ElecMinimize: Iter:  24  G: -3717.016650722741815  |grad|_K:  5.369e-08  alpha:  3.216e-01  linmin: -2.810e-07  t[s]:   6697.57
	FillingsUpdate:  mu: +0.117242230  nElectrons: 494.000000  magneticMoment: [ Abs: 0.00001  Tot: +0.00000 ]
	SubspaceRotationAdjust: set factor to 0.153
ElecMinimize: Iter:  25  G: -3717.016651081658893  |grad|_K:  4.302e-08  alpha:  2.918e-01  linmin: -1.160e-06  t[s]:   6885.34
	FillingsUpdate:  mu: +0.117282332  nElectrons: 494.000000  magneticMoment: [ Abs: 0.00001  Tot: +0.00000 ]
	SubspaceRotationAdjust: set factor to 0.142
ElecMinimize: Iter:  26  G: -3717.016651292559800  |grad|_K:  3.191e-08  alpha:  2.671e-01  linmin: -3.553e-07  t[s]:   7072.23
	FillingsUpdate:  mu: +0.117313525  nElectrons: 494.000000  magneticMoment: [ Abs: 0.00001  Tot: +0.00000 ]
	SubspaceRotationAdjust: set factor to 0.161
ElecMinimize: Iter:  27  G: -3717.016651422265113  |grad|_K:  2.401e-08  alpha:  3.018e-01  linmin:  3.252e-07  t[s]:   7264.80
	FillingsUpdate:  mu: +0.117295942  nElectrons: 494.000000  magneticMoment: [ Abs: 0.00000  Tot: +0.00000 ]
	SubspaceRotationAdjust: set factor to 0.169
ElecMinimize: Iter:  28  G: -3717.016651503269713  |grad|_K:  2.047e-08  alpha:  3.353e-01  linmin:  4.360e-06  t[s]:   7457.23
	FillingsUpdate:  mu: +0.117274343  nElectrons: 494.000000  magneticMoment: [ Abs: 0.00000  Tot: +0.00000 ]
	SubspaceRotationAdjust: set factor to 0.16
ElecMinimize: Iter:  29  G: -3717.016651550774441  |grad|_K:  1.675e-08  alpha:  2.703e-01  linmin:  3.646e-06  t[s]:   7650.00
ElecMinimize: Converged (|Delta G|<1.000000e-07 for 2 iters).
Setting wave functions to eigenvectors of Hamiltonian
Converging empty states (this may take a while): |deigs|: 1.399e-02
Vacuum energy after initial minimize, F = -3717.016651550774441

Shifting auxilliary hamiltonian by -0.362024 to set nElectrons=494.000000

-------- Electronic minimization -----------
	Linear fluid (dielectric constant: 78.4, screening length: 8.12261 Bohr) occupying 0.558970 of unit cell:	Completed after 23 iterations at t[s]:   8280.02
	FillingsUpdate:  mu: -0.244750000  nElectrons: 494.000000  magneticMoment: [ Abs: 0.00000  Tot: +0.00000 ]
ElecMinimize: Iter:   0  G: -3717.017887896428874  |grad|_K:  1.709e-05  alpha:  1.000e+00
	Linear fluid (dielectric constant: 78.4, screening length: 8.12261 Bohr) occupying 0.563011 of unit cell:	Completed after 22 iterations at t[s]:   8441.04
	Linear fluid (dielectric constant: 78.4, screening length: 8.12261 Bohr) occupying 0.559256 of unit cell:	Completed after 23 iterations at t[s]:   8497.45
	FillingsUpdate:  mu: -0.244750000  nElectrons: 493.813825  magneticMoment: [ Abs: 0.00000  Tot: +0.00000 ]
	SubspaceRotationAdjust: set factor to 0.0968
ElecMinimize: Iter:   1  G: -3717.029662144650047  |grad|_K:  8.026e-06  alpha:  7.376e-02  linmin: -1.837e-02  t[s]:   8579.98
	Linear fluid (dielectric constant: 78.4, screening length: 8.12261 Bohr) occupying 0.559611 of unit cell:	Completed after 15 iterations at t[s]:   8655.17
ElecMinimize: 	Predicted alpha/alphaT>3.000000, increasing alphaT to 2.212688e-01.
	Linear fluid (dielectric constant: 78.4, screening length: 8.12261 Bohr) occupying 0.560361 of unit cell:	Completed after 17 iterations at t[s]:   8711.32
	Linear fluid (dielectric constant: 78.4, screening length: 8.12261 Bohr) occupying 0.560200 of unit cell:	Completed after 15 iterations at t[s]:   8766.90
	FillingsUpdate:  mu: -0.244750000  nElectrons: 493.535568  magneticMoment: [ Abs: 0.00000  Tot: +0.00000 ]
	SubspaceRotationAdjust: set factor to 0.0634
ElecMinimize: Iter:   2  G: -3717.036746741609932  |grad|_K:  1.060e-05  alpha:  1.904e-01  linmin:  1.978e-03  t[s]:   8850.42
	Linear fluid (dielectric constant: 78.4, screening length: 8.12261 Bohr) occupying 0.562425 of unit cell:	Completed after 18 iterations at t[s]:   8926.40
	Linear fluid (dielectric constant: 78.4, screening length: 8.12261 Bohr) occupying 0.561372 of unit cell:	Completed after 17 iterations at t[s]:   8982.71
	FillingsUpdate:  mu: -0.244750000  nElectrons: 493.311784  magneticMoment: [ Abs: 0.00000  Tot: +0.00000 ]
	SubspaceRotationAdjust: set factor to 0.0379
ElecMinimize: Iter:   3  G: -3717.041317444201013  |grad|_K:  1.158e-05  alpha:  1.009e-01  linmin: -5.296e-04  t[s]:   9065.87
	Linear fluid (dielectric constant: 78.4, screening length: 8.12261 Bohr) occupying 0.562943 of unit cell:	Completed after 17 iterations at t[s]:   9142.05
	Linear fluid (dielectric constant: 78.4, screening length: 8.12261 Bohr) occupying 0.563123 of unit cell:	Completed after 15 iterations at t[s]:   9197.70
	FillingsUpdate:  mu: -0.244750000  nElectrons: 493.092771  magneticMoment: [ Abs: 0.00000  Tot: +0.00000 ]
	SubspaceRotationAdjust: set factor to 0.0267
ElecMinimize: Iter:   4  G: -3717.048026272169864  |grad|_K:  8.258e-06  alpha:  1.127e-01  linmin: -7.472e-04  t[s]:   9280.92
	Linear fluid (dielectric constant: 78.4, screening length: 8.12261 Bohr) occupying 0.564138 of unit cell:	Completed after 15 iterations at t[s]:   9356.70
	Linear fluid (dielectric constant: 78.4, screening length: 8.12261 Bohr) occupying 0.564583 of unit cell:	Completed after 14 iterations at t[s]:   9412.39
	FillingsUpdate:  mu: -0.244750000  nElectrons: 493.018623  magneticMoment: [ Abs: 0.00000  Tot: +0.00000 ]
	SubspaceRotationAdjust: set factor to 0.0377
ElecMinimize: Iter:   5  G: -3717.053025712361432  |grad|_K:  6.892e-06  alpha:  1.636e-01  linmin: -1.573e-04  t[s]:   9495.69
	Linear fluid (dielectric constant: 78.4, screening length: 8.12261 Bohr) occupying 0.565790 of unit cell:	Completed after 15 iterations at t[s]:   9571.34
	Linear fluid (dielectric constant: 78.4, screening length: 8.12261 Bohr) occupying 0.566344 of unit cell:	Completed after 14 iterations at t[s]:   9626.88
	FillingsUpdate:  mu: -0.244750000  nElectrons: 492.979965  magneticMoment: [ Abs: 0.00000  Tot: +0.00000 ]
	SubspaceRotationAdjust: set factor to 0.0382
ElecMinimize: Iter:   6  G: -3717.057939201556110  |grad|_K:  7.231e-06  alpha:  2.407e-01  linmin:  2.608e-05  t[s]:   9710.24
	Linear fluid (dielectric constant: 78.4, screening length: 8.12261 Bohr) occupying 0.568530 of unit cell:	Completed after 16 iterations at t[s]:   9785.95
	Linear fluid (dielectric constant: 78.4, screening length: 8.12261 Bohr) occupying 0.568136 of unit cell:	Completed after 12 iterations at t[s]:   9841.20
	FillingsUpdate:  mu: -0.244750000  nElectrons: 492.931521  magneticMoment: [ Abs: 0.00000  Tot: +0.00000 ]
	SubspaceRotationAdjust: set factor to 0.0477
ElecMinimize: Iter:   7  G: -3717.062292331380831  |grad|_K:  6.488e-06  alpha:  1.959e-01  linmin: -5.071e-05  t[s]:   9924.54
	Linear fluid (dielectric constant: 78.4, screening length: 8.12261 Bohr) occupying 0.569736 of unit cell:	Completed after 16 iterations at t[s]:  10000.40
	Linear fluid (dielectric constant: 78.4, screening length: 8.12261 Bohr) occupying 0.569601 of unit cell:	Completed after 11 iterations at t[s]:  10055.38
	FillingsUpdate:  mu: -0.244750000  nElectrons: 492.871661  magneticMoment: [ Abs: 0.00000  Tot: +0.00000 ]
	SubspaceRotationAdjust: set factor to 0.0581
ElecMinimize: Iter:   8  G: -3717.065499819421348  |grad|_K:  5.744e-06  alpha:  1.788e-01  linmin: -2.021e-04  t[s]:  10139.09
	Linear fluid (dielectric constant: 78.4, screening length: 8.12261 Bohr) occupying 0.570869 of unit cell:	Completed after 16 iterations at t[s]:  10215.13
	Linear fluid (dielectric constant: 78.4, screening length: 8.12261 Bohr) occupying 0.571012 of unit cell:	Completed after 13 iterations at t[s]:  10270.93
	FillingsUpdate:  mu: -0.244750000  nElectrons: 492.807802  magneticMoment: [ Abs: 0.00000  Tot: +0.00000 ]
	SubspaceRotationAdjust: set factor to 0.0624
ElecMinimize: Iter:   9  G: -3717.068347394180819  |grad|_K:  5.788e-06  alpha:  1.999e-01  linmin: -2.512e-04  t[s]:  10354.43
	Linear fluid (dielectric constant: 78.4, screening length: 8.12261 Bohr) occupying 0.572494 of unit cell:	Completed after 10 iterations at t[s]:  10429.05
	Linear fluid (dielectric constant: 78.4, screening length: 8.12261 Bohr) occupying 0.572551 of unit cell:	Completed after 6 iterations at t[s]:  10482.52
	FillingsUpdate:  mu: -0.244750000  nElectrons: 492.765985  magneticMoment: [ Abs: 0.00001  Tot: +0.00000 ]
	SubspaceRotationAdjust: set factor to 0.0743
ElecMinimize: Iter:  10  G: -3717.071368589781741  |grad|_K:  5.587e-06  alpha:  2.081e-01  linmin: -1.848e-04  t[s]:  10566.05
	Linear fluid (dielectric constant: 78.4, screening length: 8.12261 Bohr) occupying 0.573914 of unit cell:	Completed after 16 iterations at t[s]:  10642.00
	Linear fluid (dielectric constant: 78.4, screening length: 8.12261 Bohr) occupying 0.573740 of unit cell:	Completed after 13 iterations at t[s]:  10697.44
	FillingsUpdate:  mu: -0.244750000  nElectrons: 492.760310  magneticMoment: [ Abs: 0.00001  Tot: +0.00000 ]
	SubspaceRotationAdjust: set factor to 0.0842
ElecMinimize: Iter:  11  G: -3717.073783767525583  |grad|_K:  5.060e-06  alpha:  1.796e-01  linmin: -1.631e-04  t[s]:  10780.81
	Linear fluid (dielectric constant: 78.4, screening length: 8.12261 Bohr) occupying 0.574630 of unit cell:	Completed after 15 iterations at t[s]:  10856.56
	Linear fluid (dielectric constant: 78.4, screening length: 8.12261 Bohr) occupying 0.574791 of unit cell:	Completed after 13 iterations at t[s]:  10911.94
	FillingsUpdate:  mu: -0.244750000  nElectrons: 492.751895  magneticMoment: [ Abs: 0.00001  Tot: +0.00000 ]
	SubspaceRotationAdjust: set factor to 0.0952
ElecMinimize: Iter:  12  G: -3717.076170593084498  |grad|_K:  5.537e-06  alpha:  2.153e-01  linmin: -1.813e-04  t[s]:  10995.44
	Linear fluid (dielectric constant: 78.4, screening length: 8.12261 Bohr) occupying 0.575804 of unit cell:	Completed after 17 iterations at t[s]:  11072.06
	Linear fluid (dielectric constant: 78.4, screening length: 8.12261 Bohr) occupying 0.575781 of unit cell:	Completed after 6 iterations at t[s]:  11126.20
	FillingsUpdate:  mu: -0.244750000  nElectrons: 492.695928  magneticMoment: [ Abs: 0.00001  Tot: +0.00000 ]
	SubspaceRotationAdjust: set factor to 0.114
ElecMinimize: Iter:  13  G: -3717.078956175014810  |grad|_K:  5.393e-06  alpha:  2.096e-01  linmin: -3.806e-05  t[s]:  11209.62
	Linear fluid (dielectric constant: 78.4, screening length: 8.12261 Bohr) occupying 0.576483 of unit cell:	Completed after 17 iterations at t[s]:  11285.66
	Linear fluid (dielectric constant: 78.4, screening length: 8.12261 Bohr) occupying 0.576418 of unit cell:	Completed after 13 iterations at t[s]:  11341.18
	FillingsUpdate:  mu: -0.244750000  nElectrons: 492.633165  magneticMoment: [ Abs: 0.00001  Tot: +0.00000 ]
	SubspaceRotationAdjust: set factor to 0.115
ElecMinimize: Iter:  14  G: -3717.081267970258523  |grad|_K:  5.293e-06  alpha:  1.867e-01  linmin: -1.151e-04  t[s]:  11424.78
	Linear fluid (dielectric constant: 78.4, screening length: 8.12261 Bohr) occupying 0.576911 of unit cell:	Completed after 16 iterations at t[s]:  11500.93
	Linear fluid (dielectric constant: 78.4, screening length: 8.12261 Bohr) occupying 0.576974 of unit cell:	Completed after 12 iterations at t[s]:  11556.44
	FillingsUpdate:  mu: -0.244750000  nElectrons: 492.612885  magneticMoment: [ Abs: 0.00001  Tot: -0.00000 ]
	SubspaceRotationAdjust: set factor to 0.129
ElecMinimize: Iter:  15  G: -3717.083885818066392  |grad|_K:  5.072e-06  alpha:  2.158e-01  linmin: -5.430e-05  t[s]:  11639.85
	Linear fluid (dielectric constant: 78.4, screening length: 8.12261 Bohr) occupying 0.577416 of unit cell:	Completed after 16 iterations at t[s]:  11716.05
	Linear fluid (dielectric constant: 78.4, screening length: 8.12261 Bohr) occupying 0.577368 of unit cell:	Completed after 13 iterations at t[s]:  11771.37
	FillingsUpdate:  mu: -0.244750000  nElectrons: 492.628888  magneticMoment: [ Abs: 0.00001  Tot: -0.00000 ]
	SubspaceRotationAdjust: set factor to 0.125
ElecMinimize: Iter:  16  G: -3717.085964913180305  |grad|_K:  4.576e-06  alpha:  1.888e-01  linmin: -4.894e-05  t[s]:  11854.85
	Linear fluid (dielectric constant: 78.4, screening length: 8.12261 Bohr) occupying 0.577700 of unit cell:	Completed after 12 iterations at t[s]:  11929.74
	Linear fluid (dielectric constant: 78.4, screening length: 8.12261 Bohr) occupying 0.577729 of unit cell:	Completed after 7 iterations at t[s]:  11983.90
	FillingsUpdate:  mu: -0.244750000  nElectrons: 492.615961  magneticMoment: [ Abs: 0.00000  Tot: -0.00000 ]
	SubspaceRotationAdjust: set factor to 0.144
ElecMinimize: Iter:  17  G: -3717.087826994225452  |grad|_K:  4.049e-06  alpha:  2.074e-01  linmin: -3.800e-05  t[s]:  12067.44
	Linear fluid (dielectric constant: 78.4, screening length: 8.12261 Bohr) occupying 0.578059 of unit cell:	Completed after 17 iterations at t[s]:  12143.76
	Linear fluid (dielectric constant: 78.4, screening length: 8.12261 Bohr) occupying 0.578028 of unit cell:	Completed after 12 iterations at t[s]:  12199.17
	FillingsUpdate:  mu: -0.244750000  nElectrons: 492.572798  magneticMoment: [ Abs: 0.00000  Tot: -0.00000 ]
	SubspaceRotationAdjust: set factor to 0.142
ElecMinimize: Iter:  18  G: -3717.089139454028100  |grad|_K:  3.589e-06  alpha:  1.871e-01  linmin:  2.826e-05  t[s]:  12282.45
	Linear fluid (dielectric constant: 78.4, screening length: 8.12261 Bohr) occupying 0.578329 of unit cell:	Completed after 15 iterations at t[s]:  12358.33
	Linear fluid (dielectric constant: 78.4, screening length: 8.12261 Bohr) occupying 0.578365 of unit cell:	Completed after 11 iterations at t[s]:  12413.58
	FillingsUpdate:  mu: -0.244750000  nElectrons: 492.543696  magneticMoment: [ Abs: 0.00000  Tot: +0.00000 ]
	SubspaceRotationAdjust: set factor to 0.16
ElecMinimize: Iter:  19  G: -3717.090288977414275  |grad|_K:  3.235e-06  alpha:  2.107e-01  linmin: -1.783e-06  t[s]:  12496.79
	Linear fluid (dielectric constant: 78.4, screening length: 8.12261 Bohr) occupying 0.578689 of unit cell:	Completed after 14 iterations at t[s]:  12571.79
	Linear fluid (dielectric constant: 78.4, screening length: 8.12261 Bohr) occupying 0.578623 of unit cell:	Completed after 11 iterations at t[s]:  12626.61
	FillingsUpdate:  mu: -0.244750000  nElectrons: 492.545957  magneticMoment: [ Abs: 0.00000  Tot: +0.00000 ]
	SubspaceRotationAdjust: set factor to 0.163
ElecMinimize: Iter:  20  G: -3717.091029107966278  |grad|_K:  2.661e-06  alpha:  1.664e-01  linmin: -2.887e-06  t[s]:  12709.61
	Linear fluid (dielectric constant: 78.4, screening length: 8.12261 Bohr) occupying 0.578819 of unit cell:	Completed after 14 iterations at t[s]:  12785.12
	Linear fluid (dielectric constant: 78.4, screening length: 8.12261 Bohr) occupying 0.578867 of unit cell:	Completed after 9 iterations at t[s]:  12839.73
	FillingsUpdate:  mu: -0.244750000  nElectrons: 492.531643  magneticMoment: [ Abs: 0.00000  Tot: +0.00000 ]
	SubspaceRotationAdjust: set factor to 0.19
ElecMinimize: Iter:  21  G: -3717.091657760558974  |grad|_K:  2.399e-06  alpha:  2.087e-01  linmin: -7.520e-07  t[s]:  12923.01
	Linear fluid (dielectric constant: 78.4, screening length: 8.12261 Bohr) occupying 0.579069 of unit cell:	Completed after 16 iterations at t[s]:  12998.66
	Linear fluid (dielectric constant: 78.4, screening length: 8.12261 Bohr) occupying 0.579036 of unit cell:	Completed after 13 iterations at t[s]:  13054.35
	FillingsUpdate:  mu: -0.244750000  nElectrons: 492.503066  magneticMoment: [ Abs: 0.00000  Tot: +0.00000 ]
	SubspaceRotationAdjust: set factor to 0.187
ElecMinimize: Iter:  22  G: -3717.092083948085474  |grad|_K:  2.184e-06  alpha:  1.739e-01  linmin:  1.906e-05  t[s]:  13137.72
	Linear fluid (dielectric constant: 78.4, screening length: 8.12261 Bohr) occupying 0.579176 of unit cell:	Completed after 15 iterations at t[s]:  13213.08
	Linear fluid (dielectric constant: 78.4, screening length: 8.12261 Bohr) occupying 0.579191 of unit cell:	Completed after 7 iterations at t[s]:  13267.28
	FillingsUpdate:  mu: -0.244750000  nElectrons: 492.496155  magneticMoment: [ Abs: 0.00000  Tot: +0.00000 ]
	SubspaceRotationAdjust: set factor to 0.218
ElecMinimize: Iter:  23  G: -3717.092474782151385  |grad|_K:  1.822e-06  alpha:  1.931e-01  linmin: -5.427e-07  t[s]:  13350.54
	Linear fluid (dielectric constant: 78.4, screening length: 8.12261 Bohr) occupying 0.579292 of unit cell:	Completed after 14 iterations at t[s]:  13425.39
	Linear fluid (dielectric constant: 78.4, screening length: 8.12261 Bohr) occupying 0.579290 of unit cell:	Completed after 2 iterations at t[s]:  13478.43
	FillingsUpdate:  mu: -0.244750000  nElectrons: 492.498752  magneticMoment: [ Abs: 0.00000  Tot: +0.00000 ]
	SubspaceRotationAdjust: set factor to 0.209
ElecMinimize: Iter:  24  G: -3717.092742582537085  |grad|_K:  1.774e-06  alpha:  1.896e-01  linmin:  2.899e-06  t[s]:  13562.05
	Linear fluid (dielectric constant: 78.4, screening length: 8.12261 Bohr) occupying 0.579369 of unit cell:	Completed after 15 iterations at t[s]:  13637.71
	Linear fluid (dielectric constant: 78.4, screening length: 8.12261 Bohr) occupying 0.579354 of unit cell:	Completed after 12 iterations at t[s]:  13693.05
	FillingsUpdate:  mu: -0.244750000  nElectrons: 492.481642  magneticMoment: [ Abs: 0.00000  Tot: +0.00000 ]
	SubspaceRotationAdjust: set factor to 0.187
ElecMinimize: Iter:  25  G: -3717.092946048396698  |grad|_K:  1.442e-06  alpha:  1.519e-01  linmin:  5.197e-06  t[s]:  13776.36
	Linear fluid (dielectric constant: 78.4, screening length: 8.12261 Bohr) occupying 0.579388 of unit cell:	Completed after 6 iterations at t[s]:  13849.68
	Linear fluid (dielectric constant: 78.4, screening length: 8.12261 Bohr) occupying 0.579399 of unit cell:	Completed after 4 iterations at t[s]:  13903.07
	FillingsUpdate:  mu: -0.244750000  nElectrons: 492.478388  magneticMoment: [ Abs: 0.00000  Tot: +0.00000 ]
	SubspaceRotationAdjust: set factor to 0.208
ElecMinimize: Iter:  26  G: -3717.093124473820353  |grad|_K:  1.223e-06  alpha:  2.019e-01  linmin:  3.310e-06  t[s]:  13986.24
	Linear fluid (dielectric constant: 78.4, screening length: 8.12261 Bohr) occupying 0.579420 of unit cell:	Completed after 14 iterations at t[s]:  14061.51
	Linear fluid (dielectric constant: 78.4, screening length: 8.12261 Bohr) occupying 0.579417 of unit cell:	Completed after 10 iterations at t[s]:  14116.20
	FillingsUpdate:  mu: -0.244750000  nElectrons: 492.486829  magneticMoment: [ Abs: 0.00000  Tot: +0.00000 ]
	SubspaceRotationAdjust: set factor to 0.192
ElecMinimize: Iter:  27  G: -3717.093235397974695  |grad|_K:  1.107e-06  alpha:  1.744e-01  linmin:  1.900e-05  t[s]:  14199.86
	Linear fluid (dielectric constant: 78.4, screening length: 8.12261 Bohr) occupying 0.579419 of unit cell:	Completed after 12 iterations at t[s]:  14274.49
	Linear fluid (dielectric constant: 78.4, screening length: 8.12261 Bohr) occupying 0.579419 of unit cell:	Completed after 0 iterations at t[s]:  14326.82
	FillingsUpdate:  mu: -0.244750000  nElectrons: 492.484064  magneticMoment: [ Abs: 0.00000  Tot: +0.00000 ]
	SubspaceRotationAdjust: set factor to 0.191
ElecMinimize: Iter:  28  G: -3717.093326608669031  |grad|_K:  8.987e-07  alpha:  1.754e-01  linmin:  5.205e-07  t[s]:  14410.13
	Linear fluid (dielectric constant: 78.4, screening length: 8.12261 Bohr) occupying 0.579408 of unit cell:	Completed after 11 iterations at t[s]:  14484.65
	Linear fluid (dielectric constant: 78.4, screening length: 8.12261 Bohr) occupying 0.579406 of unit cell:	Completed after 2 iterations at t[s]:  14537.42
	FillingsUpdate:  mu: -0.244750000  nElectrons: 492.485634  magneticMoment: [ Abs: 0.00000  Tot: +0.00000 ]
	SubspaceRotationAdjust: set factor to 0.204
ElecMinimize: Iter:  29  G: -3717.093397315246875  |grad|_K:  7.767e-07  alpha:  2.058e-01  linmin: -7.526e-06  t[s]:  14620.70
	Linear fluid (dielectric constant: 78.4, screening length: 8.12261 Bohr) occupying 0.579382 of unit cell:	Completed after 13 iterations at t[s]:  14695.58
	Linear fluid (dielectric constant: 78.4, screening length: 8.12261 Bohr) occupying 0.579386 of unit cell:	Completed after 10 iterations at t[s]:  14750.28
	FillingsUpdate:  mu: -0.244750000  nElectrons: 492.492982  magneticMoment: [ Abs: 0.00000  Tot: +0.00000 ]
	SubspaceRotationAdjust: set factor to 0.191
ElecMinimize: Iter:  30  G: -3717.093441948696636  |grad|_K:  6.819e-07  alpha:  1.736e-01  linmin:  1.868e-05  t[s]:  14833.60
	Linear fluid (dielectric constant: 78.4, screening length: 8.12261 Bohr) occupying 0.579359 of unit cell:	Completed after 11 iterations at t[s]:  14908.17
	Linear fluid (dielectric constant: 78.4, screening length: 8.12261 Bohr) occupying 0.579356 of unit cell:	Completed after 2 iterations at t[s]:  14961.09
	FillingsUpdate:  mu: -0.244750000  nElectrons: 492.492803  magneticMoment: [ Abs: 0.00000  Tot: +0.00000 ]
	SubspaceRotationAdjust: set factor to 0.202
ElecMinimize: Iter:  31  G: -3717.093479527365616  |grad|_K:  5.692e-07  alpha:  1.905e-01  linmin: -9.860e-06  t[s]:  15044.47
	Linear fluid (dielectric constant: 78.4, screening length: 8.12261 Bohr) occupying 0.579325 of unit cell:	Completed after 11 iterations at t[s]:  15119.18
	Linear fluid (dielectric constant: 78.4, screening length: 8.12261 Bohr) occupying 0.579322 of unit cell:	Completed after 2 iterations at t[s]:  15171.76
	FillingsUpdate:  mu: -0.244750000  nElectrons: 492.493398  magneticMoment: [ Abs: 0.00000  Tot: +0.00000 ]
	SubspaceRotationAdjust: set factor to 0.216
ElecMinimize: Iter:  32  G: -3717.093508575007036  |grad|_K:  5.208e-07  alpha:  2.104e-01  linmin: -2.214e-05  t[s]:  15255.00
	Linear fluid (dielectric constant: 78.4, screening length: 8.12261 Bohr) occupying 0.579285 of unit cell:	Completed after 13 iterations at t[s]:  15330.07
	Linear fluid (dielectric constant: 78.4, screening length: 8.12261 Bohr) occupying 0.579292 of unit cell:	Completed after 10 iterations at t[s]:  15384.55
	FillingsUpdate:  mu: -0.244750000  nElectrons: 492.498908  magneticMoment: [ Abs: 0.00000  Tot: +0.00000 ]
	SubspaceRotationAdjust: set factor to 0.205
ElecMinimize: Iter:  33  G: -3717.093528760522531  |grad|_K:  4.674e-07  alpha:  1.741e-01  linmin:  1.505e-05  t[s]:  15467.45
	Linear fluid (dielectric constant: 78.4, screening length: 8.12261 Bohr) occupying 0.579261 of unit cell:	Completed after 11 iterations at t[s]:  15541.87
	Linear fluid (dielectric constant: 78.4, screening length: 8.12261 Bohr) occupying 0.579259 of unit cell:	Completed after 0 iterations at t[s]:  15594.02
	FillingsUpdate:  mu: -0.244750000  nElectrons: 492.499504  magneticMoment: [ Abs: 0.00000  Tot: +0.00000 ]
	SubspaceRotationAdjust: set factor to 0.223
ElecMinimize: Iter:  34  G: -3717.093546073156176  |grad|_K:  3.794e-07  alpha:  1.869e-01  linmin: -2.136e-05  t[s]:  15677.46
	Linear fluid (dielectric constant: 78.4, screening length: 8.12261 Bohr) occupying 0.579234 of unit cell:	Completed after 10 iterations at t[s]:  15751.39
	Linear fluid (dielectric constant: 78.4, screening length: 8.12261 Bohr) occupying 0.579232 of unit cell:	Completed after 2 iterations at t[s]:  15804.36
	FillingsUpdate:  mu: -0.244750000  nElectrons: 492.500273  magneticMoment: [ Abs: 0.00000  Tot: +0.00000 ]
	SubspaceRotationAdjust: set factor to 0.235
ElecMinimize: Iter:  35  G: -3717.093558721162481  |grad|_K:  3.576e-07  alpha:  2.055e-01  linmin: -3.636e-05  t[s]:  15887.71
	Linear fluid (dielectric constant: 78.4, screening length: 8.12261 Bohr) occupying 0.579205 of unit cell:	Completed after 12 iterations at t[s]:  15962.94
	Linear fluid (dielectric constant: 78.4, screening length: 8.12261 Bohr) occupying 0.579210 of unit cell:	Completed after 7 iterations at t[s]:  16016.79
	FillingsUpdate:  mu: -0.244750000  nElectrons: 492.504512  magneticMoment: [ Abs: 0.00000  Tot: +0.00000 ]
	SubspaceRotationAdjust: set factor to 0.213
ElecMinimize: Iter:  36  G: -3717.093568081327703  |grad|_K:  3.423e-07  alpha:  1.703e-01  linmin:  2.140e-05  t[s]:  16100.14
	Linear fluid (dielectric constant: 78.4, screening length: 8.12261 Bohr) occupying 0.579187 of unit cell:	Completed after 10 iterations at t[s]:  16174.65
	Linear fluid (dielectric constant: 78.4, screening length: 8.12261 Bohr) occupying 0.579186 of unit cell:	Completed after 0 iterations at t[s]:  16226.68
	FillingsUpdate:  mu: -0.244750000  nElectrons: 492.504504  magneticMoment: [ Abs: 0.00000  Tot: +0.00000 ]
	SubspaceRotationAdjust: set factor to 0.221
ElecMinimize: Iter:  37  G: -3717.093576998270692  |grad|_K:  2.797e-07  alpha:  1.799e-01  linmin: -2.417e-05  t[s]:  16310.26
	Linear fluid (dielectric constant: 78.4, screening length: 8.12261 Bohr) occupying 0.579169 of unit cell:	Completed after 9 iterations at t[s]:  16384.57
	Linear fluid (dielectric constant: 78.4, screening length: 8.12261 Bohr) occupying 0.579167 of unit cell:	Completed after 2 iterations at t[s]:  16437.83
	FillingsUpdate:  mu: -0.244750000  nElectrons: 492.504830  magneticMoment: [ Abs: 0.00000  Tot: +0.00000 ]
	SubspaceRotationAdjust: set factor to 0.233
ElecMinimize: Iter:  38  G: -3717.093583836139260  |grad|_K:  2.553e-07  alpha:  2.039e-01  linmin: -3.075e-05  t[s]:  16521.42
	Linear fluid (dielectric constant: 78.4, screening length: 8.12261 Bohr) occupying 0.579151 of unit cell:	Completed after 11 iterations at t[s]:  16595.73
	Linear fluid (dielectric constant: 78.4, screening length: 8.12261 Bohr) occupying 0.579154 of unit cell:	Completed after 6 iterations at t[s]:  16649.55
	FillingsUpdate:  mu: -0.244750000  nElectrons: 492.507409  magneticMoment: [ Abs: 0.00000  Tot: +0.00000 ]
	SubspaceRotationAdjust: set factor to 0.21
ElecMinimize: Iter:  39  G: -3717.093588590192667  |grad|_K:  2.425e-07  alpha:  1.698e-01  linmin:  2.807e-05  t[s]:  16732.88
	Linear fluid (dielectric constant: 78.4, screening length: 8.12261 Bohr) occupying 0.579141 of unit cell:	Completed after 11 iterations at t[s]:  16807.25
	Linear fluid (dielectric constant: 78.4, screening length: 8.12261 Bohr) occupying 0.579141 of unit cell:	Completed after 0 iterations at t[s]:  16859.46
	FillingsUpdate:  mu: -0.244750000  nElectrons: 492.506960  magneticMoment: [ Abs: 0.00000  Tot: -0.00000 ]
	SubspaceRotationAdjust: set factor to 0.205
ElecMinimize: Iter:  40  G: -3717.093592796104986  |grad|_K:  1.953e-07  alpha:  1.696e-01  linmin: -1.663e-05  t[s]:  16942.56
	Linear fluid (dielectric constant: 78.4, screening length: 8.12261 Bohr) occupying 0.579133 of unit cell:	Completed after 2 iterations at t[s]:  17014.94
	Linear fluid (dielectric constant: 78.4, screening length: 8.12261 Bohr) occupying 0.579132 of unit cell:	Completed after 0 iterations at t[s]:  17067.07
	FillingsUpdate:  mu: -0.244750000  nElectrons: 492.507379  magneticMoment: [ Abs: 0.00000  Tot: -0.00000 ]
	SubspaceRotationAdjust: set factor to 0.219
ElecMinimize: Iter:  41  G: -3717.093596129599518  |grad|_K:  1.650e-07  alpha:  2.043e-01  linmin: -2.846e-05  t[s]:  17150.46
	Linear fluid (dielectric constant: 78.4, screening length: 8.12261 Bohr) occupying 0.579125 of unit cell:	Completed after 6 iterations at t[s]:  17223.86
	Linear fluid (dielectric constant: 78.4, screening length: 8.12261 Bohr) occupying 0.579125 of unit cell:	Completed after 0 iterations at t[s]:  17276.12
	FillingsUpdate:  mu: -0.244750000  nElectrons: 492.508602  magneticMoment: [ Abs: 0.00000  Tot: -0.00000 ]
	SubspaceRotationAdjust: set factor to 0.223
ElecMinimize: Iter:  42  G: -3717.093598528651000  |grad|_K:  1.433e-07  alpha:  2.057e-01  linmin:  1.265e-05  t[s]:  17359.43
	Linear fluid (dielectric constant: 78.4, screening length: 8.12261 Bohr) occupying 0.579119 of unit cell:	Completed after 2 iterations at t[s]:  17431.74
	Linear fluid (dielectric constant: 78.4, screening length: 8.12261 Bohr) occupying 0.579119 of unit cell:	Completed after 0 iterations at t[s]:  17483.88
	FillingsUpdate:  mu: -0.244750000  nElectrons: 492.509062  magneticMoment: [ Abs: 0.00000  Tot: -0.00000 ]
	SubspaceRotationAdjust: set factor to 0.236
ElecMinimize: Iter:  43  G: -3717.093600311658065  |grad|_K:  1.225e-07  alpha:  2.048e-01  linmin: -1.044e-05  t[s]:  17567.35
	Linear fluid (dielectric constant: 78.4, screening length: 8.12261 Bohr) occupying 0.579115 of unit cell:	Completed after 7 iterations at t[s]:  17640.90
	Linear fluid (dielectric constant: 78.4, screening length: 8.12261 Bohr) occupying 0.579115 of unit cell:	Completed after 0 iterations at t[s]:  17693.13
	FillingsUpdate:  mu: -0.244750000  nElectrons: 492.508880  magneticMoment: [ Abs: 0.00000  Tot: -0.00000 ]
	SubspaceRotationAdjust: set factor to 0.236
ElecMinimize: Iter:  44  G: -3717.093601605479762  |grad|_K:  1.119e-07  alpha:  2.021e-01  linmin:  7.167e-06  t[s]:  17776.31
	Linear fluid (dielectric constant: 78.4, screening length: 8.12261 Bohr) occupying 0.579112 of unit cell:	Completed after 7 iterations at t[s]:  17850.14
	Linear fluid (dielectric constant: 78.4, screening length: 8.12261 Bohr) occupying 0.579112 of unit cell:	Completed after 0 iterations at t[s]:  17902.20
	FillingsUpdate:  mu: -0.244750000  nElectrons: 492.509652  magneticMoment: [ Abs: 0.00000  Tot: -0.00000 ]
	SubspaceRotationAdjust: set factor to 0.223
ElecMinimize: Iter:  45  G: -3717.093602583426673  |grad|_K:  9.854e-08  alpha:  1.842e-01  linmin:  1.590e-05  t[s]:  17985.80
	Linear fluid (dielectric constant: 78.4, screening length: 8.12261 Bohr) occupying 0.579109 of unit cell:	Completed after 6 iterations at t[s]:  18059.06
	Linear fluid (dielectric constant: 78.4, screening length: 8.12261 Bohr) occupying 0.579109 of unit cell:	Completed after 0 iterations at t[s]:  18111.01
	FillingsUpdate:  mu: -0.244750000  nElectrons: 492.509510  magneticMoment: [ Abs: 0.00000  Tot: -0.00000 ]
	SubspaceRotationAdjust: set factor to 0.221
ElecMinimize: Iter:  46  G: -3717.093603331467875  |grad|_K:  8.130e-08  alpha:  1.823e-01  linmin: -3.271e-05  t[s]:  18194.44
	Linear fluid (dielectric constant: 78.4, screening length: 8.12261 Bohr) occupying 0.579107 of unit cell:	Completed after 2 iterations at t[s]:  18267.09
	Linear fluid (dielectric constant: 78.4, screening length: 8.12261 Bohr) occupying 0.579107 of unit cell:	Completed after 0 iterations at t[s]:  18319.04
	FillingsUpdate:  mu: -0.244750000  nElectrons: 492.509704  magneticMoment: [ Abs: 0.00000  Tot: -0.00000 ]
	SubspaceRotationAdjust: set factor to 0.232
ElecMinimize: Iter:  47  G: -3717.093603914338473  |grad|_K:  6.911e-08  alpha:  2.048e-01  linmin: -1.001e-05  t[s]:  18402.49
	Linear fluid (dielectric constant: 78.4, screening length: 8.12261 Bohr) occupying 0.579105 of unit cell:	Completed after 2 iterations at t[s]:  18474.87
	Linear fluid (dielectric constant: 78.4, screening length: 8.12261 Bohr) occupying 0.579105 of unit cell:	Completed after 0 iterations at t[s]:  18526.84
	FillingsUpdate:  mu: -0.244750000  nElectrons: 492.510124  magneticMoment: [ Abs: 0.00000  Tot: -0.00000 ]
	SubspaceRotationAdjust: set factor to 0.238
ElecMinimize: Iter:  48  G: -3717.093604323475574  |grad|_K:  5.849e-08  alpha:  2.006e-01  linmin: -1.880e-06  t[s]:  18610.27
	Linear fluid (dielectric constant: 78.4, screening length: 8.12261 Bohr) occupying 0.579103 of unit cell:	Completed after 3 iterations at t[s]:  18683.28
	Linear fluid (dielectric constant: 78.4, screening length: 8.12261 Bohr) occupying 0.579103 of unit cell:	Completed after 0 iterations at t[s]:  18735.16
	FillingsUpdate:  mu: -0.244750000  nElectrons: 492.510312  magneticMoment: [ Abs: 0.00000  Tot: -0.00000 ]
	SubspaceRotationAdjust: set factor to 0.252
ElecMinimize: Iter:  49  G: -3717.093604616802622  |grad|_K:  5.158e-08  alpha:  2.016e-01  linmin: -1.663e-05  t[s]:  18818.33
	Linear fluid (dielectric constant: 78.4, screening length: 8.12261 Bohr) occupying 0.579102 of unit cell:	Completed after 2 iterations at t[s]:  18890.81
	Linear fluid (dielectric constant: 78.4, screening length: 8.12261 Bohr) occupying 0.579103 of unit cell:	Completed after 0 iterations at t[s]:  18942.88
	FillingsUpdate:  mu: -0.244750000  nElectrons: 492.510050  magneticMoment: [ Abs: 0.00000  Tot: -0.00000 ]
	SubspaceRotationAdjust: set factor to 0.256
ElecMinimize: Iter:  50  G: -3717.093604832692108  |grad|_K:  4.394e-08  alpha:  1.889e-01  linmin:  1.426e-05  t[s]:  19026.20
	Linear fluid (dielectric constant: 78.4, screening length: 8.12261 Bohr) occupying 0.579102 of unit cell:	Completed after 0 iterations at t[s]:  19098.13
	Linear fluid (dielectric constant: 78.4, screening length: 8.12261 Bohr) occupying 0.579102 of unit cell:	Completed after 0 iterations at t[s]:  19150.27
	FillingsUpdate:  mu: -0.244750000  nElectrons: 492.509996  magneticMoment: [ Abs: 0.00000  Tot: -0.00000 ]
	SubspaceRotationAdjust: set factor to 0.279
ElecMinimize: Iter:  51  G: -3717.093605000327443  |grad|_K:  3.771e-08  alpha:  2.056e-01  linmin: -1.951e-05  t[s]:  19233.68
	Linear fluid (dielectric constant: 78.4, screening length: 8.12261 Bohr) occupying 0.579102 of unit cell:	Completed after 1 iterations at t[s]:  19306.01
	Linear fluid (dielectric constant: 78.4, screening length: 8.12261 Bohr) occupying 0.579102 of unit cell:	Completed after 0 iterations at t[s]:  19358.61
	FillingsUpdate:  mu: -0.244750000  nElectrons: 492.510144  magneticMoment: [ Abs: 0.00001  Tot: -0.00000 ]
	SubspaceRotationAdjust: set factor to 0.302
ElecMinimize: Iter:  52  G: -3717.093605122557165  |grad|_K:  3.283e-08  alpha:  1.988e-01  linmin: -1.768e-05  t[s]:  19442.00
	Linear fluid (dielectric constant: 78.4, screening length: 8.12261 Bohr) occupying 0.579102 of unit cell:	Completed after 2 iterations at t[s]:  19514.61
	Linear fluid (dielectric constant: 78.4, screening length: 8.12261 Bohr) occupying 0.579102 of unit cell:	Completed after 0 iterations at t[s]:  19566.77
	FillingsUpdate:  mu: -0.244750000  nElectrons: 492.510301  magneticMoment: [ Abs: 0.00001  Tot: -0.00000 ]
	SubspaceRotationAdjust: set factor to 0.31
ElecMinimize: Iter:  53  G: -3717.093605209681300  |grad|_K:  3.209e-08  alpha:  1.891e-01  linmin: -1.541e-05  t[s]:  19649.94
	Linear fluid (dielectric constant: 78.4, screening length: 8.12261 Bohr) occupying 0.579103 of unit cell:	Completed after 3 iterations at t[s]:  19722.38
	Linear fluid (dielectric constant: 78.4, screening length: 8.12261 Bohr) occupying 0.579103 of unit cell:	Completed after 0 iterations at t[s]:  19774.39
	FillingsUpdate:  mu: -0.244750000  nElectrons: 492.510028  magneticMoment: [ Abs: 0.00001  Tot: -0.00000 ]
	SubspaceRotationAdjust: set factor to 0.32
ElecMinimize: Iter:  54  G: -3717.093605283745092  |grad|_K:  2.669e-08  alpha:  1.664e-01  linmin:  2.358e-05  t[s]:  19857.79
ElecMinimize: Converged (|Delta G|<1.000000e-07 for 2 iters).
Setting wave functions to eigenvectors of Hamiltonian
Converging empty states (this may take a while): |deigs|: 2.334e-03
Single-point solvation energy estimate, DeltaG = -0.076953732970651

Computing DFT-D3 correction:
# coordination-number Ag 6.886 8.940 8.236 8.999 9.039 8.989 9.060 9.023 8.980 8.222 4.784 8.993 5.431 8.993 8.989 8.980 9.023 9.060 8.940 9.040 8.999 8.236 4.784 8.222 6.886 5.431
# diagonal-C6 Ag 268.61 268.61 268.61 268.61 268.61 268.61 268.61 268.61 268.61 268.61 268.61 268.61 268.61 268.61 268.61 268.61 268.61 268.61 268.61 268.61 268.61 268.61 268.61 268.61 268.61 268.61
EvdW_6 =   -0.168400
EvdW_8 =   -0.227459

# Ionic positions in cartesian coordinates:
ion Ag  -0.004149999999999  10.556798000000001  25.140646999999998 1
ion Ag  -0.003288000000000   4.277406000000000  20.821008999999997 1
ion Ag   3.828162000000000   7.451063000000000  23.074192999999998 1
ion Ag   3.829937000000001   1.100003000000000  18.661106999999998 1
ion Ag   0.001292000000001   8.510685000000000  14.360291999999996 1
ion Ag   0.001506000000000   2.095047000000000  10.036258999999998 1
ion Ag   3.830581000000000  11.722706000000001  16.511735999999999 1
ion Ag   3.833946000000001   5.296979000000000  12.203954999999999 1
ion Ag   0.001473000000000  12.740428000000000   7.920717999999998 1
ion Ag   0.004355000000000   6.395379000000000   3.522225999999999 1
ion Ag  -3.835762000000000  13.708316000000000  27.136208000000000 1
ion Ag   3.836438000000000   9.568137999999999   5.781461999999999 1
ion Ag   3.837967000000000   3.225287000000000   1.458591000000000 1
ion Ag   3.829340000000000  12.754716999999999  21.857386999999992 1
ion Ag   3.830803000000000   6.409668000000000  17.602672999999996 1
ion Ag  -0.001483000000000   9.582856000000000  19.718297999999997 1
ion Ag  -0.000981000000000   3.208690000000000  15.434894999999996 1
ion Ag   3.834671000000001  10.601960000000000  11.127030999999999 1
ion Ag   3.836322000000000   4.226246000000000   6.817923000000000 1
ion Ag  -0.000631000000000  13.814768000000001  13.278724000000000 1
ion Ag   0.002469000000000   7.404339000000000   8.977824999999998 1
ion Ag   0.004530000000000   1.052326000000000   4.564739999999999 1
ion Ag   3.836610000000001   8.615078000000000   0.502808000000000 1
ion Ag   3.828147000000001   2.108258000000000  24.116790000000002 1
ion Ag   0.004041000000000  11.766707000000000   2.498368999999999 1
ion Ag  -0.005105000000000   5.278903000000000  26.180341999999992 1

# Forces in Cartesian coordinates:
force Ag  -0.000026385859167   0.000204461822387  -0.002971401768907 1
force Ag  -0.000071059080179   0.000380324857697   0.001788293041149 1
force Ag   0.000057614449559  -0.000219054280741  -0.002177951111215 1
force Ag   0.000052220499813   0.000287457423569  -0.001327190867695 1
force Ag  -0.000117516886768  -0.000234106099185   0.000924386644634 1
force Ag  -0.000044099456987   0.000494616314528   0.000576167292648 1
force Ag   0.000001511237618  -0.000030374008847   0.000136329905671 1
force Ag   0.000069985542158  -0.000316916800376  -0.001162492048445 1
force Ag   0.000038518315404   0.000415664779881  -0.000888431341268 1
force Ag  -0.000021547798039   0.000362948018551   0.002035683039161 1
force Ag  -0.000009783185051   0.000121263204067   0.002021694141763 1
force Ag   0.000000445178394  -0.000119255361063  -0.001853255920917 1
force Ag   0.000019433879296   0.000325795030181  -0.000066995594262 1
force Ag   0.000002030507229   0.000126950212118   0.001858544374264 1
force Ag   0.000041656128049  -0.000491694099575  -0.000579673279581 1
force Ag  -0.000032840728606  -0.000402787398814   0.000886405246068 1
force Ag  -0.000069029375563   0.000321389109530   0.001156489001623 1
force Ag  -0.000001130410350   0.000035115568690  -0.000137230584470 1
force Ag   0.000077159281445  -0.000376119530601  -0.001783046310953 1
force Ag   0.000113300281497   0.000238655547502  -0.000934248815312 1
force Ag  -0.000053991085369  -0.000283845251671   0.001330511008287 1
force Ag  -0.000061752392916   0.000220434674058   0.002186840154333 1
force Ag   0.000021787666578  -0.000129762647281  -0.002021560353708 1
force Ag   0.000007488859886  -0.000363819029066  -0.002028756242638 1
force Ag   0.000022757831794  -0.000201695227425   0.002965816283579 1
force Ag  -0.000009088248866  -0.000313676751518   0.000066485651862 1

# Energy components:
   A_diel =        0.0981162896219095
   Eewald =    41201.1235151188302552
       EH =    44558.1379569294804242
     Eloc =   -90200.2005104324925924
      Enl =      102.7569590951610223
     EvdW =       -0.3958590078923725
      Exc =     -376.4925014997831454
 Exc_core =        5.4124345232947144
       KE =      871.8418760079159711
  MuShift =        0.0831419023973294
-------------------------------------
     Etot =    -3837.6348710734687302
       TS =        0.0005635883482667
-------------------------------------
        F =    -3837.6354346618168165
      muN =     -120.5418293780716681
-------------------------------------
        G =    -3717.0936052837450916


Dumping 'jdft.fillings' ... done
Dumping 'jdft.wfns' ... done
Dumping 'jdft.fluidState' ... done
Dumping 'jdft.ionpos' ... done
Dumping 'jdft.lattice' ... done
Dumping 'jdft.eigenvals' ... done
Dumping 'jdft.eigStats' ... 
	eMin: -3.627270 at state 0 ( [ +0.000000 +0.000000 +0.000000 ] spin 1 )
	HOMO: -0.245147 at state 11 ( [ +0.333333 +0.000000 +0.000000 ] spin 1 )
	mu  : -0.244750
	LUMO: -0.244324 at state 20 ( [ +0.000000 +0.250000 +0.000000 ] spin -1 )
	eMax: +0.116458 at state 18 ( [ +0.444444 -0.250000 +0.000000 ] spin 1 )
	HOMO-LUMO gap: +0.000823
	Optical gap  : +0.006006 at state 35 ( [ +0.444444 +0.250000 +0.000000 ] spin -1 )
Dumping 'jdft.Ecomponents' ... done
IonicMinimize: Iter:   0  G: -3717.093605283745092  |grad|_K:  9.436e-04  t[s]:  20894.27

#--- Lowdin population analysis ---
# oxidation-state Ag +0.110 -0.005 -0.019 +0.002 +0.006 +0.003 +0.000 +0.003 +0.003 -0.027 +0.430 -0.028 +0.342 -0.028 +0.003 +0.003 +0.003 +0.000 -0.005 +0.006 +0.002 -0.019 +0.430 -0.027 +0.110 +0.342
# magnetic-moments Ag +0.000 -0.000 +0.000 -0.000 -0.000 -0.000 -0.000 -0.000 -0.000 +0.000 +0.000 +0.000 +0.000 +0.000 -0.000 -0.000 -0.000 -0.000 -0.000 -0.000 -0.000 +0.000 +0.000 +0.000 +0.000 +0.000


Computing DFT-D3 correction:
# coordination-number Ag 6.890 8.943 8.241 8.998 9.039 8.990 9.057 9.024 8.983 8.224 4.779 8.995 5.429 8.995 8.990 8.983 9.024 9.057 8.943 9.039 8.998 8.241 4.780 8.224 6.890 5.429
# diagonal-C6 Ag 268.61 268.61 268.61 268.61 268.61 268.61 268.61 268.61 268.61 268.61 268.61 268.61 268.61 268.61 268.61 268.61 268.61 268.61 268.61 268.61 268.61 268.61 268.61 268.61 268.61 268.61
EvdW_6 =   -0.168404
EvdW_8 =   -0.227462
Shifting auxilliary hamiltonian by 0.000005 to set nElectrons=492.510028

-------- Electronic minimization -----------
	Linear fluid (dielectric constant: 78.4, screening length: 8.12261 Bohr) occupying 0.579099 of unit cell:	Completed after 11 iterations at t[s]:  20978.84
	FillingsUpdate:  mu: -0.244750000  nElectrons: 492.510028  magneticMoment: [ Abs: 0.00045  Tot: -0.00015 ]
ElecMinimize: Iter:   0  G: -3717.093670604732324  |grad|_K:  1.052e-07  alpha:  1.000e+00
	Linear fluid (dielectric constant: 78.4, screening length: 8.12261 Bohr) occupying 0.579100 of unit cell:	Completed after 15 iterations at t[s]:  21149.42
	Linear fluid (dielectric constant: 78.4, screening length: 8.12261 Bohr) occupying 0.579100 of unit cell:	Completed after 15 iterations at t[s]:  21205.33
	FillingsUpdate:  mu: -0.244750000  nElectrons: 492.508797  magneticMoment: [ Abs: 0.00039  Tot: -0.00015 ]
	SubspaceRotationAdjust: set factor to 0.221
ElecMinimize: Iter:   1  G: -3717.093671080030163  |grad|_K:  9.861e-08  alpha:  9.600e-02  linmin: -6.665e-05  t[s]:  21288.78
	Linear fluid (dielectric constant: 78.4, screening length: 8.12261 Bohr) occupying 0.579100 of unit cell:	Completed after 2 iterations at t[s]:  21360.94
	Linear fluid (dielectric constant: 78.4, screening length: 8.12261 Bohr) occupying 0.579100 of unit cell:	Completed after 6 iterations at t[s]:  21414.61
	FillingsUpdate:  mu: -0.244750000  nElectrons: 492.509369  magneticMoment: [ Abs: 0.00021  Tot: -0.00013 ]
	SubspaceRotationAdjust: set factor to 0.194
ElecMinimize: Iter:   2  G: -3717.093672027593129  |grad|_K:  4.668e-08  alpha:  2.356e-01  linmin:  7.917e-05  t[s]:  21497.90
	Linear fluid (dielectric constant: 78.4, screening length: 8.12261 Bohr) occupying 0.579101 of unit cell:	Completed after 2 iterations at t[s]:  21570.23
	Linear fluid (dielectric constant: 78.4, screening length: 8.12261 Bohr) occupying 0.579101 of unit cell:	Completed after 2 iterations at t[s]:  21622.91
	FillingsUpdate:  mu: -0.244750000  nElectrons: 492.508945  magneticMoment: [ Abs: 0.00016  Tot: -0.00012 ]
	SubspaceRotationAdjust: set factor to 0.222
ElecMinimize: Iter:   3  G: -3717.093672373263416  |grad|_K:  3.447e-08  alpha:  3.930e-01  linmin: -1.002e-05  t[s]:  21706.32
	Linear fluid (dielectric constant: 78.4, screening length: 8.12261 Bohr) occupying 0.579101 of unit cell:	Completed after 3 iterations at t[s]:  21778.87
	Linear fluid (dielectric constant: 78.4, screening length: 8.12261 Bohr) occupying 0.579101 of unit cell:	Completed after 0 iterations at t[s]:  21830.96
	FillingsUpdate:  mu: -0.244750000  nElectrons: 492.509093  magneticMoment: [ Abs: 0.00014  Tot: -0.00010 ]
	SubspaceRotationAdjust: set factor to 0.263
ElecMinimize: Iter:   4  G: -3717.093672595178759  |grad|_K:  2.420e-08  alpha:  4.335e-01  linmin: -1.477e-05  t[s]:  21914.37
	Linear fluid (dielectric constant: 78.4, screening length: 8.12261 Bohr) occupying 0.579102 of unit cell:	Completed after 2 iterations at t[s]:  21986.96
	Linear fluid (dielectric constant: 78.4, screening length: 8.12261 Bohr) occupying 0.579102 of unit cell:	Completed after 0 iterations at t[s]:  22038.87
	FillingsUpdate:  mu: -0.244750000  nElectrons: 492.508694  magneticMoment: [ Abs: 0.00011  Tot: -0.00008 ]
	SubspaceRotationAdjust: set factor to 0.338
ElecMinimize: Iter:   5  G: -3717.093672744227661  |grad|_K:  2.040e-08  alpha:  5.797e-01  linmin: -1.179e-05  t[s]:  22121.74
	Linear fluid (dielectric constant: 78.4, screening length: 8.12261 Bohr) occupying 0.579103 of unit cell:	Completed after 6 iterations at t[s]:  22195.01
	Linear fluid (dielectric constant: 78.4, screening length: 8.12261 Bohr) occupying 0.579103 of unit cell:	Completed after 2 iterations at t[s]:  22247.50
	FillingsUpdate:  mu: -0.244750000  nElectrons: 492.508403  magneticMoment: [ Abs: 0.00008  Tot: -0.00006 ]
	SubspaceRotationAdjust: set factor to 0.186
ElecMinimize: Iter:   6  G: -3717.093672792758298  |grad|_K:  4.827e-08  alpha:  3.095e-01  linmin:  2.555e-05  t[s]:  22330.46
	Linear fluid (dielectric constant: 78.4, screening length: 8.12261 Bohr) occupying 0.579106 of unit cell:	Completed after 11 iterations at t[s]:  22404.95
	Linear fluid (dielectric constant: 78.4, screening length: 8.12261 Bohr) occupying 0.579103 of unit cell:	Completed after 11 iterations at t[s]:  22459.84
	FillingsUpdate:  mu: -0.244750000  nElectrons: 492.508600  magneticMoment: [ Abs: 0.00007  Tot: -0.00005 ]
	SubspaceRotationAdjust: set factor to 0.39
ElecMinimize: Iter:   7  G: -3717.093672831111235  |grad|_K:  2.019e-08  alpha:  5.264e-02  linmin:  1.480e-05  t[s]:  22542.96
ElecMinimize: Converged (|Delta G|<1.000000e-07 for 2 iters).
Setting wave functions to eigenvectors of Hamiltonian
Converging empty states (this may take a while): |deigs|: 2.156e-08

Computing DFT-D3 correction:
[...]
Dumping 'jdft.lattice' ... done
Dumping 'jdft.eigenvals' ... done
Dumping 'jdft.eigStats' ... 
	eMin: -3.627166 at state 19 ( [ +0.000000 +0.000000 +0.000000 ] spin -1 )
	HOMO: -0.244779 at state 11 ( [ +0.333333 +0.000000 +0.000000 ] spin 1 )
	mu  : -0.244750
	LUMO: -0.243841 at state 1 ( [ +0.000000 +0.250000 +0.000000 ] spin 1 )
	eMax: +0.116382 at state 18 ( [ +0.444444 -0.250000 +0.000000 ] spin 1 )
	HOMO-LUMO gap: +0.000938
	Optical gap  : +0.005998 at state 16 ( [ +0.444444 +0.250000 +0.000000 ] spin 1 )
Dumping 'jdft.Ecomponents' ... done
IonicMinimize: Iter:   3  G: -3717.094409482331685  |grad|_K:  1.855e-04  alpha:  1.000e+00  linmin:  2.675e-01  t[s]:  37086.20

#--- Lowdin population analysis ---
# oxidation-state Ag +0.103 -0.007 -0.019 +0.002 +0.005 +0.003 +0.002 +0.003 +0.002 -0.029 +0.448 -0.030 +0.347 -0.030 +0.003 +0.002 +0.003 +0.002 -0.007 +0.005 +0.002 -0.019 +0.448 -0.029 +0.103 +0.347
# magnetic-moments Ag +0.000 -0.000 +0.000 -0.000 -0.000 -0.000 -0.000 -0.000 -0.000 +0.000 +0.000 +0.000 +0.000 +0.000 -0.000 -0.000 -0.000 -0.000 -0.000 -0.000 -0.000 +0.000 +0.000 +0.000 +0.000 +0.000


Computing DFT-D3 correction:
# coordination-number Ag 6.961 8.999 8.311 8.999 9.046 9.035 9.038 9.045 9.037 8.254 4.642 9.025 5.390 9.025 9.033 9.036 9.044 9.040 9.000 9.046 9.000 8.311 4.643 8.254 6.960 5.390
# diagonal-C6 Ag 268.61 268.61 268.61 268.61 268.61 268.61 268.61 268.61 268.61 268.61 268.61 268.61 268.61 268.61 268.61 268.61 268.61 268.61 268.61 268.61 268.61 268.61 268.61 268.61 268.61 268.61
EvdW_6 =   -0.168563
EvdW_8 =   -0.227683
Shifting auxilliary hamiltonian by -0.000036 to set nElectrons=492.490859

-------- Electronic minimization -----------
	Linear fluid (dielectric constant: 78.4, screening length: 8.12261 Bohr) occupying 0.578826 of unit cell:	Completed after 14 iterations at t[s]:  37163.37
	FillingsUpdate:  mu: -0.244750000  nElectrons: 492.490859  magneticMoment: [ Abs: 0.00550  Tot: +0.00001 ]
ElecMinimize: Iter:   0  G: -3717.094411521941765  |grad|_K:  2.842e-07  alpha:  1.000e+00
	Linear fluid (dielectric constant: 78.4, screening length: 8.12261 Bohr) occupying 0.578827 of unit cell:	Completed after 15 iterations at t[s]:  37318.73
	Linear fluid (dielectric constant: 78.4, screening length: 8.12261 Bohr) occupying 0.578826 of unit cell:	Completed after 14 iterations at t[s]:  37369.00
	FillingsUpdate:  mu: -0.244750000  nElectrons: 492.488611  magneticMoment: [ Abs: 0.00357  Tot: +0.00001 ]
	SubspaceRotationAdjust: set factor to 0.0646
ElecMinimize: Iter:   1  G: -3717.094419934151119  |grad|_K:  1.582e-07  alpha:  2.437e-01  linmin: -1.900e-04  t[s]:  37445.11
	Linear fluid (dielectric constant: 78.4, screening length: 8.12261 Bohr) occupying 0.578828 of unit cell:	Completed after 11 iterations at t[s]:  37512.74
	Linear fluid (dielectric constant: 78.4, screening length: 8.12261 Bohr) occupying 0.578828 of unit cell:	Completed after 4 iterations at t[s]:  37560.91
	FillingsUpdate:  mu: -0.244750000  nElectrons: 492.491137  magneticMoment: [ Abs: 0.00171  Tot: +0.00001 ]
	SubspaceRotationAdjust: set factor to 0.0469
ElecMinimize: Iter:   2  G: -3717.094422887909332  |grad|_K:  6.955e-08  alpha:  2.768e-01  linmin: -1.075e-03  t[s]:  37636.72
	Linear fluid (dielectric constant: 78.4, screening length: 8.12261 Bohr) occupying 0.578828 of unit cell:	Completed after 2 iterations at t[s]:  37702.17
	Linear fluid (dielectric constant: 78.4, screening length: 8.12261 Bohr) occupying 0.578828 of unit cell:	Completed after 2 iterations at t[s]:  37749.95
	FillingsUpdate:  mu: -0.244750000  nElectrons: 492.491185  magneticMoment: [ Abs: 0.00068  Tot: +0.00001 ]
	SubspaceRotationAdjust: set factor to 0.0628
ElecMinimize: Iter:   3  G: -3717.094423738945807  |grad|_K:  5.127e-08  alpha:  4.032e-01  linmin: -9.713e-04  t[s]:  37825.80
	Linear fluid (dielectric constant: 78.4, screening length: 8.12261 Bohr) occupying 0.578827 of unit cell:	Completed after 7 iterations at t[s]:  37892.42
	Linear fluid (dielectric constant: 78.4, screening length: 8.12261 Bohr) occupying 0.578827 of unit cell:	Completed after 0 iterations at t[s]:  37939.44
	FillingsUpdate:  mu: -0.244750000  nElectrons: 492.490679  magneticMoment: [ Abs: 0.00037  Tot: +0.00001 ]
	SubspaceRotationAdjust: set factor to 0.0721
ElecMinimize: Iter:   4  G: -3717.094424243587127  |grad|_K:  3.773e-08  alpha:  4.428e-01  linmin: -5.028e-04  t[s]:  38015.34
	Linear fluid (dielectric constant: 78.4, screening length: 8.12261 Bohr) occupying 0.578826 of unit cell:	Completed after 2 iterations at t[s]:  38080.94
	Linear fluid (dielectric constant: 78.4, screening length: 8.12261 Bohr) occupying 0.578826 of unit cell:	Completed after 2 iterations at t[s]:  38128.40
	FillingsUpdate:  mu: -0.244750000  nElectrons: 492.490690  magneticMoment: [ Abs: 0.00035  Tot: -0.00000 ]
	SubspaceRotationAdjust: set factor to 0.0922
ElecMinimize: Iter:   5  G: -3717.094424634187817  |grad|_K:  3.727e-08  alpha:  6.320e-01  linmin: -5.750e-04  t[s]:  38204.43
	Linear fluid (dielectric constant: 78.4, screening length: 8.12261 Bohr) occupying 0.578824 of unit cell:	Completed after 3 iterations at t[s]:  38270.18
	Linear fluid (dielectric constant: 78.4, screening length: 8.12261 Bohr) occupying 0.578824 of unit cell:	Completed after 0 iterations at t[s]:  38317.25
	FillingsUpdate:  mu: -0.244750000  nElectrons: 492.490801  magneticMoment: [ Abs: 0.00044  Tot: -0.00001 ]
	SubspaceRotationAdjust: set factor to 0.106
ElecMinimize: Iter:   6  G: -3717.094424982211422  |grad|_K:  4.530e-08  alpha:  5.717e-01  linmin:  1.519e-05  t[s]:  38393.26
	Linear fluid (dielectric constant: 78.4, screening length: 8.12261 Bohr) occupying 0.578823 of unit cell:	Completed after 2 iterations at t[s]:  38458.83
	Linear fluid (dielectric constant: 78.4, screening length: 8.12261 Bohr) occupying 0.578823 of unit cell:	Completed after 0 iterations at t[s]:  38505.88
	FillingsUpdate:  mu: -0.244750000  nElectrons: 492.490481  magneticMoment: [ Abs: 0.00068  Tot: -0.00002 ]
	SubspaceRotationAdjust: set factor to 0.12
ElecMinimize: Iter:   7  G: -3717.094425495595260  |grad|_K:  4.795e-08  alpha:  5.886e-01  linmin: -9.827e-05  t[s]:  38581.76
	Linear fluid (dielectric constant: 78.4, screening length: 8.12261 Bohr) occupying 0.578823 of unit cell:	Completed after 6 iterations at t[s]:  38648.22
	Linear fluid (dielectric constant: 78.4, screening length: 8.12261 Bohr) occupying 0.578823 of unit cell:	Completed after 2 iterations at t[s]:  38695.99
	FillingsUpdate:  mu: -0.244750000  nElectrons: 492.490178  magneticMoment: [ Abs: 0.00045  Tot: -0.00003 ]
	SubspaceRotationAdjust: set factor to 0.123
ElecMinimize: Iter:   8  G: -3717.094425911368489  |grad|_K:  5.836e-08  alpha:  4.325e-01  linmin: -7.660e-05  t[s]:  38772.18
	Linear fluid (dielectric constant: 78.4, screening length: 8.12261 Bohr) occupying 0.578824 of unit cell:	Completed after 11 iterations at t[s]:  38839.57
	Linear fluid (dielectric constant: 78.4, screening length: 8.12261 Bohr) occupying 0.578824 of unit cell:	Completed after 9 iterations at t[s]:  38888.73
	FillingsUpdate:  mu: -0.244750000  nElectrons: 492.490884  magneticMoment: [ Abs: 0.00047  Tot: -0.00003 ]
	SubspaceRotationAdjust: set factor to 0.0961
ElecMinimize: Iter:   9  G: -3717.094426193080380  |grad|_K:  4.562e-08  alpha:  1.958e-01  linmin:  5.343e-05  t[s]:  38964.94
	Linear fluid (dielectric constant: 78.4, screening length: 8.12261 Bohr) occupying 0.578824 of unit cell:	Completed after 1 iterations at t[s]:  39030.30
	Linear fluid (dielectric constant: 78.4, screening length: 8.12261 Bohr) occupying 0.578824 of unit cell:	Completed after 2 iterations at t[s]:  39078.17
	FillingsUpdate:  mu: -0.244750000  nElectrons: 492.491009  magneticMoment: [ Abs: 0.00017  Tot: -0.00004 ]
	SubspaceRotationAdjust: set factor to 0.127
ElecMinimize: Iter:  10  G: -3717.094426482870858  |grad|_K:  3.428e-08  alpha:  3.312e-01  linmin: -1.374e-04  t[s]:  39153.96
	Linear fluid (dielectric constant: 78.4, screening length: 8.12261 Bohr) occupying 0.578824 of unit cell:	Completed after 7 iterations at t[s]:  39220.66
	Linear fluid (dielectric constant: 78.4, screening length: 8.12261 Bohr) occupying 0.578824 of unit cell:	Completed after 0 iterations at t[s]:  39267.61
	FillingsUpdate:  mu: -0.244750000  nElectrons: 492.490633  magneticMoment: [ Abs: 0.00028  Tot: -0.00005 ]
	SubspaceRotationAdjust: set factor to 0.098
ElecMinimize: Iter:  11  G: -3717.094426626714721  |grad|_K:  3.154e-08  alpha:  2.753e-01  linmin:  1.029e-03  t[s]:  39344.01
	Linear fluid (dielectric constant: 78.4, screening length: 8.12261 Bohr) occupying 0.578824 of unit cell:	Completed after 3 iterations at t[s]:  39409.78
	Linear fluid (dielectric constant: 78.4, screening length: 8.12261 Bohr) occupying 0.578824 of unit cell:	Completed after 0 iterations at t[s]:  39456.93
	FillingsUpdate:  mu: -0.244750000  nElectrons: 492.490920  magneticMoment: [ Abs: 0.00026  Tot: -0.00006 ]
	SubspaceRotationAdjust: set factor to 0.106
ElecMinimize: Iter:  12  G: -3717.094426704459238  |grad|_K:  1.855e-08  alpha:  2.153e-01  linmin: -2.531e-04  t[s]:  39533.01
	Linear fluid (dielectric constant: 78.4, screening length: 8.12261 Bohr) occupying 0.578824 of unit cell:	Completed after 2 iterations at t[s]:  39598.55
	Linear fluid (dielectric constant: 78.4, screening length: 8.12261 Bohr) occupying 0.578824 of unit cell:	Completed after 0 iterations at t[s]:  39645.47
	FillingsUpdate:  mu: -0.244750000  nElectrons: 492.491079  magneticMoment: [ Abs: 0.00015  Tot: -0.00006 ]
	SubspaceRotationAdjust: set factor to 0.127
ElecMinimize: Iter:  13  G: -3717.094426747472880  |grad|_K:  1.219e-08  alpha:  2.737e-01  linmin: -3.247e-03  t[s]:  39721.95
ElecMinimize: Converged (|Delta G|<1.000000e-07 for 2 iters).
Setting wave functions to eigenvectors of Hamiltonian
Converging empty states (this may take a while): |deigs|: 1.423e-08

Computing DFT-D3 correction:
# coordination-number Ag 6.961 8.999 8.311 8.999 9.046 9.035 9.038 9.045 9.037 8.254 4.642 9.025 5.390 9.025 9.033 9.036 9.044 9.040 9.000 9.046 9.000 8.311 4.643 8.254 6.960 5.390
# diagonal-C6 Ag 268.61 268.61 268.61 268.61 268.61 268.61 268.61 268.61 268.61 268.61 268.61 268.61 268.61 268.61 268.61 268.61 268.61 268.61 268.61 268.61 268.61 268.61 268.61 268.61 268.61 268.61
EvdW_6 =   -0.168563
EvdW_8 =   -0.227683

# Ionic positions in cartesian coordinates:
ion Ag  -0.004541661571309  10.564487983561571  25.056503027494543 1
ion Ag  -0.004668401283751   4.275318884254515  20.843616432140912 1
ion Ag   3.828837435236504   7.437015644562928  23.012218805750308 1
ion Ag   3.830648579568773   1.097082376773359  18.631379541049334 1
ion Ag  -0.001081856615013   8.509921895766780  14.379044289571880 1
ion Ag   0.001415105670036   2.111601721925890  10.055800105242358 1
ion Ag   3.830630349053847  11.722860715073779  16.515758899610667 1
ion Ag   3.834482264654035   5.292474580833923  12.182593781732736 1
ion Ag   0.002256134767047  12.746180140284441   7.924351665230285 1
ion Ag   0.004297857199469   6.410408743525267   3.550215547116089 1
ion Ag  -3.835870245286697  13.709586077605623  27.203695625619904 1
ion Ag   3.836835297869739   9.555483541566952   5.748358897358698 1
ion Ag   3.838365155237178   3.231928158981189   1.470641609718910 1
ion Ag   3.829062206005108  12.767356697275417  21.890966586083611 1
ion Ag   3.830746880427479   6.393110276610506  17.582901368764691 1
ion Ag  -0.002225693236358   9.577404147145186  19.714800376588890 1
ion Ag  -0.001650273744303   3.213301263130526  15.455763644567392 1
ion Ag   3.834467720334547  10.601908388841133  11.122696067731349 1
ion Ag   3.837689513605546   4.228399983656526   6.795824056638577 1
ion Ag   0.001449405413755  13.815609893616321  13.259532221877436 1
ion Ag   0.001686244099902   7.407393697379926   9.007649178555937 1
ion Ag   0.003737633958066   1.066313335810819   4.626757442658727 1
ion Ag   3.837198508236679   8.613282172378392   0.435581041178529 1
ion Ag   3.828081260727089   2.093087166784951  24.088840137228537 1
ion Ag   0.004526499483355  11.758810340763656   2.582215015732314 1
ion Ag  -0.005185919810717   5.272423171890424  26.168502634757328 1

# Forces in Cartesian coordinates:
force Ag   0.000007518519560  -0.000034586486365  -0.000142824157834 1
force Ag   0.000024459095349  -0.000173249974384  -0.000034493640437 1
force Ag  -0.000021925305473  -0.000117948947802  -0.000187924033787 1
force Ag  -0.000023116071439  -0.000209406342471   0.000161324342909 1
force Ag   0.000027155739168  -0.000027297359013   0.000035760784168 1
force Ag   0.000037839107104  -0.000114835933626   0.000248564522126 1
force Ag  -0.000005846727094  -0.000108022243180   0.000132597499559 1
force Ag  -0.000039643725251  -0.000014454005556   0.000155295101293 1
force Ag  -0.000021576931254  -0.000174123577881   0.000241792187526 1
force Ag   0.000012913654079  -0.000033192929969   0.000133625700246 1
force Ag  -0.000000880009804  -0.000092724353352  -0.000132550242098 1
force Ag   0.000003240971197  -0.000024692393056   0.000236895823493 1
force Ag  -0.000002523867627  -0.000014557722499   0.000398960963747 1
force Ag  -0.000004711059933   0.000034163357384  -0.000267525272699 1
force Ag  -0.000037755867891   0.000116402695939  -0.000237422079580 1
force Ag   0.000022725954006   0.000172658357723  -0.000263245541164 1
force Ag   0.000037984316511   0.000017436850449  -0.000129878809476 1
force Ag   0.000006009815216   0.000114112791621  -0.000109113342280 1
force Ag  -0.000026999802718   0.000176621476040   0.000006381871782 1
force Ag  -0.000028302092197   0.000032466708358  -0.000010715884922 1
force Ag   0.000024386120912   0.000214475976986  -0.000163919158342 1
force Ag   0.000024449250947   0.000120582634272   0.000174365655815 1
force Ag   0.000001056506579   0.000093260215020   0.000140279727372 1
force Ag  -0.000007125737887   0.000040344156274  -0.000126740390483 1
force Ag  -0.000004733242425   0.000044456846912   0.000149212089130 1
force Ag   0.000002552042101   0.000006967285624  -0.000412058583083 1

# Energy components:
   A_diel =        0.0967712600700648
   Eewald =    41247.0047781380199012
       EH =    44603.3675443613756215
     Eloc =   -90291.3162854103138670
      Enl =      102.7656449461594264
     EvdW =       -0.3962460241742956
      Exc =     -376.4937071159063180
 Exc_core =        5.4124352994681901
       KE =      871.8437972158361617
  MuShift =        0.0841992707963210
-------------------------------------
     Etot =    -3837.6310680586775561
       TS =        0.0005503188660389
-------------------------------------
        F =    -3837.6316183775434183
      muN =     -120.5371916300703674
-------------------------------------
        G =    -3717.0944267474728804


Dumping 'jdft.fillings' ... done
Dumping 'jdft.wfns' ... done
Dumping 'jdft.fluidState' ... done
Dumping 'jdft.ionpos' ... done
Dumping 'jdft.lattice' ... done
Dumping 'jdft.eigenvals' ... done
Dumping 'jdft.eigStats' ... 
	eMin: -3.627195 at state 0 ( [ +0.000000 +0.000000 +0.000000 ] spin 1 )
	HOMO: -0.244781 at state 11 ( [ +0.333333 +0.000000 +0.000000 ] spin 1 )
	mu  : -0.244750
	LUMO: -0.243911 at state 20 ( [ +0.000000 +0.250000 +0.000000 ] spin -1 )
	eMax: +0.116362 at state 18 ( [ +0.444444 -0.250000 +0.000000 ] spin 1 )
	HOMO-LUMO gap: +0.000870
	Optical gap  : +0.005995 at state 35 ( [ +0.444444 +0.250000 +0.000000 ] spin -1 )
Dumping 'jdft.Ecomponents' ... done
IonicMinimize: Iter:   4  G: -3717.094426747472880  |grad|_K:  1.310e-04  alpha:  1.000e+00  linmin: -6.459e-01  t[s]:  39911.44
IonicMinimize: Converged (|Delta G|<1.000000e-04 for 2 iters).

#--- Lowdin population analysis ---
# oxidation-state Ag +0.103 -0.007 -0.019 +0.002 +0.006 +0.003 +0.002 +0.003 +0.002 -0.029 +0.448 -0.030 +0.346 -0.030 +0.003 +0.002 +0.003 +0.002 -0.007 +0.006 +0.002 -0.019 +0.448 -0.029 +0.103 +0.346
# magnetic-moments Ag -0.000 -0.000 -0.000 -0.000 -0.000 -0.000 -0.000 -0.000 -0.000 -0.000 +0.000 -0.000 -0.000 -0.000 -0.000 -0.000 -0.000 -0.000 -0.000 -0.000 -0.000 -0.000 +0.000 -0.000 -0.000 -0.000


Dumping 'jdft.n_up' ... done
Dumping 'jdft.n_dn' ... done
Dumping 'jdft.tau_up' ... done
Dumping 'jdft.tau_dn' ... done
Dumping 'jdft.eigenvals' ... done
Dumping 'jdft.eigStats' ... 
	eMin: -3.627195 at state 0 ( [ +0.000000 +0.000000 +0.000000 ] spin 1 )
	HOMO: -0.244781 at state 11 ( [ +0.333333 +0.000000 +0.000000 ] spin 1 )
	mu  : -0.244750
	LUMO: -0.243911 at state 20 ( [ +0.000000 +0.250000 +0.000000 ] spin -1 )
	eMax: +0.116362 at state 18 ( [ +0.444444 -0.250000 +0.000000 ] spin 1 )
	HOMO-LUMO gap: +0.000870
	Optical gap  : +0.005995 at state 35 ( [ +0.444444 +0.250000 +0.000000 ] spin -1 )
Dumping 'jdft.kPts' ... done
Dumping 'jdft.kMap' ... done
Dumping 'jdft.dosUp' ... done.
Dumping 'jdft.dosDn' ... done.
End date and time: Fri Sep  9 19:34:27 2022  (Duration: 0-11:07:03.20)
Done!

PROFILER:             augmentDensityGrid    12.626039 +/-     0.530842 s,  366 calls,   4621.130391 s total
PROFILER:         augmentDensityGridGrad     0.647207 +/-     0.165679 s,  191 calls,    123.616484 s total
PROFILER:        augmentDensitySpherical     0.004085 +/-     0.000229 s,  366 calls,      1.495025 s total
PROFILER:    augmentDensitySphericalGrad     0.004053 +/-     0.001032 s,  237 calls,      0.960600 s total
PROFILER:                 augmentOverlap     6.346090 +/-     1.029580 s,  765 calls,   4854.758947 s total
PROFILER:        ColumnBundle::randomize     0.002507 +/-     0.000000 s,    1 calls,      0.002507 s total
PROFILER:                     diagouterI    11.247692 +/-     0.541679 s,  369 calls,   4150.398455 s total
PROFILER:              EdensityAndVscloc     3.533985 +/-     2.284014 s,  367 calls,   1296.972577 s total
PROFILER:                     EnlAndGrad     0.021574 +/-     0.006003 s,  391 calls,      8.435584 s total
PROFILER:            ExCorrCommunication     0.061980 +/-     0.503812 s, 2270 calls,    140.694042 s total
PROFILER:               ExCorrFunctional     0.008302 +/-     0.001188 s,  386 calls,      3.204403 s total
PROFILER:                    ExCorrTotal     0.457415 +/-     1.181130 s,  386 calls,    176.562337 s total
PROFILER:                   Idag_DiagV_I    19.938812 +/-     6.588804 s,  231 calls,   4605.865506 s total
PROFILER:                    initWeights     1.986529 +/-     0.000000 s,    1 calls,      1.986529 s total
PROFILER:                    inv(matrix)     0.016718 +/-     0.001070 s,  335 calls,      5.600419 s total
PROFILER:            matrix::diagonalize     0.048517 +/-     0.025068 s,  596 calls,     28.916126 s total
PROFILER:                    matrix::set     0.000012 +/-     0.000014 s, 16664 calls,      0.193946 s total
PROFILER:            orthoMatrix(matrix)     0.008911 +/-     0.005360 s,  377 calls,      3.359429 s total
PROFILER:     RadialFunctionR::transform     0.552982 +/-     2.943902 s,   58 calls,     32.072972 s total
PROFILER:                    reduceKmesh     0.000401 +/-     0.000000 s,    1 calls,      0.000401 s total
PROFILER:   VanDerWaalsD3::energyAndGrad     0.013621 +/-     0.001196 s,   13 calls,      0.177074 s total
PROFILER:               WavefunctionDrag    39.705677 +/-     8.053978 s,    6 calls,    238.234062 s total
PROFILER:                            Y*M     2.221042 +/-     0.671784 s, 2542 calls,   5645.889117 s total
PROFILER:                          Y1^Y2     2.241716 +/-     0.827071 s, 1656 calls,   3712.282022 s total

MEMUSAGE:                   ColumnBundle     1.093856 GB
MEMUSAGE:        complexScalarFieldTilde     0.019226 GB
MEMUSAGE:                    IndexArrays     0.021253 GB
MEMUSAGE:                         matrix     0.060996 GB
MEMUSAGE:                           misc     0.019337 GB
MEMUSAGE:                    ScalarField     0.139389 GB
MEMUSAGE:               ScalarFieldTilde     0.101538 GB
MEMUSAGE:                          Total     1.235185 GB
