
*************** JDFTx 1.6.0  ***************

Start date and time: Thu Feb 17 02:24:25 2022
Executable /projects/musgravc/apps/jdftx-1.6.1/build/jdftx with command-line: -i in
Running on hosts (process indices):  shas0815.rc.int.colorado.edu (0-23)
Divided in process groups (process indices):  0 (0)  1 (1)  2 (2)  3 (3)  4 (4)  5 (5)  6 (6)  7 (7)  8 (8)  9 (9)  10 (10)  11 (11)  12 (12)  13 (13)  14 (14)  15 (15)  16 (16)  17 (17)  18 (18)  19 (19)  20 (20)  21 (21)  22 (22)  23 (23)
Resource initialization completed at t[s]:      0.00
Run totals: 24 processes, 24 threads, 0 GPUs


Input parsed successfully to the following command list (including defaults):

basis kpoint-dependent
converge-empty-states yes
coords-type Cartesian
core-overlap-check none
coulomb-interaction Periodic
davidson-band-ratio 1.1
density-of-states Etol 1.000000e-06 Esigma 1.000000e-03 \
		Complete \
	Total \
	OrthoOrbital Cu 1   s \
	OrthoOrbital Cu 1   p \
	OrthoOrbital Cu 1   px \
	OrthoOrbital Cu 1   py \
	OrthoOrbital Cu 1   pz \
	OrthoOrbital Cu 1   d \
	OrthoOrbital Cu 1   dxy \
	OrthoOrbital Cu 1   dyz \
	OrthoOrbital Cu 1   dz2 \
	OrthoOrbital Cu 1   dxz \
	OrthoOrbital Cu 1   dx2-y2 \
	OrthoOrbital Cu 2   s \
	OrthoOrbital Cu 2   p \
	OrthoOrbital Cu 2   px \
	OrthoOrbital Cu 2   py \
	OrthoOrbital Cu 2   pz \
	OrthoOrbital Cu 2   d \
	OrthoOrbital Cu 2   dxy \
	OrthoOrbital Cu 2   dyz \
	OrthoOrbital Cu 2   dz2 \
	OrthoOrbital Cu 2   dxz \
	OrthoOrbital Cu 2   dx2-y2 \
	OrthoOrbital Cu 3   s \
	OrthoOrbital Cu 3   p \
	OrthoOrbital Cu 3   px \
	OrthoOrbital Cu 3   py \
	OrthoOrbital Cu 3   pz \
	OrthoOrbital Cu 3   d \
	OrthoOrbital Cu 3   dxy \
	OrthoOrbital Cu 3   dyz \
	OrthoOrbital Cu 3   dz2 \
	OrthoOrbital Cu 3   dxz \
	OrthoOrbital Cu 3   dx2-y2 \
	OrthoOrbital Cu 4   s \
	OrthoOrbital Cu 4   p \
	OrthoOrbital Cu 4   px \
	OrthoOrbital Cu 4   py \
	OrthoOrbital Cu 4   pz \
	OrthoOrbital Cu 4   d \
	OrthoOrbital Cu 4   dxy \
	OrthoOrbital Cu 4   dyz \
	OrthoOrbital Cu 4   dz2 \
	OrthoOrbital Cu 4   dxz \
	OrthoOrbital Cu 4   dx2-y2 \
	OrthoOrbital Cu 5   s \
	OrthoOrbital Cu 5   p \
	OrthoOrbital Cu 5   px \
	OrthoOrbital Cu 5   py \
	OrthoOrbital Cu 5   pz \
	OrthoOrbital Cu 5   d \
	OrthoOrbital Cu 5   dxy \
	OrthoOrbital Cu 5   dyz \
	OrthoOrbital Cu 5   dz2 \
	OrthoOrbital Cu 5   dxz \
	OrthoOrbital Cu 5   dx2-y2 \
	OrthoOrbital Cu 6   s \
	OrthoOrbital Cu 6   p \
	OrthoOrbital Cu 6   px \
	OrthoOrbital Cu 6   py \
	OrthoOrbital Cu 6   pz \
	OrthoOrbital Cu 6   d \
	OrthoOrbital Cu 6   dxy \
	OrthoOrbital Cu 6   dyz \
	OrthoOrbital Cu 6   dz2 \
	OrthoOrbital Cu 6   dxz \
	OrthoOrbital Cu 6   dx2-y2 \
	OrthoOrbital Cu 7   s \
	OrthoOrbital Cu 7   p \
	OrthoOrbital Cu 7   px \
	OrthoOrbital Cu 7   py \
	OrthoOrbital Cu 7   pz \
	OrthoOrbital Cu 7   d \
	OrthoOrbital Cu 7   dxy \
	OrthoOrbital Cu 7   dyz \
	OrthoOrbital Cu 7   dz2 \
	OrthoOrbital Cu 7   dxz \
	OrthoOrbital Cu 7   dx2-y2 \
	OrthoOrbital Cu 8   s \
	OrthoOrbital Cu 8   p \
	OrthoOrbital Cu 8   px \
	OrthoOrbital Cu 8   py \
	OrthoOrbital Cu 8   pz \
	OrthoOrbital Cu 8   d \
	OrthoOrbital Cu 8   dxy \
	OrthoOrbital Cu 8   dyz \
	OrthoOrbital Cu 8   dz2 \
	OrthoOrbital Cu 8   dxz \
	OrthoOrbital Cu 8   dx2-y2 \
	OrthoOrbital Cu 9   s \
	OrthoOrbital Cu 9   p \
	OrthoOrbital Cu 9   px \
	OrthoOrbital Cu 9   py \
	OrthoOrbital Cu 9   pz \
	OrthoOrbital Cu 9   d \
	OrthoOrbital Cu 9   dxy \
	OrthoOrbital Cu 9   dyz \
	OrthoOrbital Cu 9   dz2 \
	OrthoOrbital Cu 9   dxz \
	OrthoOrbital Cu 9   dx2-y2 \
	OrthoOrbital Cu 10   s \
	OrthoOrbital Cu 10   p \
	OrthoOrbital Cu 10   px \
	OrthoOrbital Cu 10   py \
	OrthoOrbital Cu 10   pz \
	OrthoOrbital Cu 10   d \
	OrthoOrbital Cu 10   dxy \
	OrthoOrbital Cu 10   dyz \
	OrthoOrbital Cu 10   dz2 \
	OrthoOrbital Cu 10   dxz \
	OrthoOrbital Cu 10   dx2-y2 \
	OrthoOrbital Cu 11   s \
	OrthoOrbital Cu 11   p \
	OrthoOrbital Cu 11   px \
	OrthoOrbital Cu 11   py \
	OrthoOrbital Cu 11   pz \
	OrthoOrbital Cu 11   d \
	OrthoOrbital Cu 11   dxy \
	OrthoOrbital Cu 11   dyz \
	OrthoOrbital Cu 11   dz2 \
	OrthoOrbital Cu 11   dxz \
	OrthoOrbital Cu 11   dx2-y2 \
	OrthoOrbital Cu 12   s \
	OrthoOrbital Cu 12   p \
	OrthoOrbital Cu 12   px \
	OrthoOrbital Cu 12   py \
	OrthoOrbital Cu 12   pz \
	OrthoOrbital Cu 12   d \
	OrthoOrbital Cu 12   dxy \
	OrthoOrbital Cu 12   dyz \
	OrthoOrbital Cu 12   dz2 \
	OrthoOrbital Cu 12   dxz \
	OrthoOrbital Cu 12   dx2-y2 \
	OrthoOrbital Cu 13   s \
	OrthoOrbital Cu 13   p \
	OrthoOrbital Cu 13   px \
	OrthoOrbital Cu 13   py \
	OrthoOrbital Cu 13   pz \
	OrthoOrbital Cu 13   d \
	OrthoOrbital Cu 13   dxy \
	OrthoOrbital Cu 13   dyz \
	OrthoOrbital Cu 13   dz2 \
	OrthoOrbital Cu 13   dxz \
	OrthoOrbital Cu 13   dx2-y2 \
	OrthoOrbital Cu 14   s \
	OrthoOrbital Cu 14   p \
	OrthoOrbital Cu 14   px \
	OrthoOrbital Cu 14   py \
	OrthoOrbital Cu 14   pz \
	OrthoOrbital Cu 14   d \
	OrthoOrbital Cu 14   dxy \
	OrthoOrbital Cu 14   dyz \
	OrthoOrbital Cu 14   dz2 \
	OrthoOrbital Cu 14   dxz \
	OrthoOrbital Cu 14   dx2-y2 \
	OrthoOrbital Cu 15   s \
	OrthoOrbital Cu 15   p \
	OrthoOrbital Cu 15   px \
	OrthoOrbital Cu 15   py \
	OrthoOrbital Cu 15   pz \
	OrthoOrbital Cu 15   d \
	OrthoOrbital Cu 15   dxy \
	OrthoOrbital Cu 15   dyz \
	OrthoOrbital Cu 15   dz2 \
	OrthoOrbital Cu 15   dxz \
	OrthoOrbital Cu 15   dx2-y2 \
	OrthoOrbital Cu 16   s \
	OrthoOrbital Cu 16   p \
	OrthoOrbital Cu 16   px \
	OrthoOrbital Cu 16   py \
	OrthoOrbital Cu 16   pz \
	OrthoOrbital Cu 16   d \
	OrthoOrbital Cu 16   dxy \
	OrthoOrbital Cu 16   dyz \
	OrthoOrbital Cu 16   dz2 \
	OrthoOrbital Cu 16   dxz \
	OrthoOrbital Cu 16   dx2-y2 \
	OrthoOrbital Cu 17   s \
	OrthoOrbital Cu 17   p \
	OrthoOrbital Cu 17   px \
	OrthoOrbital Cu 17   py \
	OrthoOrbital Cu 17   pz \
	OrthoOrbital Cu 17   d \
	OrthoOrbital Cu 17   dxy \
	OrthoOrbital Cu 17   dyz \
	OrthoOrbital Cu 17   dz2 \
	OrthoOrbital Cu 17   dxz \
	OrthoOrbital Cu 17   dx2-y2 \
	OrthoOrbital Cu 18   s \
	OrthoOrbital Cu 18   p \
	OrthoOrbital Cu 18   px \
	OrthoOrbital Cu 18   py \
	OrthoOrbital Cu 18   pz \
	OrthoOrbital Cu 18   d \
	OrthoOrbital Cu 18   dxy \
	OrthoOrbital Cu 18   dyz \
	OrthoOrbital Cu 18   dz2 \
	OrthoOrbital Cu 18   dxz \
	OrthoOrbital Cu 18   dx2-y2 \
	OrthoOrbital Cu 19   s \
	OrthoOrbital Cu 19   p \
	OrthoOrbital Cu 19   px \
	OrthoOrbital Cu 19   py \
	OrthoOrbital Cu 19   pz \
	OrthoOrbital Cu 19   d \
	OrthoOrbital Cu 19   dxy \
	OrthoOrbital Cu 19   dyz \
	OrthoOrbital Cu 19   dz2 \
	OrthoOrbital Cu 19   dxz \
	OrthoOrbital Cu 19   dx2-y2 \
	OrthoOrbital Cu 20   s \
	OrthoOrbital Cu 20   p \
	OrthoOrbital Cu 20   px \
	OrthoOrbital Cu 20   py \
	OrthoOrbital Cu 20   pz \
	OrthoOrbital Cu 20   d \
	OrthoOrbital Cu 20   dxy \
	OrthoOrbital Cu 20   dyz \
	OrthoOrbital Cu 20   dz2 \
	OrthoOrbital Cu 20   dxz \
	OrthoOrbital Cu 20   dx2-y2 \
	OrthoOrbital Cu 21   s \
	OrthoOrbital Cu 21   p \
	OrthoOrbital Cu 21   px \
	OrthoOrbital Cu 21   py \
	OrthoOrbital Cu 21   pz \
	OrthoOrbital Cu 21   d \
	OrthoOrbital Cu 21   dxy \
	OrthoOrbital Cu 21   dyz \
	OrthoOrbital Cu 21   dz2 \
	OrthoOrbital Cu 21   dxz \
	OrthoOrbital Cu 21   dx2-y2 \
	OrthoOrbital Cu 22   s \
	OrthoOrbital Cu 22   p \
	OrthoOrbital Cu 22   px \
	OrthoOrbital Cu 22   py \
	OrthoOrbital Cu 22   pz \
	OrthoOrbital Cu 22   d \
	OrthoOrbital Cu 22   dxy \
	OrthoOrbital Cu 22   dyz \
	OrthoOrbital Cu 22   dz2 \
	OrthoOrbital Cu 22   dxz \
	OrthoOrbital Cu 22   dx2-y2 \
	OrthoOrbital Cu 23   s \
	OrthoOrbital Cu 23   p \
	OrthoOrbital Cu 23   px \
	OrthoOrbital Cu 23   py \
	OrthoOrbital Cu 23   pz \
	OrthoOrbital Cu 23   d \
	OrthoOrbital Cu 23   dxy \
	OrthoOrbital Cu 23   dyz \
	OrthoOrbital Cu 23   dz2 \
	OrthoOrbital Cu 23   dxz \
	OrthoOrbital Cu 23   dx2-y2 \
	OrthoOrbital Cu 24   s \
	OrthoOrbital Cu 24   p \
	OrthoOrbital Cu 24   px \
	OrthoOrbital Cu 24   py \
	OrthoOrbital Cu 24   pz \
	OrthoOrbital Cu 24   d \
	OrthoOrbital Cu 24   dxy \
	OrthoOrbital Cu 24   dyz \
	OrthoOrbital Cu 24   dz2 \
	OrthoOrbital Cu 24   dxz \
	OrthoOrbital Cu 24   dx2-y2 \
	OrthoOrbital Cu 25   s \
	OrthoOrbital Cu 25   p \
	OrthoOrbital Cu 25   px \
	OrthoOrbital Cu 25   py \
	OrthoOrbital Cu 25   pz \
	OrthoOrbital Cu 25   d \
	OrthoOrbital Cu 25   dxy \
	OrthoOrbital Cu 25   dyz \
	OrthoOrbital Cu 25   dz2 \
	OrthoOrbital Cu 25   dxz \
	OrthoOrbital Cu 25   dx2-y2 \
	OrthoOrbital Cu 26   s \
	OrthoOrbital Cu 26   p \
	OrthoOrbital Cu 26   px \
	OrthoOrbital Cu 26   py \
	OrthoOrbital Cu 26   pz \
	OrthoOrbital Cu 26   d \
	OrthoOrbital Cu 26   dxy \
	OrthoOrbital Cu 26   dyz \
	OrthoOrbital Cu 26   dz2 \
	OrthoOrbital Cu 26   dxz \
	OrthoOrbital Cu 26   dx2-y2 \
	OrthoOrbital Cu 27   s \
	OrthoOrbital Cu 27   p \
	OrthoOrbital Cu 27   px \
	OrthoOrbital Cu 27   py \
	OrthoOrbital Cu 27   pz \
	OrthoOrbital Cu 27   d \
	OrthoOrbital Cu 27   dxy \
	OrthoOrbital Cu 27   dyz \
	OrthoOrbital Cu 27   dz2 \
	OrthoOrbital Cu 27   dxz \
	OrthoOrbital Cu 27   dx2-y2 \
	OrthoOrbital Cu 28   s \
	OrthoOrbital Cu 28   p \
	OrthoOrbital Cu 28   px \
	OrthoOrbital Cu 28   py \
	OrthoOrbital Cu 28   pz \
	OrthoOrbital Cu 28   d \
	OrthoOrbital Cu 28   dxy \
	OrthoOrbital Cu 28   dyz \
	OrthoOrbital Cu 28   dz2 \
	OrthoOrbital Cu 28   dxz \
	OrthoOrbital Cu 28   dx2-y2 \
	OrthoOrbital Cu 29   s \
	OrthoOrbital Cu 29   p \
	OrthoOrbital Cu 29   px \
	OrthoOrbital Cu 29   py \
	OrthoOrbital Cu 29   pz \
	OrthoOrbital Cu 29   d \
	OrthoOrbital Cu 29   dxy \
	OrthoOrbital Cu 29   dyz \
	OrthoOrbital Cu 29   dz2 \
	OrthoOrbital Cu 29   dxz \
	OrthoOrbital Cu 29   dx2-y2 \
	OrthoOrbital Cu 30   s \
	OrthoOrbital Cu 30   p \
	OrthoOrbital Cu 30   px \
	OrthoOrbital Cu 30   py \
	OrthoOrbital Cu 30   pz \
	OrthoOrbital Cu 30   d \
	OrthoOrbital Cu 30   dxy \
	OrthoOrbital Cu 30   dyz \
	OrthoOrbital Cu 30   dz2 \
	OrthoOrbital Cu 30   dxz \
	OrthoOrbital Cu 30   dx2-y2 \
	OrthoOrbital Cu 31   s \
	OrthoOrbital Cu 31   p \
	OrthoOrbital Cu 31   px \
	OrthoOrbital Cu 31   py \
	OrthoOrbital Cu 31   pz \
	OrthoOrbital Cu 31   d \
	OrthoOrbital Cu 31   dxy \
	OrthoOrbital Cu 31   dyz \
	OrthoOrbital Cu 31   dz2 \
	OrthoOrbital Cu 31   dxz \
	OrthoOrbital Cu 31   dx2-y2 \
	OrthoOrbital Cu 32   s \
	OrthoOrbital Cu 32   p \
	OrthoOrbital Cu 32   px \
	OrthoOrbital Cu 32   py \
	OrthoOrbital Cu 32   pz \
	OrthoOrbital Cu 32   d \
	OrthoOrbital Cu 32   dxy \
	OrthoOrbital Cu 32   dyz \
	OrthoOrbital Cu 32   dz2 \
	OrthoOrbital Cu 32   dxz \
	OrthoOrbital Cu 32   dx2-y2 \
	OrthoOrbital Cu 33   s \
	OrthoOrbital Cu 33   p \
	OrthoOrbital Cu 33   px \
	OrthoOrbital Cu 33   py \
	OrthoOrbital Cu 33   pz \
	OrthoOrbital Cu 33   d \
	OrthoOrbital Cu 33   dxy \
	OrthoOrbital Cu 33   dyz \
	OrthoOrbital Cu 33   dz2 \
	OrthoOrbital Cu 33   dxz \
	OrthoOrbital Cu 33   dx2-y2 \
	OrthoOrbital Cu 34   s \
	OrthoOrbital Cu 34   p \
	OrthoOrbital Cu 34   px \
	OrthoOrbital Cu 34   py \
	OrthoOrbital Cu 34   pz \
	OrthoOrbital Cu 34   d \
	OrthoOrbital Cu 34   dxy \
	OrthoOrbital Cu 34   dyz \
	OrthoOrbital Cu 34   dz2 \
	OrthoOrbital Cu 34   dxz \
	OrthoOrbital Cu 34   dx2-y2 \
	OrthoOrbital Cu 35   s \
	OrthoOrbital Cu 35   p \
	OrthoOrbital Cu 35   px \
	OrthoOrbital Cu 35   py \
	OrthoOrbital Cu 35   pz \
	OrthoOrbital Cu 35   d \
	OrthoOrbital Cu 35   dxy \
	OrthoOrbital Cu 35   dyz \
	OrthoOrbital Cu 35   dz2 \
	OrthoOrbital Cu 35   dxz \
	OrthoOrbital Cu 35   dx2-y2 \
	OrthoOrbital Cu 36   s \
	OrthoOrbital Cu 36   p \
	OrthoOrbital Cu 36   px \
	OrthoOrbital Cu 36   py \
	OrthoOrbital Cu 36   pz \
	OrthoOrbital Cu 36   d \
	OrthoOrbital Cu 36   dxy \
	OrthoOrbital Cu 36   dyz \
	OrthoOrbital Cu 36   dz2 \
	OrthoOrbital Cu 36   dxz \
	OrthoOrbital Cu 36   dx2-y2 \
	OrthoOrbital Cu 37   s \
	OrthoOrbital Cu 37   p \
	OrthoOrbital Cu 37   px \
	OrthoOrbital Cu 37   py \
	OrthoOrbital Cu 37   pz \
	OrthoOrbital Cu 37   d \
	OrthoOrbital Cu 37   dxy \
	OrthoOrbital Cu 37   dyz \
	OrthoOrbital Cu 37   dz2 \
	OrthoOrbital Cu 37   dxz \
	OrthoOrbital Cu 37   dx2-y2 \
	OrthoOrbital Cu 38   s \
	OrthoOrbital Cu 38   p \
	OrthoOrbital Cu 38   px \
	OrthoOrbital Cu 38   py \
	OrthoOrbital Cu 38   pz \
	OrthoOrbital Cu 38   d \
	OrthoOrbital Cu 38   dxy \
	OrthoOrbital Cu 38   dyz \
	OrthoOrbital Cu 38   dz2 \
	OrthoOrbital Cu 38   dxz \
	OrthoOrbital Cu 38   dx2-y2 \
	OrthoOrbital Cu 39   s \
	OrthoOrbital Cu 39   p \
	OrthoOrbital Cu 39   px \
	OrthoOrbital Cu 39   py \
	OrthoOrbital Cu 39   pz \
	OrthoOrbital Cu 39   d \
	OrthoOrbital Cu 39   dxy \
	OrthoOrbital Cu 39   dyz \
	OrthoOrbital Cu 39   dz2 \
	OrthoOrbital Cu 39   dxz \
	OrthoOrbital Cu 39   dx2-y2 \
	OrthoOrbital Cu 40   s \
	OrthoOrbital Cu 40   p \
	OrthoOrbital Cu 40   px \
	OrthoOrbital Cu 40   py \
	OrthoOrbital Cu 40   pz \
	OrthoOrbital Cu 40   d \
	OrthoOrbital Cu 40   dxy \
	OrthoOrbital Cu 40   dyz \
	OrthoOrbital Cu 40   dz2 \
	OrthoOrbital Cu 40   dxz \
	OrthoOrbital Cu 40   dx2-y2 \
	OrthoOrbital C 1   s \
	OrthoOrbital C 1   p \
	OrthoOrbital C 1   px \
	OrthoOrbital C 1   py \
	OrthoOrbital C 1   pz \
	OrthoOrbital O 1   s \
	OrthoOrbital O 1   p \
	OrthoOrbital O 1   px \
	OrthoOrbital O 1   py \
	OrthoOrbital O 1   pz
dump End ElecDensity KEdensity BandEigs EigStats RhoAtom DOS Kpoints
dump Ionic State IonicPositions Lattice EigStats Ecomponents
dump 
dump 
dump 
dump 
dump 
dump 
dump 
dump 
dump-name jdft.$VAR
elec-cutoff 20
elec-eigen-algo Davidson
elec-ex-corr gga-PBE
elec-initial-magnetization 0.000000 no
elec-n-bands 462
elec-smearing Fermi 0.001
electronic-minimize  \
	dirUpdateScheme      FletcherReeves \
	linminMethod         DirUpdateRecommended \
	nIterations          100 \
	history              15 \
	knormThreshold       0 \
	energyDiffThreshold  1e-07 \
	nEnergyDiff          2 \
	alphaTstart          1 \
	alphaTmin            1e-10 \
	updateTestStepSize   yes \
	alphaTreduceFactor   0.1 \
	alphaTincreaseFactor 3 \
	nAlphaAdjustMax      3 \
	wolfeEnergy          0.0001 \
	wolfeGradient        0.9 \
	fdTest               no
exchange-regularization WignerSeitzTruncated
fluid LinearPCM 298.000000 1.013250
fluid-anion F- 0.5 MeanFieldLJ \
	epsBulk 1 \
	pMol 0 \
	epsInf 1 \
	Pvap 0 \
	sigmaBulk 0 \
	Rvdw 2.24877 \
	Res 0 \
	tauNuc 343133
fluid-cation Na+ 0.5 MeanFieldLJ \
	epsBulk 1 \
	pMol 0 \
	epsInf 1 \
	Pvap 0 \
	sigmaBulk 0 \
	Rvdw 2.19208 \
	Res 0 \
	tauNuc 343133
fluid-ex-corr lda-TF lda-PZ
fluid-gummel-loop 10 1.000000e-05
fluid-minimize  \
	dirUpdateScheme      PolakRibiere \
	linminMethod         DirUpdateRecommended \
	nIterations          400 \
	history              15 \
	knormThreshold       1e-11 \
	energyDiffThreshold  0 \
	nEnergyDiff          2 \
	alphaTstart          1 \
	alphaTmin            1e-10 \
	updateTestStepSize   yes \
	alphaTreduceFactor   0.1 \
	alphaTincreaseFactor 3 \
	nAlphaAdjustMax      6 \
	wolfeEnergy          0.0001 \
	wolfeGradient        0.9 \
	fdTest               no
fluid-solvent H2O 55.338 ScalarEOS \
	epsBulk 78.4 \
	pMol 0.92466 \
	epsInf 1.77 \
	Pvap 1.06736e-10 \
	sigmaBulk 4.62e-05 \
	Rvdw 2.61727 \
	Res 1.42 \
	tauNuc 343133 \
	poleEl 15 7 1
forces-output-coords Positions
ion Cu   3.374454999999999   1.518659000000000  11.420712999999997 0
ion Cu   0.003943000000000   9.055351000000002  11.420712999999997 0
ion Cu  10.115479000000001   1.518659000000000  11.420712999999997 0
ion Cu   6.744966999999997   9.055351000000002  11.420712999999997 0
ion Cu   0.000344000000000   2.995850000000000   8.272439999999998 0
ion Cu  -3.370168000000001  10.532543000000000   8.272439999999998 0
ion Cu   6.741367000000000   2.995850000000000   8.272439999999998 0
ion Cu   3.370855999999998  10.532543000000000   8.272439999999998 0
ion Cu   3.367713999999999   4.556338000000000   5.270771000000000 0
ion Cu  -0.002791000000002  12.093015000000001   5.270771000000000 0
ion Cu  10.108750999999998   4.556338000000000   5.270771000000000 0
ion Cu   6.738232999999997  12.093015000000001   5.270771000000000 0
ion Cu  -0.002959000000001   6.045498000000001   2.187299000000000 0
ion Cu  -3.373471000000001  13.582190000000002   2.187299000000000 0
ion Cu   6.738077999999999   6.045498000000001   2.187299000000000 0
ion Cu   3.367565999999998  13.582190000000002   2.187299000000000 0
ion Cu   6.744669999999997  15.039877000000001  14.212244000000000 0
ion Cu  10.115181999999999   7.503185000000001  14.212244000000000 0
ion Cu   0.003646999999998  15.039877000000001  14.212244000000000 0
ion Cu   3.374158999999998   7.503185000000001  14.212244000000000 0
ion Cu   3.373288999999999   5.995801000000001   9.801515000000000 0
ion Cu   0.002770999999998  13.532508999999999   9.801515000000000 0
ion Cu  10.114312999999997   5.995801000000001   9.801515000000000 0
ion Cu   6.743807999999997  13.532508999999999   9.801515000000000 0
ion Cu   3.370235000000000   0.020545000000000   6.798760999999999 0
ion Cu  -0.000276000000001   7.557238000000001   6.798760999999999 0
ion Cu  10.111258999999999   0.020545000000000   6.798760999999999 0
ion Cu   6.740746999999999   7.557238000000001   6.798760999999999 0
ion Cu  -0.004564000000000   1.496471000000000   3.652749000000000 0
ion Cu  -3.375075000000001   9.033163000000002   3.652749000000000 0
ion Cu   6.736459999999999   1.496471000000000   3.652749000000000 0
ion Cu   3.365947999999998   9.033163000000002   3.652749000000000 0
ion Cu   3.366999999999999   3.046346000000001   0.863298000000000 0
ion Cu  -0.003519000000002  10.583054000000001   0.863298000000000 0
ion Cu  10.108022999999998   3.046346000000001   0.863298000000000 0
ion Cu   6.737504999999997  10.583054000000001   0.863298000000000 0
ion Cu   0.003383999999999   4.504741000000000  12.887157999999999 0
ion Cu  -3.367128000000000  12.041434000000001  12.887157999999999 0
ion Cu   6.744406999999997   4.504741000000000  12.887157999999999 0
ion Cu   3.373895999999998  12.041434000000001  12.887157999999999 0
ion C   3.374158999999998   7.503185000000001  17.539497999999995 1  Linear 0 0 1
ion O   3.434248000000000   7.503185000000001  19.694826999999997 1  Linear 0 0 1
ion-species /projects/musgravc/apps/jdftx-1.6.0/build/pseudopotentials/GBRV_v1.5/$ID_pbe_v1.uspp
ion-species /projects/musgravc/apps/jdftx-1.6.0/build/pseudopotentials/GBRV_v1.5/$ID_pbe_v1.2.uspp
ion-species /projects/musgravc/apps/jdftx-1.6.0/build/pseudopotentials/GBRV_v1.5/$ID_pbe_v1.4.uspp
ion-species /projects/musgravc/apps/jdftx-1.6.0/build/pseudopotentials/GBRV_v1.5/$ID_pbe_v1.5.uspp
ion-width Ecut
ionic-minimize  \
	dirUpdateScheme      L-BFGS \
	linminMethod         DirUpdateRecommended \
	nIterations          100 \
	history              15 \
	knormThreshold       0.0001 \
	energyDiffThreshold  1e-06 \
	nEnergyDiff          2 \
	alphaTstart          1 \
	alphaTmin            1e-10 \
	updateTestStepSize   yes \
	alphaTreduceFactor   0.1 \
	alphaTincreaseFactor 3 \
	nAlphaAdjustMax      3 \
	wolfeEnergy          0.0001 \
	wolfeGradient        0.9 \
	fdTest               no
kpoint   0.000000000000   0.000000000000   0.000000000000  1.00000000000000
kpoint-folding 4 3 1 
latt-move-scale 0 0 0
latt-scale 1 1 1 
lattice  \
	  13.482047000000000   -6.741023000000000    0.000000000000000  \
	   0.000000000000000   15.073385000000000    0.000000000000000  \
	   0.000000000000000    0.000000000000000   45.220160000000000 
lattice-minimize  \
	dirUpdateScheme      L-BFGS \
	linminMethod         DirUpdateRecommended \
	nIterations          0 \
	history              15 \
	knormThreshold       0 \
	energyDiffThreshold  1e-06 \
	nEnergyDiff          2 \
	alphaTstart          1 \
	alphaTmin            1e-10 \
	updateTestStepSize   yes \
	alphaTreduceFactor   0.1 \
	alphaTincreaseFactor 3 \
	nAlphaAdjustMax      3 \
	wolfeEnergy          0.0001 \
	wolfeGradient        0.9 \
	fdTest               no
lcao-params 30 1e-06 0.001
pcm-variant CANDLE
spintype z-spin
subspace-rotation-factor 1 yes
symmetries automatic
symmetry-threshold 0.0001
van-der-waals D3



---------- Setting up symmetries ----------

Found 8 point-group symmetries of the bravais lattice
Found 1 space-group symmetries with basis
Applied RMS atom displacement 0 bohrs to make symmetries exact.

---------- Initializing the Grid ----------
R = 
[       13.482     -6.74102            0  ]
[            0      15.0734            0  ]
[            0            0      45.2202  ]
unit cell volume = 9189.64
G =
[   0.466041    0.20842         -0  ]
[          0    0.41684          0  ]
[          0         -0   0.138947  ]
Minimum fftbox size, Smin = [  56  68  184  ]
Chosen fftbox size, S = [  56  70  192  ]

---------- Exchange Correlation functional ----------
Initalized PBE GGA exchange.
Initalized PBE GGA correlation.

---------- Setting up pseudopotentials ----------
Width of ionic core gaussian charges (only for fluid interactions / plotting) set to 0.397384

Reading pseudopotential file '/projects/musgravc/apps/jdftx-1.6.0/build/pseudopotentials/GBRV_v1.5/cu_pbe_v1.2.uspp':
  Title: Cu.  Created by USPP 7.3.6 on 3-2-2014
  Reference state energy: -201.059491.  19 valence electrons in orbitals:
    |300>  occupation: 2  eigenvalue: -5.020764
    |310>  occupation: 6  eigenvalue: -3.445588
    |320>  occupation: 8  eigenvalue: -0.925168
    |400>  occupation: 2  eigenvalue: -0.567638
    |410>  occupation: 0  eigenvalue: -0.326154
  lMax: 2  lLocal: 3  QijEcut: 6
  6 projectors sampled on a log grid with 613 points:
    l: 0  eig: -5.020767  rCut: 1.4
    l: 0  eig: -0.567640  rCut: 1.4
    l: 1  eig: -3.445589  rCut: 1.55
    l: 1  eig: -0.326157  rCut: 1.55
    l: 2  eig: -0.925170  rCut: 1.5
    l: 2  eig: 1.500000  rCut: 1.5
  Partial core density with radius 0.8
  Transforming core density to a uniform radial grid of dG=0.02 with 1389 points.
  Transforming local potential to a uniform radial grid of dG=0.02 with 1389 points.
  Transforming nonlocal projectors to a uniform radial grid of dG=0.02 with 432 points.
  Transforming density augmentations to a uniform radial grid of dG=0.02 with 1389 points.
  Transforming atomic orbitals to a uniform radial grid of dG=0.02 with 432 points.
  Core radius for overlap checks: 1.55 bohrs.

Reading pseudopotential file '/projects/musgravc/apps/jdftx-1.6.0/build/pseudopotentials/GBRV_v1.5/c_pbe_v1.2.uspp':
  Title: C.  Created by USPP 7.3.6 on 3-2-2014
  Reference state energy: -5.406344.  4 valence electrons in orbitals:
    |200>  occupation: 2  eigenvalue: -0.504890
    |210>  occupation: 2  eigenvalue: -0.194356
  lMax: 1  lLocal: 2  QijEcut: 5
  4 projectors sampled on a log grid with 503 points:
    l: 0  eig: -0.504890  rCut: 1.3
    l: 0  eig: 0.000000  rCut: 1.3
    l: 1  eig: -0.194357  rCut: 1.3
    l: 1  eig: 0.000000  rCut: 1.3
  Partial core density with radius 1.1
  Transforming core density to a uniform radial grid of dG=0.02 with 1389 points.
  Transforming local potential to a uniform radial grid of dG=0.02 with 1389 points.
  Transforming nonlocal projectors to a uniform radial grid of dG=0.02 with 432 points.
  Transforming density augmentations to a uniform radial grid of dG=0.02 with 1389 points.
  Transforming atomic orbitals to a uniform radial grid of dG=0.02 with 432 points.
  Core radius for overlap checks: 1.30 bohrs.

Reading pseudopotential file '/projects/musgravc/apps/jdftx-1.6.0/build/pseudopotentials/GBRV_v1.5/o_pbe_v1.2.uspp':
  Title: O.  Created by USPP 7.3.6 on 3-2-2014
  Reference state energy: -15.894388.  6 valence electrons in orbitals:
    |200>  occupation: 2  eigenvalue: -0.878823
    |210>  occupation: 4  eigenvalue: -0.332131
  lMax: 2  lLocal: 2  QijEcut: 6
  5 projectors sampled on a log grid with 511 points:
    l: 0  eig: -0.878823  rCut: 1.25
    l: 0  eig: 0.000000  rCut: 1.25
    l: 1  eig: -0.332132  rCut: 1.25
    l: 1  eig: 0.000000  rCut: 1.25
    l: 2  eig: 1.000000  rCut: 1.25
  Partial core density with radius 0.7
  Transforming core density to a uniform radial grid of dG=0.02 with 1389 points.
  Transforming local potential to a uniform radial grid of dG=0.02 with 1389 points.
  Transforming nonlocal projectors to a uniform radial grid of dG=0.02 with 432 points.
  Transforming density augmentations to a uniform radial grid of dG=0.02 with 1389 points.
  Transforming atomic orbitals to a uniform radial grid of dG=0.02 with 432 points.
  Core radius for overlap checks: 1.25 bohrs.

Initialized 3 species with 42 total atoms.

Folded 1 k-points by 4x3x1 to 12 k-points.

---------- Setting up k-points, bands, fillings ----------
Adding inversion symmetry to k-mesh for non-inversion-symmetric unit cell.
Reduced to 7 k-points under symmetry. 
Computing the number of bands and number of electrons
Calculating initial fillings.
nElectrons: 770.000000   nBands: 462   nStates: 14

----- Setting up reduced wavefunction bases (one per k-point) -----
average nbasis = 39264.583 , ideal nbasis = 39258.863

----- Initializing Supercell corresponding to k-point mesh -----
Lattice vector linear combinations in supercell:
[   4   0   0  ]
[   0   3   0  ]
[   0   0   1  ]
Supercell lattice vectors:
[  53.9282  -20.2231  0  ]
[  0  45.2202  0  ]
[  0  0  45.2202  ]

Initializing DFT-D3 calculator:
	Parameters set for gga-PBE functional
	s6:  1.000  s_r6:  1.217
	s8:  0.722  s_r8:  1.000
	Per-atom parameters loaded for:
	Cu:  sqrtQ[a0]:  5.226  Rcov[a0]:  1.909  CN: [ 0.00 0.96 ]
	 C:  sqrtQ[a0]:  3.105  Rcov[a0]:  1.417  CN: [ 0.00 0.99 2.00 3.00 3.98 ]
	 O:  sqrtQ[a0]:  2.594  Rcov[a0]:  1.191  CN: [ 0.00 0.99 1.99 ]

Initializing DFT-D2 calculator for fluid / solvation:
	Cu:  C6:  187.33 Eh-a0^6  R0: 2.952 a0
	 C:  C6:   30.35 Eh-a0^6  R0: 2.744 a0
	 O:  C6:   12.14 Eh-a0^6  R0: 2.536 a0

---------- Setting up ewald sum ----------
Optimum gaussian width for ewald sums = 4.481961 bohr.
Real space sum over 495 unit cells with max indices [  5  4  2  ]
Reciprocal space sum over 6825 terms with max indices [  6  7  17  ]

Computing DFT-D3 correction:
# coordination-number Cu 8.287 8.289 8.287 8.289 8.917 8.917 8.917 8.918 9.035 9.035 9.035 9.035 6.874 6.874 6.874 6.874 4.943 4.946 4.943 5.957 9.029 9.028 9.028 9.028 8.920 8.920 8.920 8.920 8.294 8.294 8.294 8.294 4.946 4.947 4.947 4.947 6.876 6.870 6.876 6.876
# coordination-number C 2.029
# coordination-number O 1.024
# diagonal-C6 Cu 175.00 175.00 175.00 175.00 175.00 175.00 175.00 175.00 175.00 175.00 175.00 175.00 175.00 175.00 175.00 175.00 175.00 175.00 175.00 175.00 175.00 175.00 175.00 175.00 175.00 175.00 175.00 175.00 175.00 175.00 175.00 175.00 175.00 175.00 175.00 175.00 175.00 175.00 175.00 175.00
# diagonal-C6 C 29.43
# diagonal-C6 O 12.79
EvdW_6 =   -0.208054
EvdW_8 =   -0.325797

---------- Allocating electronic variables ----------
Initializing wave functions:  linear combination of atomic orbitals
Cu pseudo-atom occupations:   s ( 2 1 )  p ( 6 0 )  d ( 10 )
C pseudo-atom occupations:   s ( 2 )  p ( 2 )
O pseudo-atom occupations:   s ( 2 )  p ( 4 )
	FillingsUpdate:  mu: -2.675240012  nElectrons: 770.000000  magneticMoment: [ Abs: 0.46467  Tot: -0.00247 ]
LCAOMinimize: Iter:   0  F: -7882.1045297439095521  |grad|_K:  3.702e-02  alpha:  1.000e+00
LCAOMinimize: 	Step increased F by 1.025679e+03, reducing alpha to 4.152816e-02.
LCAOMinimize: 	Step increased F by 4.356130e+01, reducing alpha to 4.152816e-03.
	FillingsUpdate:  mu: -2.578835374  nElectrons: 770.000000  magneticMoment: [ Abs: 0.46814  Tot: -0.00847 ]
LCAOMinimize: Iter:   1  F: -7900.9941394770503393  |grad|_K:  2.711e-02  alpha:  4.153e-03  linmin: -1.712e-01  cgtest:  9.773e-01  t[s]:    206.48
LCAOMinimize: Encountered beta<0, resetting CG.
LCAOMinimize: 	Predicted alpha/alphaT>3.000000, increasing alphaT to 1.245845e-02.
	FillingsUpdate:  mu: -1.433437314  nElectrons: 770.000000  magneticMoment: [ Abs: 0.53220  Tot: +0.00334 ]
LCAOMinimize: Iter:   2  F: -7931.4769428598910963  |grad|_K:  2.231e-02  alpha:  2.176e-02  linmin:  1.498e-02  cgtest: -1.234e-01  t[s]:    269.05
LCAOMinimize: 	Predicted alpha/alphaT>3.000000, increasing alphaT to 6.528877e-02.
	FillingsUpdate:  mu: +0.902341927  nElectrons: 770.000000  magneticMoment: [ Abs: 0.07439  Tot: +0.00516 ]
LCAOMinimize: Iter:   3  F: -7972.1020061843291842  |grad|_K:  4.913e-02  alpha:  4.863e-02  linmin:  5.079e-03  cgtest:  4.174e-01  t[s]:    331.58
	FillingsUpdate:  mu: +2.844642367  nElectrons: 770.000000  magneticMoment: [ Abs: 0.00483  Tot: -0.00000 ]
LCAOMinimize: Iter:   4  F: -8028.9566567474466865  |grad|_K:  9.998e-03  alpha:  2.678e-02  linmin:  2.686e-02  cgtest: -3.394e-01  t[s]:    380.99
	FillingsUpdate:  mu: +2.573457129  nElectrons: 770.000000  magneticMoment: [ Abs: 0.00397  Tot: +0.00004 ]
LCAOMinimize: Iter:   5  F: -8033.8488390311240437  |grad|_K:  7.074e-03  alpha:  2.979e-02  linmin: -4.612e-02  cgtest:  9.935e-01  t[s]:    430.32
LCAOMinimize: Encountered beta<0, resetting CG.
LCAOMinimize: 	Wrong curvature in test step, increasing alphaT to 8.936595e-02.
	FillingsUpdate:  mu: +1.930604983  nElectrons: 770.000000  magneticMoment: [ Abs: 0.00462  Tot: +0.00002 ]
LCAOMinimize: Iter:   6  F: -8054.9077429964063413  |grad|_K:  5.328e-03  alpha: -5.717e-03  linmin: -1.215e-01  cgtest:  7.340e-01  t[s]:    476.99
	FillingsUpdate:  mu: +0.727972069  nElectrons: 770.000000  magneticMoment: [ Abs: 0.00895  Tot: +0.00401 ]
LCAOMinimize: Iter:   7  F: -8078.3507916313792521  |grad|_K:  9.360e-03  alpha:  7.346e-02  linmin: -2.410e-01  cgtest: -6.543e-02  t[s]:    526.40
LCAOMinimize: 	Step increased F by 1.229992e+01, reducing alpha to 2.164530e-03.
	FillingsUpdate:  mu: +0.464026355  nElectrons: 770.000000  magneticMoment: [ Abs: 0.00687  Tot: +0.00093 ]
LCAOMinimize: Iter:   8  F: -8079.0465320222738228  |grad|_K:  7.873e-03  alpha:  2.165e-03  linmin: -1.317e-03  cgtest:  5.652e-01  t[s]:    612.20
LCAOMinimize: 	Predicted alpha/alphaT>3.000000, increasing alphaT to 6.493589e-03.
LCAOMinimize: 	Predicted alpha/alphaT>3.000000, increasing alphaT to 1.948077e-02.
	FillingsUpdate:  mu: +0.452898929  nElectrons: 770.000000  magneticMoment: [ Abs: 0.00794  Tot: -0.00016 ]
LCAOMinimize: Iter:   9  F: -8083.0603895722697416  |grad|_K:  7.940e-03  alpha:  4.729e-02  linmin:  4.779e-02  cgtest: -1.717e-01  t[s]:    687.61
	FillingsUpdate:  mu: +0.453398280  nElectrons: 770.000000  magneticMoment: [ Abs: 0.00796  Tot: -0.00017 ]
LCAOMinimize: Iter:  10  F: -8083.0701235528686084  |grad|_K:  7.999e-03  alpha:  4.566e-04  linmin: -3.482e-03  cgtest:  9.978e-01  t[s]:    737.07
LCAOMinimize: 	Predicted alpha/alphaT>3.000000, increasing alphaT to 1.369715e-03.
LCAOMinimize: 	Predicted alpha/alphaT>3.000000, increasing alphaT to 4.109145e-03.
LCAOMinimize: 	Predicted alpha/alphaT>3.000000, increasing alphaT to 1.232743e-02.
	FillingsUpdate:  mu: +0.476876157  nElectrons: 770.000000  magneticMoment: [ Abs: 0.00774  Tot: -0.00004 ]
LCAOMinimize: Iter:  11  F: -8086.2375394666796637  |grad|_K:  3.073e-03  alpha:  2.110e-02  linmin: -1.496e-01  cgtest:  8.309e-01  t[s]:    812.46
LCAOMinimize: Encountered beta<0, resetting CG.
LCAOMinimize: 	Predicted alpha/alphaT>3.000000, increasing alphaT to 6.329222e-02.
	FillingsUpdate:  mu: +0.575879783  nElectrons: 770.000000  magneticMoment: [ Abs: 0.00854  Tot: +0.00010 ]
LCAOMinimize: Iter:  12  F: -8087.8175927148640767  |grad|_K:  2.508e-03  alpha:  9.329e-02  linmin:  4.570e-02  cgtest: -4.194e-01  t[s]:    875.23
	FillingsUpdate:  mu: +0.573983057  nElectrons: 770.000000  magneticMoment: [ Abs: 0.00861  Tot: +0.00010 ]
LCAOMinimize: Iter:  13  F: -8087.8569407451423103  |grad|_K:  2.505e-03  alpha:  2.904e-03  linmin: -5.254e-02  cgtest:  9.937e-01  t[s]:    924.86
LCAOMinimize: 	Predicted alpha/alphaT>3.000000, increasing alphaT to 8.711759e-03.
LCAOMinimize: 	Predicted alpha/alphaT>3.000000, increasing alphaT to 2.613528e-02.
	FillingsUpdate:  mu: +0.353709770  nElectrons: 770.000000  magneticMoment: [ Abs: 0.00888  Tot: -0.00000 ]
LCAOMinimize: Iter:  14  F: -8088.5605085317856719  |grad|_K:  1.725e-03  alpha:  6.307e-02  linmin:  4.826e-02  cgtest: -2.689e-01  t[s]:   1000.41
	FillingsUpdate:  mu: +0.254042756  nElectrons: 770.000000  magneticMoment: [ Abs: 0.00932  Tot: -0.00018 ]
LCAOMinimize: Iter:  15  F: -8088.7946254076823607  |grad|_K:  1.844e-03  alpha:  5.154e-02  linmin:  4.560e-03  cgtest:  4.295e-01  t[s]:   1050.10
	FillingsUpdate:  mu: +0.206533717  nElectrons: 770.000000  magneticMoment: [ Abs: 0.01003  Tot: -0.00050 ]
LCAOMinimize: Iter:  16  F: -8089.0887900984307635  |grad|_K:  8.733e-04  alpha:  4.256e-02  linmin:  1.972e-02  cgtest:  1.203e-01  t[s]:   1099.66
	FillingsUpdate:  mu: +0.179126614  nElectrons: 770.000000  magneticMoment: [ Abs: 0.01009  Tot: -0.00046 ]
LCAOMinimize: Iter:  17  F: -8089.1254238897372488  |grad|_K:  6.734e-04  alpha:  2.487e-02  linmin: -3.029e-03  cgtest:  1.563e-01  t[s]:   1149.16
	FillingsUpdate:  mu: +0.155292502  nElectrons: 770.000000  magneticMoment: [ Abs: 0.01000  Tot: -0.00047 ]
LCAOMinimize: Iter:  18  F: -8089.1724023303995637  |grad|_K:  2.833e-04  alpha:  5.130e-02  linmin: -1.624e-02  cgtest: -7.465e-02  t[s]:   1198.67
	FillingsUpdate:  mu: +0.153885190  nElectrons: 770.000000  magneticMoment: [ Abs: 0.01016  Tot: -0.00076 ]
LCAOMinimize: Iter:  19  F: -8089.1880604144826066  |grad|_K:  2.359e-04  alpha:  9.659e-02  linmin:  5.758e-03  cgtest: -7.128e-02  t[s]:   1248.18
	FillingsUpdate:  mu: +0.150592795  nElectrons: 770.000000  magneticMoment: [ Abs: 0.01009  Tot: -0.00074 ]
LCAOMinimize: Iter:  20  F: -8089.1966368327630335  |grad|_K:  1.669e-04  alpha:  8.162e-02  linmin: -7.968e-04  cgtest:  7.806e-02  t[s]:   1297.67
	FillingsUpdate:  mu: +0.147773110  nElectrons: 770.000000  magneticMoment: [ Abs: 0.01009  Tot: -0.00074 ]
LCAOMinimize: Iter:  21  F: -8089.1981414255687923  |grad|_K:  1.328e-04  alpha:  2.727e-02  linmin: -7.619e-04  cgtest:  6.738e-04  t[s]:   1347.09
	FillingsUpdate:  mu: +0.144206667  nElectrons: 770.000000  magneticMoment: [ Abs: 0.01009  Tot: -0.00080 ]
LCAOMinimize: Iter:  22  F: -8089.2003078737834585  |grad|_K:  8.017e-05  alpha:  6.297e-02  linmin:  4.204e-03  cgtest: -1.981e-03  t[s]:   1396.50
	FillingsUpdate:  mu: +0.143885353  nElectrons: 770.000000  magneticMoment: [ Abs: 0.01009  Tot: -0.00088 ]
LCAOMinimize: Iter:  23  F: -8089.2018834282143871  |grad|_K:  8.208e-05  alpha:  1.279e-01  linmin:  1.014e-03  cgtest:  3.620e-02  t[s]:   1445.93
	FillingsUpdate:  mu: +0.141506936  nElectrons: 770.000000  magneticMoment: [ Abs: 0.01007  Tot: -0.00092 ]
LCAOMinimize: Iter:  24  F: -8089.2024907087698011  |grad|_K:  5.839e-05  alpha:  4.649e-02  linmin:  1.631e-04  cgtest:  7.647e-03  t[s]:   1495.33
	FillingsUpdate:  mu: +0.140952174  nElectrons: 770.000000  magneticMoment: [ Abs: 0.01007  Tot: -0.00093 ]
LCAOMinimize: Iter:  25  F: -8089.2026507185100854  |grad|_K:  3.421e-05  alpha:  2.405e-02  linmin:  2.028e-04  cgtest: -3.781e-03  t[s]:   1544.82
LCAOMinimize: 	Predicted alpha/alphaT>3.000000, increasing alphaT to 7.214640e-02.
	FillingsUpdate:  mu: +0.142310300  nElectrons: 770.000000  magneticMoment: [ Abs: 0.01006  Tot: -0.00098 ]
LCAOMinimize: Iter:  26  F: -8089.2028330777575320  |grad|_K:  2.384e-05  alpha:  7.962e-02  linmin: -3.630e-04  cgtest:  6.112e-03  t[s]:   1607.23
	FillingsUpdate:  mu: +0.143424925  nElectrons: 770.000000  magneticMoment: [ Abs: 0.01004  Tot: -0.00101 ]
LCAOMinimize: Iter:  27  F: -8089.2029617672642416  |grad|_K:  1.723e-05  alpha:  1.153e-01  linmin: -4.312e-05  cgtest: -1.871e-03  t[s]:   1656.74
	FillingsUpdate:  mu: +0.143376632  nElectrons: 770.000000  magneticMoment: [ Abs: 0.01004  Tot: -0.00103 ]
LCAOMinimize: Iter:  28  F: -8089.2029788040354106  |grad|_K:  1.505e-05  alpha:  2.928e-02  linmin: -3.439e-05  cgtest: -1.651e-03  t[s]:   1706.17
	FillingsUpdate:  mu: +0.143010943  nElectrons: 770.000000  magneticMoment: [ Abs: 0.01005  Tot: -0.00106 ]
LCAOMinimize: Iter:  29  F: -8089.2030075002958256  |grad|_K:  1.060e-05  alpha:  6.468e-02  linmin:  4.162e-05  cgtest: -6.800e-04  t[s]:   1756.04
	FillingsUpdate:  mu: +0.142618394  nElectrons: 770.000000  magneticMoment: [ Abs: 0.01006  Tot: -0.00111 ]
LCAOMinimize: Iter:  30  F: -8089.2030296802231533  |grad|_K:  9.214e-06  alpha:  1.009e-01  linmin:  5.473e-04  cgtest: -1.134e-03  t[s]:   1805.49
LCAOMinimize: None of the convergence criteria satisfied after 30 iterations.
----- createFluidSolver() ----- (Fluid-side solver setup)
   Initializing fluid molecule 'H2O'
     Initializing site 'O'
       Electron density: proportional to exp(-r/0.36935)*erfc((r-0.51523)/0.36823) with norm 6.826
       Charge density: gaussian nuclear width 0.478731 with net site charge 0.826
       Polarizability: cuspless exponential with width 0.32 and norm 3.73
       Hard sphere radius: 2.57003 bohrs
       Positions in reference frame:
         [ +0.000000 +0.000000 +0.000000 ]
     Initializing site 'H'
       Electron density: proportional to exp(-r/0.34641)*erfc((r-0)/0.390882) with norm 0.587
       Charge density: gaussian nuclear width 0.377945 with net site charge -0.413
       Polarizability: cuspless exponential with width 0.39 and norm 3.3
       Positions in reference frame:
         [ +0.000000 -1.441945 +1.122523 ]
         [ +0.000000 +1.441945 +1.122523 ]
     Net charge: 0   dipole magnitude: 0.927204
     Initializing spherical shell mfKernel with radius 2.61727 Bohr
     deltaS corrections:
       site 'O': -7.54299
       site 'H': -6.83917
   Initializing fluid molecule 'Na+'
     Initializing site 'Na'
       Electron density: proportional to exp(-r/0.19682)*erfc((r-0.71491)/0.41314) with norm 8.1383
       Charge density: gaussian nuclear width 0.365347 with net site charge -1
       Hard sphere radius: 1.86327 bohrs
       Positions in reference frame:
         [ +0.000000 +0.000000 +0.000000 ]
     Net charge: -1   dipole magnitude: 0
     Initializing gaussian mfKernel with width: 1.55004 Bohr
     deltaS corrections:
       site 'Na': -22.3555
   Initializing fluid molecule 'F-'
     Initializing site 'F'
       Electron density: proportional to exp(-r/0.38886)*erfc((r-0)/0.438782) with norm 8
       Charge density: gaussian nuclear width 0.374796 with net site charge 1
       Hard sphere radius: 2.39995 bohrs
       Positions in reference frame:
         [ +0.000000 +0.000000 +0.000000 ]
     Net charge: 1   dipole magnitude: 0
     Initializing gaussian mfKernel with width: 1.59012 Bohr
     deltaS corrections:
       site 'F': -9.04335

Correction to mu due to finite nuclear width = -0.0831365
   Cavity determined by nc: 0.00142 and sigma: 0.707107
   Nonlocal vdW cavity from gaussian model electron density with norm = 8 and sigma = 0.993594 bohr
   Charge asymmetry in cavity with sensitivity pCavity = 36.5 e-bohr/Eh
   Electrostatic cavity expanded by eta = 1.46 bohrs
   Weighted density cavitation model constrained by Nbulk: 0.0049383 bohr^-3, Pvap: 3.14029 kPa, Rvdw: 2.61727 bohr and sigmaBulk: 4.62e-05 Eh/bohr^2 at T: 298 K.
   Weighted density dispersion model using vdW pair potentials with single solvent site with sqrtC6eff: 0.77 SI.


---- Citations for features of the code used in this run ----

   Software package:
      R. Sundararaman, K. Letchworth-Weaver, K.A. Schwarz, D. Gunceler, Y. Ozhabes and T.A. Arias, 'JDFTx: software for joint density-functional theory', SoftwareX 6, 278 (2017)

   gga-PBE exchange-correlation functional:
      J.P. Perdew, K. Burke and M. Ernzerhof, Phys. Rev. Lett. 77, 3865 (1996)

   Pseudopotentials:
      KF Garrity, JW Bennett, KM Rabe and D Vanderbilt, Comput. Mater. Sci. 81, 446 (2014)

   DFT-D3 dispersion correction:
      S. Grimme, J. Antony, S. Ehrlich and H. Krieg, J. Chem. Phys. 132, 154104 (2010)

   DFT-D2 dispersion correction:
      S. Grimme, J. Comput. Chem. 27, 1787 (2006)

   Charge-asymmetric nonlocally-determined local-electric (CANDLE) solvation model:
      R. Sundararaman and W.A. Goddard III, J. Chem. Phys. 142, 064107 (2015)

   Total energy minimization with Auxiliary Hamiltonian:
      C. Freysoldt, S. Boeck, and J. Neugebauer, Phys. Rev. B 79, 241103(R) (2009)

   Linear-tetrahedron sampling for density of states:
      G. Lehmann and M. Taut, Phys. status solidi (b) 54, 469 (1972)

This list may not be complete. Please suggest additional citations or
report any other bugs at https://github.com/shankar1729/jdftx/issues

Initialization completed successfully at t[s]:   1823.58


Computing DFT-D3 correction:
# coordination-number Cu 8.287 8.289 8.287 8.289 8.917 8.917 8.917 8.918 9.035 9.035 9.035 9.035 6.874 6.874 6.874 6.874 4.943 4.946 4.943 5.957 9.029 9.028 9.028 9.028 8.920 8.920 8.920 8.920 8.294 8.294 8.294 8.294 4.946 4.947 4.947 4.947 6.876 6.870 6.876 6.876
# coordination-number C 2.029
# coordination-number O 1.024
# diagonal-C6 Cu 175.00 175.00 175.00 175.00 175.00 175.00 175.00 175.00 175.00 175.00 175.00 175.00 175.00 175.00 175.00 175.00 175.00 175.00 175.00 175.00 175.00 175.00 175.00 175.00 175.00 175.00 175.00 175.00 175.00 175.00 175.00 175.00 175.00 175.00 175.00 175.00 175.00 175.00 175.00 175.00
# diagonal-C6 C 29.43
# diagonal-C6 O 12.79
EvdW_6 =   -0.208054
EvdW_8 =   -0.325797
Fluid solver invoked on fresh (random / LCAO) wavefunctions
Running a vacuum solve first:

-------- Initial electronic minimization -----------
	FillingsUpdate:  mu: +0.142618416  nElectrons: 770.000000  magneticMoment: [ Abs: 0.01006  Tot: -0.00111 ]
ElecMinimize: Iter:   0  F: -8089.203029680253167  |grad|_K:  3.290e-04  alpha:  1.000e+00
	FillingsUpdate:  mu: +0.028532222  nElectrons: 770.000000  magneticMoment: [ Abs: 0.00979  Tot: -0.00112 ]
	SubspaceRotationAdjust: set factor to 0.955
ElecMinimize: Iter:   1  F: -8091.859592885232814  |grad|_K:  1.694e-04  alpha:  1.002e-01  linmin:  1.903e-04  t[s]:   1965.99
ElecMinimize: 	Predicted alpha/alphaT>3.000000, increasing alphaT to 3.004537e-01.
	FillingsUpdate:  mu: +0.220891859  nElectrons: 770.000000  magneticMoment: [ Abs: 0.00663  Tot: -0.00023 ]
	SubspaceRotationAdjust: set factor to 0.928
ElecMinimize: Iter:   2  F: -8094.500514172736075  |grad|_K:  1.266e-04  alpha:  3.704e-01  linmin: -6.017e-05  t[s]:   2082.12
	FillingsUpdate:  mu: +0.175804107  nElectrons: 770.000000  magneticMoment: [ Abs: 0.00608  Tot: -0.00002 ]
	SubspaceRotationAdjust: set factor to 0.816
ElecMinimize: Iter:   3  F: -8095.099415003603099  |grad|_K:  9.331e-05  alpha:  1.351e-01  linmin: -1.274e-05  t[s]:   2174.89
	FillingsUpdate:  mu: +0.172102445  nElectrons: 770.000000  magneticMoment: [ Abs: 0.00547  Tot: +0.00011 ]
	SubspaceRotationAdjust: set factor to 0.551
ElecMinimize: Iter:   4  F: -8095.309138370072105  |grad|_K:  8.497e-05  alpha:  9.491e-02  linmin: -3.658e-06  t[s]:   2267.52
	FillingsUpdate:  mu: +0.106358371  nElectrons: 770.000000  magneticMoment: [ Abs: 0.00475  Tot: +0.00021 ]
	SubspaceRotationAdjust: set factor to 0.55
ElecMinimize: Iter:   5  F: -8095.494674927395863  |grad|_K:  4.453e-05  alpha:  1.000e-01  linmin: -3.937e-06  t[s]:   2360.19
	FillingsUpdate:  mu: +0.107698977  nElectrons: 770.000000  magneticMoment: [ Abs: 0.00427  Tot: +0.00023 ]
	SubspaceRotationAdjust: set factor to 0.61
ElecMinimize: Iter:   6  F: -8095.556731639292593  |grad|_K:  2.967e-05  alpha:  1.219e-01  linmin:  9.558e-07  t[s]:   2452.93
	FillingsUpdate:  mu: +0.115193825  nElectrons: 770.000000  magneticMoment: [ Abs: 0.00354  Tot: +0.00025 ]
	SubspaceRotationAdjust: set factor to 0.488
ElecMinimize: Iter:   7  F: -8095.590339038218190  |grad|_K:  2.532e-05  alpha:  1.493e-01  linmin: -6.556e-06  t[s]:   2545.63
	FillingsUpdate:  mu: +0.113598699  nElectrons: 770.000000  magneticMoment: [ Abs: 0.00296  Tot: +0.00027 ]
	SubspaceRotationAdjust: set factor to 0.468
ElecMinimize: Iter:   8  F: -8095.610644748205232  |grad|_K:  1.774e-05  alpha:  1.234e-01  linmin: -2.300e-06  t[s]:   2638.61
	FillingsUpdate:  mu: +0.104692165  nElectrons: 770.000000  magneticMoment: [ Abs: 0.00252  Tot: +0.00027 ]
	SubspaceRotationAdjust: set factor to 0.496
ElecMinimize: Iter:   9  F: -8095.623751054483364  |grad|_K:  1.331e-05  alpha:  1.625e-01  linmin: -8.652e-09  t[s]:   2731.27
	FillingsUpdate:  mu: +0.103505644  nElectrons: 770.000000  magneticMoment: [ Abs: 0.00218  Tot: +0.00027 ]
	SubspaceRotationAdjust: set factor to 0.498
ElecMinimize: Iter:  10  F: -8095.630282378187076  |grad|_K:  9.897e-06  alpha:  1.443e-01  linmin: -3.397e-07  t[s]:   2823.97
	FillingsUpdate:  mu: +0.106881716  nElectrons: 770.000000  magneticMoment: [ Abs: 0.00185  Tot: +0.00026 ]
	SubspaceRotationAdjust: set factor to 0.492
ElecMinimize: Iter:  11  F: -8095.634193631247399  |grad|_K:  7.983e-06  alpha:  1.562e-01  linmin: -6.156e-07  t[s]:   2916.72
	FillingsUpdate:  mu: +0.108342801  nElectrons: 770.000000  magneticMoment: [ Abs: 0.00147  Tot: +0.00025 ]
	SubspaceRotationAdjust: set factor to 0.528
ElecMinimize: Iter:  12  F: -8095.636756757823605  |grad|_K:  5.839e-06  alpha:  1.573e-01  linmin:  4.170e-07  t[s]:   3009.49
	FillingsUpdate:  mu: +0.107926278  nElectrons: 770.000000  magneticMoment: [ Abs: 0.00119  Tot: +0.00023 ]
	SubspaceRotationAdjust: set factor to 0.575
ElecMinimize: Iter:  13  F: -8095.638106776938002  |grad|_K:  4.894e-06  alpha:  1.550e-01  linmin:  6.129e-07  t[s]:   3102.28
	FillingsUpdate:  mu: +0.106330118  nElectrons: 770.000000  magneticMoment: [ Abs: 0.00093  Tot: +0.00021 ]
	SubspaceRotationAdjust: set factor to 0.577
ElecMinimize: Iter:  14  F: -8095.639160420157168  |grad|_K:  4.080e-06  alpha:  1.723e-01  linmin:  3.336e-07  t[s]:   3194.87
	FillingsUpdate:  mu: +0.105430067  nElectrons: 770.000000  magneticMoment: [ Abs: 0.00075  Tot: +0.00019 ]
	SubspaceRotationAdjust: set factor to 0.545
ElecMinimize: Iter:  15  F: -8095.639763491017220  |grad|_K:  3.069e-06  alpha:  1.418e-01  linmin:  2.177e-07  t[s]:   3287.55
	FillingsUpdate:  mu: +0.106054837  nElectrons: 770.000000  magneticMoment: [ Abs: 0.00061  Tot: +0.00016 ]
	SubspaceRotationAdjust: set factor to 0.534
ElecMinimize: Iter:  16  F: -8095.640111933530534  |grad|_K:  2.134e-06  alpha:  1.448e-01  linmin:  1.311e-06  t[s]:   3380.43
	FillingsUpdate:  mu: +0.106566485  nElectrons: 770.000000  magneticMoment: [ Abs: 0.00050  Tot: +0.00014 ]
	SubspaceRotationAdjust: set factor to 0.576
ElecMinimize: Iter:  17  F: -8095.640299098665309  |grad|_K:  1.809e-06  alpha:  1.610e-01  linmin:  5.439e-07  t[s]:   3472.94
	FillingsUpdate:  mu: +0.106217006  nElectrons: 770.000000  magneticMoment: [ Abs: 0.00040  Tot: +0.00012 ]
	SubspaceRotationAdjust: set factor to 0.54
ElecMinimize: Iter:  18  F: -8095.640432618501109  |grad|_K:  1.392e-06  alpha:  1.597e-01  linmin:  1.414e-06  t[s]:   3566.35
	FillingsUpdate:  mu: +0.105843114  nElectrons: 770.000000  magneticMoment: [ Abs: 0.00033  Tot: +0.00011 ]
	SubspaceRotationAdjust: set factor to 0.45
ElecMinimize: Iter:  19  F: -8095.640498150514759  |grad|_K:  9.942e-07  alpha:  1.324e-01  linmin:  5.269e-07  t[s]:   3659.15
	FillingsUpdate:  mu: +0.105723564  nElectrons: 770.000000  magneticMoment: [ Abs: 0.00026  Tot: +0.00009 ]
	SubspaceRotationAdjust: set factor to 0.473
ElecMinimize: Iter:  20  F: -8095.640546811121567  |grad|_K:  9.502e-07  alpha:  1.928e-01  linmin:  6.863e-07  t[s]:   3751.98
	FillingsUpdate:  mu: +0.105680212  nElectrons: 770.000000  magneticMoment: [ Abs: 0.00021  Tot: +0.00007 ]
	SubspaceRotationAdjust: set factor to 0.491
ElecMinimize: Iter:  21  F: -8095.640580235404741  |grad|_K:  6.324e-07  alpha:  1.449e-01  linmin:  1.093e-07  t[s]:   3845.25
	FillingsUpdate:  mu: +0.105726476  nElectrons: 770.000000  magneticMoment: [ Abs: 0.00017  Tot: +0.00006 ]
	SubspaceRotationAdjust: set factor to 0.463
ElecMinimize: Iter:  22  F: -8095.640597094255099  |grad|_K:  5.585e-07  alpha:  1.650e-01  linmin:  4.331e-07  t[s]:   3937.95
	FillingsUpdate:  mu: +0.105776194  nElectrons: 770.000000  magneticMoment: [ Abs: 0.00014  Tot: +0.00005 ]
	SubspaceRotationAdjust: set factor to 0.506
ElecMinimize: Iter:  23  F: -8095.640611248373716  |grad|_K:  4.528e-07  alpha:  1.777e-01  linmin:  4.494e-07  t[s]:   4030.71
	FillingsUpdate:  mu: +0.105672608  nElectrons: 770.000000  magneticMoment: [ Abs: 0.00012  Tot: +0.00004 ]
	SubspaceRotationAdjust: set factor to 0.531
ElecMinimize: Iter:  24  F: -8095.640619928023625  |grad|_K:  3.901e-07  alpha:  1.658e-01  linmin:  2.537e-07  t[s]:   4123.43
	FillingsUpdate:  mu: +0.105554519  nElectrons: 770.000000  magneticMoment: [ Abs: 0.00009  Tot: +0.00003 ]
	SubspaceRotationAdjust: set factor to 0.557
ElecMinimize: Iter:  25  F: -8095.640626938054083  |grad|_K:  3.353e-07  alpha:  1.805e-01  linmin:  6.191e-07  t[s]:   4215.99
	FillingsUpdate:  mu: +0.105578375  nElectrons: 770.000000  magneticMoment: [ Abs: 0.00008  Tot: +0.00002 ]
	SubspaceRotationAdjust: set factor to 0.597
ElecMinimize: Iter:  26  F: -8095.640631268694960  |grad|_K:  2.610e-07  alpha:  1.509e-01  linmin:  1.946e-07  t[s]:   4308.64
	FillingsUpdate:  mu: +0.105622805  nElectrons: 770.000000  magneticMoment: [ Abs: 0.00007  Tot: +0.00001 ]
	SubspaceRotationAdjust: set factor to 0.622
ElecMinimize: Iter:  27  F: -8095.640634494890037  |grad|_K:  2.269e-07  alpha:  1.856e-01  linmin:  5.877e-07  t[s]:   4401.20
	FillingsUpdate:  mu: +0.105599381  nElectrons: 770.000000  magneticMoment: [ Abs: 0.00006  Tot: +0.00001 ]
	SubspaceRotationAdjust: set factor to 0.659
ElecMinimize: Iter:  28  F: -8095.640636413450920  |grad|_K:  1.764e-07  alpha:  1.461e-01  linmin:  1.722e-07  t[s]:   4495.23
	FillingsUpdate:  mu: +0.105556206  nElectrons: 770.000000  magneticMoment: [ Abs: 0.00005  Tot: +0.00000 ]
	SubspaceRotationAdjust: set factor to 0.681
ElecMinimize: Iter:  29  F: -8095.640637927043826  |grad|_K:  1.597e-07  alpha:  1.906e-01  linmin:  2.350e-07  t[s]:   4587.96
	FillingsUpdate:  mu: +0.105544650  nElectrons: 770.000000  magneticMoment: [ Abs: 0.00004  Tot: +0.00000 ]
	SubspaceRotationAdjust: set factor to 0.719
ElecMinimize: Iter:  30  F: -8095.640638933072296  |grad|_K:  1.216e-07  alpha:  1.546e-01  linmin:  9.441e-08  t[s]:   4680.67
	FillingsUpdate:  mu: +0.105560808  nElectrons: 770.000000  magneticMoment: [ Abs: 0.00004  Tot: -0.00000 ]
	SubspaceRotationAdjust: set factor to 0.66
ElecMinimize: Iter:  31  F: -8095.640639492167793  |grad|_K:  1.001e-07  alpha:  1.481e-01  linmin:  3.106e-07  t[s]:   4773.74
	FillingsUpdate:  mu: +0.105579036  nElectrons: 770.000000  magneticMoment: [ Abs: 0.00003  Tot: -0.00000 ]
	SubspaceRotationAdjust: set factor to 0.583
ElecMinimize: Iter:  32  F: -8095.640639887891666  |grad|_K:  8.566e-08  alpha:  1.547e-01  linmin:  4.289e-08  t[s]:   4866.52
	FillingsUpdate:  mu: +0.105570050  nElectrons: 770.000000  magneticMoment: [ Abs: 0.00003  Tot: -0.00000 ]
	SubspaceRotationAdjust: set factor to 0.563
ElecMinimize: Iter:  33  F: -8095.640640164516299  |grad|_K:  6.895e-08  alpha:  1.476e-01  linmin:  1.055e-07  t[s]:   4959.29
	FillingsUpdate:  mu: +0.105548397  nElectrons: 770.000000  magneticMoment: [ Abs: 0.00002  Tot: -0.00000 ]
	SubspaceRotationAdjust: set factor to 0.61
ElecMinimize: Iter:  34  F: -8095.640640346973669  |grad|_K:  5.233e-08  alpha:  1.503e-01  linmin:  1.716e-07  t[s]:   5052.21
	FillingsUpdate:  mu: +0.105550247  nElectrons: 770.000000  magneticMoment: [ Abs: 0.00002  Tot: -0.00000 ]
	SubspaceRotationAdjust: set factor to 0.653
ElecMinimize: Iter:  35  F: -8095.640640471041479  |grad|_K:  4.974e-08  alpha:  1.772e-01  linmin: -1.031e-07  t[s]:   5144.81
	FillingsUpdate:  mu: +0.105566802  nElectrons: 770.000000  magneticMoment: [ Abs: 0.00002  Tot: -0.00000 ]
	SubspaceRotationAdjust: set factor to 0.663
ElecMinimize: Iter:  36  F: -8095.640640570149117  |grad|_K:  3.947e-08  alpha:  1.570e-01  linmin:  1.756e-09  t[s]:   5237.33
	FillingsUpdate:  mu: +0.105567680  nElectrons: 770.000000  magneticMoment: [ Abs: 0.00001  Tot: -0.00000 ]
	SubspaceRotationAdjust: set factor to 0.695
ElecMinimize: Iter:  37  F: -8095.640640628612346  |grad|_K:  3.302e-08  alpha:  1.463e-01  linmin:  5.826e-09  t[s]:   5329.83
ElecMinimize: Converged (|Delta F|<1.000000e-07 for 2 iters).
Setting wave functions to eigenvectors of Hamiltonian
Converging empty states (this may take a while): |deigs|: 1.353e-02
Vacuum energy after initial minimize, F = -8095.640640628612346


-------- Electronic minimization -----------
	Linear fluid (dielectric constant: 78.4, screening length: 8.12261 Bohr) occupying 0.437553 of unit cell:	Completed after 24 iterations at t[s]:   5871.09
	FillingsUpdate:  mu: -0.154286024  nElectrons: 770.000000  magneticMoment: [ Abs: 0.00000  Tot: -0.00000 ]
ElecMinimize: Iter:   0  F: -8095.639641354338892  |grad|_K:  1.345e-06  alpha:  1.000e+00
	Linear fluid (dielectric constant: 78.4, screening length: 8.12261 Bohr) occupying 0.439821 of unit cell:	Completed after 18 iterations at t[s]:   5951.23
	Linear fluid (dielectric constant: 78.4, screening length: 8.12261 Bohr) occupying 0.438575 of unit cell:	Completed after 18 iterations at t[s]:   5980.55
	FillingsUpdate:  mu: -0.149478491  nElectrons: 770.000000  magneticMoment: [ Abs: 0.00000  Tot: -0.00000 ]
	SubspaceRotationAdjust: set factor to 0.53
ElecMinimize: Iter:   1  F: -8095.639838682907794  |grad|_K:  1.847e-06  alpha:  4.366e-01  linmin:  4.803e-07  t[s]:   6016.18
	Linear fluid (dielectric constant: 78.4, screening length: 8.12261 Bohr) occupying 0.440580 of unit cell:	Completed after 17 iterations at t[s]:   6054.94
	Linear fluid (dielectric constant: 78.4, screening length: 8.12261 Bohr) occupying 0.439355 of unit cell:	Completed after 15 iterations at t[s]:   6083.36
	FillingsUpdate:  mu: -0.149859054  nElectrons: 770.000000  magneticMoment: [ Abs: 0.00000  Tot: -0.00000 ]
	SubspaceRotationAdjust: set factor to 0.666
ElecMinimize: Iter:   2  F: -8095.639978899749622  |grad|_K:  1.415e-06  alpha:  1.636e-01  linmin:  4.077e-08  t[s]:   6119.12
	Linear fluid (dielectric constant: 78.4, screening length: 8.12261 Bohr) occupying 0.439832 of unit cell:	Completed after 11 iterations at t[s]:   6156.93
	Linear fluid (dielectric constant: 78.4, screening length: 8.12261 Bohr) occupying 0.439769 of unit cell:	Completed after 6 iterations at t[s]:   6183.39
	FillingsUpdate:  mu: -0.150603333  nElectrons: 770.000000  magneticMoment: [ Abs: 0.00000  Tot: -0.00000 ]
	SubspaceRotationAdjust: set factor to 0.756
ElecMinimize: Iter:   3  F: -8095.640051263440000  |grad|_K:  7.381e-07  alpha:  1.417e-01  linmin:  2.455e-08  t[s]:   6219.23
	Linear fluid (dielectric constant: 78.4, screening length: 8.12261 Bohr) occupying 0.439906 of unit cell:	Completed after 7 iterations at t[s]:   6256.18
	Linear fluid (dielectric constant: 78.4, screening length: 8.12261 Bohr) occupying 0.440037 of unit cell:	Completed after 8 iterations at t[s]:   6283.10
	FillingsUpdate:  mu: -0.150621386  nElectrons: 770.000000  magneticMoment: [ Abs: 0.00000  Tot: -0.00000 ]
	SubspaceRotationAdjust: set factor to 0.865
ElecMinimize: Iter:   4  F: -8095.640090030694410  |grad|_K:  6.051e-07  alpha:  2.783e-01  linmin: -6.396e-08  t[s]:   6318.92
	Linear fluid (dielectric constant: 78.4, screening length: 8.12261 Bohr) occupying 0.440244 of unit cell:	Completed after 11 iterations at t[s]:   6356.69
	Linear fluid (dielectric constant: 78.4, screening length: 8.12261 Bohr) occupying 0.440132 of unit cell:	Completed after 9 iterations at t[s]:   6383.80
	FillingsUpdate:  mu: -0.150335410  nElectrons: 770.000000  magneticMoment: [ Abs: 0.00000  Tot: -0.00000 ]
	SubspaceRotationAdjust: set factor to 0.816
ElecMinimize: Iter:   5  F: -8095.640101883420357  |grad|_K:  3.909e-07  alpha:  1.265e-01  linmin:  1.485e-08  t[s]:   6419.59
	Linear fluid (dielectric constant: 78.4, screening length: 8.12261 Bohr) occupying 0.440171 of unit cell:	Completed after 6 iterations at t[s]:   6456.40
	Linear fluid (dielectric constant: 78.4, screening length: 8.12261 Bohr) occupying 0.440193 of unit cell:	Completed after 5 iterations at t[s]:   6482.55
	FillingsUpdate:  mu: -0.150465713  nElectrons: 770.000000  magneticMoment: [ Abs: 0.00000  Tot: -0.00000 ]
	SubspaceRotationAdjust: set factor to 0.834
ElecMinimize: Iter:   6  F: -8095.640109594733076  |grad|_K:  2.967e-07  alpha:  1.975e-01  linmin: -5.007e-08  t[s]:   6518.25
	Linear fluid (dielectric constant: 78.4, screening length: 8.12261 Bohr) occupying 0.440228 of unit cell:	Completed after 7 iterations at t[s]:   6555.05
	Linear fluid (dielectric constant: 78.4, screening length: 8.12261 Bohr) occupying 0.440222 of unit cell:	Completed after 2 iterations at t[s]:   6580.77
	FillingsUpdate:  mu: -0.150482949  nElectrons: 770.000000  magneticMoment: [ Abs: 0.00000  Tot: -0.00000 ]
	SubspaceRotationAdjust: set factor to 0.83
ElecMinimize: Iter:   7  F: -8095.640113311489586  |grad|_K:  2.342e-07  alpha:  1.651e-01  linmin:  6.832e-08  t[s]:   6616.52
	Linear fluid (dielectric constant: 78.4, screening length: 8.12261 Bohr) occupying 0.440240 of unit cell:	Completed after 2 iterations at t[s]:   6652.36
	Linear fluid (dielectric constant: 78.4, screening length: 8.12261 Bohr) occupying 0.440242 of unit cell:	Completed after 2 iterations at t[s]:   6678.11
	FillingsUpdate:  mu: -0.150533144  nElectrons: 770.000000  magneticMoment: [ Abs: 0.00000  Tot: -0.00000 ]
	SubspaceRotationAdjust: set factor to 0.795
ElecMinimize: Iter:   8  F: -8095.640115947472623  |grad|_K:  1.467e-07  alpha:  1.886e-01  linmin: -8.325e-08  t[s]:   6713.87
	Linear fluid (dielectric constant: 78.4, screening length: 8.12261 Bohr) occupying 0.440251 of unit cell:	Completed after 2 iterations at t[s]:   6749.71
	Linear fluid (dielectric constant: 78.4, screening length: 8.12261 Bohr) occupying 0.440249 of unit cell:	Completed after 2 iterations at t[s]:   6775.49
	FillingsUpdate:  mu: -0.150485089  nElectrons: 770.000000  magneticMoment: [ Abs: 0.00000  Tot: -0.00000 ]
	SubspaceRotationAdjust: set factor to 0.825
ElecMinimize: Iter:   9  F: -8095.640116740176381  |grad|_K:  1.218e-07  alpha:  1.440e-01  linmin:  1.082e-06  t[s]:   6811.24
	Linear fluid (dielectric constant: 78.4, screening length: 8.12261 Bohr) occupying 0.440253 of unit cell:	Completed after 3 iterations at t[s]:   6847.50
	Linear fluid (dielectric constant: 78.4, screening length: 8.12261 Bohr) occupying 0.440256 of unit cell:	Completed after 3 iterations at t[s]:   6873.44
	FillingsUpdate:  mu: -0.150463020  nElectrons: 770.000000  magneticMoment: [ Abs: 0.00000  Tot: -0.00000 ]
	SubspaceRotationAdjust: set factor to 0.797
ElecMinimize: Iter:  10  F: -8095.640117730688871  |grad|_K:  1.095e-07  alpha:  2.626e-01  linmin:  1.097e-08  t[s]:   6909.25
	Linear fluid (dielectric constant: 78.4, screening length: 8.12261 Bohr) occupying 0.440257 of unit cell:	Completed after 5 iterations at t[s]:   6945.73
	Linear fluid (dielectric constant: 78.4, screening length: 8.12261 Bohr) occupying 0.440256 of unit cell:	Completed after 3 iterations at t[s]:   6971.70
	FillingsUpdate:  mu: -0.150489185  nElectrons: 770.000000  magneticMoment: [ Abs: 0.00000  Tot: -0.00000 ]
	SubspaceRotationAdjust: set factor to 0.777
ElecMinimize: Iter:  11  F: -8095.640118119716135  |grad|_K:  6.232e-08  alpha:  1.256e-01  linmin:  6.292e-07  t[s]:   7007.46
	Linear fluid (dielectric constant: 78.4, screening length: 8.12261 Bohr) occupying 0.440256 of unit cell:	Completed after 1 iterations at t[s]:   7043.11
	Linear fluid (dielectric constant: 78.4, screening length: 8.12261 Bohr) occupying 0.440256 of unit cell:	Completed after 1 iterations at t[s]:   7068.69
	FillingsUpdate:  mu: -0.150487201  nElectrons: 770.000000  magneticMoment: [ Abs: 0.00000  Tot: -0.00000 ]
	SubspaceRotationAdjust: set factor to 0.82
ElecMinimize: Iter:  12  F: -8095.640118334553335  |grad|_K:  6.025e-08  alpha:  2.182e-01  linmin: -2.118e-07  t[s]:   7104.46
	Linear fluid (dielectric constant: 78.4, screening length: 8.12261 Bohr) occupying 0.440255 of unit cell:	Completed after 2 iterations at t[s]:   7140.81
	Linear fluid (dielectric constant: 78.4, screening length: 8.12261 Bohr) occupying 0.440255 of unit cell:	Completed after 0 iterations at t[s]:   7166.00
	FillingsUpdate:  mu: -0.150496444  nElectrons: 770.000000  magneticMoment: [ Abs: 0.00000  Tot: -0.00000 ]
	SubspaceRotationAdjust: set factor to 0.83
ElecMinimize: Iter:  13  F: -8095.640118489326596  |grad|_K:  4.624e-08  alpha:  1.618e-01  linmin:  2.185e-06  t[s]:   7201.75
	Linear fluid (dielectric constant: 78.4, screening length: 8.12261 Bohr) occupying 0.440255 of unit cell:	Completed after 2 iterations at t[s]:   7237.74
	Linear fluid (dielectric constant: 78.4, screening length: 8.12261 Bohr) occupying 0.440255 of unit cell:	Completed after 0 iterations at t[s]:   7262.86
	FillingsUpdate:  mu: -0.150481290  nElectrons: 770.000000  magneticMoment: [ Abs: 0.00000  Tot: +0.00000 ]
	SubspaceRotationAdjust: set factor to 0.801
ElecMinimize: Iter:  14  F: -8095.640118562658245  |grad|_K:  3.547e-08  alpha:  1.464e-01  linmin: -2.483e-06  t[s]:   7298.63
	Linear fluid (dielectric constant: 78.4, screening length: 8.12261 Bohr) occupying 0.440255 of unit cell:	Completed after 1 iterations at t[s]:   7334.31
	Linear fluid (dielectric constant: 78.4, screening length: 8.12261 Bohr) occupying 0.440255 of unit cell:	Completed after 0 iterations at t[s]:   7359.77
	FillingsUpdate:  mu: -0.150490191  nElectrons: 770.000000  magneticMoment: [ Abs: 0.00000  Tot: +0.00000 ]
	SubspaceRotationAdjust: set factor to 0.777
ElecMinimize: Iter:  15  F: -8095.640118607608201  |grad|_K:  2.572e-08  alpha:  1.329e-01  linmin:  3.311e-07  t[s]:   7395.58
ElecMinimize: Converged (|Delta F|<1.000000e-07 for 2 iters).
Setting wave functions to eigenvectors of Hamiltonian
Converging empty states (this may take a while): |deigs|: 1.115e-04
Single-point solvation energy estimate, DeltaF = +0.000522021004144

Computing DFT-D3 correction:
# coordination-number Cu 8.287 8.289 8.287 8.289 8.917 8.917 8.917 8.918 9.035 9.035 9.035 9.035 6.874 6.874 6.874 6.874 4.943 4.946 4.943 5.957 9.029 9.028 9.028 9.028 8.920 8.920 8.920 8.920 8.294 8.294 8.294 8.294 4.946 4.947 4.947 4.947 6.876 6.870 6.876 6.876
# coordination-number C 2.029
# coordination-number O 1.024
# diagonal-C6 Cu 175.00 175.00 175.00 175.00 175.00 175.00 175.00 175.00 175.00 175.00 175.00 175.00 175.00 175.00 175.00 175.00 175.00 175.00 175.00 175.00 175.00 175.00 175.00 175.00 175.00 175.00 175.00 175.00 175.00 175.00 175.00 175.00 175.00 175.00 175.00 175.00 175.00 175.00 175.00 175.00
# diagonal-C6 C 29.43
# diagonal-C6 O 12.79
EvdW_6 =   -0.208054
EvdW_8 =   -0.325797

# Ionic positions in cartesian coordinates:
ion Cu   3.374454999999999   1.518659000000000  11.420712999999997 0
ion Cu   0.003943000000000   9.055351000000002  11.420712999999997 0
ion Cu  10.115479000000001   1.518659000000000  11.420712999999997 0
ion Cu   6.744966999999997   9.055351000000002  11.420712999999997 0
ion Cu   0.000344000000000   2.995850000000000   8.272439999999998 0
ion Cu  -3.370168000000001  10.532543000000000   8.272439999999998 0
ion Cu   6.741367000000000   2.995850000000000   8.272439999999998 0
ion Cu   3.370855999999998  10.532543000000000   8.272439999999998 0
ion Cu   3.367713999999999   4.556338000000000   5.270771000000000 0
ion Cu  -0.002791000000002  12.093015000000001   5.270771000000000 0
ion Cu  10.108750999999998   4.556338000000000   5.270771000000000 0
ion Cu   6.738232999999997  12.093015000000001   5.270771000000000 0
ion Cu  -0.002959000000001   6.045498000000001   2.187299000000000 0
ion Cu  -3.373471000000001  13.582190000000002   2.187299000000000 0
ion Cu   6.738077999999999   6.045498000000001   2.187299000000000 0
ion Cu   3.367565999999998  13.582190000000002   2.187299000000000 0
ion Cu   6.744669999999997  15.039877000000001  14.212244000000000 0
ion Cu  10.115181999999999   7.503185000000001  14.212244000000000 0
ion Cu   0.003646999999998  15.039877000000001  14.212244000000000 0
ion Cu   3.374158999999998   7.503185000000001  14.212244000000000 0
ion Cu   3.373288999999999   5.995801000000001   9.801515000000000 0
ion Cu   0.002770999999998  13.532508999999999   9.801515000000000 0
ion Cu  10.114312999999997   5.995801000000001   9.801515000000000 0
ion Cu   6.743807999999997  13.532508999999999   9.801515000000000 0
ion Cu   3.370235000000000   0.020545000000000   6.798760999999999 0
ion Cu  -0.000276000000001   7.557238000000001   6.798760999999999 0
ion Cu  10.111258999999999   0.020545000000000   6.798760999999999 0
ion Cu   6.740746999999999   7.557238000000001   6.798760999999999 0
ion Cu  -0.004564000000000   1.496471000000000   3.652749000000000 0
ion Cu  -3.375075000000001   9.033163000000002   3.652749000000000 0
ion Cu   6.736459999999999   1.496471000000000   3.652749000000000 0
ion Cu   3.365947999999998   9.033163000000002   3.652749000000000 0
ion Cu   3.366999999999999   3.046346000000001   0.863298000000000 0
ion Cu  -0.003519000000002  10.583054000000001   0.863298000000000 0
ion Cu  10.108022999999998   3.046346000000001   0.863298000000000 0
ion Cu   6.737504999999997  10.583054000000001   0.863298000000000 0
ion Cu   0.003383999999999   4.504741000000000  12.887157999999999 0
ion Cu  -3.367128000000000  12.041434000000001  12.887157999999999 0
ion Cu   6.744406999999997   4.504741000000000  12.887157999999999 0
ion Cu   3.373895999999998  12.041434000000001  12.887157999999999 0
ion C   3.374158999999998   7.503185000000001  17.539497999999995 1  Linear 0 0 1
ion O   3.434248000000000   7.503185000000001  19.694826999999997 1  Linear 0 0 1

# Forces in Cartesian coordinates:
force Cu  -0.000085305245320   0.001175044283980  -0.000287747360957 0
force Cu  -0.001300110156559   0.001092508448188  -0.002945184204193 0
force Cu   0.000106579471135   0.000328011359051  -0.000014478095891 0
force Cu   0.001025343339513   0.000869526137924  -0.002543204331654 0
force Cu  -0.000265378434488  -0.000377700040060   0.000167547208515 0
force Cu   0.000041812490598   0.000362269364230  -0.000529437389344 0
force Cu   0.000024450425898  -0.000357932059161   0.000107544123353 0
force Cu  -0.000169095885117  -0.000221454017595   0.001752442972637 0
force Cu   0.000182158493241   0.000964215053785   0.000060603728757 0
force Cu   0.000193698981104   0.000364684909425  -0.000184704809066 0
force Cu   0.000201136280949   0.000894927887897  -0.000235914057143 0
force Cu   0.000233115405326   0.000492946330759  -0.000232101830051 0
force Cu  -0.000659556866943  -0.000050883100250   0.000197788545666 0
force Cu  -0.000114277080657  -0.000651140778949   0.000509006135722 0
force Cu   0.000282250638778   0.000115309393984   0.000241679430882 0
force Cu  -0.000294139370736   0.000547517060922   0.000351484272926 0
force Cu   0.000038833034277  -0.000564870165974   0.000258292028142 0
force Cu  -0.000197430786605  -0.000539805554656  -0.000661397010891 0
force Cu  -0.000057338370472  -0.000698413396541   0.000206083542455 0
force Cu  -0.000203107225226  -0.002056422542958  -0.013510366989432 0
force Cu  -0.000029013825993   0.000523015287439   0.001749857017682 0
force Cu  -0.000391287758501  -0.000726409796375   0.000381183757770 0
force Cu  -0.000126246433835  -0.000280238557383   0.001240070161926 0
force Cu   0.000113080637239  -0.000676603891312   0.000690750171041 0
force Cu   0.000133679754736   0.000421010270961   0.000293121563004 0
force Cu  -0.000656841829083  -0.000149998005581  -0.000963218755187 0
force Cu   0.000031513234623   0.000068412115968   0.000494762372329 0
force Cu   0.000628134799086  -0.000282547480285  -0.001221501177554 0
force Cu  -0.000204327605009  -0.000965539665626  -0.000226693538056 0
force Cu  -0.000014131640215  -0.000212682690668  -0.000017575220519 0
force Cu   0.000271651640871  -0.000961062342614  -0.000162324040967 0
force Cu  -0.000025330978729  -0.000738106202486   0.001072987325882 0
force Cu  -0.000063469909811   0.000497172742985   0.000318515035608 0
force Cu  -0.000641787066397   0.000809728956162  -0.000197069174828 0
force Cu   0.000109594702957   0.000596280657839  -0.000153134071034 0
force Cu   0.000729268721694   0.000768206250838  -0.000124520826088 0
force Cu  -0.002027112040417  -0.002223620260098  -0.002063124622219 0
force Cu   0.000148098087793  -0.000246679697499  -0.000935568520508 0
force Cu   0.002542958678559  -0.001965380263856  -0.002047612188924 0
force Cu   0.000159310079045   0.003126174045052  -0.002438234510525 0
force C   0.000013863257542   0.001337060289423  -0.009918426733181 1  Linear 0 0 1
force O   0.000424521442326  -0.000515094742174   0.031722855238957 1  Linear 0 0 1

# Energy components:
   A_diel =       -0.0000259144129947
   Eewald =    25113.8502348033543967
       EH =    32528.0705429024055775
     Eloc =   -67261.6925955426850123
      Enl =     1468.0664800892018320
     EvdW =       -0.5338508148704268
      Exc =     -781.3610236147410433
 Exc_core =        1.9776400041778972
       KE =      835.9837784786894872
-------------------------------------
     Etot =    -8095.6388196088819313
       TS =        0.0012989987264810
-------------------------------------
        F =    -8095.6401186076082013


Dumping 'jdft.fillings' ... done
Dumping 'jdft.wfns' ... done
Dumping 'jdft.fluidState' ... done
Dumping 'jdft.ionpos' ... done
Dumping 'jdft.lattice' ... done
Dumping 'jdft.eigenvals' ... done
Dumping 'jdft.eigStats' ... 
	eMin: -4.314935 at state 7 ( [ +0.000000 +0.000000 +0.000000 ] spin -1 )
	HOMO: -0.151402 at state 8 ( [ +0.000000 +0.333333 +0.000000 ] spin -1 )
	mu  : -0.150490
	LUMO: -0.150392 at state 6 ( [ +0.500000 +0.333333 +0.000000 ] spin 1 )
	eMax: +0.177234 at state 5 ( [ +0.500000 +0.000000 +0.000000 ] spin 1 )
	HOMO-LUMO gap: +0.001010
	Optical gap  : +0.001857 at state 6 ( [ +0.500000 +0.333333 +0.000000 ] spin 1 )
Dumping 'jdft.Ecomponents' ... done
IonicMinimize: Iter:   0  F: -8095.640118607608201  |grad|_K:  2.350e-02  t[s]:   7862.38

#--- Lowdin population analysis ---
# oxidation-state Cu +0.026 +0.041 +0.026 +0.041 +0.075 +0.072 +0.076 +0.076 +0.044 +0.045 +0.046 +0.046 +0.057 +0.048 +0.058 +0.059 +0.236 +0.242 +0.237 -0.114 +0.053 +0.046 +0.047 +0.046 +0.074 +0.075 +0.074 +0.076 +0.028 +0.026 +0.028 +0.028 +0.246 +0.237 +0.234 +0.237 +0.078 +0.051 +0.077 +0.078
# magnetic-moments Cu +0.000 +0.000 +0.000 +0.000 +0.000 +0.000 +0.000 -0.000 +0.000 +0.000 +0.000 +0.000 -0.000 +0.000 +0.000 +0.000 +0.000 +0.000 +0.000 +0.000 +0.000 +0.000 +0.000 +0.000 +0.000 +0.000 +0.000 +0.000 +0.000 +0.000 +0.000 +0.000 +0.000 +0.000 +0.000 +0.000 +0.000 +0.000 +0.000 +0.000
# oxidation-state C +0.456
# magnetic-moments C +0.000
# oxidation-state O -0.113
# magnetic-moments O -0.000


Computing DFT-D3 correction:
# coordination-number Cu 8.287 8.289 8.287 8.289 8.917 8.917 8.917 8.918 9.035 9.035 9.035 9.035 6.874 6.874 6.874 6.874 4.943 4.946 4.943 5.956 9.029 9.028 9.028 9.028 8.920 8.920 8.920 8.920 8.294 8.294 8.294 8.294 4.946 4.947 4.947 4.947 6.876 6.870 6.876 6.876
# coordination-number C 2.030
# coordination-number O 1.023
# diagonal-C6 Cu 175.00 175.00 175.00 175.00 175.00 175.00 175.00 175.00 175.00 175.00 175.00 175.00 175.00 175.00 175.00 175.00 175.00 175.00 175.00 175.00 175.00 175.00 175.00 175.00 175.00 175.00 175.00 175.00 175.00 175.00 175.00 175.00 175.00 175.00 175.00 175.00 175.00 175.00 175.00 175.00
# diagonal-C6 C 29.43
# diagonal-C6 O 12.79
EvdW_6 =   -0.208044
EvdW_8 =   -0.325801

-------- Electronic minimization -----------
	Linear fluid (dielectric constant: 78.4, screening length: 8.12261 Bohr) occupying 0.440226 of unit cell:	Completed after 18 iterations at t[s]:   7902.10
	FillingsUpdate:  mu: -0.149586165  nElectrons: 770.000000  magneticMoment: [ Abs: 0.00000  Tot: +0.00000 ]
ElecMinimize: Iter:   0  F: -8095.630916973858803  |grad|_K:  7.997e-06  alpha:  1.000e+00
	Linear fluid (dielectric constant: 78.4, screening length: 8.12261 Bohr) occupying 0.439798 of unit cell:	Completed after 21 iterations at t[s]:   7983.40
	Linear fluid (dielectric constant: 78.4, screening length: 8.12261 Bohr) occupying 0.439998 of unit cell:	Completed after 20 iterations at t[s]:   8013.15
	FillingsUpdate:  mu: -0.151001314  nElectrons: 770.000000  magneticMoment: [ Abs: 0.00000  Tot: +0.00000 ]
	SubspaceRotationAdjust: set factor to 0.641
ElecMinimize: Iter:   1  F: -8095.639227099840355  |grad|_K:  3.684e-06  alpha:  5.063e-01  linmin: -6.143e-05  t[s]:   8048.92
	Linear fluid (dielectric constant: 78.4, screening length: 8.12261 Bohr) occupying 0.440054 of unit cell:	Completed after 20 iterations at t[s]:   8088.60
	Linear fluid (dielectric constant: 78.4, screening length: 8.12261 Bohr) occupying 0.439997 of unit cell:	Completed after 20 iterations at t[s]:   8118.49
	FillingsUpdate:  mu: -0.150963859  nElectrons: 770.000000  magneticMoment: [ Abs: 0.00000  Tot: +0.00000 ]
	SubspaceRotationAdjust: set factor to 0.532
ElecMinimize: Iter:   2  F: -8095.639726626248375  |grad|_K:  2.738e-06  alpha:  1.432e-01  linmin: -2.722e-05  t[s]:   8154.09
	Linear fluid (dielectric constant: 78.4, screening length: 8.12261 Bohr) occupying 0.439987 of unit cell:	Completed after 11 iterations at t[s]:   8191.95
	Linear fluid (dielectric constant: 78.4, screening length: 8.12261 Bohr) occupying 0.439988 of unit cell:	Completed after 2 iterations at t[s]:   8218.10
	FillingsUpdate:  mu: -0.151484715  nElectrons: 770.000000  magneticMoment: [ Abs: 0.00000  Tot: +0.00000 ]
	SubspaceRotationAdjust: set factor to 0.716
ElecMinimize: Iter:   3  F: -8095.639996050219452  |grad|_K:  1.780e-06  alpha:  1.402e-01  linmin:  8.109e-06  t[s]:   8253.75
	Linear fluid (dielectric constant: 78.4, screening length: 8.12261 Bohr) occupying 0.439989 of unit cell:	Completed after 11 iterations at t[s]:   8291.55
	Linear fluid (dielectric constant: 78.4, screening length: 8.12261 Bohr) occupying 0.439989 of unit cell:	Completed after 9 iterations at t[s]:   8318.97
	FillingsUpdate:  mu: -0.151483067  nElectrons: 770.000000  magneticMoment: [ Abs: 0.00000  Tot: +0.00000 ]
	SubspaceRotationAdjust: set factor to 0.695
ElecMinimize: Iter:   4  F: -8095.640158042737312  |grad|_K:  9.633e-07  alpha:  2.003e-01  linmin:  1.392e-05  t[s]:   8354.65
	Linear fluid (dielectric constant: 78.4, screening length: 8.12261 Bohr) occupying 0.440017 of unit cell:	Completed after 9 iterations at t[s]:   8392.04
	Linear fluid (dielectric constant: 78.4, screening length: 8.12261 Bohr) occupying 0.440016 of unit cell:	Completed after 2 iterations at t[s]:   8418.13
	FillingsUpdate:  mu: -0.151306322  nElectrons: 770.000000  magneticMoment: [ Abs: 0.00000  Tot: +0.00000 ]
	SubspaceRotationAdjust: set factor to 0.834
ElecMinimize: Iter:   5  F: -8095.640203506249236  |grad|_K:  7.528e-07  alpha:  1.920e-01  linmin:  5.724e-06  t[s]:   8453.82
	Linear fluid (dielectric constant: 78.4, screening length: 8.12261 Bohr) occupying 0.440044 of unit cell:	Completed after 9 iterations at t[s]:   8491.42
	Linear fluid (dielectric constant: 78.4, screening length: 8.12261 Bohr) occupying 0.440038 of unit cell:	Completed after 7 iterations at t[s]:   8518.42
	FillingsUpdate:  mu: -0.151370411  nElectrons: 770.000000  magneticMoment: [ Abs: 0.00000  Tot: +0.00000 ]
	SubspaceRotationAdjust: set factor to 0.763
ElecMinimize: Iter:   6  F: -8095.640225339095196  |grad|_K:  6.209e-07  alpha:  1.509e-01  linmin:  3.199e-06  t[s]:   8554.14
	Linear fluid (dielectric constant: 78.4, screening length: 8.12261 Bohr) occupying 0.440055 of unit cell:	Completed after 9 iterations at t[s]:   8591.73
	Linear fluid (dielectric constant: 78.4, screening length: 8.12261 Bohr) occupying 0.440060 of unit cell:	Completed after 7 iterations at t[s]:   8618.75
	FillingsUpdate:  mu: -0.151382436  nElectrons: 770.000000  magneticMoment: [ Abs: 0.00000  Tot: +0.00000 ]
	SubspaceRotationAdjust: set factor to 0.646
ElecMinimize: Iter:   7  F: -8095.640244425248966  |grad|_K:  3.641e-07  alpha:  1.939e-01  linmin: -3.175e-06  t[s]:   8654.57
	Linear fluid (dielectric constant: 78.4, screening length: 8.12261 Bohr) occupying 0.440075 of unit cell:	Completed after 7 iterations at t[s]:   8691.75
	Linear fluid (dielectric constant: 78.4, screening length: 8.12261 Bohr) occupying 0.440074 of unit cell:	Completed after 2 iterations at t[s]:   8717.77
	FillingsUpdate:  mu: -0.151304640  nElectrons: 770.000000  magneticMoment: [ Abs: 0.00000  Tot: +0.00000 ]
	SubspaceRotationAdjust: set factor to 0.676
ElecMinimize: Iter:   8  F: -8095.640250196820489  |grad|_K:  3.011e-07  alpha:  1.702e-01  linmin:  2.934e-06  t[s]:   8753.43
	Linear fluid (dielectric constant: 78.4, screening length: 8.12261 Bohr) occupying 0.440084 of unit cell:	Completed after 3 iterations at t[s]:   8789.78
	Linear fluid (dielectric constant: 78.4, screening length: 8.12261 Bohr) occupying 0.440084 of unit cell:	Completed after 0 iterations at t[s]:   8815.13
	FillingsUpdate:  mu: -0.151266186  nElectrons: 770.000000  magneticMoment: [ Abs: 0.00000  Tot: +0.00000 ]
	SubspaceRotationAdjust: set factor to 0.703
ElecMinimize: Iter:   9  F: -8095.640254224299497  |grad|_K:  1.735e-07  alpha:  1.740e-01  linmin: -1.962e-05  t[s]:   8850.95
	Linear fluid (dielectric constant: 78.4, screening length: 8.12261 Bohr) occupying 0.440088 of unit cell:	Completed after 2 iterations at t[s]:   8887.10
	Linear fluid (dielectric constant: 78.4, screening length: 8.12261 Bohr) occupying 0.440087 of unit cell:	Completed after 1 iterations at t[s]:   8912.81
	FillingsUpdate:  mu: -0.151262280  nElectrons: 770.000000  magneticMoment: [ Abs: 0.00000  Tot: +0.00000 ]
	SubspaceRotationAdjust: set factor to 0.757
ElecMinimize: Iter:  10  F: -8095.640255273057846  |grad|_K:  1.212e-07  alpha:  1.357e-01  linmin:  3.928e-06  t[s]:   8949.43
	Linear fluid (dielectric constant: 78.4, screening length: 8.12261 Bohr) occupying 0.440090 of unit cell:	Completed after 3 iterations at t[s]:   8985.76
	Linear fluid (dielectric constant: 78.4, screening length: 8.12261 Bohr) occupying 0.440091 of unit cell:	Completed after 2 iterations at t[s]:   9011.80
	FillingsUpdate:  mu: -0.151295886  nElectrons: 770.000000  magneticMoment: [ Abs: 0.00000  Tot: +0.00000 ]
	SubspaceRotationAdjust: set factor to 0.763
ElecMinimize: Iter:  11  F: -8095.640255994779181  |grad|_K:  1.015e-07  alpha:  1.923e-01  linmin: -1.407e-07  t[s]:   9047.58
	Linear fluid (dielectric constant: 78.4, screening length: 8.12261 Bohr) occupying 0.440098 of unit cell:	Completed after 2 iterations at t[s]:   9083.76
	Linear fluid (dielectric constant: 78.4, screening length: 8.12261 Bohr) occupying 0.440097 of unit cell:	Completed after 0 iterations at t[s]:   9109.27
	FillingsUpdate:  mu: -0.151297904  nElectrons: 770.000000  magneticMoment: [ Abs: 0.00000  Tot: +0.00000 ]
	SubspaceRotationAdjust: set factor to 0.819
ElecMinimize: Iter:  12  F: -8095.640256432312526  |grad|_K:  7.495e-08  alpha:  1.659e-01  linmin:  1.374e-04  t[s]:   9144.97
	Linear fluid (dielectric constant: 78.4, screening length: 8.12261 Bohr) occupying 0.440102 of unit cell:	Completed after 2 iterations at t[s]:   9181.17
	Linear fluid (dielectric constant: 78.4, screening length: 8.12261 Bohr) occupying 0.440101 of unit cell:	Completed after 1 iterations at t[s]:   9207.02
	FillingsUpdate:  mu: -0.151288835  nElectrons: 770.000000  magneticMoment: [ Abs: 0.00000  Tot: +0.00000 ]
	SubspaceRotationAdjust: set factor to 0.792
ElecMinimize: Iter:  13  F: -8095.640256622958987  |grad|_K:  4.598e-08  alpha:  1.368e-01  linmin:  5.209e-05  t[s]:   9242.74
	Linear fluid (dielectric constant: 78.4, screening length: 8.12261 Bohr) occupying 0.440104 of unit cell:	Completed after 2 iterations at t[s]:   9278.90
	Linear fluid (dielectric constant: 78.4, screening length: 8.12261 Bohr) occupying 0.440104 of unit cell:	Completed after 0 iterations at t[s]:   9304.34
	FillingsUpdate:  mu: -0.151279278  nElectrons: 770.000000  magneticMoment: [ Abs: 0.00000  Tot: +0.00000 ]
	SubspaceRotationAdjust: set factor to 0.817
ElecMinimize: Iter:  14  F: -8095.640256703151863  |grad|_K:  3.669e-08  alpha:  1.479e-01  linmin: -4.135e-04  t[s]:   9340.08
	Linear fluid (dielectric constant: 78.4, screening length: 8.12261 Bohr) occupying 0.440107 of unit cell:	Completed after 2 iterations at t[s]:   9376.13
[...]
ion Cu  10.114312999999997   5.995801000000001   9.801515000000000 0
ion Cu   6.743807999999997  13.532508999999999   9.801515000000000 0
ion Cu   3.370235000000000   0.020545000000000   6.798760999999999 0
ion Cu  -0.000276000000001   7.557238000000001   6.798760999999999 0
ion Cu  10.111258999999999   0.020545000000000   6.798760999999999 0
ion Cu   6.740746999999999   7.557238000000001   6.798760999999999 0
ion Cu  -0.004564000000000   1.496471000000000   3.652749000000000 0
ion Cu  -3.375075000000001   9.033163000000002   3.652749000000000 0
ion Cu   6.736459999999999   1.496471000000000   3.652749000000000 0
ion Cu   3.365947999999998   9.033163000000002   3.652749000000000 0
ion Cu   3.366999999999999   3.046346000000001   0.863298000000000 0
ion Cu  -0.003519000000002  10.583054000000001   0.863298000000000 0
ion Cu  10.108022999999998   3.046346000000001   0.863298000000000 0
ion Cu   6.737504999999997  10.583054000000001   0.863298000000000 0
ion Cu   0.003383999999999   4.504741000000000  12.887157999999999 0
ion Cu  -3.367128000000000  12.041434000000001  12.887157999999999 0
ion Cu   6.744406999999997   4.504741000000000  12.887157999999999 0
ion Cu   3.373895999999998  12.041434000000001  12.887157999999999 0
ion C   3.374158999999998   7.503185000000001  17.671578712442269 1  Linear 0 0 1
ion O   3.434248000000000   7.503185000000001  19.850882801422863 1  Linear 0 0 1

# Forces in Cartesian coordinates:
force Cu  -0.000071004388677   0.001166617356302  -0.000264990698953 0
force Cu  -0.001118684384729   0.001020311240295  -0.002645043173392 0
force Cu   0.000105708363651   0.000325900994197  -0.000018697893923 0
force Cu   0.000878231597712   0.000797208258609  -0.002284146718935 0
force Cu  -0.000264841452270  -0.000359596813778   0.000153966612190 0
force Cu   0.000032784220086   0.000299429226889  -0.000454274576247 0
force Cu   0.000010074414339  -0.000360573695157   0.000096771137380 0
force Cu  -0.000186606598466  -0.000172025906476   0.001627078484705 0
force Cu   0.000164546061020   0.000964706682688   0.000192455721044 0
force Cu   0.000166460030237   0.000386364801856  -0.000164757628329 0
force Cu   0.000189008370619   0.000864440737204  -0.000225310406999 0
force Cu   0.000235309273338   0.000513750471162  -0.000236138897579 0
force Cu  -0.000642156162425  -0.000072091301451   0.000149586978217 0
force Cu  -0.000085957451603  -0.000604770421080   0.000516614256966 0
force Cu   0.000289617080800   0.000072829670602   0.000176912022374 0
force Cu  -0.000291351486937   0.000571849183827   0.000359522726133 0
force Cu   0.000041649214245  -0.000570353107875   0.000249909817891 0
force Cu  -0.000181704901180  -0.000542624131256  -0.000526830959919 0
force Cu  -0.000046684340103  -0.000706328043957   0.000216138961636 0
force Cu  -0.000146852532761  -0.001948311885182   0.007212730147535 0
force Cu  -0.000024601127870   0.000487190973541   0.002068423090376 0
force Cu  -0.000352955408097  -0.000725647239892   0.000391175410238 0
force Cu  -0.000120554455653  -0.000322290925390   0.001229639553309 0
force Cu   0.000094611015744  -0.000672510807637   0.000705518374107 0
force Cu   0.000153067086568   0.000425303714654   0.000287434503278 0
force Cu  -0.000610703310999  -0.000131413639852  -0.000916081262997 0
force Cu   0.000023771582042   0.000054649668437   0.000513399289302 0
force Cu   0.000613498496088  -0.000281145405988  -0.001172853257672 0
force Cu  -0.000227204435538  -0.000938546870407  -0.000212960822229 0
force Cu  -0.000029289102702  -0.000214023943986  -0.000038482366448 0
force Cu   0.000268140785040  -0.000936388833172  -0.000190393097240 0
force Cu  -0.000030366940419  -0.000729177480301   0.001021667204890 0
force Cu  -0.000038626685845   0.000521819387647   0.000265017532073 0
force Cu  -0.000634748078245   0.000808108139490  -0.000257665288126 0
force Cu   0.000072305860215   0.000616492016661  -0.000268451359115 0
force Cu   0.000702183995480   0.000745524777445  -0.000173510110543 0
force Cu  -0.001902300088191  -0.002073658694699  -0.001939100964018 0
force Cu   0.000153440027706  -0.000271994501913  -0.000847650637091 0
force Cu   0.002395655437990  -0.001826066937554  -0.001933699353647 0
force Cu   0.000152378379566   0.002956854229362  -0.002320615003816 0
force C   0.000713105932755   0.001260018832691   0.000337753382689 1  Linear 0 0 1
force O  -0.000360501522712  -0.000514383983563  -0.000521424435519 1  Linear 0 0 1

# Energy components:
   A_diel =        0.0001252853135903
   Eewald =    25096.3834945760136179
       EH =    32510.7967319666313415
     Eloc =   -67226.9135655082645826
      Enl =     1468.0638997105115777
     EvdW =       -0.5335965567253682
      Exc =     -781.3361108233984851
 Exc_core =        1.9776383008274159
       KE =      835.9208307250935377
-------------------------------------
     Etot =    -8095.6405523239936883
       TS =        0.0012908364205061
-------------------------------------
        F =    -8095.6418431604142825


Dumping 'jdft.fillings' ... done
Dumping 'jdft.wfns' ... done
Dumping 'jdft.fluidState' ... done
Dumping 'jdft.ionpos' ... done
Dumping 'jdft.lattice' ... done
Dumping 'jdft.eigenvals' ... done
Dumping 'jdft.eigStats' ... 
	eMin: -4.308239 at state 0 ( [ +0.000000 +0.000000 +0.000000 ] spin 1 )
	HOMO: -0.151801 at state 8 ( [ +0.000000 +0.333333 +0.000000 ] spin -1 )
	mu  : -0.150681
	LUMO: -0.150658 at state 5 ( [ +0.500000 +0.000000 +0.000000 ] spin 1 )
	eMax: +0.177043 at state 5 ( [ +0.500000 +0.000000 +0.000000 ] spin 1 )
	HOMO-LUMO gap: +0.001143
	Optical gap  : +0.001962 at state 13 ( [ +0.500000 +0.333333 +0.000000 ] spin -1 )
Dumping 'jdft.Ecomponents' ... done
IonicMinimize: Iter:   7  F: -8095.641843160414282  |grad|_K:  4.393e-04  alpha:  1.000e+00  linmin:  1.045e-02  t[s]:  19703.86

#--- Lowdin population analysis ---
# oxidation-state Cu +0.026 +0.040 +0.026 +0.041 +0.075 +0.073 +0.076 +0.076 +0.045 +0.046 +0.046 +0.046 +0.056 +0.049 +0.057 +0.058 +0.235 +0.240 +0.237 -0.088 +0.053 +0.046 +0.047 +0.046 +0.074 +0.075 +0.074 +0.076 +0.028 +0.026 +0.028 +0.028 +0.245 +0.236 +0.233 +0.237 +0.076 +0.051 +0.075 +0.077
# magnetic-moments Cu -0.000 -0.000 -0.000 +0.000 -0.000 -0.000 +0.000 +0.000 +0.000 +0.000 +0.000 -0.000 +0.000 +0.000 -0.000 -0.000 +0.000 -0.000 +0.000 -0.000 +0.000 -0.000 +0.000 +0.000 -0.000 +0.000 -0.000 +0.000 -0.000 +0.000 +0.000 -0.000 -0.000 -0.000 +0.000 +0.000 +0.000 -0.000 +0.000 +0.000
# oxidation-state C +0.441
# magnetic-moments C +0.000
# oxidation-state O -0.114
# magnetic-moments O -0.000


Computing DFT-D3 correction:
# coordination-number Cu 8.287 8.289 8.287 8.289 8.917 8.917 8.917 8.918 9.035 9.035 9.035 9.035 6.874 6.874 6.874 6.874 4.943 4.945 4.943 5.945 9.029 9.028 9.028 9.028 8.920 8.920 8.920 8.920 8.294 8.294 8.294 8.294 4.946 4.947 4.947 4.947 6.875 6.870 6.875 6.875
# coordination-number C 2.019
# coordination-number O 1.019
# diagonal-C6 Cu 175.00 175.00 175.00 175.00 175.00 175.00 175.00 175.00 175.00 175.00 175.00 175.00 175.00 175.00 175.00 175.00 175.00 175.00 175.00 175.00 175.00 175.00 175.00 175.00 175.00 175.00 175.00 175.00 175.00 175.00 175.00 175.00 175.00 175.00 175.00 175.00 175.00 175.00 175.00 175.00
# diagonal-C6 C 29.45
# diagonal-C6 O 12.80
EvdW_6 =   -0.207955
EvdW_8 =   -0.325643

-------- Electronic minimization -----------
	Linear fluid (dielectric constant: 78.4, screening length: 8.12261 Bohr) occupying 0.438722 of unit cell:	Completed after 5 iterations at t[s]:  19746.15
	FillingsUpdate:  mu: -0.150704241  nElectrons: 770.000000  magneticMoment: [ Abs: 0.00000  Tot: +0.00000 ]
ElecMinimize: Iter:   0  F: -8095.641842880226250  |grad|_K:  7.538e-08  alpha:  1.000e+00
	Linear fluid (dielectric constant: 78.4, screening length: 8.12261 Bohr) occupying 0.438728 of unit cell:	Completed after 9 iterations at t[s]:  19824.37
	Linear fluid (dielectric constant: 78.4, screening length: 8.12261 Bohr) occupying 0.438723 of unit cell:	Completed after 9 iterations at t[s]:  19851.87
	FillingsUpdate:  mu: -0.150672504  nElectrons: 770.000000  magneticMoment: [ Abs: 0.00000  Tot: +0.00000 ]
	SubspaceRotationAdjust: set factor to 0.882
ElecMinimize: Iter:   1  F: -8095.641843039781634  |grad|_K:  5.099e-08  alpha:  1.061e-01  linmin: -1.316e-04  t[s]:  19887.67
	Linear fluid (dielectric constant: 78.4, screening length: 8.12261 Bohr) occupying 0.438723 of unit cell:	Completed after 3 iterations at t[s]:  19924.09
	Linear fluid (dielectric constant: 78.4, screening length: 8.12261 Bohr) occupying 0.438723 of unit cell:	Completed after 2 iterations at t[s]:  19950.28
	FillingsUpdate:  mu: -0.150664974  nElectrons: 770.000000  magneticMoment: [ Abs: 0.00000  Tot: +0.00000 ]
	SubspaceRotationAdjust: set factor to 0.63
ElecMinimize: Iter:   2  F: -8095.641843151695866  |grad|_K:  3.423e-08  alpha:  1.631e-01  linmin: -8.794e-04  t[s]:  19986.12
	Linear fluid (dielectric constant: 78.4, screening length: 8.12261 Bohr) occupying 0.438723 of unit cell:	Completed after 3 iterations at t[s]:  20022.54
	Linear fluid (dielectric constant: 78.4, screening length: 8.12261 Bohr) occupying 0.438723 of unit cell:	Completed after 0 iterations at t[s]:  20048.04
	FillingsUpdate:  mu: -0.150678086  nElectrons: 770.000000  magneticMoment: [ Abs: 0.00000  Tot: +0.00000 ]
	SubspaceRotationAdjust: set factor to 0.644
ElecMinimize: Iter:   3  F: -8095.641843209839863  |grad|_K:  1.943e-08  alpha:  1.848e-01  linmin: -5.206e-04  t[s]:  20083.78
	Linear fluid (dielectric constant: 78.4, screening length: 8.12261 Bohr) occupying 0.438722 of unit cell:	Completed after 2 iterations at t[s]:  20119.96
	Linear fluid (dielectric constant: 78.4, screening length: 8.12261 Bohr) occupying 0.438722 of unit cell:	Completed after 0 iterations at t[s]:  20145.37
	FillingsUpdate:  mu: -0.150678582  nElectrons: 770.000000  magneticMoment: [ Abs: 0.00000  Tot: +0.00000 ]
	SubspaceRotationAdjust: set factor to 0.758
ElecMinimize: Iter:   4  F: -8095.641843223948854  |grad|_K:  2.263e-08  alpha:  1.368e-01  linmin:  6.363e-04  t[s]:  20181.13
ElecMinimize: Converged (|Delta F|<1.000000e-07 for 2 iters).
Setting wave functions to eigenvectors of Hamiltonian
Converging empty states (this may take a while): |deigs|: 8.407e-10

Computing DFT-D3 correction:
# coordination-number Cu 8.287 8.289 8.287 8.289 8.917 8.917 8.917 8.918 9.035 9.035 9.035 9.035 6.874 6.874 6.874 6.874 4.943 4.945 4.943 5.945 9.029 9.028 9.028 9.028 8.920 8.920 8.920 8.920 8.294 8.294 8.294 8.294 4.946 4.947 4.947 4.947 6.875 6.870 6.875 6.875
# coordination-number C 2.019
# coordination-number O 1.019
# diagonal-C6 Cu 175.00 175.00 175.00 175.00 175.00 175.00 175.00 175.00 175.00 175.00 175.00 175.00 175.00 175.00 175.00 175.00 175.00 175.00 175.00 175.00 175.00 175.00 175.00 175.00 175.00 175.00 175.00 175.00 175.00 175.00 175.00 175.00 175.00 175.00 175.00 175.00 175.00 175.00 175.00 175.00
# diagonal-C6 C 29.45
# diagonal-C6 O 12.80
EvdW_6 =   -0.207955
EvdW_8 =   -0.325643

# Ionic positions in cartesian coordinates:
ion Cu   3.374454999999999   1.518659000000000  11.420712999999997 0
ion Cu   0.003943000000000   9.055351000000002  11.420712999999997 0
ion Cu  10.115479000000001   1.518659000000000  11.420712999999997 0
ion Cu   6.744966999999997   9.055351000000002  11.420712999999997 0
ion Cu   0.000344000000000   2.995850000000000   8.272439999999998 0
ion Cu  -3.370168000000001  10.532543000000000   8.272439999999998 0
ion Cu   6.741367000000000   2.995850000000000   8.272439999999998 0
ion Cu   3.370855999999998  10.532543000000000   8.272439999999998 0
ion Cu   3.367713999999999   4.556338000000000   5.270771000000000 0
ion Cu  -0.002791000000002  12.093015000000001   5.270771000000000 0
ion Cu  10.108750999999998   4.556338000000000   5.270771000000000 0
ion Cu   6.738232999999997  12.093015000000001   5.270771000000000 0
ion Cu  -0.002959000000001   6.045498000000001   2.187299000000000 0
ion Cu  -3.373471000000001  13.582190000000002   2.187299000000000 0
ion Cu   6.738077999999999   6.045498000000001   2.187299000000000 0
ion Cu   3.367565999999998  13.582190000000002   2.187299000000000 0
ion Cu   6.744669999999997  15.039877000000001  14.212244000000000 0
ion Cu  10.115181999999999   7.503185000000001  14.212244000000000 0
ion Cu   0.003646999999998  15.039877000000001  14.212244000000000 0
ion Cu   3.374158999999998   7.503185000000001  14.212244000000000 0
ion Cu   3.373288999999999   5.995801000000001   9.801515000000000 0
ion Cu   0.002770999999998  13.532508999999999   9.801515000000000 0
ion Cu  10.114312999999997   5.995801000000001   9.801515000000000 0
ion Cu   6.743807999999997  13.532508999999999   9.801515000000000 0
ion Cu   3.370235000000000   0.020545000000000   6.798760999999999 0
ion Cu  -0.000276000000001   7.557238000000001   6.798760999999999 0
ion Cu  10.111258999999999   0.020545000000000   6.798760999999999 0
ion Cu   6.740746999999999   7.557238000000001   6.798760999999999 0
ion Cu  -0.004564000000000   1.496471000000000   3.652749000000000 0
ion Cu  -3.375075000000001   9.033163000000002   3.652749000000000 0
ion Cu   6.736459999999999   1.496471000000000   3.652749000000000 0
ion Cu   3.365947999999998   9.033163000000002   3.652749000000000 0
ion Cu   3.366999999999999   3.046346000000001   0.863298000000000 0
ion Cu  -0.003519000000002  10.583054000000001   0.863298000000000 0
ion Cu  10.108022999999998   3.046346000000001   0.863298000000000 0
ion Cu   6.737504999999997  10.583054000000001   0.863298000000000 0
ion Cu   0.003383999999999   4.504741000000000  12.887157999999999 0
ion Cu  -3.367128000000000  12.041434000000001  12.887157999999999 0
ion Cu   6.744406999999997   4.504741000000000  12.887157999999999 0
ion Cu   3.373895999999998  12.041434000000001  12.887157999999999 0
ion C   3.374158999999998   7.503185000000001  17.670901743996353 1  Linear 0 0 1
ion O   3.434248000000000   7.503185000000001  19.849816163046736 1  Linear 0 0 1

# Forces in Cartesian coordinates:
force Cu  -0.000071172596615   0.001164512612819  -0.000269763997902 0
force Cu  -0.001121420352627   0.001015766232417  -0.002657524833193 0
force Cu   0.000104757431809   0.000325791556418  -0.000024785094375 0
force Cu   0.000880482095589   0.000792050541598  -0.002297214121664 0
force Cu  -0.000270628580565  -0.000355073227490   0.000058019125976 0
force Cu   0.000032789626793   0.000298721102716  -0.000542969652562 0
force Cu   0.000015663622899  -0.000355535877462  -0.000000394634187 0
force Cu  -0.000186789954806  -0.000168292826251   0.001534568015515 0
force Cu   0.000164622650917   0.000972053077945   0.000115141074006 0
force Cu   0.000162520789902   0.000379392722732  -0.000241860527059 0
force Cu   0.000189009880451   0.000875005669724  -0.000301009197397 0
force Cu   0.000238927420815   0.000506536740197  -0.000313545852355 0
force Cu  -0.000647164501867  -0.000069254929446   0.000164239592133 0
force Cu  -0.000086135219554  -0.000616358118339   0.000524858134521 0
force Cu   0.000294092244043   0.000074698549546   0.000192708411963 0
force Cu  -0.000291570471550   0.000565855118756   0.000365162362318 0
force Cu   0.000039870375743  -0.000568901794299   0.000320536227287 0
force Cu  -0.000181627684152  -0.000547051702626  -0.000485020222865 0
force Cu  -0.000044898626176  -0.000703786776090   0.000284698448951 0
force Cu  -0.000149012557996  -0.001955373710262   0.007180360595905 0
force Cu  -0.000024545577797   0.000492828996098   0.002016108381997 0
force Cu  -0.000357805502674  -0.000724548249188   0.000328563823025 0
force Cu  -0.000120974515008  -0.000320470869002   0.001160385938668 0
force Cu   0.000098990227725  -0.000671905336551   0.000641563736199 0
force Cu   0.000152967889411   0.000428710221967   0.000188697881254 0
force Cu  -0.000620303815309  -0.000128059875835  -0.001022407760346 0
force Cu   0.000023297840641   0.000060520125456   0.000413892239968 0
force Cu   0.000622728611611  -0.000277012082708  -0.001280183774805 0
force Cu  -0.000230240915255  -0.000935922054773  -0.000246508844700 0
force Cu  -0.000029693908435  -0.000225152060634  -0.000070081236645 0
force Cu   0.000270569626851  -0.000933075349627  -0.000224109339374 0
force Cu  -0.000030598558548  -0.000737823354379   0.000987472017190 0
force Cu  -0.000038527894825   0.000525760779942   0.000310781211536 0
force Cu  -0.000636990343290   0.000802073166044  -0.000209791215280 0
force Cu   0.000073331160698   0.000622384921994  -0.000222282065749 0
force Cu   0.000705153522253   0.000739242509075  -0.000126222711444 0
force Cu  -0.001907853299256  -0.002077409914516  -0.001906817332776 0
force Cu   0.000153637481272  -0.000272628564422  -0.000811801094591 0
force Cu   0.002401694026170  -0.001829125690630  -0.001901855466213 0
force Cu   0.000152789501283   0.002958018208169  -0.002283988017968 0
force C   0.000705977548906   0.001260695592913  -0.000096377769053 1  Linear 0 0 1
force O  -0.000340385941497  -0.000514694277359   0.000084713530485 1  Linear 0 0 1

# Energy components:
   A_diel =        0.0001258252554827
   Eewald =    25096.4909098400530638
       EH =    32510.9051196611035266
     Eloc =   -67227.1298299538466381
      Enl =     1468.0639801296856604
     EvdW =       -0.5335980121608161
      Exc =     -781.3363361644575207
 Exc_core =        1.9776381757734209
       KE =      835.9214381352988994
-------------------------------------
     Etot =    -8095.6405523632993209
       TS =        0.0012908606496243
-------------------------------------
        F =    -8095.6418432239488538


Dumping 'jdft.fillings' ... done
Dumping 'jdft.wfns' ... done
Dumping 'jdft.fluidState' ... done
Dumping 'jdft.ionpos' ... done
Dumping 'jdft.lattice' ... done
Dumping 'jdft.eigenvals' ... done
Dumping 'jdft.eigStats' ... 
	eMin: -4.308255 at state 0 ( [ +0.000000 +0.000000 +0.000000 ] spin 1 )
	HOMO: -0.151798 at state 1 ( [ +0.000000 +0.333333 +0.000000 ] spin 1 )
	mu  : -0.150679
	LUMO: -0.150653 at state 12 ( [ +0.500000 +0.000000 +0.000000 ] spin -1 )
	eMax: +0.177044 at state 5 ( [ +0.500000 +0.000000 +0.000000 ] spin 1 )
	HOMO-LUMO gap: +0.001145
	Optical gap  : +0.001961 at state 6 ( [ +0.500000 +0.333333 +0.000000 ] spin 1 )
Dumping 'jdft.Ecomponents' ... done
IonicMinimize: Iter:   8  F: -8095.641843223948854  |grad|_K:  9.073e-05  alpha:  1.000e+00  linmin:  1.671e-03  t[s]:  20282.23
IonicMinimize: Converged (|grad|_K<1.000000e-04).

#--- Lowdin population analysis ---
# oxidation-state Cu +0.026 +0.040 +0.026 +0.040 +0.075 +0.073 +0.076 +0.076 +0.045 +0.046 +0.046 +0.046 +0.056 +0.049 +0.057 +0.059 +0.235 +0.240 +0.237 -0.089 +0.053 +0.046 +0.047 +0.046 +0.075 +0.075 +0.074 +0.076 +0.029 +0.026 +0.028 +0.028 +0.245 +0.237 +0.233 +0.237 +0.076 +0.051 +0.075 +0.077
# magnetic-moments Cu -0.000 -0.000 +0.000 -0.000 -0.000 +0.000 -0.000 +0.000 +0.000 -0.000 +0.000 -0.000 +0.000 -0.000 -0.000 -0.000 +0.000 -0.000 +0.000 -0.000 +0.000 +0.000 -0.000 +0.000 -0.000 +0.000 -0.000 -0.000 -0.000 +0.000 -0.000 +0.000 +0.000 -0.000 +0.000 -0.000 +0.000 -0.000 -0.000 +0.000
# oxidation-state C +0.441
# magnetic-moments C +0.000
# oxidation-state O -0.114
# magnetic-moments O -0.000


Dumping 'jdft.n_up' ... done
Dumping 'jdft.n_dn' ... done
Dumping 'jdft.tau_up' ... done
Dumping 'jdft.tau_dn' ... done
Dumping 'jdft.eigenvals' ... done
Dumping 'jdft.eigStats' ... 
	eMin: -4.308255 at state 0 ( [ +0.000000 +0.000000 +0.000000 ] spin 1 )
	HOMO: -0.151798 at state 1 ( [ +0.000000 +0.333333 +0.000000 ] spin 1 )
	mu  : -0.150679
	LUMO: -0.150653 at state 12 ( [ +0.500000 +0.000000 +0.000000 ] spin -1 )
	eMax: +0.177044 at state 5 ( [ +0.500000 +0.000000 +0.000000 ] spin 1 )
	HOMO-LUMO gap: +0.001145
	Optical gap  : +0.001961 at state 6 ( [ +0.500000 +0.333333 +0.000000 ] spin 1 )
Dumping 'jdft.kPts' ... done
Dumping 'jdft.kMap' ... done
Dumping 'jdft.dosUp' ... done.
Dumping 'jdft.dosDn' ... done.
End date and time: Thu Feb 17 08:03:25 2022  (Duration: 0-5:39:00.72)
Done!
