
*************** JDFTx 1.6.0  ***************

Start date and time: Wed Feb 16 13:36:27 2022
Executable /projects/musgravc/apps/jdftx-1.6.1/build/jdftx with command-line: -i in
Running on hosts (process indices):  shas0925.rc.int.colorado.edu (0-23)
Divided in process groups (process indices):  0 (0)  1 (1)  2 (2)  3 (3)  4 (4)  5 (5)  6 (6)  7 (7)  8 (8)  9 (9)  10 (10)  11 (11)  12 (12)  13 (13)  14 (14)  15 (15)  16 (16)  17 (17)  18 (18)  19 (19)  20 (20)  21 (21)  22 (22)  23 (23)
Resource initialization completed at t[s]:      0.00
Run totals: 24 processes, 24 threads, 0 GPUs


Input parsed successfully to the following command list (including defaults):

basis kpoint-dependent
converge-empty-states yes
coords-type Cartesian
core-overlap-check none
coulomb-interaction Periodic
davidson-band-ratio 1.1
density-of-states Etol 1.000000e-06 Esigma 1.000000e-03 \
		Complete \
	Total \
	OrthoOrbital Cu 1   s \
	OrthoOrbital Cu 1   p \
	OrthoOrbital Cu 1   px \
	OrthoOrbital Cu 1   py \
	OrthoOrbital Cu 1   pz \
	OrthoOrbital Cu 1   d \
	OrthoOrbital Cu 1   dxy \
	OrthoOrbital Cu 1   dyz \
	OrthoOrbital Cu 1   dz2 \
	OrthoOrbital Cu 1   dxz \
	OrthoOrbital Cu 1   dx2-y2 \
	OrthoOrbital Cu 2   s \
	OrthoOrbital Cu 2   p \
	OrthoOrbital Cu 2   px \
	OrthoOrbital Cu 2   py \
	OrthoOrbital Cu 2   pz \
	OrthoOrbital Cu 2   d \
	OrthoOrbital Cu 2   dxy \
	OrthoOrbital Cu 2   dyz \
	OrthoOrbital Cu 2   dz2 \
	OrthoOrbital Cu 2   dxz \
	OrthoOrbital Cu 2   dx2-y2 \
	OrthoOrbital Cu 3   s \
	OrthoOrbital Cu 3   p \
	OrthoOrbital Cu 3   px \
	OrthoOrbital Cu 3   py \
	OrthoOrbital Cu 3   pz \
	OrthoOrbital Cu 3   d \
	OrthoOrbital Cu 3   dxy \
	OrthoOrbital Cu 3   dyz \
	OrthoOrbital Cu 3   dz2 \
	OrthoOrbital Cu 3   dxz \
	OrthoOrbital Cu 3   dx2-y2 \
	OrthoOrbital Cu 4   s \
	OrthoOrbital Cu 4   p \
	OrthoOrbital Cu 4   px \
	OrthoOrbital Cu 4   py \
	OrthoOrbital Cu 4   pz \
	OrthoOrbital Cu 4   d \
	OrthoOrbital Cu 4   dxy \
	OrthoOrbital Cu 4   dyz \
	OrthoOrbital Cu 4   dz2 \
	OrthoOrbital Cu 4   dxz \
	OrthoOrbital Cu 4   dx2-y2 \
	OrthoOrbital Cu 5   s \
	OrthoOrbital Cu 5   p \
	OrthoOrbital Cu 5   px \
	OrthoOrbital Cu 5   py \
	OrthoOrbital Cu 5   pz \
	OrthoOrbital Cu 5   d \
	OrthoOrbital Cu 5   dxy \
	OrthoOrbital Cu 5   dyz \
	OrthoOrbital Cu 5   dz2 \
	OrthoOrbital Cu 5   dxz \
	OrthoOrbital Cu 5   dx2-y2 \
	OrthoOrbital Cu 6   s \
	OrthoOrbital Cu 6   p \
	OrthoOrbital Cu 6   px \
	OrthoOrbital Cu 6   py \
	OrthoOrbital Cu 6   pz \
	OrthoOrbital Cu 6   d \
	OrthoOrbital Cu 6   dxy \
	OrthoOrbital Cu 6   dyz \
	OrthoOrbital Cu 6   dz2 \
	OrthoOrbital Cu 6   dxz \
	OrthoOrbital Cu 6   dx2-y2 \
	OrthoOrbital Cu 7   s \
	OrthoOrbital Cu 7   p \
	OrthoOrbital Cu 7   px \
	OrthoOrbital Cu 7   py \
	OrthoOrbital Cu 7   pz \
	OrthoOrbital Cu 7   d \
	OrthoOrbital Cu 7   dxy \
	OrthoOrbital Cu 7   dyz \
	OrthoOrbital Cu 7   dz2 \
	OrthoOrbital Cu 7   dxz \
	OrthoOrbital Cu 7   dx2-y2 \
	OrthoOrbital Cu 8   s \
	OrthoOrbital Cu 8   p \
	OrthoOrbital Cu 8   px \
	OrthoOrbital Cu 8   py \
	OrthoOrbital Cu 8   pz \
	OrthoOrbital Cu 8   d \
	OrthoOrbital Cu 8   dxy \
	OrthoOrbital Cu 8   dyz \
	OrthoOrbital Cu 8   dz2 \
	OrthoOrbital Cu 8   dxz \
	OrthoOrbital Cu 8   dx2-y2 \
	OrthoOrbital Cu 9   s \
	OrthoOrbital Cu 9   p \
	OrthoOrbital Cu 9   px \
	OrthoOrbital Cu 9   py \
	OrthoOrbital Cu 9   pz \
	OrthoOrbital Cu 9   d \
	OrthoOrbital Cu 9   dxy \
	OrthoOrbital Cu 9   dyz \
	OrthoOrbital Cu 9   dz2 \
	OrthoOrbital Cu 9   dxz \
	OrthoOrbital Cu 9   dx2-y2 \
	OrthoOrbital Cu 10   s \
	OrthoOrbital Cu 10   p \
	OrthoOrbital Cu 10   px \
	OrthoOrbital Cu 10   py \
	OrthoOrbital Cu 10   pz \
	OrthoOrbital Cu 10   d \
	OrthoOrbital Cu 10   dxy \
	OrthoOrbital Cu 10   dyz \
	OrthoOrbital Cu 10   dz2 \
	OrthoOrbital Cu 10   dxz \
	OrthoOrbital Cu 10   dx2-y2 \
	OrthoOrbital Cu 11   s \
	OrthoOrbital Cu 11   p \
	OrthoOrbital Cu 11   px \
	OrthoOrbital Cu 11   py \
	OrthoOrbital Cu 11   pz \
	OrthoOrbital Cu 11   d \
	OrthoOrbital Cu 11   dxy \
	OrthoOrbital Cu 11   dyz \
	OrthoOrbital Cu 11   dz2 \
	OrthoOrbital Cu 11   dxz \
	OrthoOrbital Cu 11   dx2-y2 \
	OrthoOrbital Cu 12   s \
	OrthoOrbital Cu 12   p \
	OrthoOrbital Cu 12   px \
	OrthoOrbital Cu 12   py \
	OrthoOrbital Cu 12   pz \
	OrthoOrbital Cu 12   d \
	OrthoOrbital Cu 12   dxy \
	OrthoOrbital Cu 12   dyz \
	OrthoOrbital Cu 12   dz2 \
	OrthoOrbital Cu 12   dxz \
	OrthoOrbital Cu 12   dx2-y2 \
	OrthoOrbital Cu 13   s \
	OrthoOrbital Cu 13   p \
	OrthoOrbital Cu 13   px \
	OrthoOrbital Cu 13   py \
	OrthoOrbital Cu 13   pz \
	OrthoOrbital Cu 13   d \
	OrthoOrbital Cu 13   dxy \
	OrthoOrbital Cu 13   dyz \
	OrthoOrbital Cu 13   dz2 \
	OrthoOrbital Cu 13   dxz \
	OrthoOrbital Cu 13   dx2-y2 \
	OrthoOrbital Cu 14   s \
	OrthoOrbital Cu 14   p \
	OrthoOrbital Cu 14   px \
	OrthoOrbital Cu 14   py \
	OrthoOrbital Cu 14   pz \
	OrthoOrbital Cu 14   d \
	OrthoOrbital Cu 14   dxy \
	OrthoOrbital Cu 14   dyz \
	OrthoOrbital Cu 14   dz2 \
	OrthoOrbital Cu 14   dxz \
	OrthoOrbital Cu 14   dx2-y2 \
	OrthoOrbital Cu 15   s \
	OrthoOrbital Cu 15   p \
	OrthoOrbital Cu 15   px \
	OrthoOrbital Cu 15   py \
	OrthoOrbital Cu 15   pz \
	OrthoOrbital Cu 15   d \
	OrthoOrbital Cu 15   dxy \
	OrthoOrbital Cu 15   dyz \
	OrthoOrbital Cu 15   dz2 \
	OrthoOrbital Cu 15   dxz \
	OrthoOrbital Cu 15   dx2-y2 \
	OrthoOrbital Cu 16   s \
	OrthoOrbital Cu 16   p \
	OrthoOrbital Cu 16   px \
	OrthoOrbital Cu 16   py \
	OrthoOrbital Cu 16   pz \
	OrthoOrbital Cu 16   d \
	OrthoOrbital Cu 16   dxy \
	OrthoOrbital Cu 16   dyz \
	OrthoOrbital Cu 16   dz2 \
	OrthoOrbital Cu 16   dxz \
	OrthoOrbital Cu 16   dx2-y2 \
	OrthoOrbital Cu 17   s \
	OrthoOrbital Cu 17   p \
	OrthoOrbital Cu 17   px \
	OrthoOrbital Cu 17   py \
	OrthoOrbital Cu 17   pz \
	OrthoOrbital Cu 17   d \
	OrthoOrbital Cu 17   dxy \
	OrthoOrbital Cu 17   dyz \
	OrthoOrbital Cu 17   dz2 \
	OrthoOrbital Cu 17   dxz \
	OrthoOrbital Cu 17   dx2-y2 \
	OrthoOrbital Cu 18   s \
	OrthoOrbital Cu 18   p \
	OrthoOrbital Cu 18   px \
	OrthoOrbital Cu 18   py \
	OrthoOrbital Cu 18   pz \
	OrthoOrbital Cu 18   d \
	OrthoOrbital Cu 18   dxy \
	OrthoOrbital Cu 18   dyz \
	OrthoOrbital Cu 18   dz2 \
	OrthoOrbital Cu 18   dxz \
	OrthoOrbital Cu 18   dx2-y2 \
	OrthoOrbital Cu 19   s \
	OrthoOrbital Cu 19   p \
	OrthoOrbital Cu 19   px \
	OrthoOrbital Cu 19   py \
	OrthoOrbital Cu 19   pz \
	OrthoOrbital Cu 19   d \
	OrthoOrbital Cu 19   dxy \
	OrthoOrbital Cu 19   dyz \
	OrthoOrbital Cu 19   dz2 \
	OrthoOrbital Cu 19   dxz \
	OrthoOrbital Cu 19   dx2-y2 \
	OrthoOrbital Cu 20   s \
	OrthoOrbital Cu 20   p \
	OrthoOrbital Cu 20   px \
	OrthoOrbital Cu 20   py \
	OrthoOrbital Cu 20   pz \
	OrthoOrbital Cu 20   d \
	OrthoOrbital Cu 20   dxy \
	OrthoOrbital Cu 20   dyz \
	OrthoOrbital Cu 20   dz2 \
	OrthoOrbital Cu 20   dxz \
	OrthoOrbital Cu 20   dx2-y2 \
	OrthoOrbital Cu 21   s \
	OrthoOrbital Cu 21   p \
	OrthoOrbital Cu 21   px \
	OrthoOrbital Cu 21   py \
	OrthoOrbital Cu 21   pz \
	OrthoOrbital Cu 21   d \
	OrthoOrbital Cu 21   dxy \
	OrthoOrbital Cu 21   dyz \
	OrthoOrbital Cu 21   dz2 \
	OrthoOrbital Cu 21   dxz \
	OrthoOrbital Cu 21   dx2-y2 \
	OrthoOrbital Cu 22   s \
	OrthoOrbital Cu 22   p \
	OrthoOrbital Cu 22   px \
	OrthoOrbital Cu 22   py \
	OrthoOrbital Cu 22   pz \
	OrthoOrbital Cu 22   d \
	OrthoOrbital Cu 22   dxy \
	OrthoOrbital Cu 22   dyz \
	OrthoOrbital Cu 22   dz2 \
	OrthoOrbital Cu 22   dxz \
	OrthoOrbital Cu 22   dx2-y2 \
	OrthoOrbital Cu 23   s \
	OrthoOrbital Cu 23   p \
	OrthoOrbital Cu 23   px \
	OrthoOrbital Cu 23   py \
	OrthoOrbital Cu 23   pz \
	OrthoOrbital Cu 23   d \
	OrthoOrbital Cu 23   dxy \
	OrthoOrbital Cu 23   dyz \
	OrthoOrbital Cu 23   dz2 \
	OrthoOrbital Cu 23   dxz \
	OrthoOrbital Cu 23   dx2-y2 \
	OrthoOrbital Cu 24   s \
	OrthoOrbital Cu 24   p \
	OrthoOrbital Cu 24   px \
	OrthoOrbital Cu 24   py \
	OrthoOrbital Cu 24   pz \
	OrthoOrbital Cu 24   d \
	OrthoOrbital Cu 24   dxy \
	OrthoOrbital Cu 24   dyz \
	OrthoOrbital Cu 24   dz2 \
	OrthoOrbital Cu 24   dxz \
	OrthoOrbital Cu 24   dx2-y2 \
	OrthoOrbital Cu 25   s \
	OrthoOrbital Cu 25   p \
	OrthoOrbital Cu 25   px \
	OrthoOrbital Cu 25   py \
	OrthoOrbital Cu 25   pz \
	OrthoOrbital Cu 25   d \
	OrthoOrbital Cu 25   dxy \
	OrthoOrbital Cu 25   dyz \
	OrthoOrbital Cu 25   dz2 \
	OrthoOrbital Cu 25   dxz \
	OrthoOrbital Cu 25   dx2-y2 \
	OrthoOrbital Cu 26   s \
	OrthoOrbital Cu 26   p \
	OrthoOrbital Cu 26   px \
	OrthoOrbital Cu 26   py \
	OrthoOrbital Cu 26   pz \
	OrthoOrbital Cu 26   d \
	OrthoOrbital Cu 26   dxy \
	OrthoOrbital Cu 26   dyz \
	OrthoOrbital Cu 26   dz2 \
	OrthoOrbital Cu 26   dxz \
	OrthoOrbital Cu 26   dx2-y2 \
	OrthoOrbital Cu 27   s \
	OrthoOrbital Cu 27   p \
	OrthoOrbital Cu 27   px \
	OrthoOrbital Cu 27   py \
	OrthoOrbital Cu 27   pz \
	OrthoOrbital Cu 27   d \
	OrthoOrbital Cu 27   dxy \
	OrthoOrbital Cu 27   dyz \
	OrthoOrbital Cu 27   dz2 \
	OrthoOrbital Cu 27   dxz \
	OrthoOrbital Cu 27   dx2-y2 \
	OrthoOrbital Cu 28   s \
	OrthoOrbital Cu 28   p \
	OrthoOrbital Cu 28   px \
	OrthoOrbital Cu 28   py \
	OrthoOrbital Cu 28   pz \
	OrthoOrbital Cu 28   d \
	OrthoOrbital Cu 28   dxy \
	OrthoOrbital Cu 28   dyz \
	OrthoOrbital Cu 28   dz2 \
	OrthoOrbital Cu 28   dxz \
	OrthoOrbital Cu 28   dx2-y2 \
	OrthoOrbital Cu 29   s \
	OrthoOrbital Cu 29   p \
	OrthoOrbital Cu 29   px \
	OrthoOrbital Cu 29   py \
	OrthoOrbital Cu 29   pz \
	OrthoOrbital Cu 29   d \
	OrthoOrbital Cu 29   dxy \
	OrthoOrbital Cu 29   dyz \
	OrthoOrbital Cu 29   dz2 \
	OrthoOrbital Cu 29   dxz \
	OrthoOrbital Cu 29   dx2-y2 \
	OrthoOrbital Cu 30   s \
	OrthoOrbital Cu 30   p \
	OrthoOrbital Cu 30   px \
	OrthoOrbital Cu 30   py \
	OrthoOrbital Cu 30   pz \
	OrthoOrbital Cu 30   d \
	OrthoOrbital Cu 30   dxy \
	OrthoOrbital Cu 30   dyz \
	OrthoOrbital Cu 30   dz2 \
	OrthoOrbital Cu 30   dxz \
	OrthoOrbital Cu 30   dx2-y2 \
	OrthoOrbital Cu 31   s \
	OrthoOrbital Cu 31   p \
	OrthoOrbital Cu 31   px \
	OrthoOrbital Cu 31   py \
	OrthoOrbital Cu 31   pz \
	OrthoOrbital Cu 31   d \
	OrthoOrbital Cu 31   dxy \
	OrthoOrbital Cu 31   dyz \
	OrthoOrbital Cu 31   dz2 \
	OrthoOrbital Cu 31   dxz \
	OrthoOrbital Cu 31   dx2-y2 \
	OrthoOrbital Cu 32   s \
	OrthoOrbital Cu 32   p \
	OrthoOrbital Cu 32   px \
	OrthoOrbital Cu 32   py \
	OrthoOrbital Cu 32   pz \
	OrthoOrbital Cu 32   d \
	OrthoOrbital Cu 32   dxy \
	OrthoOrbital Cu 32   dyz \
	OrthoOrbital Cu 32   dz2 \
	OrthoOrbital Cu 32   dxz \
	OrthoOrbital Cu 32   dx2-y2 \
	OrthoOrbital Cu 33   s \
	OrthoOrbital Cu 33   p \
	OrthoOrbital Cu 33   px \
	OrthoOrbital Cu 33   py \
	OrthoOrbital Cu 33   pz \
	OrthoOrbital Cu 33   d \
	OrthoOrbital Cu 33   dxy \
	OrthoOrbital Cu 33   dyz \
	OrthoOrbital Cu 33   dz2 \
	OrthoOrbital Cu 33   dxz \
	OrthoOrbital Cu 33   dx2-y2 \
	OrthoOrbital Cu 34   s \
	OrthoOrbital Cu 34   p \
	OrthoOrbital Cu 34   px \
	OrthoOrbital Cu 34   py \
	OrthoOrbital Cu 34   pz \
	OrthoOrbital Cu 34   d \
	OrthoOrbital Cu 34   dxy \
	OrthoOrbital Cu 34   dyz \
	OrthoOrbital Cu 34   dz2 \
	OrthoOrbital Cu 34   dxz \
	OrthoOrbital Cu 34   dx2-y2 \
	OrthoOrbital Cu 35   s \
	OrthoOrbital Cu 35   p \
	OrthoOrbital Cu 35   px \
	OrthoOrbital Cu 35   py \
	OrthoOrbital Cu 35   pz \
	OrthoOrbital Cu 35   d \
	OrthoOrbital Cu 35   dxy \
	OrthoOrbital Cu 35   dyz \
	OrthoOrbital Cu 35   dz2 \
	OrthoOrbital Cu 35   dxz \
	OrthoOrbital Cu 35   dx2-y2 \
	OrthoOrbital Cu 36   s \
	OrthoOrbital Cu 36   p \
	OrthoOrbital Cu 36   px \
	OrthoOrbital Cu 36   py \
	OrthoOrbital Cu 36   pz \
	OrthoOrbital Cu 36   d \
	OrthoOrbital Cu 36   dxy \
	OrthoOrbital Cu 36   dyz \
	OrthoOrbital Cu 36   dz2 \
	OrthoOrbital Cu 36   dxz \
	OrthoOrbital Cu 36   dx2-y2 \
	OrthoOrbital Cu 37   s \
	OrthoOrbital Cu 37   p \
	OrthoOrbital Cu 37   px \
	OrthoOrbital Cu 37   py \
	OrthoOrbital Cu 37   pz \
	OrthoOrbital Cu 37   d \
	OrthoOrbital Cu 37   dxy \
	OrthoOrbital Cu 37   dyz \
	OrthoOrbital Cu 37   dz2 \
	OrthoOrbital Cu 37   dxz \
	OrthoOrbital Cu 37   dx2-y2 \
	OrthoOrbital Cu 38   s \
	OrthoOrbital Cu 38   p \
	OrthoOrbital Cu 38   px \
	OrthoOrbital Cu 38   py \
	OrthoOrbital Cu 38   pz \
	OrthoOrbital Cu 38   d \
	OrthoOrbital Cu 38   dxy \
	OrthoOrbital Cu 38   dyz \
	OrthoOrbital Cu 38   dz2 \
	OrthoOrbital Cu 38   dxz \
	OrthoOrbital Cu 38   dx2-y2 \
	OrthoOrbital Cu 39   s \
	OrthoOrbital Cu 39   p \
	OrthoOrbital Cu 39   px \
	OrthoOrbital Cu 39   py \
	OrthoOrbital Cu 39   pz \
	OrthoOrbital Cu 39   d \
	OrthoOrbital Cu 39   dxy \
	OrthoOrbital Cu 39   dyz \
	OrthoOrbital Cu 39   dz2 \
	OrthoOrbital Cu 39   dxz \
	OrthoOrbital Cu 39   dx2-y2 \
	OrthoOrbital Cu 40   s \
	OrthoOrbital Cu 40   p \
	OrthoOrbital Cu 40   px \
	OrthoOrbital Cu 40   py \
	OrthoOrbital Cu 40   pz \
	OrthoOrbital Cu 40   d \
	OrthoOrbital Cu 40   dxy \
	OrthoOrbital Cu 40   dyz \
	OrthoOrbital Cu 40   dz2 \
	OrthoOrbital Cu 40   dxz \
	OrthoOrbital Cu 40   dx2-y2 \
	OrthoOrbital Cu 41   s \
	OrthoOrbital Cu 41   p \
	OrthoOrbital Cu 41   px \
	OrthoOrbital Cu 41   py \
	OrthoOrbital Cu 41   pz \
	OrthoOrbital Cu 41   d \
	OrthoOrbital Cu 41   dxy \
	OrthoOrbital Cu 41   dyz \
	OrthoOrbital Cu 41   dz2 \
	OrthoOrbital Cu 41   dxz \
	OrthoOrbital Cu 41   dx2-y2 \
	OrthoOrbital Cu 42   s \
	OrthoOrbital Cu 42   p \
	OrthoOrbital Cu 42   px \
	OrthoOrbital Cu 42   py \
	OrthoOrbital Cu 42   pz \
	OrthoOrbital Cu 42   d \
	OrthoOrbital Cu 42   dxy \
	OrthoOrbital Cu 42   dyz \
	OrthoOrbital Cu 42   dz2 \
	OrthoOrbital Cu 42   dxz \
	OrthoOrbital Cu 42   dx2-y2 \
	OrthoOrbital Cu 43   s \
	OrthoOrbital Cu 43   p \
	OrthoOrbital Cu 43   px \
	OrthoOrbital Cu 43   py \
	OrthoOrbital Cu 43   pz \
	OrthoOrbital Cu 43   d \
	OrthoOrbital Cu 43   dxy \
	OrthoOrbital Cu 43   dyz \
	OrthoOrbital Cu 43   dz2 \
	OrthoOrbital Cu 43   dxz \
	OrthoOrbital Cu 43   dx2-y2 \
	OrthoOrbital Cu 44   s \
	OrthoOrbital Cu 44   p \
	OrthoOrbital Cu 44   px \
	OrthoOrbital Cu 44   py \
	OrthoOrbital Cu 44   pz \
	OrthoOrbital Cu 44   d \
	OrthoOrbital Cu 44   dxy \
	OrthoOrbital Cu 44   dyz \
	OrthoOrbital Cu 44   dz2 \
	OrthoOrbital Cu 44   dxz \
	OrthoOrbital Cu 44   dx2-y2 \
	OrthoOrbital Cu 45   s \
	OrthoOrbital Cu 45   p \
	OrthoOrbital Cu 45   px \
	OrthoOrbital Cu 45   py \
	OrthoOrbital Cu 45   pz \
	OrthoOrbital Cu 45   d \
	OrthoOrbital Cu 45   dxy \
	OrthoOrbital Cu 45   dyz \
	OrthoOrbital Cu 45   dz2 \
	OrthoOrbital Cu 45   dxz \
	OrthoOrbital Cu 45   dx2-y2 \
	OrthoOrbital Cu 46   s \
	OrthoOrbital Cu 46   p \
	OrthoOrbital Cu 46   px \
	OrthoOrbital Cu 46   py \
	OrthoOrbital Cu 46   pz \
	OrthoOrbital Cu 46   d \
	OrthoOrbital Cu 46   dxy \
	OrthoOrbital Cu 46   dyz \
	OrthoOrbital Cu 46   dz2 \
	OrthoOrbital Cu 46   dxz \
	OrthoOrbital Cu 46   dx2-y2 \
	OrthoOrbital Cu 47   s \
	OrthoOrbital Cu 47   p \
	OrthoOrbital Cu 47   px \
	OrthoOrbital Cu 47   py \
	OrthoOrbital Cu 47   pz \
	OrthoOrbital Cu 47   d \
	OrthoOrbital Cu 47   dxy \
	OrthoOrbital Cu 47   dyz \
	OrthoOrbital Cu 47   dz2 \
	OrthoOrbital Cu 47   dxz \
	OrthoOrbital Cu 47   dx2-y2 \
	OrthoOrbital Cu 48   s \
	OrthoOrbital Cu 48   p \
	OrthoOrbital Cu 48   px \
	OrthoOrbital Cu 48   py \
	OrthoOrbital Cu 48   pz \
	OrthoOrbital Cu 48   d \
	OrthoOrbital Cu 48   dxy \
	OrthoOrbital Cu 48   dyz \
	OrthoOrbital Cu 48   dz2 \
	OrthoOrbital Cu 48   dxz \
	OrthoOrbital Cu 48   dx2-y2 \
	OrthoOrbital C 1   s \
	OrthoOrbital C 1   p \
	OrthoOrbital C 1   px \
	OrthoOrbital C 1   py \
	OrthoOrbital C 1   pz \
	OrthoOrbital O 1   s \
	OrthoOrbital O 1   p \
	OrthoOrbital O 1   px \
	OrthoOrbital O 1   py \
	OrthoOrbital O 1   pz
dump End ElecDensity KEdensity BandEigs EigStats RhoAtom DOS Kpoints
dump Ionic State IonicPositions Lattice EigStats Ecomponents
dump 
dump 
dump 
dump 
dump 
dump 
dump 
dump 
dump-name jdft.$VAR
elec-cutoff 20
elec-eigen-algo Davidson
elec-ex-corr gga-PBE
elec-initial-magnetization 0.000000 no
elec-n-bands 554
elec-smearing Fermi 0.001
electronic-minimize  \
	dirUpdateScheme      FletcherReeves \
	linminMethod         DirUpdateRecommended \
	nIterations          100 \
	history              15 \
	knormThreshold       0 \
	energyDiffThreshold  1e-07 \
	nEnergyDiff          2 \
	alphaTstart          1 \
	alphaTmin            1e-10 \
	updateTestStepSize   yes \
	alphaTreduceFactor   0.1 \
	alphaTincreaseFactor 3 \
	nAlphaAdjustMax      3 \
	wolfeEnergy          0.0001 \
	wolfeGradient        0.9 \
	fdTest               no
exchange-regularization WignerSeitzTruncated
fluid LinearPCM 298.000000 1.013250
fluid-anion F- 0.5 MeanFieldLJ \
	epsBulk 1 \
	pMol 0 \
	epsInf 1 \
	Pvap 0 \
	sigmaBulk 0 \
	Rvdw 2.24877 \
	Res 0 \
	tauNuc 343133
fluid-cation Na+ 0.5 MeanFieldLJ \
	epsBulk 1 \
	pMol 0 \
	epsInf 1 \
	Pvap 0 \
	sigmaBulk 0 \
	Rvdw 2.19208 \
	Res 0 \
	tauNuc 343133
fluid-ex-corr lda-TF lda-PZ
fluid-gummel-loop 10 1.000000e-05
fluid-minimize  \
	dirUpdateScheme      PolakRibiere \
	linminMethod         DirUpdateRecommended \
	nIterations          400 \
	history              15 \
	knormThreshold       1e-11 \
	energyDiffThreshold  0 \
	nEnergyDiff          2 \
	alphaTstart          1 \
	alphaTmin            1e-10 \
	updateTestStepSize   yes \
	alphaTreduceFactor   0.1 \
	alphaTincreaseFactor 3 \
	nAlphaAdjustMax      6 \
	wolfeEnergy          0.0001 \
	wolfeGradient        0.9 \
	fdTest               no
fluid-solvent H2O 55.338 ScalarEOS \
	epsBulk 78.4 \
	pMol 0.92466 \
	epsInf 1.77 \
	Pvap 1.06736e-10 \
	sigmaBulk 4.62e-05 \
	Rvdw 2.61727 \
	Res 1.42 \
	tauNuc 343133 \
	poleEl 15 7 1
forces-output-coords Positions
ion Cu   9.533169000000001   0.029049000000000  15.714320000000001 0
ion Cu   9.533169000000001  11.704867999999999  15.714320000000001 0
ion Cu   4.766546000000001   0.029049000000000  15.714320000000001 0
ion Cu   4.766546000000001  11.704867999999999  15.714320000000001 0
ion Cu   0.000000000000000   3.882763000000000   2.011863000000000 0
ion Cu   0.000000000000000  15.558558000000000   2.011863000000000 0
ion Cu   4.766623000000001   3.882763000000000   2.011863000000000 0
ion Cu   4.766623000000001  15.558558000000000   2.011863000000000 0
ion Cu   0.000048000000000   7.846205000000000   4.822845000000000 0
ion Cu   0.000048000000000  19.521999999999998   4.822845000000000 0
ion Cu   4.766661000000001   7.846205000000000   4.822845000000000 0
ion Cu   4.766661000000001  19.521999999999998   4.822845000000000 0
ion Cu   0.000019000000000   0.010648000000000   7.572401000000000 0
ion Cu   0.000019000000000  11.686444000000000   7.572401000000000 0
ion Cu   4.766642000000000   0.010648000000000   7.572401000000000 0
ion Cu   4.766642000000000  11.686444000000000   7.572401000000000 0
ion Cu   0.000048000000000   3.891052000000000  10.322502999999999 0
ion Cu   0.000048000000000  15.566848000000002  10.322502999999999 0
ion Cu   4.766661000000001   3.891052000000000  10.322502999999999 0
ion Cu   4.766661000000001  15.566848000000002  10.322502999999999 0
ion Cu   9.533188000000003   7.731151000000000  13.180692000000001 0
ion Cu   9.533188000000003  19.406946999999999  13.180692000000001 0
ion Cu   4.766565000000001   7.731151000000000  13.180692000000001 0
ion Cu   4.766565000000001  19.406946999999999  13.180692000000001 0
ion Cu   2.383292000000000   0.052658000000000   3.331310000000000 0
ion Cu   2.383292000000000  11.728453999999999   3.331310000000000 0
ion Cu   7.149905000000001   0.052658000000000   3.331310000000000 0
ion Cu   7.149905000000001  11.728453999999999   3.331310000000000 0
ion Cu   2.383321000000000   3.893061000000000   6.189945000000000 0
ion Cu   2.383321000000000  15.568833000000000   6.189945000000000 0
ion Cu   7.149943000000000   3.893061000000000   6.189945000000000 0
ion Cu   7.149943000000000  15.568833000000000   6.189945000000000 0
ion Cu   2.383359000000000   7.773301000000000   8.939650000000000 0
ion Cu   2.383359000000000  19.449120000000001   8.939650000000000 0
ion Cu   7.149981000000001   7.773301000000000   8.939650000000000 0
ion Cu   7.149981000000001  19.449120000000001   8.939650000000000 0
ion Cu   2.383292000000000  23.288868999999998  11.688513000000000 0
ion Cu   2.383292000000000  11.613097000000000  11.688513000000000 0
ion Cu   7.149905000000001  23.288868999999998  11.688513000000000 0
ion Cu   7.149905000000001  11.613097000000000  11.688513000000000 0
ion Cu   2.383302000000000   3.900837000000000  14.500237000000000 0
ion Cu   2.383302000000000  15.576631999999998  14.500237000000000 0
ion Cu   7.149924000000001   3.900837000000000  14.500237000000000 0
ion Cu   7.149924000000001  15.576631999999998  14.500237000000000 0
ion Cu   2.383321000000000   7.755134000000001   0.798177000000000 0
ion Cu   2.383321000000000  19.430952999999999   0.798177000000000 0
ion Cu   7.149943000000000   7.755134000000001   0.798177000000000 0
ion Cu   7.149943000000000  19.430952999999999   0.798177000000000 0
ion C   2.383254000000000  12.995464000000000  18.098348999999999 1  Linear 0 0 1
ion O   2.443352000000000  12.995464000000000  20.253719000000000 1  Linear 0 0 1
ion-species /projects/musgravc/apps/jdftx-1.6.0/build/pseudopotentials/GBRV_v1.5/$ID_pbe_v1.uspp
ion-species /projects/musgravc/apps/jdftx-1.6.0/build/pseudopotentials/GBRV_v1.5/$ID_pbe_v1.2.uspp
ion-species /projects/musgravc/apps/jdftx-1.6.0/build/pseudopotentials/GBRV_v1.5/$ID_pbe_v1.4.uspp
ion-species /projects/musgravc/apps/jdftx-1.6.0/build/pseudopotentials/GBRV_v1.5/$ID_pbe_v1.5.uspp
ion-width Ecut
ionic-minimize  \
	dirUpdateScheme      L-BFGS \
	linminMethod         DirUpdateRecommended \
	nIterations          100 \
	history              15 \
	knormThreshold       0.0001 \
	energyDiffThreshold  1e-06 \
	nEnergyDiff          2 \
	alphaTstart          1 \
	alphaTmin            1e-10 \
	updateTestStepSize   yes \
	alphaTreduceFactor   0.1 \
	alphaTincreaseFactor 3 \
	nAlphaAdjustMax      3 \
	wolfeEnergy          0.0001 \
	wolfeGradient        0.9 \
	fdTest               no
kpoint   0.000000000000   0.000000000000   0.000000000000  1.00000000000000
kpoint-folding 6 2 1 
latt-move-scale 0 0 0
latt-scale 1 1 1 
lattice  \
	   9.533245000000001    0.000000000000000    0.000000000000000  \
	   0.000000000000000   23.351590999999999    0.000000000000000  \
	   0.000000000000000    0.000000000000000   49.536203999999998 
lattice-minimize  \
	dirUpdateScheme      L-BFGS \
	linminMethod         DirUpdateRecommended \
	nIterations          0 \
	history              15 \
	knormThreshold       0 \
	energyDiffThreshold  1e-06 \
	nEnergyDiff          2 \
	alphaTstart          1 \
	alphaTmin            1e-10 \
	updateTestStepSize   yes \
	alphaTreduceFactor   0.1 \
	alphaTincreaseFactor 3 \
	nAlphaAdjustMax      3 \
	wolfeEnergy          0.0001 \
	wolfeGradient        0.9 \
	fdTest               no
lcao-params 30 1e-06 0.001
pcm-variant CANDLE
spintype z-spin
subspace-rotation-factor 1 yes
symmetries automatic
symmetry-threshold 0.0001
van-der-waals D3



---------- Setting up symmetries ----------

Found 8 point-group symmetries of the bravais lattice
Found 1 space-group symmetries with basis
Applied RMS atom displacement 0 bohrs to make symmetries exact.

---------- Initializing the Grid ----------
R = 
[      9.53325            0            0  ]
[            0      23.3516            0  ]
[            0            0      49.5362  ]
unit cell volume = 11027.6
G =
[   0.659081          0          0  ]
[          0   0.269069          0  ]
[          0          0    0.12684  ]
Minimum fftbox size, Smin = [  40  96  200  ]
Chosen fftbox size, S = [  40  96  200  ]

---------- Exchange Correlation functional ----------
Initalized PBE GGA exchange.
Initalized PBE GGA correlation.

---------- Setting up pseudopotentials ----------
Width of ionic core gaussian charges (only for fluid interactions / plotting) set to 0.397384

Reading pseudopotential file '/projects/musgravc/apps/jdftx-1.6.0/build/pseudopotentials/GBRV_v1.5/cu_pbe_v1.2.uspp':
  Title: Cu.  Created by USPP 7.3.6 on 3-2-2014
  Reference state energy: -201.059491.  19 valence electrons in orbitals:
    |300>  occupation: 2  eigenvalue: -5.020764
    |310>  occupation: 6  eigenvalue: -3.445588
    |320>  occupation: 8  eigenvalue: -0.925168
    |400>  occupation: 2  eigenvalue: -0.567638
    |410>  occupation: 0  eigenvalue: -0.326154
  lMax: 2  lLocal: 3  QijEcut: 6
  6 projectors sampled on a log grid with 613 points:
    l: 0  eig: -5.020767  rCut: 1.4
    l: 0  eig: -0.567640  rCut: 1.4
    l: 1  eig: -3.445589  rCut: 1.55
    l: 1  eig: -0.326157  rCut: 1.55
    l: 2  eig: -0.925170  rCut: 1.5
    l: 2  eig: 1.500000  rCut: 1.5
  Partial core density with radius 0.8
  Transforming core density to a uniform radial grid of dG=0.02 with 1125 points.
  Transforming local potential to a uniform radial grid of dG=0.02 with 1125 points.
  Transforming nonlocal projectors to a uniform radial grid of dG=0.02 with 432 points.
  Transforming density augmentations to a uniform radial grid of dG=0.02 with 1125 points.
  Transforming atomic orbitals to a uniform radial grid of dG=0.02 with 432 points.
  Core radius for overlap checks: 1.55 bohrs.

Reading pseudopotential file '/projects/musgravc/apps/jdftx-1.6.0/build/pseudopotentials/GBRV_v1.5/c_pbe_v1.2.uspp':
  Title: C.  Created by USPP 7.3.6 on 3-2-2014
  Reference state energy: -5.406344.  4 valence electrons in orbitals:
    |200>  occupation: 2  eigenvalue: -0.504890
    |210>  occupation: 2  eigenvalue: -0.194356
  lMax: 1  lLocal: 2  QijEcut: 5
  4 projectors sampled on a log grid with 503 points:
    l: 0  eig: -0.504890  rCut: 1.3
    l: 0  eig: 0.000000  rCut: 1.3
    l: 1  eig: -0.194357  rCut: 1.3
    l: 1  eig: 0.000000  rCut: 1.3
  Partial core density with radius 1.1
  Transforming core density to a uniform radial grid of dG=0.02 with 1125 points.
  Transforming local potential to a uniform radial grid of dG=0.02 with 1125 points.
  Transforming nonlocal projectors to a uniform radial grid of dG=0.02 with 432 points.
  Transforming density augmentations to a uniform radial grid of dG=0.02 with 1125 points.
  Transforming atomic orbitals to a uniform radial grid of dG=0.02 with 432 points.
  Core radius for overlap checks: 1.30 bohrs.

Reading pseudopotential file '/projects/musgravc/apps/jdftx-1.6.0/build/pseudopotentials/GBRV_v1.5/o_pbe_v1.2.uspp':
  Title: O.  Created by USPP 7.3.6 on 3-2-2014
  Reference state energy: -15.894388.  6 valence electrons in orbitals:
    |200>  occupation: 2  eigenvalue: -0.878823
    |210>  occupation: 4  eigenvalue: -0.332131
  lMax: 2  lLocal: 2  QijEcut: 6
  5 projectors sampled on a log grid with 511 points:
    l: 0  eig: -0.878823  rCut: 1.25
    l: 0  eig: 0.000000  rCut: 1.25
    l: 1  eig: -0.332132  rCut: 1.25
    l: 1  eig: 0.000000  rCut: 1.25
    l: 2  eig: 1.000000  rCut: 1.25
  Partial core density with radius 0.7
  Transforming core density to a uniform radial grid of dG=0.02 with 1125 points.
  Transforming local potential to a uniform radial grid of dG=0.02 with 1125 points.
  Transforming nonlocal projectors to a uniform radial grid of dG=0.02 with 432 points.
  Transforming density augmentations to a uniform radial grid of dG=0.02 with 1125 points.
  Transforming atomic orbitals to a uniform radial grid of dG=0.02 with 432 points.
  Core radius for overlap checks: 1.25 bohrs.

Initialized 3 species with 50 total atoms.

Folded 1 k-points by 6x2x1 to 12 k-points.

---------- Setting up k-points, bands, fillings ----------
Adding inversion symmetry to k-mesh for non-inversion-symmetric unit cell.
Reduced to 8 k-points under symmetry. 
Computing the number of bands and number of electrons
Calculating initial fillings.
nElectrons: 922.000000   nBands: 554   nStates: 16

----- Setting up reduced wavefunction bases (one per k-point) -----
average nbasis = 47121.583 , ideal nbasis = 47110.633

----- Initializing Supercell corresponding to k-point mesh -----
Lattice vector linear combinations in supercell:
[   6   0   0  ]
[   0   2   0  ]
[   0   0   1  ]
Supercell lattice vectors:
[  57.1995  0  0  ]
[  0  46.7032  0  ]
[  0  0  49.5362  ]

Initializing DFT-D3 calculator:
	Parameters set for gga-PBE functional
	s6:  1.000  s_r6:  1.217
	s8:  0.722  s_r8:  1.000
	Per-atom parameters loaded for:
	Cu:  sqrtQ[a0]:  5.226  Rcov[a0]:  1.909  CN: [ 0.00 0.96 ]
	 C:  sqrtQ[a0]:  3.105  Rcov[a0]:  1.417  CN: [ 0.00 0.99 2.00 3.00 3.98 ]
	 O:  sqrtQ[a0]:  2.594  Rcov[a0]:  1.191  CN: [ 0.00 0.99 1.99 ]

Initializing DFT-D2 calculator for fluid / solvation:
	Cu:  C6:  187.33 Eh-a0^6  R0: 2.952 a0
	 C:  C6:   30.35 Eh-a0^6  R0: 2.744 a0
	 O:  C6:   12.14 Eh-a0^6  R0: 2.536 a0

---------- Setting up ewald sum ----------
Optimum gaussian width for ewald sums = 4.626384 bohr.
Real space sum over 455 unit cells with max indices [  6  3  2  ]
Reciprocal space sum over 7733 terms with max indices [  5  9  18  ]

Computing DFT-D3 correction:
# coordination-number Cu 5.564 6.568 5.564 6.571 6.865 6.865 6.865 6.865 9.103 9.103 9.103 9.103 9.045 9.045 9.045 9.045 9.019 9.020 9.019 9.020 7.550 7.549 7.550 7.549 7.549 7.549 7.549 7.549 9.019 9.019 9.019 9.019 9.045 9.045 9.045 9.045 9.103 9.109 9.103 9.105 6.866 7.376 6.866 6.879 5.565 5.565 5.565 5.565
# coordination-number C 3.487
# coordination-number O 1.069
# diagonal-C6 Cu 175.00 175.00 175.00 175.00 175.00 175.00 175.00 175.00 175.00 175.00 175.00 175.00 175.00 175.00 175.00 175.00 175.00 175.00 175.00 175.00 175.00 175.00 175.00 175.00 175.00 175.00 175.00 175.00 175.00 175.00 175.00 175.00 175.00 175.00 175.00 175.00 175.00 175.00 175.00 175.00 175.00 175.00 175.00 175.00 175.00 175.00 175.00 175.00
# diagonal-C6 C 21.84
# diagonal-C6 O 12.75
EvdW_6 =   -0.260219
EvdW_8 =   -0.398252

---------- Allocating electronic variables ----------
Initializing wave functions:  linear combination of atomic orbitals
Cu pseudo-atom occupations:   s ( 2 1 )  p ( 6 0 )  d ( 10 )
C pseudo-atom occupations:   s ( 2 )  p ( 2 )
O pseudo-atom occupations:   s ( 2 )  p ( 4 )
	FillingsUpdate:  mu: -2.687760618  nElectrons: 922.000000  magneticMoment: [ Abs: 0.44712  Tot: +0.00039 ]
LCAOMinimize: Iter:   0  F: -9469.8057763434790104  |grad|_K:  3.458e-02  alpha:  1.000e+00
LCAOMinimize: 	Step increased F by 1.458644e+03, reducing alpha to 4.117431e-02.
LCAOMinimize: 	Step increased F by 8.656189e+01, reducing alpha to 4.117431e-03.
	FillingsUpdate:  mu: -2.498872960  nElectrons: 922.000000  magneticMoment: [ Abs: 0.45007  Tot: +0.00323 ]
LCAOMinimize: Iter:   1  F: -9495.8658813931942859  |grad|_K:  2.273e-02  alpha:  4.117e-03  linmin: -1.554e-01  cgtest:  9.314e-01  t[s]:    298.06
LCAOMinimize: Encountered beta<0, resetting CG.
LCAOMinimize: 	Predicted alpha/alphaT>3.000000, increasing alphaT to 1.235229e-02.
	FillingsUpdate:  mu: -1.387515386  nElectrons: 922.000000  magneticMoment: [ Abs: 0.46422  Tot: -0.00080 ]
LCAOMinimize: Iter:   2  F: -9523.6088398338943080  |grad|_K:  1.616e-02  alpha:  1.632e-02  linmin: -2.218e-02  cgtest: -3.072e-05  t[s]:    387.05
LCAOMinimize: 	Wrong curvature in test step, increasing alphaT to 4.897365e-02.
	FillingsUpdate:  mu: -1.119259354  nElectrons: 922.000000  magneticMoment: [ Abs: 0.50105  Tot: +0.01101 ]
LCAOMinimize: Iter:   3  F: -9556.4354295614975854  |grad|_K:  1.652e-02  alpha: -7.530e-02  linmin: -1.025e-01  cgtest:  8.985e-01  t[s]:    452.33
	FillingsUpdate:  mu: +2.433981485  nElectrons: 922.000000  magneticMoment: [ Abs: 0.00345  Tot: -0.00049 ]
LCAOMinimize: Iter:   4  F: -9623.6596839839294262  |grad|_K:  5.067e-03  alpha:  5.095e-01  linmin:  3.342e-02  cgtest: -1.359e+00  t[s]:    522.82
	FillingsUpdate:  mu: +2.368743974  nElectrons: 922.000000  magneticMoment: [ Abs: 0.00333  Tot: +0.00017 ]
LCAOMinimize: Iter:   5  F: -9625.4686366241312498  |grad|_K:  4.701e-03  alpha:  1.562e-02  linmin: -3.941e-02  cgtest:  9.423e-01  t[s]:    593.26
LCAOMinimize: Encountered beta<0, resetting CG.
LCAOMinimize: 	Predicted alpha/alphaT>3.000000, increasing alphaT to 4.685932e-02.
LCAOMinimize: 	Predicted alpha/alphaT>3.000000, increasing alphaT to 1.405780e-01.
LCAOMinimize: 	Wrong curvature in test step, increasing alphaT to 4.217339e-01.
	FillingsUpdate:  mu: +1.580884897  nElectrons: 922.000000  magneticMoment: [ Abs: 0.00434  Tot: -0.00089 ]
LCAOMinimize: Iter:   6  F: -9650.3127812742259266  |grad|_K:  7.518e-03  alpha: -2.840e-01  linmin:  1.151e-02  cgtest: -3.124e-01  t[s]:    695.48
LCAOMinimize: 	Step increased F by 7.018352e+01, reducing alpha to 2.880312e-03.
	FillingsUpdate:  mu: +1.530064248  nElectrons: 922.000000  magneticMoment: [ Abs: 0.00452  Tot: -0.00105 ]
LCAOMinimize: Iter:   7  F: -9650.7617417766305152  |grad|_K:  7.678e-03  alpha:  2.880e-03  linmin: -1.335e-02  cgtest:  1.052e+00  t[s]:    818.66
LCAOMinimize: Encountered beta<0, resetting CG.
LCAOMinimize: 	Wrong curvature in test step, increasing alphaT to 8.640935e-03.
	FillingsUpdate:  mu: +1.492835793  nElectrons: 922.000000  magneticMoment: [ Abs: 0.00462  Tot: -0.00139 ]
LCAOMinimize: Iter:   8  F: -9651.9333845874389226  |grad|_K:  8.067e-03  alpha: -1.885e-02  linmin: -5.240e-02  cgtest:  9.103e-01  t[s]:    883.91
	FillingsUpdate:  mu: +1.041624273  nElectrons: 922.000000  magneticMoment: [ Abs: 0.00518  Tot: -0.00104 ]
LCAOMinimize: Iter:   9  F: -9671.8776419039404573  |grad|_K:  5.797e-03  alpha:  4.351e-02  linmin: -8.399e-02  cgtest:  5.091e-01  t[s]:    954.45
	FillingsUpdate:  mu: +0.800015306  nElectrons: 922.000000  magneticMoment: [ Abs: 0.00455  Tot: +0.00010 ]
LCAOMinimize: Iter:  10  F: -9681.4300065537045157  |grad|_K:  3.117e-03  alpha:  6.430e-02  linmin: -6.702e-02  cgtest:  6.443e-01  t[s]:   1025.53
LCAOMinimize: Encountered beta<0, resetting CG.
LCAOMinimize: 	Predicted alpha/alphaT>3.000000, increasing alphaT to 1.929078e-01.
LCAOMinimize: 	Step increased F by 1.770664e+02, reducing alpha to 4.307712e-02.
	FillingsUpdate:  mu: +0.823653707  nElectrons: 922.000000  magneticMoment: [ Abs: 0.00464  Tot: +0.00003 ]
LCAOMinimize: Iter:  11  F: -9684.0356468360005238  |grad|_K:  2.828e-03  alpha:  4.308e-02  linmin: -1.089e-01  cgtest:  9.242e-01  t[s]:   1166.28
LCAOMinimize: Encountered beta<0, resetting CG.
LCAOMinimize: 	Predicted alpha/alphaT>3.000000, increasing alphaT to 1.292313e-01.
LCAOMinimize: 	Predicted alpha/alphaT>3.000000, increasing alphaT to 3.876940e-01.
	FillingsUpdate:  mu: +0.799927361  nElectrons: 922.000000  magneticMoment: [ Abs: 0.00511  Tot: -0.00002 ]
LCAOMinimize: Iter:  12  F: -9688.5636801141008618  |grad|_K:  2.510e-03  alpha:  9.003e-02  linmin: -1.528e-01  cgtest:  8.525e-01  t[s]:   1273.53
LCAOMinimize: 	Wrong curvature in test step, increasing alphaT to 2.700939e-01.
	FillingsUpdate:  mu: +0.719525549  nElectrons: 922.000000  magneticMoment: [ Abs: 0.00587  Tot: -0.00008 ]
LCAOMinimize: Iter:  13  F: -9692.4538493724030559  |grad|_K:  2.327e-03  alpha: -1.457e+00  linmin: -1.735e-01  cgtest:  8.345e-01  t[s]:   1339.00
	FillingsUpdate:  mu: +0.692244783  nElectrons: 922.000000  magneticMoment: [ Abs: 0.00608  Tot: -0.00001 ]
LCAOMinimize: Iter:  14  F: -9693.4008544157277356  |grad|_K:  2.275e-03  alpha:  2.426e-02  linmin: -1.799e-01  cgtest:  9.507e-01  t[s]:   1409.56
LCAOMinimize: 	Wrong curvature in test step, increasing alphaT to 7.276655e-02.
	FillingsUpdate:  mu: +0.670215367  nElectrons: 922.000000  magneticMoment: [ Abs: 0.00628  Tot: +0.00003 ]
LCAOMinimize: Iter:  15  F: -9694.2412271929697454  |grad|_K:  2.229e-03  alpha: -9.387e-01  linmin: -1.836e-01  cgtest:  9.541e-01  t[s]:   1474.93
	FillingsUpdate:  mu: +0.650412863  nElectrons: 922.000000  magneticMoment: [ Abs: 0.00651  Tot: +0.00004 ]
LCAOMinimize: Iter:  16  F: -9695.0797739733643539  |grad|_K:  2.180e-03  alpha:  2.526e-02  linmin: -1.849e-01  cgtest:  9.516e-01  t[s]:   1545.45
LCAOMinimize: 	Wrong curvature in test step, increasing alphaT to 7.578132e-02.
	FillingsUpdate:  mu: +0.631380890  nElectrons: 922.000000  magneticMoment: [ Abs: 0.00674  Tot: +0.00006 ]
LCAOMinimize: Iter:  17  F: -9695.8809342841850594  |grad|_K:  2.126e-03  alpha: -1.022e+00  linmin: -1.850e-01  cgtest:  9.511e-01  t[s]:   1611.72
	FillingsUpdate:  mu: +0.610323484  nElectrons: 922.000000  magneticMoment: [ Abs: 0.00698  Tot: +0.00010 ]
LCAOMinimize: Iter:  18  F: -9696.6365083409455110  |grad|_K:  2.066e-03  alpha:  2.516e-02  linmin: -1.875e-01  cgtest:  9.517e-01  t[s]:   1682.42
LCAOMinimize: 	Wrong curvature in test step, increasing alphaT to 7.548748e-02.
	FillingsUpdate:  mu: +0.583941211  nElectrons: 922.000000  magneticMoment: [ Abs: 0.00722  Tot: +0.00016 ]
LCAOMinimize: Iter:  19  F: -9697.3458240106319863  |grad|_K:  2.001e-03  alpha: -1.508e+00  linmin: -1.926e-01  cgtest:  9.522e-01  t[s]:   1747.99
	FillingsUpdate:  mu: +0.556321794  nElectrons: 922.000000  magneticMoment: [ Abs: 0.00748  Tot: +0.00023 ]
LCAOMinimize: Iter:  20  F: -9698.0354738438836648  |grad|_K:  1.929e-03  alpha:  2.623e-02  linmin: -1.999e-01  cgtest:  9.508e-01  t[s]:   1818.43
LCAOMinimize: 	Wrong curvature in test step, increasing alphaT to 7.869434e-02.
	FillingsUpdate:  mu: +0.526118269  nElectrons: 922.000000  magneticMoment: [ Abs: 0.00774  Tot: +0.00029 ]
LCAOMinimize: Iter:  21  F: -9698.6727562194446364  |grad|_K:  1.853e-03  alpha: -2.899e+00  linmin: -2.071e-01  cgtest:  9.515e-01  t[s]:   1883.63
	FillingsUpdate:  mu: +0.497571951  nElectrons: 922.000000  magneticMoment: [ Abs: 0.00800  Tot: +0.00031 ]
LCAOMinimize: Iter:  22  F: -9699.2810443586258771  |grad|_K:  1.771e-03  alpha:  2.730e-02  linmin: -2.117e-01  cgtest:  9.504e-01  t[s]:   1954.59
LCAOMinimize: 	Predicted alpha/alphaT>3.000000, increasing alphaT to 8.189503e-02.
LCAOMinimize: 	Predicted alpha/alphaT>3.000000, increasing alphaT to 2.456851e-01.
	FillingsUpdate:  mu: +0.383203215  nElectrons: 922.000000  magneticMoment: [ Abs: 0.00930  Tot: +0.00021 ]
LCAOMinimize: Iter:  23  F: -9701.5198760796210991  |grad|_K:  1.336e-03  alpha:  1.168e-01  linmin: -1.562e-01  cgtest:  7.001e-01  t[s]:   2061.80
	FillingsUpdate:  mu: +0.220571459  nElectrons: 922.000000  magneticMoment: [ Abs: 0.01079  Tot: +0.00103 ]
LCAOMinimize: Iter:  24  F: -9702.3222948365182674  |grad|_K:  1.771e-03  alpha:  2.037e-01  linmin:  1.484e-01  cgtest: -2.907e-01  t[s]:   2132.42
LCAOMinimize: 	Bad step direction: g.d > 0.
LCAOMinimize: 	Undoing step.
LCAOMinimize: 	Step failed: resetting search direction.
	FillingsUpdate:  mu: +0.220571459  nElectrons: 922.000000  magneticMoment: [ Abs: 0.01079  Tot: +0.00103 ]
LCAOMinimize: Iter:  25  F: -9702.3222948365182674  |grad|_K:  1.771e-03  alpha:  0.000e+00
	FillingsUpdate:  mu: +0.159531875  nElectrons: 922.000000  magneticMoment: [ Abs: 0.01079  Tot: +0.00089 ]
LCAOMinimize: Iter:  26  F: -9702.7966204774111247  |grad|_K:  6.554e-04  alpha:  3.744e-02  linmin: -1.642e-01  cgtest:  7.599e-01  t[s]:   2255.21
LCAOMinimize: Encountered beta<0, resetting CG.
	FillingsUpdate:  mu: +0.156091058  nElectrons: 922.000000  magneticMoment: [ Abs: 0.01072  Tot: +0.00061 ]
LCAOMinimize: Iter:  27  F: -9702.8722051209497295  |grad|_K:  4.417e-04  alpha:  5.591e-02  linmin:  1.157e-02  cgtest: -3.710e-02  t[s]:   2325.64
	FillingsUpdate:  mu: +0.149135429  nElectrons: 922.000000  magneticMoment: [ Abs: 0.01067  Tot: +0.00061 ]
LCAOMinimize: Iter:  28  F: -9702.8873552492277668  |grad|_K:  2.755e-04  alpha:  2.545e-02  linmin: -3.230e-04  cgtest:  6.892e-02  t[s]:   2396.24
	FillingsUpdate:  mu: +0.143927228  nElectrons: 922.000000  magneticMoment: [ Abs: 0.01051  Tot: +0.00058 ]
LCAOMinimize: Iter:  29  F: -9702.9005083199899673  |grad|_K:  2.110e-04  alpha:  5.457e-02  linmin:  3.891e-03  cgtest: -7.590e-02  t[s]:   2466.58
	FillingsUpdate:  mu: +0.139875218  nElectrons: 922.000000  magneticMoment: [ Abs: 0.01028  Tot: +0.00057 ]
LCAOMinimize: Iter:  30  F: -9702.9091855859569478  |grad|_K:  1.420e-04  alpha:  6.229e-02  linmin:  1.558e-03  cgtest:  4.781e-02  t[s]:   2537.16
LCAOMinimize: None of the convergence criteria satisfied after 30 iterations.
----- createFluidSolver() ----- (Fluid-side solver setup)
   Initializing fluid molecule 'H2O'
     Initializing site 'O'
       Electron density: proportional to exp(-r/0.36935)*erfc((r-0.51523)/0.36823) with norm 6.826
       Charge density: gaussian nuclear width 0.478731 with net site charge 0.826
       Polarizability: cuspless exponential with width 0.32 and norm 3.73
       Hard sphere radius: 2.57003 bohrs
       Positions in reference frame:
         [ +0.000000 +0.000000 +0.000000 ]
     Initializing site 'H'
       Electron density: proportional to exp(-r/0.34641)*erfc((r-0)/0.390882) with norm 0.587
       Charge density: gaussian nuclear width 0.377945 with net site charge -0.413
       Polarizability: cuspless exponential with width 0.39 and norm 3.3
       Positions in reference frame:
         [ +0.000000 -1.441945 +1.122523 ]
         [ +0.000000 +1.441945 +1.122523 ]
     Net charge: 0   dipole magnitude: 0.927204
     Initializing spherical shell mfKernel with radius 2.61727 Bohr
     deltaS corrections:
       site 'O': -7.54299
       site 'H': -6.83917
   Initializing fluid molecule 'Na+'
     Initializing site 'Na'
       Electron density: proportional to exp(-r/0.19682)*erfc((r-0.71491)/0.41314) with norm 8.1383
       Charge density: gaussian nuclear width 0.365347 with net site charge -1
       Hard sphere radius: 1.86327 bohrs
       Positions in reference frame:
         [ +0.000000 +0.000000 +0.000000 ]
     Net charge: -1   dipole magnitude: 0
     Initializing gaussian mfKernel with width: 1.55004 Bohr
     deltaS corrections:
       site 'Na': -22.3555
   Initializing fluid molecule 'F-'
     Initializing site 'F'
       Electron density: proportional to exp(-r/0.38886)*erfc((r-0)/0.438782) with norm 8
       Charge density: gaussian nuclear width 0.374796 with net site charge 1
       Hard sphere radius: 2.39995 bohrs
       Positions in reference frame:
         [ +0.000000 +0.000000 +0.000000 ]
     Net charge: 1   dipole magnitude: 0
     Initializing gaussian mfKernel with width: 1.59012 Bohr
     deltaS corrections:
       site 'F': -9.04335

Correction to mu due to finite nuclear width = -0.0829565
   Cavity determined by nc: 0.00142 and sigma: 0.707107
   Nonlocal vdW cavity from gaussian model electron density with norm = 8 and sigma = 0.993594 bohr
   Charge asymmetry in cavity with sensitivity pCavity = 36.5 e-bohr/Eh
   Electrostatic cavity expanded by eta = 1.46 bohrs
   Weighted density cavitation model constrained by Nbulk: 0.0049383 bohr^-3, Pvap: 3.14029 kPa, Rvdw: 2.61727 bohr and sigmaBulk: 4.62e-05 Eh/bohr^2 at T: 298 K.
   Weighted density dispersion model using vdW pair potentials with single solvent site with sqrtC6eff: 0.77 SI.


---- Citations for features of the code used in this run ----

   Software package:
      R. Sundararaman, K. Letchworth-Weaver, K.A. Schwarz, D. Gunceler, Y. Ozhabes and T.A. Arias, 'JDFTx: software for joint density-functional theory', SoftwareX 6, 278 (2017)

   gga-PBE exchange-correlation functional:
      J.P. Perdew, K. Burke and M. Ernzerhof, Phys. Rev. Lett. 77, 3865 (1996)

   Pseudopotentials:
      KF Garrity, JW Bennett, KM Rabe and D Vanderbilt, Comput. Mater. Sci. 81, 446 (2014)

   DFT-D3 dispersion correction:
      S. Grimme, J. Antony, S. Ehrlich and H. Krieg, J. Chem. Phys. 132, 154104 (2010)

   DFT-D2 dispersion correction:
      S. Grimme, J. Comput. Chem. 27, 1787 (2006)

   Charge-asymmetric nonlocally-determined local-electric (CANDLE) solvation model:
      R. Sundararaman and W.A. Goddard III, J. Chem. Phys. 142, 064107 (2015)

   Total energy minimization with Auxiliary Hamiltonian:
      C. Freysoldt, S. Boeck, and J. Neugebauer, Phys. Rev. B 79, 241103(R) (2009)

   Linear-tetrahedron sampling for density of states:
      G. Lehmann and M. Taut, Phys. status solidi (b) 54, 469 (1972)

This list may not be complete. Please suggest additional citations or
report any other bugs at https://github.com/shankar1729/jdftx/issues

Initialization completed successfully at t[s]:   2566.37


Computing DFT-D3 correction:
# coordination-number Cu 5.564 6.568 5.564 6.571 6.865 6.865 6.865 6.865 9.103 9.103 9.103 9.103 9.045 9.045 9.045 9.045 9.019 9.020 9.019 9.020 7.550 7.549 7.550 7.549 7.549 7.549 7.549 7.549 9.019 9.019 9.019 9.019 9.045 9.045 9.045 9.045 9.103 9.109 9.103 9.105 6.866 7.376 6.866 6.879 5.565 5.565 5.565 5.565
# coordination-number C 3.487
# coordination-number O 1.069
# diagonal-C6 Cu 175.00 175.00 175.00 175.00 175.00 175.00 175.00 175.00 175.00 175.00 175.00 175.00 175.00 175.00 175.00 175.00 175.00 175.00 175.00 175.00 175.00 175.00 175.00 175.00 175.00 175.00 175.00 175.00 175.00 175.00 175.00 175.00 175.00 175.00 175.00 175.00 175.00 175.00 175.00 175.00 175.00 175.00 175.00 175.00 175.00 175.00 175.00 175.00
# diagonal-C6 C 21.84
# diagonal-C6 O 12.75
EvdW_6 =   -0.260219
EvdW_8 =   -0.398252
Fluid solver invoked on fresh (random / LCAO) wavefunctions
Running a vacuum solve first:

-------- Initial electronic minimization -----------
	FillingsUpdate:  mu: +0.139881537  nElectrons: 922.000000  magneticMoment: [ Abs: 0.01028  Tot: +0.00057 ]
ElecMinimize: Iter:   0  F: -9702.909185585944215  |grad|_K:  2.832e-04  alpha:  1.000e+00
	FillingsUpdate:  mu: +0.025831942  nElectrons: 922.000000  magneticMoment: [ Abs: 0.00985  Tot: +0.00049 ]
	SubspaceRotationAdjust: set factor to 0.939
ElecMinimize: Iter:   1  F: -9706.102542750550128  |grad|_K:  1.447e-04  alpha:  9.904e-02  linmin:  1.335e-04  t[s]:   2790.77
	FillingsUpdate:  mu: +0.329616988  nElectrons: 922.000000  magneticMoment: [ Abs: 0.00727  Tot: +0.00048 ]
	SubspaceRotationAdjust: set factor to 0.528
ElecMinimize: Iter:   2  F: -9707.880797698484457  |grad|_K:  2.556e-04  alpha:  1.914e-01  linmin: -1.198e-04  t[s]:   2940.17
	FillingsUpdate:  mu: +0.478585876  nElectrons: 922.000000  magneticMoment: [ Abs: 0.00478  Tot: +0.00005 ]
	SubspaceRotationAdjust: set factor to 0.256
ElecMinimize: Iter:   3  F: -9708.923656006578312  |grad|_K:  1.947e-04  alpha:  7.630e-02  linmin:  1.456e-04  t[s]:   3088.87
	FillingsUpdate:  mu: +0.261492179  nElectrons: 922.000000  magneticMoment: [ Abs: 0.00368  Tot: +0.00001 ]
	SubspaceRotationAdjust: set factor to 0.509
ElecMinimize: Iter:   4  F: -9709.718408746588466  |grad|_K:  7.552e-05  alpha:  7.500e-02  linmin: -3.265e-05  t[s]:   3237.70
	FillingsUpdate:  mu: +0.197302866  nElectrons: 922.000000  magneticMoment: [ Abs: 0.00324  Tot: +0.00002 ]
	SubspaceRotationAdjust: set factor to 0.493
ElecMinimize: Iter:   5  F: -9710.045789459954904  |grad|_K:  6.257e-05  alpha:  1.313e-01  linmin:  2.412e-06  t[s]:   3386.37
	FillingsUpdate:  mu: +0.127492693  nElectrons: 922.000000  magneticMoment: [ Abs: 0.00298  Tot: +0.00000 ]
	SubspaceRotationAdjust: set factor to 0.603
ElecMinimize: Iter:   6  F: -9710.262438800751625  |grad|_K:  3.660e-05  alpha:  1.321e-01  linmin:  3.991e-06  t[s]:   3535.70
	FillingsUpdate:  mu: +0.124406667  nElectrons: 922.000000  magneticMoment: [ Abs: 0.00254  Tot: +0.00001 ]
	SubspaceRotationAdjust: set factor to 0.708
ElecMinimize: Iter:   7  F: -9710.333215528802612  |grad|_K:  3.150e-05  alpha:  1.261e-01  linmin:  1.968e-06  t[s]:   3684.65
	FillingsUpdate:  mu: +0.117914496  nElectrons: 922.000000  magneticMoment: [ Abs: 0.00201  Tot: -0.00000 ]
	SubspaceRotationAdjust: set factor to 0.689
ElecMinimize: Iter:   8  F: -9710.397515829394251  |grad|_K:  2.888e-05  alpha:  1.553e-01  linmin:  2.725e-05  t[s]:   3833.99
	FillingsUpdate:  mu: +0.107298575  nElectrons: 922.000000  magneticMoment: [ Abs: 0.00177  Tot: -0.00001 ]
	SubspaceRotationAdjust: set factor to 0.715
ElecMinimize: Iter:   9  F: -9710.428903706475467  |grad|_K:  2.026e-05  alpha:  9.064e-02  linmin: -5.605e-06  t[s]:   3982.87
	FillingsUpdate:  mu: +0.096416588  nElectrons: 922.000000  magneticMoment: [ Abs: 0.00141  Tot: -0.00002 ]
	SubspaceRotationAdjust: set factor to 0.72
ElecMinimize: Iter:  10  F: -9710.455087605165318  |grad|_K:  1.858e-05  alpha:  1.518e-01  linmin:  1.054e-05  t[s]:   4132.54
	FillingsUpdate:  mu: +0.094500303  nElectrons: 922.000000  magneticMoment: [ Abs: 0.00112  Tot: -0.00003 ]
	SubspaceRotationAdjust: set factor to 0.842
ElecMinimize: Iter:  11  F: -9710.471581373893059  |grad|_K:  1.215e-05  alpha:  1.143e-01  linmin:  1.408e-06  t[s]:   4281.62
	FillingsUpdate:  mu: +0.096720081  nElectrons: 922.000000  magneticMoment: [ Abs: 0.00091  Tot: -0.00003 ]
	SubspaceRotationAdjust: set factor to 0.854
ElecMinimize: Iter:  12  F: -9710.479603408526600  |grad|_K:  1.146e-05  alpha:  1.293e-01  linmin:  7.923e-07  t[s]:   4431.15
	FillingsUpdate:  mu: +0.101449600  nElectrons: 922.000000  magneticMoment: [ Abs: 0.00072  Tot: -0.00003 ]
	SubspaceRotationAdjust: set factor to 0.665
ElecMinimize: Iter:  13  F: -9710.484859713556943  |grad|_K:  9.799e-06  alpha:  9.527e-02  linmin: -2.920e-07  t[s]:   4579.86
	FillingsUpdate:  mu: +0.103619743  nElectrons: 922.000000  magneticMoment: [ Abs: 0.00057  Tot: -0.00003 ]
	SubspaceRotationAdjust: set factor to 0.583
ElecMinimize: Iter:  14  F: -9710.487997195292337  |grad|_K:  6.414e-06  alpha:  7.780e-02  linmin: -2.456e-06  t[s]:   4729.14
	FillingsUpdate:  mu: +0.103383350  nElectrons: 922.000000  magneticMoment: [ Abs: 0.00045  Tot: -0.00003 ]
	SubspaceRotationAdjust: set factor to 0.618
ElecMinimize: Iter:  15  F: -9710.490144586256065  |grad|_K:  5.231e-06  alpha:  1.242e-01  linmin: -7.281e-07  t[s]:   4877.88
	FillingsUpdate:  mu: +0.100963937  nElectrons: 922.000000  magneticMoment: [ Abs: 0.00036  Tot: -0.00002 ]
	SubspaceRotationAdjust: set factor to 0.601
ElecMinimize: Iter:  16  F: -9710.491703624591537  |grad|_K:  4.618e-06  alpha:  1.356e-01  linmin:  1.296e-06  t[s]:   5027.84
	FillingsUpdate:  mu: +0.101200711  nElectrons: 922.000000  magneticMoment: [ Abs: 0.00029  Tot: -0.00002 ]
	SubspaceRotationAdjust: set factor to 0.579
ElecMinimize: Iter:  17  F: -9710.492589944917199  |grad|_K:  3.396e-06  alpha:  9.903e-02  linmin: -1.667e-07  t[s]:   5176.83
	FillingsUpdate:  mu: +0.103490236  nElectrons: 922.000000  magneticMoment: [ Abs: 0.00024  Tot: -0.00002 ]
	SubspaceRotationAdjust: set factor to 0.586
ElecMinimize: Iter:  18  F: -9710.493109360671951  |grad|_K:  2.424e-06  alpha:  1.072e-01  linmin: -9.418e-07  t[s]:   5325.62
	FillingsUpdate:  mu: +0.104281890  nElectrons: 922.000000  magneticMoment: [ Abs: 0.00020  Tot: -0.00002 ]
	SubspaceRotationAdjust: set factor to 0.669
ElecMinimize: Iter:  19  F: -9710.493448061155505  |grad|_K:  2.095e-06  alpha:  1.371e-01  linmin: -1.966e-08  t[s]:   5474.25
	FillingsUpdate:  mu: +0.103157136  nElectrons: 922.000000  magneticMoment: [ Abs: 0.00017  Tot: -0.00002 ]
	SubspaceRotationAdjust: set factor to 0.602
ElecMinimize: Iter:  20  F: -9710.493635263934266  |grad|_K:  1.654e-06  alpha:  1.015e-01  linmin:  6.104e-08  t[s]:   5623.58
	FillingsUpdate:  mu: +0.102043544  nElectrons: 922.000000  magneticMoment: [ Abs: 0.00015  Tot: -0.00002 ]
	SubspaceRotationAdjust: set factor to 0.549
ElecMinimize: Iter:  21  F: -9710.493760009176185  |grad|_K:  1.203e-06  alpha:  1.086e-01  linmin:  3.572e-07  t[s]:   5772.53
	FillingsUpdate:  mu: +0.102343893  nElectrons: 922.000000  magneticMoment: [ Abs: 0.00012  Tot: -0.00001 ]
	SubspaceRotationAdjust: set factor to 0.659
ElecMinimize: Iter:  22  F: -9710.493840259099670  |grad|_K:  1.032e-06  alpha:  1.321e-01  linmin:  2.964e-09  t[s]:   5922.18
	FillingsUpdate:  mu: +0.102871528  nElectrons: 922.000000  magneticMoment: [ Abs: 0.00010  Tot: -0.00001 ]
	SubspaceRotationAdjust: set factor to 0.595
ElecMinimize: Iter:  23  F: -9710.493903647076877  |grad|_K:  8.993e-07  alpha:  1.416e-01  linmin:  8.070e-08  t[s]:   6070.94
	FillingsUpdate:  mu: +0.102881611  nElectrons: 922.000000  magneticMoment: [ Abs: 0.00009  Tot: -0.00001 ]
	SubspaceRotationAdjust: set factor to 0.563
ElecMinimize: Iter:  24  F: -9710.493937259350787  |grad|_K:  6.820e-07  alpha:  9.893e-02  linmin:  4.551e-08  t[s]:   6220.76
	FillingsUpdate:  mu: +0.102658390  nElectrons: 922.000000  magneticMoment: [ Abs: 0.00007  Tot: -0.00001 ]
	SubspaceRotationAdjust: set factor to 0.585
ElecMinimize: Iter:  25  F: -9710.493965061310519  |grad|_K:  5.555e-07  alpha:  1.423e-01  linmin:  2.713e-07  t[s]:   6369.69
	FillingsUpdate:  mu: +0.102595519  nElectrons: 922.000000  magneticMoment: [ Abs: 0.00006  Tot: -0.00001 ]
	SubspaceRotationAdjust: set factor to 0.614
ElecMinimize: Iter:  26  F: -9710.493980154051314  |grad|_K:  4.016e-07  alpha:  1.165e-01  linmin:  1.003e-08  t[s]:   6519.19
	FillingsUpdate:  mu: +0.102559148  nElectrons: 922.000000  magneticMoment: [ Abs: 0.00005  Tot: -0.00001 ]
	SubspaceRotationAdjust: set factor to 0.597
ElecMinimize: Iter:  27  F: -9710.493989885664632  |grad|_K:  3.993e-07  alpha:  1.436e-01  linmin:  1.926e-07  t[s]:   6668.22
	FillingsUpdate:  mu: +0.102591745  nElectrons: 922.000000  magneticMoment: [ Abs: 0.00004  Tot: -0.00000 ]
	SubspaceRotationAdjust: set factor to 0.544
ElecMinimize: Iter:  28  F: -9710.493997929484976  |grad|_K:  3.116e-07  alpha:  1.201e-01  linmin: -2.173e-08  t[s]:   6817.65
	FillingsUpdate:  mu: +0.102709325  nElectrons: 922.000000  magneticMoment: [ Abs: 0.00003  Tot: -0.00000 ]
	SubspaceRotationAdjust: set factor to 0.551
ElecMinimize: Iter:  29  F: -9710.494002648585592  |grad|_K:  2.250e-07  alpha:  1.157e-01  linmin:  1.377e-07  t[s]:   6966.53
	FillingsUpdate:  mu: +0.102713146  nElectrons: 922.000000  magneticMoment: [ Abs: 0.00003  Tot: -0.00000 ]
	SubspaceRotationAdjust: set factor to 0.582
ElecMinimize: Iter:  30  F: -9710.494005991113227  |grad|_K:  2.130e-07  alpha:  1.571e-01  linmin: -7.005e-08  t[s]:   7115.82
	FillingsUpdate:  mu: +0.102606690  nElectrons: 922.000000  magneticMoment: [ Abs: 0.00002  Tot: -0.00000 ]
	SubspaceRotationAdjust: set factor to 0.525
ElecMinimize: Iter:  31  F: -9710.494008168487198  |grad|_K:  1.523e-07  alpha:  1.142e-01  linmin: -1.893e-08  t[s]:   7264.63
	FillingsUpdate:  mu: +0.102561943  nElectrons: 922.000000  magneticMoment: [ Abs: 0.00002  Tot: -0.00000 ]
	SubspaceRotationAdjust: set factor to 0.496
ElecMinimize: Iter:  32  F: -9710.494009328362154  |grad|_K:  1.285e-07  alpha:  1.190e-01  linmin:  5.593e-08  t[s]:   7414.17
	FillingsUpdate:  mu: +0.102590864  nElectrons: 922.000000  magneticMoment: [ Abs: 0.00002  Tot: -0.00000 ]
	SubspaceRotationAdjust: set factor to 0.552
ElecMinimize: Iter:  33  F: -9710.494010446098400  |grad|_K:  1.108e-07  alpha:  1.609e-01  linmin: -2.660e-07  t[s]:   7563.29
	FillingsUpdate:  mu: +0.102600572  nElectrons: 922.000000  magneticMoment: [ Abs: 0.00002  Tot: -0.00000 ]
	SubspaceRotationAdjust: set factor to 0.548
ElecMinimize: Iter:  34  F: -9710.494011107994083  |grad|_K:  9.233e-08  alpha:  1.281e-01  linmin: -1.014e-07  t[s]:   7712.74
	FillingsUpdate:  mu: +0.102587499  nElectrons: 922.000000  magneticMoment: [ Abs: 0.00001  Tot: -0.00000 ]
	SubspaceRotationAdjust: set factor to 0.531
ElecMinimize: Iter:  35  F: -9710.494011613409384  |grad|_K:  8.209e-08  alpha:  1.407e-01  linmin: -6.846e-07  t[s]:   7861.58
	FillingsUpdate:  mu: +0.102585243  nElectrons: 922.000000  magneticMoment: [ Abs: 0.00001  Tot: +0.00000 ]
	SubspaceRotationAdjust: set factor to 0.59
ElecMinimize: Iter:  36  F: -9710.494011981983931  |grad|_K:  6.318e-08  alpha:  1.296e-01  linmin:  1.287e-10  t[s]:   8010.73
	FillingsUpdate:  mu: +0.102590363  nElectrons: 922.000000  magneticMoment: [ Abs: 0.00001  Tot: +0.00000 ]
	SubspaceRotationAdjust: set factor to 0.606
ElecMinimize: Iter:  37  F: -9710.494012234938054  |grad|_K:  5.825e-08  alpha:  1.508e-01  linmin:  1.353e-07  t[s]:   8159.29
	FillingsUpdate:  mu: +0.102582654  nElectrons: 922.000000  magneticMoment: [ Abs: 0.00001  Tot: +0.00000 ]
	SubspaceRotationAdjust: set factor to 0.616
ElecMinimize: Iter:  38  F: -9710.494012435456170  |grad|_K:  5.213e-08  alpha:  1.409e-01  linmin:  1.214e-07  t[s]:   8308.77
	FillingsUpdate:  mu: +0.102577637  nElectrons: 922.000000  magneticMoment: [ Abs: 0.00001  Tot: +0.00000 ]
	SubspaceRotationAdjust: set factor to 0.583
ElecMinimize: Iter:  39  F: -9710.494012573684813  |grad|_K:  4.247e-08  alpha:  1.213e-01  linmin:  3.050e-07  t[s]:   8457.65
	FillingsUpdate:  mu: +0.102583146  nElectrons: 922.000000  magneticMoment: [ Abs: 0.00001  Tot: +0.00000 ]
	SubspaceRotationAdjust: set factor to 0.555
ElecMinimize: Iter:  40  F: -9710.494012671979362  |grad|_K:  3.573e-08  alpha:  1.307e-01  linmin: -6.904e-07  t[s]:   8607.24
	FillingsUpdate:  mu: +0.102580406  nElectrons: 922.000000  magneticMoment: [ Abs: 0.00001  Tot: +0.00000 ]
	SubspaceRotationAdjust: set factor to 0.629
ElecMinimize: Iter:  41  F: -9710.494012752136769  |grad|_K:  2.945e-08  alpha:  1.471e-01  linmin: -1.484e-07  t[s]:   8756.06
ElecMinimize: Converged (|Delta F|<1.000000e-07 for 2 iters).
Setting wave functions to eigenvectors of Hamiltonian
Converging empty states (this may take a while): |deigs|: 1.440e-02
Vacuum energy after initial minimize, F = -9710.494012752136769


-------- Electronic minimization -----------
	Linear fluid (dielectric constant: 78.4, screening length: 8.12261 Bohr) occupying 0.472552 of unit cell:	Completed after 26 iterations at t[s]:   9736.56
	FillingsUpdate:  mu: -0.159889191  nElectrons: 922.000000  magneticMoment: [ Abs: 0.00000  Tot: +0.00000 ]
ElecMinimize: Iter:   0  F: -9710.494048743428721  |grad|_K:  1.495e-06  alpha:  1.000e+00
	Linear fluid (dielectric constant: 78.4, screening length: 8.12261 Bohr) occupying 0.474850 of unit cell:	Completed after 22 iterations at t[s]:   9861.67
	Linear fluid (dielectric constant: 78.4, screening length: 8.12261 Bohr) occupying 0.473318 of unit cell:	Completed after 21 iterations at t[s]:   9906.23
	FillingsUpdate:  mu: -0.156297577  nElectrons: 922.000000  magneticMoment: [ Abs: 0.00000  Tot: +0.00000 ]
	SubspaceRotationAdjust: set factor to 0.421
ElecMinimize: Iter:   1  F: -9710.494349790875276  |grad|_K:  1.903e-06  alpha:  3.339e-01  linmin:  1.750e-06  t[s]:   9962.31
	Linear fluid (dielectric constant: 78.4, screening length: 8.12261 Bohr) occupying 0.474773 of unit cell:	Completed after 20 iterations at t[s]:  10023.80
	Linear fluid (dielectric constant: 78.4, screening length: 8.12261 Bohr) occupying 0.474005 of unit cell:	Completed after 16 iterations at t[s]:  10066.41
	FillingsUpdate:  mu: -0.155937251  nElectrons: 922.000000  magneticMoment: [ Abs: 0.00000  Tot: +0.00000 ]
	SubspaceRotationAdjust: set factor to 0.517
ElecMinimize: Iter:   2  F: -9710.494576756516835  |grad|_K:  1.355e-06  alpha:  1.542e-01  linmin:  6.545e-08  t[s]:  10122.66
	Linear fluid (dielectric constant: 78.4, screening length: 8.12261 Bohr) occupying 0.474396 of unit cell:	Completed after 12 iterations at t[s]:  10182.42
	Linear fluid (dielectric constant: 78.4, screening length: 8.12261 Bohr) occupying 0.474420 of unit cell:	Completed after 3 iterations at t[s]:  10222.54
	FillingsUpdate:  mu: -0.156294604  nElectrons: 922.000000  magneticMoment: [ Abs: 0.00000  Tot: +0.00000 ]
	SubspaceRotationAdjust: set factor to 0.643
ElecMinimize: Iter:   3  F: -9710.494702657284506  |grad|_K:  9.935e-07  alpha:  1.637e-01  linmin: -5.071e-09  t[s]:  10278.64
	Linear fluid (dielectric constant: 78.4, screening length: 8.12261 Bohr) occupying 0.474690 of unit cell:	Completed after 12 iterations at t[s]:  10339.13
	Linear fluid (dielectric constant: 78.4, screening length: 8.12261 Bohr) occupying 0.474857 of unit cell:	Completed after 9 iterations at t[s]:  10380.70
	FillingsUpdate:  mu: -0.156425753  nElectrons: 922.000000  magneticMoment: [ Abs: 0.00000  Tot: +0.00000 ]
	SubspaceRotationAdjust: set factor to 0.761
ElecMinimize: Iter:   4  F: -9710.494813613795486  |grad|_K:  7.197e-07  alpha:  2.671e-01  linmin: -1.221e-07  t[s]:  10437.02
	Linear fluid (dielectric constant: 78.4, screening length: 8.12261 Bohr) occupying 0.475151 of unit cell:	Completed after 14 iterations at t[s]:  10496.59
	Linear fluid (dielectric constant: 78.4, screening length: 8.12261 Bohr) occupying 0.475022 of unit cell:	Completed after 11 iterations at t[s]:  10538.72
	FillingsUpdate:  mu: -0.155670184  nElectrons: 922.000000  magneticMoment: [ Abs: 0.00000  Tot: +0.00000 ]
	SubspaceRotationAdjust: set factor to 0.735
ElecMinimize: Iter:   5  F: -9710.494846037514435  |grad|_K:  5.602e-07  alpha:  1.490e-01  linmin:  1.296e-08  t[s]:  10594.91
	Linear fluid (dielectric constant: 78.4, screening length: 8.12261 Bohr) occupying 0.475124 of unit cell:	Completed after 11 iterations at t[s]:  10654.16
	Linear fluid (dielectric constant: 78.4, screening length: 8.12261 Bohr) occupying 0.475133 of unit cell:	Completed after 2 iterations at t[s]:  10694.02
	FillingsUpdate:  mu: -0.155492672  nElectrons: 922.000000  magneticMoment: [ Abs: 0.00000  Tot: +0.00000 ]
	SubspaceRotationAdjust: set factor to 0.671
ElecMinimize: Iter:   6  F: -9710.494867264387722  |grad|_K:  3.957e-07  alpha:  1.611e-01  linmin: -8.150e-09  t[s]:  10750.31
	Linear fluid (dielectric constant: 78.4, screening length: 8.12261 Bohr) occupying 0.475188 of unit cell:	Completed after 10 iterations at t[s]:  10809.47
	Linear fluid (dielectric constant: 78.4, screening length: 8.12261 Bohr) occupying 0.475198 of unit cell:	Completed after 3 iterations at t[s]:  10849.50
	FillingsUpdate:  mu: -0.155846950  nElectrons: 922.000000  magneticMoment: [ Abs: 0.00000  Tot: +0.00000 ]
	SubspaceRotationAdjust: set factor to 0.658
ElecMinimize: Iter:   7  F: -9710.494879857667911  |grad|_K:  3.220e-07  alpha:  1.915e-01  linmin:  2.563e-08  t[s]:  10905.68
	Linear fluid (dielectric constant: 78.4, screening length: 8.12261 Bohr) occupying 0.475241 of unit cell:	Completed after 6 iterations at t[s]:  10964.74
	Linear fluid (dielectric constant: 78.4, screening length: 8.12261 Bohr) occupying 0.475232 of unit cell:	Completed after 2 iterations at t[s]:  11004.79
	FillingsUpdate:  mu: -0.155941180  nElectrons: 922.000000  magneticMoment: [ Abs: 0.00000  Tot: +0.00000 ]
	SubspaceRotationAdjust: set factor to 0.748
ElecMinimize: Iter:   8  F: -9710.494886436206798  |grad|_K:  2.019e-07  alpha:  1.513e-01  linmin: -1.626e-08  t[s]:  11060.81
	Linear fluid (dielectric constant: 78.4, screening length: 8.12261 Bohr) occupying 0.475249 of unit cell:	Completed after 9 iterations at t[s]:  11119.94
	Linear fluid (dielectric constant: 78.4, screening length: 8.12261 Bohr) occupying 0.475250 of unit cell:	Completed after 1 iterations at t[s]:  11159.65
	FillingsUpdate:  mu: -0.155717528  nElectrons: 922.000000  magneticMoment: [ Abs: 0.00000  Tot: +0.00000 ]
	SubspaceRotationAdjust: set factor to 0.736
ElecMinimize: Iter:   9  F: -9710.494889167506699  |grad|_K:  1.461e-07  alpha:  1.596e-01  linmin: -6.869e-07  t[s]:  11216.03
	Linear fluid (dielectric constant: 78.4, screening length: 8.12261 Bohr) occupying 0.475255 of unit cell:	Completed after 6 iterations at t[s]:  11274.52
	Linear fluid (dielectric constant: 78.4, screening length: 8.12261 Bohr) occupying 0.475257 of unit cell:	Completed after 3 iterations at t[s]:  11314.89
	FillingsUpdate:  mu: -0.155648121  nElectrons: 922.000000  magneticMoment: [ Abs: 0.00000  Tot: +0.00000 ]
	SubspaceRotationAdjust: set factor to 0.744
ElecMinimize: Iter:  10  F: -9710.494891135964281  |grad|_K:  1.227e-07  alpha:  2.177e-01  linmin: -3.290e-06  t[s]:  11371.02
	Linear fluid (dielectric constant: 78.4, screening length: 8.12261 Bohr) occupying 0.475255 of unit cell:	Completed after 7 iterations at t[s]:  11429.64
	Linear fluid (dielectric constant: 78.4, screening length: 8.12261 Bohr) occupying 0.475256 of unit cell:	Completed after 3 iterations at t[s]:  11469.89
	FillingsUpdate:  mu: -0.155791390  nElectrons: 922.000000  magneticMoment: [ Abs: 0.00000  Tot: +0.00000 ]
	SubspaceRotationAdjust: set factor to 0.623
ElecMinimize: Iter:  11  F: -9710.494892057377001  |grad|_K:  7.576e-08  alpha:  1.443e-01  linmin:  2.135e-06  t[s]:  11526.98
	Linear fluid (dielectric constant: 78.4, screening length: 8.12261 Bohr) occupying 0.475254 of unit cell:	Completed after 3 iterations at t[s]:  11584.81
	Linear fluid (dielectric constant: 78.4, screening length: 8.12261 Bohr) occupying 0.475254 of unit cell:	Completed after 1 iterations at t[s]:  11624.50
	FillingsUpdate:  mu: -0.155755131  nElectrons: 922.000000  magneticMoment: [ Abs: 0.00000  Tot: +0.00000 ]
	SubspaceRotationAdjust: set factor to 0.66
ElecMinimize: Iter:  12  F: -9710.494892534612518  |grad|_K:  6.321e-08  alpha:  2.007e-01  linmin:  1.391e-08  t[s]:  11680.71
	Linear fluid (dielectric constant: 78.4, screening length: 8.12261 Bohr) occupying 0.475250 of unit cell:	Completed after 2 iterations at t[s]:  11738.33
	Linear fluid (dielectric constant: 78.4, screening length: 8.12261 Bohr) occupying 0.475251 of unit cell:	Completed after 1 iterations at t[s]:  11777.95
	FillingsUpdate:  mu: -0.155744689  nElectrons: 922.000000  magneticMoment: [ Abs: 0.00000  Tot: +0.00000 ]
	SubspaceRotationAdjust: set factor to 0.679
ElecMinimize: Iter:  13  F: -9710.494892799652007  |grad|_K:  4.552e-08  alpha:  1.578e-01  linmin:  2.438e-07  t[s]:  11834.10
	Linear fluid (dielectric constant: 78.4, screening length: 8.12261 Bohr) occupying 0.475248 of unit cell:	Completed after 2 iterations at t[s]:  11891.54
	Linear fluid (dielectric constant: 78.4, screening length: 8.12261 Bohr) occupying 0.475247 of unit cell:	Completed after 0 iterations at t[s]:  11930.81
	FillingsUpdate:  mu: -0.155744974  nElectrons: 922.000000  magneticMoment: [ Abs: 0.00000  Tot: +0.00000 ]
	SubspaceRotationAdjust: set factor to 0.767
ElecMinimize: Iter:  14  F: -9710.494892976546907  |grad|_K:  3.426e-08  alpha:  2.006e-01  linmin: -2.505e-06  t[s]:  11986.90
	Linear fluid (dielectric constant: 78.4, screening length: 8.12261 Bohr) occupying 0.475243 of unit cell:	Completed after 2 iterations at t[s]:  12044.49
	Linear fluid (dielectric constant: 78.4, screening length: 8.12261 Bohr) occupying 0.475243 of unit cell:	Completed after 0 iterations at t[s]:  12083.84
	FillingsUpdate:  mu: -0.155769312  nElectrons: 922.000000  magneticMoment: [ Abs: 0.00000  Tot: +0.00000 ]
	SubspaceRotationAdjust: set factor to 0.799
ElecMinimize: Iter:  15  F: -9710.494893064234930  |grad|_K:  3.073e-08  alpha:  1.672e-01  linmin:  6.308e-07  t[s]:  12139.91
	Linear fluid (dielectric constant: 78.4, screening length: 8.12261 Bohr) occupying 0.475240 of unit cell:	Completed after 2 iterations at t[s]:  12197.43
	Linear fluid (dielectric constant: 78.4, screening length: 8.12261 Bohr) occupying 0.475240 of unit cell:	Completed after 0 iterations at t[s]:  12236.95
	FillingsUpdate:  mu: -0.155775297  nElectrons: 922.000000  magneticMoment: [ Abs: 0.00000  Tot: +0.00000 ]
	SubspaceRotationAdjust: set factor to 0.794
ElecMinimize: Iter:  16  F: -9710.494893125225644  |grad|_K:  2.564e-08  alpha:  1.581e-01  linmin: -3.622e-07  t[s]:  12293.24
ElecMinimize: Converged (|Delta F|<1.000000e-07 for 2 iters).
Setting wave functions to eigenvectors of Hamiltonian
Converging empty states (this may take a while): |deigs|: 1.012e-04
Single-point solvation energy estimate, DeltaF = -0.000880373088876

Computing DFT-D3 correction:
# coordination-number Cu 5.564 6.568 5.564 6.571 6.865 6.865 6.865 6.865 9.103 9.103 9.103 9.103 9.045 9.045 9.045 9.045 9.019 9.020 9.019 9.020 7.550 7.549 7.550 7.549 7.549 7.549 7.549 7.549 9.019 9.019 9.019 9.019 9.045 9.045 9.045 9.045 9.103 9.109 9.103 9.105 6.866 7.376 6.866 6.879 5.565 5.565 5.565 5.565
# coordination-number C 3.487
# coordination-number O 1.069
# diagonal-C6 Cu 175.00 175.00 175.00 175.00 175.00 175.00 175.00 175.00 175.00 175.00 175.00 175.00 175.00 175.00 175.00 175.00 175.00 175.00 175.00 175.00 175.00 175.00 175.00 175.00 175.00 175.00 175.00 175.00 175.00 175.00 175.00 175.00 175.00 175.00 175.00 175.00 175.00 175.00 175.00 175.00 175.00 175.00 175.00 175.00 175.00 175.00 175.00 175.00
# diagonal-C6 C 21.84
# diagonal-C6 O 12.75
EvdW_6 =   -0.260219
EvdW_8 =   -0.398252

# Ionic positions in cartesian coordinates:
ion Cu   9.533169000000001   0.029049000000000  15.714320000000001 0
ion Cu   9.533169000000001  11.704867999999999  15.714320000000001 0
ion Cu   4.766546000000001   0.029049000000000  15.714320000000001 0
ion Cu   4.766546000000001  11.704867999999999  15.714320000000001 0
ion Cu   0.000000000000000   3.882763000000000   2.011863000000000 0
ion Cu   0.000000000000000  15.558558000000000   2.011863000000000 0
ion Cu   4.766623000000001   3.882763000000000   2.011863000000000 0
ion Cu   4.766623000000001  15.558558000000000   2.011863000000000 0
ion Cu   0.000048000000000   7.846205000000000   4.822845000000000 0
ion Cu   0.000048000000000  19.521999999999998   4.822845000000000 0
ion Cu   4.766661000000001   7.846205000000000   4.822845000000000 0
ion Cu   4.766661000000001  19.521999999999998   4.822845000000000 0
ion Cu   0.000019000000000   0.010648000000000   7.572401000000000 0
ion Cu   0.000019000000000  11.686444000000000   7.572401000000000 0
ion Cu   4.766642000000000   0.010648000000000   7.572401000000000 0
ion Cu   4.766642000000000  11.686444000000000   7.572401000000000 0
ion Cu   0.000048000000000   3.891052000000000  10.322502999999999 0
ion Cu   0.000048000000000  15.566848000000002  10.322502999999999 0
ion Cu   4.766661000000001   3.891052000000000  10.322502999999999 0
ion Cu   4.766661000000001  15.566848000000002  10.322502999999999 0
ion Cu   9.533188000000003   7.731151000000000  13.180692000000001 0
ion Cu   9.533188000000003  19.406946999999999  13.180692000000001 0
ion Cu   4.766565000000001   7.731151000000000  13.180692000000001 0
ion Cu   4.766565000000001  19.406946999999999  13.180692000000001 0
ion Cu   2.383292000000000   0.052658000000000   3.331310000000000 0
ion Cu   2.383292000000000  11.728453999999999   3.331310000000000 0
ion Cu   7.149905000000001   0.052658000000000   3.331310000000000 0
ion Cu   7.149905000000001  11.728453999999999   3.331310000000000 0
ion Cu   2.383321000000000   3.893061000000000   6.189945000000000 0
ion Cu   2.383321000000000  15.568833000000000   6.189945000000000 0
ion Cu   7.149943000000000   3.893061000000000   6.189945000000000 0
ion Cu   7.149943000000000  15.568833000000000   6.189945000000000 0
ion Cu   2.383359000000000   7.773301000000000   8.939650000000000 0
ion Cu   2.383359000000000  19.449120000000001   8.939650000000000 0
ion Cu   7.149981000000001   7.773301000000000   8.939650000000000 0
ion Cu   7.149981000000001  19.449120000000001   8.939650000000000 0
ion Cu   2.383292000000000  23.288868999999998  11.688513000000000 0
ion Cu   2.383292000000000  11.613097000000000  11.688513000000000 0
ion Cu   7.149905000000001  23.288868999999998  11.688513000000000 0
ion Cu   7.149905000000001  11.613097000000000  11.688513000000000 0
ion Cu   2.383302000000000   3.900837000000000  14.500237000000000 0
ion Cu   2.383302000000000  15.576631999999998  14.500237000000000 0
ion Cu   7.149924000000001   3.900837000000000  14.500237000000000 0
ion Cu   7.149924000000001  15.576631999999998  14.500237000000000 0
ion Cu   2.383321000000000   7.755134000000001   0.798177000000000 0
ion Cu   2.383321000000000  19.430952999999999   0.798177000000000 0
ion Cu   7.149943000000000   7.755134000000001   0.798177000000000 0
ion Cu   7.149943000000000  19.430952999999999   0.798177000000000 0
ion C   2.383254000000000  12.995464000000000  18.098348999999999 1  Linear 0 0 1
ion O   2.443352000000000  12.995464000000000  20.253719000000000 1  Linear 0 0 1

# Forces in Cartesian coordinates:
force Cu  -0.000134408381701  -0.000220162786498  -0.000327831569809 0
force Cu  -0.010004544474161  -0.004692553528427  -0.005403837295503 0
force Cu   0.000132240096119  -0.000221949978822  -0.000327393951402 0
force Cu   0.010717196616821  -0.005218311700970  -0.006559862121294 0
force Cu  -0.000080066325514   0.000523428237318   0.000613953265867 0
force Cu  -0.000126519777951   0.000841153651187   0.000586957442219 0
force Cu   0.000086889147647   0.000539014709042   0.000604412744106 0
force Cu   0.000113080822495   0.000861807753093   0.000600496505539 0
force Cu   0.000089045835522   0.000048414198450  -0.000535469149380 0
force Cu   0.000091379670374  -0.000072269533317  -0.000460988795937 0
force Cu  -0.000084684840882   0.000033658160736  -0.000564567827960 0
force Cu  -0.000077983819259  -0.000065305152705  -0.000481478951992 0
force Cu   0.000135753948762   0.000150264100441  -0.000374270432895 0
force Cu  -0.000709954572846   0.000314087170478  -0.000910972628143 0
force Cu  -0.000117767249713   0.000157101533847  -0.000385448508061 0
force Cu   0.000707036657512   0.000312193036539  -0.000898755158169 0
force Cu  -0.000124360612388   0.000454042946812   0.000501165710070 0
force Cu   0.001398989642674  -0.000957045703882   0.001704213886110 0
force Cu   0.000101247851142   0.000450264130679   0.000497407109253 0
force Cu  -0.001421394008790  -0.000922843708318   0.001734418253294 0
force Cu   0.000245820739461   0.000923893442865  -0.000173556768278 0
force Cu   0.000272234748200  -0.000314178354847  -0.000247239517551 0
force Cu  -0.000263511576979   0.000887846683157  -0.000178130268910 0
force Cu  -0.000280622225791  -0.000307524192724  -0.000248630832850 0
force Cu  -0.000023709589841   0.000197547823016   0.000546760418733 0
force Cu  -0.000000199688644   0.000056081302514   0.000127132314190 0
force Cu  -0.000006634254784  -0.000093423611361   0.000326035885242 0
force Cu  -0.000000082941237  -0.000385410267715  -0.000666636536800 0
force Cu  -0.000005096521756  -0.000501698638559  -0.000459812528223 0
force Cu   0.000003732696707   0.000026473157792  -0.000448625502915 0
force Cu   0.000002732154716  -0.000314192407904  -0.000299488793573 0
force Cu  -0.000004918115415  -0.000273461198616   0.001239619362610 0
force Cu   0.000034085505712  -0.000325221111985   0.000297129361576 0
force Cu   0.000009779653773   0.000016359195785  -0.000022080634222 0
force Cu  -0.000014204270257  -0.000178308128686  -0.000223086904307 0
force Cu  -0.000011612719108  -0.000536453841219   0.000412890784864 0
force Cu  -0.000006743576834   0.000109910182156   0.000511310157654 0
force Cu  -0.000016777361648  -0.002265196642279  -0.010270453348973 0
force Cu  -0.000003039288347  -0.000301862393052   0.000599910089441 0
force Cu   0.000032451961248  -0.000104958987973   0.001191439382959 0
force Cu   0.000002617561978  -0.000182670667696  -0.000529801063916 0
force Cu   0.000024109718367   0.006106573935933   0.002223955362589 0
force Cu  -0.000003143783812  -0.000443342615224  -0.000601956998918 0
force Cu  -0.000072263964639   0.001984342026253  -0.003758520982005 0
force Cu   0.000008618651209   0.000302969254596   0.000168884346894 0
force Cu  -0.000000256799762  -0.000421623006485   0.000175613272393 0
force Cu  -0.000012203902666   0.000435460806065  -0.000168217745707 0
force Cu  -0.000014975077949  -0.000519173883559  -0.000749996526982 0
force C  -0.002271282511275  -0.005334806438319  -0.066412729513824 1  Linear 0 0 1
force O   0.001430106964898   0.009117586340764   0.087313894102082 1  Linear 0 0 1

# Energy components:
   A_diel =       -0.0023015409625766
   Eewald =    37528.4181319006384001
       EH =    46414.6209392199816648
     Eloc =   -95480.7224490732478444
      Enl =     1761.0176956796615286
     EvdW =       -0.6584714707702707
      Exc =     -936.7372967207679721
 Exc_core =        2.3531986501659579
       KE =     1001.2176314309002692
-------------------------------------
     Etot =    -9710.4929219243986154
       TS =        0.0019712008270525
-------------------------------------
        F =    -9710.4948931252256443


Dumping 'jdft.fillings' ... done
Dumping 'jdft.wfns' ... done
Dumping 'jdft.fluidState' ... done
Dumping 'jdft.ionpos' ... done
Dumping 'jdft.lattice' ... done
Dumping 'jdft.eigenvals' ... done
Dumping 'jdft.eigStats' ... 
	eMin: -4.310011 at state 8 ( [ +0.000000 +0.000000 +0.000000 ] spin -1 )
	HOMO: -0.155831 at state 8 ( [ +0.000000 +0.000000 +0.000000 ] spin -1 )
	mu  : -0.155775
	LUMO: -0.155728 at state 12 ( [ +0.333333 +0.000000 +0.000000 ] spin -1 )
	eMax: +0.181129 at state 6 ( [ +0.500000 +0.000000 +0.000000 ] spin 1 )
	HOMO-LUMO gap: +0.000102
	Optical gap  : +0.000722 at state 14 ( [ +0.500000 +0.000000 +0.000000 ] spin -1 )
Dumping 'jdft.Ecomponents' ... done
IonicMinimize: Iter:   0  F: -9710.494893125225644  |grad|_K:  7.757e-02  t[s]:  13072.43

#--- Lowdin population analysis ---
# oxidation-state Cu +0.193 +0.063 +0.193 +0.067 +0.095 +0.089 +0.095 +0.089 +0.039 +0.039 +0.039 +0.039 +0.071 +0.071 +0.071 +0.071 +0.067 +0.066 +0.067 +0.067 +0.068 +0.067 +0.068 +0.067 +0.066 +0.067 +0.068 +0.068 +0.067 +0.067 +0.067 +0.068 +0.073 +0.073 +0.070 +0.070 +0.039 +0.044 +0.039 +0.043 +0.097 +0.086 +0.094 +0.104 +0.189 +0.188 +0.189 +0.186
# magnetic-moments Cu +0.000 +0.000 -0.000 +0.000 +0.000 +0.000 -0.000 +0.000 -0.000 +0.000 +0.000 +0.000 +0.000 +0.000 +0.000 +0.000 +0.000 +0.000 +0.000 +0.000 -0.000 -0.000 +0.000 +0.000 +0.000 +0.000 +0.000 +0.000 +0.000 +0.000 +0.000 +0.000 +0.000 +0.000 +0.000 +0.000 +0.000 +0.000 +0.000 +0.000 +0.000 +0.000 +0.000 +0.000 +0.000 +0.000 +0.000 +0.000
# oxidation-state C +0.360
# magnetic-moments C +0.000
# oxidation-state O -0.126
# magnetic-moments O +0.000


Computing DFT-D3 correction:
# coordination-number Cu 5.564 6.569 5.564 6.572 6.865 6.865 6.865 6.865 9.103 9.103 9.103 9.103 9.045 9.045 9.045 9.045 9.019 9.020 9.019 9.020 7.550 7.549 7.550 7.550 7.549 7.549 7.549 7.549 9.019 9.019 9.019 9.019 9.045 9.045 9.045 9.045 9.103 9.110 9.103 9.105 6.866 7.424 6.866 6.879 5.565 5.565 5.565 5.565
# coordination-number C 3.548
# coordination-number O 1.058
# diagonal-C6 Cu 175.00 175.00 175.00 175.00 175.00 175.00 175.00 175.00 175.00 175.00 175.00 175.00 175.00 175.00 175.00 175.00 175.00 175.00 175.00 175.00 175.00 175.00 175.00 175.00 175.00 175.00 175.00 175.00 175.00 175.00 175.00 175.00 175.00 175.00 175.00 175.00 175.00 175.00 175.00 175.00 175.00 175.00 175.00 175.00 175.00 175.00 175.00 175.00
# diagonal-C6 C 20.95
# diagonal-C6 O 12.76
EvdW_6 =   -0.260119
EvdW_8 =   -0.398216

-------- Electronic minimization -----------
	Linear fluid (dielectric constant: 78.4, screening length: 8.12261 Bohr) occupying 0.475161 of unit cell:	Completed after 21 iterations at t[s]:  13133.57
	FillingsUpdate:  mu: -0.155293812  nElectrons: 922.000000  magneticMoment: [ Abs: 0.00000  Tot: +0.00000 ]
ElecMinimize: Iter:   0  F: -9710.406905697811453  |grad|_K:  1.930e-05  alpha:  1.000e+00
	Linear fluid (dielectric constant: 78.4, screening length: 8.12261 Bohr) occupying 0.474185 of unit cell:	Completed after 21 iterations at t[s]:  13259.32
	Linear fluid (dielectric constant: 78.4, screening length: 8.12261 Bohr) occupying 0.474668 of unit cell:	Completed after 19 iterations at t[s]:  13302.82
	FillingsUpdate:  mu: -0.153661645  nElectrons: 922.000000  magneticMoment: [ Abs: 0.00000  Tot: +0.00000 ]
	SubspaceRotationAdjust: set factor to 0.719
ElecMinimize: Iter:   1  F: -9710.485273443429833  |grad|_K:  8.788e-06  alpha:  5.035e-01  linmin:  9.814e-05  t[s]:  13358.75
	Linear fluid (dielectric constant: 78.4, screening length: 8.12261 Bohr) occupying 0.475613 of unit cell:	Completed after 25 iterations at t[s]:  13421.35
	Linear fluid (dielectric constant: 78.4, screening length: 8.12261 Bohr) occupying 0.474654 of unit cell:	Completed after 24 iterations at t[s]:  13465.83
	FillingsUpdate:  mu: -0.164394523  nElectrons: 922.000000  magneticMoment: [ Abs: 0.00000  Tot: +0.00000 ]
	SubspaceRotationAdjust: set factor to 0.659
ElecMinimize: Iter:   2  F: -9710.491259830594572  |grad|_K:  5.518e-06  alpha:  1.760e-01  linmin: -5.649e-04  t[s]:  13521.95
	Linear fluid (dielectric constant: 78.4, screening length: 8.12261 Bohr) occupying 0.474918 of unit cell:	Completed after 20 iterations at t[s]:  13583.02
	Linear fluid (dielectric constant: 78.4, screening length: 8.12261 Bohr) occupying 0.474885 of unit cell:	Completed after 13 iterations at t[s]:  13625.86
[...]
force Cu   0.000041018833442   0.000444983546497   0.000484027879661 0
force Cu  -0.001439811652338  -0.000943530477411   0.001657465648047 0
force Cu   0.000327482461103   0.001036087849061  -0.000165450100812 0
force Cu   0.000257692453011  -0.000220228444882  -0.000309188404217 0
force Cu  -0.000341441921696   0.001003985084393  -0.000171376500101 0
force Cu  -0.000264329654856  -0.000205327413840  -0.000314056568251 0
force Cu  -0.000020932557688   0.000182959726353   0.000605828064831 0
force Cu   0.000001137837788   0.000002391013034   0.000059369307035 0
force Cu  -0.000001016291093  -0.000119443569609   0.000405828544453 0
force Cu  -0.000002405175369  -0.000448339477373  -0.000630336716958 0
force Cu  -0.000003348060992  -0.000481497908867  -0.000397927347733 0
force Cu  -0.000000441016513  -0.000039694787449  -0.000224493703952 0
force Cu   0.000005688468583  -0.000281166363067  -0.000199458112232 0
force Cu  -0.000001842566377  -0.000234746686438   0.001247312152789 0
force Cu   0.000031097921244  -0.000329768549183   0.000181056613220 0
force Cu   0.000007130496911   0.000037651992988  -0.000050821281999 0
force Cu  -0.000017202328268  -0.000140474507867  -0.000157212903269 0
force Cu  -0.000009299486606  -0.000531952515118   0.000477422170127 0
force Cu  -0.000005754554332   0.000042138533185   0.000524201677644 0
force Cu  -0.000032548103581  -0.001994815454949  -0.009383436579113 0
force Cu  -0.000002195686566  -0.000274438593724   0.000542665975193 0
force Cu   0.000052761867740  -0.000139120762125   0.001524267271283 0
force Cu  -0.000001896622120  -0.000187917420097  -0.000649540423279 0
force Cu   0.000041940975634   0.005325364649232   0.003411076344674 0
force Cu   0.000000510475832  -0.000461751566557  -0.000732903774531 0
force Cu  -0.000067349716872   0.001752684222571  -0.003541804135132 0
force Cu   0.000007554932865   0.000342706940253   0.000297236084460 0
force Cu  -0.000000086634316  -0.000422914501895   0.000243073273011 0
force Cu  -0.000010788947699   0.000499786878895  -0.000089353857074 0
force Cu  -0.000011052701238  -0.000511007966627  -0.000603842258127 0
force C   0.000135061597904  -0.010816322501996   0.000578167025823 1  Linear 0 0 1
force O  -0.000836296749906   0.007493637912404  -0.000334379984028 1  Linear 0 0 1

# Energy components:
   A_diel =       -0.0031656085286758
   Eewald =    37496.4634470302189584
       EH =    46381.5690646333678160
     Eloc =   -95415.6068999768031063
      Enl =     1760.9943533082307567
     EvdW =       -0.6585849603054722
      Exc =     -936.6829555102885934
 Exc_core =        2.3531962784359299
       KE =     1001.0737698105590425
-------------------------------------
     Etot =    -9710.4977749951103760
       TS =        0.0019750467560541
-------------------------------------
        F =    -9710.4997500418667187


Dumping 'jdft.fillings' ... done
Dumping 'jdft.wfns' ... done
Dumping 'jdft.fluidState' ... done
Dumping 'jdft.ionpos' ... done
Dumping 'jdft.lattice' ... done
Dumping 'jdft.eigenvals' ... done
Dumping 'jdft.eigStats' ... 
	eMin: -4.307348 at state 0 ( [ +0.000000 +0.000000 +0.000000 ] spin 1 )
	HOMO: -0.157122 at state 6 ( [ +0.500000 +0.000000 +0.000000 ] spin 1 )
	mu  : -0.156750
	LUMO: -0.156743 at state 4 ( [ +0.333333 +0.000000 +0.000000 ] spin 1 )
	eMax: +0.180192 at state 14 ( [ +0.500000 +0.000000 +0.000000 ] spin -1 )
	HOMO-LUMO gap: +0.000379
	Optical gap  : +0.000779 at state 6 ( [ +0.500000 +0.000000 +0.000000 ] spin 1 )
Dumping 'jdft.Ecomponents' ... done
IonicMinimize: Iter:   9  F: -9710.499750041866719  |grad|_K:  4.723e-04  alpha:  1.000e+00  linmin:  1.270e-02  t[s]:  39055.33

#--- Lowdin population analysis ---
# oxidation-state Cu +0.195 +0.066 +0.195 +0.070 +0.096 +0.090 +0.096 +0.090 +0.039 +0.039 +0.039 +0.039 +0.071 +0.071 +0.071 +0.071 +0.067 +0.067 +0.067 +0.067 +0.069 +0.067 +0.069 +0.067 +0.066 +0.067 +0.068 +0.067 +0.067 +0.067 +0.068 +0.069 +0.073 +0.073 +0.070 +0.070 +0.039 +0.043 +0.039 +0.044 +0.098 +0.092 +0.095 +0.105 +0.191 +0.191 +0.191 +0.190
# magnetic-moments Cu -0.000 +0.000 +0.000 -0.000 -0.000 -0.000 -0.000 +0.000 +0.000 -0.000 -0.000 +0.000 +0.000 +0.000 +0.000 -0.000 -0.000 +0.000 -0.000 -0.000 +0.000 +0.000 -0.000 +0.000 +0.000 -0.000 -0.000 +0.000 +0.000 +0.000 -0.000 +0.000 -0.000 -0.000 +0.000 +0.000 +0.000 -0.000 -0.000 +0.000 -0.000 -0.000 +0.000 -0.000 -0.000 +0.000 +0.000 -0.000
# oxidation-state C +0.342
# magnetic-moments C +0.000
# oxidation-state O -0.155
# magnetic-moments O -0.000


Computing DFT-D3 correction:
# coordination-number Cu 5.564 6.536 5.564 6.538 6.865 6.865 6.865 6.865 9.103 9.103 9.103 9.103 9.045 9.045 9.045 9.045 9.019 9.019 9.019 9.019 7.550 7.549 7.550 7.549 7.549 7.549 7.549 7.549 9.019 9.019 9.019 9.019 9.045 9.045 9.045 9.045 9.103 9.107 9.103 9.104 6.866 7.248 6.866 6.877 5.565 5.565 5.565 5.565
# coordination-number C 3.313
# coordination-number O 1.044
# diagonal-C6 Cu 175.00 175.00 175.00 175.00 175.00 175.00 175.00 175.00 175.00 175.00 175.00 175.00 175.00 175.00 175.00 175.00 175.00 175.00 175.00 175.00 175.00 175.00 175.00 175.00 175.00 175.00 175.00 175.00 175.00 175.00 175.00 175.00 175.00 175.00 175.00 175.00 175.00 175.00 175.00 175.00 175.00 175.00 175.00 175.00 175.00 175.00 175.00 175.00
# diagonal-C6 C 24.15
# diagonal-C6 O 12.78
EvdW_6 =   -0.260293
EvdW_8 =   -0.398293

-------- Electronic minimization -----------
	Linear fluid (dielectric constant: 78.4, screening length: 8.12261 Bohr) occupying 0.473679 of unit cell:	Completed after 4 iterations at t[s]:  39122.13
	FillingsUpdate:  mu: -0.156830036  nElectrons: 922.000000  magneticMoment: [ Abs: 0.00000  Tot: +0.00000 ]
ElecMinimize: Iter:   0  F: -9710.499749216340206  |grad|_K:  1.074e-07  alpha:  1.000e+00
	Linear fluid (dielectric constant: 78.4, screening length: 8.12261 Bohr) occupying 0.473702 of unit cell:	Completed after 13 iterations at t[s]:  39246.51
	Linear fluid (dielectric constant: 78.4, screening length: 8.12261 Bohr) occupying 0.473681 of unit cell:	Completed after 13 iterations at t[s]:  39288.78
	FillingsUpdate:  mu: -0.156726176  nElectrons: 922.000000  magneticMoment: [ Abs: 0.00000  Tot: +0.00000 ]
	SubspaceRotationAdjust: set factor to 0.993
ElecMinimize: Iter:   1  F: -9710.499749580696516  |grad|_K:  6.657e-08  alpha:  7.206e-02  linmin: -1.445e-04  t[s]:  39344.99
	Linear fluid (dielectric constant: 78.4, screening length: 8.12261 Bohr) occupying 0.473680 of unit cell:	Completed after 2 iterations at t[s]:  39402.87
	Linear fluid (dielectric constant: 78.4, screening length: 8.12261 Bohr) occupying 0.473679 of unit cell:	Completed after 4 iterations at t[s]:  39443.88
	FillingsUpdate:  mu: -0.156692072  nElectrons: 922.000000  magneticMoment: [ Abs: 0.00000  Tot: +0.00000 ]
	SubspaceRotationAdjust: set factor to 0.92
ElecMinimize: Iter:   2  F: -9710.499749902355688  |grad|_K:  6.196e-08  alpha:  1.697e-01  linmin: -1.405e-05  t[s]:  39499.99
	Linear fluid (dielectric constant: 78.4, screening length: 8.12261 Bohr) occupying 0.473677 of unit cell:	Completed after 3 iterations at t[s]:  39558.17
	Linear fluid (dielectric constant: 78.4, screening length: 8.12261 Bohr) occupying 0.473678 of unit cell:	Completed after 1 iterations at t[s]:  39598.26
	FillingsUpdate:  mu: -0.156729463  nElectrons: 922.000000  magneticMoment: [ Abs: 0.00000  Tot: +0.00000 ]
	SubspaceRotationAdjust: set factor to 1.01
ElecMinimize: Iter:   3  F: -9710.499750108901935  |grad|_K:  3.893e-08  alpha:  1.291e-01  linmin:  1.245e-04  t[s]:  39654.46
	Linear fluid (dielectric constant: 78.4, screening length: 8.12261 Bohr) occupying 0.473677 of unit cell:	Completed after 2 iterations at t[s]:  39713.30
	Linear fluid (dielectric constant: 78.4, screening length: 8.12261 Bohr) occupying 0.473677 of unit cell:	Completed after 0 iterations at t[s]:  39753.42
	FillingsUpdate:  mu: -0.156738879  nElectrons: 922.000000  magneticMoment: [ Abs: 0.00000  Tot: +0.00000 ]
	SubspaceRotationAdjust: set factor to 1.33
ElecMinimize: Iter:   4  F: -9710.499750190205305  |grad|_K:  2.794e-08  alpha:  1.302e-01  linmin: -1.078e-04  t[s]:  39809.69
	Linear fluid (dielectric constant: 78.4, screening length: 8.12261 Bohr) occupying 0.473676 of unit cell:	Completed after 2 iterations at t[s]:  39867.63
	Linear fluid (dielectric constant: 78.4, screening length: 8.12261 Bohr) occupying 0.473676 of unit cell:	Completed after 0 iterations at t[s]:  39907.41
	FillingsUpdate:  mu: -0.156745261  nElectrons: 922.000000  magneticMoment: [ Abs: 0.00000  Tot: +0.00000 ]
	SubspaceRotationAdjust: set factor to 1.39
ElecMinimize: Iter:   5  F: -9710.499750245196992  |grad|_K:  1.585e-08  alpha:  1.575e-01  linmin: -1.001e-03  t[s]:  39963.55
ElecMinimize: Converged (|Delta F|<1.000000e-07 for 2 iters).
Setting wave functions to eigenvectors of Hamiltonian
Converging empty states (this may take a while): |deigs|: 7.192e-10

Computing DFT-D3 correction:
# coordination-number Cu 5.564 6.536 5.564 6.538 6.865 6.865 6.865 6.865 9.103 9.103 9.103 9.103 9.045 9.045 9.045 9.045 9.019 9.019 9.019 9.019 7.550 7.549 7.550 7.549 7.549 7.549 7.549 7.549 9.019 9.019 9.019 9.019 9.045 9.045 9.045 9.045 9.103 9.107 9.103 9.104 6.866 7.248 6.866 6.877 5.565 5.565 5.565 5.565
# coordination-number C 3.313
# coordination-number O 1.044
# diagonal-C6 Cu 175.00 175.00 175.00 175.00 175.00 175.00 175.00 175.00 175.00 175.00 175.00 175.00 175.00 175.00 175.00 175.00 175.00 175.00 175.00 175.00 175.00 175.00 175.00 175.00 175.00 175.00 175.00 175.00 175.00 175.00 175.00 175.00 175.00 175.00 175.00 175.00 175.00 175.00 175.00 175.00 175.00 175.00 175.00 175.00 175.00 175.00 175.00 175.00
# diagonal-C6 C 24.15
# diagonal-C6 O 12.78
EvdW_6 =   -0.260293
EvdW_8 =   -0.398293

# Ionic positions in cartesian coordinates:
ion Cu   9.533169000000001   0.029049000000000  15.714320000000001 0
ion Cu   9.533169000000001  11.704867999999999  15.714320000000001 0
ion Cu   4.766546000000001   0.029049000000000  15.714320000000001 0
ion Cu   4.766546000000001  11.704867999999999  15.714320000000001 0
ion Cu   0.000000000000000   3.882763000000000   2.011863000000000 0
ion Cu   0.000000000000000  15.558558000000000   2.011863000000000 0
ion Cu   4.766623000000001   3.882763000000000   2.011863000000000 0
ion Cu   4.766623000000001  15.558558000000000   2.011863000000000 0
ion Cu   0.000048000000000   7.846205000000000   4.822845000000000 0
ion Cu   0.000048000000000  19.521999999999998   4.822845000000000 0
ion Cu   4.766661000000001   7.846205000000000   4.822845000000000 0
ion Cu   4.766661000000001  19.521999999999998   4.822845000000000 0
ion Cu   0.000019000000000   0.010648000000000   7.572401000000000 0
ion Cu   0.000019000000000  11.686444000000000   7.572401000000000 0
ion Cu   4.766642000000000   0.010648000000000   7.572401000000000 0
ion Cu   4.766642000000000  11.686444000000000   7.572401000000000 0
ion Cu   0.000048000000000   3.891052000000000  10.322502999999999 0
ion Cu   0.000048000000000  15.566848000000002  10.322502999999999 0
ion Cu   4.766661000000001   3.891052000000000  10.322502999999999 0
ion Cu   4.766661000000001  15.566848000000002  10.322502999999999 0
ion Cu   9.533188000000003   7.731151000000000  13.180692000000001 0
ion Cu   9.533188000000003  19.406946999999999  13.180692000000001 0
ion Cu   4.766565000000001   7.731151000000000  13.180692000000001 0
ion Cu   4.766565000000001  19.406946999999999  13.180692000000001 0
ion Cu   2.383292000000000   0.052658000000000   3.331310000000000 0
ion Cu   2.383292000000000  11.728453999999999   3.331310000000000 0
ion Cu   7.149905000000001   0.052658000000000   3.331310000000000 0
ion Cu   7.149905000000001  11.728453999999999   3.331310000000000 0
ion Cu   2.383321000000000   3.893061000000000   6.189945000000000 0
ion Cu   2.383321000000000  15.568833000000000   6.189945000000000 0
ion Cu   7.149943000000000   3.893061000000000   6.189945000000000 0
ion Cu   7.149943000000000  15.568833000000000   6.189945000000000 0
ion Cu   2.383359000000000   7.773301000000000   8.939650000000000 0
ion Cu   2.383359000000000  19.449120000000001   8.939650000000000 0
ion Cu   7.149981000000001   7.773301000000000   8.939650000000000 0
ion Cu   7.149981000000001  19.449120000000001   8.939650000000000 0
ion Cu   2.383292000000000  23.288868999999998  11.688513000000000 0
ion Cu   2.383292000000000  11.613097000000000  11.688513000000000 0
ion Cu   7.149905000000001  23.288868999999998  11.688513000000000 0
ion Cu   7.149905000000001  11.613097000000000  11.688513000000000 0
ion Cu   2.383302000000000   3.900837000000000  14.500237000000000 0
ion Cu   2.383302000000000  15.576631999999998  14.500237000000000 0
ion Cu   7.149924000000001   3.900837000000000  14.500237000000000 0
ion Cu   7.149924000000001  15.576631999999998  14.500237000000000 0
ion Cu   2.383321000000000   7.755134000000001   0.798177000000000 0
ion Cu   2.383321000000000  19.430952999999999   0.798177000000000 0
ion Cu   7.149943000000000   7.755134000000001   0.798177000000000 0
ion Cu   7.149943000000000  19.430952999999999   0.798177000000000 0
ion C   2.383254000000000  12.995464000000000  18.278056765023454 1  Linear 0 0 1
ion O   2.443352000000000  12.995464000000000  20.507721038371745 1  Linear 0 0 1

# Forces in Cartesian coordinates:
force Cu  -0.000076848469983  -0.000269993179452  -0.000345040492115 0
force Cu  -0.002955700034913  -0.000947895113111   0.003518798284428 0
force Cu   0.000075123499989  -0.000270266211076  -0.000343923341915 0
force Cu   0.003527727892898  -0.001356375279053   0.002520244374018 0
force Cu   0.000009834976187   0.000520473668395   0.000625047545040 0
force Cu  -0.000096335159814   0.000811048281456   0.000611414734788 0
force Cu  -0.000005995517610   0.000536052950247   0.000618527540312 0
force Cu   0.000083585662827   0.000833130905293   0.000631638933970 0
force Cu   0.000034973665396   0.000035462026141  -0.000568525973286 0
force Cu   0.000076088557781  -0.000054915878839  -0.000498138315643 0
force Cu  -0.000032969836599   0.000020375562305  -0.000602382848418 0
force Cu  -0.000068194285175  -0.000051905625501  -0.000513358408938 0
force Cu   0.000184736755124   0.000200355798403  -0.000334238747573 0
force Cu  -0.000585436838933   0.000317100997558  -0.000962976743990 0
force Cu  -0.000174544499524   0.000207093439167  -0.000349007788252 0
force Cu   0.000582944859640   0.000320131444698  -0.000928062611999 0
force Cu  -0.000060324425319   0.000424900746756   0.000470596581868 0
force Cu   0.001416655653122  -0.000959995586213   0.001668251560586 0
force Cu   0.000040641211482   0.000416099304706   0.000467120764732 0
force Cu  -0.001438373657267  -0.000923380391363   0.001672293936435 0
force Cu   0.000332047598867   0.000997238140473  -0.000113911717064 0
force Cu   0.000254794322134  -0.000188852598753  -0.000236216634980 0
force Cu  -0.000346218359756   0.000965327644284  -0.000119978111901 0
force Cu  -0.000261340899447  -0.000174122787987  -0.000241172888266 0
force Cu  -0.000020782103076   0.000191872173650   0.000592978337277 0
force Cu   0.000001067455751   0.000004123528662  -0.000012333915177 0
force Cu  -0.000000915071359  -0.000110866337736   0.000395565325244 0
force Cu  -0.000002349210871  -0.000447959407989  -0.000700877474628 0
force Cu  -0.000003358959605  -0.000507218340845  -0.000390012964706 0
force Cu  -0.000000464138662  -0.000026569356586  -0.000280097732689 0
force Cu   0.000005879012727  -0.000306405130124  -0.000190956795913 0
force Cu  -0.000001844047981  -0.000220791846215   0.001188940108884 0
force Cu   0.000031003935856  -0.000382083592419   0.000165056300832 0
force Cu   0.000007033673093   0.000093917987876  -0.000060337499562 0
force Cu  -0.000017066615709  -0.000199038594810  -0.000177763605619 0
force Cu  -0.000009321309161  -0.000478488598708   0.000467268159099 0
force Cu  -0.000005810314292   0.000071175816947   0.000532644908197 0
force Cu  -0.000032199768863  -0.001998506467450  -0.009305988177737 0
force Cu  -0.000002203083265  -0.000240364753928   0.000551937368395 0
force Cu   0.000052701221621  -0.000157101214573   0.001558436361676 0
force Cu  -0.000001985780181  -0.000207342696358  -0.000583816905877 0
force Cu   0.000042303166055   0.005313021890595   0.003503619561776 0
force Cu   0.000000674238596  -0.000480622245616  -0.000669876369834 0
force Cu  -0.000067055862011   0.001763828117019  -0.003419893333951 0
force Cu   0.000007569419800   0.000350873035876   0.000221234051303 0
force Cu  -0.000000123111337  -0.000425420155174   0.000176586515450 0
force Cu  -0.000010766375103   0.000511849850122  -0.000164012518237 0
force Cu  -0.000010905841128  -0.000511313398059  -0.000670173089061 0
force C   0.000115268519287  -0.010845279867636   0.000199343815287 1  Linear 0 0 1
force O  -0.000840405877125   0.007485205266144  -0.000231257371785 1  Linear 0 0 1

# Energy components:
   A_diel =       -0.0031535146601530
   Eewald =    37496.2880591174180154
       EH =    46381.3889856634195894
     Eloc =   -95415.2522367062338162
      Enl =     1760.9955700516152319
     EvdW =       -0.6585854707770170
      Exc =     -936.6831065388407751
 Exc_core =        2.3531960573129291
       KE =     1001.0734961185335123
-------------------------------------
     Etot =    -9710.4977752222239360
       TS =        0.0019750229728014
-------------------------------------
        F =    -9710.4997502451969922


Dumping 'jdft.fillings' ... done
Dumping 'jdft.wfns' ... done
Dumping 'jdft.fluidState' ... done
Dumping 'jdft.ionpos' ... done
Dumping 'jdft.lattice' ... done
Dumping 'jdft.eigenvals' ... done
Dumping 'jdft.eigStats' ... 
	eMin: -4.307297 at state 0 ( [ +0.000000 +0.000000 +0.000000 ] spin 1 )
	HOMO: -0.157117 at state 14 ( [ +0.500000 +0.000000 +0.000000 ] spin -1 )
	mu  : -0.156745
	LUMO: -0.156743 at state 4 ( [ +0.333333 +0.000000 +0.000000 ] spin 1 )
	eMax: +0.180194 at state 14 ( [ +0.500000 +0.000000 +0.000000 ] spin -1 )
	HOMO-LUMO gap: +0.000373
	Optical gap  : +0.000780 at state 14 ( [ +0.500000 +0.000000 +0.000000 ] spin -1 )
Dumping 'jdft.Ecomponents' ... done
IonicMinimize: Iter:  10  F: -9710.499750245196992  |grad|_K:  2.159e-04  alpha:  1.000e+00  linmin: -2.442e-03  t[s]:  40130.51
IonicMinimize: Converged (|Delta F|<1.000000e-06 for 2 iters).

#--- Lowdin population analysis ---
# oxidation-state Cu +0.195 +0.066 +0.195 +0.070 +0.096 +0.090 +0.096 +0.090 +0.039 +0.039 +0.039 +0.039 +0.071 +0.071 +0.071 +0.071 +0.067 +0.067 +0.067 +0.067 +0.069 +0.067 +0.069 +0.067 +0.066 +0.067 +0.069 +0.067 +0.067 +0.067 +0.068 +0.068 +0.073 +0.073 +0.069 +0.070 +0.039 +0.043 +0.039 +0.044 +0.098 +0.092 +0.095 +0.105 +0.192 +0.191 +0.191 +0.190
# magnetic-moments Cu +0.000 -0.000 +0.000 -0.000 -0.000 +0.000 -0.000 +0.000 +0.000 +0.000 +0.000 -0.000 -0.000 -0.000 +0.000 +0.000 -0.000 -0.000 -0.000 -0.000 +0.000 +0.000 -0.000 +0.000 -0.000 -0.000 +0.000 -0.000 +0.000 +0.000 +0.000 -0.000 -0.000 -0.000 +0.000 -0.000 -0.000 +0.000 +0.000 -0.000 -0.000 -0.000 +0.000 +0.000 +0.000 +0.000 -0.000 -0.000
# oxidation-state C +0.342
# magnetic-moments C +0.000
# oxidation-state O -0.155
# magnetic-moments O -0.000


Dumping 'jdft.n_up' ... done
Dumping 'jdft.n_dn' ... done
Dumping 'jdft.tau_up' ... done
Dumping 'jdft.tau_dn' ... done
Dumping 'jdft.eigenvals' ... done
Dumping 'jdft.eigStats' ... 
	eMin: -4.307297 at state 0 ( [ +0.000000 +0.000000 +0.000000 ] spin 1 )
	HOMO: -0.157117 at state 14 ( [ +0.500000 +0.000000 +0.000000 ] spin -1 )
	mu  : -0.156745
	LUMO: -0.156743 at state 4 ( [ +0.333333 +0.000000 +0.000000 ] spin 1 )
	eMax: +0.180194 at state 14 ( [ +0.500000 +0.000000 +0.000000 ] spin -1 )
	HOMO-LUMO gap: +0.000373
	Optical gap  : +0.000780 at state 14 ( [ +0.500000 +0.000000 +0.000000 ] spin -1 )
Dumping 'jdft.kPts' ... done
Dumping 'jdft.kMap' ... done
Dumping 'jdft.dosUp' ... done.
Dumping 'jdft.dosDn' ... done.
End date and time: Thu Feb 17 00:46:46 2022  (Duration: 0-11:10:18.67)
Done!
