
*************** JDFTx 1.7.0 (git hash 5f12716a) ***************

Start date and time: Sat Sep 10 11:30:09 2022
Executable /home/nisi6161/jdftx_alpine/build/jdftx with command-line: -i in
Running on hosts (process indices):  c3cpu-a2-u9-2.rc.int.colorado.edu (0-23)
Divided in process groups (process indices):  0 (0)  1 (1)  2 (2)  3 (3)  4 (4)  5 (5)  6 (6)  7 (7)  8 (8)  9 (9)  10 (10)  11 (11)  12 (12)  13 (13)  14 (14)  15 (15)  16 (16)  17 (17)  18 (18)  19 (19)  20 (20)  21 (21)  22 (22)  23 (23)
Resource initialization completed at t[s]:      0.00
Run totals: 24 processes, 64 threads, 0 GPUs


Input parsed successfully to the following command list (including defaults):

basis kpoint-dependent
converge-empty-states yes
coords-type Cartesian
core-overlap-check none
coulomb-interaction Periodic
davidson-band-ratio 1.1
density-of-states Etol 1.000000e-06 Esigma 1.000000e-03 \
		Complete \
	Total \
	OrthoOrbital Ag 1   s \
	OrthoOrbital Ag 1   p \
	OrthoOrbital Ag 1   px \
	OrthoOrbital Ag 1   py \
	OrthoOrbital Ag 1   pz \
	OrthoOrbital Ag 1   d \
	OrthoOrbital Ag 1   dxy \
	OrthoOrbital Ag 1   dyz \
	OrthoOrbital Ag 1   dz2 \
	OrthoOrbital Ag 1   dxz \
	OrthoOrbital Ag 1   dx2-y2 \
	OrthoOrbital Ag 2   s \
	OrthoOrbital Ag 2   p \
	OrthoOrbital Ag 2   px \
	OrthoOrbital Ag 2   py \
	OrthoOrbital Ag 2   pz \
	OrthoOrbital Ag 2   d \
	OrthoOrbital Ag 2   dxy \
	OrthoOrbital Ag 2   dyz \
	OrthoOrbital Ag 2   dz2 \
	OrthoOrbital Ag 2   dxz \
	OrthoOrbital Ag 2   dx2-y2 \
	OrthoOrbital Ag 3   s \
	OrthoOrbital Ag 3   p \
	OrthoOrbital Ag 3   px \
	OrthoOrbital Ag 3   py \
	OrthoOrbital Ag 3   pz \
	OrthoOrbital Ag 3   d \
	OrthoOrbital Ag 3   dxy \
	OrthoOrbital Ag 3   dyz \
	OrthoOrbital Ag 3   dz2 \
	OrthoOrbital Ag 3   dxz \
	OrthoOrbital Ag 3   dx2-y2 \
	OrthoOrbital Ag 4   s \
	OrthoOrbital Ag 4   p \
	OrthoOrbital Ag 4   px \
	OrthoOrbital Ag 4   py \
	OrthoOrbital Ag 4   pz \
	OrthoOrbital Ag 4   d \
	OrthoOrbital Ag 4   dxy \
	OrthoOrbital Ag 4   dyz \
	OrthoOrbital Ag 4   dz2 \
	OrthoOrbital Ag 4   dxz \
	OrthoOrbital Ag 4   dx2-y2 \
	OrthoOrbital Ag 5   s \
	OrthoOrbital Ag 5   p \
	OrthoOrbital Ag 5   px \
	OrthoOrbital Ag 5   py \
	OrthoOrbital Ag 5   pz \
	OrthoOrbital Ag 5   d \
	OrthoOrbital Ag 5   dxy \
	OrthoOrbital Ag 5   dyz \
	OrthoOrbital Ag 5   dz2 \
	OrthoOrbital Ag 5   dxz \
	OrthoOrbital Ag 5   dx2-y2 \
	OrthoOrbital Ag 6   s \
	OrthoOrbital Ag 6   p \
	OrthoOrbital Ag 6   px \
	OrthoOrbital Ag 6   py \
	OrthoOrbital Ag 6   pz \
	OrthoOrbital Ag 6   d \
	OrthoOrbital Ag 6   dxy \
	OrthoOrbital Ag 6   dyz \
	OrthoOrbital Ag 6   dz2 \
	OrthoOrbital Ag 6   dxz \
	OrthoOrbital Ag 6   dx2-y2 \
	OrthoOrbital Ag 7   s \
	OrthoOrbital Ag 7   p \
	OrthoOrbital Ag 7   px \
	OrthoOrbital Ag 7   py \
	OrthoOrbital Ag 7   pz \
	OrthoOrbital Ag 7   d \
	OrthoOrbital Ag 7   dxy \
	OrthoOrbital Ag 7   dyz \
	OrthoOrbital Ag 7   dz2 \
	OrthoOrbital Ag 7   dxz \
	OrthoOrbital Ag 7   dx2-y2 \
	OrthoOrbital Ag 8   s \
	OrthoOrbital Ag 8   p \
	OrthoOrbital Ag 8   px \
	OrthoOrbital Ag 8   py \
	OrthoOrbital Ag 8   pz \
	OrthoOrbital Ag 8   d \
	OrthoOrbital Ag 8   dxy \
	OrthoOrbital Ag 8   dyz \
	OrthoOrbital Ag 8   dz2 \
	OrthoOrbital Ag 8   dxz \
	OrthoOrbital Ag 8   dx2-y2 \
	OrthoOrbital Ag 9   s \
	OrthoOrbital Ag 9   p \
	OrthoOrbital Ag 9   px \
	OrthoOrbital Ag 9   py \
	OrthoOrbital Ag 9   pz \
	OrthoOrbital Ag 9   d \
	OrthoOrbital Ag 9   dxy \
	OrthoOrbital Ag 9   dyz \
	OrthoOrbital Ag 9   dz2 \
	OrthoOrbital Ag 9   dxz \
	OrthoOrbital Ag 9   dx2-y2 \
	OrthoOrbital Ag 10   s \
	OrthoOrbital Ag 10   p \
	OrthoOrbital Ag 10   px \
	OrthoOrbital Ag 10   py \
	OrthoOrbital Ag 10   pz \
	OrthoOrbital Ag 10   d \
	OrthoOrbital Ag 10   dxy \
	OrthoOrbital Ag 10   dyz \
	OrthoOrbital Ag 10   dz2 \
	OrthoOrbital Ag 10   dxz \
	OrthoOrbital Ag 10   dx2-y2 \
	OrthoOrbital Ag 11   s \
	OrthoOrbital Ag 11   p \
	OrthoOrbital Ag 11   px \
	OrthoOrbital Ag 11   py \
	OrthoOrbital Ag 11   pz \
	OrthoOrbital Ag 11   d \
	OrthoOrbital Ag 11   dxy \
	OrthoOrbital Ag 11   dyz \
	OrthoOrbital Ag 11   dz2 \
	OrthoOrbital Ag 11   dxz \
	OrthoOrbital Ag 11   dx2-y2
dump End ElecDensity KEdensity BandEigs EigStats RhoAtom DOS Kpoints
dump Ionic State IonicPositions Lattice EigStats Ecomponents
dump 
dump 
dump 
dump 
dump 
dump 
dump 
dump 
dump-name jdft.$VAR
elec-cutoff 20
elec-eigen-algo Davidson
elec-ex-corr gga-PBE
elec-initial-magnetization 0.000000 no
elec-n-bands 126
elec-smearing Fermi 0.001
electronic-minimize  \
	dirUpdateScheme      FletcherReeves \
	linminMethod         DirUpdateRecommended \
	nIterations          100 \
	history              15 \
	knormThreshold       0 \
	energyDiffThreshold  1e-07 \
	nEnergyDiff          2 \
	alphaTstart          1 \
	alphaTmin            1e-10 \
	updateTestStepSize   yes \
	alphaTreduceFactor   0.1 \
	alphaTincreaseFactor 3 \
	nAlphaAdjustMax      3 \
	wolfeEnergy          0.0001 \
	wolfeGradient        0.9 \
	fdTest               no
exchange-regularization WignerSeitzTruncated
fluid LinearPCM 298.000000 1.013250
fluid-anion F- 0.5 MeanFieldLJ \
	epsBulk 1 \
	pMol 0 \
	epsInf 1 \
	Pvap 0 \
	sigmaBulk 0 \
	Rvdw 2.24877 \
	Res 0 \
	tauNuc 343133
fluid-cation Na+ 0.5 MeanFieldLJ \
	epsBulk 1 \
	pMol 0 \
	epsInf 1 \
	Pvap 0 \
	sigmaBulk 0 \
	Rvdw 2.19208 \
	Res 0 \
	tauNuc 343133
fluid-ex-corr lda-TF lda-PZ
fluid-gummel-loop 10 1.000000e-05
fluid-minimize  \
	dirUpdateScheme      PolakRibiere \
	linminMethod         DirUpdateRecommended \
	nIterations          400 \
	history              15 \
	knormThreshold       1e-11 \
	energyDiffThreshold  0 \
	nEnergyDiff          2 \
	alphaTstart          1 \
	alphaTmin            1e-10 \
	updateTestStepSize   yes \
	alphaTreduceFactor   0.1 \
	alphaTincreaseFactor 3 \
	nAlphaAdjustMax      6 \
	wolfeEnergy          0.0001 \
	wolfeGradient        0.9 \
	fdTest               no
fluid-solvent H2O 55.338 ScalarEOS \
	epsBulk 78.4 \
	pMol 0.92466 \
	epsInf 1.77 \
	Pvap 1.06736e-10 \
	sigmaBulk 4.62e-05 \
	Rvdw 2.61727 \
	Res 1.42 \
	tauNuc 343133 \
	poleEl 15 7 1
forces-output-coords Positions
initial-state jdft.$VAR
ion Ag  -0.000087000000000  -0.080540000000000  24.336780999999998 1
ion Ag   0.002562000000000   4.984726000000000   1.094586000000000 1
ion Ag   2.708251000000000   0.852911000000000   3.252791000000000 1
ion Ag   2.709744000000000   5.764468000000000   5.692517000000000 1
ion Ag  -0.000022000000000   1.637830000000000   8.033395000000001 1
ion Ag   0.000941000000000   6.528083000000001  10.370535000000000 1
ion Ag   2.708768000000000   2.451882000000000  12.710573000000000 1
ion Ag   2.710349000000000   7.361389000000000  15.053357000000000 1
ion Ag  -0.002084000000000   3.264630000000000  17.387599000000002 1
ion Ag   0.002592000000000   8.127395999999999  19.732670999999996 1
ion Ag   2.710113000000001   4.051186000000000  22.168202999999998 1
ion-species /projects/musgravc/apps/jdftx-1.6.0/build/pseudopotentials/GBRV_v1.5/$ID_pbe_v1.uspp
ion-species /projects/musgravc/apps/jdftx-1.6.0/build/pseudopotentials/GBRV_v1.5/$ID_pbe_v1.2.uspp
ion-species /projects/musgravc/apps/jdftx-1.6.0/build/pseudopotentials/GBRV_v1.5/$ID_pbe_v1.4.uspp
ion-species /projects/musgravc/apps/jdftx-1.6.0/build/pseudopotentials/GBRV_v1.5/$ID_pbe_v1.5.uspp
ion-width Ecut
ionic-minimize  \
	dirUpdateScheme      L-BFGS \
	linminMethod         DirUpdateRecommended \
	nIterations          100 \
	history              15 \
	knormThreshold       0.0001 \
	energyDiffThreshold  0.0001 \
	nEnergyDiff          2 \
	alphaTstart          1 \
	alphaTmin            1e-10 \
	updateTestStepSize   yes \
	alphaTreduceFactor   0.1 \
	alphaTincreaseFactor 3 \
	nAlphaAdjustMax      3 \
	wolfeEnergy          0.0001 \
	wolfeGradient        0.9 \
	fdTest               no
kpoint   0.000000000000   0.000000000000   0.000000000000  1.00000000000000
kpoint-folding 13 7 1 
latt-move-scale 0 0 0
latt-scale 1 1 1 
lattice  \
	   5.420447000000000   -2.710223000000000    0.000000000000000  \
	   0.000000000000000    8.988792000000000    0.000000000000000  \
	   0.000000000000000    0.000000000000000   76.272437999999994 
lattice-minimize  \
	dirUpdateScheme      L-BFGS \
	linminMethod         DirUpdateRecommended \
	nIterations          0 \
	history              15 \
	knormThreshold       0 \
	energyDiffThreshold  1e-06 \
	nEnergyDiff          2 \
	alphaTstart          1 \
	alphaTmin            1e-10 \
	updateTestStepSize   yes \
	alphaTreduceFactor   0.1 \
	alphaTincreaseFactor 3 \
	nAlphaAdjustMax      3 \
	wolfeEnergy          0.0001 \
	wolfeGradient        0.9 \
	fdTest               no
lcao-params 30 1e-06 0.001
pcm-variant CANDLE
spintype z-spin
subspace-rotation-factor 1 yes
symmetries automatic
symmetry-threshold 0.0001
target-mu -0.1345 no

van-der-waals D3



---------- Setting up symmetries ----------

Found 8 point-group symmetries of the bravais lattice
Found 1 space-group symmetries with basis
Applied RMS atom displacement 0 bohrs to make symmetries exact.

---------- Initializing the Grid ----------
R = 
[      5.42045     -2.71022            0  ]
[            0      8.98879            0  ]
[            0            0      76.2724  ]
unit cell volume = 3716.24
G =
[    1.15916   0.349501         -0  ]
[          0   0.699002          0  ]
[          0         -0  0.0823782  ]
Minimum fftbox size, Smin = [  24  40  308  ]
Chosen fftbox size, S = [  24  40  320  ]

---------- Exchange Correlation functional ----------
Initalized PBE GGA exchange.
Initalized PBE GGA correlation.

---------- Setting up pseudopotentials ----------
Width of ionic core gaussian charges (only for fluid interactions / plotting) set to 0.397384

Reading pseudopotential file '/projects/musgravc/apps/jdftx-1.6.0/build/pseudopotentials/GBRV_v1.5/ag_pbe_v1.4.uspp':
  Title: Ag.  Created by USPP 7.3.6 on 1-4-15
  Reference state energy: -147.606242.  19 valence electrons in orbitals:
    |400>  occupation: 2  eigenvalue: -3.637437
    |410>  occupation: 6  eigenvalue: -2.297267
    |420>  occupation: 10  eigenvalue: -0.417763
    |500>  occupation: 0.5  eigenvalue: -0.283525
    |510>  occupation: 0  eigenvalue: -0.122889
  lMax: 2  lLocal: 0  QijEcut: 5.5
  6 projectors sampled on a log grid with 717 points:
    l: 0  eig: -0.283528  rCut: 1.5
    l: 0  eig: -3.637440  rCut: 1.5
    l: 1  eig: -0.122892  rCut: 1.5
    l: 1  eig: -2.297267  rCut: 1.5
    l: 2  eig: -0.417762  rCut: 1.7
    l: 2  eig: -1.000000  rCut: 1.7
  Partial core density with radius 1.2
  Transforming core density to a uniform radial grid of dG=0.02 with 1326 points.
  Transforming local potential to a uniform radial grid of dG=0.02 with 1326 points.
  Transforming nonlocal projectors to a uniform radial grid of dG=0.02 with 432 points.
  Transforming density augmentations to a uniform radial grid of dG=0.02 with 1326 points.
  Transforming atomic orbitals to a uniform radial grid of dG=0.02 with 432 points.
  Core radius for overlap checks: 1.70 bohrs.

Initialized 1 species with 11 total atoms.

Folded 1 k-points by 13x7x1 to 91 k-points.

---------- Setting up k-points, bands, fillings ----------
Adding inversion symmetry to k-mesh for non-inversion-symmetric unit cell.
Reduced to 46 k-points under symmetry. 
Computing the number of bands and number of electrons
Reading initial fillings from file jdft.fillings.
nElectrons: 208.335469   nBands: 126   nStates: 92

----- Setting up reduced wavefunction bases (one per k-point) -----
average nbasis = 15874.978 , ideal nbasis = 15876.072

----- Initializing Supercell corresponding to k-point mesh -----
Lattice vector linear combinations in supercell:
[  13   0   0  ]
[   0   7   0  ]
[   0   0   1  ]
Supercell lattice vectors:
[  70.4658  -18.9716  0  ]
[  0  62.9215  0  ]
[  0  0  76.2724  ]

Initializing DFT-D3 calculator:
	Parameters set for gga-PBE functional
	s6:  1.000  s_r6:  1.217
	s8:  0.722  s_r8:  1.000
	Per-atom parameters loaded for:
	Ag:  sqrtQ[a0]:  5.443  Rcov[a0]:  2.173  CN: [ 0.00 0.97 ]

Initializing DFT-D2 calculator for fluid / solvation:
	Ag:  C6:  427.91 Eh-a0^6  R0: 3.097 a0

---------- Setting up ewald sum ----------
Optimum gaussian width for ewald sums = 4.143614 bohr.
Real space sum over 1235 unit cells with max indices [  9  6  2  ]
Reciprocal space sum over 4543 terms with max indices [  3  5  29  ]

Computing DFT-D3 correction:
# coordination-number Ag 5.476 5.490 7.485 9.015 8.917 9.043 9.048 9.041 8.917 9.008 7.482
# diagonal-C6 Ag 268.61 268.61 268.61 268.61 268.61 268.61 268.61 268.61 268.61 268.61 268.61
EvdW_6 =   -0.069643
EvdW_8 =   -0.094526

---------- Allocating electronic variables ----------
Initializing wave functions:  reading from 'jdft.wfns'
----- createFluidSolver() ----- (Fluid-side solver setup)
   Initializing fluid molecule 'H2O'
     Initializing site 'O'
       Electron density: proportional to exp(-r/0.36935)*erfc((r-0.51523)/0.36823) with norm 6.826
       Charge density: gaussian nuclear width 0.478731 with net site charge 0.826
       Polarizability: cuspless exponential with width 0.32 and norm 3.73
       Hard sphere radius: 2.57003 bohrs
       Positions in reference frame:
         [ +0.000000 +0.000000 +0.000000 ]
     Initializing site 'H'
       Electron density: proportional to exp(-r/0.34641)*erfc((r-0)/0.390882) with norm 0.587
       Charge density: gaussian nuclear width 0.377945 with net site charge -0.413
       Polarizability: cuspless exponential with width 0.39 and norm 3.3
       Positions in reference frame:
         [ +0.000000 -1.441945 +1.122523 ]
         [ +0.000000 +1.441945 +1.122523 ]
     Net charge: 0   dipole magnitude: 0.927204
     Initializing spherical shell mfKernel with radius 2.61727 Bohr
     deltaS corrections:
       site 'O': -7.54299
       site 'H': -6.83917
   Initializing fluid molecule 'Na+'
     Initializing site 'Na'
       Electron density: proportional to exp(-r/0.19682)*erfc((r-0.71491)/0.41314) with norm 8.1383
       Charge density: gaussian nuclear width 0.365347 with net site charge -1
       Hard sphere radius: 1.86327 bohrs
       Positions in reference frame:
         [ +0.000000 +0.000000 +0.000000 ]
     Net charge: -1   dipole magnitude: 0
     Initializing gaussian mfKernel with width: 1.55004 Bohr
     deltaS corrections:
       site 'Na': -22.3555
   Initializing fluid molecule 'F-'
     Initializing site 'F'
       Electron density: proportional to exp(-r/0.38886)*erfc((r-0)/0.438782) with norm 8
       Charge density: gaussian nuclear width 0.374796 with net site charge 1
       Hard sphere radius: 2.39995 bohrs
       Positions in reference frame:
         [ +0.000000 +0.000000 +0.000000 ]
     Net charge: 1   dipole magnitude: 0
     Initializing gaussian mfKernel with width: 1.59012 Bohr
     deltaS corrections:
       site 'F': -9.04335

Correction to mu due to finite nuclear width = -0.055801
   Cavity determined by nc: 0.00142 and sigma: 0.707107
   Nonlocal vdW cavity from gaussian model electron density with norm = 8 and sigma = 0.993594 bohr
   Charge asymmetry in cavity with sensitivity pCavity = 36.5 e-bohr/Eh
   Electrostatic cavity expanded by eta = 1.46 bohrs
   Weighted density cavitation model constrained by Nbulk: 0.0049383 bohr^-3, Pvap: 3.14029 kPa, Rvdw: 2.61727 bohr and sigmaBulk: 4.62e-05 Eh/bohr^2 at T: 298 K.
   Weighted density dispersion model using vdW pair potentials with single solvent site with sqrtC6eff: 0.77 SI.
Reading fluid state from 'jdft.fluidState'


---- Citations for features of the code used in this run ----

   Software package:
      R. Sundararaman, K. Letchworth-Weaver, K.A. Schwarz, D. Gunceler, Y. Ozhabes and T.A. Arias, 'JDFTx: software for joint density-functional theory', SoftwareX 6, 278 (2017)

   gga-PBE exchange-correlation functional:
      J.P. Perdew, K. Burke and M. Ernzerhof, Phys. Rev. Lett. 77, 3865 (1996)

   Pseudopotentials:
      KF Garrity, JW Bennett, KM Rabe and D Vanderbilt, Comput. Mater. Sci. 81, 446 (2014)

   DFT-D3 dispersion correction:
      S. Grimme, J. Antony, S. Ehrlich and H. Krieg, J. Chem. Phys. 132, 154104 (2010)

   DFT-D2 dispersion correction:
      S. Grimme, J. Comput. Chem. 27, 1787 (2006)

   Charge-asymmetric nonlocally-determined local-electric (CANDLE) solvation model:
      R. Sundararaman and W.A. Goddard III, J. Chem. Phys. 142, 064107 (2015)

   Total energy minimization with Auxiliary Hamiltonian:
      C. Freysoldt, S. Boeck, and J. Neugebauer, Phys. Rev. B 79, 241103(R) (2009)

   Grand-canonical (fixed-potential) DFT:
      R. Sundararaman, W. A. Goddard III and T. A. Arias, J. Chem. Phys. 146, 114104 (2017)

   Linear-tetrahedron sampling for density of states:
      G. Lehmann and M. Taut, Phys. status solidi (b) 54, 469 (1972)

This list may not be complete. Please suggest additional citations or
report any other bugs at https://github.com/shankar1729/jdftx/issues

Initialization completed successfully at t[s]:     11.26


Computing DFT-D3 correction:
# coordination-number Ag 5.476 5.490 7.485 9.015 8.917 9.043 9.048 9.041 8.917 9.008 7.482
# diagonal-C6 Ag 268.61 268.61 268.61 268.61 268.61 268.61 268.61 268.61 268.61 268.61 268.61
EvdW_6 =   -0.069643
EvdW_8 =   -0.094526
Shifting auxilliary hamiltonian by 0.110283 to set nElectrons=208.335469

-------- Electronic minimization -----------
	Linear fluid (dielectric constant: 78.4, screening length: 8.12261 Bohr) occupying 0.572465 of unit cell:	Completed after 22 iterations at t[s]:     25.98
	FillingsUpdate:  mu: -0.134500000  nElectrons: 208.335469  magneticMoment: [ Abs: 0.00006  Tot: +0.00005 ]
ElecMinimize: Iter:   0  G: -1594.783634603785686  |grad|_K:  2.036e-04  alpha:  1.000e+00
	Linear fluid (dielectric constant: 78.4, screening length: 8.12261 Bohr) occupying 0.609215 of unit cell:	Completed after 35 iterations at t[s]:     79.00
	Linear fluid (dielectric constant: 78.4, screening length: 8.12261 Bohr) occupying 0.572571 of unit cell:	Completed after 35 iterations at t[s]:     98.98
	FillingsUpdate:  mu: -0.134500000  nElectrons: 209.012506  magneticMoment: [ Abs: 0.00003  Tot: +0.00001 ]
	SubspaceRotationAdjust: set factor to 0.578
ElecMinimize: Iter:   1  G: -1594.940590586453482  |grad|_K:  1.757e-04  alpha:  3.106e-02  linmin:  4.039e-03  t[s]:    126.57
	Linear fluid (dielectric constant: 78.4, screening length: 8.12261 Bohr) occupying 0.572147 of unit cell:	Completed after 23 iterations at t[s]:    148.33
ElecMinimize: 	Predicted alpha/alphaT>3.000000, increasing alphaT to 9.318128e-02.
	Linear fluid (dielectric constant: 78.4, screening length: 8.12261 Bohr) occupying 0.571377 of unit cell:	Completed after 23 iterations at t[s]:    167.24
	Linear fluid (dielectric constant: 78.4, screening length: 8.12261 Bohr) occupying 0.570988 of unit cell:	Completed after 20 iterations at t[s]:    185.63
	FillingsUpdate:  mu: -0.134500000  nElectrons: 208.729737  magneticMoment: [ Abs: 0.00002  Tot: -0.00000 ]
	SubspaceRotationAdjust: set factor to 0.233
ElecMinimize: Iter:   2  G: -1595.507202781892147  |grad|_K:  5.254e-05  alpha:  1.239e-01  linmin: -3.480e-03  t[s]:    213.37
	Linear fluid (dielectric constant: 78.4, screening length: 8.12261 Bohr) occupying 0.577892 of unit cell:	Completed after 26 iterations at t[s]:    235.56
	Linear fluid (dielectric constant: 78.4, screening length: 8.12261 Bohr) occupying 0.570859 of unit cell:	Completed after 24 iterations at t[s]:    254.48
	FillingsUpdate:  mu: -0.134500000  nElectrons: 208.916294  magneticMoment: [ Abs: 0.00004  Tot: +0.00003 ]
	SubspaceRotationAdjust: set factor to 0.117
	SubspaceRotationAdjust: resetting CG because factor has changed by 0.117073
	Linear fluid (dielectric constant: 78.4, screening length: 8.12261 Bohr) occupying 0.570859 of unit cell:	Completed after 0 iterations at t[s]:    293.57
ElecMinimize: 	State modified externally: resetting search direction.
ElecMinimize: Iter:   3  G: -1595.542607171688132  |grad|_K:  2.845e-05  alpha:  5.957e-02
	Linear fluid (dielectric constant: 78.4, screening length: 8.12261 Bohr) occupying 0.570684 of unit cell:	Completed after 17 iterations at t[s]:    342.43
ElecMinimize: 	Predicted alpha/alphaT>3.000000, increasing alphaT to 1.787077e-01.
	Linear fluid (dielectric constant: 78.4, screening length: 8.12261 Bohr) occupying 0.570324 of unit cell:	Completed after 19 iterations at t[s]:    361.02
	Linear fluid (dielectric constant: 78.4, screening length: 8.12261 Bohr) occupying 0.569953 of unit cell:	Completed after 19 iterations at t[s]:    379.46
	FillingsUpdate:  mu: -0.134500000  nElectrons: 208.767090  magneticMoment: [ Abs: 0.00002  Tot: +0.00001 ]
	SubspaceRotationAdjust: set factor to 0.227
ElecMinimize: Iter:   4  G: -1595.588013944637851  |grad|_K:  1.498e-05  alpha:  2.999e-01  linmin: -1.517e-03  t[s]:    407.45
	Linear fluid (dielectric constant: 78.4, screening length: 8.12261 Bohr) occupying 0.569270 of unit cell:	Completed after 19 iterations at t[s]:    429.02
	Linear fluid (dielectric constant: 78.4, screening length: 8.12261 Bohr) occupying 0.569348 of unit cell:	Completed after 15 iterations at t[s]:    447.07
	FillingsUpdate:  mu: -0.134500000  nElectrons: 208.807355  magneticMoment: [ Abs: 0.00002  Tot: +0.00001 ]
	SubspaceRotationAdjust: set factor to 0.186
ElecMinimize: Iter:   5  G: -1595.599256059587788  |grad|_K:  8.091e-06  alpha:  2.661e-01  linmin: -1.216e-04  t[s]:    475.05
	Linear fluid (dielectric constant: 78.4, screening length: 8.12261 Bohr) occupying 0.568563 of unit cell:	Completed after 16 iterations at t[s]:    496.30
	Linear fluid (dielectric constant: 78.4, screening length: 8.12261 Bohr) occupying 0.568543 of unit cell:	Completed after 11 iterations at t[s]:    514.00
	FillingsUpdate:  mu: -0.134500000  nElectrons: 208.754821  magneticMoment: [ Abs: 0.00001  Tot: +0.00000 ]
	SubspaceRotationAdjust: set factor to 0.132
ElecMinimize: Iter:   6  G: -1595.602559272076178  |grad|_K:  8.240e-06  alpha:  2.727e-01  linmin:  7.254e-05  t[s]:    541.76
	Linear fluid (dielectric constant: 78.4, screening length: 8.12261 Bohr) occupying 0.567326 of unit cell:	Completed after 16 iterations at t[s]:    562.92
	Linear fluid (dielectric constant: 78.4, screening length: 8.12261 Bohr) occupying 0.566621 of unit cell:	Completed after 15 iterations at t[s]:    581.09
	FillingsUpdate:  mu: -0.134500000  nElectrons: 208.813727  magneticMoment: [ Abs: 0.00002  Tot: +0.00001 ]
	SubspaceRotationAdjust: set factor to 0.128
ElecMinimize: Iter:   7  G: -1595.607880927175756  |grad|_K:  6.448e-06  alpha:  4.194e-01  linmin: -2.641e-04  t[s]:    609.06
	Linear fluid (dielectric constant: 78.4, screening length: 8.12261 Bohr) occupying 0.564855 of unit cell:	Completed after 15 iterations at t[s]:    630.30
	Linear fluid (dielectric constant: 78.4, screening length: 8.12261 Bohr) occupying 0.564630 of unit cell:	Completed after 12 iterations at t[s]:    647.94
	FillingsUpdate:  mu: -0.134500000  nElectrons: 208.833816  magneticMoment: [ Abs: 0.00001  Tot: +0.00001 ]
	SubspaceRotationAdjust: set factor to 0.138
ElecMinimize: Iter:   8  G: -1595.611595950320861  |grad|_K:  6.009e-06  alpha:  4.679e-01  linmin: -1.724e-05  t[s]:    675.72
	Linear fluid (dielectric constant: 78.4, screening length: 8.12261 Bohr) occupying 0.562016 of unit cell:	Completed after 17 iterations at t[s]:    697.23
	Linear fluid (dielectric constant: 78.4, screening length: 8.12261 Bohr) occupying 0.561442 of unit cell:	Completed after 14 iterations at t[s]:    715.12
	FillingsUpdate:  mu: -0.134500000  nElectrons: 208.977050  magneticMoment: [ Abs: 0.00001  Tot: +0.00001 ]
	SubspaceRotationAdjust: set factor to 0.0939
ElecMinimize: Iter:   9  G: -1595.614865874000998  |grad|_K:  9.399e-06  alpha:  5.561e-01  linmin:  2.454e-03  t[s]:    742.91
	Linear fluid (dielectric constant: 78.4, screening length: 8.12261 Bohr) occupying 0.560393 of unit cell:	Completed after 21 iterations at t[s]:    764.92
	Linear fluid (dielectric constant: 78.4, screening length: 8.12261 Bohr) occupying 0.559353 of unit cell:	Completed after 18 iterations at t[s]:    783.32
	FillingsUpdate:  mu: -0.134500000  nElectrons: 209.036562  magneticMoment: [ Abs: 0.00001  Tot: +0.00001 ]
	SubspaceRotationAdjust: set factor to 0.0945
ElecMinimize: Iter:  10  G: -1595.615792899518055  |grad|_K:  8.223e-06  alpha:  1.349e-01  linmin:  2.840e-04  t[s]:    811.43
	Linear fluid (dielectric constant: 78.4, screening length: 8.12261 Bohr) occupying 0.557333 of unit cell:	Completed after 15 iterations at t[s]:    832.45
	Linear fluid (dielectric constant: 78.4, screening length: 8.12261 Bohr) occupying 0.557197 of unit cell:	Completed after 12 iterations at t[s]:    850.13
	FillingsUpdate:  mu: -0.134500000  nElectrons: 209.058727  magneticMoment: [ Abs: 0.00001  Tot: +0.00000 ]
	SubspaceRotationAdjust: set factor to 0.0969
ElecMinimize: Iter:  11  G: -1595.617475302469984  |grad|_K:  5.550e-06  alpha:  1.441e-01  linmin: -1.347e-04  t[s]:    878.03
	Linear fluid (dielectric constant: 78.4, screening length: 8.12261 Bohr) occupying 0.556149 of unit cell:	Completed after 15 iterations at t[s]:    899.16
	Linear fluid (dielectric constant: 78.4, screening length: 8.12261 Bohr) occupying 0.555588 of unit cell:	Completed after 14 iterations at t[s]:    917.18
	FillingsUpdate:  mu: -0.134500000  nElectrons: 209.072143  magneticMoment: [ Abs: 0.00001  Tot: +0.00000 ]
	SubspaceRotationAdjust: set factor to 0.101
ElecMinimize: Iter:  12  G: -1595.618737113410361  |grad|_K:  5.263e-06  alpha:  2.185e-01  linmin:  2.108e-04  t[s]:    945.14
	Linear fluid (dielectric constant: 78.4, screening length: 8.12261 Bohr) occupying 0.555390 of unit cell:	Completed after 15 iterations at t[s]:    966.29
	Linear fluid (dielectric constant: 78.4, screening length: 8.12261 Bohr) occupying 0.555397 of unit cell:	Completed after 13 iterations at t[s]:    984.17
	FillingsUpdate:  mu: -0.134500000  nElectrons: 209.102555  magneticMoment: [ Abs: 0.00001  Tot: +0.00000 ]
	SubspaceRotationAdjust: set factor to 0.135
ElecMinimize: Iter:  13  G: -1595.619569617090065  |grad|_K:  3.791e-06  alpha:  1.692e-01  linmin: -4.436e-05  t[s]:   1012.18
	Linear fluid (dielectric constant: 78.4, screening length: 8.12261 Bohr) occupying 0.555827 of unit cell:	Completed after 15 iterations at t[s]:   1033.35
	Linear fluid (dielectric constant: 78.4, screening length: 8.12261 Bohr) occupying 0.555819 of unit cell:	Completed after 10 iterations at t[s]:   1050.92
	FillingsUpdate:  mu: -0.134500000  nElectrons: 209.123192  magneticMoment: [ Abs: 0.00001  Tot: +0.00000 ]
	SubspaceRotationAdjust: set factor to 0.125
ElecMinimize: Iter:  14  G: -1595.620013084187121  |grad|_K:  3.106e-06  alpha:  1.661e-01  linmin: -1.478e-04  t[s]:   1078.80
	Linear fluid (dielectric constant: 78.4, screening length: 8.12261 Bohr) occupying 0.555077 of unit cell:	Completed after 14 iterations at t[s]:   1100.01
	Linear fluid (dielectric constant: 78.4, screening length: 8.12261 Bohr) occupying 0.554890 of unit cell:	Completed after 11 iterations at t[s]:   1117.44
	FillingsUpdate:  mu: -0.134500000  nElectrons: 209.118984  magneticMoment: [ Abs: 0.00000  Tot: +0.00000 ]
	SubspaceRotationAdjust: set factor to 0.165
ElecMinimize: Iter:  15  G: -1595.620387203454356  |grad|_K:  2.460e-06  alpha:  2.069e-01  linmin:  3.343e-05  t[s]:   1145.29
	Linear fluid (dielectric constant: 78.4, screening length: 8.12261 Bohr) occupying 0.553727 of unit cell:	Completed after 14 iterations at t[s]:   1166.43
	Linear fluid (dielectric constant: 78.4, screening length: 8.12261 Bohr) occupying 0.553744 of unit cell:	Completed after 7 iterations at t[s]:   1183.49
	FillingsUpdate:  mu: -0.134500000  nElectrons: 209.106405  magneticMoment: [ Abs: 0.00000  Tot: +0.00000 ]
	SubspaceRotationAdjust: set factor to 0.155
ElecMinimize: Iter:  16  G: -1595.620614582636563  |grad|_K:  2.428e-06  alpha:  2.039e-01  linmin:  2.756e-05  t[s]:   1211.40
	Linear fluid (dielectric constant: 78.4, screening length: 8.12261 Bohr) occupying 0.553497 of unit cell:	Completed after 13 iterations at t[s]:   1232.21
	Linear fluid (dielectric constant: 78.4, screening length: 8.12261 Bohr) occupying 0.553499 of unit cell:	Completed after 1 iterations at t[s]:   1248.66
	FillingsUpdate:  mu: -0.134500000  nElectrons: 209.109277  magneticMoment: [ Abs: 0.00000  Tot: +0.00000 ]
	SubspaceRotationAdjust: set factor to 0.233
ElecMinimize: Iter:  17  G: -1595.620834810995575  |grad|_K:  1.769e-06  alpha:  2.026e-01  linmin: -3.828e-05  t[s]:   1276.51
	Linear fluid (dielectric constant: 78.4, screening length: 8.12261 Bohr) occupying 0.553702 of unit cell:	Completed after 13 iterations at t[s]:   1297.37
	Linear fluid (dielectric constant: 78.4, screening length: 8.12261 Bohr) occupying 0.553724 of unit cell:	Completed after 11 iterations at t[s]:   1315.07
	FillingsUpdate:  mu: -0.134500000  nElectrons: 209.116746  magneticMoment: [ Abs: 0.00000  Tot: -0.00000 ]
	SubspaceRotationAdjust: set factor to 0.221
ElecMinimize: Iter:  18  G: -1595.620964764006658  |grad|_K:  2.112e-06  alpha:  2.241e-01  linmin: -5.454e-05  t[s]:   1342.96
	Linear fluid (dielectric constant: 78.4, screening length: 8.12261 Bohr) occupying 0.552671 of unit cell:	Completed after 14 iterations at t[s]:   1363.96
	Linear fluid (dielectric constant: 78.4, screening length: 8.12261 Bohr) occupying 0.552844 of unit cell:	Completed after 12 iterations at t[s]:   1381.73
	FillingsUpdate:  mu: -0.134500000  nElectrons: 209.105860  magneticMoment: [ Abs: 0.00000  Tot: -0.00000 ]
	SubspaceRotationAdjust: set factor to 0.249
ElecMinimize: Iter:  19  G: -1595.621119267041649  |grad|_K:  1.532e-06  alpha:  1.866e-01  linmin:  7.202e-06  t[s]:   1409.64
	Linear fluid (dielectric constant: 78.4, screening length: 8.12261 Bohr) occupying 0.552434 of unit cell:	Completed after 13 iterations at t[s]:   1430.47
	Linear fluid (dielectric constant: 78.4, screening length: 8.12261 Bohr) occupying 0.552243 of unit cell:	Completed after 11 iterations at t[s]:   1448.13
	FillingsUpdate:  mu: -0.134500000  nElectrons: 209.097199  magneticMoment: [ Abs: 0.00000  Tot: -0.00000 ]
	SubspaceRotationAdjust: set factor to 0.289
ElecMinimize: Iter:  20  G: -1595.621238403062989  |grad|_K:  1.513e-06  alpha:  2.750e-01  linmin:  1.152e-05  t[s]:   1475.97
	Linear fluid (dielectric constant: 78.4, screening length: 8.12261 Bohr) occupying 0.552467 of unit cell:	Completed after 13 iterations at t[s]:   1497.09
	Linear fluid (dielectric constant: 78.4, screening length: 8.12261 Bohr) occupying 0.552361 of unit cell:	Completed after 13 iterations at t[s]:   1514.80
	FillingsUpdate:  mu: -0.134500000  nElectrons: 209.100397  magneticMoment: [ Abs: 0.00000  Tot: -0.00000 ]
	SubspaceRotationAdjust: set factor to 0.24
ElecMinimize: Iter:  21  G: -1595.621299600722978  |grad|_K:  1.476e-06  alpha:  1.450e-01  linmin:  4.369e-07  t[s]:   1542.60
	Linear fluid (dielectric constant: 78.4, screening length: 8.12261 Bohr) occupying 0.551994 of unit cell:	Completed after 13 iterations at t[s]:   1563.56
	Linear fluid (dielectric constant: 78.4, screening length: 8.12261 Bohr) occupying 0.551866 of unit cell:	Completed after 11 iterations at t[s]:   1581.02
	FillingsUpdate:  mu: -0.134500000  nElectrons: 209.090476  magneticMoment: [ Abs: 0.00000  Tot: -0.00000 ]
	SubspaceRotationAdjust: set factor to 0.252
ElecMinimize: Iter:  22  G: -1595.621379284159730  |grad|_K:  1.027e-06  alpha:  1.982e-01  linmin:  1.443e-05  t[s]:   1608.66
	Linear fluid (dielectric constant: 78.4, screening length: 8.12261 Bohr) occupying 0.551766 of unit cell:	Completed after 10 iterations at t[s]:   1629.40
	Linear fluid (dielectric constant: 78.4, screening length: 8.12261 Bohr) occupying 0.551727 of unit cell:	Completed after 8 iterations at t[s]:   1646.49
	FillingsUpdate:  mu: -0.134500000  nElectrons: 209.086041  magneticMoment: [ Abs: 0.00000  Tot: -0.00000 ]
	SubspaceRotationAdjust: set factor to 0.294
ElecMinimize: Iter:  23  G: -1595.621432813544970  |grad|_K:  8.972e-07  alpha:  2.755e-01  linmin:  1.355e-06  t[s]:   1674.60
	Linear fluid (dielectric constant: 78.4, screening length: 8.12261 Bohr) occupying 0.551972 of unit cell:	Completed after 13 iterations at t[s]:   1695.45
	Linear fluid (dielectric constant: 78.4, screening length: 8.12261 Bohr) occupying 0.551923 of unit cell:	Completed after 10 iterations at t[s]:   1712.84
	FillingsUpdate:  mu: -0.134500000  nElectrons: 209.088518  magneticMoment: [ Abs: 0.00000  Tot: -0.00000 ]
	SubspaceRotationAdjust: set factor to 0.262
ElecMinimize: Iter:  24  G: -1595.621465542331862  |grad|_K:  1.029e-06  alpha:  2.200e-01  linmin:  3.976e-06  t[s]:   1740.74
	Linear fluid (dielectric constant: 78.4, screening length: 8.12261 Bohr) occupying 0.551725 of unit cell:	Completed after 14 iterations at t[s]:   1761.65
	Linear fluid (dielectric constant: 78.4, screening length: 8.12261 Bohr) occupying 0.551802 of unit cell:	Completed after 12 iterations at t[s]:   1779.50
	FillingsUpdate:  mu: -0.134500000  nElectrons: 209.083396  magneticMoment: [ Abs: 0.00000  Tot: -0.00000 ]
	SubspaceRotationAdjust: set factor to 0.212
ElecMinimize: Iter:  25  G: -1595.621490587976950  |grad|_K:  7.086e-07  alpha:  1.279e-01  linmin:  5.019e-07  t[s]:   1807.20
	Linear fluid (dielectric constant: 78.4, screening length: 8.12261 Bohr) occupying 0.551873 of unit cell:	Completed after 10 iterations at t[s]:   1827.63
	Linear fluid (dielectric constant: 78.4, screening length: 8.12261 Bohr) occupying 0.551936 of unit cell:	Completed after 11 iterations at t[s]:   1845.25
	FillingsUpdate:  mu: -0.134500000  nElectrons: 209.083266  magneticMoment: [ Abs: 0.00000  Tot: -0.00000 ]
	SubspaceRotationAdjust: set factor to 0.249
ElecMinimize: Iter:  26  G: -1595.621513070585479  |grad|_K:  5.467e-07  alpha:  2.424e-01  linmin:  6.909e-07  t[s]:   1872.99
	Linear fluid (dielectric constant: 78.4, screening length: 8.12261 Bohr) occupying 0.552054 of unit cell:	Completed after 11 iterations at t[s]:   1893.56
	Linear fluid (dielectric constant: 78.4, screening length: 8.12261 Bohr) occupying 0.552092 of unit cell:	Completed after 10 iterations at t[s]:   1911.06
	FillingsUpdate:  mu: -0.134500000  nElectrons: 209.083281  magneticMoment: [ Abs: 0.00000  Tot: -0.00000 ]
	SubspaceRotationAdjust: set factor to 0.277
ElecMinimize: Iter:  27  G: -1595.621530785065261  |grad|_K:  5.453e-07  alpha:  3.207e-01  linmin: -1.623e-06  t[s]:   1938.83
	Linear fluid (dielectric constant: 78.4, screening length: 8.12261 Bohr) occupying 0.552066 of unit cell:	Completed after 13 iterations at t[s]:   1959.65
	Linear fluid (dielectric constant: 78.4, screening length: 8.12261 Bohr) occupying 0.552076 of unit cell:	Completed after 11 iterations at t[s]:   1977.30
	FillingsUpdate:  mu: -0.134500000  nElectrons: 209.080190  magneticMoment: [ Abs: 0.00000  Tot: -0.00000 ]
	SubspaceRotationAdjust: set factor to 0.238
ElecMinimize: Iter:  28  G: -1595.621540208212764  |grad|_K:  5.336e-07  alpha:  1.710e-01  linmin: -7.531e-06  t[s]:   2005.25
	Linear fluid (dielectric constant: 78.4, screening length: 8.12261 Bohr) occupying 0.552258 of unit cell:	Completed after 13 iterations at t[s]:   2026.60
	Linear fluid (dielectric constant: 78.4, screening length: 8.12261 Bohr) occupying 0.552244 of unit cell:	Completed after 6 iterations at t[s]:   2043.47
	FillingsUpdate:  mu: -0.134500000  nElectrons: 209.081556  magneticMoment: [ Abs: 0.00000  Tot: -0.00000 ]
	SubspaceRotationAdjust: set factor to 0.218
ElecMinimize: Iter:  29  G: -1595.621548531069720  |grad|_K:  3.894e-07  alpha:  1.580e-01  linmin:  8.382e-06  t[s]:   2070.30
	Linear fluid (dielectric constant: 78.4, screening length: 8.12261 Bohr) occupying 0.552295 of unit cell:	Completed after 10 iterations at t[s]:   2090.86
	Linear fluid (dielectric constant: 78.4, screening length: 8.12261 Bohr) occupying 0.552341 of unit cell:	Completed after 10 iterations at t[s]:   2108.36
	FillingsUpdate:  mu: -0.134500000  nElectrons: 209.080401  magneticMoment: [ Abs: 0.00000  Tot: -0.00000 ]
	SubspaceRotationAdjust: set factor to 0.253
ElecMinimize: Iter:  30  G: -1595.621556874456246  |grad|_K:  3.294e-07  alpha:  2.984e-01  linmin:  6.199e-06  t[s]:   2136.08
	Linear fluid (dielectric constant: 78.4, screening length: 8.12261 Bohr) occupying 0.552418 of unit cell:	Completed after 10 iterations at t[s]:   2156.72
	Linear fluid (dielectric constant: 78.4, screening length: 8.12261 Bohr) occupying 0.552415 of unit cell:	Completed after 0 iterations at t[s]:   2172.89
	FillingsUpdate:  mu: -0.134500000  nElectrons: 209.079413  magneticMoment: [ Abs: 0.00000  Tot: -0.00000 ]
	SubspaceRotationAdjust: set factor to 0.286
ElecMinimize: Iter:  31  G: -1595.621562637243642  |grad|_K:  2.870e-07  alpha:  2.877e-01  linmin:  1.135e-05  t[s]:   2200.83
	Linear fluid (dielectric constant: 78.4, screening length: 8.12261 Bohr) occupying 0.552547 of unit cell:	Completed after 11 iterations at t[s]:   2221.66
	Linear fluid (dielectric constant: 78.4, screening length: 8.12261 Bohr) occupying 0.552523 of unit cell:	Completed after 9 iterations at t[s]:   2238.92
	FillingsUpdate:  mu: -0.134500000  nElectrons: 209.080137  magneticMoment: [ Abs: 0.00000  Tot: -0.00000 ]
	SubspaceRotationAdjust: set factor to 0.265
ElecMinimize: Iter:  32  G: -1595.621566214087125  |grad|_K:  3.296e-07  alpha:  2.358e-01  linmin: -1.269e-05  t[s]:   2266.88
	Linear fluid (dielectric constant: 78.4, screening length: 8.12261 Bohr) occupying 0.552512 of unit cell:	Completed after 12 iterations at t[s]:   2287.75
	Linear fluid (dielectric constant: 78.4, screening length: 8.12261 Bohr) occupying 0.552517 of unit cell:	Completed after 11 iterations at t[s]:   2304.84
	FillingsUpdate:  mu: -0.134500000  nElectrons: 209.078312  magneticMoment: [ Abs: 0.00000  Tot: -0.00000 ]
	SubspaceRotationAdjust: set factor to 0.207
ElecMinimize: Iter:  33  G: -1595.621568797044574  |grad|_K:  2.450e-07  alpha:  1.281e-01  linmin: -6.160e-06  t[s]:   2332.77
	Linear fluid (dielectric constant: 78.4, screening length: 8.12261 Bohr) occupying 0.552552 of unit cell:	Completed after 10 iterations at t[s]:   2353.48
	Linear fluid (dielectric constant: 78.4, screening length: 8.12261 Bohr) occupying 0.552581 of unit cell:	Completed after 7 iterations at t[s]:   2370.54
	FillingsUpdate:  mu: -0.134500000  nElectrons: 209.078228  magneticMoment: [ Abs: 0.00000  Tot: -0.00000 ]
	SubspaceRotationAdjust: set factor to 0.234
ElecMinimize: Iter:  34  G: -1595.621571347221789  |grad|_K:  1.813e-07  alpha:  2.299e-01  linmin:  2.924e-06  t[s]:   2398.48
	Linear fluid (dielectric constant: 78.4, screening length: 8.12261 Bohr) occupying 0.552615 of unit cell:	Completed after 7 iterations at t[s]:   2418.56
	Linear fluid (dielectric constant: 78.4, screening length: 8.12261 Bohr) occupying 0.552629 of unit cell:	Completed after 2 iterations at t[s]:   2435.15
	FillingsUpdate:  mu: -0.134500000  nElectrons: 209.078051  magneticMoment: [ Abs: 0.00000  Tot: -0.00000 ]
	SubspaceRotationAdjust: set factor to 0.256
ElecMinimize: Iter:  35  G: -1595.621573317897855  |grad|_K:  1.727e-07  alpha:  3.245e-01  linmin: -2.194e-05  t[s]:   2462.95
	Linear fluid (dielectric constant: 78.4, screening length: 8.12261 Bohr) occupying 0.552625 of unit cell:	Completed after 10 iterations at t[s]:   2483.40
	Linear fluid (dielectric constant: 78.4, screening length: 8.12261 Bohr) occupying 0.552626 of unit cell:	Completed after 10 iterations at t[s]:   2501.11
	FillingsUpdate:  mu: -0.134500000  nElectrons: 209.076996  magneticMoment: [ Abs: 0.00000  Tot: -0.00000 ]
	SubspaceRotationAdjust: set factor to 0.231
ElecMinimize: Iter:  36  G: -1595.621574541951077  |grad|_K:  1.637e-07  alpha:  2.189e-01  linmin:  3.107e-05  t[s]:   2528.96
	Linear fluid (dielectric constant: 78.4, screening length: 8.12261 Bohr) occupying 0.552682 of unit cell:	Completed after 10 iterations at t[s]:   2549.10
	Linear fluid (dielectric constant: 78.4, screening length: 8.12261 Bohr) occupying 0.552664 of unit cell:	Completed after 9 iterations at t[s]:   2566.50
	FillingsUpdate:  mu: -0.134500000  nElectrons: 209.077431  magneticMoment: [ Abs: 0.00000  Tot: -0.00000 ]
	SubspaceRotationAdjust: set factor to 0.191
ElecMinimize: Iter:  37  G: -1595.621575283330912  |grad|_K:  1.281e-07  alpha:  1.505e-01  linmin:  8.428e-06  t[s]:   2594.23
	Linear fluid (dielectric constant: 78.4, screening length: 8.12261 Bohr) occupying 0.552665 of unit cell:	Completed after 8 iterations at t[s]:   2614.42
	Linear fluid (dielectric constant: 78.4, screening length: 8.12261 Bohr) occupying 0.552666 of unit cell:	Completed after 7 iterations at t[s]:   2631.60
	FillingsUpdate:  mu: -0.134500000  nElectrons: 209.076776  magneticMoment: [ Abs: 0.00000  Tot: -0.00000 ]
	SubspaceRotationAdjust: set factor to 0.205
ElecMinimize: Iter:  38  G: -1595.621576091866245  |grad|_K:  1.071e-07  alpha:  2.668e-01  linmin: -7.704e-06  t[s]:   2659.59
	Linear fluid (dielectric constant: 78.4, screening length: 8.12261 Bohr) occupying 0.552675 of unit cell:	Completed after 2 iterations at t[s]:   2678.86
	Linear fluid (dielectric constant: 78.4, screening length: 8.12261 Bohr) occupying 0.552676 of unit cell:	Completed after 0 iterations at t[s]:   2694.96
	FillingsUpdate:  mu: -0.134500000  nElectrons: 209.076503  magneticMoment: [ Abs: 0.00000  Tot: -0.00000 ]
	SubspaceRotationAdjust: set factor to 0.235
ElecMinimize: Iter:  39  G: -1595.621576714883076  |grad|_K:  8.591e-08  alpha:  2.929e-01  linmin: -1.800e-05  t[s]:   2722.87
	Linear fluid (dielectric constant: 78.4, screening length: 8.12261 Bohr) occupying 0.552687 of unit cell:	Completed after 5 iterations at t[s]:   2742.91
	Linear fluid (dielectric constant: 78.4, screening length: 8.12261 Bohr) occupying 0.552687 of unit cell:	Completed after 0 iterations at t[s]:   2758.96
	FillingsUpdate:  mu: -0.134500000  nElectrons: 209.076466  magneticMoment: [ Abs: 0.00000  Tot: -0.00000 ]
	SubspaceRotationAdjust: set factor to 0.255
ElecMinimize: Iter:  40  G: -1595.621577129064690  |grad|_K:  7.981e-08  alpha:  3.021e-01  linmin: -3.670e-05  t[s]:   2786.96
	Linear fluid (dielectric constant: 78.4, screening length: 8.12261 Bohr) occupying 0.552675 of unit cell:	Completed after 10 iterations at t[s]:   2807.42
	Linear fluid (dielectric constant: 78.4, screening length: 8.12261 Bohr) occupying 0.552678 of unit cell:	Completed after 7 iterations at t[s]:   2824.37
	FillingsUpdate:  mu: -0.134500000  nElectrons: 209.076042  magneticMoment: [ Abs: 0.00000  Tot: -0.00000 ]
	SubspaceRotationAdjust: set factor to 0.232
ElecMinimize: Iter:  41  G: -1595.621577396267867  |grad|_K:  7.837e-08  alpha:  2.227e-01  linmin:  3.398e-05  t[s]:   2852.21
	Linear fluid (dielectric constant: 78.4, screening length: 8.12261 Bohr) occupying 0.552698 of unit cell:	Completed after 10 iterations at t[s]:   2872.94
	Linear fluid (dielectric constant: 78.4, screening length: 8.12261 Bohr) occupying 0.552692 of unit cell:	Completed after 7 iterations at t[s]:   2889.91
	FillingsUpdate:  mu: -0.134500000  nElectrons: 209.076352  magneticMoment: [ Abs: 0.00002  Tot: -0.00000 ]
	SubspaceRotationAdjust: set factor to 0.187
ElecMinimize: Iter:  42  G: -1595.621577574097500  |grad|_K:  6.483e-08  alpha:  1.591e-01  linmin:  1.253e-05  t[s]:   2918.00
	Linear fluid (dielectric constant: 78.4, screening length: 8.12261 Bohr) occupying 0.552689 of unit cell:	Completed after 6 iterations at t[s]:   2938.06
	Linear fluid (dielectric constant: 78.4, screening length: 8.12261 Bohr) occupying 0.552687 of unit cell:	Completed after 4 iterations at t[s]:   2954.69
	FillingsUpdate:  mu: -0.134500000  nElectrons: 209.076171  magneticMoment: [ Abs: 0.00002  Tot: -0.00001 ]
	SubspaceRotationAdjust: set factor to 0.194
ElecMinimize: Iter:  43  G: -1595.621577766241899  |grad|_K:  5.090e-08  alpha:  2.488e-01  linmin: -1.475e-05  t[s]:   2982.43
	Linear fluid (dielectric constant: 78.4, screening length: 8.12261 Bohr) occupying 0.552685 of unit cell:	Completed after 2 iterations at t[s]:   3002.08
	Linear fluid (dielectric constant: 78.4, screening length: 8.12261 Bohr) occupying 0.552685 of unit cell:	Completed after 0 iterations at t[s]:   3018.13
	FillingsUpdate:  mu: -0.134500000  nElectrons: 209.076144  magneticMoment: [ Abs: 0.00004  Tot: +0.00001 ]
	SubspaceRotationAdjust: set factor to 0.216
ElecMinimize: Iter:  44  G: -1595.621577894928578  |grad|_K:  3.944e-08  alpha:  2.668e-01  linmin: -2.747e-05  t[s]:   3046.09
	Linear fluid (dielectric constant: 78.4, screening length: 8.12261 Bohr) occupying 0.552686 of unit cell:	Completed after 2 iterations at t[s]:   3065.54
	Linear fluid (dielectric constant: 78.4, screening length: 8.12261 Bohr) occupying 0.552686 of unit cell:	Completed after 0 iterations at t[s]:   3081.95
	FillingsUpdate:  mu: -0.134500000  nElectrons: 209.076275  magneticMoment: [ Abs: 0.00008  Tot: +0.00003 ]
	SubspaceRotationAdjust: set factor to 0.233
ElecMinimize: Iter:  45  G: -1595.621577984128862  |grad|_K:  3.547e-08  alpha:  3.065e-01  linmin: -1.798e-05  t[s]:   3109.80
	Linear fluid (dielectric constant: 78.4, screening length: 8.12261 Bohr) occupying 0.552683 of unit cell:	Completed after 2 iterations at t[s]:   3129.32
	Linear fluid (dielectric constant: 78.4, screening length: 8.12261 Bohr) occupying 0.552684 of unit cell:	Completed after 0 iterations at t[s]:   3145.47
	FillingsUpdate:  mu: -0.134500000  nElectrons: 209.076342  magneticMoment: [ Abs: 0.00007  Tot: +0.00004 ]
	SubspaceRotationAdjust: set factor to 0.276
ElecMinimize: Iter:  46  G: -1595.621578048564515  |grad|_K:  2.880e-08  alpha:  2.753e-01  linmin: -3.950e-06  t[s]:   3173.24
ElecMinimize: Converged (|Delta G|<1.000000e-07 for 2 iters).
Setting wave functions to eigenvectors of Hamiltonian
Converging empty states (this may take a while): |deigs|: 3.866e-03

Computing DFT-D3 correction:
# coordination-number Ag 5.476 5.490 7.485 9.015 8.917 9.043 9.048 9.041 8.917 9.008 7.482
# diagonal-C6 Ag 268.61 268.61 268.61 268.61 268.61 268.61 268.61 268.61 268.61 268.61 268.61
EvdW_6 =   -0.069643
EvdW_8 =   -0.094526

# Ionic positions in cartesian coordinates:
ion Ag  -0.000087000000000  -0.080540000000000  24.336780999999998 1
ion Ag   0.002562000000000   4.984726000000000   1.094586000000000 1
ion Ag   2.708251000000000   0.852911000000000   3.252791000000000 1
ion Ag   2.709744000000000   5.764468000000000   5.692517000000000 1
ion Ag  -0.000022000000000   1.637830000000000   8.033395000000001 1
ion Ag   0.000941000000000   6.528083000000001  10.370535000000000 1
ion Ag   2.708768000000000   2.451882000000000  12.710573000000000 1
ion Ag   2.710349000000000   7.361389000000000  15.053357000000000 1
ion Ag  -0.002084000000000   3.264630000000000  17.387599000000002 1
ion Ag   0.002592000000000   8.127395999999999  19.732670999999996 1
ion Ag   2.710113000000001   4.051186000000000  22.168202999999998 1

# Forces in Cartesian coordinates:
force Ag   0.000012362368916  -0.000078105055935   0.000040535515339 1
force Ag   0.000000912573311   0.000098727054618  -0.000067854051804 1
force Ag   0.000007788192237  -0.000002488739546  -0.000910567749306 1
force Ag   0.000054832943382   0.000095149049276   0.001138078942005 1
force Ag  -0.000030516925413   0.000011954179061  -0.000244763543001 1
force Ag   0.000002402927740   0.000292702022015   0.000059000016427 1
force Ag   0.000000808117686  -0.000092312528514  -0.000028467085389 1
force Ag   0.000006801144996  -0.000059195346618  -0.000079792408860 1
force Ag   0.000032043422763  -0.000136921925867   0.000238687827303 1
force Ag  -0.000050380971966  -0.000013636888666  -0.001132776252897 1
force Ag  -0.000012862731484  -0.000047452973241   0.000989159226360 1

# Energy components:
   A_diel =       -0.0173707692462695
   Eewald =    14614.7189766231895192
       EH =    16084.6805861825705506
     Eloc =   -32578.1618212733010296
      Enl =       43.3893426334145147
     EvdW =       -0.1641689654206948
      Exc =     -159.4100122499238239
 Exc_core =        2.2898757800952856
       KE =      368.9367540443380449
  MuShift =       -0.0042599500938646
-------------------------------------
     Etot =    -1623.7420979443759279
       TS =        0.0002480832647656
-------------------------------------
        F =    -1623.7423460276406786
      muN =      -28.1207679790762590
-------------------------------------
        G =    -1595.6215780485645155


Dumping 'jdft.fillings' ... done
Dumping 'jdft.wfns' ... done
Dumping 'jdft.fluidState' ... done
Dumping 'jdft.ionpos' ... done
Dumping 'jdft.lattice' ... done
Dumping 'jdft.eigenvals' ... done
Dumping 'jdft.eigStats' ... 
	eMin: -3.518793 at state 46 ( [ +0.000000 +0.000000 +0.000000 ] spin -1 )
	HOMO: -0.134533 at state 34 ( [ +0.384615 +0.285714 +0.000000 ] spin 1 )
	mu  : -0.134500
	LUMO: -0.134451 at state 22 ( [ +0.230769 -0.428571 +0.000000 ] spin 1 )
	eMax: +0.189968 at state 87 ( [ +0.461538 +0.285714 +0.000000 ] spin -1 )
	HOMO-LUMO gap: +0.000081
	Optical gap  : +0.011594 at state 34 ( [ +0.384615 +0.285714 +0.000000 ] spin 1 )
Dumping 'jdft.Ecomponents' ... done
IonicMinimize: Iter:   0  G: -1595.621578048564515  |grad|_K:  3.762e-04  t[s]:   3312.90

#--- Lowdin population analysis ---
# oxidation-state Ag +0.064 +0.064 -0.045 -0.037 +0.007 +0.001 +0.001 +0.001 +0.007 -0.037 -0.045
# magnetic-moments Ag +0.000 +0.000 +0.000 +0.000 +0.000 +0.000 +0.000 +0.000 +0.000 +0.000 +0.000


Computing DFT-D3 correction:
# coordination-number Ag 5.475 5.489 7.483 9.015 8.917 9.044 9.048 9.042 8.917 9.007 7.480
# diagonal-C6 Ag 268.61 268.61 268.61 268.61 268.61 268.61 268.61 268.61 268.61 268.61 268.61
EvdW_6 =   -0.069642
EvdW_8 =   -0.094528
Shifting auxilliary hamiltonian by -0.000020 to set nElectrons=209.076342

-------- Electronic minimization -----------
	Linear fluid (dielectric constant: 78.4, screening length: 8.12261 Bohr) occupying 0.552632 of unit cell:	Completed after 12 iterations at t[s]:   3335.77
	FillingsUpdate:  mu: -0.134500000  nElectrons: 209.076342  magneticMoment: [ Abs: 0.00009  Tot: +0.00007 ]
ElecMinimize: Iter:   0  G: -1595.621581711921408  |grad|_K:  2.384e-07  alpha:  1.000e+00
	Linear fluid (dielectric constant: 78.4, screening length: 8.12261 Bohr) occupying 0.553349 of unit cell:	Completed after 13 iterations at t[s]:   3386.77
	Linear fluid (dielectric constant: 78.4, screening length: 8.12261 Bohr) occupying 0.552667 of unit cell:	Completed after 14 iterations at t[s]:   3404.95
	FillingsUpdate:  mu: -0.134500000  nElectrons: 209.077304  magneticMoment: [ Abs: 0.00008  Tot: +0.00007 ]
	SubspaceRotationAdjust: set factor to 0.191
ElecMinimize: Iter:   1  G: -1595.621582302445177  |grad|_K:  5.132e-08  alpha:  5.585e-02  linmin: -1.178e-04  t[s]:   3432.70
	Linear fluid (dielectric constant: 78.4, screening length: 8.12261 Bohr) occupying 0.552665 of unit cell:	Completed after 2 iterations at t[s]:   3452.30
ElecMinimize: 	Predicted alpha/alphaT>3.000000, increasing alphaT to 1.675463e-01.
	Linear fluid (dielectric constant: 78.4, screening length: 8.12261 Bohr) occupying 0.552661 of unit cell:	Completed after 6 iterations at t[s]:   3469.39
	Linear fluid (dielectric constant: 78.4, screening length: 8.12261 Bohr) occupying 0.552657 of unit cell:	Completed after 6 iterations at t[s]:   3486.33
	FillingsUpdate:  mu: -0.134500000  nElectrons: 209.077061  magneticMoment: [ Abs: 0.00007  Tot: +0.00007 ]
	SubspaceRotationAdjust: set factor to 0.221
ElecMinimize: Iter:   2  G: -1595.621582442926865  |grad|_K:  2.554e-08  alpha:  2.756e-01  linmin: -1.599e-04  t[s]:   3514.32
	Linear fluid (dielectric constant: 78.4, screening length: 8.12261 Bohr) occupying 0.552647 of unit cell:	Completed after 7 iterations at t[s]:   3534.46
	Linear fluid (dielectric constant: 78.4, screening length: 8.12261 Bohr) occupying 0.552649 of unit cell:	Completed after 0 iterations at t[s]:   3550.69
	FillingsUpdate:  mu: -0.134500000  nElectrons: 209.076841  magneticMoment: [ Abs: 0.00007  Tot: +0.00006 ]
	SubspaceRotationAdjust: set factor to 0.129
ElecMinimize: Iter:   3  G: -1595.621582472778300  |grad|_K:  3.525e-08  alpha:  2.323e-01  linmin:  4.417e-05  t[s]:   3578.70
	Linear fluid (dielectric constant: 78.4, screening length: 8.12261 Bohr) occupying 0.552651 of unit cell:	Completed after 9 iterations at t[s]:   3599.09
	Linear fluid (dielectric constant: 78.4, screening length: 8.12261 Bohr) occupying 0.552650 of unit cell:	Completed after 6 iterations at t[s]:   3616.18
	FillingsUpdate:  mu: -0.134500000  nElectrons: 209.076889  magneticMoment: [ Abs: 0.00006  Tot: +0.00006 ]
	SubspaceRotationAdjust: set factor to 0.113
ElecMinimize: Iter:   4  G: -1595.621582495256462  |grad|_K:  1.415e-08  alpha:  1.112e-01  linmin:  1.337e-05  t[s]:   3643.98
ElecMinimize: Converged (|Delta G|<1.000000e-07 for 2 iters).
Setting wave functions to eigenvectors of Hamiltonian
Converging empty states (this may take a while): |deigs|: 6.230e-08

Computing DFT-D3 correction:
# coordination-number Ag 5.475 5.489 7.483 9.015 8.917 9.044 9.048 9.042 8.917 9.007 7.480
# diagonal-C6 Ag 268.61 268.61 268.61 268.61 268.61 268.61 268.61 268.61 268.61 268.61 268.61
EvdW_6 =   -0.069642
EvdW_8 =   -0.094528
IonicMinimize: 	Wolfe criterion not satisfied: alpha: 1  (E-E0)/|gdotd0|: -0.951947  gdotd/gdotd0: 0.934526 (taking cubic step)

Computing DFT-D3 correction:
# coordination-number Ag 5.474 5.488 7.479 9.013 8.917 9.046 9.047 9.044 8.916 9.006 7.475
# diagonal-C6 Ag 268.61 268.61 268.61 268.61 268.61 268.61 268.61 268.61 268.61 268.61 268.61
EvdW_6 =   -0.069641
EvdW_8 =   -0.094531
Shifting auxilliary hamiltonian by -0.000005 to set nElectrons=209.076889

-------- Electronic minimization -----------
	Linear fluid (dielectric constant: 78.4, screening length: 8.12261 Bohr) occupying 0.552630 of unit cell:	Completed after 10 iterations at t[s]:   3727.93
	FillingsUpdate:  mu: -0.134500000  nElectrons: 209.076889  magneticMoment: [ Abs: 0.00012  Tot: +0.00008 ]
ElecMinimize: Iter:   0  G: -1595.621589537663567  |grad|_K:  9.695e-08  alpha:  1.000e+00
	Linear fluid (dielectric constant: 78.4, screening length: 8.12261 Bohr) occupying 0.552712 of unit cell:	Completed after 13 iterations at t[s]:   3778.96
	Linear fluid (dielectric constant: 78.4, screening length: 8.12261 Bohr) occupying 0.552650 of unit cell:	Completed after 13 iterations at t[s]:   3796.72
	FillingsUpdate:  mu: -0.134500000  nElectrons: 209.077428  magneticMoment: [ Abs: 0.00011  Tot: +0.00008 ]
	SubspaceRotationAdjust: set factor to 0.0815
ElecMinimize: Iter:   1  G: -1595.621589964127224  |grad|_K:  6.541e-08  alpha:  2.451e-01  linmin:  7.536e-06  t[s]:   3824.74
	Linear fluid (dielectric constant: 78.4, screening length: 8.12261 Bohr) occupying 0.552637 of unit cell:	Completed after 11 iterations at t[s]:   3845.43
	Linear fluid (dielectric constant: 78.4, screening length: 8.12261 Bohr) occupying 0.552638 of unit cell:	Completed after 0 iterations at t[s]:   3861.39
	FillingsUpdate:  mu: -0.134500000  nElectrons: 209.077082  magneticMoment: [ Abs: 0.00009  Tot: +0.00008 ]
	SubspaceRotationAdjust: set factor to 0.0585
ElecMinimize: Iter:   2  G: -1595.621590149626854  |grad|_K:  3.160e-08  alpha:  2.350e-01  linmin:  1.740e-04  t[s]:   3888.90
	Linear fluid (dielectric constant: 78.4, screening length: 8.12261 Bohr) occupying 0.552638 of unit cell:	Completed after 2 iterations at t[s]:   3908.37
	Linear fluid (dielectric constant: 78.4, screening length: 8.12261 Bohr) occupying 0.552638 of unit cell:	Completed after 2 iterations at t[s]:   3924.86
	FillingsUpdate:  mu: -0.134500000  nElectrons: 209.077089  magneticMoment: [ Abs: 0.00008  Tot: +0.00008 ]
	SubspaceRotationAdjust: set factor to 0.0746
ElecMinimize: Iter:   3  G: -1595.621590236280781  |grad|_K:  2.233e-08  alpha:  4.603e-01  linmin: -2.646e-03  t[s]:   3952.64
	Linear fluid (dielectric constant: 78.4, screening length: 8.12261 Bohr) occupying 0.552640 of unit cell:	Completed after 5 iterations at t[s]:   3972.53
	Linear fluid (dielectric constant: 78.4, screening length: 8.12261 Bohr) occupying 0.552640 of unit cell:	Completed after 0 iterations at t[s]:   3988.90
	FillingsUpdate:  mu: -0.134500000  nElectrons: 209.077155  magneticMoment: [ Abs: 0.00008  Tot: +0.00007 ]
	SubspaceRotationAdjust: set factor to 0.0817
ElecMinimize: Iter:   4  G: -1595.621590274053233  |grad|_K:  1.909e-08  alpha:  4.003e-01  linmin: -1.957e-03  t[s]:   4016.87
ElecMinimize: Converged (|Delta G|<1.000000e-07 for 2 iters).
Setting wave functions to eigenvectors of Hamiltonian
Converging empty states (this may take a while): |deigs|: 1.470e-08

Computing DFT-D3 correction:
# coordination-number Ag 5.474 5.488 7.479 9.013 8.917 9.046 9.047 9.044 8.916 9.006 7.475
# diagonal-C6 Ag 268.61 268.61 268.61 268.61 268.61 268.61 268.61 268.61 268.61 268.61 268.61
EvdW_6 =   -0.069641
EvdW_8 =   -0.094531

# Ionic positions in cartesian coordinates:
ion Ag  -0.000056510455661  -0.080792974853238  24.336902268245240 1
ion Ag   0.002558140157523   4.985003521478421   1.094382099543811 1
ion Ag   2.708267767014302   0.852884874095930   3.250058958451308 1
ion Ag   2.709901901267736   5.764734787462396   5.695930898525240 1
ion Ag  -0.000120148338650   1.637847202851752   8.032660371070223 1
ion Ag   0.000941611220810   6.528942446380614  10.370711661748507 1
ion Ag   2.708763826790650   2.451586402729027  12.710487260443056 1
ion Ag   2.710362805872580   7.361192754274716  15.053117284472643 1
ion Ag  -0.001994467294121   3.264200574536968  17.388314725181136 1
ion Ag   0.002434259521691   8.127336429648569  19.729272332940532 1
ion Ag   2.710067814243139   4.051024981394846  22.171170139378301 1

# Forces in Cartesian coordinates:
force Ag   0.000013150418825  -0.000118683811981  -0.000049595068951 1
force Ag  -0.000000916012307   0.000127629196224   0.000226009013868 1
force Ag   0.000006053088901   0.000011340093392  -0.000563383097884 1
force Ag   0.000046090760546   0.000076903572619   0.000663154727697 1
force Ag  -0.000026372674027   0.000044093352688  -0.000350834178564 1
force Ag   0.000004007035209   0.000211009523918  -0.000015129214359 1
force Ag   0.000001273119309  -0.000022494644760  -0.000149691215747 1
force Ag   0.000005319309649  -0.000106824093562  -0.000188768970233 1
force Ag   0.000028749169444  -0.000073536816108   0.000213200432750 1
force Ag  -0.000041644774903  -0.000056289158689  -0.000642286705981 1
force Ag  -0.000010804640487  -0.000021314943032   0.000781431723719 1

# Energy components:
   A_diel =       -0.0175570854713597
   Eewald =    14614.2963142121825513
       EH =    16084.2869712645606342
     Eloc =   -32577.3449442578130402
      Enl =       43.3893116532682654
     EvdW =       -0.1641718253397186
      Exc =     -159.4098602636045712
 Exc_core =        2.2898757395276919
       KE =      368.9361459044108642
  MuShift =       -0.0043053094392732
-------------------------------------
     Etot =    -1623.7422199677164372
       TS =        0.0002476174005130
-------------------------------------
        F =    -1623.7424675851168558
      muN =      -28.1208773110635590
-------------------------------------
        G =    -1595.6215902740532329


Dumping 'jdft.fillings' ... done
Dumping 'jdft.wfns' ... done
Dumping 'jdft.fluidState' ... done
Dumping 'jdft.ionpos' ... done
Dumping 'jdft.lattice' ... done
Dumping 'jdft.eigenvals' ... done
Dumping 'jdft.eigStats' ... 
	eMin: -3.518823 at state 46 ( [ +0.000000 +0.000000 +0.000000 ] spin -1 )
	HOMO: -0.134483 at state 80 ( [ +0.384615 +0.285714 +0.000000 ] spin -1 )
	mu  : -0.134500
	LUMO: -0.134487 at state 68 ( [ +0.230769 -0.428571 +0.000000 ] spin -1 )
	eMax: +0.190001 at state 41 ( [ +0.461538 +0.285714 +0.000000 ] spin 1 )
	HOMO-LUMO gap: -0.000003
	Optical gap  : +0.011594 at state 34 ( [ +0.384615 +0.285714 +0.000000 ] spin 1 )
Dumping 'jdft.Ecomponents' ... done
IonicMinimize: Iter:   1  G: -1595.621590274053233  |grad|_K:  2.564e-04  alpha:  3.000e+00  linmin: -9.498e-01  t[s]:   4080.17

#--- Lowdin population analysis ---
# oxidation-state Ag +0.063 +0.063 -0.045 -0.037 +0.007 +0.001 +0.001 +0.001 +0.007 -0.037 -0.045
# magnetic-moments Ag +0.000 +0.000 +0.000 +0.000 +0.000 +0.000 +0.000 +0.000 +0.000 +0.000 +0.000


Computing DFT-D3 correction:
# coordination-number Ag 5.476 5.492 7.472 9.017 8.920 9.055 9.040 9.047 8.905 8.998 7.459
# diagonal-C6 Ag 268.61 268.61 268.61 268.61 268.61 268.61 268.61 268.61 268.61 268.61 268.61
EvdW_6 =   -0.069636
EvdW_8 =   -0.094543
Shifting auxilliary hamiltonian by -0.000031 to set nElectrons=209.077155

-------- Electronic minimization -----------
	Linear fluid (dielectric constant: 78.4, screening length: 8.12261 Bohr) occupying 0.552623 of unit cell:	Completed after 15 iterations at t[s]:   4103.28
	FillingsUpdate:  mu: -0.134500000  nElectrons: 209.077155  magneticMoment: [ Abs: 0.00407  Tot: -0.00058 ]
ElecMinimize: Iter:   0  G: -1595.621438275961509  |grad|_K:  1.848e-06  alpha:  1.000e+00
	Linear fluid (dielectric constant: 78.4, screening length: 8.12261 Bohr) occupying 0.554220 of unit cell:	Completed after 21 iterations at t[s]:   4155.37
	Linear fluid (dielectric constant: 78.4, screening length: 8.12261 Bohr) occupying 0.552895 of unit cell:	Completed after 19 iterations at t[s]:   4174.09
	FillingsUpdate:  mu: -0.134500000  nElectrons: 209.084210  magneticMoment: [ Abs: 0.00286  Tot: -0.00057 ]
	SubspaceRotationAdjust: set factor to 0.0446
ElecMinimize: Iter:   1  G: -1595.621571333268321  |grad|_K:  7.218e-07  alpha:  2.105e-01  linmin: -2.262e-04  t[s]:   4201.91
	Linear fluid (dielectric constant: 78.4, screening length: 8.12261 Bohr) occupying 0.552747 of unit cell:	Completed after 13 iterations at t[s]:   4222.76
	Linear fluid (dielectric constant: 78.4, screening length: 8.12261 Bohr) occupying 0.552682 of unit cell:	Completed after 11 iterations at t[s]:   4240.56
	FillingsUpdate:  mu: -0.134500000  nElectrons: 209.078701  magneticMoment: [ Abs: 0.00154  Tot: -0.00055 ]
	SubspaceRotationAdjust: set factor to 0.0299
ElecMinimize: Iter:   2  G: -1595.621600988490854  |grad|_K:  2.585e-07  alpha:  3.075e-01  linmin: -9.092e-05  t[s]:   4268.47
	Linear fluid (dielectric constant: 78.4, screening length: 8.12261 Bohr) occupying 0.552672 of unit cell:	Completed after 6 iterations at t[s]:   4288.64
	Linear fluid (dielectric constant: 78.4, screening length: 8.12261 Bohr) occupying 0.552670 of unit cell:	Completed after 2 iterations at t[s]:   4305.05
	FillingsUpdate:  mu: -0.134500000  nElectrons: 209.078387  magneticMoment: [ Abs: 0.00091  Tot: -0.00054 ]
	SubspaceRotationAdjust: set factor to 0.0346
ElecMinimize: Iter:   3  G: -1595.621605310426730  |grad|_K:  1.408e-07  alpha:  3.499e-01  linmin: -1.963e-05  t[s]:   4332.84
	Linear fluid (dielectric constant: 78.4, screening length: 8.12261 Bohr) occupying 0.552673 of unit cell:	Completed after 10 iterations at t[s]:   4353.52
	Linear fluid (dielectric constant: 78.4, screening length: 8.12261 Bohr) occupying 0.552673 of unit cell:	Completed after 0 iterations at t[s]:   4369.53
	FillingsUpdate:  mu: -0.134500000  nElectrons: 209.078476  magneticMoment: [ Abs: 0.00067  Tot: -0.00054 ]
	SubspaceRotationAdjust: set factor to 0.0392
ElecMinimize: Iter:   4  G: -1595.621606691922580  |grad|_K:  8.752e-08  alpha:  3.766e-01  linmin: -4.275e-04  t[s]:   4397.74
	Linear fluid (dielectric constant: 78.4, screening length: 8.12261 Bohr) occupying 0.552672 of unit cell:	Completed after 2 iterations at t[s]:   4417.75
	Linear fluid (dielectric constant: 78.4, screening length: 8.12261 Bohr) occupying 0.552671 of unit cell:	Completed after 2 iterations at t[s]:   4433.71
	FillingsUpdate:  mu: -0.134500000  nElectrons: 209.078401  magneticMoment: [ Abs: 0.00058  Tot: -0.00052 ]
	SubspaceRotationAdjust: set factor to 0.0498
ElecMinimize: Iter:   5  G: -1595.621607467996910  |grad|_K:  7.228e-08  alpha:  5.427e-01  linmin: -2.900e-04  t[s]:   4461.41
	Linear fluid (dielectric constant: 78.4, screening length: 8.12261 Bohr) occupying 0.552666 of unit cell:	Completed after 6 iterations at t[s]:   4480.26
	Linear fluid (dielectric constant: 78.4, screening length: 8.12261 Bohr) occupying 0.552666 of unit cell:	Completed after 0 iterations at t[s]:   4495.87
	FillingsUpdate:  mu: -0.134500000  nElectrons: 209.078196  magneticMoment: [ Abs: 0.00056  Tot: -0.00050 ]
	SubspaceRotationAdjust: set factor to 0.0614
ElecMinimize: Iter:   6  G: -1595.621608003991241  |grad|_K:  7.470e-08  alpha:  5.500e-01  linmin: -6.543e-05  t[s]:   4522.35
	Linear fluid (dielectric constant: 78.4, screening length: 8.12261 Bohr) occupying 0.552667 of unit cell:	Completed after 2 iterations at t[s]:   4540.78
	Linear fluid (dielectric constant: 78.4, screening length: 8.12261 Bohr) occupying 0.552667 of unit cell:	Completed after 2 iterations at t[s]:   4556.50
	FillingsUpdate:  mu: -0.134500000  nElectrons: 209.078126  magneticMoment: [ Abs: 0.00057  Tot: -0.00045 ]
	SubspaceRotationAdjust: set factor to 0.0733
ElecMinimize: Iter:   7  G: -1595.621608782248131  |grad|_K:  8.726e-08  alpha:  7.522e-01  linmin:  8.823e-06  t[s]:   4583.30
	Linear fluid (dielectric constant: 78.4, screening length: 8.12261 Bohr) occupying 0.552670 of unit cell:	Completed after 6 iterations at t[s]:   4602.69
	Linear fluid (dielectric constant: 78.4, screening length: 8.12261 Bohr) occupying 0.552670 of unit cell:	Completed after 0 iterations at t[s]:   4618.20
	FillingsUpdate:  mu: -0.134500000  nElectrons: 209.078050  magneticMoment: [ Abs: 0.00049  Tot: -0.00038 ]
	SubspaceRotationAdjust: set factor to 0.0813
ElecMinimize: Iter:   8  G: -1595.621609847781428  |grad|_K:  1.072e-07  alpha:  7.582e-01  linmin: -4.550e-06  t[s]:   4645.58
	Linear fluid (dielectric constant: 78.4, screening length: 8.12261 Bohr) occupying 0.552671 of unit cell:	Completed after 10 iterations at t[s]:   4665.61
	Linear fluid (dielectric constant: 78.4, screening length: 8.12261 Bohr) occupying 0.552670 of unit cell:	Completed after 2 iterations at t[s]:   4682.09
	FillingsUpdate:  mu: -0.134500000  nElectrons: 209.077915  magneticMoment: [ Abs: 0.00037  Tot: -0.00028 ]
	SubspaceRotationAdjust: set factor to 0.0857
ElecMinimize: Iter:   9  G: -1595.621611127703545  |grad|_K:  1.146e-07  alpha:  6.027e-01  linmin:  3.278e-06  t[s]:   4709.49
	Linear fluid (dielectric constant: 78.4, screening length: 8.12261 Bohr) occupying 0.552697 of unit cell:	Completed after 10 iterations at t[s]:   4729.16
	Linear fluid (dielectric constant: 78.4, screening length: 8.12261 Bohr) occupying 0.552691 of unit cell:	Completed after 6 iterations at t[s]:   4745.57
	FillingsUpdate:  mu: -0.134500000  nElectrons: 209.078396  magneticMoment: [ Abs: 0.00031  Tot: -0.00018 ]
	SubspaceRotationAdjust: set factor to 0.0792
ElecMinimize: Iter:  10  G: -1595.621612254504271  |grad|_K:  1.028e-07  alpha:  4.660e-01  linmin: -2.971e-06  t[s]:   4772.79
	Linear fluid (dielectric constant: 78.4, screening length: 8.12261 Bohr) occupying 0.552674 of unit cell:	Completed after 10 iterations at t[s]:   4792.27
	Linear fluid (dielectric constant: 78.4, screening length: 8.12261 Bohr) occupying 0.552676 of unit cell:	Completed after 2 iterations at t[s]:   4808.07
	FillingsUpdate:  mu: -0.134500000  nElectrons: 209.078028  magneticMoment: [ Abs: 0.00020  Tot: -0.00010 ]
	SubspaceRotationAdjust: set factor to 0.0682
ElecMinimize: Iter:  11  G: -1595.621613015299999  |grad|_K:  7.456e-08  alpha:  3.891e-01  linmin:  2.741e-05  t[s]:   4835.44
	Linear fluid (dielectric constant: 78.4, screening length: 8.12261 Bohr) occupying 0.552681 of unit cell:	Completed after 6 iterations at t[s]:   4855.00
	Linear fluid (dielectric constant: 78.4, screening length: 8.12261 Bohr) occupying 0.552681 of unit cell:	Completed after 2 iterations at t[s]:   4871.35
	FillingsUpdate:  mu: -0.134500000  nElectrons: 209.078245  magneticMoment: [ Abs: 0.00014  Tot: -0.00006 ]
	SubspaceRotationAdjust: set factor to 0.0665
ElecMinimize: Iter:  12  G: -1595.621613452108022  |grad|_K:  5.236e-08  alpha:  4.278e-01  linmin: -8.820e-05  t[s]:   4898.11
	Linear fluid (dielectric constant: 78.4, screening length: 8.12261 Bohr) occupying 0.552680 of unit cell:	Completed after 2 iterations at t[s]:   4917.06
	Linear fluid (dielectric constant: 78.4, screening length: 8.12261 Bohr) occupying 0.552680 of unit cell:	Completed after 0 iterations at t[s]:   4932.60
	FillingsUpdate:  mu: -0.134500000  nElectrons: 209.078300  magneticMoment: [ Abs: 0.00010  Tot: -0.00004 ]
	SubspaceRotationAdjust: set factor to 0.0694
ElecMinimize: Iter:  13  G: -1595.621613645506386  |grad|_K:  3.663e-08  alpha:  3.769e-01  linmin:  4.969e-05  t[s]:   4959.76
	Linear fluid (dielectric constant: 78.4, screening length: 8.12261 Bohr) occupying 0.552677 of unit cell:	Completed after 2 iterations at t[s]:   4978.78
	Linear fluid (dielectric constant: 78.4, screening length: 8.12261 Bohr) occupying 0.552677 of unit cell:	Completed after 0 iterations at t[s]:   4994.37
	FillingsUpdate:  mu: -0.134500000  nElectrons: 209.078274  magneticMoment: [ Abs: 0.00008  Tot: -0.00003 ]
	SubspaceRotationAdjust: set factor to 0.074
ElecMinimize: Iter:  14  G: -1595.621613738277119  |grad|_K:  2.406e-08  alpha:  3.763e-01  linmin: -3.154e-04  t[s]:   5021.33
	Linear fluid (dielectric constant: 78.4, screening length: 8.12261 Bohr) occupying 0.552676 of unit cell:	Completed after 2 iterations at t[s]:   5040.17
	Linear fluid (dielectric constant: 78.4, screening length: 8.12261 Bohr) occupying 0.552676 of unit cell:	Completed after 0 iterations at t[s]:   5055.92
	FillingsUpdate:  mu: -0.134500000  nElectrons: 209.078292  magneticMoment: [ Abs: 0.00007  Tot: -0.00002 ]
	SubspaceRotationAdjust: set factor to 0.0865
ElecMinimize: Iter:  15  G: -1595.621613783697512  |grad|_K:  1.718e-08  alpha:  4.146e-01  linmin: -1.172e-03  t[s]:   5083.19
ElecMinimize: Converged (|Delta G|<1.000000e-07 for 2 iters).
Setting wave functions to eigenvectors of Hamiltonian
Converging empty states (this may take a while): |deigs|: 5.071e-08

Computing DFT-D3 correction:
# coordination-number Ag 5.476 5.492 7.472 9.017 8.920 9.055 9.040 9.047 8.905 8.998 7.459
# diagonal-C6 Ag 268.61 268.61 268.61 268.61 268.61 268.61 268.61 268.61 268.61 268.61 268.61
EvdW_6 =   -0.069636
EvdW_8 =   -0.094543

# Ionic positions in cartesian coordinates:
ion Ag   0.000098725510972  -0.082698067476435  24.335998699451473 1
ion Ag   0.002506617170224   4.986805791747088   1.098751103337366 1
ion Ag   2.708314264860598   0.853001919161656   3.243559748265009 1
ion Ag   2.710483834597247   5.765653003621400   5.703604405109440 1
ion Ag  -0.000506539091350   1.638490534331420   8.027476169956554 1
ion Ag   0.000971691210093   6.531507333515681  10.370349905797015 1
ion Ag   2.708751406718971   2.451434779106821  12.708066608783437 1
ion Ag   2.710399949028143   7.359428002620088  15.050193890772510 1
ion Ag  -0.001635589497243   3.263309936635507  17.391331774166925 1
ion Ag   0.001850676252588   8.126298236433763  19.722193340000782 1
ion Ag   2.709891963239758   4.050729530303014  22.181482354359485 1

# Forces in Cartesian coordinates:
force Ag   0.000005455659972  -0.000093187511689   0.000102685022205 1
force Ag   0.000005304773340   0.000097917415386  -0.000254932302083 1
force Ag   0.000008621670776  -0.000004302957296  -0.000747972543503 1
force Ag   0.000030363629625   0.000087116670371   0.000364177565842 1
force Ag  -0.000015477791986   0.000056426191791  -0.000151438555494 1
force Ag   0.000005647581985   0.000177998654882   0.000138378268540 1
force Ag   0.000000561627869  -0.000017678756996   0.000065915544412 1
force Ag   0.000002484176138  -0.000062162744945   0.000008961043616 1
force Ag   0.000019781253430  -0.000093866361256   0.000245195580015 1
force Ag  -0.000025900450415  -0.000055969071708  -0.000339220073619 1
force Ag  -0.000011124324908  -0.000021754474210   0.000770763076877 1

# Energy components:
   A_diel =       -0.0178261047246074
   Eewald =    14613.4968054798991943
       EH =    16083.5216991386514565
     Eloc =   -32575.7798672911085305
      Enl =       43.3893739281892152
     EvdW =       -0.1641791602421675
      Exc =     -159.4098847093237339
 Exc_core =        2.2898756365561113
       KE =      368.9359756011177183
  MuShift =       -0.0043687944769271
-------------------------------------
     Etot =    -1623.7423962754635340
       TS =        0.0002478405826483
-------------------------------------
        F =    -1623.7426441160462218
      muN =      -28.1210303323487700
-------------------------------------
        G =    -1595.6216137836975122


Dumping 'jdft.fillings' ... done
Dumping 'jdft.wfns' ... done
Dumping 'jdft.fluidState' ... done
Dumping 'jdft.ionpos' ... done
Dumping 'jdft.lattice' ... done
Dumping 'jdft.eigenvals' ... done
Dumping 'jdft.eigStats' ... 
	eMin: -3.518877 at state 0 ( [ +0.000000 +0.000000 +0.000000 ] spin 1 )
	HOMO: -0.134586 at state 22 ( [ +0.230769 -0.428571 +0.000000 ] spin 1 )
	mu  : -0.134500
	LUMO: -0.134512 at state 80 ( [ +0.384615 +0.285714 +0.000000 ] spin -1 )
	eMax: +0.190057 at state 41 ( [ +0.461538 +0.285714 +0.000000 ] spin 1 )
	HOMO-LUMO gap: +0.000074
	Optical gap  : +0.009131 at state 22 ( [ +0.230769 -0.428571 +0.000000 ] spin 1 )
Dumping 'jdft.Ecomponents' ... done
IonicMinimize: Iter:   2  G: -1595.621613783697512  |grad|_K:  2.242e-04  alpha:  1.000e+00  linmin: -8.022e-01  t[s]:   5144.64
IonicMinimize: Converged (|Delta G|<1.000000e-04 for 2 iters).

#--- Lowdin population analysis ---
# oxidation-state Ag +0.063 +0.062 -0.045 -0.037 +0.007 +0.000 +0.002 +0.000 +0.007 -0.037 -0.045
# magnetic-moments Ag -0.000 -0.000 -0.000 -0.000 -0.000 -0.000 -0.000 -0.000 -0.000 -0.000 -0.000


Dumping 'jdft.n_up' ... done
Dumping 'jdft.n_dn' ... done
Dumping 'jdft.tau_up' ... done
Dumping 'jdft.tau_dn' ... done
Dumping 'jdft.eigenvals' ... done
Dumping 'jdft.eigStats' ... 
	eMin: -3.518877 at state 0 ( [ +0.000000 +0.000000 +0.000000 ] spin 1 )
	HOMO: -0.134586 at state 22 ( [ +0.230769 -0.428571 +0.000000 ] spin 1 )
	mu  : -0.134500
	LUMO: -0.134512 at state 80 ( [ +0.384615 +0.285714 +0.000000 ] spin -1 )
	eMax: +0.190057 at state 41 ( [ +0.461538 +0.285714 +0.000000 ] spin 1 )
	HOMO-LUMO gap: +0.000074
	Optical gap  : +0.009131 at state 22 ( [ +0.230769 -0.428571 +0.000000 ] spin 1 )
Dumping 'jdft.kPts' ... done
Dumping 'jdft.kMap' ... done
Dumping 'jdft.dosUp' ... done.
Dumping 'jdft.dosDn' ... done.
End date and time: Sat Sep 10 12:56:35 2022  (Duration: 0-1:26:25.91)
Done!

PROFILER:             augmentDensityGrid     2.828807 +/-     0.082235 s,  146 calls,    413.005789 s total
PROFILER:         augmentDensityGridGrad     0.155082 +/-     0.045209 s,   78 calls,     12.096432 s total
PROFILER:        augmentDensitySpherical     0.001125 +/-     0.000075 s,  438 calls,      0.492744 s total
PROFILER:    augmentDensitySphericalGrad     0.001177 +/-     0.000174 s,  273 calls,      0.321265 s total
PROFILER:                 augmentOverlap     0.586377 +/-     0.053042 s,  945 calls,    554.126059 s total
PROFILER:                     diagouterI     2.560526 +/-     0.064881 s,  447 calls,   1144.555250 s total
PROFILER:              EdensityAndVscloc     2.335343 +/-     0.842338 s,  146 calls,    340.960041 s total
PROFILER:                     EnlAndGrad     0.002522 +/-     0.000408 s,  489 calls,      1.233242 s total
PROFILER:            ExCorrCommunication     0.018331 +/-     0.061626 s,  922 calls,     16.901488 s total
PROFILER:               ExCorrFunctional     0.004199 +/-     0.000758 s,  159 calls,      0.667648 s total
PROFILER:                    ExCorrTotal     0.159330 +/-     0.145741 s,  159 calls,     25.333545 s total
PROFILER:                   Idag_DiagV_I     4.838991 +/-     1.007917 s,  261 calls,   1262.976646 s total
PROFILER:                    initWeights     1.970098 +/-     0.000000 s,    1 calls,      1.970098 s total
PROFILER:                    inv(matrix)     0.001556 +/-     0.000126 s,  432 calls,      0.672176 s total
PROFILER:            matrix::diagonalize     0.005881 +/-     0.003023 s,  696 calls,      4.092870 s total
PROFILER:                    matrix::set     0.000005 +/-     0.000007 s, 8622 calls,      0.042847 s total
PROFILER:            orthoMatrix(matrix)     0.000918 +/-     0.000633 s,  462 calls,      0.424183 s total
PROFILER:     RadialFunctionR::transform     0.024612 +/-     0.167503 s,   57 calls,      1.402889 s total
PROFILER:                    reduceKmesh     0.001386 +/-     0.000000 s,    1 calls,      0.001386 s total
PROFILER:   VanDerWaalsD3::energyAndGrad     0.004689 +/-     0.000239 s,    9 calls,      0.042205 s total
PROFILER:               WavefunctionDrag     7.790742 +/-     1.930430 s,    4 calls,     31.162970 s total
PROFILER:                            Y*M     0.184576 +/-     0.046786 s, 3083 calls,    569.047312 s total
PROFILER:                          Y1^Y2     0.191294 +/-     0.053670 s, 2010 calls,    384.501086 s total

MEMUSAGE:                   ColumnBundle     0.436956 GB
MEMUSAGE:        complexScalarFieldTilde     0.009155 GB
MEMUSAGE:                    IndexArrays     0.021765 GB
MEMUSAGE:                         matrix     0.014845 GB
MEMUSAGE:                           misc     0.009213 GB
MEMUSAGE:                    ScalarField     0.066376 GB
MEMUSAGE:               ScalarFieldTilde     0.048366 GB
MEMUSAGE:                          Total     0.514989 GB
