
*************** JDFTx 1.6.0  ***************

Start date and time: Thu Feb 17 03:52:38 2022
Executable /projects/musgravc/apps/jdftx-1.6.1/build/jdftx with command-line: -i in
Running on hosts (process indices):  shas0925.rc.int.colorado.edu (0-23)
Divided in process groups (process indices):  0 (0)  1 (1)  2 (2)  3 (3)  4 (4)  5 (5)  6 (6)  7 (7)  8 (8)  9 (9)  10 (10)  11 (11)  12 (12)  13 (13)  14 (14)  15 (15)  16 (16)  17 (17)  18 (18)  19 (19)  20 (20)  21 (21)  22 (22)  23 (23)
Resource initialization completed at t[s]:      0.00
Run totals: 24 processes, 24 threads, 0 GPUs


Input parsed successfully to the following command list (including defaults):

basis kpoint-dependent
converge-empty-states yes
coords-type Cartesian
core-overlap-check none
coulomb-interaction Periodic
davidson-band-ratio 1.1
density-of-states Etol 1.000000e-06 Esigma 1.000000e-03 \
		Complete \
	Total \
	OrthoOrbital Pt 1   s \
	OrthoOrbital Pt 1   p \
	OrthoOrbital Pt 1   px \
	OrthoOrbital Pt 1   py \
	OrthoOrbital Pt 1   pz \
	OrthoOrbital Pt 1   d \
	OrthoOrbital Pt 1   dxy \
	OrthoOrbital Pt 1   dyz \
	OrthoOrbital Pt 1   dz2 \
	OrthoOrbital Pt 1   dxz \
	OrthoOrbital Pt 1   dx2-y2 \
	OrthoOrbital Pt 2   s \
	OrthoOrbital Pt 2   p \
	OrthoOrbital Pt 2   px \
	OrthoOrbital Pt 2   py \
	OrthoOrbital Pt 2   pz \
	OrthoOrbital Pt 2   d \
	OrthoOrbital Pt 2   dxy \
	OrthoOrbital Pt 2   dyz \
	OrthoOrbital Pt 2   dz2 \
	OrthoOrbital Pt 2   dxz \
	OrthoOrbital Pt 2   dx2-y2 \
	OrthoOrbital Pt 3   s \
	OrthoOrbital Pt 3   p \
	OrthoOrbital Pt 3   px \
	OrthoOrbital Pt 3   py \
	OrthoOrbital Pt 3   pz \
	OrthoOrbital Pt 3   d \
	OrthoOrbital Pt 3   dxy \
	OrthoOrbital Pt 3   dyz \
	OrthoOrbital Pt 3   dz2 \
	OrthoOrbital Pt 3   dxz \
	OrthoOrbital Pt 3   dx2-y2 \
	OrthoOrbital Pt 4   s \
	OrthoOrbital Pt 4   p \
	OrthoOrbital Pt 4   px \
	OrthoOrbital Pt 4   py \
	OrthoOrbital Pt 4   pz \
	OrthoOrbital Pt 4   d \
	OrthoOrbital Pt 4   dxy \
	OrthoOrbital Pt 4   dyz \
	OrthoOrbital Pt 4   dz2 \
	OrthoOrbital Pt 4   dxz \
	OrthoOrbital Pt 4   dx2-y2 \
	OrthoOrbital Pt 5   s \
	OrthoOrbital Pt 5   p \
	OrthoOrbital Pt 5   px \
	OrthoOrbital Pt 5   py \
	OrthoOrbital Pt 5   pz \
	OrthoOrbital Pt 5   d \
	OrthoOrbital Pt 5   dxy \
	OrthoOrbital Pt 5   dyz \
	OrthoOrbital Pt 5   dz2 \
	OrthoOrbital Pt 5   dxz \
	OrthoOrbital Pt 5   dx2-y2 \
	OrthoOrbital Pt 6   s \
	OrthoOrbital Pt 6   p \
	OrthoOrbital Pt 6   px \
	OrthoOrbital Pt 6   py \
	OrthoOrbital Pt 6   pz \
	OrthoOrbital Pt 6   d \
	OrthoOrbital Pt 6   dxy \
	OrthoOrbital Pt 6   dyz \
	OrthoOrbital Pt 6   dz2 \
	OrthoOrbital Pt 6   dxz \
	OrthoOrbital Pt 6   dx2-y2 \
	OrthoOrbital Pt 7   s \
	OrthoOrbital Pt 7   p \
	OrthoOrbital Pt 7   px \
	OrthoOrbital Pt 7   py \
	OrthoOrbital Pt 7   pz \
	OrthoOrbital Pt 7   d \
	OrthoOrbital Pt 7   dxy \
	OrthoOrbital Pt 7   dyz \
	OrthoOrbital Pt 7   dz2 \
	OrthoOrbital Pt 7   dxz \
	OrthoOrbital Pt 7   dx2-y2 \
	OrthoOrbital Pt 8   s \
	OrthoOrbital Pt 8   p \
	OrthoOrbital Pt 8   px \
	OrthoOrbital Pt 8   py \
	OrthoOrbital Pt 8   pz \
	OrthoOrbital Pt 8   d \
	OrthoOrbital Pt 8   dxy \
	OrthoOrbital Pt 8   dyz \
	OrthoOrbital Pt 8   dz2 \
	OrthoOrbital Pt 8   dxz \
	OrthoOrbital Pt 8   dx2-y2 \
	OrthoOrbital Pt 9   s \
	OrthoOrbital Pt 9   p \
	OrthoOrbital Pt 9   px \
	OrthoOrbital Pt 9   py \
	OrthoOrbital Pt 9   pz \
	OrthoOrbital Pt 9   d \
	OrthoOrbital Pt 9   dxy \
	OrthoOrbital Pt 9   dyz \
	OrthoOrbital Pt 9   dz2 \
	OrthoOrbital Pt 9   dxz \
	OrthoOrbital Pt 9   dx2-y2 \
	OrthoOrbital Pt 10   s \
	OrthoOrbital Pt 10   p \
	OrthoOrbital Pt 10   px \
	OrthoOrbital Pt 10   py \
	OrthoOrbital Pt 10   pz \
	OrthoOrbital Pt 10   d \
	OrthoOrbital Pt 10   dxy \
	OrthoOrbital Pt 10   dyz \
	OrthoOrbital Pt 10   dz2 \
	OrthoOrbital Pt 10   dxz \
	OrthoOrbital Pt 10   dx2-y2 \
	OrthoOrbital Pt 11   s \
	OrthoOrbital Pt 11   p \
	OrthoOrbital Pt 11   px \
	OrthoOrbital Pt 11   py \
	OrthoOrbital Pt 11   pz \
	OrthoOrbital Pt 11   d \
	OrthoOrbital Pt 11   dxy \
	OrthoOrbital Pt 11   dyz \
	OrthoOrbital Pt 11   dz2 \
	OrthoOrbital Pt 11   dxz \
	OrthoOrbital Pt 11   dx2-y2 \
	OrthoOrbital Pt 12   s \
	OrthoOrbital Pt 12   p \
	OrthoOrbital Pt 12   px \
	OrthoOrbital Pt 12   py \
	OrthoOrbital Pt 12   pz \
	OrthoOrbital Pt 12   d \
	OrthoOrbital Pt 12   dxy \
	OrthoOrbital Pt 12   dyz \
	OrthoOrbital Pt 12   dz2 \
	OrthoOrbital Pt 12   dxz \
	OrthoOrbital Pt 12   dx2-y2 \
	OrthoOrbital Pt 13   s \
	OrthoOrbital Pt 13   p \
	OrthoOrbital Pt 13   px \
	OrthoOrbital Pt 13   py \
	OrthoOrbital Pt 13   pz \
	OrthoOrbital Pt 13   d \
	OrthoOrbital Pt 13   dxy \
	OrthoOrbital Pt 13   dyz \
	OrthoOrbital Pt 13   dz2 \
	OrthoOrbital Pt 13   dxz \
	OrthoOrbital Pt 13   dx2-y2 \
	OrthoOrbital Pt 14   s \
	OrthoOrbital Pt 14   p \
	OrthoOrbital Pt 14   px \
	OrthoOrbital Pt 14   py \
	OrthoOrbital Pt 14   pz \
	OrthoOrbital Pt 14   d \
	OrthoOrbital Pt 14   dxy \
	OrthoOrbital Pt 14   dyz \
	OrthoOrbital Pt 14   dz2 \
	OrthoOrbital Pt 14   dxz \
	OrthoOrbital Pt 14   dx2-y2 \
	OrthoOrbital Pt 15   s \
	OrthoOrbital Pt 15   p \
	OrthoOrbital Pt 15   px \
	OrthoOrbital Pt 15   py \
	OrthoOrbital Pt 15   pz \
	OrthoOrbital Pt 15   d \
	OrthoOrbital Pt 15   dxy \
	OrthoOrbital Pt 15   dyz \
	OrthoOrbital Pt 15   dz2 \
	OrthoOrbital Pt 15   dxz \
	OrthoOrbital Pt 15   dx2-y2 \
	OrthoOrbital Pt 16   s \
	OrthoOrbital Pt 16   p \
	OrthoOrbital Pt 16   px \
	OrthoOrbital Pt 16   py \
	OrthoOrbital Pt 16   pz \
	OrthoOrbital Pt 16   d \
	OrthoOrbital Pt 16   dxy \
	OrthoOrbital Pt 16   dyz \
	OrthoOrbital Pt 16   dz2 \
	OrthoOrbital Pt 16   dxz \
	OrthoOrbital Pt 16   dx2-y2 \
	OrthoOrbital Pt 17   s \
	OrthoOrbital Pt 17   p \
	OrthoOrbital Pt 17   px \
	OrthoOrbital Pt 17   py \
	OrthoOrbital Pt 17   pz \
	OrthoOrbital Pt 17   d \
	OrthoOrbital Pt 17   dxy \
	OrthoOrbital Pt 17   dyz \
	OrthoOrbital Pt 17   dz2 \
	OrthoOrbital Pt 17   dxz \
	OrthoOrbital Pt 17   dx2-y2 \
	OrthoOrbital Pt 18   s \
	OrthoOrbital Pt 18   p \
	OrthoOrbital Pt 18   px \
	OrthoOrbital Pt 18   py \
	OrthoOrbital Pt 18   pz \
	OrthoOrbital Pt 18   d \
	OrthoOrbital Pt 18   dxy \
	OrthoOrbital Pt 18   dyz \
	OrthoOrbital Pt 18   dz2 \
	OrthoOrbital Pt 18   dxz \
	OrthoOrbital Pt 18   dx2-y2 \
	OrthoOrbital Pt 19   s \
	OrthoOrbital Pt 19   p \
	OrthoOrbital Pt 19   px \
	OrthoOrbital Pt 19   py \
	OrthoOrbital Pt 19   pz \
	OrthoOrbital Pt 19   d \
	OrthoOrbital Pt 19   dxy \
	OrthoOrbital Pt 19   dyz \
	OrthoOrbital Pt 19   dz2 \
	OrthoOrbital Pt 19   dxz \
	OrthoOrbital Pt 19   dx2-y2 \
	OrthoOrbital Pt 20   s \
	OrthoOrbital Pt 20   p \
	OrthoOrbital Pt 20   px \
	OrthoOrbital Pt 20   py \
	OrthoOrbital Pt 20   pz \
	OrthoOrbital Pt 20   d \
	OrthoOrbital Pt 20   dxy \
	OrthoOrbital Pt 20   dyz \
	OrthoOrbital Pt 20   dz2 \
	OrthoOrbital Pt 20   dxz \
	OrthoOrbital Pt 20   dx2-y2 \
	OrthoOrbital Pt 21   s \
	OrthoOrbital Pt 21   p \
	OrthoOrbital Pt 21   px \
	OrthoOrbital Pt 21   py \
	OrthoOrbital Pt 21   pz \
	OrthoOrbital Pt 21   d \
	OrthoOrbital Pt 21   dxy \
	OrthoOrbital Pt 21   dyz \
	OrthoOrbital Pt 21   dz2 \
	OrthoOrbital Pt 21   dxz \
	OrthoOrbital Pt 21   dx2-y2 \
	OrthoOrbital Pt 22   s \
	OrthoOrbital Pt 22   p \
	OrthoOrbital Pt 22   px \
	OrthoOrbital Pt 22   py \
	OrthoOrbital Pt 22   pz \
	OrthoOrbital Pt 22   d \
	OrthoOrbital Pt 22   dxy \
	OrthoOrbital Pt 22   dyz \
	OrthoOrbital Pt 22   dz2 \
	OrthoOrbital Pt 22   dxz \
	OrthoOrbital Pt 22   dx2-y2 \
	OrthoOrbital Pt 23   s \
	OrthoOrbital Pt 23   p \
	OrthoOrbital Pt 23   px \
	OrthoOrbital Pt 23   py \
	OrthoOrbital Pt 23   pz \
	OrthoOrbital Pt 23   d \
	OrthoOrbital Pt 23   dxy \
	OrthoOrbital Pt 23   dyz \
	OrthoOrbital Pt 23   dz2 \
	OrthoOrbital Pt 23   dxz \
	OrthoOrbital Pt 23   dx2-y2 \
	OrthoOrbital Pt 24   s \
	OrthoOrbital Pt 24   p \
	OrthoOrbital Pt 24   px \
	OrthoOrbital Pt 24   py \
	OrthoOrbital Pt 24   pz \
	OrthoOrbital Pt 24   d \
	OrthoOrbital Pt 24   dxy \
	OrthoOrbital Pt 24   dyz \
	OrthoOrbital Pt 24   dz2 \
	OrthoOrbital Pt 24   dxz \
	OrthoOrbital Pt 24   dx2-y2 \
	OrthoOrbital Pt 25   s \
	OrthoOrbital Pt 25   p \
	OrthoOrbital Pt 25   px \
	OrthoOrbital Pt 25   py \
	OrthoOrbital Pt 25   pz \
	OrthoOrbital Pt 25   d \
	OrthoOrbital Pt 25   dxy \
	OrthoOrbital Pt 25   dyz \
	OrthoOrbital Pt 25   dz2 \
	OrthoOrbital Pt 25   dxz \
	OrthoOrbital Pt 25   dx2-y2 \
	OrthoOrbital Pt 26   s \
	OrthoOrbital Pt 26   p \
	OrthoOrbital Pt 26   px \
	OrthoOrbital Pt 26   py \
	OrthoOrbital Pt 26   pz \
	OrthoOrbital Pt 26   d \
	OrthoOrbital Pt 26   dxy \
	OrthoOrbital Pt 26   dyz \
	OrthoOrbital Pt 26   dz2 \
	OrthoOrbital Pt 26   dxz \
	OrthoOrbital Pt 26   dx2-y2 \
	OrthoOrbital Pt 27   s \
	OrthoOrbital Pt 27   p \
	OrthoOrbital Pt 27   px \
	OrthoOrbital Pt 27   py \
	OrthoOrbital Pt 27   pz \
	OrthoOrbital Pt 27   d \
	OrthoOrbital Pt 27   dxy \
	OrthoOrbital Pt 27   dyz \
	OrthoOrbital Pt 27   dz2 \
	OrthoOrbital Pt 27   dxz \
	OrthoOrbital Pt 27   dx2-y2 \
	OrthoOrbital Pt 28   s \
	OrthoOrbital Pt 28   p \
	OrthoOrbital Pt 28   px \
	OrthoOrbital Pt 28   py \
	OrthoOrbital Pt 28   pz \
	OrthoOrbital Pt 28   d \
	OrthoOrbital Pt 28   dxy \
	OrthoOrbital Pt 28   dyz \
	OrthoOrbital Pt 28   dz2 \
	OrthoOrbital Pt 28   dxz \
	OrthoOrbital Pt 28   dx2-y2 \
	OrthoOrbital Pt 29   s \
	OrthoOrbital Pt 29   p \
	OrthoOrbital Pt 29   px \
	OrthoOrbital Pt 29   py \
	OrthoOrbital Pt 29   pz \
	OrthoOrbital Pt 29   d \
	OrthoOrbital Pt 29   dxy \
	OrthoOrbital Pt 29   dyz \
	OrthoOrbital Pt 29   dz2 \
	OrthoOrbital Pt 29   dxz \
	OrthoOrbital Pt 29   dx2-y2 \
	OrthoOrbital Pt 30   s \
	OrthoOrbital Pt 30   p \
	OrthoOrbital Pt 30   px \
	OrthoOrbital Pt 30   py \
	OrthoOrbital Pt 30   pz \
	OrthoOrbital Pt 30   d \
	OrthoOrbital Pt 30   dxy \
	OrthoOrbital Pt 30   dyz \
	OrthoOrbital Pt 30   dz2 \
	OrthoOrbital Pt 30   dxz \
	OrthoOrbital Pt 30   dx2-y2 \
	OrthoOrbital Pt 31   s \
	OrthoOrbital Pt 31   p \
	OrthoOrbital Pt 31   px \
	OrthoOrbital Pt 31   py \
	OrthoOrbital Pt 31   pz \
	OrthoOrbital Pt 31   d \
	OrthoOrbital Pt 31   dxy \
	OrthoOrbital Pt 31   dyz \
	OrthoOrbital Pt 31   dz2 \
	OrthoOrbital Pt 31   dxz \
	OrthoOrbital Pt 31   dx2-y2 \
	OrthoOrbital Pt 32   s \
	OrthoOrbital Pt 32   p \
	OrthoOrbital Pt 32   px \
	OrthoOrbital Pt 32   py \
	OrthoOrbital Pt 32   pz \
	OrthoOrbital Pt 32   d \
	OrthoOrbital Pt 32   dxy \
	OrthoOrbital Pt 32   dyz \
	OrthoOrbital Pt 32   dz2 \
	OrthoOrbital Pt 32   dxz \
	OrthoOrbital Pt 32   dx2-y2 \
	OrthoOrbital Pt 33   s \
	OrthoOrbital Pt 33   p \
	OrthoOrbital Pt 33   px \
	OrthoOrbital Pt 33   py \
	OrthoOrbital Pt 33   pz \
	OrthoOrbital Pt 33   d \
	OrthoOrbital Pt 33   dxy \
	OrthoOrbital Pt 33   dyz \
	OrthoOrbital Pt 33   dz2 \
	OrthoOrbital Pt 33   dxz \
	OrthoOrbital Pt 33   dx2-y2 \
	OrthoOrbital Pt 34   s \
	OrthoOrbital Pt 34   p \
	OrthoOrbital Pt 34   px \
	OrthoOrbital Pt 34   py \
	OrthoOrbital Pt 34   pz \
	OrthoOrbital Pt 34   d \
	OrthoOrbital Pt 34   dxy \
	OrthoOrbital Pt 34   dyz \
	OrthoOrbital Pt 34   dz2 \
	OrthoOrbital Pt 34   dxz \
	OrthoOrbital Pt 34   dx2-y2 \
	OrthoOrbital Pt 35   s \
	OrthoOrbital Pt 35   p \
	OrthoOrbital Pt 35   px \
	OrthoOrbital Pt 35   py \
	OrthoOrbital Pt 35   pz \
	OrthoOrbital Pt 35   d \
	OrthoOrbital Pt 35   dxy \
	OrthoOrbital Pt 35   dyz \
	OrthoOrbital Pt 35   dz2 \
	OrthoOrbital Pt 35   dxz \
	OrthoOrbital Pt 35   dx2-y2 \
	OrthoOrbital Pt 36   s \
	OrthoOrbital Pt 36   p \
	OrthoOrbital Pt 36   px \
	OrthoOrbital Pt 36   py \
	OrthoOrbital Pt 36   pz \
	OrthoOrbital Pt 36   d \
	OrthoOrbital Pt 36   dxy \
	OrthoOrbital Pt 36   dyz \
	OrthoOrbital Pt 36   dz2 \
	OrthoOrbital Pt 36   dxz \
	OrthoOrbital Pt 36   dx2-y2 \
	OrthoOrbital Pt 37   s \
	OrthoOrbital Pt 37   p \
	OrthoOrbital Pt 37   px \
	OrthoOrbital Pt 37   py \
	OrthoOrbital Pt 37   pz \
	OrthoOrbital Pt 37   d \
	OrthoOrbital Pt 37   dxy \
	OrthoOrbital Pt 37   dyz \
	OrthoOrbital Pt 37   dz2 \
	OrthoOrbital Pt 37   dxz \
	OrthoOrbital Pt 37   dx2-y2 \
	OrthoOrbital Pt 38   s \
	OrthoOrbital Pt 38   p \
	OrthoOrbital Pt 38   px \
	OrthoOrbital Pt 38   py \
	OrthoOrbital Pt 38   pz \
	OrthoOrbital Pt 38   d \
	OrthoOrbital Pt 38   dxy \
	OrthoOrbital Pt 38   dyz \
	OrthoOrbital Pt 38   dz2 \
	OrthoOrbital Pt 38   dxz \
	OrthoOrbital Pt 38   dx2-y2 \
	OrthoOrbital Pt 39   s \
	OrthoOrbital Pt 39   p \
	OrthoOrbital Pt 39   px \
	OrthoOrbital Pt 39   py \
	OrthoOrbital Pt 39   pz \
	OrthoOrbital Pt 39   d \
	OrthoOrbital Pt 39   dxy \
	OrthoOrbital Pt 39   dyz \
	OrthoOrbital Pt 39   dz2 \
	OrthoOrbital Pt 39   dxz \
	OrthoOrbital Pt 39   dx2-y2 \
	OrthoOrbital Pt 40   s \
	OrthoOrbital Pt 40   p \
	OrthoOrbital Pt 40   px \
	OrthoOrbital Pt 40   py \
	OrthoOrbital Pt 40   pz \
	OrthoOrbital Pt 40   d \
	OrthoOrbital Pt 40   dxy \
	OrthoOrbital Pt 40   dyz \
	OrthoOrbital Pt 40   dz2 \
	OrthoOrbital Pt 40   dxz \
	OrthoOrbital Pt 40   dx2-y2 \
	OrthoOrbital Pt 41   s \
	OrthoOrbital Pt 41   p \
	OrthoOrbital Pt 41   px \
	OrthoOrbital Pt 41   py \
	OrthoOrbital Pt 41   pz \
	OrthoOrbital Pt 41   d \
	OrthoOrbital Pt 41   dxy \
	OrthoOrbital Pt 41   dyz \
	OrthoOrbital Pt 41   dz2 \
	OrthoOrbital Pt 41   dxz \
	OrthoOrbital Pt 41   dx2-y2 \
	OrthoOrbital Pt 42   s \
	OrthoOrbital Pt 42   p \
	OrthoOrbital Pt 42   px \
	OrthoOrbital Pt 42   py \
	OrthoOrbital Pt 42   pz \
	OrthoOrbital Pt 42   d \
	OrthoOrbital Pt 42   dxy \
	OrthoOrbital Pt 42   dyz \
	OrthoOrbital Pt 42   dz2 \
	OrthoOrbital Pt 42   dxz \
	OrthoOrbital Pt 42   dx2-y2 \
	OrthoOrbital Pt 43   s \
	OrthoOrbital Pt 43   p \
	OrthoOrbital Pt 43   px \
	OrthoOrbital Pt 43   py \
	OrthoOrbital Pt 43   pz \
	OrthoOrbital Pt 43   d \
	OrthoOrbital Pt 43   dxy \
	OrthoOrbital Pt 43   dyz \
	OrthoOrbital Pt 43   dz2 \
	OrthoOrbital Pt 43   dxz \
	OrthoOrbital Pt 43   dx2-y2 \
	OrthoOrbital Pt 44   s \
	OrthoOrbital Pt 44   p \
	OrthoOrbital Pt 44   px \
	OrthoOrbital Pt 44   py \
	OrthoOrbital Pt 44   pz \
	OrthoOrbital Pt 44   d \
	OrthoOrbital Pt 44   dxy \
	OrthoOrbital Pt 44   dyz \
	OrthoOrbital Pt 44   dz2 \
	OrthoOrbital Pt 44   dxz \
	OrthoOrbital Pt 44   dx2-y2 \
	OrthoOrbital C 1   s \
	OrthoOrbital C 1   p \
	OrthoOrbital C 1   px \
	OrthoOrbital C 1   py \
	OrthoOrbital C 1   pz \
	OrthoOrbital O 1   s \
	OrthoOrbital O 1   p \
	OrthoOrbital O 1   px \
	OrthoOrbital O 1   py \
	OrthoOrbital O 1   pz
dump End ElecDensity KEdensity BandEigs EigStats RhoAtom DOS Kpoints
dump Ionic State IonicPositions Lattice EigStats Ecomponents
dump 
dump 
dump 
dump 
dump 
dump 
dump 
dump 
dump-name jdft.$VAR
elec-cutoff 20
elec-eigen-algo Davidson
elec-ex-corr gga-PBE
elec-initial-magnetization 0.000000 no
elec-n-bands 429
elec-smearing Fermi 0.001
electronic-minimize  \
	dirUpdateScheme      FletcherReeves \
	linminMethod         DirUpdateRecommended \
	nIterations          100 \
	history              15 \
	knormThreshold       0 \
	energyDiffThreshold  1e-07 \
	nEnergyDiff          2 \
	alphaTstart          1 \
	alphaTmin            1e-10 \
	updateTestStepSize   yes \
	alphaTreduceFactor   0.1 \
	alphaTincreaseFactor 3 \
	nAlphaAdjustMax      3 \
	wolfeEnergy          0.0001 \
	wolfeGradient        0.9 \
	fdTest               no
exchange-regularization WignerSeitzTruncated
fluid LinearPCM 298.000000 1.013250
fluid-anion F- 0.5 MeanFieldLJ \
	epsBulk 1 \
	pMol 0 \
	epsInf 1 \
	Pvap 0 \
	sigmaBulk 0 \
	Rvdw 2.24877 \
	Res 0 \
	tauNuc 343133
fluid-cation Na+ 0.5 MeanFieldLJ \
	epsBulk 1 \
	pMol 0 \
	epsInf 1 \
	Pvap 0 \
	sigmaBulk 0 \
	Rvdw 2.19208 \
	Res 0 \
	tauNuc 343133
fluid-ex-corr lda-TF lda-PZ
fluid-gummel-loop 10 1.000000e-05
fluid-minimize  \
	dirUpdateScheme      PolakRibiere \
	linminMethod         DirUpdateRecommended \
	nIterations          400 \
	history              15 \
	knormThreshold       1e-11 \
	energyDiffThreshold  0 \
	nEnergyDiff          2 \
	alphaTstart          1 \
	alphaTmin            1e-10 \
	updateTestStepSize   yes \
	alphaTreduceFactor   0.1 \
	alphaTincreaseFactor 3 \
	nAlphaAdjustMax      6 \
	wolfeEnergy          0.0001 \
	wolfeGradient        0.9 \
	fdTest               no
fluid-solvent H2O 55.338 ScalarEOS \
	epsBulk 78.4 \
	pMol 0.92466 \
	epsInf 1.77 \
	Pvap 1.06736e-10 \
	sigmaBulk 4.62e-05 \
	Rvdw 2.61727 \
	Res 1.42 \
	tauNuc 343133 \
	poleEl 15 7 1
forces-output-coords Positions
ion Pt   5.241340000000000   0.218295000000000  23.220851000000003 0
ion Pt   2.625348000000001   8.894560000000000  23.220851000000003 0
ion Pt   0.009344000000000   0.218295000000000  23.220851000000003 0
ion Pt  -2.606647000000000   8.894560000000000  23.220851000000003 0
ion Pt  -0.009459000000000   4.514096000000000   1.317516000000000 0
ion Pt  -2.625445999999999  13.190378999999998   1.317516000000000 0
ion Pt   5.222547000000000   4.514096000000000   1.317516000000000 0
ion Pt   2.606540000000002  13.190378999999998   1.317516000000000 0
ion Pt   2.606795000000000   0.560262000000000   3.078081000000000 0
ion Pt  -0.009207000000000   9.236561999999999   3.078081000000000 0
ion Pt   7.838791000000000   0.560262000000000   3.078081000000000 0
ion Pt   5.222789000000000   9.236561999999999   3.078081000000000 0
ion Pt   2.609997000000000   5.509561000000000   5.634781000000000 0
ion Pt  -0.006004999999998  14.185860999999997   5.634781000000000 0
ion Pt   7.841993000000000   5.509561000000000   5.634781000000000 0
ion Pt   5.225991000000001  14.185860999999997   5.634781000000000 0
ion Pt  -0.003359000000000   1.572871000000000   7.779941000000001 0
ion Pt  -2.619355999999999  10.249154000000001   7.779941000000001 0
ion Pt   5.228637000000000   1.572871000000000   7.779941000000001 0
ion Pt   2.612640000000000  10.249154000000001   7.779941000000001 0
ion Pt  -0.002505000000000   6.318328999999999  10.051066000000002 0
ion Pt  -2.618501999999999  14.994611999999998  10.051066000000002 0
ion Pt   5.229490000000001   6.318328999999999  10.051066000000002 0
ion Pt   2.613493000000001  14.994611999999998  10.051066000000002 0
ion Pt   2.616171000000000   2.366906999999999  12.270803000000001 0
ion Pt   0.000174000000001  11.043189999999997  12.270803000000001 0
ion Pt   7.848167000000002   2.366906999999999  12.270803000000001 0
ion Pt   5.232170000000000  11.043189999999997  12.270803000000001 0
ion Pt   2.618583000000000   7.091334000000000  14.490026000000002 0
ion Pt   0.002581000000000  15.767633999999997  14.490026000000002 0
ion Pt   7.850579000000000   7.091334000000000  14.490026000000002 0
ion Pt   5.234577000000002  15.767633999999997  14.490026000000002 0
ion Pt   0.003506000000000   3.159276999999999  16.761077000000000 0
ion Pt  -2.612480999999999  11.835559999999999  16.761077000000000 0
ion Pt   5.235502000000000   3.159276999999999  16.761077000000000 0
ion Pt   2.619515000000000  11.835559999999999  16.761077000000000 0
ion Pt   0.005971000000000   7.898454000000000  18.905721000000000 0
ion Pt  -2.610025999999999  16.574736000000001  18.905721000000000 0
ion Pt   5.237966000000002   7.898454000000000  18.905721000000000 0
ion Pt   2.621969000000001  16.574736000000001  18.905721000000000 0
ion Pt   2.624935000000000   4.172007999999999  21.461684999999999 0
ion Pt   0.008938000000001  12.848289999999999  21.461684999999999 0
ion Pt   7.856931000000001   4.172007999999999  21.461684999999999 0
ion Pt   5.240934000000001  12.848289999999999  21.461684999999999 0
ion C   2.625348000000001   8.894560000000000  26.264110000000002 1  Linear 0 0 1
ion O   2.685443000000001   8.894560000000000  28.419430000000002 1  Linear 0 0 1
ion-species /projects/musgravc/apps/jdftx-1.6.0/build/pseudopotentials/GBRV_v1.5/$ID_pbe_v1.uspp
ion-species /projects/musgravc/apps/jdftx-1.6.0/build/pseudopotentials/GBRV_v1.5/$ID_pbe_v1.2.uspp
ion-species /projects/musgravc/apps/jdftx-1.6.0/build/pseudopotentials/GBRV_v1.5/$ID_pbe_v1.4.uspp
ion-species /projects/musgravc/apps/jdftx-1.6.0/build/pseudopotentials/GBRV_v1.5/$ID_pbe_v1.5.uspp
ion-width Ecut
ionic-minimize  \
	dirUpdateScheme      L-BFGS \
	linminMethod         DirUpdateRecommended \
	nIterations          100 \
	history              15 \
	knormThreshold       0.0001 \
	energyDiffThreshold  1e-06 \
	nEnergyDiff          2 \
	alphaTstart          1 \
	alphaTmin            1e-10 \
	updateTestStepSize   yes \
	alphaTreduceFactor   0.1 \
	alphaTincreaseFactor 3 \
	nAlphaAdjustMax      3 \
	wolfeEnergy          0.0001 \
	wolfeGradient        0.9 \
	fdTest               no
kpoint   0.000000000000   0.000000000000   0.000000000000  1.00000000000000
kpoint-folding 6 3 1 
latt-move-scale 0 0 0
latt-scale 1 1 1 
lattice  \
	  10.463991999999999   -5.231994000000000    0.000000000000000  \
	   0.000000000000000   17.352564999999998    0.000000000000000  \
	   0.000000000000000    0.000000000000000   73.620697000000007 
lattice-minimize  \
	dirUpdateScheme      L-BFGS \
	linminMethod         DirUpdateRecommended \
	nIterations          0 \
	history              15 \
	knormThreshold       0 \
	energyDiffThreshold  1e-06 \
	nEnergyDiff          2 \
	alphaTstart          1 \
	alphaTmin            1e-10 \
	updateTestStepSize   yes \
	alphaTreduceFactor   0.1 \
	alphaTincreaseFactor 3 \
	nAlphaAdjustMax      3 \
	wolfeEnergy          0.0001 \
	wolfeGradient        0.9 \
	fdTest               no
lcao-params 30 1e-06 0.001
pcm-variant CANDLE
spintype z-spin
subspace-rotation-factor 1 yes
symmetries automatic
symmetry-threshold 0.0001
van-der-waals D3



---------- Setting up symmetries ----------

Found 8 point-group symmetries of the bravais lattice
Found 1 space-group symmetries with basis
Applied RMS atom displacement 0 bohrs to make symmetries exact.

---------- Initializing the Grid ----------
R = 
[       10.464     -5.23199            0  ]
[            0      17.3526            0  ]
[            0            0      73.6207  ]
unit cell volume = 13367.8
G =
[   0.600458   0.181045         -0  ]
[          0    0.36209          0  ]
[          0         -0  0.0853454  ]
Minimum fftbox size, Smin = [  44  76  300  ]
Chosen fftbox size, S = [  48  80  300  ]

---------- Exchange Correlation functional ----------
Initalized PBE GGA exchange.
Initalized PBE GGA correlation.

---------- Setting up pseudopotentials ----------
Width of ionic core gaussian charges (only for fluid interactions / plotting) set to 0.397384

Reading pseudopotential file '/projects/musgravc/apps/jdftx-1.6.0/build/pseudopotentials/GBRV_v1.5/pt_pbe_v1.4.uspp':
  Title: Pt.  Created by USPP 7.3.6 on 31-3-15
  Reference state energy: -105.002503.  16 valence electrons in orbitals:
    |510>  occupation: 6  eigenvalue: -2.158104
    |520>  occupation: 9.5  eigenvalue: -0.335376
    |600>  occupation: 0  eigenvalue: -0.319640
    |610>  occupation: 0  eigenvalue: -0.122947
  lMax: 2  lLocal: 3  QijEcut: 5.5
  6 projectors sampled on a log grid with 745 points:
    l: 0  eig: -0.319640  rCut: 2.45
    l: 0  eig: 1.500000  rCut: 2.45
    l: 1  eig: -2.158104  rCut: 1.6
    l: 1  eig: -0.122947  rCut: 1.6
    l: 2  eig: -0.500000  rCut: 1.6
    l: 2  eig: -0.335375  rCut: 1.6
  Partial core density with radius 1.1
  Transforming core density to a uniform radial grid of dG=0.02 with 1353 points.
  Transforming local potential to a uniform radial grid of dG=0.02 with 1353 points.
  Transforming nonlocal projectors to a uniform radial grid of dG=0.02 with 432 points.
  Transforming density augmentations to a uniform radial grid of dG=0.02 with 1353 points.
  Transforming atomic orbitals to a uniform radial grid of dG=0.02 with 432 points.
  Core radius for overlap checks: 2.45 bohrs.

Reading pseudopotential file '/projects/musgravc/apps/jdftx-1.6.0/build/pseudopotentials/GBRV_v1.5/c_pbe_v1.2.uspp':
  Title: C.  Created by USPP 7.3.6 on 3-2-2014
  Reference state energy: -5.406344.  4 valence electrons in orbitals:
    |200>  occupation: 2  eigenvalue: -0.504890
    |210>  occupation: 2  eigenvalue: -0.194356
  lMax: 1  lLocal: 2  QijEcut: 5
  4 projectors sampled on a log grid with 503 points:
    l: 0  eig: -0.504890  rCut: 1.3
    l: 0  eig: 0.000000  rCut: 1.3
    l: 1  eig: -0.194357  rCut: 1.3
    l: 1  eig: 0.000000  rCut: 1.3
  Partial core density with radius 1.1
  Transforming core density to a uniform radial grid of dG=0.02 with 1353 points.
  Transforming local potential to a uniform radial grid of dG=0.02 with 1353 points.
  Transforming nonlocal projectors to a uniform radial grid of dG=0.02 with 432 points.
  Transforming density augmentations to a uniform radial grid of dG=0.02 with 1353 points.
  Transforming atomic orbitals to a uniform radial grid of dG=0.02 with 432 points.
  Core radius for overlap checks: 1.30 bohrs.

Reading pseudopotential file '/projects/musgravc/apps/jdftx-1.6.0/build/pseudopotentials/GBRV_v1.5/o_pbe_v1.2.uspp':
  Title: O.  Created by USPP 7.3.6 on 3-2-2014
  Reference state energy: -15.894388.  6 valence electrons in orbitals:
    |200>  occupation: 2  eigenvalue: -0.878823
    |210>  occupation: 4  eigenvalue: -0.332131
  lMax: 2  lLocal: 2  QijEcut: 6
  5 projectors sampled on a log grid with 511 points:
    l: 0  eig: -0.878823  rCut: 1.25
    l: 0  eig: 0.000000  rCut: 1.25
    l: 1  eig: -0.332132  rCut: 1.25
    l: 1  eig: 0.000000  rCut: 1.25
    l: 2  eig: 1.000000  rCut: 1.25
  Partial core density with radius 0.7
  Transforming core density to a uniform radial grid of dG=0.02 with 1353 points.
  Transforming local potential to a uniform radial grid of dG=0.02 with 1353 points.
  Transforming nonlocal projectors to a uniform radial grid of dG=0.02 with 432 points.
  Transforming density augmentations to a uniform radial grid of dG=0.02 with 1353 points.
  Transforming atomic orbitals to a uniform radial grid of dG=0.02 with 432 points.
  Core radius for overlap checks: 1.25 bohrs.

Initialized 3 species with 46 total atoms.

Folded 1 k-points by 6x3x1 to 18 k-points.

---------- Setting up k-points, bands, fillings ----------
Adding inversion symmetry to k-mesh for non-inversion-symmetric unit cell.
Reduced to 10 k-points under symmetry. 
Computing the number of bands and number of electrons
Calculating initial fillings.
nElectrons: 714.000000   nBands: 429   nStates: 20

----- Setting up reduced wavefunction bases (one per k-point) -----
average nbasis = 57117.722 , ideal nbasis = 57108.400

----- Initializing Supercell corresponding to k-point mesh -----
Lattice vector linear combinations in supercell:
[   6   0   0  ]
[   0   3   0  ]
[   0   0   1  ]
Supercell lattice vectors:
[  62.784  -15.696  0  ]
[  0  52.0577  0  ]
[  0  0  73.6207  ]

Initializing DFT-D3 calculator:
	Parameters set for gga-PBE functional
	s6:  1.000  s_r6:  1.217
	s8:  0.722  s_r8:  1.000
	Per-atom parameters loaded for:
	Pt:  sqrtQ[a0]:  5.888  Rcov[a0]:  2.116  CN: [ 0.00 1.92 6.67 ]
	 C:  sqrtQ[a0]:  3.105  Rcov[a0]:  1.417  CN: [ 0.00 0.99 2.00 3.00 3.98 ]
	 O:  sqrtQ[a0]:  2.594  Rcov[a0]:  1.191  CN: [ 0.00 0.99 1.99 ]

Initializing DFT-D2 calculator for fluid / solvation:
	Pt:  C6:  815.23 Eh-a0^6  R0: 3.326 a0 (WARNING: beyond Grimme's data set)
	 C:  C6:   30.35 Eh-a0^6  R0: 2.744 a0
	 O:  C6:   12.14 Eh-a0^6  R0: 2.536 a0

---------- Setting up ewald sum ----------
Optimum gaussian width for ewald sums = 5.001928 bohr.
Real space sum over 585 unit cells with max indices [  6  4  2  ]
Reciprocal space sum over 8085 terms with max indices [  5  7  24  ]

Computing DFT-D3 correction:
# coordination-number Pt 5.958 7.038 5.958 6.016 5.954 5.954 5.954 5.954 7.677 7.677 7.677 7.677 9.494 9.494 9.494 9.494 9.261 9.261 9.261 9.261 9.597 9.597 9.597 9.597 9.519 9.519 9.519 9.519 9.598 9.598 9.598 9.598 9.264 9.264 9.264 9.264 9.499 9.497 9.499 9.497 7.689 7.689 7.682 7.689
# coordination-number C 2.091
# coordination-number O 1.089
# diagonal-C6 Pt 336.87 336.87 336.87 336.87 336.87 336.87 336.87 336.87 336.87 336.87 336.87 336.87 336.87 336.87 336.87 336.87 336.87 336.87 336.87 336.87 336.87 336.87 336.87 336.87 336.87 336.87 336.87 336.87 336.87 336.87 336.87 336.87 336.87 336.87 336.87 336.87 336.87 336.87 336.87 336.87 336.87 336.87 336.87 336.87
# diagonal-C6 C 29.32
# diagonal-C6 O 12.74
EvdW_6 =   -0.390411
EvdW_8 =   -0.630159

---------- Allocating electronic variables ----------
Initializing wave functions:  linear combination of atomic orbitals
Pt pseudo-atom occupations:   s ( 0 )  p ( 6 0 )  d ( 10 )
C pseudo-atom occupations:   s ( 2 )  p ( 2 )
O pseudo-atom occupations:   s ( 2 )  p ( 4 )
	FillingsUpdate:  mu: -1.394685557  nElectrons: 714.000000  magneticMoment: [ Abs: 0.00350  Tot: -0.00024 ]
LCAOMinimize: Iter:   0  F: -3914.9477197221958704  |grad|_K:  1.682e-02  alpha:  1.000e+00
LCAOMinimize: 	Step increased F by 4.910915e+02, reducing alpha to 1.887509e-02.
	FillingsUpdate:  mu: -0.065989578  nElectrons: 714.000000  magneticMoment: [ Abs: 0.00303  Tot: +0.00015 ]
LCAOMinimize: Iter:   1  F: -3928.6592515203101357  |grad|_K:  4.886e-03  alpha:  1.888e-02  linmin:  8.280e-02  cgtest: -5.256e-01  t[s]:    302.56
	FillingsUpdate:  mu: +0.387027253  nElectrons: 714.000000  magneticMoment: [ Abs: 0.00268  Tot: -0.00001 ]
LCAOMinimize: Iter:   2  F: -3930.3249807252263963  |grad|_K:  8.618e-03  alpha:  4.074e-02  linmin:  6.157e-03  cgtest:  4.154e-01  t[s]:    392.41
	FillingsUpdate:  mu: +0.151981228  nElectrons: 714.000000  magneticMoment: [ Abs: 0.00254  Tot: -0.00007 ]
LCAOMinimize: Iter:   3  F: -3933.0179611423918686  |grad|_K:  3.760e-03  alpha:  1.102e-02  linmin: -2.434e-02  cgtest:  8.870e-02  t[s]:    481.81
	FillingsUpdate:  mu: +0.031040085  nElectrons: 714.000000  magneticMoment: [ Abs: 0.00250  Tot: -0.00007 ]
LCAOMinimize: Iter:   4  F: -3933.5394411904162553  |grad|_K:  2.496e-03  alpha:  1.157e-02  linmin:  6.150e-03  cgtest: -1.880e-01  t[s]:    571.19
	FillingsUpdate:  mu: -0.031443761  nElectrons: 714.000000  magneticMoment: [ Abs: 0.00244  Tot: -0.00003 ]
LCAOMinimize: Iter:   5  F: -3933.8106948742761233  |grad|_K:  2.959e-03  alpha:  1.609e-02  linmin:  4.128e-03  cgtest:  1.483e-01  t[s]:    661.68
	FillingsUpdate:  mu: +0.050587443  nElectrons: 714.000000  magneticMoment: [ Abs: 0.00221  Tot: -0.00007 ]
LCAOMinimize: Iter:   6  F: -3934.7854606226751457  |grad|_K:  1.412e-03  alpha:  3.935e-02  linmin: -9.810e-03  cgtest:  4.838e-01  t[s]:    751.61
LCAOMinimize: Encountered beta<0, resetting CG.
	FillingsUpdate:  mu: +0.139191156  nElectrons: 714.000000  magneticMoment: [ Abs: 0.00218  Tot: -0.00009 ]
LCAOMinimize: Iter:   7  F: -3934.9131970884195653  |grad|_K:  1.720e-03  alpha:  2.258e-02  linmin:  6.613e-04  cgtest: -2.165e-02  t[s]:    841.24
	FillingsUpdate:  mu: +0.138689586  nElectrons: 714.000000  magneticMoment: [ Abs: 0.00216  Tot: -0.00008 ]
LCAOMinimize: Iter:   8  F: -3934.9858321926776625  |grad|_K:  1.054e-03  alpha:  7.980e-03  linmin: -8.039e-03  cgtest:  1.496e-01  t[s]:    930.80
LCAOMinimize: 	Predicted alpha/alphaT>3.000000, increasing alphaT to 2.394117e-02.
	FillingsUpdate:  mu: +0.075634228  nElectrons: 714.000000  magneticMoment: [ Abs: 0.00213  Tot: -0.00006 ]
LCAOMinimize: Iter:   9  F: -3935.0795561778040792  |grad|_K:  8.953e-04  alpha:  2.823e-02  linmin:  1.734e-03  cgtest: -9.569e-02  t[s]:   1044.44
	FillingsUpdate:  mu: +0.186741785  nElectrons: 714.000000  magneticMoment: [ Abs: 0.00202  Tot: -0.00004 ]
LCAOMinimize: Iter:  10  F: -3935.2157497560287993  |grad|_K:  2.275e-03  alpha:  6.090e-02  linmin:  8.600e-04  cgtest:  4.933e-02  t[s]:   1133.73
	FillingsUpdate:  mu: +0.160625905  nElectrons: 714.000000  magneticMoment: [ Abs: 0.00192  Tot: -0.00002 ]
LCAOMinimize: Iter:  11  F: -3935.3383347049184522  |grad|_K:  8.724e-04  alpha:  8.533e-03  linmin:  1.064e-03  cgtest: -3.600e-02  t[s]:   1223.15
LCAOMinimize: 	Predicted alpha/alphaT>3.000000, increasing alphaT to 2.560038e-02.
LCAOMinimize: 	Predicted alpha/alphaT>3.000000, increasing alphaT to 7.680114e-02.
	FillingsUpdate:  mu: +0.167003205  nElectrons: 714.000000  magneticMoment: [ Abs: 0.00182  Tot: +0.00000 ]
LCAOMinimize: Iter:  12  F: -3935.5084894083393010  |grad|_K:  7.543e-04  alpha:  7.869e-02  linmin:  3.597e-04  cgtest: -2.214e-02  t[s]:   1360.30
	FillingsUpdate:  mu: +0.153252143  nElectrons: 714.000000  magneticMoment: [ Abs: 0.00181  Tot: +0.00001 ]
LCAOMinimize: Iter:  13  F: -3935.5202071247385902  |grad|_K:  5.913e-04  alpha:  7.331e-03  linmin:  1.295e-03  cgtest: -2.766e-02  t[s]:   1449.68
LCAOMinimize: 	Predicted alpha/alphaT>3.000000, increasing alphaT to 2.199184e-02.
	FillingsUpdate:  mu: +0.121872294  nElectrons: 714.000000  magneticMoment: [ Abs: 0.00181  Tot: +0.00002 ]
LCAOMinimize: Iter:  14  F: -3935.5427877938700476  |grad|_K:  4.136e-04  alpha:  2.290e-02  linmin:  8.389e-04  cgtest:  4.575e-02  t[s]:   1562.93
	FillingsUpdate:  mu: +0.135171460  nElectrons: 714.000000  magneticMoment: [ Abs: 0.00180  Tot: +0.00002 ]
LCAOMinimize: Iter:  15  F: -3935.5545035082091090  |grad|_K:  2.038e-04  alpha:  2.397e-02  linmin: -6.751e-04  cgtest:  2.097e-02  t[s]:   1652.30
	FillingsUpdate:  mu: +0.139009120  nElectrons: 714.000000  magneticMoment: [ Abs: 0.00180  Tot: +0.00001 ]
LCAOMinimize: Iter:  16  F: -3935.5601142809382509  |grad|_K:  4.451e-04  alpha:  4.675e-02  linmin:  1.032e-04  cgtest: -1.689e-03  t[s]:   1741.95
	FillingsUpdate:  mu: +0.130970981  nElectrons: 714.000000  magneticMoment: [ Abs: 0.00180  Tot: +0.00001 ]
LCAOMinimize: Iter:  17  F: -3935.5643259532512275  |grad|_K:  1.266e-04  alpha:  7.322e-03  linmin: -1.493e-03  cgtest:  4.298e-02  t[s]:   1831.45
LCAOMinimize: 	Predicted alpha/alphaT>3.000000, increasing alphaT to 2.196593e-02.
	FillingsUpdate:  mu: +0.136510932  nElectrons: 714.000000  magneticMoment: [ Abs: 0.00180  Tot: +0.00001 ]
LCAOMinimize: Iter:  18  F: -3935.5668731225805459  |grad|_K:  1.065e-04  alpha:  5.523e-02  linmin:  2.738e-03  cgtest: -2.546e-02  t[s]:   1944.83
	FillingsUpdate:  mu: +0.127836736  nElectrons: 714.000000  magneticMoment: [ Abs: 0.00181  Tot: +0.00001 ]
LCAOMinimize: Iter:  19  F: -3935.5677281737357589  |grad|_K:  8.719e-05  alpha:  2.653e-02  linmin: -2.421e-04  cgtest:  3.228e-02  t[s]:   2034.39
	FillingsUpdate:  mu: +0.124715768  nElectrons: 714.000000  magneticMoment: [ Abs: 0.00181  Tot: +0.00000 ]
LCAOMinimize: Iter:  20  F: -3935.5693373979397620  |grad|_K:  1.286e-04  alpha:  7.345e-02  linmin:  2.196e-04  cgtest: -1.442e-02  t[s]:   2123.84
	FillingsUpdate:  mu: +0.123629225  nElectrons: 714.000000  magneticMoment: [ Abs: 0.00182  Tot: +0.00000 ]
LCAOMinimize: Iter:  21  F: -3935.5695807888932904  |grad|_K:  5.268e-05  alpha:  5.254e-03  linmin:  3.349e-03  cgtest: -4.469e-02  t[s]:   2213.96
LCAOMinimize: 	Predicted alpha/alphaT>3.000000, increasing alphaT to 1.576306e-02.
	FillingsUpdate:  mu: +0.120269887  nElectrons: 714.000000  magneticMoment: [ Abs: 0.00182  Tot: +0.00000 ]
LCAOMinimize: Iter:  22  F: -3935.5699085806145376  |grad|_K:  2.461e-05  alpha:  4.213e-02  linmin:  4.530e-04  cgtest:  1.208e-01  t[s]:   2326.94
	FillingsUpdate:  mu: +0.121564398  nElectrons: 714.000000  magneticMoment: [ Abs: 0.00182  Tot: -0.00000 ]
LCAOMinimize: Iter:  23  F: -3935.5699828788306149  |grad|_K:  4.476e-05  alpha:  4.260e-02  linmin:  4.300e-05  cgtest: -5.065e-04  t[s]:   2416.43
	FillingsUpdate:  mu: +0.121637091  nElectrons: 714.000000  magneticMoment: [ Abs: 0.00182  Tot: -0.00000 ]
LCAOMinimize: Iter:  24  F: -3935.5700332157807679  |grad|_K:  3.452e-05  alpha:  8.746e-03  linmin:  1.475e-04  cgtest: -2.320e-03  t[s]:   2505.93
	FillingsUpdate:  mu: +0.119744304  nElectrons: 714.000000  magneticMoment: [ Abs: 0.00182  Tot: -0.00000 ]
LCAOMinimize: Iter:  25  F: -3935.5701061464310442  |grad|_K:  2.025e-05  alpha:  2.128e-02  linmin:  3.383e-05  cgtest:  2.912e-03  t[s]:   2595.42
LCAOMinimize: 	Predicted alpha/alphaT>3.000000, increasing alphaT to 6.383186e-02.
	FillingsUpdate:  mu: +0.121026248  nElectrons: 714.000000  magneticMoment: [ Abs: 0.00183  Tot: -0.00000 ]
LCAOMinimize: Iter:  26  F: -3935.5702107001525292  |grad|_K:  1.945e-05  alpha:  8.851e-02  linmin:  9.629e-05  cgtest: -2.542e-03  t[s]:   2708.46
	FillingsUpdate:  mu: +0.121047599  nElectrons: 714.000000  magneticMoment: [ Abs: 0.00183  Tot: -0.00000 ]
LCAOMinimize: Iter:  27  F: -3935.5702201134258758  |grad|_K:  1.971e-05  alpha:  8.647e-03  linmin:  4.391e-05  cgtest:  2.748e-04  t[s]:   2798.07
LCAOMinimize: 	Predicted alpha/alphaT>3.000000, increasing alphaT to 2.594031e-02.
	FillingsUpdate:  mu: +0.121028458  nElectrons: 714.000000  magneticMoment: [ Abs: 0.00183  Tot: -0.00000 ]
LCAOMinimize: Iter:  28  F: -3935.5702562693077198  |grad|_K:  1.071e-05  alpha:  3.229e-02  linmin:  1.963e-06  cgtest: -7.271e-03  t[s]:   2911.24
	FillingsUpdate:  mu: +0.121949631  nElectrons: 714.000000  magneticMoment: [ Abs: 0.00183  Tot: -0.00000 ]
LCAOMinimize: Iter:  29  F: -3935.5702706407655569  |grad|_K:  1.269e-05  alpha:  4.349e-02  linmin: -2.541e-06  cgtest: -2.667e-04  t[s]:   3001.02
	FillingsUpdate:  mu: +0.121460514  nElectrons: 714.000000  magneticMoment: [ Abs: 0.00184  Tot: -0.00000 ]
LCAOMinimize: Iter:  30  F: -3935.5702833023447056  |grad|_K:  1.520e-05  alpha:  2.727e-02  linmin:  2.840e-06  cgtest: -4.479e-04  t[s]:   3091.28
LCAOMinimize: None of the convergence criteria satisfied after 30 iterations.
----- createFluidSolver() ----- (Fluid-side solver setup)
   Initializing fluid molecule 'H2O'
     Initializing site 'O'
       Electron density: proportional to exp(-r/0.36935)*erfc((r-0.51523)/0.36823) with norm 6.826
       Charge density: gaussian nuclear width 0.478731 with net site charge 0.826
       Polarizability: cuspless exponential with width 0.32 and norm 3.73
       Hard sphere radius: 2.57003 bohrs
       Positions in reference frame:
         [ +0.000000 +0.000000 +0.000000 ]
     Initializing site 'H'
       Electron density: proportional to exp(-r/0.34641)*erfc((r-0)/0.390882) with norm 0.587
       Charge density: gaussian nuclear width 0.377945 with net site charge -0.413
       Polarizability: cuspless exponential with width 0.39 and norm 3.3
       Positions in reference frame:
         [ +0.000000 -1.441945 +1.122523 ]
         [ +0.000000 +1.441945 +1.122523 ]
     Net charge: 0   dipole magnitude: 0.927204
     Initializing spherical shell mfKernel with radius 2.61727 Bohr
     deltaS corrections:
       site 'O': -7.54299
       site 'H': -6.83917
   Initializing fluid molecule 'Na+'
     Initializing site 'Na'
       Electron density: proportional to exp(-r/0.19682)*erfc((r-0.71491)/0.41314) with norm 8.1383
       Charge density: gaussian nuclear width 0.365347 with net site charge -1
       Hard sphere radius: 1.86327 bohrs
       Positions in reference frame:
         [ +0.000000 +0.000000 +0.000000 ]
     Net charge: -1   dipole magnitude: 0
     Initializing gaussian mfKernel with width: 1.55004 Bohr
     deltaS corrections:
       site 'Na': -22.3555
   Initializing fluid molecule 'F-'
     Initializing site 'F'
       Electron density: proportional to exp(-r/0.38886)*erfc((r-0)/0.438782) with norm 8
       Charge density: gaussian nuclear width 0.374796 with net site charge 1
       Hard sphere radius: 2.39995 bohrs
       Positions in reference frame:
         [ +0.000000 +0.000000 +0.000000 ]
     Net charge: 1   dipole magnitude: 0
     Initializing gaussian mfKernel with width: 1.59012 Bohr
     deltaS corrections:
       site 'F': -9.04335

Correction to mu due to finite nuclear width = -0.0529952
   Cavity determined by nc: 0.00142 and sigma: 0.707107
   Nonlocal vdW cavity from gaussian model electron density with norm = 8 and sigma = 0.993594 bohr
   Charge asymmetry in cavity with sensitivity pCavity = 36.5 e-bohr/Eh
   Electrostatic cavity expanded by eta = 1.46 bohrs
   Weighted density cavitation model constrained by Nbulk: 0.0049383 bohr^-3, Pvap: 3.14029 kPa, Rvdw: 2.61727 bohr and sigmaBulk: 4.62e-05 Eh/bohr^2 at T: 298 K.
   Weighted density dispersion model using vdW pair potentials with single solvent site with sqrtC6eff: 0.77 SI.


---- Citations for features of the code used in this run ----

   Software package:
      R. Sundararaman, K. Letchworth-Weaver, K.A. Schwarz, D. Gunceler, Y. Ozhabes and T.A. Arias, 'JDFTx: software for joint density-functional theory', SoftwareX 6, 278 (2017)

   gga-PBE exchange-correlation functional:
      J.P. Perdew, K. Burke and M. Ernzerhof, Phys. Rev. Lett. 77, 3865 (1996)

   Pseudopotentials:
      KF Garrity, JW Bennett, KM Rabe and D Vanderbilt, Comput. Mater. Sci. 81, 446 (2014)

   DFT-D3 dispersion correction:
      S. Grimme, J. Antony, S. Ehrlich and H. Krieg, J. Chem. Phys. 132, 154104 (2010)

   DFT-D2 dispersion correction:
      S. Grimme, J. Comput. Chem. 27, 1787 (2006)

   Charge-asymmetric nonlocally-determined local-electric (CANDLE) solvation model:
      R. Sundararaman and W.A. Goddard III, J. Chem. Phys. 142, 064107 (2015)

   Total energy minimization with Auxiliary Hamiltonian:
      C. Freysoldt, S. Boeck, and J. Neugebauer, Phys. Rev. B 79, 241103(R) (2009)

   Linear-tetrahedron sampling for density of states:
      G. Lehmann and M. Taut, Phys. status solidi (b) 54, 469 (1972)

This list may not be complete. Please suggest additional citations or
report any other bugs at https://github.com/shankar1729/jdftx/issues

Initialization completed successfully at t[s]:   3118.00


Computing DFT-D3 correction:
# coordination-number Pt 5.958 7.038 5.958 6.016 5.954 5.954 5.954 5.954 7.677 7.677 7.677 7.677 9.494 9.494 9.494 9.494 9.261 9.261 9.261 9.261 9.597 9.597 9.597 9.597 9.519 9.519 9.519 9.519 9.598 9.598 9.598 9.598 9.264 9.264 9.264 9.264 9.499 9.497 9.499 9.497 7.689 7.689 7.682 7.689
# coordination-number C 2.091
# coordination-number O 1.089
# diagonal-C6 Pt 336.87 336.87 336.87 336.87 336.87 336.87 336.87 336.87 336.87 336.87 336.87 336.87 336.87 336.87 336.87 336.87 336.87 336.87 336.87 336.87 336.87 336.87 336.87 336.87 336.87 336.87 336.87 336.87 336.87 336.87 336.87 336.87 336.87 336.87 336.87 336.87 336.87 336.87 336.87 336.87 336.87 336.87 336.87 336.87
# diagonal-C6 C 29.32
# diagonal-C6 O 12.74
EvdW_6 =   -0.390411
EvdW_8 =   -0.630159
Fluid solver invoked on fresh (random / LCAO) wavefunctions
Running a vacuum solve first:

-------- Initial electronic minimization -----------
	FillingsUpdate:  mu: +0.121460539  nElectrons: 714.000000  magneticMoment: [ Abs: 0.00184  Tot: -0.00000 ]
ElecMinimize: Iter:   0  F: -3935.570283302388816  |grad|_K:  5.595e-05  alpha:  1.000e+00
	FillingsUpdate:  mu: +0.193727371  nElectrons: 714.000000  magneticMoment: [ Abs: 0.00142  Tot: -0.00000 ]
	SubspaceRotationAdjust: set factor to 0.527
ElecMinimize: Iter:   1  F: -3936.200938741266327  |grad|_K:  1.156e-04  alpha:  4.139e-01  linmin:  3.748e-05  t[s]:   3350.10
ElecMinimize: 	Step increased F by 2.332261e-02, reducing alpha to 1.008602e-03.
	FillingsUpdate:  mu: +0.182109312  nElectrons: 714.000000  magneticMoment: [ Abs: 0.00141  Tot: -0.00000 ]
	SubspaceRotationAdjust: set factor to 0.309
ElecMinimize: Iter:   2  F: -3936.212516747040354  |grad|_K:  6.674e-05  alpha:  1.009e-03  linmin: -2.780e-03  t[s]:   3593.68
ElecMinimize: 	Predicted alpha/alphaT>3.000000, increasing alphaT to 3.025805e-03.
	FillingsUpdate:  mu: +0.152950481  nElectrons: 714.000000  magneticMoment: [ Abs: 0.00140  Tot: -0.00001 ]
	SubspaceRotationAdjust: set factor to 0.18
ElecMinimize: Iter:   3  F: -3936.230406594446322  |grad|_K:  2.659e-05  alpha:  4.646e-03  linmin: -2.242e-05  t[s]:   3782.57
ElecMinimize: 	Predicted alpha/alphaT>3.000000, increasing alphaT to 1.393869e-02.
	FillingsUpdate:  mu: +0.179285399  nElectrons: 714.000000  magneticMoment: [ Abs: 0.00137  Tot: -0.00001 ]
	SubspaceRotationAdjust: set factor to 0.13
	SubspaceRotationAdjust: resetting CG because factor has changed by 0.130441
ElecMinimize: 	State modified externally: resetting search direction.
ElecMinimize: Iter:   4  F: -3936.241074666924305  |grad|_K:  3.788e-05  alpha:  3.038e-02
	FillingsUpdate:  mu: +0.161697986  nElectrons: 714.000000  magneticMoment: [ Abs: 0.00134  Tot: -0.00000 ]
	SubspaceRotationAdjust: set factor to 0.109
ElecMinimize: Iter:   5  F: -3936.272378699316505  |grad|_K:  2.584e-05  alpha:  4.444e-02  linmin:  1.802e-04  t[s]:   4194.00
ElecMinimize: 	Predicted alpha/alphaT>3.000000, increasing alphaT to 1.333091e-01.
	FillingsUpdate:  mu: +0.145394287  nElectrons: 714.000000  magneticMoment: [ Abs: 0.00109  Tot: -0.00001 ]
	SubspaceRotationAdjust: set factor to 0.108
ElecMinimize: Iter:   6  F: -3936.357707448426936  |grad|_K:  1.391e-05  alpha:  2.611e-01  linmin:  6.347e-06  t[s]:   4382.67
	FillingsUpdate:  mu: +0.148430092  nElectrons: 714.000000  magneticMoment: [ Abs: 0.00074  Tot: -0.00001 ]
	SubspaceRotationAdjust: set factor to 0.117
ElecMinimize: Iter:   7  F: -3936.410141793401635  |grad|_K:  7.428e-06  alpha:  5.512e-01  linmin: -3.998e-06  t[s]:   4532.65
	FillingsUpdate:  mu: +0.156103138  nElectrons: 714.000000  magneticMoment: [ Abs: 0.00065  Tot: -0.00001 ]
	SubspaceRotationAdjust: set factor to 0.0656
ElecMinimize: Iter:   8  F: -3936.416941112303448  |grad|_K:  1.195e-05  alpha:  2.504e-01  linmin: -9.076e-08  t[s]:   4683.34
	FillingsUpdate:  mu: +0.150223160  nElectrons: 714.000000  magneticMoment: [ Abs: 0.00059  Tot: -0.00001 ]
	SubspaceRotationAdjust: set factor to 0.0421
ElecMinimize: Iter:   9  F: -3936.421047028976773  |grad|_K:  3.947e-06  alpha:  5.903e-02  linmin:  5.620e-05  t[s]:   4833.55
ElecMinimize: 	Predicted alpha/alphaT>3.000000, increasing alphaT to 1.770832e-01.
ElecMinimize: 	Predicted alpha/alphaT>3.000000, increasing alphaT to 5.312496e-01.
	FillingsUpdate:  mu: +0.144758154  nElectrons: 714.000000  magneticMoment: [ Abs: 0.00048  Tot: -0.00001 ]
	SubspaceRotationAdjust: set factor to 0.0511
ElecMinimize: Iter:  10  F: -3936.425619688671759  |grad|_K:  3.874e-06  alpha:  6.019e-01  linmin: -2.471e-07  t[s]:   5060.76
	FillingsUpdate:  mu: +0.146429618  nElectrons: 714.000000  magneticMoment: [ Abs: 0.00044  Tot: -0.00001 ]
	SubspaceRotationAdjust: set factor to 0.0382
ElecMinimize: Iter:  11  F: -3936.427096176317264  |grad|_K:  3.446e-06  alpha:  2.000e-01  linmin:  8.692e-08  t[s]:   5211.36
	FillingsUpdate:  mu: +0.148525168  nElectrons: 714.000000  magneticMoment: [ Abs: 0.00042  Tot: -0.00001 ]
	SubspaceRotationAdjust: set factor to 0.0301
ElecMinimize: Iter:  12  F: -3936.428218076948269  |grad|_K:  2.056e-06  alpha:  1.920e-01  linmin: -1.936e-06  t[s]:   5361.48
ElecMinimize: 	Predicted alpha/alphaT>3.000000, increasing alphaT to 5.760781e-01.
	FillingsUpdate:  mu: +0.146533606  nElectrons: 714.000000  magneticMoment: [ Abs: 0.00040  Tot: -0.00001 ]
	SubspaceRotationAdjust: set factor to 0.0348
ElecMinimize: Iter:  13  F: -3936.429528929993467  |grad|_K:  1.928e-06  alpha:  6.301e-01  linmin:  3.352e-07  t[s]:   5550.25
	FillingsUpdate:  mu: +0.145836029  nElectrons: 714.000000  magneticMoment: [ Abs: 0.00038  Tot: -0.00001 ]
	SubspaceRotationAdjust: set factor to 0.0383
ElecMinimize: Iter:  14  F: -3936.430634356496739  |grad|_K:  1.717e-06  alpha:  6.047e-01  linmin:  5.343e-07  t[s]:   5700.74
	FillingsUpdate:  mu: +0.146602768  nElectrons: 714.000000  magneticMoment: [ Abs: 0.00037  Tot: -0.00001 ]
	SubspaceRotationAdjust: set factor to 0.0292
ElecMinimize: Iter:  15  F: -3936.431198454800324  |grad|_K:  2.201e-06  alpha:  3.895e-01  linmin:  2.640e-07  t[s]:   5851.60
	FillingsUpdate:  mu: +0.146456964  nElectrons: 714.000000  magneticMoment: [ Abs: 0.00035  Tot: -0.00001 ]
	SubspaceRotationAdjust: set factor to 0.0228
ElecMinimize: Iter:  16  F: -3936.431873855328377  |grad|_K:  1.639e-06  alpha:  2.834e-01  linmin:  4.800e-09  t[s]:   6001.90
	FillingsUpdate:  mu: +0.143079058  nElectrons: 714.000000  magneticMoment: [ Abs: 0.00033  Tot: -0.00001 ]
	SubspaceRotationAdjust: set factor to 0.0251
ElecMinimize: Iter:  17  F: -3936.432697205784280  |grad|_K:  1.381e-06  alpha:  6.226e-01  linmin: -8.592e-07  t[s]:   6152.36
	FillingsUpdate:  mu: +0.143973580  nElectrons: 714.000000  magneticMoment: [ Abs: 0.00031  Tot: -0.00001 ]
	SubspaceRotationAdjust: set factor to 0.0235
ElecMinimize: Iter:  18  F: -3936.433253206729660  |grad|_K:  1.466e-06  alpha:  5.925e-01  linmin: -4.114e-07  t[s]:   6302.36
	FillingsUpdate:  mu: +0.144216403  nElectrons: 714.000000  magneticMoment: [ Abs: 0.00030  Tot: -0.00001 ]
	SubspaceRotationAdjust: set factor to 0.017
	SubspaceRotationAdjust: resetting CG because factor has changed by 0.130644
ElecMinimize: 	State modified externally: resetting search direction.
ElecMinimize: Iter:  19  F: -3936.433621924520139  |grad|_K:  1.157e-06  alpha:  3.491e-01
	FillingsUpdate:  mu: +0.143360974  nElectrons: 714.000000  magneticMoment: [ Abs: 0.00029  Tot: -0.00001 ]
	SubspaceRotationAdjust: set factor to 0.0312
ElecMinimize: Iter:  20  F: -3936.433799763040497  |grad|_K:  6.099e-07  alpha:  2.700e-01  linmin: -1.196e-06  t[s]:   6676.06
	FillingsUpdate:  mu: +0.143046109  nElectrons: 714.000000  magneticMoment: [ Abs: 0.00028  Tot: -0.00001 ]
	SubspaceRotationAdjust: set factor to 0.0292
ElecMinimize: Iter:  21  F: -3936.433901486206651  |grad|_K:  5.562e-07  alpha:  5.558e-01  linmin: -7.183e-07  t[s]:   6826.15
	FillingsUpdate:  mu: +0.143438382  nElectrons: 714.000000  magneticMoment: [ Abs: 0.00027  Tot: -0.00001 ]
	SubspaceRotationAdjust: set factor to 0.0253
ElecMinimize: Iter:  22  F: -3936.433969325465114  |grad|_K:  5.194e-07  alpha:  4.458e-01  linmin: -1.200e-07  t[s]:   6976.44
	FillingsUpdate:  mu: +0.143443511  nElectrons: 714.000000  magneticMoment: [ Abs: 0.00026  Tot: -0.00001 ]
	SubspaceRotationAdjust: set factor to 0.0208
ElecMinimize: Iter:  23  F: -3936.434019399059707  |grad|_K:  4.802e-07  alpha:  3.774e-01  linmin: -3.029e-09  t[s]:   7126.51
	FillingsUpdate:  mu: +0.142895874  nElectrons: 714.000000  magneticMoment: [ Abs: 0.00025  Tot: -0.00001 ]
	SubspaceRotationAdjust: set factor to 0.0202
ElecMinimize: Iter:  24  F: -3936.434080840801926  |grad|_K:  4.356e-07  alpha:  5.417e-01  linmin: -2.191e-07  t[s]:   7276.56
	FillingsUpdate:  mu: +0.143107331  nElectrons: 714.000000  magneticMoment: [ Abs: 0.00024  Tot: -0.00001 ]
	SubspaceRotationAdjust: set factor to 0.0212
ElecMinimize: Iter:  25  F: -3936.434153275065910  |grad|_K:  4.532e-07  alpha:  7.761e-01  linmin:  2.820e-07  t[s]:   7426.83
	FillingsUpdate:  mu: +0.143067325  nElectrons: 714.000000  magneticMoment: [ Abs: 0.00023  Tot: -0.00001 ]
	SubspaceRotationAdjust: set factor to 0.0212
ElecMinimize: Iter:  26  F: -3936.434223378189472  |grad|_K:  4.864e-07  alpha:  6.942e-01  linmin:  3.071e-07  t[s]:   7577.66
	FillingsUpdate:  mu: +0.142656358  nElectrons: 714.000000  magneticMoment: [ Abs: 0.00022  Tot: -0.00001 ]
	SubspaceRotationAdjust: set factor to 0.0185
ElecMinimize: Iter:  27  F: -3936.434307423046448  |grad|_K:  5.678e-07  alpha:  7.224e-01  linmin:  2.909e-07  t[s]:   7727.91
	FillingsUpdate:  mu: +0.142626865  nElectrons: 714.000000  magneticMoment: [ Abs: 0.00020  Tot: -0.00001 ]
	SubspaceRotationAdjust: set factor to 0.0147
ElecMinimize: Iter:  28  F: -3936.434380448024967  |grad|_K:  4.976e-07  alpha:  4.606e-01  linmin:  2.245e-07  t[s]:   7878.31
	FillingsUpdate:  mu: +0.142925818  nElectrons: 714.000000  magneticMoment: [ Abs: 0.00018  Tot: -0.00001 ]
	SubspaceRotationAdjust: set factor to 0.0136
ElecMinimize: Iter:  29  F: -3936.434460139566909  |grad|_K:  4.579e-07  alpha:  6.549e-01  linmin:  4.597e-07  t[s]:   8028.41
	FillingsUpdate:  mu: +0.142707546  nElectrons: 714.000000  magneticMoment: [ Abs: 0.00016  Tot: -0.00001 ]
	SubspaceRotationAdjust: set factor to 0.0144
ElecMinimize: Iter:  30  F: -3936.434526141627884  |grad|_K:  3.785e-07  alpha:  6.404e-01  linmin:  2.365e-07  t[s]:   8178.97
	FillingsUpdate:  mu: +0.142631985  nElectrons: 714.000000  magneticMoment: [ Abs: 0.00015  Tot: -0.00001 ]
	SubspaceRotationAdjust: set factor to 0.0143
ElecMinimize: Iter:  31  F: -3936.434561794692854  |grad|_K:  2.969e-07  alpha:  5.059e-01  linmin:  2.032e-08  t[s]:   8329.32
	FillingsUpdate:  mu: +0.142635576  nElectrons: 714.000000  magneticMoment: [ Abs: 0.00014  Tot: -0.00001 ]
	SubspaceRotationAdjust: set factor to 0.0139
ElecMinimize: Iter:  32  F: -3936.434583530141026  |grad|_K:  2.088e-07  alpha:  5.014e-01  linmin:  7.343e-08  t[s]:   8480.13
	FillingsUpdate:  mu: +0.142577287  nElectrons: 714.000000  magneticMoment: [ Abs: 0.00013  Tot: -0.00001 ]
	SubspaceRotationAdjust: set factor to 0.0145
ElecMinimize: Iter:  33  F: -3936.434594622373424  |grad|_K:  1.445e-07  alpha:  5.170e-01  linmin:  2.434e-07  t[s]:   8630.40
	FillingsUpdate:  mu: +0.142608109  nElectrons: 714.000000  magneticMoment: [ Abs: 0.00013  Tot: -0.00001 ]
	SubspaceRotationAdjust: set factor to 0.0176
ElecMinimize: Iter:  34  F: -3936.434600008079997  |grad|_K:  1.027e-07  alpha:  5.248e-01  linmin: -1.292e-07  t[s]:   8781.10
	FillingsUpdate:  mu: +0.142620341  nElectrons: 714.000000  magneticMoment: [ Abs: 0.00013  Tot: -0.00001 ]
	SubspaceRotationAdjust: set factor to 0.0203
ElecMinimize: Iter:  35  F: -3936.434603454412809  |grad|_K:  1.198e-07  alpha:  6.641e-01  linmin:  1.710e-07  t[s]:   8931.43
	FillingsUpdate:  mu: +0.142556125  nElectrons: 714.000000  magneticMoment: [ Abs: 0.00012  Tot: -0.00001 ]
	SubspaceRotationAdjust: set factor to 0.0226
ElecMinimize: Iter:  36  F: -3936.434608888494495  |grad|_K:  1.285e-07  alpha:  7.701e-01  linmin:  3.105e-07  t[s]:   9082.43
	FillingsUpdate:  mu: +0.142508888  nElectrons: 714.000000  magneticMoment: [ Abs: 0.00012  Tot: -0.00001 ]
	SubspaceRotationAdjust: set factor to 0.0232
ElecMinimize: Iter:  37  F: -3936.434613744386752  |grad|_K:  1.271e-07  alpha:  5.977e-01  linmin: -2.845e-08  t[s]:   9233.05
	FillingsUpdate:  mu: +0.142501279  nElectrons: 714.000000  magneticMoment: [ Abs: 0.00012  Tot: -0.00001 ]
	SubspaceRotationAdjust: set factor to 0.0207
ElecMinimize: Iter:  38  F: -3936.434618072632020  |grad|_K:  1.401e-07  alpha:  5.444e-01  linmin:  6.583e-08  t[s]:   9383.72
	FillingsUpdate:  mu: +0.142502541  nElectrons: 714.000000  magneticMoment: [ Abs: 0.00011  Tot: -0.00001 ]
	SubspaceRotationAdjust: set factor to 0.0182
ElecMinimize: Iter:  39  F: -3936.434622738637700  |grad|_K:  1.269e-07  alpha:  4.833e-01  linmin: -9.017e-08  t[s]:   9533.98
	FillingsUpdate:  mu: +0.142464467  nElectrons: 714.000000  magneticMoment: [ Abs: 0.00010  Tot: -0.00001 ]
	SubspaceRotationAdjust: set factor to 0.0185
ElecMinimize: Iter:  40  F: -3936.434627607883613  |grad|_K:  1.081e-07  alpha:  6.142e-01  linmin: -1.846e-07  t[s]:   9684.45
	FillingsUpdate:  mu: +0.142458199  nElectrons: 714.000000  magneticMoment: [ Abs: 0.00010  Tot: -0.00001 ]
	SubspaceRotationAdjust: set factor to 0.0194
ElecMinimize: Iter:  41  F: -3936.434630929240939  |grad|_K:  9.599e-08  alpha:  5.777e-01  linmin:  1.284e-07  t[s]:   9834.86
	FillingsUpdate:  mu: +0.142460943  nElectrons: 714.000000  magneticMoment: [ Abs: 0.00009  Tot: -0.00001 ]
	SubspaceRotationAdjust: set factor to 0.0203
ElecMinimize: Iter:  42  F: -3936.434633216333623  |grad|_K:  7.475e-08  alpha:  5.049e-01  linmin: -3.854e-08  t[s]:   9985.43
	FillingsUpdate:  mu: +0.142456167  nElectrons: 714.000000  magneticMoment: [ Abs: 0.00009  Tot: -0.00001 ]
	SubspaceRotationAdjust: set factor to 0.0207
ElecMinimize: Iter:  43  F: -3936.434634550998453  |grad|_K:  6.155e-08  alpha:  4.856e-01  linmin:  4.266e-07  t[s]:  10135.70
	FillingsUpdate:  mu: +0.142458686  nElectrons: 714.000000  magneticMoment: [ Abs: 0.00009  Tot: -0.00001 ]
	SubspaceRotationAdjust: set factor to 0.0206
ElecMinimize: Iter:  44  F: -3936.434635482573867  |grad|_K:  5.441e-08  alpha:  5.005e-01  linmin:  4.204e-07  t[s]:  10286.23
	FillingsUpdate:  mu: +0.142462797  nElectrons: 714.000000  magneticMoment: [ Abs: 0.00008  Tot: -0.00001 ]
	SubspaceRotationAdjust: set factor to 0.0222
ElecMinimize: Iter:  45  F: -3936.434636164224230  |grad|_K:  4.659e-08  alpha:  4.688e-01  linmin:  4.557e-07  t[s]:  10436.39
	FillingsUpdate:  mu: +0.142478895  nElectrons: 714.000000  magneticMoment: [ Abs: 0.00008  Tot: -0.00001 ]
	SubspaceRotationAdjust: set factor to 0.0257
ElecMinimize: Iter:  46  F: -3936.434636827305440  |grad|_K:  4.613e-08  alpha:  6.209e-01  linmin:  2.715e-07  t[s]:  10586.81
	FillingsUpdate:  mu: +0.142502593  nElectrons: 714.000000  magneticMoment: [ Abs: 0.00008  Tot: -0.00001 ]
	SubspaceRotationAdjust: set factor to 0.0291
ElecMinimize: Iter:  47  F: -3936.434637597292749  |grad|_K:  4.919e-08  alpha:  7.351e-01  linmin:  9.558e-07  t[s]:  10737.09
	FillingsUpdate:  mu: +0.142516208  nElectrons: 714.000000  magneticMoment: [ Abs: 0.00007  Tot: -0.00001 ]
	SubspaceRotationAdjust: set factor to 0.0316
ElecMinimize: Iter:  48  F: -3936.434638458912559  |grad|_K:  5.295e-08  alpha:  7.245e-01  linmin: -1.133e-06  t[s]:  10888.06
	FillingsUpdate:  mu: +0.142545308  nElectrons: 714.000000  magneticMoment: [ Abs: 0.00007  Tot: -0.00001 ]
	SubspaceRotationAdjust: set factor to 0.0333
ElecMinimize: Iter:  49  F: -3936.434639335043812  |grad|_K:  5.136e-08  alpha:  6.335e-01  linmin:  6.670e-07  t[s]:  11038.28
	FillingsUpdate:  mu: +0.142592070  nElectrons: 714.000000  magneticMoment: [ Abs: 0.00006  Tot: -0.00001 ]
	SubspaceRotationAdjust: set factor to 0.0345
ElecMinimize: Iter:  50  F: -3936.434640073071932  |grad|_K:  4.297e-08  alpha:  5.699e-01  linmin: -3.633e-07  t[s]:  11188.62
	FillingsUpdate:  mu: +0.142602622  nElectrons: 714.000000  magneticMoment: [ Abs: 0.00006  Tot: -0.00001 ]
	SubspaceRotationAdjust: set factor to 0.0321
ElecMinimize: Iter:  51  F: -3936.434640483247222  |grad|_K:  3.765e-08  alpha:  4.510e-01  linmin:  9.415e-07  t[s]:  11338.61
	FillingsUpdate:  mu: +0.142607113  nElectrons: 714.000000  magneticMoment: [ Abs: 0.00006  Tot: -0.00001 ]
	SubspaceRotationAdjust: set factor to 0.0232
ElecMinimize: Iter:  52  F: -3936.434640644048159  |grad|_K:  2.967e-08  alpha:  2.308e-01  linmin: -3.310e-07  t[s]:  11489.19
	FillingsUpdate:  mu: +0.142612875  nElectrons: 714.000000  magneticMoment: [ Abs: 0.00006  Tot: -0.00001 ]
	SubspaceRotationAdjust: set factor to 0.025
ElecMinimize: Iter:  53  F: -3936.434640825466431  |grad|_K:  2.286e-08  alpha:  4.130e-01  linmin: -1.009e-05  t[s]:  11639.50
	FillingsUpdate:  mu: +0.142621155  nElectrons: 714.000000  magneticMoment: [ Abs: 0.00005  Tot: -0.00001 ]
	SubspaceRotationAdjust: set factor to 0.0287
ElecMinimize: Iter:  54  F: -3936.434640960455908  |grad|_K:  1.968e-08  alpha:  5.198e-01  linmin: -1.447e-06  t[s]:  11789.83
	FillingsUpdate:  mu: +0.142621978  nElectrons: 714.000000  magneticMoment: [ Abs: 0.00005  Tot: -0.00001 ]
	SubspaceRotationAdjust: set factor to 0.0267
ElecMinimize: Iter:  55  F: -3936.434641036146331  |grad|_K:  1.873e-08  alpha:  3.964e-01  linmin: -7.850e-07  t[s]:  11940.15
	FillingsUpdate:  mu: +0.142620059  nElectrons: 714.000000  magneticMoment: [ Abs: 0.00005  Tot: -0.00001 ]
	SubspaceRotationAdjust: set factor to 0.024
ElecMinimize: Iter:  56  F: -3936.434641091351295  |grad|_K:  1.511e-08  alpha:  3.236e-01  linmin:  1.094e-05  t[s]:  12090.61
ElecMinimize: Converged (|Delta F|<1.000000e-07 for 2 iters).
Setting wave functions to eigenvectors of Hamiltonian
Converging empty states (this may take a while): |deigs|: 2.369e-03
Vacuum energy after initial minimize, F = -3936.434641091351295


-------- Electronic minimization -----------
	Linear fluid (dielectric constant: 78.4, screening length: 8.12261 Bohr) occupying 0.533256 of unit cell:	Completed after 28 iterations at t[s]:  12931.60
	FillingsUpdate:  mu: -0.199504967  nElectrons: 714.000000  magneticMoment: [ Abs: 0.00003  Tot: -0.00000 ]
ElecMinimize: Iter:   0  F: -3936.441757750092620  |grad|_K:  9.434e-07  alpha:  1.000e+00
	Linear fluid (dielectric constant: 78.4, screening length: 8.12261 Bohr) occupying 0.533685 of unit cell:	Completed after 16 iterations at t[s]:  13059.44
	Linear fluid (dielectric constant: 78.4, screening length: 8.12261 Bohr) occupying 0.533397 of unit cell:	Completed after 15 iterations at t[s]:  13104.98
	FillingsUpdate:  mu: -0.198866665  nElectrons: 714.000000  magneticMoment: [ Abs: 0.00003  Tot: -0.00000 ]
	SubspaceRotationAdjust: set factor to 0.0193
ElecMinimize: Iter:   1  F: -3936.441903032261962  |grad|_K:  5.735e-07  alpha:  3.323e-01  linmin:  1.375e-06  t[s]:  13163.31
	Linear fluid (dielectric constant: 78.4, screening length: 8.12261 Bohr) occupying 0.533554 of unit cell:	Completed after 11 iterations at t[s]:  13223.14
	Linear fluid (dielectric constant: 78.4, screening length: 8.12261 Bohr) occupying 0.533764 of unit cell:	Completed after 12 iterations at t[s]:  13268.16
	FillingsUpdate:  mu: -0.198151715  nElectrons: 714.000000  magneticMoment: [ Abs: 0.00003  Tot: -0.00000 ]
	SubspaceRotationAdjust: set factor to 0.0226
ElecMinimize: Iter:   2  F: -3936.442028362772362  |grad|_K:  4.439e-07  alpha:  7.768e-01  linmin:  1.263e-06  t[s]:  13327.39
	Linear fluid (dielectric constant: 78.4, screening length: 8.12261 Bohr) occupying 0.534067 of unit cell:	Completed after 10 iterations at t[s]:  13386.35
	Linear fluid (dielectric constant: 78.4, screening length: 8.12261 Bohr) occupying 0.533981 of unit cell:	Completed after 8 iterations at t[s]:  13430.35
	FillingsUpdate:  mu: -0.197750528  nElectrons: 714.000000  magneticMoment: [ Abs: 0.00003  Tot: -0.00000 ]
	SubspaceRotationAdjust: set factor to 0.0261
ElecMinimize: Iter:   3  F: -3936.442081965798479  |grad|_K:  3.234e-07  alpha:  5.544e-01  linmin:  1.641e-07  t[s]:  13489.10
	Linear fluid (dielectric constant: 78.4, screening length: 8.12261 Bohr) occupying 0.534105 of unit cell:	Completed after 10 iterations at t[s]:  13549.38
	Linear fluid (dielectric constant: 78.4, screening length: 8.12261 Bohr) occupying 0.534113 of unit cell:	Completed after 1 iterations at t[s]:  13590.81
	FillingsUpdate:  mu: -0.197663530  nElectrons: 714.000000  magneticMoment: [ Abs: 0.00003  Tot: -0.00000 ]
	SubspaceRotationAdjust: set factor to 0.0322
ElecMinimize: Iter:   4  F: -3936.442112401116901  |grad|_K:  2.673e-07  alpha:  5.917e-01  linmin: -3.774e-07  t[s]:  13649.39
	Linear fluid (dielectric constant: 78.4, screening length: 8.12261 Bohr) occupying 0.534196 of unit cell:	Completed after 9 iterations at t[s]:  13708.58
	Linear fluid (dielectric constant: 78.4, screening length: 8.12261 Bohr) occupying 0.534228 of unit cell:	Completed after 4 iterations at t[s]:  13750.84
	FillingsUpdate:  mu: -0.197202278  nElectrons: 714.000000  magneticMoment: [ Abs: 0.00003  Tot: -0.00000 ]
	SubspaceRotationAdjust: set factor to 0.0393
ElecMinimize: Iter:   5  F: -3936.442141354280466  |grad|_K:  2.807e-07  alpha:  8.211e-01  linmin: -6.748e-07  t[s]:  13809.45
	Linear fluid (dielectric constant: 78.4, screening length: 8.12261 Bohr) occupying 0.534334 of unit cell:	Completed after 10 iterations at t[s]:  13869.01
	Linear fluid (dielectric constant: 78.4, screening length: 8.12261 Bohr) occupying 0.534343 of unit cell:	Completed after 2 iterations at t[s]:  13910.52
	FillingsUpdate:  mu: -0.196940330  nElectrons: 714.000000  magneticMoment: [ Abs: 0.00003  Tot: -0.00000 ]
	SubspaceRotationAdjust: set factor to 0.0451
ElecMinimize: Iter:   6  F: -3936.442176166473018  |grad|_K:  3.370e-07  alpha:  8.928e-01  linmin: -2.928e-07  t[s]:  13969.43
	Linear fluid (dielectric constant: 78.4, screening length: 8.12261 Bohr) occupying 0.534484 of unit cell:	Completed after 11 iterations at t[s]:  14028.96
	Linear fluid (dielectric constant: 78.4, screening length: 8.12261 Bohr) occupying 0.534458 of unit cell:	Completed after 4 iterations at t[s]:  14071.29
	FillingsUpdate:  mu: -0.196557991  nElectrons: 714.000000  magneticMoment: [ Abs: 0.00003  Tot: -0.00000 ]
	SubspaceRotationAdjust: set factor to 0.0491
ElecMinimize: Iter:   7  F: -3936.442216764024579  |grad|_K:  3.773e-07  alpha:  7.237e-01  linmin:  1.022e-08  t[s]:  14129.90
	Linear fluid (dielectric constant: 78.4, screening length: 8.12261 Bohr) occupying 0.534574 of unit cell:	Completed after 12 iterations at t[s]:  14190.24
	Linear fluid (dielectric constant: 78.4, screening length: 8.12261 Bohr) occupying 0.534555 of unit cell:	Completed after 3 iterations at t[s]:  14232.64
	FillingsUpdate:  mu: -0.196473538  nElectrons: 714.000000  magneticMoment: [ Abs: 0.00003  Tot: -0.00000 ]
	SubspaceRotationAdjust: set factor to 0.0506
ElecMinimize: Iter:   8  F: -3936.442258862965900  |grad|_K:  3.673e-07  alpha:  6.017e-01  linmin: -1.489e-08  t[s]:  14291.46
	Linear fluid (dielectric constant: 78.4, screening length: 8.12261 Bohr) occupying 0.534633 of unit cell:	Completed after 10 iterations at t[s]:  14350.86
	Linear fluid (dielectric constant: 78.4, screening length: 8.12261 Bohr) occupying 0.534629 of unit cell:	Completed after 2 iterations at t[s]:  14392.68
	FillingsUpdate:  mu: -0.196260025  nElectrons: 714.000000  magneticMoment: [ Abs: 0.00002  Tot: -0.00000 ]
	SubspaceRotationAdjust: set factor to 0.0473
ElecMinimize: Iter:   9  F: -3936.442296905320745  |grad|_K:  3.308e-07  alpha:  5.731e-01  linmin: -1.762e-08  t[s]:  14452.22
	Linear fluid (dielectric constant: 78.4, screening length: 8.12261 Bohr) occupying 0.534667 of unit cell:	Completed after 11 iterations at t[s]:  14512.01
	Linear fluid (dielectric constant: 78.4, screening length: 8.12261 Bohr) occupying 0.534656 of unit cell:	Completed after 8 iterations at t[s]:  14555.55
	FillingsUpdate:  mu: -0.196299006  nElectrons: 714.000000  magneticMoment: [ Abs: 0.00002  Tot: -0.00000 ]
	SubspaceRotationAdjust: set factor to 0.0373
ElecMinimize: Iter:  10  F: -3936.442318279703159  |grad|_K:  2.979e-07  alpha:  3.979e-01  linmin: -3.278e-08  t[s]:  14614.07
	Linear fluid (dielectric constant: 78.4, screening length: 8.12261 Bohr) occupying 0.534675 of unit cell:	Completed after 10 iterations at t[s]:  14673.44
	Linear fluid (dielectric constant: 78.4, screening length: 8.12261 Bohr) occupying 0.534676 of unit cell:	Completed after 0 iterations at t[s]:  14714.11
	FillingsUpdate:  mu: -0.196259655  nElectrons: 714.000000  magneticMoment: [ Abs: 0.00002  Tot: -0.00000 ]
	SubspaceRotationAdjust: set factor to 0.0351
ElecMinimize: Iter:  11  F: -3936.442335819759137  |grad|_K:  2.006e-07  alpha:  4.015e-01  linmin: -2.751e-07  t[s]:  14772.84
	Linear fluid (dielectric constant: 78.4, screening length: 8.12261 Bohr) occupying 0.534680 of unit cell:	Completed after 3 iterations at t[s]:  14830.12
	Linear fluid (dielectric constant: 78.4, screening length: 8.12261 Bohr) occupying 0.534681 of unit cell:	Completed after 2 iterations at t[s]:  14871.68
	FillingsUpdate:  mu: -0.196217112  nElectrons: 714.000000  magneticMoment: [ Abs: 0.00002  Tot: -0.00000 ]
	SubspaceRotationAdjust: set factor to 0.0417
ElecMinimize: Iter:  12  F: -3936.442347055006394  |grad|_K:  1.522e-07  alpha:  5.643e-01  linmin: -6.088e-08  t[s]:  14930.34
	Linear fluid (dielectric constant: 78.4, screening length: 8.12261 Bohr) occupying 0.534679 of unit cell:	Completed after 8 iterations at t[s]:  14989.05
	Linear fluid (dielectric constant: 78.4, screening length: 8.12261 Bohr) occupying 0.534680 of unit cell:	Completed after 2 iterations at t[s]:  15030.53
	FillingsUpdate:  mu: -0.196185918  nElectrons: 714.000000  magneticMoment: [ Abs: 0.00002  Tot: -0.00000 ]
	SubspaceRotationAdjust: set factor to 0.0425
ElecMinimize: Iter:  13  F: -3936.442352724806369  |grad|_K:  1.319e-07  alpha:  4.973e-01  linmin:  5.906e-07  t[s]:  15090.18
	Linear fluid (dielectric constant: 78.4, screening length: 8.12261 Bohr) occupying 0.534681 of unit cell:	Completed after 8 iterations at t[s]:  15149.20
	Linear fluid (dielectric constant: 78.4, screening length: 8.12261 Bohr) occupying 0.534681 of unit cell:	Completed after 2 iterations at t[s]:  15190.90
	FillingsUpdate:  mu: -0.196192199  nElectrons: 714.000000  magneticMoment: [ Abs: 0.00002  Tot: -0.00000 ]
	SubspaceRotationAdjust: set factor to 0.0395
ElecMinimize: Iter:  14  F: -3936.442356165201090  |grad|_K:  1.104e-07  alpha:  4.063e-01  linmin:  5.981e-07  t[s]:  15249.84
	Linear fluid (dielectric constant: 78.4, screening length: 8.12261 Bohr) occupying 0.534680 of unit cell:	Completed after 7 iterations at t[s]:  15308.34
	Linear fluid (dielectric constant: 78.4, screening length: 8.12261 Bohr) occupying 0.534680 of unit cell:	Completed after 2 iterations at t[s]:  15350.80
	FillingsUpdate:  mu: -0.196240799  nElectrons: 714.000000  magneticMoment: [ Abs: 0.00002  Tot: -0.00000 ]
	SubspaceRotationAdjust: set factor to 0.0451
ElecMinimize: Iter:  15  F: -3936.442359200997544  |grad|_K:  8.798e-08  alpha:  5.071e-01  linmin: -1.901e-06  t[s]:  15409.52
	Linear fluid (dielectric constant: 78.4, screening length: 8.12261 Bohr) occupying 0.534683 of unit cell:	Completed after 2 iterations at t[s]:  15466.53
	Linear fluid (dielectric constant: 78.4, screening length: 8.12261 Bohr) occupying 0.534683 of unit cell:	Completed after 0 iterations at t[s]:  15507.36
	FillingsUpdate:  mu: -0.196219730  nElectrons: 714.000000  magneticMoment: [ Abs: 0.00002  Tot: -0.00000 ]
	SubspaceRotationAdjust: set factor to 0.0547
ElecMinimize: Iter:  16  F: -3936.442361605858423  |grad|_K:  8.424e-08  alpha:  6.141e-01  linmin: -7.861e-07  t[s]:  15565.99
	Linear fluid (dielectric constant: 78.4, screening length: 8.12261 Bohr) occupying 0.534690 of unit cell:	Completed after 6 iterations at t[s]:  15624.26
	Linear fluid (dielectric constant: 78.4, screening length: 8.12261 Bohr) occupying 0.534689 of unit cell:	Completed after 0 iterations at t[s]:  15665.60
	FillingsUpdate:  mu: -0.196177664  nElectrons: 714.000000  magneticMoment: [ Abs: 0.00002  Tot: -0.00000 ]
	SubspaceRotationAdjust: set factor to 0.058
ElecMinimize: Iter:  17  F: -3936.442363537023994  |grad|_K:  8.730e-08  alpha:  5.462e-01  linmin:  6.280e-07  t[s]:  15724.41
	Linear fluid (dielectric constant: 78.4, screening length: 8.12261 Bohr) occupying 0.534697 of unit cell:	Completed after 8 iterations at t[s]:  15783.09
	Linear fluid (dielectric constant: 78.4, screening length: 8.12261 Bohr) occupying 0.534694 of unit cell:	Completed after 4 iterations at t[s]:  15825.29
	FillingsUpdate:  mu: -0.196272426  nElectrons: 714.000000  magneticMoment: [ Abs: 0.00002  Tot: -0.00000 ]
	SubspaceRotationAdjust: set factor to 0.0501
ElecMinimize: Iter:  18  F: -3936.442364874960731  |grad|_K:  8.555e-08  alpha:  3.634e-01  linmin:  5.283e-07  t[s]:  15883.81
	Linear fluid (dielectric constant: 78.4, screening length: 8.12261 Bohr) occupying 0.534703 of unit cell:	Completed after 7 iterations at t[s]:  15942.27
	Linear fluid (dielectric constant: 78.4, screening length: 8.12261 Bohr) occupying 0.534703 of unit cell:	Completed after 0 iterations at t[s]:  15983.74
	FillingsUpdate:  mu: -0.196205001  nElectrons: 714.000000  magneticMoment: [ Abs: 0.00002  Tot: -0.00000 ]
	SubspaceRotationAdjust: set factor to 0.0488
ElecMinimize: Iter:  19  F: -3936.442366192196459  |grad|_K:  6.699e-08  alpha:  3.688e-01  linmin: -1.329e-06  t[s]:  16042.29
	Linear fluid (dielectric constant: 78.4, screening length: 8.12261 Bohr) occupying 0.534709 of unit cell:	Completed after 2 iterations at t[s]:  16099.31
	Linear fluid (dielectric constant: 78.4, screening length: 8.12261 Bohr) occupying 0.534711 of unit cell:	Completed after 2 iterations at t[s]:  16141.03
	FillingsUpdate:  mu: -0.196181224  nElectrons: 714.000000  magneticMoment: [ Abs: 0.00002  Tot: -0.00000 ]
	SubspaceRotationAdjust: set factor to 0.0587
ElecMinimize: Iter:  20  F: -3936.442367393484346  |grad|_K:  5.915e-08  alpha:  5.334e-01  linmin:  4.042e-08  t[s]:  16199.72
	Linear fluid (dielectric constant: 78.4, screening length: 8.12261 Bohr) occupying 0.534719 of unit cell:	Completed after 6 iterations at t[s]:  16258.42
	Linear fluid (dielectric constant: 78.4, screening length: 8.12261 Bohr) occupying 0.534718 of unit cell:	Completed after 0 iterations at t[s]:  16299.50
	FillingsUpdate:  mu: -0.196194190  nElectrons: 714.000000  magneticMoment: [ Abs: 0.00002  Tot: -0.00000 ]
	SubspaceRotationAdjust: set factor to 0.056
ElecMinimize: Iter:  21  F: -3936.442368194842857  |grad|_K:  6.346e-08  alpha:  4.654e-01  linmin:  2.097e-06  t[s]:  16358.07
	Linear fluid (dielectric constant: 78.4, screening length: 8.12261 Bohr) occupying 0.534728 of unit cell:	Completed after 8 iterations at t[s]:  16416.67
	Linear fluid (dielectric constant: 78.4, screening length: 8.12261 Bohr) occupying 0.534724 of unit cell:	Completed after 3 iterations at t[s]:  16458.68
	FillingsUpdate:  mu: -0.196113114  nElectrons: 714.000000  magneticMoment: [ Abs: 0.00001  Tot: -0.00000 ]
	SubspaceRotationAdjust: set factor to 0.045
ElecMinimize: Iter:  22  F: -3936.442368680166510  |grad|_K:  5.159e-08  alpha:  2.619e-01  linmin:  1.471e-06  t[s]:  16517.27
	Linear fluid (dielectric constant: 78.4, screening length: 8.12261 Bohr) occupying 0.534727 of unit cell:	Completed after 3 iterations at t[s]:  16575.09
	Linear fluid (dielectric constant: 78.4, screening length: 8.12261 Bohr) occupying 0.534729 of unit cell:	Completed after 0 iterations at t[s]:  16616.34
	FillingsUpdate:  mu: -0.196123973  nElectrons: 714.000000  magneticMoment: [ Abs: 0.00001  Tot: -0.00000 ]
	SubspaceRotationAdjust: set factor to 0.0628
ElecMinimize: Iter:  23  F: -3936.442369236654486  |grad|_K:  3.828e-08  alpha:  4.190e-01  linmin: -6.383e-06  t[s]:  16674.93
	Linear fluid (dielectric constant: 78.4, screening length: 8.12261 Bohr) occupying 0.534731 of unit cell:	Completed after 6 iterations at t[s]:  16733.06
	Linear fluid (dielectric constant: 78.4, screening length: 8.12261 Bohr) occupying 0.534730 of unit cell:	Completed after 0 iterations at t[s]:  16773.52
	FillingsUpdate:  mu: -0.196147036  nElectrons: 714.000000  magneticMoment: [ Abs: 0.00001  Tot: -0.00000 ]
	SubspaceRotationAdjust: set factor to 0.0472
ElecMinimize: Iter:  24  F: -3936.442369491561294  |grad|_K:  5.321e-08  alpha:  3.416e-01  linmin: -3.986e-06  t[s]:  16832.10
	Linear fluid (dielectric constant: 78.4, screening length: 8.12261 Bohr) occupying 0.534735 of unit cell:	Completed after 5 iterations at t[s]:  16890.00
	Linear fluid (dielectric constant: 78.4, screening length: 8.12261 Bohr) occupying 0.534733 of unit cell:	Completed after 2 iterations at t[s]:  16931.66
	FillingsUpdate:  mu: -0.196098687  nElectrons: 714.000000  magneticMoment: [ Abs: 0.00001  Tot: -0.00000 ]
	SubspaceRotationAdjust: set factor to 0.0514
ElecMinimize: Iter:  25  F: -3936.442369758347922  |grad|_K:  3.326e-08  alpha:  1.948e-01  linmin:  2.090e-06  t[s]:  16990.29
	Linear fluid (dielectric constant: 78.4, screening length: 8.12261 Bohr) occupying 0.534733 of unit cell:	Completed after 0 iterations at t[s]:  17046.64
	Linear fluid (dielectric constant: 78.4, screening length: 8.12261 Bohr) occupying 0.534734 of unit cell:	Completed after 2 iterations at t[s]:  17088.18
	FillingsUpdate:  mu: -0.196096587  nElectrons: 714.000000  magneticMoment: [ Abs: 0.00001  Tot: -0.00000 ]
	SubspaceRotationAdjust: set factor to 0.0592
ElecMinimize: Iter:  26  F: -3936.442369995993886  |grad|_K:  3.351e-08  alpha:  5.002e-01  linmin:  9.694e-06  t[s]:  17147.52
	Linear fluid (dielectric constant: 78.4, screening length: 8.12261 Bohr) occupying 0.534734 of unit cell:	Completed after 3 iterations at t[s]:  17204.82
	Linear fluid (dielectric constant: 78.4, screening length: 8.12261 Bohr) occupying 0.534734 of unit cell:	Completed after 1 iterations at t[s]:  17246.30
	FillingsUpdate:  mu: -0.196096707  nElectrons: 714.000000  magneticMoment: [ Abs: 0.00001  Tot: -0.00000 ]
	SubspaceRotationAdjust: set factor to 0.055
ElecMinimize: Iter:  27  F: -3936.442370173026575  |grad|_K:  2.769e-08  alpha:  3.561e-01  linmin:  5.408e-06  t[s]:  17304.89
	Linear fluid (dielectric constant: 78.4, screening length: 8.12261 Bohr) occupying 0.534734 of unit cell:	Completed after 2 iterations at t[s]:  17361.74
	Linear fluid (dielectric constant: 78.4, screening length: 8.12261 Bohr) occupying 0.534734 of unit cell:	Completed after 0 iterations at t[s]:  17402.58
	FillingsUpdate:  mu: -0.196092045  nElectrons: 714.000000  magneticMoment: [ Abs: 0.00001  Tot: -0.00000 ]
	SubspaceRotationAdjust: set factor to 0.068
ElecMinimize: Iter:  28  F: -3936.442370308182944  |grad|_K:  2.146e-08  alpha:  3.735e-01  linmin: -5.670e-06  t[s]:  17461.68
	Linear fluid (dielectric constant: 78.4, screening length: 8.12261 Bohr) occupying 0.534733 of unit cell:	Completed after 2 iterations at t[s]:  17518.56
	Linear fluid (dielectric constant: 78.4, screening length: 8.12261 Bohr) occupying 0.534733 of unit cell:	Completed after 0 iterations at t[s]:  17559.24
	FillingsUpdate:  mu: -0.196087194  nElectrons: 714.000000  magneticMoment: [ Abs: 0.00001  Tot: -0.00000 ]
	SubspaceRotationAdjust: set factor to 0.0698
ElecMinimize: Iter:  29  F: -3936.442370406400187  |grad|_K:  1.957e-08  alpha:  4.100e-01  linmin: -1.623e-05  t[s]:  17617.92
	Linear fluid (dielectric constant: 78.4, screening length: 8.12261 Bohr) occupying 0.534732 of unit cell:	Completed after 2 iterations at t[s]:  17674.77
	Linear fluid (dielectric constant: 78.4, screening length: 8.12261 Bohr) occupying 0.534732 of unit cell:	Completed after 0 iterations at t[s]:  17715.40
	FillingsUpdate:  mu: -0.196091263  nElectrons: 714.000000  magneticMoment: [ Abs: 0.00001  Tot: -0.00000 ]
	SubspaceRotationAdjust: set factor to 0.0678
ElecMinimize: Iter:  30  F: -3936.442370481310718  |grad|_K:  1.694e-08  alpha:  3.760e-01  linmin:  1.427e-05  t[s]:  17774.53
ElecMinimize: Converged (|Delta F|<1.000000e-07 for 2 iters).
Setting wave functions to eigenvectors of Hamiltonian
Converging empty states (this may take a while): |deigs|: 7.019e-05
Single-point solvation energy estimate, DeltaF = -0.007729389959422

Computing DFT-D3 correction:
# coordination-number Pt 5.958 7.038 5.958 6.016 5.954 5.954 5.954 5.954 7.677 7.677 7.677 7.677 9.494 9.494 9.494 9.494 9.261 9.261 9.261 9.261 9.597 9.597 9.597 9.597 9.519 9.519 9.519 9.519 9.598 9.598 9.598 9.598 9.264 9.264 9.264 9.264 9.499 9.497 9.499 9.497 7.689 7.689 7.682 7.689
# coordination-number C 2.091
# coordination-number O 1.089
# diagonal-C6 Pt 336.87 336.87 336.87 336.87 336.87 336.87 336.87 336.87 336.87 336.87 336.87 336.87 336.87 336.87 336.87 336.87 336.87 336.87 336.87 336.87 336.87 336.87 336.87 336.87 336.87 336.87 336.87 336.87 336.87 336.87 336.87 336.87 336.87 336.87 336.87 336.87 336.87 336.87 336.87 336.87 336.87 336.87 336.87 336.87
# diagonal-C6 C 29.32
# diagonal-C6 O 12.74
EvdW_6 =   -0.390411
EvdW_8 =   -0.630159

# Ionic positions in cartesian coordinates:
ion Pt   5.241340000000000   0.218295000000000  23.220851000000003 0
ion Pt   2.625348000000001   8.894560000000000  23.220851000000003 0
ion Pt   0.009344000000000   0.218295000000000  23.220851000000003 0
ion Pt  -2.606647000000000   8.894560000000000  23.220851000000003 0
ion Pt  -0.009459000000000   4.514096000000000   1.317516000000000 0
ion Pt  -2.625445999999999  13.190378999999998   1.317516000000000 0
ion Pt   5.222547000000000   4.514096000000000   1.317516000000000 0
ion Pt   2.606540000000002  13.190378999999998   1.317516000000000 0
ion Pt   2.606795000000000   0.560262000000000   3.078081000000000 0
ion Pt  -0.009207000000000   9.236561999999999   3.078081000000000 0
ion Pt   7.838791000000000   0.560262000000000   3.078081000000000 0
ion Pt   5.222789000000000   9.236561999999999   3.078081000000000 0
ion Pt   2.609997000000000   5.509561000000000   5.634781000000000 0
ion Pt  -0.006004999999998  14.185860999999997   5.634781000000000 0
ion Pt   7.841993000000000   5.509561000000000   5.634781000000000 0
ion Pt   5.225991000000001  14.185860999999997   5.634781000000000 0
ion Pt  -0.003359000000000   1.572871000000000   7.779941000000001 0
ion Pt  -2.619355999999999  10.249154000000001   7.779941000000001 0
ion Pt   5.228637000000000   1.572871000000000   7.779941000000001 0
ion Pt   2.612640000000000  10.249154000000001   7.779941000000001 0
ion Pt  -0.002505000000000   6.318328999999999  10.051066000000002 0
ion Pt  -2.618501999999999  14.994611999999998  10.051066000000002 0
ion Pt   5.229490000000001   6.318328999999999  10.051066000000002 0
[...]
force Pt  -0.000084622897217   0.000293156993499  -0.003057516747936 0
force Pt   0.000813172188592   0.000317871411958  -0.000239338316374 0
force Pt  -0.000005502913277  -0.000217574406665  -0.000896729850616 0
force Pt  -0.000822872712643   0.000241040014841  -0.000069072977017 0
force Pt  -0.000050840182579   0.000009037750283  -0.000371235132463 0
force Pt   0.000199546661009  -0.000340957033542   0.000167733005122 0
force Pt   0.000108466164003  -0.000042022096708   0.000120844972587 0
force Pt   0.000414920977691  -0.000562643525914   0.000518069075715 0
force Pt   0.000310843429760  -0.000129527147779   0.000107429179429 0
force Pt  -0.000083263200074  -0.001027743671274  -0.000280479116243 0
force Pt  -0.000332696766687  -0.000510318810686  -0.000007313622327 0
force Pt  -0.000169949185153  -0.000578004540378  -0.000439560741756 0
force Pt  -0.000094817304458  -0.000512729360106   0.000027855798554 0
force Pt   0.000413447780474   0.001057625723492   0.000161086481206 0
force Pt   0.000096395780292   0.000572323199485  -0.000191657121377 0
force Pt  -0.000408595208048   0.001105131715778   0.000172937724029 0
force Pt  -0.000063513449986   0.000819261945356   0.000205182292633 0
force Pt   0.001491204108376   0.000075802951044  -0.001278653636471 0
force Pt   0.000199100846361   0.000564211778320   0.000340455429604 0
force Pt  -0.001130709284204   0.000175725847365  -0.001113263003775 0
force Pt   0.000034258565503   0.000692796698748   0.000433388652051 0
force Pt  -0.000048812004488  -0.000177712240974  -0.000122661718476 0
force Pt  -0.000112901298976  -0.000454415823945   0.000660248798676 0
force Pt   0.000162508005598   0.000613001101601   0.000732439893725 0
force Pt   0.000089135074098  -0.000564712079922   0.000929074748445 0
force Pt  -0.000090985752614  -0.000010211029097   0.001948321141493 0
force Pt  -0.000199323089032  -0.000687996249268   0.000019647228942 0
force Pt  -0.000164852223301  -0.001700943731221  -0.006327201078324 0
force Pt  -0.000168399077322  -0.000553266064833  -0.000013624087599 0
force Pt  -0.000734620693662   0.000438147059413  -0.000001610005624 0
force Pt  -0.000049352172336  -0.001669144491499  -0.000791307577981 0
force Pt   0.000793359610116   0.000502632995433  -0.000024579405010 0
force Pt  -0.000004330794203   0.000639889815902   0.000723620028154 0
force Pt   0.002736392959603   0.002433077405359   0.002281669233795 0
force Pt   0.000154496420436   0.001644221003665  -0.001021169527271 0
force Pt  -0.002635838394720   0.002796457896785   0.002766434722767 0
force Pt   0.000019921922407   0.000123962092759   0.000209658488833 0
force Pt  -0.000265394872474  -0.006112004545452  -0.005288238125015 0
force Pt  -0.004562155516767   0.006365985081508  -0.006075108298145 0
force Pt  -0.000167438137779  -0.003021859196751  -0.000045087514483 0
force Pt   0.004027942094754   0.006413476653097  -0.005904638224275 0
force C   0.001656863124665   0.003685068565421  -0.000159140578795 1  Linear 0 0 1
force O  -0.001119167476960  -0.001214524757829   0.000063994674358 1  Linear 0 0 1

# Energy components:
   A_diel =       -0.0073489920664878
   Eewald =    43682.1508931285861763
       EH =    47251.6852331129484810
     Eloc =   -95557.4815895178326173
      Enl =      -43.2283601561817292
     EvdW =       -1.0196785398308266
      Exc =    -1257.1449720428965975
 Exc_core =      721.3195352746542994
       KE =     1267.2518974418974267
-------------------------------------
     Etot =    -3936.4743902907248412
       TS =        0.0074834639811565
-------------------------------------
        F =    -3936.4818737547061573


Dumping 'jdft.fillings' ... done
Dumping 'jdft.wfns' ... done
Dumping 'jdft.fluidState' ... done
Dumping 'jdft.ionpos' ... done
Dumping 'jdft.lattice' ... done
Dumping 'jdft.eigenvals' ... done
Dumping 'jdft.eigStats' ... 
	eMin: -2.171990 at state 11 ( [ +0.000000 +0.333333 +0.000000 ] spin -1 )
	HOMO: -0.193378 at state 0 ( [ +0.000000 +0.000000 +0.000000 ] spin 1 )
	mu  : -0.193197
	LUMO: -0.193107 at state 12 ( [ +0.166667 +0.000000 +0.000000 ] spin -1 )
	eMax: +0.085234 at state 9 ( [ +0.500000 +0.333333 +0.000000 ] spin 1 )
	HOMO-LUMO gap: +0.000271
	Optical gap  : +0.000610 at state 4 ( [ +0.166667 -0.333333 +0.000000 ] spin 1 )
Dumping 'jdft.Ecomponents' ... done
IonicMinimize: Iter:   8  F: -3936.481873754706157  |grad|_K:  1.213e-04  alpha:  3.273e-01  linmin:  1.816e-03  t[s]:  61293.36

#--- Lowdin population analysis ---
# oxidation-state Pt +0.058 -0.105 +0.058 +0.037 +0.061 +0.059 +0.061 +0.059 -0.019 -0.018 -0.018 -0.018 -0.012 -0.014 -0.014 -0.014 +0.009 +0.010 +0.009 +0.008 +0.010 +0.009 +0.010 +0.009 +0.012 +0.012 +0.011 +0.012 +0.011 +0.012 -0.004 +0.011 +0.013 +0.011 +0.013 +0.009 -0.030 -0.010 -0.030 -0.010 -0.023 -0.021 -0.016 -0.021
# magnetic-moments Pt -0.000 -0.000 -0.000 -0.000 -0.000 -0.000 -0.000 -0.000 -0.000 -0.000 -0.000 -0.000 -0.000 -0.000 -0.000 -0.000 -0.000 -0.000 -0.000 -0.000 -0.000 -0.000 -0.000 -0.000 -0.000 -0.000 -0.000 -0.000 -0.000 -0.000 -0.000 -0.000 -0.000 -0.000 -0.000 -0.000 -0.000 -0.000 -0.000 -0.000 -0.000 -0.000 -0.000 -0.000
# oxidation-state C +0.498
# magnetic-moments C +0.000
# oxidation-state O -0.115
# magnetic-moments O +0.000


Computing DFT-D3 correction:
# coordination-number Pt 5.958 6.981 5.958 5.995 5.954 5.954 5.954 5.954 7.677 7.677 7.677 7.677 9.494 9.494 9.494 9.494 9.261 9.261 9.261 9.261 9.597 9.597 9.597 9.597 9.519 9.519 9.519 9.519 9.598 9.598 9.598 9.598 9.264 9.264 9.264 9.264 9.498 9.497 9.498 9.497 7.685 7.685 7.681 7.685
# coordination-number C 2.056
# coordination-number O 1.034
# diagonal-C6 Pt 336.87 336.87 336.87 336.87 336.87 336.87 336.87 336.87 336.87 336.87 336.87 336.87 336.87 336.87 336.87 336.87 336.87 336.87 336.87 336.87 336.87 336.87 336.87 336.87 336.87 336.87 336.87 336.87 336.87 336.87 336.87 336.87 336.87 336.87 336.87 336.87 336.87 336.87 336.87 336.87 336.87 336.87 336.87 336.87
# diagonal-C6 C 29.38
# diagonal-C6 O 12.78
EvdW_6 =   -0.390086
EvdW_8 =   -0.629593

-------- Electronic minimization -----------
	Linear fluid (dielectric constant: 78.4, screening length: 8.12261 Bohr) occupying 0.531695 of unit cell:	Completed after 11 iterations at t[s]:  61363.15
	FillingsUpdate:  mu: -0.193939517  nElectrons: 714.000000  magneticMoment: [ Abs: 0.00000  Tot: -0.00000 ]
ElecMinimize: Iter:   0  F: -3936.481837380249090  |grad|_K:  8.818e-07  alpha:  1.000e+00
	Linear fluid (dielectric constant: 78.4, screening length: 8.12261 Bohr) occupying 0.531734 of unit cell:	Completed after 19 iterations at t[s]:  61491.81
	Linear fluid (dielectric constant: 78.4, screening length: 8.12261 Bohr) occupying 0.531696 of unit cell:	Completed after 16 iterations at t[s]:  61537.81
	FillingsUpdate:  mu: -0.193265991  nElectrons: 714.000000  magneticMoment: [ Abs: 0.00000  Tot: -0.00000 ]
	SubspaceRotationAdjust: set factor to 0.108
ElecMinimize: Iter:   1  F: -3936.481873381680543  |grad|_K:  6.026e-08  alpha:  9.423e-02  linmin:  1.302e-03  t[s]:  61596.59
	Linear fluid (dielectric constant: 78.4, screening length: 8.12261 Bohr) occupying 0.531696 of unit cell:	Completed after 2 iterations at t[s]:  61653.40
	Linear fluid (dielectric constant: 78.4, screening length: 8.12261 Bohr) occupying 0.531696 of unit cell:	Completed after 2 iterations at t[s]:  61695.07
	FillingsUpdate:  mu: -0.193176900  nElectrons: 714.000000  magneticMoment: [ Abs: 0.00000  Tot: -0.00000 ]
	SubspaceRotationAdjust: set factor to 0.0876
ElecMinimize: Iter:   2  F: -3936.481873836174145  |grad|_K:  3.198e-08  alpha:  2.464e-01  linmin: -5.214e-03  t[s]:  61753.67
	Linear fluid (dielectric constant: 78.4, screening length: 8.12261 Bohr) occupying 0.531696 of unit cell:	Completed after 3 iterations at t[s]:  61810.86
	Linear fluid (dielectric constant: 78.4, screening length: 8.12261 Bohr) occupying 0.531696 of unit cell:	Completed after 0 iterations at t[s]:  61852.25
	FillingsUpdate:  mu: -0.193192094  nElectrons: 714.000000  magneticMoment: [ Abs: 0.00000  Tot: -0.00000 ]
	SubspaceRotationAdjust: set factor to 0.0603
ElecMinimize: Iter:   3  F: -3936.481873978182648  |grad|_K:  1.784e-08  alpha:  2.721e-01  linmin: -4.089e-03  t[s]:  61910.95
	Linear fluid (dielectric constant: 78.4, screening length: 8.12261 Bohr) occupying 0.531696 of unit cell:	Completed after 2 iterations at t[s]:  61968.01
	Linear fluid (dielectric constant: 78.4, screening length: 8.12261 Bohr) occupying 0.531696 of unit cell:	Completed after 0 iterations at t[s]:  62008.64
	FillingsUpdate:  mu: -0.193217647  nElectrons: 714.000000  magneticMoment: [ Abs: 0.00000  Tot: -0.00000 ]
	SubspaceRotationAdjust: set factor to 0.0579
ElecMinimize: Iter:   4  F: -3936.481874025051638  |grad|_K:  1.369e-08  alpha:  2.849e-01  linmin: -7.815e-03  t[s]:  62067.42
	Linear fluid (dielectric constant: 78.4, screening length: 8.12261 Bohr) occupying 0.531696 of unit cell:	Completed after 0 iterations at t[s]:  62123.64
	Linear fluid (dielectric constant: 78.4, screening length: 8.12261 Bohr) occupying 0.531696 of unit cell:	Completed after 2 iterations at t[s]:  62165.89
	FillingsUpdate:  mu: -0.193196094  nElectrons: 714.000000  magneticMoment: [ Abs: 0.00000  Tot: -0.00000 ]
	SubspaceRotationAdjust: set factor to 0.0579
ElecMinimize: Iter:   5  F: -3936.481874040951880  |grad|_K:  1.831e-08  alpha:  5.318e-01  linmin:  3.210e-02  t[s]:  62224.55
ElecMinimize: Converged (|Delta F|<1.000000e-07 for 2 iters).
Setting wave functions to eigenvectors of Hamiltonian
Converging empty states (this may take a while): |deigs|: 1.042e-09

Computing DFT-D3 correction:
# coordination-number Pt 5.958 6.981 5.958 5.995 5.954 5.954 5.954 5.954 7.677 7.677 7.677 7.677 9.494 9.494 9.494 9.494 9.261 9.261 9.261 9.261 9.597 9.597 9.597 9.597 9.519 9.519 9.519 9.519 9.598 9.598 9.598 9.598 9.264 9.264 9.264 9.264 9.498 9.497 9.498 9.497 7.685 7.685 7.681 7.685
# coordination-number C 2.056
# coordination-number O 1.034
# diagonal-C6 Pt 336.87 336.87 336.87 336.87 336.87 336.87 336.87 336.87 336.87 336.87 336.87 336.87 336.87 336.87 336.87 336.87 336.87 336.87 336.87 336.87 336.87 336.87 336.87 336.87 336.87 336.87 336.87 336.87 336.87 336.87 336.87 336.87 336.87 336.87 336.87 336.87 336.87 336.87 336.87 336.87 336.87 336.87 336.87 336.87
# diagonal-C6 C 29.38
# diagonal-C6 O 12.78
EvdW_6 =   -0.390086
EvdW_8 =   -0.629593

# Ionic positions in cartesian coordinates:
ion Pt   5.241340000000000   0.218295000000000  23.220851000000003 0
ion Pt   2.625348000000001   8.894560000000000  23.220851000000003 0
ion Pt   0.009344000000000   0.218295000000000  23.220851000000003 0
ion Pt  -2.606647000000000   8.894560000000000  23.220851000000003 0
ion Pt  -0.009459000000000   4.514096000000000   1.317516000000000 0
ion Pt  -2.625445999999999  13.190378999999998   1.317516000000000 0
ion Pt   5.222547000000000   4.514096000000000   1.317516000000000 0
ion Pt   2.606540000000002  13.190378999999998   1.317516000000000 0
ion Pt   2.606795000000000   0.560262000000000   3.078081000000000 0
ion Pt  -0.009207000000000   9.236561999999999   3.078081000000000 0
ion Pt   7.838791000000000   0.560262000000000   3.078081000000000 0
ion Pt   5.222789000000000   9.236561999999999   3.078081000000000 0
ion Pt   2.609997000000000   5.509561000000000   5.634781000000000 0
ion Pt  -0.006004999999998  14.185860999999997   5.634781000000000 0
ion Pt   7.841993000000000   5.509561000000000   5.634781000000000 0
ion Pt   5.225991000000001  14.185860999999997   5.634781000000000 0
ion Pt  -0.003359000000000   1.572871000000000   7.779941000000001 0
ion Pt  -2.619355999999999  10.249154000000001   7.779941000000001 0
ion Pt   5.228637000000000   1.572871000000000   7.779941000000001 0
ion Pt   2.612640000000000  10.249154000000001   7.779941000000001 0
ion Pt  -0.002505000000000   6.318328999999999  10.051066000000002 0
ion Pt  -2.618501999999999  14.994611999999998  10.051066000000002 0
ion Pt   5.229490000000001   6.318328999999999  10.051066000000002 0
ion Pt   2.613493000000001  14.994611999999998  10.051066000000002 0
ion Pt   2.616171000000000   2.366906999999999  12.270803000000001 0
ion Pt   0.000174000000001  11.043189999999997  12.270803000000001 0
ion Pt   7.848167000000002   2.366906999999999  12.270803000000001 0
ion Pt   5.232170000000000  11.043189999999997  12.270803000000001 0
ion Pt   2.618583000000000   7.091334000000000  14.490026000000002 0
ion Pt   0.002581000000000  15.767633999999997  14.490026000000002 0
ion Pt   7.850579000000000   7.091334000000000  14.490026000000002 0
ion Pt   5.234577000000002  15.767633999999997  14.490026000000002 0
ion Pt   0.003506000000000   3.159276999999999  16.761077000000000 0
ion Pt  -2.612480999999999  11.835559999999999  16.761077000000000 0
ion Pt   5.235502000000000   3.159276999999999  16.761077000000000 0
ion Pt   2.619515000000000  11.835559999999999  16.761077000000000 0
ion Pt   0.005971000000000   7.898454000000000  18.905721000000000 0
ion Pt  -2.610025999999999  16.574736000000001  18.905721000000000 0
ion Pt   5.237966000000002   7.898454000000000  18.905721000000000 0
ion Pt   2.621969000000001  16.574736000000001  18.905721000000000 0
ion Pt   2.624935000000000   4.172007999999999  21.461684999999999 0
ion Pt   0.008938000000001  12.848289999999999  21.461684999999999 0
ion Pt   7.856931000000001   4.172007999999999  21.461684999999999 0
ion Pt   5.240934000000001  12.848289999999999  21.461684999999999 0
ion C   2.625348000000001   8.894560000000000  26.702690975824130 1  Linear 0 0 1
ion O   2.685443000000001   8.894560000000000  28.889234264093801 1  Linear 0 0 1

# Forces in Cartesian coordinates:
force Pt  -0.000174789409634   0.000092083593047   0.001195520562592 0
force Pt  -0.000279067467559  -0.011556462095108   0.020277394878561 0
force Pt   0.000205102795039  -0.000027927945403   0.001198196246438 0
force Pt  -0.000086310229588   0.000278608542352  -0.002919312052798 0
force Pt   0.000813752283461   0.000307258852527  -0.000313323417401 0
force Pt  -0.000006073832499  -0.000207607965358  -0.000974339075677 0
force Pt  -0.000823591444256   0.000230822603057  -0.000142313492755 0
force Pt  -0.000050537331265   0.000019981815842  -0.000448038711840 0
force Pt   0.000199910696246  -0.000353351070478   0.000237672427084 0
force Pt   0.000107702804385  -0.000051204660301   0.000182864665343 0
force Pt   0.000414874765175  -0.000574990370186   0.000591527148660 0
force Pt   0.000312053313097  -0.000137814215324   0.000169221453308 0
force Pt  -0.000082811299342  -0.001035146630083  -0.000052347209206 0
force Pt  -0.000333337055308  -0.000488036447145   0.000212842839055 0
force Pt  -0.000169912884839  -0.000586210370398  -0.000217900410921 0
force Pt  -0.000093973761335  -0.000490428774924   0.000247541268453 0
force Pt   0.000416720751597   0.001057406536768   0.000265166796696 0
force Pt   0.000096625887473   0.000574177237694  -0.000068246242325 0
force Pt  -0.000411184819472   0.001104321429175   0.000277277437563 0
force Pt  -0.000062609399676   0.000820602215110   0.000326421510107 0
force Pt   0.001489878392975   0.000074610756929  -0.001420206132910 0
force Pt   0.000199289101108   0.000564089319160   0.000177676079166 0
force Pt  -0.001130020707973   0.000174764875751  -0.001255216603231 0
force Pt   0.000034408410425   0.000692064651573   0.000271490246530 0
force Pt  -0.000048860599378  -0.000166802825907  -0.000466469858912 0
force Pt  -0.000116392256667  -0.000474221255137   0.000332717610766 0
force Pt   0.000161940505992   0.000625583094709   0.000385611446952 0
force Pt   0.000091921635400  -0.000585114136064   0.000600410416993 0
force Pt  -0.000089569130396  -0.000005451595078   0.001624890958862 0
force Pt  -0.000201786522768  -0.000698541917858  -0.000317221674183 0
force Pt  -0.000164330962519  -0.001695699426325  -0.006671355436449 0
force Pt  -0.000166010743403  -0.000564437390848  -0.000350733164255 0
force Pt  -0.000730841791788   0.000465599886621  -0.000138786170507 0
force Pt  -0.000049353574519  -0.001696782354149  -0.000933190813906 0
force Pt   0.000790960840906   0.000529371223880  -0.000161596226452 0
force Pt  -0.000003598747356   0.000624385362101   0.000562643995827 0
force Pt   0.002696469833390   0.002417294134725   0.002273260932454 0
force Pt   0.000154456698609   0.001648486431530  -0.000957126588317 0
force Pt  -0.002596098980913   0.002780384167402   0.002758647409013 0
force Pt   0.000019857858229   0.000132481592178   0.000268932328596 0
force Pt  -0.000263576250564  -0.006135292654063  -0.005138881858910 0
force Pt  -0.004588250143871   0.006384237140335  -0.005929598715241 0
force Pt  -0.000167468302129  -0.003028005613934   0.000093822768812 0
force Pt   0.004054975064834   0.006430586409393  -0.005759932644282 0
force C   0.001666384131744   0.003688443704512   0.000083601718180 1  Linear 0 0 1
force O  -0.001118145394819  -0.001210964962716  -0.000068970258078 1  Linear 0 0 1

# Energy components:
   A_diel =       -0.0073503092648509
   Eewald =    43682.1713878914742963
       EH =    47251.7134328904357972
     Eloc =   -95557.5301438615133520
      Enl =      -43.2283754987912090
     EvdW =       -1.0196789164045328
      Exc =    -1257.1449147324465230
 Exc_core =      721.3195353044744706
       KE =     1267.2517164420414701
-------------------------------------
     Etot =    -3936.4743907899865007
       TS =        0.0074832509652166
-------------------------------------
        F =    -3936.4818740409518796


Dumping 'jdft.fillings' ... done
Dumping 'jdft.wfns' ... done
Dumping 'jdft.fluidState' ... done
Dumping 'jdft.ionpos' ... done
Dumping 'jdft.lattice' ... done
Dumping 'jdft.eigenvals' ... done
Dumping 'jdft.eigStats' ... 
	eMin: -2.172101 at state 11 ( [ +0.000000 +0.333333 +0.000000 ] spin -1 )
	HOMO: -0.193379 at state 4 ( [ +0.166667 -0.333333 +0.000000 ] spin 1 )
	mu  : -0.193196
	LUMO: -0.193119 at state 12 ( [ +0.166667 +0.000000 +0.000000 ] spin -1 )
	eMax: +0.085234 at state 9 ( [ +0.500000 +0.333333 +0.000000 ] spin 1 )
	HOMO-LUMO gap: +0.000260
	Optical gap  : +0.000610 at state 4 ( [ +0.166667 -0.333333 +0.000000 ] spin 1 )
Dumping 'jdft.Ecomponents' ... done
IonicMinimize: Iter:   9  F: -3936.481874040951880  |grad|_K:  7.664e-05  alpha:  1.000e+00  linmin:  1.375e-03  t[s]:  62389.47
IonicMinimize: Converged (|grad|_K<1.000000e-04).

#--- Lowdin population analysis ---
# oxidation-state Pt +0.056 -0.107 +0.056 +0.035 +0.063 +0.060 +0.063 +0.060 -0.017 -0.016 -0.017 -0.016 -0.010 -0.012 -0.011 -0.012 +0.012 +0.013 +0.012 +0.011 +0.013 +0.011 +0.013 +0.011 +0.013 +0.012 +0.011 +0.013 +0.011 +0.010 -0.005 +0.010 +0.010 +0.009 +0.010 +0.006 -0.032 -0.013 -0.032 -0.013 -0.025 -0.023 -0.018 -0.023
# magnetic-moments Pt -0.000 -0.000 -0.000 -0.000 -0.000 -0.000 -0.000 -0.000 -0.000 -0.000 -0.000 -0.000 -0.000 -0.000 -0.000 -0.000 -0.000 -0.000 -0.000 -0.000 -0.000 -0.000 -0.000 -0.000 -0.000 -0.000 -0.000 -0.000 -0.000 -0.000 -0.000 -0.000 -0.000 -0.000 -0.000 -0.000 -0.000 -0.000 -0.000 -0.000 -0.000 -0.000 -0.000 -0.000
# oxidation-state C +0.499
# magnetic-moments C +0.000
# oxidation-state O -0.116
# magnetic-moments O +0.000


Dumping 'jdft.n_up' ... done
Dumping 'jdft.n_dn' ... done
Dumping 'jdft.tau_up' ... done
Dumping 'jdft.tau_dn' ... done
Dumping 'jdft.eigenvals' ... done
Dumping 'jdft.eigStats' ... 
	eMin: -2.172101 at state 11 ( [ +0.000000 +0.333333 +0.000000 ] spin -1 )
	HOMO: -0.193379 at state 4 ( [ +0.166667 -0.333333 +0.000000 ] spin 1 )
	mu  : -0.193196
	LUMO: -0.193119 at state 12 ( [ +0.166667 +0.000000 +0.000000 ] spin -1 )
	eMax: +0.085234 at state 9 ( [ +0.500000 +0.333333 +0.000000 ] spin 1 )
	HOMO-LUMO gap: +0.000260
	Optical gap  : +0.000610 at state 4 ( [ +0.166667 -0.333333 +0.000000 ] spin 1 )
Dumping 'jdft.kPts' ... done
Dumping 'jdft.kMap' ... done
Dumping 'jdft.dosUp' ... done.
Dumping 'jdft.dosDn' ... done.
End date and time: Thu Feb 17 21:13:58 2022  (Duration: 0-17:21:20.27)
Done!
