
*************** JDFTx 1.7.0 (git hash 5f12716a) ***************

Start date and time: Thu Sep  8 18:38:19 2022
Executable /home/nisi6161/jdftx_alpine/build/jdftx with command-line: -i in
Running on hosts (process indices):  c3cpu-a2-u13-4.rc.int.colorado.edu (0-17)
Divided in process groups (process indices):  0 (0)  1 (1)  2 (2)  3 (3)  4 (4)  5 (5)  6 (6)  7 (7)  8 (8)  9 (9)  10 (10)  11 (11)  12 (12)  13 (13)  14 (14)  15 (15)  16 (16)  17 (17)
Resource initialization completed at t[s]:      0.00
Run totals: 18 processes, 64 threads, 0 GPUs


Input parsed successfully to the following command list (including defaults):

basis kpoint-dependent
converge-empty-states yes
coords-type Cartesian
core-overlap-check none
coulomb-interaction Periodic
davidson-band-ratio 1.1
density-of-states Etol 1.000000e-06 Esigma 1.000000e-03 \
		Complete \
	Total \
	OrthoOrbital Cu 1   s \
	OrthoOrbital Cu 1   p \
	OrthoOrbital Cu 1   px \
	OrthoOrbital Cu 1   py \
	OrthoOrbital Cu 1   pz \
	OrthoOrbital Cu 1   d \
	OrthoOrbital Cu 1   dxy \
	OrthoOrbital Cu 1   dyz \
	OrthoOrbital Cu 1   dz2 \
	OrthoOrbital Cu 1   dxz \
	OrthoOrbital Cu 1   dx2-y2 \
	OrthoOrbital Cu 2   s \
	OrthoOrbital Cu 2   p \
	OrthoOrbital Cu 2   px \
	OrthoOrbital Cu 2   py \
	OrthoOrbital Cu 2   pz \
	OrthoOrbital Cu 2   d \
	OrthoOrbital Cu 2   dxy \
	OrthoOrbital Cu 2   dyz \
	OrthoOrbital Cu 2   dz2 \
	OrthoOrbital Cu 2   dxz \
	OrthoOrbital Cu 2   dx2-y2 \
	OrthoOrbital Cu 3   s \
	OrthoOrbital Cu 3   p \
	OrthoOrbital Cu 3   px \
	OrthoOrbital Cu 3   py \
	OrthoOrbital Cu 3   pz \
	OrthoOrbital Cu 3   d \
	OrthoOrbital Cu 3   dxy \
	OrthoOrbital Cu 3   dyz \
	OrthoOrbital Cu 3   dz2 \
	OrthoOrbital Cu 3   dxz \
	OrthoOrbital Cu 3   dx2-y2 \
	OrthoOrbital Cu 4   s \
	OrthoOrbital Cu 4   p \
	OrthoOrbital Cu 4   px \
	OrthoOrbital Cu 4   py \
	OrthoOrbital Cu 4   pz \
	OrthoOrbital Cu 4   d \
	OrthoOrbital Cu 4   dxy \
	OrthoOrbital Cu 4   dyz \
	OrthoOrbital Cu 4   dz2 \
	OrthoOrbital Cu 4   dxz \
	OrthoOrbital Cu 4   dx2-y2 \
	OrthoOrbital Cu 5   s \
	OrthoOrbital Cu 5   p \
	OrthoOrbital Cu 5   px \
	OrthoOrbital Cu 5   py \
	OrthoOrbital Cu 5   pz \
	OrthoOrbital Cu 5   d \
	OrthoOrbital Cu 5   dxy \
	OrthoOrbital Cu 5   dyz \
	OrthoOrbital Cu 5   dz2 \
	OrthoOrbital Cu 5   dxz \
	OrthoOrbital Cu 5   dx2-y2 \
	OrthoOrbital Cu 6   s \
	OrthoOrbital Cu 6   p \
	OrthoOrbital Cu 6   px \
	OrthoOrbital Cu 6   py \
	OrthoOrbital Cu 6   pz \
	OrthoOrbital Cu 6   d \
	OrthoOrbital Cu 6   dxy \
	OrthoOrbital Cu 6   dyz \
	OrthoOrbital Cu 6   dz2 \
	OrthoOrbital Cu 6   dxz \
	OrthoOrbital Cu 6   dx2-y2 \
	OrthoOrbital Cu 7   s \
	OrthoOrbital Cu 7   p \
	OrthoOrbital Cu 7   px \
	OrthoOrbital Cu 7   py \
	OrthoOrbital Cu 7   pz \
	OrthoOrbital Cu 7   d \
	OrthoOrbital Cu 7   dxy \
	OrthoOrbital Cu 7   dyz \
	OrthoOrbital Cu 7   dz2 \
	OrthoOrbital Cu 7   dxz \
	OrthoOrbital Cu 7   dx2-y2 \
	OrthoOrbital Cu 8   s \
	OrthoOrbital Cu 8   p \
	OrthoOrbital Cu 8   px \
	OrthoOrbital Cu 8   py \
	OrthoOrbital Cu 8   pz \
	OrthoOrbital Cu 8   d \
	OrthoOrbital Cu 8   dxy \
	OrthoOrbital Cu 8   dyz \
	OrthoOrbital Cu 8   dz2 \
	OrthoOrbital Cu 8   dxz \
	OrthoOrbital Cu 8   dx2-y2 \
	OrthoOrbital Cu 9   s \
	OrthoOrbital Cu 9   p \
	OrthoOrbital Cu 9   px \
	OrthoOrbital Cu 9   py \
	OrthoOrbital Cu 9   pz \
	OrthoOrbital Cu 9   d \
	OrthoOrbital Cu 9   dxy \
	OrthoOrbital Cu 9   dyz \
	OrthoOrbital Cu 9   dz2 \
	OrthoOrbital Cu 9   dxz \
	OrthoOrbital Cu 9   dx2-y2 \
	OrthoOrbital Cu 10   s \
	OrthoOrbital Cu 10   p \
	OrthoOrbital Cu 10   px \
	OrthoOrbital Cu 10   py \
	OrthoOrbital Cu 10   pz \
	OrthoOrbital Cu 10   d \
	OrthoOrbital Cu 10   dxy \
	OrthoOrbital Cu 10   dyz \
	OrthoOrbital Cu 10   dz2 \
	OrthoOrbital Cu 10   dxz \
	OrthoOrbital Cu 10   dx2-y2 \
	OrthoOrbital Cu 11   s \
	OrthoOrbital Cu 11   p \
	OrthoOrbital Cu 11   px \
	OrthoOrbital Cu 11   py \
	OrthoOrbital Cu 11   pz \
	OrthoOrbital Cu 11   d \
	OrthoOrbital Cu 11   dxy \
	OrthoOrbital Cu 11   dyz \
	OrthoOrbital Cu 11   dz2 \
	OrthoOrbital Cu 11   dxz \
	OrthoOrbital Cu 11   dx2-y2 \
	OrthoOrbital Cu 12   s \
	OrthoOrbital Cu 12   p \
	OrthoOrbital Cu 12   px \
	OrthoOrbital Cu 12   py \
	OrthoOrbital Cu 12   pz \
	OrthoOrbital Cu 12   d \
	OrthoOrbital Cu 12   dxy \
	OrthoOrbital Cu 12   dyz \
	OrthoOrbital Cu 12   dz2 \
	OrthoOrbital Cu 12   dxz \
	OrthoOrbital Cu 12   dx2-y2
dump End ElecDensity KEdensity BandEigs EigStats RhoAtom DOS Kpoints
dump Ionic State IonicPositions Lattice EigStats Ecomponents
dump 
dump 
dump 
dump 
dump 
dump 
dump 
dump 
dump-name jdft.$VAR
elec-cutoff 20
elec-eigen-algo Davidson
elec-ex-corr gga-PBE
elec-initial-magnetization 0.000000 no
elec-n-bands 137
elec-smearing Fermi 0.001
electronic-minimize  \
	dirUpdateScheme      FletcherReeves \
	linminMethod         DirUpdateRecommended \
	nIterations          100 \
	history              15 \
	knormThreshold       0 \
	energyDiffThreshold  1e-07 \
	nEnergyDiff          2 \
	alphaTstart          1 \
	alphaTmin            1e-10 \
	updateTestStepSize   yes \
	alphaTreduceFactor   0.1 \
	alphaTincreaseFactor 3 \
	nAlphaAdjustMax      3 \
	wolfeEnergy          0.0001 \
	wolfeGradient        0.9 \
	fdTest               no
exchange-regularization WignerSeitzTruncated
fluid LinearPCM 298.000000 1.013250
fluid-anion F- 0.5 MeanFieldLJ \
	epsBulk 1 \
	pMol 0 \
	epsInf 1 \
	Pvap 0 \
	sigmaBulk 0 \
	Rvdw 2.24877 \
	Res 0 \
	tauNuc 343133
fluid-cation Na+ 0.5 MeanFieldLJ \
	epsBulk 1 \
	pMol 0 \
	epsInf 1 \
	Pvap 0 \
	sigmaBulk 0 \
	Rvdw 2.19208 \
	Res 0 \
	tauNuc 343133
fluid-ex-corr lda-TF lda-PZ
fluid-gummel-loop 10 1.000000e-05
fluid-minimize  \
	dirUpdateScheme      PolakRibiere \
	linminMethod         DirUpdateRecommended \
	nIterations          400 \
	history              15 \
	knormThreshold       1e-11 \
	energyDiffThreshold  0 \
	nEnergyDiff          2 \
	alphaTstart          1 \
	alphaTmin            1e-10 \
	updateTestStepSize   yes \
	alphaTreduceFactor   0.1 \
	alphaTincreaseFactor 3 \
	nAlphaAdjustMax      6 \
	wolfeEnergy          0.0001 \
	wolfeGradient        0.9 \
	fdTest               no
fluid-solvent H2O 55.338 ScalarEOS \
	epsBulk 78.4 \
	pMol 0.92466 \
	epsInf 1.77 \
	Pvap 1.06736e-10 \
	sigmaBulk 4.62e-05 \
	Rvdw 2.61727 \
	Res 1.42 \
	tauNuc 343133 \
	poleEl 15 7 1
forces-output-coords Positions
ion Cu  -0.000086000000000   0.016743000000000  15.722790999999999 1
ion Cu   0.000014000000000   3.887281000000000   2.012458000000000 1
ion Cu   0.000033000000000   7.848761999999999   4.816653000000000 1
ion Cu   0.000024000000000   0.009562000000000   7.572302000000000 1
ion Cu   0.000033000000000   3.887083000000000  10.322651000000000 1
ion Cu  -0.000052000000000   7.727193000000001  13.177373000000001 1
ion Cu   2.383259000000000   0.056616000000000   3.333985000000000 1
ion Cu   2.383354000000000   3.896902000000000   6.191134000000000 1
ion Cu   2.383359000000000   7.774387000000000   8.940294000000000 1
ion Cu   2.383268000000000  -0.064824000000000  11.695002000000001 1
ion Cu   2.383345000000000   3.896563000000000  14.499346000000001 1
ion Cu   2.383311000000000   7.766914000000000   0.788369000000000 1
ion-species /projects/musgravc/apps/jdftx-1.6.0/build/pseudopotentials/GBRV_v1.5/$ID_pbe_v1.uspp
ion-species /projects/musgravc/apps/jdftx-1.6.0/build/pseudopotentials/GBRV_v1.5/$ID_pbe_v1.2.uspp
ion-species /projects/musgravc/apps/jdftx-1.6.0/build/pseudopotentials/GBRV_v1.5/$ID_pbe_v1.4.uspp
ion-species /projects/musgravc/apps/jdftx-1.6.0/build/pseudopotentials/GBRV_v1.5/$ID_pbe_v1.5.uspp
ion-width Ecut
ionic-minimize  \
	dirUpdateScheme      L-BFGS \
	linminMethod         DirUpdateRecommended \
	nIterations          100 \
	history              15 \
	knormThreshold       0.0001 \
	energyDiffThreshold  0.0001 \
	nEnergyDiff          2 \
	alphaTstart          1 \
	alphaTmin            1e-10 \
	updateTestStepSize   yes \
	alphaTreduceFactor   0.1 \
	alphaTincreaseFactor 3 \
	nAlphaAdjustMax      3 \
	wolfeEnergy          0.0001 \
	wolfeGradient        0.9 \
	fdTest               no
kpoint   0.000000000000   0.000000000000   0.000000000000  1.00000000000000
kpoint-folding 12 5 1 
latt-move-scale 0 0 0
latt-scale 1 1 1 
lattice  \
	   4.766623000000000   -0.000000000000000    0.000000000000000  \
	   0.000000000000000   11.675796000000000    0.000000000000000  \
	   0.000000000000000    0.000000000000000   49.536203999999998 
lattice-minimize  \
	dirUpdateScheme      L-BFGS \
	linminMethod         DirUpdateRecommended \
	nIterations          0 \
	history              15 \
	knormThreshold       0 \
	energyDiffThreshold  1e-06 \
	nEnergyDiff          2 \
	alphaTstart          1 \
	alphaTmin            1e-10 \
	updateTestStepSize   yes \
	alphaTreduceFactor   0.1 \
	alphaTincreaseFactor 3 \
	nAlphaAdjustMax      3 \
	wolfeEnergy          0.0001 \
	wolfeGradient        0.9 \
	fdTest               no
lcao-params 30 1e-06 0.001
pcm-variant CANDLE
spintype z-spin
subspace-rotation-factor 1 yes
symmetries automatic
symmetry-threshold 0.0001
target-mu -0.24475 no

van-der-waals D3



---------- Setting up symmetries ----------

Found 8 point-group symmetries of the bravais lattice
Found 1 space-group symmetries with basis
Applied RMS atom displacement 0 bohrs to make symmetries exact.

---------- Initializing the Grid ----------
R = 
[      4.76662            0            0  ]
[            0      11.6758            0  ]
[            0            0      49.5362  ]
unit cell volume = 2756.89
G =
[    1.31816          0         -0  ]
[          0   0.538138          0  ]
[          0         -0    0.12684  ]
Minimum fftbox size, Smin = [  20  48  200  ]
Chosen fftbox size, S = [  20  48  200  ]

---------- Exchange Correlation functional ----------
Initalized PBE GGA exchange.
Initalized PBE GGA correlation.

---------- Setting up pseudopotentials ----------
Width of ionic core gaussian charges (only for fluid interactions / plotting) set to 0.397384

Reading pseudopotential file '/projects/musgravc/apps/jdftx-1.6.0/build/pseudopotentials/GBRV_v1.5/cu_pbe_v1.2.uspp':
  Title: Cu.  Created by USPP 7.3.6 on 3-2-2014
  Reference state energy: -201.059491.  19 valence electrons in orbitals:
    |300>  occupation: 2  eigenvalue: -5.020764
    |310>  occupation: 6  eigenvalue: -3.445588
    |320>  occupation: 8  eigenvalue: -0.925168
    |400>  occupation: 2  eigenvalue: -0.567638
    |410>  occupation: 0  eigenvalue: -0.326154
  lMax: 2  lLocal: 3  QijEcut: 6
  6 projectors sampled on a log grid with 613 points:
    l: 0  eig: -5.020767  rCut: 1.4
    l: 0  eig: -0.567640  rCut: 1.4
    l: 1  eig: -3.445589  rCut: 1.55
    l: 1  eig: -0.326157  rCut: 1.55
    l: 2  eig: -0.925170  rCut: 1.5
    l: 2  eig: 1.500000  rCut: 1.5
  Partial core density with radius 0.8
  Transforming core density to a uniform radial grid of dG=0.02 with 1125 points.
  Transforming local potential to a uniform radial grid of dG=0.02 with 1125 points.
  Transforming nonlocal projectors to a uniform radial grid of dG=0.02 with 432 points.
  Transforming density augmentations to a uniform radial grid of dG=0.02 with 1125 points.
  Transforming atomic orbitals to a uniform radial grid of dG=0.02 with 432 points.
  Core radius for overlap checks: 1.55 bohrs.

Initialized 1 species with 12 total atoms.

Folded 1 k-points by 12x5x1 to 60 k-points.

---------- Setting up k-points, bands, fillings ----------
Adding inversion symmetry to k-mesh for non-inversion-symmetric unit cell.
Reduced to 31 k-points under symmetry. 
Computing the number of bands and number of electrons
Calculating initial fillings.
nElectrons: 228.000000   nBands: 137   nStates: 62

----- Setting up reduced wavefunction bases (one per k-point) -----
average nbasis = 11778.483 , ideal nbasis = 11777.660

----- Initializing Supercell corresponding to k-point mesh -----
Lattice vector linear combinations in supercell:
[  12   0   0  ]
[   0   5   0  ]
[   0   0   1  ]
Supercell lattice vectors:
[  57.1995  0  0  ]
[  0  58.379  0  ]
[  0  0  49.5362  ]

Initializing DFT-D3 calculator:
	Parameters set for gga-PBE functional
	s6:  1.000  s_r6:  1.217
	s8:  0.722  s_r8:  1.000
	Per-atom parameters loaded for:
	Cu:  sqrtQ[a0]:  5.226  Rcov[a0]:  1.909  CN: [ 0.00 0.96 ]

Initializing DFT-D2 calculator for fluid / solvation:
	Cu:  C6:  187.33 Eh-a0^6  R0: 2.952 a0

---------- Setting up ewald sum ----------
Optimum gaussian width for ewald sums = 3.697032 bohr.
Real space sum over 1045 unit cells with max indices [  9  5  2  ]
Reciprocal space sum over 4095 terms with max indices [  3  6  22  ]

Computing DFT-D3 correction:
# coordination-number Cu 5.550 6.857 9.096 9.039 9.018 7.557 7.554 9.014 9.040 9.099 6.859 5.550
# diagonal-C6 Cu 175.00 175.00 175.00 175.00 175.00 175.00 175.00 175.00 175.00 175.00 175.00 175.00
EvdW_6 =   -0.063916
EvdW_8 =   -0.098595

---------- Allocating electronic variables ----------
Initializing wave functions:  linear combination of atomic orbitals
Cu pseudo-atom occupations:   s ( 2 1 )  p ( 6 0 )  d ( 10 )
	FillingsUpdate:  mu: -0.244750000  nElectrons: 228.000000  magneticMoment: [ Abs: 0.20976  Tot: -0.00087 ]
LCAOMinimize: Iter:   0  G: -2306.4009269980024328  |grad|_K:  3.314e-02  alpha:  1.000e+00
LCAOMinimize: 	Step increased G by 2.961252e+02, reducing alpha to 4.228105e-02.
LCAOMinimize: 	Step increased G by 1.791833e+01, reducing alpha to 4.228105e-03.
	FillingsUpdate:  mu: -0.244750000  nElectrons: 228.000000  magneticMoment: [ Abs: 0.21373  Tot: -0.00297 ]
LCAOMinimize: Iter:   1  G: -2312.4930031944022630  |grad|_K:  2.267e-02  alpha:  4.228e-03  linmin: -1.825e-01  cgtest:  9.635e-01  t[s]:    115.21
LCAOMinimize: Encountered beta<0, resetting CG.
LCAOMinimize: 	Predicted alpha/alphaT>3.000000, increasing alphaT to 1.268431e-02.
	FillingsUpdate:  mu: -0.244750000  nElectrons: 228.000000  magneticMoment: [ Abs: 0.22733  Tot: -0.01534 ]
LCAOMinimize: Iter:   2  G: -2319.0701461917301458  |grad|_K:  1.601e-02  alpha:  1.641e-02  linmin: -2.128e-02  cgtest:  8.079e-03  t[s]:    151.02
LCAOMinimize: 	Wrong curvature in test step, increasing alphaT to 4.924339e-02.
	FillingsUpdate:  mu: -0.244750000  nElectrons: 228.000000  magneticMoment: [ Abs: 0.23325  Tot: +0.01273 ]
LCAOMinimize: Iter:   3  G: -2327.6998825422610935  |grad|_K:  1.856e-02  alpha: -3.219e-02  linmin: -1.587e-01  cgtest:  8.131e-01  t[s]:    179.03
	FillingsUpdate:  mu: -0.244750000  nElectrons: 228.000000  magneticMoment: [ Abs: 0.00194  Tot: -0.00083 ]
LCAOMinimize: Iter:   4  G: -2351.7341922066825646  |grad|_K:  2.803e-03  alpha:  5.106e-01  linmin:  1.333e-01  cgtest: -5.434e+00  t[s]:    207.74
LCAOMinimize: 	Bad step direction: g.d > 0.
LCAOMinimize: 	Undoing step.
LCAOMinimize: 	Step failed: resetting search direction.
	FillingsUpdate:  mu: -0.244750000  nElectrons: 228.000000  magneticMoment: [ Abs: 0.00194  Tot: -0.00083 ]
LCAOMinimize: Iter:   5  G: -2351.7341922066825646  |grad|_K:  2.803e-03  alpha:  0.000e+00
LCAOMinimize: 	Predicted alpha/alphaT>3.000000, increasing alphaT to 1.531883e+00.
	FillingsUpdate:  mu: -0.244750000  nElectrons: 228.000000  magneticMoment: [ Abs: 0.00171  Tot: +0.00042 ]
LCAOMinimize: Iter:   6  G: -2352.6799309916077618  |grad|_K:  2.812e-03  alpha:  7.440e-02  linmin: -9.064e-02  cgtest:  9.020e-01  t[s]:    265.19
LCAOMinimize: 	Wrong curvature in test step, increasing alphaT to 2.232042e-01.
	FillingsUpdate:  mu: -0.244750000  nElectrons: 228.000000  magneticMoment: [ Abs: 0.00135  Tot: +0.00031 ]
LCAOMinimize: Iter:   7  G: -2353.7364037427887524  |grad|_K:  2.825e-03  alpha: -6.605e-01  linmin: -1.540e-01  cgtest:  8.899e-01  t[s]:    292.96
	FillingsUpdate:  mu: -0.244750000  nElectrons: 228.000000  magneticMoment: [ Abs: 0.00128  Tot: +0.00036 ]
LCAOMinimize: Iter:   8  G: -2354.4154894222237999  |grad|_K:  2.850e-03  alpha:  4.660e-02  linmin: -1.580e-01  cgtest:  9.213e-01  t[s]:    322.00
LCAOMinimize: 	Wrong curvature in test step, increasing alphaT to 1.397906e-01.
	FillingsUpdate:  mu: -0.244750000  nElectrons: 228.000000  magneticMoment: [ Abs: 0.00123  Tot: +0.00039 ]
LCAOMinimize: Iter:   9  G: -2355.0870705689039823  |grad|_K:  2.878e-03  alpha: -4.929e-01  linmin: -1.620e-01  cgtest:  9.197e-01  t[s]:    349.36
	FillingsUpdate:  mu: -0.244750000  nElectrons: 228.000000  magneticMoment: [ Abs: 0.00120  Tot: +0.00042 ]
LCAOMinimize: Iter:  10  G: -2355.9227923090938930  |grad|_K:  2.914e-03  alpha:  5.611e-02  linmin: -1.652e-01  cgtest:  8.983e-01  t[s]:    378.64
LCAOMinimize: 	Wrong curvature in test step, increasing alphaT to 1.683449e-01.
	FillingsUpdate:  mu: -0.244750000  nElectrons: 228.000000  magneticMoment: [ Abs: 0.00162  Tot: +0.00115 ]
LCAOMinimize: Iter:  11  G: -2356.8090358800864124  |grad|_K:  2.950e-03  alpha: -4.192e-01  linmin: -1.328e-01  cgtest:  8.882e-01  t[s]:    406.49
	FillingsUpdate:  mu: -0.244750000  nElectrons: 228.000000  magneticMoment: [ Abs: 0.00140  Tot: +0.00086 ]
LCAOMinimize: Iter:  12  G: -2357.8982674968647189  |grad|_K:  2.946e-03  alpha:  6.576e-02  linmin: -1.610e-01  cgtest:  8.675e-01  t[s]:    435.48
LCAOMinimize: 	Wrong curvature in test step, increasing alphaT to 1.972866e-01.
	FillingsUpdate:  mu: -0.244750000  nElectrons: 228.000000  magneticMoment: [ Abs: 0.00137  Tot: +0.00060 ]
LCAOMinimize: Iter:  13  G: -2358.9904119531042852  |grad|_K:  2.873e-03  alpha: -4.991e-01  linmin: -1.589e-01  cgtest:  8.653e-01  t[s]:    462.76
	FillingsUpdate:  mu: -0.244750000  nElectrons: 228.000000  magneticMoment: [ Abs: 0.00140  Tot: +0.00033 ]
LCAOMinimize: Iter:  14  G: -2359.6510251086347125  |grad|_K:  2.776e-03  alpha:  4.451e-02  linmin: -1.784e-01  cgtest:  9.182e-01  t[s]:    492.05
LCAOMinimize: 	Wrong curvature in test step, increasing alphaT to 1.335284e-01.
	FillingsUpdate:  mu: -0.244750000  nElectrons: 228.000000  magneticMoment: [ Abs: 0.00158  Tot: +0.00063 ]
LCAOMinimize: Iter:  15  G: -2360.2194283722642467  |grad|_K:  2.680e-03  alpha: -9.735e-01  linmin: -1.511e-01  cgtest:  9.231e-01  t[s]:    519.91
	FillingsUpdate:  mu: -0.244750000  nElectrons: 228.000000  magneticMoment: [ Abs: 0.00170  Tot: +0.00074 ]
LCAOMinimize: Iter:  16  G: -2360.5983761644652077  |grad|_K:  2.594e-03  alpha:  3.269e-02  linmin: -1.735e-01  cgtest:  9.507e-01  t[s]:    548.79
LCAOMinimize: 	Wrong curvature in test step, increasing alphaT to 9.806308e-02.
	FillingsUpdate:  mu: -0.244750000  nElectrons: 228.000000  magneticMoment: [ Abs: 0.00181  Tot: +0.00081 ]
LCAOMinimize: Iter:  17  G: -2360.9442825778883162  |grad|_K:  2.519e-03  alpha: -1.736e+00  linmin: -1.795e-01  cgtest:  9.506e-01  t[s]:    575.99
	FillingsUpdate:  mu: -0.244750000  nElectrons: 228.000000  magneticMoment: [ Abs: 0.00197  Tot: +0.00103 ]
LCAOMinimize: Iter:  18  G: -2361.2304758752675298  |grad|_K:  2.465e-03  alpha:  2.857e-02  linmin: -1.752e-01  cgtest:  9.537e-01  t[s]:    605.26
LCAOMinimize: 	Wrong curvature in test step, increasing alphaT to 8.570485e-02.
	FillingsUpdate:  mu: -0.244750000  nElectrons: 228.000000  magneticMoment: [ Abs: 0.00231  Tot: +0.00152 ]
LCAOMinimize: Iter:  19  G: -2361.5066766530908353  |grad|_K:  2.416e-03  alpha: -9.595e-01  linmin: -1.393e-01  cgtest:  9.510e-01  t[s]:    633.02
	FillingsUpdate:  mu: -0.244750000  nElectrons: 228.000000  magneticMoment: [ Abs: 0.00236  Tot: +0.00145 ]
LCAOMinimize: Iter:  20  G: -2361.7593787832342969  |grad|_K:  2.359e-03  alpha:  2.719e-02  linmin: -1.671e-01  cgtest:  9.576e-01  t[s]:    662.11
LCAOMinimize: 	Wrong curvature in test step, increasing alphaT to 8.157460e-02.
	FillingsUpdate:  mu: -0.244750000  nElectrons: 228.000000  magneticMoment: [ Abs: 0.00235  Tot: +0.00125 ]
LCAOMinimize: Iter:  21  G: -2361.9975307771323969  |grad|_K:  2.305e-03  alpha: -1.474e+00  linmin: -2.048e-01  cgtest:  9.573e-01  t[s]:    689.38
	FillingsUpdate:  mu: -0.244750000  nElectrons: 228.000000  magneticMoment: [ Abs: 0.00244  Tot: +0.00122 ]
LCAOMinimize: Iter:  22  G: -2362.2222968181349643  |grad|_K:  2.259e-03  alpha:  2.677e-02  linmin: -2.129e-01  cgtest:  9.540e-01  t[s]:    718.70
LCAOMinimize: 	Wrong curvature in test step, increasing alphaT to 8.029787e-02.
	FillingsUpdate:  mu: -0.244750000  nElectrons: 228.000000  magneticMoment: [ Abs: 0.00256  Tot: +0.00124 ]
LCAOMinimize: Iter:  23  G: -2362.4397259441893766  |grad|_K:  2.211e-03  alpha: -9.571e-01  linmin: -2.172e-01  cgtest:  9.516e-01  t[s]:    746.49
	FillingsUpdate:  mu: -0.244750000  nElectrons: 228.000000  magneticMoment: [ Abs: 0.00268  Tot: +0.00128 ]
LCAOMinimize: Iter:  24  G: -2362.6472003806475186  |grad|_K:  2.161e-03  alpha:  2.660e-02  linmin: -2.212e-01  cgtest:  9.507e-01  t[s]:    775.27
LCAOMinimize: 	Wrong curvature in test step, increasing alphaT to 7.980322e-02.
	FillingsUpdate:  mu: -0.244750000  nElectrons: 228.000000  magneticMoment: [ Abs: 0.00282  Tot: +0.00135 ]
LCAOMinimize: Iter:  25  G: -2362.8448578652678407  |grad|_K:  2.106e-03  alpha: -1.070e+00  linmin: -2.230e-01  cgtest:  9.499e-01  t[s]:    802.44
	FillingsUpdate:  mu: -0.244750000  nElectrons: 228.000000  magneticMoment: [ Abs: 0.00299  Tot: +0.00148 ]
LCAOMinimize: Iter:  26  G: -2363.0305176906031193  |grad|_K:  2.048e-03  alpha:  2.639e-02  linmin: -2.169e-01  cgtest:  9.492e-01  t[s]:    831.94
LCAOMinimize: 	Wrong curvature in test step, increasing alphaT to 7.915722e-02.
	FillingsUpdate:  mu: -0.244750000  nElectrons: 228.000000  magneticMoment: [ Abs: 0.00317  Tot: +0.00161 ]
LCAOMinimize: Iter:  27  G: -2363.2059365509521740  |grad|_K:  1.991e-03  alpha: -1.115e+00  linmin: -1.932e-01  cgtest:  9.466e-01  t[s]:    859.80
	FillingsUpdate:  mu: -0.244750000  nElectrons: 228.000000  magneticMoment: [ Abs: 0.00338  Tot: +0.00179 ]
LCAOMinimize: Iter:  28  G: -2363.3752180189062528  |grad|_K:  1.920e-03  alpha:  2.695e-02  linmin: -1.723e-01  cgtest:  9.489e-01  t[s]:    888.83
LCAOMinimize: 	Predicted alpha/alphaT>3.000000, increasing alphaT to 8.084687e-02.
LCAOMinimize: 	Predicted alpha/alphaT>3.000000, increasing alphaT to 2.425406e-01.
	FillingsUpdate:  mu: -0.244750000  nElectrons: 228.000000  magneticMoment: [ Abs: 0.00514  Tot: +0.00235 ]
LCAOMinimize: Iter:  29  G: -2364.2324837513301645  |grad|_K:  2.300e-03  alpha:  1.950e-01  linmin:  1.807e-02  cgtest:  1.650e-01  t[s]:    931.76
	FillingsUpdate:  mu: -0.244750000  nElectrons: 228.000000  magneticMoment: [ Abs: 0.00521  Tot: +0.00237 ]
LCAOMinimize: Iter:  30  G: -2364.2808268406652132  |grad|_K:  2.235e-03  alpha:  7.857e-03  linmin: -6.104e-02  cgtest:  9.817e-01  t[s]:    960.05
LCAOMinimize: Encountered beta<0, resetting CG.
LCAOMinimize: None of the convergence criteria satisfied after 30 iterations.
----- createFluidSolver() ----- (Fluid-side solver setup)
   Initializing fluid molecule 'H2O'
     Initializing site 'O'
       Electron density: proportional to exp(-r/0.36935)*erfc((r-0.51523)/0.36823) with norm 6.826
       Charge density: gaussian nuclear width 0.478731 with net site charge 0.826
       Polarizability: cuspless exponential with width 0.32 and norm 3.73
       Hard sphere radius: 2.57003 bohrs
       Positions in reference frame:
         [ +0.000000 +0.000000 +0.000000 ]
     Initializing site 'H'
       Electron density: proportional to exp(-r/0.34641)*erfc((r-0)/0.390882) with norm 0.587
       Charge density: gaussian nuclear width 0.377945 with net site charge -0.413
       Polarizability: cuspless exponential with width 0.39 and norm 3.3
       Positions in reference frame:
         [ +0.000000 -1.441945 +1.122523 ]
         [ +0.000000 +1.441945 +1.122523 ]
     Net charge: 0   dipole magnitude: 0.927204
     Initializing spherical shell mfKernel with radius 2.61727 Bohr
     deltaS corrections:
       site 'O': -7.54299
       site 'H': -6.83917
   Initializing fluid molecule 'Na+'
     Initializing site 'Na'
       Electron density: proportional to exp(-r/0.19682)*erfc((r-0.71491)/0.41314) with norm 8.1383
       Charge density: gaussian nuclear width 0.365347 with net site charge -1
       Hard sphere radius: 1.86327 bohrs
       Positions in reference frame:
         [ +0.000000 +0.000000 +0.000000 ]
     Net charge: -1   dipole magnitude: 0
     Initializing gaussian mfKernel with width: 1.55004 Bohr
     deltaS corrections:
       site 'Na': -22.3555
   Initializing fluid molecule 'F-'
     Initializing site 'F'
       Electron density: proportional to exp(-r/0.38886)*erfc((r-0)/0.438782) with norm 8
       Charge density: gaussian nuclear width 0.374796 with net site charge 1
       Hard sphere radius: 2.39995 bohrs
       Positions in reference frame:
         [ +0.000000 +0.000000 +0.000000 ]
     Net charge: 1   dipole magnitude: 0
     Initializing gaussian mfKernel with width: 1.59012 Bohr
     deltaS corrections:
       site 'F': -9.04335

Correction to mu due to finite nuclear width = -0.0820568
   Cavity determined by nc: 0.00142 and sigma: 0.707107
   Nonlocal vdW cavity from gaussian model electron density with norm = 8 and sigma = 0.993594 bohr
   Charge asymmetry in cavity with sensitivity pCavity = 36.5 e-bohr/Eh
   Electrostatic cavity expanded by eta = 1.46 bohrs
   Weighted density cavitation model constrained by Nbulk: 0.0049383 bohr^-3, Pvap: 3.14029 kPa, Rvdw: 2.61727 bohr and sigmaBulk: 4.62e-05 Eh/bohr^2 at T: 298 K.
   Weighted density dispersion model using vdW pair potentials with single solvent site with sqrtC6eff: 0.77 SI.


---- Citations for features of the code used in this run ----

   Software package:
      R. Sundararaman, K. Letchworth-Weaver, K.A. Schwarz, D. Gunceler, Y. Ozhabes and T.A. Arias, 'JDFTx: software for joint density-functional theory', SoftwareX 6, 278 (2017)

   gga-PBE exchange-correlation functional:
      J.P. Perdew, K. Burke and M. Ernzerhof, Phys. Rev. Lett. 77, 3865 (1996)

   Pseudopotentials:
      KF Garrity, JW Bennett, KM Rabe and D Vanderbilt, Comput. Mater. Sci. 81, 446 (2014)

   DFT-D3 dispersion correction:
      S. Grimme, J. Antony, S. Ehrlich and H. Krieg, J. Chem. Phys. 132, 154104 (2010)

   DFT-D2 dispersion correction:
      S. Grimme, J. Comput. Chem. 27, 1787 (2006)

   Charge-asymmetric nonlocally-determined local-electric (CANDLE) solvation model:
      R. Sundararaman and W.A. Goddard III, J. Chem. Phys. 142, 064107 (2015)

   Total energy minimization with Auxiliary Hamiltonian:
      C. Freysoldt, S. Boeck, and J. Neugebauer, Phys. Rev. B 79, 241103(R) (2009)

   Grand-canonical (fixed-potential) DFT:
      R. Sundararaman, W. A. Goddard III and T. A. Arias, J. Chem. Phys. 146, 114104 (2017)

   Linear-tetrahedron sampling for density of states:
      G. Lehmann and M. Taut, Phys. status solidi (b) 54, 469 (1972)

This list may not be complete. Please suggest additional citations or
report any other bugs at https://github.com/shankar1729/jdftx/issues

Initialization completed successfully at t[s]:    966.63


Computing DFT-D3 correction:
# coordination-number Cu 5.550 6.857 9.096 9.039 9.018 7.557 7.554 9.014 9.040 9.099 6.859 5.550
# diagonal-C6 Cu 175.00 175.00 175.00 175.00 175.00 175.00 175.00 175.00 175.00 175.00 175.00 175.00
EvdW_6 =   -0.063916
EvdW_8 =   -0.098595
Fluid solver invoked on fresh (random / LCAO) wavefunctions
Running a vacuum solve first:

-------- Initial electronic minimization -----------
	FillingsUpdate:  mu: +0.516642073  nElectrons: 228.000000  magneticMoment: [ Abs: 0.00521  Tot: +0.00237 ]
ElecMinimize: Iter:   0  G: -2364.281551441576084  |grad|_K:  3.910e-04  alpha:  1.000e+00
	FillingsUpdate:  mu: +0.138066458  nElectrons: 228.000000  magneticMoment: [ Abs: 0.00448  Tot: +0.00128 ]
	SubspaceRotationAdjust: set factor to 0.59
ElecMinimize: Iter:   1  G: -2365.205839332241794  |grad|_K:  2.582e-04  alpha:  7.385e-02  linmin:  1.473e-03  t[s]:   1029.70
	FillingsUpdate:  mu: +0.072400346  nElectrons: 228.000000  magneticMoment: [ Abs: 0.00447  Tot: +0.00142 ]
	SubspaceRotationAdjust: set factor to 0.736
ElecMinimize: Iter:   2  G: -2365.491496861126507  |grad|_K:  1.342e-04  alpha:  5.300e-02  linmin: -4.520e-06  t[s]:   1068.30
ElecMinimize: 	Predicted alpha/alphaT>3.000000, increasing alphaT to 1.589880e-01.
	FillingsUpdate:  mu: +0.268434505  nElectrons: 228.000000  magneticMoment: [ Abs: 0.00403  Tot: +0.00152 ]
	SubspaceRotationAdjust: set factor to 0.661
ElecMinimize: Iter:   3  G: -2365.800831469060995  |grad|_K:  1.601e-04  alpha:  1.697e-01  linmin: -2.625e-05  t[s]:   1116.04
	FillingsUpdate:  mu: +0.182331512  nElectrons: 228.000000  magneticMoment: [ Abs: 0.00301  Tot: +0.00091 ]
	SubspaceRotationAdjust: set factor to 0.575
ElecMinimize: Iter:   4  G: -2366.080055770911258  |grad|_K:  1.314e-04  alpha:  1.130e-01  linmin: -3.056e-06  t[s]:   1153.66
	FillingsUpdate:  mu: +0.113084858  nElectrons: 228.000000  magneticMoment: [ Abs: 0.00225  Tot: +0.00065 ]
	SubspaceRotationAdjust: set factor to 0.578
ElecMinimize: Iter:   5  G: -2366.261368082864919  |grad|_K:  7.022e-05  alpha:  1.037e-01  linmin:  1.670e-06  t[s]:   1192.68
	FillingsUpdate:  mu: +0.094436090  nElectrons: 228.000000  magneticMoment: [ Abs: 0.00202  Tot: +0.00055 ]
	SubspaceRotationAdjust: set factor to 0.535
ElecMinimize: Iter:   6  G: -2366.306161019192587  |grad|_K:  4.932e-05  alpha:  9.061e-02  linmin: -4.936e-06  t[s]:   1231.40
	FillingsUpdate:  mu: +0.116504743  nElectrons: 228.000000  magneticMoment: [ Abs: 0.00169  Tot: +0.00040 ]
	SubspaceRotationAdjust: set factor to 0.528
ElecMinimize: Iter:   7  G: -2366.337408923207477  |grad|_K:  3.902e-05  alpha:  1.263e-01  linmin: -8.692e-06  t[s]:   1268.99
	FillingsUpdate:  mu: +0.111607698  nElectrons: 228.000000  magneticMoment: [ Abs: 0.00141  Tot: +0.00030 ]
	SubspaceRotationAdjust: set factor to 0.534
ElecMinimize: Iter:   8  G: -2366.355352806829615  |grad|_K:  2.556e-05  alpha:  1.156e-01  linmin: -2.755e-06  t[s]:   1308.30
	FillingsUpdate:  mu: +0.102734730  nElectrons: 228.000000  magneticMoment: [ Abs: 0.00122  Tot: +0.00025 ]
	SubspaceRotationAdjust: set factor to 0.593
ElecMinimize: Iter:   9  G: -2366.363559476731098  |grad|_K:  1.904e-05  alpha:  1.243e-01  linmin:  2.444e-06  t[s]:   1346.56
	FillingsUpdate:  mu: +0.101593130  nElectrons: 228.000000  magneticMoment: [ Abs: 0.00101  Tot: +0.00021 ]
	SubspaceRotationAdjust: set factor to 0.59
ElecMinimize: Iter:  10  G: -2366.368440521593584  |grad|_K:  1.559e-05  alpha:  1.342e-01  linmin: -1.937e-06  t[s]:   1385.72
	FillingsUpdate:  mu: +0.102650558  nElectrons: 228.000000  magneticMoment: [ Abs: 0.00086  Tot: +0.00017 ]
	SubspaceRotationAdjust: set factor to 0.55
ElecMinimize: Iter:  11  G: -2366.371249706407980  |grad|_K:  1.132e-05  alpha:  1.147e-01  linmin: -1.044e-06  t[s]:   1423.61
	FillingsUpdate:  mu: +0.102891651  nElectrons: 228.000000  magneticMoment: [ Abs: 0.00076  Tot: +0.00014 ]
	SubspaceRotationAdjust: set factor to 0.559
ElecMinimize: Iter:  12  G: -2366.372877961193353  |grad|_K:  8.718e-06  alpha:  1.260e-01  linmin:  5.629e-07  t[s]:   1462.56
	FillingsUpdate:  mu: +0.103045349  nElectrons: 228.000000  magneticMoment: [ Abs: 0.00067  Tot: +0.00011 ]
	SubspaceRotationAdjust: set factor to 0.594
ElecMinimize: Iter:  13  G: -2366.373948412764548  |grad|_K:  7.159e-06  alpha:  1.402e-01  linmin:  8.815e-07  t[s]:   1500.78
	FillingsUpdate:  mu: +0.101624971  nElectrons: 228.000000  magneticMoment: [ Abs: 0.00054  Tot: +0.00008 ]
	SubspaceRotationAdjust: set factor to 0.644
ElecMinimize: Iter:  14  G: -2366.374694553733661  |grad|_K:  5.817e-06  alpha:  1.450e-01  linmin:  6.961e-08  t[s]:   1539.91
	FillingsUpdate:  mu: +0.099267487  nElectrons: 228.000000  magneticMoment: [ Abs: 0.00044  Tot: +0.00006 ]
	SubspaceRotationAdjust: set factor to 0.601
ElecMinimize: Iter:  15  G: -2366.375098391840766  |grad|_K:  4.320e-06  alpha:  1.186e-01  linmin:  7.630e-07  t[s]:   1577.77
	FillingsUpdate:  mu: +0.098513623  nElectrons: 228.000000  magneticMoment: [ Abs: 0.00036  Tot: +0.00004 ]
	SubspaceRotationAdjust: set factor to 0.57
ElecMinimize: Iter:  16  G: -2366.375313551746331  |grad|_K:  3.305e-06  alpha:  1.148e-01  linmin:  9.741e-07  t[s]:   1616.79
	FillingsUpdate:  mu: +0.099249520  nElectrons: 228.000000  magneticMoment: [ Abs: 0.00030  Tot: +0.00003 ]
	SubspaceRotationAdjust: set factor to 0.555
ElecMinimize: Iter:  17  G: -2366.375454726663520  |grad|_K:  2.547e-06  alpha:  1.287e-01  linmin:  4.675e-07  t[s]:   1655.07
	FillingsUpdate:  mu: +0.099695306  nElectrons: 228.000000  magneticMoment: [ Abs: 0.00025  Tot: +0.00001 ]
	SubspaceRotationAdjust: set factor to 0.596
ElecMinimize: Iter:  18  G: -2366.375539465824659  |grad|_K:  1.918e-06  alpha:  1.299e-01  linmin:  4.480e-07  t[s]:   1694.19
	FillingsUpdate:  mu: +0.099171501  nElectrons: 228.000000  magneticMoment: [ Abs: 0.00021  Tot: +0.00001 ]
	SubspaceRotationAdjust: set factor to 0.601
ElecMinimize: Iter:  19  G: -2366.375590587455463  |grad|_K:  1.569e-06  alpha:  1.382e-01  linmin:  1.427e-06  t[s]:   1731.42
	FillingsUpdate:  mu: +0.098756683  nElectrons: 228.000000  magneticMoment: [ Abs: 0.00018  Tot: +0.00000 ]
	SubspaceRotationAdjust: set factor to 0.531
ElecMinimize: Iter:  20  G: -2366.375620996419002  |grad|_K:  1.258e-06  alpha:  1.230e-01  linmin:  1.119e-06  t[s]:   1770.22
	FillingsUpdate:  mu: +0.098909476  nElectrons: 228.000000  magneticMoment: [ Abs: 0.00015  Tot: -0.00000 ]
	SubspaceRotationAdjust: set factor to 0.495
ElecMinimize: Iter:  21  G: -2366.375641742642529  |grad|_K:  1.013e-06  alpha:  1.304e-01  linmin:  1.243e-06  t[s]:   1808.80
	FillingsUpdate:  mu: +0.099156746  nElectrons: 228.000000  magneticMoment: [ Abs: 0.00012  Tot: -0.00001 ]
	SubspaceRotationAdjust: set factor to 0.529
ElecMinimize: Iter:  22  G: -2366.375654804115129  |grad|_K:  7.003e-07  alpha:  1.266e-01  linmin:  2.531e-06  t[s]:   1846.59
	FillingsUpdate:  mu: +0.099127261  nElectrons: 228.000000  magneticMoment: [ Abs: 0.00011  Tot: -0.00001 ]
	SubspaceRotationAdjust: set factor to 0.541
ElecMinimize: Iter:  23  G: -2366.375660899791455  |grad|_K:  5.474e-07  alpha:  1.238e-01  linmin:  3.302e-06  t[s]:   1885.61
	FillingsUpdate:  mu: +0.099014379  nElectrons: 228.000000  magneticMoment: [ Abs: 0.00009  Tot: -0.00001 ]
	SubspaceRotationAdjust: set factor to 0.514
ElecMinimize: Iter:  24  G: -2366.375665680555358  |grad|_K:  5.437e-07  alpha:  1.589e-01  linmin:  3.640e-06  t[s]:   1923.39
	FillingsUpdate:  mu: +0.098928882  nElectrons: 228.000000  magneticMoment: [ Abs: 0.00007  Tot: -0.00001 ]
	SubspaceRotationAdjust: set factor to 0.52
ElecMinimize: Iter:  25  G: -2366.375669637884130  |grad|_K:  3.939e-07  alpha:  1.334e-01  linmin:  3.374e-06  t[s]:   1962.41
	FillingsUpdate:  mu: +0.098876512  nElectrons: 228.000000  magneticMoment: [ Abs: 0.00006  Tot: -0.00001 ]
	SubspaceRotationAdjust: set factor to 0.569
ElecMinimize: Iter:  26  G: -2366.375671607105687  |grad|_K:  3.124e-07  alpha:  1.265e-01  linmin:  2.037e-06  t[s]:   2000.24
	FillingsUpdate:  mu: +0.098862234  nElectrons: 228.000000  magneticMoment: [ Abs: 0.00005  Tot: -0.00001 ]
	SubspaceRotationAdjust: set factor to 0.558
ElecMinimize: Iter:  27  G: -2366.375673184790230  |grad|_K:  3.032e-07  alpha:  1.612e-01  linmin:  2.185e-06  t[s]:   2038.70
	FillingsUpdate:  mu: +0.098883319  nElectrons: 228.000000  magneticMoment: [ Abs: 0.00005  Tot: -0.00001 ]
	SubspaceRotationAdjust: set factor to 0.538
ElecMinimize: Iter:  28  G: -2366.375674384859849  |grad|_K:  2.382e-07  alpha:  1.303e-01  linmin:  1.504e-06  t[s]:   2077.35
	FillingsUpdate:  mu: +0.098855143  nElectrons: 228.000000  magneticMoment: [ Abs: 0.00004  Tot: -0.00001 ]
	SubspaceRotationAdjust: set factor to 0.533
ElecMinimize: Iter:  29  G: -2366.375675119938478  |grad|_K:  1.950e-07  alpha:  1.291e-01  linmin:  1.335e-06  t[s]:   2115.93
	FillingsUpdate:  mu: +0.098771227  nElectrons: 228.000000  magneticMoment: [ Abs: 0.00004  Tot: -0.00001 ]
	SubspaceRotationAdjust: set factor to 0.58
ElecMinimize: Iter:  30  G: -2366.375675688216688  |grad|_K:  1.617e-07  alpha:  1.491e-01  linmin:  1.485e-06  t[s]:   2154.25
	FillingsUpdate:  mu: +0.098760699  nElectrons: 228.000000  magneticMoment: [ Abs: 0.00003  Tot: -0.00000 ]
	SubspaceRotationAdjust: set factor to 0.581
ElecMinimize: Iter:  31  G: -2366.375676031623243  |grad|_K:  1.360e-07  alpha:  1.311e-01  linmin:  9.818e-07  t[s]:   2192.80
	FillingsUpdate:  mu: +0.098809022  nElectrons: 228.000000  magneticMoment: [ Abs: 0.00003  Tot: -0.00000 ]
	SubspaceRotationAdjust: set factor to 0.535
ElecMinimize: Iter:  32  G: -2366.375676286485486  |grad|_K:  1.196e-07  alpha:  1.374e-01  linmin:  7.066e-07  t[s]:   2231.21
	FillingsUpdate:  mu: +0.098823873  nElectrons: 228.000000  magneticMoment: [ Abs: 0.00002  Tot: -0.00000 ]
	SubspaceRotationAdjust: set factor to 0.538
ElecMinimize: Iter:  33  G: -2366.375676477250181  |grad|_K:  9.225e-08  alpha:  1.328e-01  linmin:  5.779e-07  t[s]:   2269.63
	FillingsUpdate:  mu: +0.098793978  nElectrons: 228.000000  magneticMoment: [ Abs: 0.00002  Tot: -0.00000 ]
	SubspaceRotationAdjust: set factor to 0.577
ElecMinimize: Iter:  34  G: -2366.375676591244428  |grad|_K:  7.554e-08  alpha:  1.333e-01  linmin:  6.030e-07  t[s]:   2308.06
	FillingsUpdate:  mu: +0.098777704  nElectrons: 228.000000  magneticMoment: [ Abs: 0.00002  Tot: -0.00000 ]
	SubspaceRotationAdjust: set factor to 0.557
ElecMinimize: Iter:  35  G: -2366.375676674907936  |grad|_K:  6.566e-08  alpha:  1.462e-01  linmin:  2.854e-07  t[s]:   2346.38
	FillingsUpdate:  mu: +0.098782123  nElectrons: 228.000000  magneticMoment: [ Abs: 0.00001  Tot: -0.00000 ]
	SubspaceRotationAdjust: set factor to 0.535
ElecMinimize: Iter:  36  G: -2366.375676728246617  |grad|_K:  5.242e-08  alpha:  1.230e-01  linmin:  1.554e-07  t[s]:   2384.91
ElecMinimize: Converged (|Delta G|<1.000000e-07 for 2 iters).
Setting wave functions to eigenvectors of Hamiltonian
Converging empty states (this may take a while): |deigs|: 2.050e-02
Vacuum energy after initial minimize, F = -2366.375676728246617

Shifting auxilliary hamiltonian by -0.343532 to set nElectrons=228.000000

-------- Electronic minimization -----------
	Linear fluid (dielectric constant: 78.4, screening length: 8.12261 Bohr) occupying 0.490750 of unit cell:	Completed after 20 iterations at t[s]:   2516.02
	FillingsUpdate:  mu: -0.244750000  nElectrons: 228.000000  magneticMoment: [ Abs: 0.00000  Tot: +0.00000 ]
ElecMinimize: Iter:   0  G: -2366.375948398399032  |grad|_K:  4.626e-05  alpha:  1.000e+00
	Linear fluid (dielectric constant: 78.4, screening length: 8.12261 Bohr) occupying 0.506051 of unit cell:	Completed after 26 iterations at t[s]:   2549.32
	Linear fluid (dielectric constant: 78.4, screening length: 8.12261 Bohr) occupying 0.491380 of unit cell:	Completed after 24 iterations at t[s]:   2560.94
	FillingsUpdate:  mu: -0.244750000  nElectrons: 227.857052  magneticMoment: [ Abs: 0.00000  Tot: +0.00000 ]
	SubspaceRotationAdjust: set factor to 0.306
ElecMinimize: Iter:   1  G: -2366.383064589687365  |grad|_K:  1.607e-05  alpha:  3.080e-02  linmin: -1.005e-02  t[s]:   2577.16
	Linear fluid (dielectric constant: 78.4, screening length: 8.12261 Bohr) occupying 0.491942 of unit cell:	Completed after 15 iterations at t[s]:   2591.35
ElecMinimize: 	Predicted alpha/alphaT>3.000000, increasing alphaT to 9.239030e-02.
	Linear fluid (dielectric constant: 78.4, screening length: 8.12261 Bohr) occupying 0.492954 of unit cell:	Completed after 15 iterations at t[s]:   2602.53
	Linear fluid (dielectric constant: 78.4, screening length: 8.12261 Bohr) occupying 0.494294 of unit cell:	Completed after 16 iterations at t[s]:   2613.59
	FillingsUpdate:  mu: -0.244750000  nElectrons: 227.713426  magneticMoment: [ Abs: 0.00002  Tot: +0.00000 ]
	SubspaceRotationAdjust: set factor to 0.252
ElecMinimize: Iter:   2  G: -2366.389257615753650  |grad|_K:  1.165e-05  alpha:  1.797e-01  linmin: -6.186e-03  t[s]:   2629.80
	Linear fluid (dielectric constant: 78.4, screening length: 8.12261 Bohr) occupying 0.497213 of unit cell:	Completed after 15 iterations at t[s]:   2643.08
	Linear fluid (dielectric constant: 78.4, screening length: 8.12261 Bohr) occupying 0.497307 of unit cell:	Completed after 11 iterations at t[s]:   2653.99
	FillingsUpdate:  mu: -0.244750000  nElectrons: 227.688555  magneticMoment: [ Abs: 0.00004  Tot: -0.00000 ]
	SubspaceRotationAdjust: set factor to 0.197
ElecMinimize: Iter:   3  G: -2366.392668807551672  |grad|_K:  1.074e-05  alpha:  1.856e-01  linmin: -7.390e-04  t[s]:   2670.90
	Linear fluid (dielectric constant: 78.4, screening length: 8.12261 Bohr) occupying 0.500843 of unit cell:	Completed after 16 iterations at t[s]:   2684.54
	Linear fluid (dielectric constant: 78.4, screening length: 8.12261 Bohr) occupying 0.503788 of unit cell:	Completed after 16 iterations at t[s]:   2695.51
	FillingsUpdate:  mu: -0.244750000  nElectrons: 227.401858  magneticMoment: [ Abs: 0.00005  Tot: -0.00001 ]
	SubspaceRotationAdjust: set factor to 0.131
ElecMinimize: Iter:   4  G: -2366.394188219699572  |grad|_K:  2.338e-05  alpha:  3.401e-01  linmin:  8.686e-03  t[s]:   2712.39
ElecMinimize: 	Bad step direction: g.d > 0.
ElecMinimize: 	Undoing step.
	Linear fluid (dielectric constant: 78.4, screening length: 8.12261 Bohr) occupying 0.503788 of unit cell:	Completed after 0 iterations at t[s]:   2725.88
ElecMinimize: 	Step failed: resetting search direction.
	FillingsUpdate:  mu: -0.244750000  nElectrons: 227.401858  magneticMoment: [ Abs: 0.00005  Tot: -0.00001 ]
	SubspaceRotationAdjust: set factor to 0.0983
ElecMinimize: Iter:   5  G: -2366.394188219692296  |grad|_K:  2.025e-05  alpha:  0.000e+00
	Linear fluid (dielectric constant: 78.4, screening length: 8.12261 Bohr) occupying 0.504794 of unit cell:	Completed after 18 iterations at t[s]:   2755.57
	Linear fluid (dielectric constant: 78.4, screening length: 8.12261 Bohr) occupying 0.504047 of unit cell:	Completed after 18 iterations at t[s]:   2766.91
	FillingsUpdate:  mu: -0.244750000  nElectrons: 227.487057  magneticMoment: [ Abs: 0.00005  Tot: -0.00001 ]
	SubspaceRotationAdjust: set factor to 0.131
ElecMinimize: Iter:   6  G: -2366.397828200793811  |grad|_K:  8.648e-06  alpha:  1.014e-01  linmin:  4.137e-03  t[s]:   2783.87
	Linear fluid (dielectric constant: 78.4, screening length: 8.12261 Bohr) occupying 0.504394 of unit cell:	Completed after 12 iterations at t[s]:   2797.08
	Linear fluid (dielectric constant: 78.4, screening length: 8.12261 Bohr) occupying 0.504586 of unit cell:	Completed after 11 iterations at t[s]:   2807.87
	FillingsUpdate:  mu: -0.244750000  nElectrons: 227.513787  magneticMoment: [ Abs: 0.00005  Tot: -0.00001 ]
	SubspaceRotationAdjust: set factor to 0.16
ElecMinimize: Iter:   7  G: -2366.398917626154798  |grad|_K:  6.585e-06  alpha:  1.576e-01  linmin: -1.808e-04  t[s]:   2824.76
	Linear fluid (dielectric constant: 78.4, screening length: 8.12261 Bohr) occupying 0.505364 of unit cell:	Completed after 15 iterations at t[s]:   2839.00
	Linear fluid (dielectric constant: 78.4, screening length: 8.12261 Bohr) occupying 0.506426 of unit cell:	Completed after 15 iterations at t[s]:   2849.42
	FillingsUpdate:  mu: -0.244750000  nElectrons: 227.519972  magneticMoment: [ Abs: 0.00007  Tot: -0.00001 ]
	SubspaceRotationAdjust: set factor to 0.187
ElecMinimize: Iter:   8  G: -2366.400577127756605  |grad|_K:  5.360e-06  alpha:  3.779e-01  linmin: -1.505e-04  t[s]:   2865.58
	Linear fluid (dielectric constant: 78.4, screening length: 8.12261 Bohr) occupying 0.508606 of unit cell:	Completed after 15 iterations at t[s]:   2879.53
	Linear fluid (dielectric constant: 78.4, screening length: 8.12261 Bohr) occupying 0.507334 of unit cell:	Completed after 14 iterations at t[s]:   2890.64
	FillingsUpdate:  mu: -0.244750000  nElectrons: 227.517695  magneticMoment: [ Abs: 0.00007  Tot: -0.00001 ]
	SubspaceRotationAdjust: set factor to 0.244
ElecMinimize: Iter:   9  G: -2366.401024732555925  |grad|_K:  4.840e-06  alpha:  1.538e-01  linmin: -3.705e-05  t[s]:   2906.79
	Linear fluid (dielectric constant: 78.4, screening length: 8.12261 Bohr) occupying 0.508469 of unit cell:	Completed after 13 iterations at t[s]:   2920.44
ElecMinimize: 	Predicted alpha/alphaT>3.000000, increasing alphaT to 4.615236e-01.
	Linear fluid (dielectric constant: 78.4, screening length: 8.12261 Bohr) occupying 0.510584 of unit cell:	Completed after 14 iterations at t[s]:   2931.55
	Linear fluid (dielectric constant: 78.4, screening length: 8.12261 Bohr) occupying 0.510825 of unit cell:	Completed after 11 iterations at t[s]:   2942.23
	FillingsUpdate:  mu: -0.244750000  nElectrons: 227.506345  magneticMoment: [ Abs: 0.00009  Tot: -0.00001 ]
	SubspaceRotationAdjust: set factor to 0.261
ElecMinimize: Iter:  10  G: -2366.402206260876483  |grad|_K:  8.234e-06  alpha:  4.985e-01  linmin: -1.412e-04  t[s]:   2958.58
	Linear fluid (dielectric constant: 78.4, screening length: 8.12261 Bohr) occupying 0.519429 of unit cell:	Completed after 20 iterations at t[s]:   2972.20
	Linear fluid (dielectric constant: 78.4, screening length: 8.12261 Bohr) occupying 0.513421 of unit cell:	Completed after 18 iterations at t[s]:   2983.38
	FillingsUpdate:  mu: -0.244750000  nElectrons: 227.442234  magneticMoment: [ Abs: 0.00009  Tot: -0.00002 ]
	SubspaceRotationAdjust: set factor to 0.258
ElecMinimize: Iter:  11  G: -2366.403319852046025  |grad|_K:  5.092e-06  alpha:  1.300e-01  linmin: -1.935e-03  t[s]:   3000.31
	Linear fluid (dielectric constant: 78.4, screening length: 8.12261 Bohr) occupying 0.514542 of unit cell:	Completed after 15 iterations at t[s]:   3014.04
	Linear fluid (dielectric constant: 78.4, screening length: 8.12261 Bohr) occupying 0.515784 of unit cell:	Completed after 15 iterations at t[s]:   3024.64
	FillingsUpdate:  mu: -0.244750000  nElectrons: 227.401811  magneticMoment: [ Abs: 0.00008  Tot: -0.00002 ]
	SubspaceRotationAdjust: set factor to 0.285
ElecMinimize: Iter:  12  G: -2366.404231035910016  |grad|_K:  6.662e-06  alpha:  2.854e-01  linmin: -1.247e-04  t[s]:   3041.50
	Linear fluid (dielectric constant: 78.4, screening length: 8.12261 Bohr) occupying 0.519266 of unit cell:	Completed after 17 iterations at t[s]:   3055.49
	Linear fluid (dielectric constant: 78.4, screening length: 8.12261 Bohr) occupying 0.518030 of unit cell:	Completed after 15 iterations at t[s]:   3066.61
	FillingsUpdate:  mu: -0.244750000  nElectrons: 227.350502  magneticMoment: [ Abs: 0.00008  Tot: -0.00001 ]
	SubspaceRotationAdjust: set factor to 0.308
ElecMinimize: Iter:  13  G: -2366.405025753866994  |grad|_K:  5.126e-06  alpha:  1.739e-01  linmin: -6.783e-06  t[s]:   3083.20
	Linear fluid (dielectric constant: 78.4, screening length: 8.12261 Bohr) occupying 0.519267 of unit cell:	Completed after 15 iterations at t[s]:   3096.85
	Linear fluid (dielectric constant: 78.4, screening length: 8.12261 Bohr) occupying 0.519445 of unit cell:	Completed after 12 iterations at t[s]:   3107.59
	FillingsUpdate:  mu: -0.244750000  nElectrons: 227.305266  magneticMoment: [ Abs: 0.00005  Tot: -0.00000 ]
	SubspaceRotationAdjust: set factor to 0.311
ElecMinimize: Iter:  14  G: -2366.405560042775505  |grad|_K:  4.675e-06  alpha:  2.008e-01  linmin: -1.058e-04  t[s]:   3124.53
	Linear fluid (dielectric constant: 78.4, screening length: 8.12261 Bohr) occupying 0.520490 of unit cell:	Completed after 15 iterations at t[s]:   3138.31
	Linear fluid (dielectric constant: 78.4, screening length: 8.12261 Bohr) occupying 0.520028 of unit cell:	Completed after 14 iterations at t[s]:   3149.81
	FillingsUpdate:  mu: -0.244750000  nElectrons: 227.303490  magneticMoment: [ Abs: 0.00004  Tot: +0.00001 ]
	SubspaceRotationAdjust: set factor to 0.268
ElecMinimize: Iter:  15  G: -2366.405807007508429  |grad|_K:  3.318e-06  alpha:  1.086e-01  linmin: -4.269e-05  t[s]:   3166.00
	Linear fluid (dielectric constant: 78.4, screening length: 8.12261 Bohr) occupying 0.520349 of unit cell:	Completed after 15 iterations at t[s]:   3179.64
	Linear fluid (dielectric constant: 78.4, screening length: 8.12261 Bohr) occupying 0.520373 of unit cell:	Completed after 11 iterations at t[s]:   3190.43
	FillingsUpdate:  mu: -0.244750000  nElectrons: 227.284916  magneticMoment: [ Abs: 0.00004  Tot: +0.00001 ]
	SubspaceRotationAdjust: set factor to 0.203
ElecMinimize: Iter:  16  G: -2366.405937590896883  |grad|_K:  3.219e-06  alpha:  1.171e-01  linmin: -6.993e-05  t[s]:   3206.81
	Linear fluid (dielectric constant: 78.4, screening length: 8.12261 Bohr) occupying 0.520678 of unit cell:	Completed after 13 iterations at t[s]:   3220.09
	Linear fluid (dielectric constant: 78.4, screening length: 8.12261 Bohr) occupying 0.520797 of unit cell:	Completed after 11 iterations at t[s]:   3231.15
	FillingsUpdate:  mu: -0.244750000  nElectrons: 227.289465  magneticMoment: [ Abs: 0.00004  Tot: +0.00002 ]
	SubspaceRotationAdjust: set factor to 0.228
ElecMinimize: Iter:  17  G: -2366.406110629380237  |grad|_K:  2.038e-06  alpha:  1.646e-01  linmin:  3.467e-05  t[s]:   3247.98
	Linear fluid (dielectric constant: 78.4, screening length: 8.12261 Bohr) occupying 0.520963 of unit cell:	Completed after 13 iterations at t[s]:   3262.03
	Linear fluid (dielectric constant: 78.4, screening length: 8.12261 Bohr) occupying 0.520907 of unit cell:	Completed after 10 iterations at t[s]:   3273.01
	FillingsUpdate:  mu: -0.244750000  nElectrons: 227.291562  magneticMoment: [ Abs: 0.00003  Tot: +0.00002 ]
	SubspaceRotationAdjust: set factor to 0.244
ElecMinimize: Iter:  18  G: -2366.406155639444478  |grad|_K:  1.290e-06  alpha:  1.081e-01  linmin: -8.055e-07  t[s]:   3289.93
	Linear fluid (dielectric constant: 78.4, screening length: 8.12261 Bohr) occupying 0.520961 of unit cell:	Completed after 13 iterations at t[s]:   3303.84
	Linear fluid (dielectric constant: 78.4, screening length: 8.12261 Bohr) occupying 0.521004 of unit cell:	Completed after 12 iterations at t[s]:   3314.29
	FillingsUpdate:  mu: -0.244750000  nElectrons: 227.283480  magneticMoment: [ Abs: 0.00003  Tot: +0.00002 ]
	SubspaceRotationAdjust: set factor to 0.216
ElecMinimize: Iter:  19  G: -2366.406188168231893  |grad|_K:  1.519e-06  alpha:  1.938e-01  linmin: -4.360e-05  t[s]:   3330.41
	Linear fluid (dielectric constant: 78.4, screening length: 8.12261 Bohr) occupying 0.521132 of unit cell:	Completed after 13 iterations at t[s]:   3344.07
	Linear fluid (dielectric constant: 78.4, screening length: 8.12261 Bohr) occupying 0.521097 of unit cell:	Completed after 11 iterations at t[s]:   3355.08
	FillingsUpdate:  mu: -0.244750000  nElectrons: 227.284995  magneticMoment: [ Abs: 0.00003  Tot: +0.00002 ]
	SubspaceRotationAdjust: set factor to 0.202
ElecMinimize: Iter:  20  G: -2366.406220584298808  |grad|_K:  9.036e-07  alpha:  1.390e-01  linmin: -6.057e-07  t[s]:   3372.15
	Linear fluid (dielectric constant: 78.4, screening length: 8.12261 Bohr) occupying 0.521135 of unit cell:	Completed after 11 iterations at t[s]:   3385.91
	Linear fluid (dielectric constant: 78.4, screening length: 8.12261 Bohr) occupying 0.521133 of unit cell:	Completed after 2 iterations at t[s]:   3396.01
	FillingsUpdate:  mu: -0.244750000  nElectrons: 227.283955  magneticMoment: [ Abs: 0.00003  Tot: +0.00002 ]
	SubspaceRotationAdjust: set factor to 0.219
ElecMinimize: Iter:  21  G: -2366.406231252673024  |grad|_K:  7.143e-07  alpha:  1.298e-01  linmin:  5.901e-07  t[s]:   3412.19
	Linear fluid (dielectric constant: 78.4, screening length: 8.12261 Bohr) occupying 0.521160 of unit cell:	Completed after 10 iterations at t[s]:   3425.88
	Linear fluid (dielectric constant: 78.4, screening length: 8.12261 Bohr) occupying 0.521173 of unit cell:	Completed after 9 iterations at t[s]:   3436.83
	FillingsUpdate:  mu: -0.244750000  nElectrons: 227.281628  magneticMoment: [ Abs: 0.00002  Tot: +0.00002 ]
	SubspaceRotationAdjust: set factor to 0.221
ElecMinimize: Iter:  22  G: -2366.406241391241110  |grad|_K:  6.059e-07  alpha:  1.974e-01  linmin: -9.282e-06  t[s]:   3453.75
	Linear fluid (dielectric constant: 78.4, screening length: 8.12261 Bohr) occupying 0.521205 of unit cell:	Completed after 13 iterations at t[s]:   3467.45
	Linear fluid (dielectric constant: 78.4, screening length: 8.12261 Bohr) occupying 0.521195 of unit cell:	Completed after 10 iterations at t[s]:   3478.37
	FillingsUpdate:  mu: -0.244750000  nElectrons: 227.283037  magneticMoment: [ Abs: 0.00002  Tot: +0.00002 ]
	SubspaceRotationAdjust: set factor to 0.205
ElecMinimize: Iter:  23  G: -2366.406246248475327  |grad|_K:  4.944e-07  alpha:  1.313e-01  linmin:  8.178e-08  t[s]:   3494.44
	Linear fluid (dielectric constant: 78.4, screening length: 8.12261 Bohr) occupying 0.521214 of unit cell:	Completed after 10 iterations at t[s]:   3507.55
	Linear fluid (dielectric constant: 78.4, screening length: 8.12261 Bohr) occupying 0.521221 of unit cell:	Completed after 9 iterations at t[s]:   3518.26
	FillingsUpdate:  mu: -0.244750000  nElectrons: 227.281933  magneticMoment: [ Abs: 0.00002  Tot: +0.00002 ]
	SubspaceRotationAdjust: set factor to 0.206
ElecMinimize: Iter:  24  G: -2366.406250789688784  |grad|_K:  4.035e-07  alpha:  1.846e-01  linmin:  7.818e-07  t[s]:   3535.36
	Linear fluid (dielectric constant: 78.4, screening length: 8.12261 Bohr) occupying 0.521243 of unit cell:	Completed after 9 iterations at t[s]:   3549.04
	Linear fluid (dielectric constant: 78.4, screening length: 8.12261 Bohr) occupying 0.521236 of unit cell:	Completed after 7 iterations at t[s]:   3559.50
	FillingsUpdate:  mu: -0.244750000  nElectrons: 227.282217  magneticMoment: [ Abs: 0.00002  Tot: +0.00001 ]
	SubspaceRotationAdjust: set factor to 0.238
ElecMinimize: Iter:  25  G: -2366.406252844978098  |grad|_K:  2.790e-07  alpha:  1.255e-01  linmin:  1.173e-06  t[s]:   3575.69
	Linear fluid (dielectric constant: 78.4, screening length: 8.12261 Bohr) occupying 0.521246 of unit cell:	Completed after 9 iterations at t[s]:   3589.31
	Linear fluid (dielectric constant: 78.4, screening length: 8.12261 Bohr) occupying 0.521254 of unit cell:	Completed after 8 iterations at t[s]:   3600.19
	FillingsUpdate:  mu: -0.244750000  nElectrons: 227.282829  magneticMoment: [ Abs: 0.00002  Tot: +0.00001 ]
	SubspaceRotationAdjust: set factor to 0.251
ElecMinimize: Iter:  26  G: -2366.406254551100574  |grad|_K:  2.996e-07  alpha:  2.182e-01  linmin:  1.184e-05  t[s]:   3617.16
	Linear fluid (dielectric constant: 78.4, screening length: 8.12261 Bohr) occupying 0.521282 of unit cell:	Completed after 12 iterations at t[s]:   3630.81
	Linear fluid (dielectric constant: 78.4, screening length: 8.12261 Bohr) occupying 0.521270 of unit cell:	Completed after 9 iterations at t[s]:   3641.45
	FillingsUpdate:  mu: -0.244750000  nElectrons: 227.281914  magneticMoment: [ Abs: 0.00002  Tot: +0.00001 ]
	SubspaceRotationAdjust: set factor to 0.224
ElecMinimize: Iter:  27  G: -2366.406255681177754  |grad|_K:  2.089e-07  alpha:  1.256e-01  linmin:  1.721e-06  t[s]:   3657.46
	Linear fluid (dielectric constant: 78.4, screening length: 8.12261 Bohr) occupying 0.521280 of unit cell:	Completed after 9 iterations at t[s]:   3670.92
	Linear fluid (dielectric constant: 78.4, screening length: 8.12261 Bohr) occupying 0.521284 of unit cell:	Completed after 7 iterations at t[s]:   3681.53
	FillingsUpdate:  mu: -0.244750000  nElectrons: 227.282589  magneticMoment: [ Abs: 0.00001  Tot: +0.00001 ]
	SubspaceRotationAdjust: set factor to 0.21
ElecMinimize: Iter:  28  G: -2366.406256451612990  |grad|_K:  2.186e-07  alpha:  1.756e-01  linmin: -1.967e-07  t[s]:   3698.51
	Linear fluid (dielectric constant: 78.4, screening length: 8.12261 Bohr) occupying 0.521303 of unit cell:	Completed after 9 iterations at t[s]:   3711.82
	Linear fluid (dielectric constant: 78.4, screening length: 8.12261 Bohr) occupying 0.521303 of unit cell:	Completed after 0 iterations at t[s]:   3721.59
	FillingsUpdate:  mu: -0.244750000  nElectrons: 227.282219  magneticMoment: [ Abs: 0.00001  Tot: +0.00001 ]
	SubspaceRotationAdjust: set factor to 0.254
ElecMinimize: Iter:  29  G: -2366.406257260697203  |grad|_K:  1.482e-07  alpha:  1.681e-01  linmin:  6.231e-06  t[s]:   3738.44
	Linear fluid (dielectric constant: 78.4, screening length: 8.12261 Bohr) occupying 0.521314 of unit cell:	Completed after 9 iterations at t[s]:   3752.09
	Linear fluid (dielectric constant: 78.4, screening length: 8.12261 Bohr) occupying 0.521314 of unit cell:	Completed after 0 iterations at t[s]:   3762.08
	FillingsUpdate:  mu: -0.244750000  nElectrons: 227.281704  magneticMoment: [ Abs: 0.00001  Tot: +0.00001 ]
	SubspaceRotationAdjust: set factor to 0.255
ElecMinimize: Iter:  30  G: -2366.406257629671018  |grad|_K:  1.524e-07  alpha:  1.673e-01  linmin:  6.810e-06  t[s]:   3778.62
	Linear fluid (dielectric constant: 78.4, screening length: 8.12261 Bohr) occupying 0.521328 of unit cell:	Completed after 9 iterations at t[s]:   3791.57
	Linear fluid (dielectric constant: 78.4, screening length: 8.12261 Bohr) occupying 0.521330 of unit cell:	Completed after 2 iterations at t[s]:   3801.66
	FillingsUpdate:  mu: -0.244750000  nElectrons: 227.282046  magneticMoment: [ Abs: 0.00001  Tot: +0.00001 ]
	SubspaceRotationAdjust: set factor to 0.214
ElecMinimize: Iter:  31  G: -2366.406258070560853  |grad|_K:  1.331e-07  alpha:  1.891e-01  linmin: -2.143e-05  t[s]:   3818.49
	Linear fluid (dielectric constant: 78.4, screening length: 8.12261 Bohr) occupying 0.521345 of unit cell:	Completed after 9 iterations at t[s]:   3832.15
	Linear fluid (dielectric constant: 78.4, screening length: 8.12261 Bohr) occupying 0.521339 of unit cell:	Completed after 9 iterations at t[s]:   3842.78
	FillingsUpdate:  mu: -0.244750000  nElectrons: 227.281569  magneticMoment: [ Abs: 0.00001  Tot: +0.00001 ]
	SubspaceRotationAdjust: set factor to 0.195
ElecMinimize: Iter:  32  G: -2366.406258273620551  |grad|_K:  8.837e-08  alpha:  1.115e-01  linmin:  6.346e-06  t[s]:   3858.99
	Linear fluid (dielectric constant: 78.4, screening length: 8.12261 Bohr) occupying 0.521344 of unit cell:	Completed after 2 iterations at t[s]:   3872.15
	Linear fluid (dielectric constant: 78.4, screening length: 8.12261 Bohr) occupying 0.521348 of unit cell:	Completed after 2 iterations at t[s]:   3882.56
	FillingsUpdate:  mu: -0.244750000  nElectrons: 227.281485  magneticMoment: [ Abs: 0.00001  Tot: +0.00001 ]
	SubspaceRotationAdjust: set factor to 0.211
ElecMinimize: Iter:  33  G: -2366.406258435821201  |grad|_K:  9.045e-08  alpha:  2.064e-01  linmin: -7.458e-06  t[s]:   3899.50
	Linear fluid (dielectric constant: 78.4, screening length: 8.12261 Bohr) occupying 0.521358 of unit cell:	Completed after 8 iterations at t[s]:   3912.34
	Linear fluid (dielectric constant: 78.4, screening length: 8.12261 Bohr) occupying 0.521355 of unit cell:	Completed after 6 iterations at t[s]:   3922.43
	FillingsUpdate:  mu: -0.244750000  nElectrons: 227.281579  magneticMoment: [ Abs: 0.00001  Tot: +0.00001 ]
	SubspaceRotationAdjust: set factor to 0.197
ElecMinimize: Iter:  34  G: -2366.406258550815892  |grad|_K:  6.529e-08  alpha:  1.399e-01  linmin: -2.398e-06  t[s]:   3939.22
	Linear fluid (dielectric constant: 78.4, screening length: 8.12261 Bohr) occupying 0.521360 of unit cell:	Completed after 9 iterations at t[s]:   3952.99
	Linear fluid (dielectric constant: 78.4, screening length: 8.12261 Bohr) occupying 0.521360 of unit cell:	Completed after 0 iterations at t[s]:   3963.14
	FillingsUpdate:  mu: -0.244750000  nElectrons: 227.281249  magneticMoment: [ Abs: 0.00001  Tot: +0.00000 ]
	SubspaceRotationAdjust: set factor to 0.171
ElecMinimize: Iter:  35  G: -2366.406258614446415  |grad|_K:  5.880e-08  alpha:  1.477e-01  linmin: -3.519e-05  t[s]:   3979.27
	Linear fluid (dielectric constant: 78.4, screening length: 8.12261 Bohr) occupying 0.521365 of unit cell:	Completed after 2 iterations at t[s]:   3992.19
	Linear fluid (dielectric constant: 78.4, screening length: 8.12261 Bohr) occupying 0.521365 of unit cell:	Completed after 0 iterations at t[s]:   4002.39
	FillingsUpdate:  mu: -0.244750000  nElectrons: 227.281179  magneticMoment: [ Abs: 0.00000  Tot: +0.00000 ]
	SubspaceRotationAdjust: set factor to 0.215
ElecMinimize: Iter:  36  G: -2366.406258669080671  |grad|_K:  4.175e-08  alpha:  1.523e-01  linmin:  8.010e-08  t[s]:   4019.25
ElecMinimize: Converged (|Delta G|<1.000000e-07 for 2 iters).
Setting wave functions to eigenvectors of Hamiltonian
Converging empty states (this may take a while): |deigs|: 3.687e-03
Single-point solvation energy estimate, DeltaG = -0.030581940834054

Computing DFT-D3 correction:
# coordination-number Cu 5.550 6.857 9.096 9.039 9.018 7.557 7.554 9.014 9.040 9.099 6.859 5.550
# diagonal-C6 Cu 175.00 175.00 175.00 175.00 175.00 175.00 175.00 175.00 175.00 175.00 175.00 175.00
EvdW_6 =   -0.063916
EvdW_8 =   -0.098595

# Ionic positions in cartesian coordinates:
ion Cu  -0.000086000000000   0.016743000000000  15.722790999999999 1
ion Cu   0.000014000000000   3.887281000000000   2.012458000000000 1
ion Cu   0.000033000000000   7.848761999999999   4.816653000000000 1
ion Cu   0.000024000000000   0.009562000000000   7.572302000000000 1
ion Cu   0.000033000000000   3.887083000000000  10.322651000000000 1
ion Cu  -0.000052000000000   7.727193000000001  13.177373000000001 1
ion Cu   2.383259000000000   0.056616000000000   3.333985000000000 1
ion Cu   2.383354000000000   3.896902000000000   6.191134000000000 1
ion Cu   2.383359000000000   7.774387000000000   8.940294000000000 1
ion Cu   2.383268000000000  -0.064824000000000  11.695002000000001 1
ion Cu   2.383345000000000   3.896563000000000  14.499346000000001 1
ion Cu   2.383311000000000   7.766914000000000   0.788369000000000 1

# Forces in Cartesian coordinates:
force Cu  -0.000000544987378  -0.001550256855471   0.001671615294117 1
force Cu  -0.000001687131222  -0.000396640928403   0.002154399151410 1
force Cu  -0.000001308249066  -0.000296541782597  -0.001726554762054 1
force Cu  -0.000001152631789  -0.000205764821417  -0.000103569984223 1
force Cu  -0.000001148976989   0.000322726845865   0.000695395899538 1
force Cu   0.000000435643518   0.000239612416526  -0.002233432490807 1
force Cu   0.000001316061514  -0.000232366574954   0.002243921674794 1
force Cu  -0.000001078316481  -0.000330563445887  -0.000766201921825 1
force Cu  -0.000001541254401   0.000193897151696   0.000027138907162 1
force Cu  -0.000000153371491   0.000270062908654   0.001673133091466 1
force Cu  -0.000001665939680   0.000398561398923  -0.002143900832036 1
force Cu  -0.000000883200448   0.001541939990311  -0.001669735265417 1

# Energy components:
   A_diel =        0.0834711310629879
   Eewald =     9365.6130641864383506
       EH =    11559.6616554430402175
     Eloc =   -23802.3488972280356393
      Enl =      439.5430071174790783
     EvdW =       -0.1625111783301957
      Exc =     -232.6967438799168519
 Exc_core =        0.5636144876283959
       KE =      247.6515212119200555
  MuShift =        0.0589841226228820
-------------------------------------
     Etot =    -2422.0328345860916670
       TS =        0.0004926635702679
-------------------------------------
        F =    -2422.0333272496618520
      muN =      -55.6270685805813585
-------------------------------------
        G =    -2366.4062586690806711


Dumping 'jdft.fillings' ... done
Dumping 'jdft.wfns' ... done
Dumping 'jdft.fluidState' ... done
Dumping 'jdft.ionpos' ... done
Dumping 'jdft.lattice' ... done
Dumping 'jdft.eigenvals' ... done
Dumping 'jdft.eigStats' ... 
	eMin: -4.385821 at state 0 ( [ +0.000000 +0.000000 +0.000000 ] spin 1 )
	HOMO: -0.245509 at state 48 ( [ +0.250000 -0.200000 +0.000000 ] spin -1 )
	mu  : -0.244750
	LUMO: -0.244571 at state 1 ( [ +0.000000 +0.200000 +0.000000 ] spin 1 )
	eMax: +0.159862 at state 59 ( [ +0.500000 +0.000000 +0.000000 ] spin -1 )
	HOMO-LUMO gap: +0.000938
	Optical gap  : +0.009421 at state 40 ( [ +0.166667 +0.200000 +0.000000 ] spin -1 )
Dumping 'jdft.Ecomponents' ... done
IonicMinimize: Iter:   0  G: -2366.406258669080671  |grad|_K:  1.019e-03  t[s]:   4148.09

#--- Lowdin population analysis ---
# oxidation-state Cu +0.386 +0.201 +0.042 +0.070 +0.069 +0.098 +0.098 +0.070 +0.070 +0.042 +0.201 +0.386
# magnetic-moments Cu +0.000 +0.000 +0.000 +0.000 +0.000 +0.000 +0.000 +0.000 +0.000 +0.000 +0.000 +0.000


Computing DFT-D3 correction:
# coordination-number Cu 5.547 6.859 9.096 9.039 9.020 7.563 7.560 9.016 9.040 9.099 6.861 5.546
# diagonal-C6 Cu 175.00 175.00 175.00 175.00 175.00 175.00 175.00 175.00 175.00 175.00 175.00 175.00
EvdW_6 =   -0.063917
EvdW_8 =   -0.098597
Shifting auxilliary hamiltonian by 0.000030 to set nElectrons=227.281179

-------- Electronic minimization -----------
	Linear fluid (dielectric constant: 78.4, screening length: 8.12261 Bohr) occupying 0.521383 of unit cell:	Completed after 12 iterations at t[s]:   4162.81
	FillingsUpdate:  mu: -0.244750000  nElectrons: 227.281179  magneticMoment: [ Abs: 0.00000  Tot: +0.00000 ]
ElecMinimize: Iter:   0  G: -2366.406288059723465  |grad|_K:  5.139e-07  alpha:  1.000e+00
	Linear fluid (dielectric constant: 78.4, screening length: 8.12261 Bohr) occupying 0.521408 of unit cell:	Completed after 15 iterations at t[s]:   4194.86
	Linear fluid (dielectric constant: 78.4, screening length: 8.12261 Bohr) occupying 0.521386 of unit cell:	Completed after 15 iterations at t[s]:   4206.05
	FillingsUpdate:  mu: -0.244750000  nElectrons: 227.279208  magneticMoment: [ Abs: 0.00000  Tot: +0.00000 ]
	SubspaceRotationAdjust: set factor to 0.137
ElecMinimize: Iter:   1  G: -2366.406290444915612  |grad|_K:  2.978e-07  alpha:  9.025e-02  linmin:  6.419e-05  t[s]:   4222.20
	Linear fluid (dielectric constant: 78.4, screening length: 8.12261 Bohr) occupying 0.521386 of unit cell:	Completed after 9 iterations at t[s]:   4235.55
	Linear fluid (dielectric constant: 78.4, screening length: 8.12261 Bohr) occupying 0.521386 of unit cell:	Completed after 9 iterations at t[s]:   4246.34
	FillingsUpdate:  mu: -0.244750000  nElectrons: 227.280583  magneticMoment: [ Abs: 0.00000  Tot: +0.00000 ]
	SubspaceRotationAdjust: set factor to 0.112
ElecMinimize: Iter:   2  G: -2366.406292386082441  |grad|_K:  2.747e-07  alpha:  2.187e-01  linmin:  1.002e-06  t[s]:   4263.03
	Linear fluid (dielectric constant: 78.4, screening length: 8.12261 Bohr) occupying 0.521387 of unit cell:	Completed after 5 iterations at t[s]:   4276.26
	Linear fluid (dielectric constant: 78.4, screening length: 8.12261 Bohr) occupying 0.521387 of unit cell:	Completed after 2 iterations at t[s]:   4286.12
	FillingsUpdate:  mu: -0.244750000  nElectrons: 227.280586  magneticMoment: [ Abs: 0.00000  Tot: +0.00000 ]
	SubspaceRotationAdjust: set factor to 0.138
ElecMinimize: Iter:   3  G: -2366.406293472998186  |grad|_K:  1.602e-07  alpha:  1.433e-01  linmin:  4.923e-07  t[s]:   4302.27
	Linear fluid (dielectric constant: 78.4, screening length: 8.12261 Bohr) occupying 0.521387 of unit cell:	Completed after 9 iterations at t[s]:   4315.75
	Linear fluid (dielectric constant: 78.4, screening length: 8.12261 Bohr) occupying 0.521387 of unit cell:	Completed after 6 iterations at t[s]:   4326.36
	FillingsUpdate:  mu: -0.244750000  nElectrons: 227.280106  magneticMoment: [ Abs: 0.00000  Tot: +0.00000 ]
	SubspaceRotationAdjust: set factor to 0.13
ElecMinimize: Iter:   4  G: -2366.406293958285460  |grad|_K:  9.644e-08  alpha:  1.880e-01  linmin:  3.914e-06  t[s]:   4342.72
	Linear fluid (dielectric constant: 78.4, screening length: 8.12261 Bohr) occupying 0.521387 of unit cell:	Completed after 8 iterations at t[s]:   4356.04
	Linear fluid (dielectric constant: 78.4, screening length: 8.12261 Bohr) occupying 0.521387 of unit cell:	Completed after 1 iterations at t[s]:   4366.24
	FillingsUpdate:  mu: -0.244750000  nElectrons: 227.280359  magneticMoment: [ Abs: 0.00000  Tot: +0.00000 ]
	SubspaceRotationAdjust: set factor to 0.134
ElecMinimize: Iter:   5  G: -2366.406294148835514  |grad|_K:  9.980e-08  alpha:  2.038e-01  linmin: -1.459e-05  t[s]:   4383.03
	Linear fluid (dielectric constant: 78.4, screening length: 8.12261 Bohr) occupying 0.521388 of unit cell:	Completed after 6 iterations at t[s]:   4396.05
	Linear fluid (dielectric constant: 78.4, screening length: 8.12261 Bohr) occupying 0.521388 of unit cell:	Completed after 2 iterations at t[s]:   4405.93
	FillingsUpdate:  mu: -0.244750000  nElectrons: 227.280425  magneticMoment: [ Abs: 0.00000  Tot: +0.00000 ]
	SubspaceRotationAdjust: set factor to 0.166
ElecMinimize: Iter:   6  G: -2366.406294398700993  |grad|_K:  7.724e-08  alpha:  2.461e-01  linmin:  5.457e-07  t[s]:   4422.14
	Linear fluid (dielectric constant: 78.4, screening length: 8.12261 Bohr) occupying 0.521389 of unit cell:	Completed after 9 iterations at t[s]:   4435.75
	Linear fluid (dielectric constant: 78.4, screening length: 8.12261 Bohr) occupying 0.521388 of unit cell:	Completed after 7 iterations at t[s]:   4446.36
	FillingsUpdate:  mu: -0.244750000  nElectrons: 227.280135  magneticMoment: [ Abs: 0.00000  Tot: +0.00000 ]
	SubspaceRotationAdjust: set factor to 0.19
ElecMinimize: Iter:   7  G: -2366.406294493128371  |grad|_K:  5.683e-08  alpha:  1.557e-01  linmin:  6.539e-06  t[s]:   4462.47
	Linear fluid (dielectric constant: 78.4, screening length: 8.12261 Bohr) occupying 0.521389 of unit cell:	Completed after 2 iterations at t[s]:   4475.48
	Linear fluid (dielectric constant: 78.4, screening length: 8.12261 Bohr) occupying 0.521390 of unit cell:	Completed after 2 iterations at t[s]:   4485.79
	FillingsUpdate:  mu: -0.244750000  nElectrons: 227.279996  magneticMoment: [ Abs: 0.00000  Tot: +0.00000 ]
	SubspaceRotationAdjust: set factor to 0.217
ElecMinimize: Iter:   8  G: -2366.406294608479584  |grad|_K:  8.082e-08  alpha:  3.579e-01  linmin:  3.219e-07  t[s]:   4502.65
	Linear fluid (dielectric constant: 78.4, screening length: 8.12261 Bohr) occupying 0.521393 of unit cell:	Completed after 9 iterations at t[s]:   4515.68
	Linear fluid (dielectric constant: 78.4, screening length: 8.12261 Bohr) occupying 0.521392 of unit cell:	Completed after 7 iterations at t[s]:   4525.71
	FillingsUpdate:  mu: -0.244750000  nElectrons: 227.280145  magneticMoment: [ Abs: 0.00000  Tot: +0.00000 ]
	SubspaceRotationAdjust: set factor to 0.256
ElecMinimize: Iter:   9  G: -2366.406294726011311  |grad|_K:  5.859e-08  alpha:  1.775e-01  linmin: -3.891e-07  t[s]:   4542.70
	Linear fluid (dielectric constant: 78.4, screening length: 8.12261 Bohr) occupying 0.521393 of unit cell:	Completed after 7 iterations at t[s]:   4556.23
	Linear fluid (dielectric constant: 78.4, screening length: 8.12261 Bohr) occupying 0.521393 of unit cell:	Completed after 0 iterations at t[s]:   4566.16
	FillingsUpdate:  mu: -0.244750000  nElectrons: 227.280253  magneticMoment: [ Abs: 0.00000  Tot: +0.00000 ]
	SubspaceRotationAdjust: set factor to 0.279
ElecMinimize: Iter:  10  G: -2366.406294793147936  |grad|_K:  6.188e-08  alpha:  1.937e-01  linmin: -2.893e-06  t[s]:   4582.29
	Linear fluid (dielectric constant: 78.4, screening length: 8.12261 Bohr) occupying 0.521395 of unit cell:	Completed after 9 iterations at t[s]:   4595.92
	Linear fluid (dielectric constant: 78.4, screening length: 8.12261 Bohr) occupying 0.521396 of unit cell:	Completed after 0 iterations at t[s]:   4605.94
	FillingsUpdate:  mu: -0.244750000  nElectrons: 227.279865  magneticMoment: [ Abs: 0.00000  Tot: +0.00000 ]
	SubspaceRotationAdjust: set factor to 0.236
ElecMinimize: Iter:  11  G: -2366.406294876363063  |grad|_K:  6.307e-08  alpha:  2.139e-01  linmin: -5.263e-06  t[s]:   4622.44
ElecMinimize: Converged (|Delta G|<1.000000e-07 for 2 iters).
Setting wave functions to eigenvectors of Hamiltonian
Converging empty states (this may take a while): |deigs|: 3.399e-08

Computing DFT-D3 correction:
# coordination-number Cu 5.547 6.859 9.096 9.039 9.020 7.563 7.560 9.016 9.040 9.099 6.861 5.546
# diagonal-C6 Cu 175.00 175.00 175.00 175.00 175.00 175.00 175.00 175.00 175.00 175.00 175.00 175.00
EvdW_6 =   -0.063917
EvdW_8 =   -0.098597
IonicMinimize: 	Wolfe criterion not satisfied: alpha: 1  (E-E0)/|gdotd0|: -0.968994  gdotd/gdotd0: 0.906927 (taking cubic step)

Computing DFT-D3 correction:
# coordination-number Cu 5.539 6.863 9.097 9.039 9.023 7.574 7.572 9.020 9.040 9.099 6.865 5.538
# diagonal-C6 Cu 175.00 175.00 175.00 175.00 175.00 175.00 175.00 175.00 175.00 175.00 175.00 175.00
EvdW_6 =   -0.063919
EvdW_8 =   -0.098600
Shifting auxilliary hamiltonian by 0.000071 to set nElectrons=227.279865

-------- Electronic minimization -----------
	Linear fluid (dielectric constant: 78.4, screening length: 8.12261 Bohr) occupying 0.521397 of unit cell:	Completed after 14 iterations at t[s]:   4675.65
	FillingsUpdate:  mu: -0.244750000  nElectrons: 227.279865  magneticMoment: [ Abs: 0.00000  Tot: +0.00000 ]
ElecMinimize: Iter:   0  G: -2366.406335523669441  |grad|_K:  8.633e-07  alpha:  1.000e+00
	Linear fluid (dielectric constant: 78.4, screening length: 8.12261 Bohr) occupying 0.521419 of unit cell:	Completed after 15 iterations at t[s]:   4707.71
	Linear fluid (dielectric constant: 78.4, screening length: 8.12261 Bohr) occupying 0.521400 of unit cell:	Completed after 15 iterations at t[s]:   4718.71
	FillingsUpdate:  mu: -0.244750000  nElectrons: 227.277334  magneticMoment: [ Abs: 0.00000  Tot: +0.00000 ]
	SubspaceRotationAdjust: set factor to 0.19
ElecMinimize: Iter:   1  G: -2366.406343999575711  |grad|_K:  6.017e-07  alpha:  1.132e-01  linmin:  1.293e-04  t[s]:   4735.26
	Linear fluid (dielectric constant: 78.4, screening length: 8.12261 Bohr) occupying 0.521398 of unit cell:	Completed after 12 iterations at t[s]:   4748.38
	Linear fluid (dielectric constant: 78.4, screening length: 8.12261 Bohr) occupying 0.521397 of unit cell:	Completed after 11 iterations at t[s]:   4758.91
	FillingsUpdate:  mu: -0.244750000  nElectrons: 227.280469  magneticMoment: [ Abs: 0.00000  Tot: +0.00000 ]
	SubspaceRotationAdjust: set factor to 0.137
ElecMinimize: Iter:   2  G: -2366.406350955342532  |grad|_K:  5.644e-07  alpha:  1.913e-01  linmin:  3.542e-05  t[s]:   4775.81
	Linear fluid (dielectric constant: 78.4, screening length: 8.12261 Bohr) occupying 0.521398 of unit cell:	Completed after 12 iterations at t[s]:   4789.38
	Linear fluid (dielectric constant: 78.4, screening length: 8.12261 Bohr) occupying 0.521398 of unit cell:	Completed after 9 iterations at t[s]:   4799.54
	FillingsUpdate:  mu: -0.244750000  nElectrons: 227.279197  magneticMoment: [ Abs: 0.00000  Tot: +0.00000 ]
	SubspaceRotationAdjust: set factor to 0.154
ElecMinimize: Iter:   3  G: -2366.406355125770460  |grad|_K:  3.199e-07  alpha:  1.302e-01  linmin:  2.125e-06  t[s]:   4816.49
	Linear fluid (dielectric constant: 78.4, screening length: 8.12261 Bohr) occupying 0.521398 of unit cell:	Completed after 9 iterations at t[s]:   4829.99
	Linear fluid (dielectric constant: 78.4, screening length: 8.12261 Bohr) occupying 0.521397 of unit cell:	Completed after 8 iterations at t[s]:   4840.71
	FillingsUpdate:  mu: -0.244750000  nElectrons: 227.278457  magneticMoment: [ Abs: 0.00000  Tot: +0.00000 ]
	SubspaceRotationAdjust: set factor to 0.163
ElecMinimize: Iter:   4  G: -2366.406356970808702  |grad|_K:  2.054e-07  alpha:  1.790e-01  linmin: -2.291e-04  t[s]:   4856.79
	Linear fluid (dielectric constant: 78.4, screening length: 8.12261 Bohr) occupying 0.521396 of unit cell:	Completed after 11 iterations at t[s]:   4870.21
	Linear fluid (dielectric constant: 78.4, screening length: 8.12261 Bohr) occupying 0.521396 of unit cell:	Completed after 0 iterations at t[s]:   4880.38
	FillingsUpdate:  mu: -0.244750000  nElectrons: 227.279491  magneticMoment: [ Abs: 0.00000  Tot: +0.00000 ]
	SubspaceRotationAdjust: set factor to 0.138
ElecMinimize: Iter:   5  G: -2366.406357735696474  |grad|_K:  1.944e-07  alpha:  1.797e-01  linmin: -3.121e-05  t[s]:   4897.36
	Linear fluid (dielectric constant: 78.4, screening length: 8.12261 Bohr) occupying 0.521396 of unit cell:	Completed after 8 iterations at t[s]:   4910.30
	Linear fluid (dielectric constant: 78.4, screening length: 8.12261 Bohr) occupying 0.521396 of unit cell:	Completed after 3 iterations at t[s]:   4920.56
	FillingsUpdate:  mu: -0.244750000  nElectrons: 227.279149  magneticMoment: [ Abs: 0.00000  Tot: +0.00000 ]
	SubspaceRotationAdjust: set factor to 0.167
ElecMinimize: Iter:   6  G: -2366.406358736216589  |grad|_K:  1.832e-07  alpha:  2.631e-01  linmin:  1.810e-05  t[s]:   4937.44
	Linear fluid (dielectric constant: 78.4, screening length: 8.12261 Bohr) occupying 0.521397 of unit cell:	Completed after 10 iterations at t[s]:   4951.20
	Linear fluid (dielectric constant: 78.4, screening length: 8.12261 Bohr) occupying 0.521396 of unit cell:	Completed after 9 iterations at t[s]:   4961.39
	FillingsUpdate:  mu: -0.244750000  nElectrons: 227.278760  magneticMoment: [ Abs: 0.00001  Tot: +0.00000 ]
	SubspaceRotationAdjust: set factor to 0.195
ElecMinimize: Iter:   7  G: -2366.406359157238512  |grad|_K:  1.032e-07  alpha:  1.263e-01  linmin:  1.397e-05  t[s]:   4977.54
	Linear fluid (dielectric constant: 78.4, screening length: 8.12261 Bohr) occupying 0.521397 of unit cell:	Completed after 6 iterations at t[s]:   4991.14
ElecMinimize: 	Predicted alpha/alphaT>3.000000, increasing alphaT to 3.788644e-01.
	Linear fluid (dielectric constant: 78.4, screening length: 8.12261 Bohr) occupying 0.521397 of unit cell:	Completed after 9 iterations at t[s]:   5002.04
	Linear fluid (dielectric constant: 78.4, screening length: 8.12261 Bohr) occupying 0.521397 of unit cell:	Completed after 2 iterations at t[s]:   5012.21
	FillingsUpdate:  mu: -0.244750000  nElectrons: 227.279165  magneticMoment: [ Abs: 0.00001  Tot: +0.00000 ]
	SubspaceRotationAdjust: set factor to 0.202
ElecMinimize: Iter:   8  G: -2366.406359613967652  |grad|_K:  1.630e-07  alpha:  4.264e-01  linmin: -4.357e-05  t[s]:   5028.57
	Linear fluid (dielectric constant: 78.4, screening length: 8.12261 Bohr) occupying 0.521402 of unit cell:	Completed after 11 iterations at t[s]:   5042.28
	Linear fluid (dielectric constant: 78.4, screening length: 8.12261 Bohr) occupying 0.521399 of unit cell:	Completed after 9 iterations at t[s]:   5053.01
	FillingsUpdate:  mu: -0.244750000  nElectrons: 227.278910  magneticMoment: [ Abs: 0.00001  Tot: +0.00000 ]
	SubspaceRotationAdjust: set factor to 0.225
ElecMinimize: Iter:   9  G: -2366.406360011667857  |grad|_K:  1.049e-07  alpha:  1.475e-01  linmin: -1.586e-05  t[s]:   5069.76
	Linear fluid (dielectric constant: 78.4, screening length: 8.12261 Bohr) occupying 0.521400 of unit cell:	Completed after 2 iterations at t[s]:   5082.47
	Linear fluid (dielectric constant: 78.4, screening length: 8.12261 Bohr) occupying 0.521401 of unit cell:	Completed after 2 iterations at t[s]:   5093.14
	FillingsUpdate:  mu: -0.244750000  nElectrons: 227.278902  magneticMoment: [ Abs: 0.00001  Tot: +0.00000 ]
	SubspaceRotationAdjust: set factor to 0.248
ElecMinimize: Iter:  10  G: -2366.406360261728423  |grad|_K:  1.133e-07  alpha:  2.252e-01  linmin: -5.644e-05  t[s]:   5109.36
	Linear fluid (dielectric constant: 78.4, screening length: 8.12261 Bohr) occupying 0.521403 of unit cell:	Completed after 6 iterations at t[s]:   5122.41
	Linear fluid (dielectric constant: 78.4, screening length: 8.12261 Bohr) occupying 0.521403 of unit cell:	Completed after 0 iterations at t[s]:   5132.61
	FillingsUpdate:  mu: -0.244750000  nElectrons: 227.278926  magneticMoment: [ Abs: 0.00001  Tot: +0.00000 ]
	SubspaceRotationAdjust: set factor to 0.265
ElecMinimize: Iter:  11  G: -2366.406360547706299  |grad|_K:  1.023e-07  alpha:  2.201e-01  linmin:  3.789e-06  t[s]:   5149.17
	Linear fluid (dielectric constant: 78.4, screening length: 8.12261 Bohr) occupying 0.521406 of unit cell:	Completed after 9 iterations at t[s]:   5163.18
	Linear fluid (dielectric constant: 78.4, screening length: 8.12261 Bohr) occupying 0.521406 of unit cell:	Completed after 0 iterations at t[s]:   5172.92
	FillingsUpdate:  mu: -0.244750000  nElectrons: 227.278613  magneticMoment: [ Abs: 0.00000  Tot: +0.00000 ]
	SubspaceRotationAdjust: set factor to 0.254
[...]
force Cu   0.000001963849677   0.000138051627713   0.000606092615744 1
force Cu   0.000000142823510   0.000387726472209   0.000082689244820 1
force Cu   0.000000853873472  -0.000206961171884   0.000028644220074 1
force Cu   0.000002610944067  -0.000348023719507   0.000238269293749 1
force Cu  -0.000000083076024   0.000309075341959  -0.000217504152512 1
force Cu   0.000000977769733   0.000165135499862   0.000029506631943 1
force Cu  -0.000002384901127  -0.000373311938447  -0.000061834782994 1
force Cu  -0.000001690001633  -0.000076035243151  -0.000553270590631 1
force Cu  -0.000001199035764   0.000312610893016   0.000197139877496 1
force Cu   0.000000169410229   0.000229684868073  -0.000457970165046 1

# Energy components:
   A_diel =        0.0842004020048451
   Eewald =     9383.5943629917801445
       EH =    11577.4189366572572908
     Eloc =   -23838.1002114363582223
      Enl =      439.5488845538807823
     EvdW =       -0.1627238727538435
      Exc =     -232.6996602807496402
 Exc_core =        0.5636037780951956
       KE =      247.6633090814195839
  MuShift =        0.0604969215964958
-------------------------------------
     Etot =    -2422.0288012038254237
       TS =        0.0004947067632142
-------------------------------------
        F =    -2422.0292959105886439
      muN =      -55.6225563684997368
-------------------------------------
        G =    -2366.4067395420888715


Dumping 'jdft.fillings' ... done
Dumping 'jdft.wfns' ... done
Dumping 'jdft.fluidState' ... done
Dumping 'jdft.ionpos' ... done
Dumping 'jdft.lattice' ... done
Dumping 'jdft.eigenvals' ... done
Dumping 'jdft.eigStats' ... 
	eMin: -4.386071 at state 31 ( [ +0.000000 +0.000000 +0.000000 ] spin -1 )
	HOMO: -0.245395 at state 33 ( [ +0.000000 +0.400000 +0.000000 ] spin -1 )
	mu  : -0.244750
	LUMO: -0.244221 at state 18 ( [ +0.333333 +0.000000 +0.000000 ] spin 1 )
	eMax: +0.159072 at state 59 ( [ +0.500000 +0.000000 +0.000000 ] spin -1 )
	HOMO-LUMO gap: +0.001175
	Optical gap  : +0.009966 at state 9 ( [ +0.166667 +0.200000 +0.000000 ] spin 1 )
Dumping 'jdft.Ecomponents' ... done
IonicMinimize: Iter:   3  G: -2366.406739542088872  |grad|_K:  2.483e-04  alpha:  1.000e+00  linmin:  4.481e-01  t[s]:   8119.14

#--- Lowdin population analysis ---
# oxidation-state Cu +0.399 +0.204 +0.040 +0.070 +0.067 +0.095 +0.095 +0.067 +0.070 +0.040 +0.204 +0.399
# magnetic-moments Cu +0.000 +0.000 +0.000 +0.000 +0.000 +0.000 +0.000 +0.000 +0.000 +0.000 +0.000 +0.000


Computing DFT-D3 correction:
# coordination-number Cu 5.449 6.869 9.117 9.085 9.092 7.631 7.633 9.090 9.083 9.119 6.872 5.448
# diagonal-C6 Cu 175.00 175.00 175.00 175.00 175.00 175.00 175.00 175.00 175.00 175.00 175.00 175.00
EvdW_6 =   -0.063961
EvdW_8 =   -0.098744
Shifting auxilliary hamiltonian by 0.000003 to set nElectrons=227.262743

-------- Electronic minimization -----------
	Linear fluid (dielectric constant: 78.4, screening length: 8.12261 Bohr) occupying 0.521372 of unit cell:	Completed after 13 iterations at t[s]:   8134.27
	FillingsUpdate:  mu: -0.244750000  nElectrons: 227.262743  magneticMoment: [ Abs: 0.00002  Tot: +0.00000 ]
ElecMinimize: Iter:   0  G: -2366.406715896336664  |grad|_K:  9.177e-07  alpha:  1.000e+00
	Linear fluid (dielectric constant: 78.4, screening length: 8.12261 Bohr) occupying 0.521366 of unit cell:	Completed after 15 iterations at t[s]:   8166.48
	Linear fluid (dielectric constant: 78.4, screening length: 8.12261 Bohr) occupying 0.521371 of unit cell:	Completed after 14 iterations at t[s]:   8177.46
	FillingsUpdate:  mu: -0.244750000  nElectrons: 227.261836  magneticMoment: [ Abs: 0.00002  Tot: +0.00000 ]
	SubspaceRotationAdjust: set factor to 0.175
ElecMinimize: Iter:   1  G: -2366.406727053798022  |grad|_K:  6.295e-07  alpha:  1.317e-01  linmin:  3.517e-05  t[s]:   8193.79
	Linear fluid (dielectric constant: 78.4, screening length: 8.12261 Bohr) occupying 0.521370 of unit cell:	Completed after 9 iterations at t[s]:   8206.76
	Linear fluid (dielectric constant: 78.4, screening length: 8.12261 Bohr) occupying 0.521368 of unit cell:	Completed after 9 iterations at t[s]:   8217.47
	FillingsUpdate:  mu: -0.244750000  nElectrons: 227.262785  magneticMoment: [ Abs: 0.00001  Tot: +0.00000 ]
	SubspaceRotationAdjust: set factor to 0.179
ElecMinimize: Iter:   2  G: -2366.406737658123802  |grad|_K:  4.411e-07  alpha:  2.660e-01  linmin:  1.335e-05  t[s]:   8234.44
	Linear fluid (dielectric constant: 78.4, screening length: 8.12261 Bohr) occupying 0.521366 of unit cell:	Completed after 11 iterations at t[s]:   8248.10
	Linear fluid (dielectric constant: 78.4, screening length: 8.12261 Bohr) occupying 0.521367 of unit cell:	Completed after 8 iterations at t[s]:   8258.41
	FillingsUpdate:  mu: -0.244750000  nElectrons: 227.262403  magneticMoment: [ Abs: 0.00001  Tot: +0.00000 ]
	SubspaceRotationAdjust: set factor to 0.184
ElecMinimize: Iter:   3  G: -2366.406741551942559  |grad|_K:  3.139e-07  alpha:  1.989e-01  linmin:  4.090e-06  t[s]:   8275.19
	Linear fluid (dielectric constant: 78.4, screening length: 8.12261 Bohr) occupying 0.521364 of unit cell:	Completed after 11 iterations at t[s]:   8288.84
	Linear fluid (dielectric constant: 78.4, screening length: 8.12261 Bohr) occupying 0.521365 of unit cell:	Completed after 9 iterations at t[s]:   8299.83
	FillingsUpdate:  mu: -0.244750000  nElectrons: 227.263054  magneticMoment: [ Abs: 0.00001  Tot: +0.00000 ]
	SubspaceRotationAdjust: set factor to 0.202
ElecMinimize: Iter:   4  G: -2366.406742847244914  |grad|_K:  2.049e-07  alpha:  1.307e-01  linmin: -2.188e-05  t[s]:   8316.08
	Linear fluid (dielectric constant: 78.4, screening length: 8.12261 Bohr) occupying 0.521363 of unit cell:	Completed after 6 iterations at t[s]:   8328.95
	Linear fluid (dielectric constant: 78.4, screening length: 8.12261 Bohr) occupying 0.521360 of unit cell:	Completed after 8 iterations at t[s]:   8339.67
	FillingsUpdate:  mu: -0.244750000  nElectrons: 227.262843  magneticMoment: [ Abs: 0.00001  Tot: +0.00000 ]
	SubspaceRotationAdjust: set factor to 0.213
ElecMinimize: Iter:   5  G: -2366.406744252609315  |grad|_K:  2.713e-07  alpha:  3.332e-01  linmin:  4.195e-05  t[s]:   8356.73
	Linear fluid (dielectric constant: 78.4, screening length: 8.12261 Bohr) occupying 0.521349 of unit cell:	Completed after 10 iterations at t[s]:   8369.82
	Linear fluid (dielectric constant: 78.4, screening length: 8.12261 Bohr) occupying 0.521355 of unit cell:	Completed after 9 iterations at t[s]:   8380.50
	FillingsUpdate:  mu: -0.244750000  nElectrons: 227.263387  magneticMoment: [ Abs: 0.00001  Tot: +0.00000 ]
	SubspaceRotationAdjust: set factor to 0.254
ElecMinimize: Iter:   6  G: -2366.406745394738209  |grad|_K:  1.437e-07  alpha:  1.544e-01  linmin:  8.331e-06  t[s]:   8397.44
	Linear fluid (dielectric constant: 78.4, screening length: 8.12261 Bohr) occupying 0.521353 of unit cell:	Completed after 8 iterations at t[s]:   8411.10
	Linear fluid (dielectric constant: 78.4, screening length: 8.12261 Bohr) occupying 0.521352 of unit cell:	Completed after 3 iterations at t[s]:   8420.92
	FillingsUpdate:  mu: -0.244750000  nElectrons: 227.263133  magneticMoment: [ Abs: 0.00001  Tot: +0.00000 ]
	SubspaceRotationAdjust: set factor to 0.283
ElecMinimize: Iter:   7  G: -2366.406745852318181  |grad|_K:  1.797e-07  alpha:  2.200e-01  linmin: -7.358e-05  t[s]:   8436.77
	Linear fluid (dielectric constant: 78.4, screening length: 8.12261 Bohr) occupying 0.521346 of unit cell:	Completed after 2 iterations at t[s]:   8449.52
	Linear fluid (dielectric constant: 78.4, screening length: 8.12261 Bohr) occupying 0.521345 of unit cell:	Completed after 2 iterations at t[s]:   8459.85
	FillingsUpdate:  mu: -0.244750000  nElectrons: 227.263242  magneticMoment: [ Abs: 0.00001  Tot: +0.00000 ]
	SubspaceRotationAdjust: set factor to 0.333
ElecMinimize: Iter:   8  G: -2366.406746756311350  |grad|_K:  1.432e-07  alpha:  2.766e-01  linmin: -6.683e-06  t[s]:   8476.63
	Linear fluid (dielectric constant: 78.4, screening length: 8.12261 Bohr) occupying 0.521340 of unit cell:	Completed after 8 iterations at t[s]:   8489.19
	Linear fluid (dielectric constant: 78.4, screening length: 8.12261 Bohr) occupying 0.521342 of unit cell:	Completed after 7 iterations at t[s]:   8499.69
	FillingsUpdate:  mu: -0.244750000  nElectrons: 227.263516  magneticMoment: [ Abs: 0.00001  Tot: +0.00000 ]
	SubspaceRotationAdjust: set factor to 0.354
ElecMinimize: Iter:   9  G: -2366.406747127872677  |grad|_K:  1.417e-07  alpha:  1.798e-01  linmin:  2.112e-05  t[s]:   8516.42
	Linear fluid (dielectric constant: 78.4, screening length: 8.12261 Bohr) occupying 0.521339 of unit cell:	Completed after 9 iterations at t[s]:   8529.85
	Linear fluid (dielectric constant: 78.4, screening length: 8.12261 Bohr) occupying 0.521340 of unit cell:	Completed after 6 iterations at t[s]:   8539.94
	FillingsUpdate:  mu: -0.244750000  nElectrons: 227.262964  magneticMoment: [ Abs: 0.00001  Tot: +0.00000 ]
	SubspaceRotationAdjust: set factor to 0.289
ElecMinimize: Iter:  10  G: -2366.406747423617162  |grad|_K:  1.476e-07  alpha:  1.468e-01  linmin:  9.901e-06  t[s]:   8556.20
	Linear fluid (dielectric constant: 78.4, screening length: 8.12261 Bohr) occupying 0.521337 of unit cell:	Completed after 11 iterations at t[s]:   8569.91
	Linear fluid (dielectric constant: 78.4, screening length: 8.12261 Bohr) occupying 0.521338 of unit cell:	Completed after 9 iterations at t[s]:   8580.73
	FillingsUpdate:  mu: -0.244750000  nElectrons: 227.263562  magneticMoment: [ Abs: 0.00001  Tot: +0.00000 ]
	SubspaceRotationAdjust: set factor to 0.2
ElecMinimize: Iter:  11  G: -2366.406747611345509  |grad|_K:  1.134e-07  alpha:  8.624e-02  linmin: -3.546e-06  t[s]:   8597.11
	Linear fluid (dielectric constant: 78.4, screening length: 8.12261 Bohr) occupying 0.521337 of unit cell:	Completed after 2 iterations at t[s]:   8609.88
	Linear fluid (dielectric constant: 78.4, screening length: 8.12261 Bohr) occupying 0.521337 of unit cell:	Completed after 2 iterations at t[s]:   8620.11
	FillingsUpdate:  mu: -0.244750000  nElectrons: 227.263532  magneticMoment: [ Abs: 0.00001  Tot: +0.00000 ]
	SubspaceRotationAdjust: set factor to 0.231
ElecMinimize: Iter:  12  G: -2366.406747848476243  |grad|_K:  9.979e-08  alpha:  1.829e-01  linmin: -3.109e-05  t[s]:   8636.81
	Linear fluid (dielectric constant: 78.4, screening length: 8.12261 Bohr) occupying 0.521336 of unit cell:	Completed after 9 iterations at t[s]:   8650.23
	Linear fluid (dielectric constant: 78.4, screening length: 8.12261 Bohr) occupying 0.521336 of unit cell:	Completed after 6 iterations at t[s]:   8660.39
	FillingsUpdate:  mu: -0.244750000  nElectrons: 227.263324  magneticMoment: [ Abs: 0.00001  Tot: +0.00000 ]
	SubspaceRotationAdjust: set factor to 0.19
ElecMinimize: Iter:  13  G: -2366.406747958511914  |grad|_K:  6.630e-08  alpha:  1.115e-01  linmin: -4.397e-05  t[s]:   8676.49
	Linear fluid (dielectric constant: 78.4, screening length: 8.12261 Bohr) occupying 0.521336 of unit cell:	Completed after 9 iterations at t[s]:   8690.09
	Linear fluid (dielectric constant: 78.4, screening length: 8.12261 Bohr) occupying 0.521336 of unit cell:	Completed after 0 iterations at t[s]:   8700.19
	FillingsUpdate:  mu: -0.244750000  nElectrons: 227.263596  magneticMoment: [ Abs: 0.00001  Tot: +0.00000 ]
	SubspaceRotationAdjust: set factor to 0.136
ElecMinimize: Iter:  14  G: -2366.406748003480971  |grad|_K:  5.457e-08  alpha:  1.013e-01  linmin:  4.309e-04  t[s]:   8716.32
	Linear fluid (dielectric constant: 78.4, screening length: 8.12261 Bohr) occupying 0.521336 of unit cell:	Completed after 2 iterations at t[s]:   8729.28
	Linear fluid (dielectric constant: 78.4, screening length: 8.12261 Bohr) occupying 0.521336 of unit cell:	Completed after 0 iterations at t[s]:   8739.38
	FillingsUpdate:  mu: -0.244750000  nElectrons: 227.263625  magneticMoment: [ Abs: 0.00001  Tot: +0.00000 ]
	SubspaceRotationAdjust: set factor to 0.17
ElecMinimize: Iter:  15  G: -2366.406748057771438  |grad|_K:  4.405e-08  alpha:  1.841e-01  linmin: -2.913e-04  t[s]:   8756.41
ElecMinimize: Converged (|Delta G|<1.000000e-07 for 2 iters).
Setting wave functions to eigenvectors of Hamiltonian
Converging empty states (this may take a while): |deigs|: 1.887e-08

Computing DFT-D3 correction:
# coordination-number Cu 5.449 6.869 9.117 9.085 9.092 7.631 7.633 9.090 9.083 9.119 6.872 5.448
# diagonal-C6 Cu 175.00 175.00 175.00 175.00 175.00 175.00 175.00 175.00 175.00 175.00 175.00 175.00
EvdW_6 =   -0.063961
EvdW_8 =   -0.098744

# Ionic positions in cartesian coordinates:
ion Cu  -0.000112047572283  -0.026076409405199  15.773997398679933 1
ion Cu  -0.000014729813060   3.896433679574421   2.062904601466586 1
ion Cu  -0.000017973159169   7.840796727221766   4.771703001255280 1
ion Cu   0.000003621007055   0.001139647511583   7.606774276030634 1
ion Cu   0.000030211041281   3.892533614692963  10.310838510349914 1
ion Cu   0.000029463654813   7.728739722164810  13.110679447344793 1
ion Cu   2.383368135552136   0.055017675684844   3.403440503623405 1
ion Cu   2.383328898068702   3.891636831393061   6.201105079757552 1
ion Cu   2.383319789399231   7.782462770798085   8.906326787361106 1
ion Cu   2.383286366014018  -0.056970523406797  11.739065311031410 1
ion Cu   2.383279188961978   3.887020248717308  14.448029727070479 1
ion Cu   2.383361076845296   7.810448015053156   0.737493356028909 1

# Forces in Cartesian coordinates:
force Cu  -0.000000287323312  -0.000161497357114   0.000006742794055 1
force Cu   0.000005270284380   0.000091463526444  -0.000106342081423 1
force Cu   0.000000569268940   0.000114824679638   0.000008385927116 1
force Cu  -0.000001331801663   0.000101700420192  -0.000020573522141 1
force Cu  -0.000000452588088  -0.000138330724227   0.000055165138031 1
force Cu  -0.000000498511970  -0.000032120285993   0.000012566658527 1
force Cu   0.000002106828737   0.000046469990335   0.000009372244709 1
force Cu   0.000001176719426   0.000132563582671  -0.000049941704841 1
force Cu  -0.000000536286886  -0.000099063905807   0.000049464616146 1
force Cu  -0.000001198968076  -0.000115037036903  -0.000000858429548 1
force Cu  -0.000002649908876  -0.000089749901249   0.000055473932241 1
force Cu   0.000001130679262   0.000168873053900   0.000005904700012 1

# Energy components:
   A_diel =        0.0841781907085286
   Eewald =     9380.6380645132121572
       EH =    11574.5257769286417897
     Eloc =   -23832.2498642803802795
      Enl =      439.5483736464326512
     EvdW =       -0.1627050561840051
      Exc =     -232.6986025812572905
 Exc_core =        0.5636047146221462
       KE =      247.6617216704879070
  MuShift =        0.0604245916234591
-------------------------------------
     Etot =    -2422.0290276620921759
       TS =        0.0004925021479046
-------------------------------------
        F =    -2422.0295201642402390
      muN =      -55.6227721064688154
-------------------------------------
        G =    -2366.4067480577714377


Dumping 'jdft.fillings' ... done
Dumping 'jdft.wfns' ... done
Dumping 'jdft.fluidState' ... done
Dumping 'jdft.ionpos' ... done
Dumping 'jdft.lattice' ... done
Dumping 'jdft.eigenvals' ... done
Dumping 'jdft.eigStats' ... 
	eMin: -4.385917 at state 31 ( [ +0.000000 +0.000000 +0.000000 ] spin -1 )
	HOMO: -0.245471 at state 33 ( [ +0.000000 +0.400000 +0.000000 ] spin -1 )
	mu  : -0.244750
	LUMO: -0.244143 at state 18 ( [ +0.333333 +0.000000 +0.000000 ] spin 1 )
	eMax: +0.159055 at state 8 ( [ +0.166667 +0.000000 +0.000000 ] spin 1 )
	HOMO-LUMO gap: +0.001328
	Optical gap  : +0.009877 at state 40 ( [ +0.166667 +0.200000 +0.000000 ] spin -1 )
Dumping 'jdft.Ecomponents' ... done
IonicMinimize: Iter:   4  G: -2366.406748057771438  |grad|_K:  7.084e-05  alpha:  1.000e+00  linmin: -3.496e-01  t[s]:   8794.69
IonicMinimize: Converged (|grad|_K<1.000000e-04).

#--- Lowdin population analysis ---
# oxidation-state Cu +0.398 +0.204 +0.041 +0.070 +0.067 +0.094 +0.094 +0.067 +0.070 +0.041 +0.203 +0.399
# magnetic-moments Cu +0.000 +0.000 +0.000 +0.000 +0.000 +0.000 +0.000 +0.000 +0.000 +0.000 +0.000 +0.000


Dumping 'jdft.n_up' ... done
Dumping 'jdft.n_dn' ... done
Dumping 'jdft.tau_up' ... done
Dumping 'jdft.tau_dn' ... done
Dumping 'jdft.eigenvals' ... done
Dumping 'jdft.eigStats' ... 
	eMin: -4.385917 at state 31 ( [ +0.000000 +0.000000 +0.000000 ] spin -1 )
	HOMO: -0.245471 at state 33 ( [ +0.000000 +0.400000 +0.000000 ] spin -1 )
	mu  : -0.244750
	LUMO: -0.244143 at state 18 ( [ +0.333333 +0.000000 +0.000000 ] spin 1 )
	eMax: +0.159055 at state 8 ( [ +0.166667 +0.000000 +0.000000 ] spin 1 )
	HOMO-LUMO gap: +0.001328
	Optical gap  : +0.009877 at state 40 ( [ +0.166667 +0.200000 +0.000000 ] spin -1 )
Dumping 'jdft.kPts' ... done
Dumping 'jdft.kMap' ... done
Dumping 'jdft.dosUp' ... done.
Dumping 'jdft.dosDn' ... done.
End date and time: Thu Sep  8 21:05:19 2022  (Duration: 0-2:27:00.50)
Done!

PROFILER:             augmentDensityGrid     1.583921 +/-     0.100752 s,  431 calls,    682.669770 s total
PROFILER:         augmentDensityGridGrad     0.133648 +/-     0.029695 s,  224 calls,     29.937204 s total
PROFILER:        augmentDensitySpherical     0.001276 +/-     0.000079 s, 1293 calls,      1.650084 s total
PROFILER:    augmentDensitySphericalGrad     0.001348 +/-     0.000189 s,  781 calls,      1.052705 s total
PROFILER:                 augmentOverlap     0.492331 +/-     0.061380 s, 2396 calls,   1179.624356 s total
PROFILER:        ColumnBundle::randomize     0.000789 +/-     0.000035 s,    3 calls,      0.002366 s total
PROFILER:                     diagouterI     1.375498 +/-     0.088455 s, 1302 calls,   1790.898075 s total
PROFILER:              EdensityAndVscloc     0.847419 +/-     0.612367 s,  432 calls,    366.085029 s total
PROFILER:                     EnlAndGrad     0.003372 +/-     0.000684 s, 1225 calls,      4.131195 s total
PROFILER:            ExCorrCommunication     0.010719 +/-     0.038947 s, 2660 calls,     28.512727 s total
PROFILER:               ExCorrFunctional     0.003413 +/-     0.000484 s,  451 calls,      1.539373 s total
PROFILER:                    ExCorrTotal     0.089781 +/-     0.089192 s,  451 calls,     40.491382 s total
PROFILER:                   Idag_DiagV_I     2.517897 +/-     0.661609 s,  763 calls,   1921.155318 s total
PROFILER:                    initWeights     2.050188 +/-     0.000000 s,    1 calls,      2.050188 s total
PROFILER:                    inv(matrix)     0.002185 +/-     0.000402 s, 1086 calls,      2.372602 s total
PROFILER:            matrix::diagonalize     0.008330 +/-     0.003307 s, 2017 calls,     16.801748 s total
PROFILER:                    matrix::set     0.000006 +/-     0.000005 s, 24800 calls,      0.155672 s total
PROFILER:            orthoMatrix(matrix)     0.001798 +/-     0.000764 s, 1183 calls,      2.127196 s total
PROFILER:     RadialFunctionR::transform     0.053003 +/-     0.239808 s,   58 calls,      3.074199 s total
PROFILER:                    reduceKmesh     0.000209 +/-     0.000000 s,    1 calls,      0.000209 s total
PROFILER:   VanDerWaalsD3::energyAndGrad     0.008802 +/-     0.000320 s,   13 calls,      0.114432 s total
PROFILER:               WavefunctionDrag     6.734044 +/-     1.334227 s,    6 calls,     40.404267 s total
PROFILER:                            Y*M     0.155558 +/-     0.041925 s, 8091 calls,   1258.616941 s total
PROFILER:                          Y1^Y2     0.163611 +/-     0.052718 s, 5172 calls,    846.195036 s total

MEMUSAGE:                   ColumnBundle     0.350896 GB
MEMUSAGE:        complexScalarFieldTilde     0.008583 GB
MEMUSAGE:                    IndexArrays     0.010883 GB
MEMUSAGE:                         matrix     0.016591 GB
MEMUSAGE:                           misc     0.005771 GB
MEMUSAGE:                    ScalarField     0.041485 GB
MEMUSAGE:               ScalarFieldTilde     0.030341 GB
MEMUSAGE:                          Total     0.402597 GB
