
*************** JDFTx 1.6.0  ***************

Start date and time: Mon Dec  6 16:45:37 2021
Executable /projects/musgravc/apps/jdftx-1.6.1/build/jdftx with command-line: -i in
Running on hosts (process indices):  shas0858.rc.int.colorado.edu (0-23)
Divided in process groups (process indices):  0 (0)  1 (1)  2 (2)  3 (3)  4 (4)  5 (5)  6 (6)  7 (7)  8 (8)  9 (9)  10 (10)  11 (11)  12 (12)  13 (13)  14 (14)  15 (15)  16 (16)  17 (17)  18 (18)  19 (19)  20 (20)  21 (21)  22 (22)  23 (23)
Resource initialization completed at t[s]:      0.00
Run totals: 24 processes, 24 threads, 0 GPUs


Input parsed successfully to the following command list (including defaults):

basis kpoint-dependent
converge-empty-states yes
coords-type Cartesian
core-overlap-check none
coulomb-interaction Periodic
davidson-band-ratio 1.1
density-of-states Etol 1.000000e-06 Esigma 1.000000e-03 \
		Complete \
	Total \
	OrthoOrbital Pt 1   s \
	OrthoOrbital Pt 1   p \
	OrthoOrbital Pt 1   px \
	OrthoOrbital Pt 1   py \
	OrthoOrbital Pt 1   pz \
	OrthoOrbital Pt 1   d \
	OrthoOrbital Pt 1   dxy \
	OrthoOrbital Pt 1   dyz \
	OrthoOrbital Pt 1   dz2 \
	OrthoOrbital Pt 1   dxz \
	OrthoOrbital Pt 1   dx2-y2 \
	OrthoOrbital Pt 2   s \
	OrthoOrbital Pt 2   p \
	OrthoOrbital Pt 2   px \
	OrthoOrbital Pt 2   py \
	OrthoOrbital Pt 2   pz \
	OrthoOrbital Pt 2   d \
	OrthoOrbital Pt 2   dxy \
	OrthoOrbital Pt 2   dyz \
	OrthoOrbital Pt 2   dz2 \
	OrthoOrbital Pt 2   dxz \
	OrthoOrbital Pt 2   dx2-y2 \
	OrthoOrbital Pt 3   s \
	OrthoOrbital Pt 3   p \
	OrthoOrbital Pt 3   px \
	OrthoOrbital Pt 3   py \
	OrthoOrbital Pt 3   pz \
	OrthoOrbital Pt 3   d \
	OrthoOrbital Pt 3   dxy \
	OrthoOrbital Pt 3   dyz \
	OrthoOrbital Pt 3   dz2 \
	OrthoOrbital Pt 3   dxz \
	OrthoOrbital Pt 3   dx2-y2 \
	OrthoOrbital Pt 4   s \
	OrthoOrbital Pt 4   p \
	OrthoOrbital Pt 4   px \
	OrthoOrbital Pt 4   py \
	OrthoOrbital Pt 4   pz \
	OrthoOrbital Pt 4   d \
	OrthoOrbital Pt 4   dxy \
	OrthoOrbital Pt 4   dyz \
	OrthoOrbital Pt 4   dz2 \
	OrthoOrbital Pt 4   dxz \
	OrthoOrbital Pt 4   dx2-y2 \
	OrthoOrbital Pt 5   s \
	OrthoOrbital Pt 5   p \
	OrthoOrbital Pt 5   px \
	OrthoOrbital Pt 5   py \
	OrthoOrbital Pt 5   pz \
	OrthoOrbital Pt 5   d \
	OrthoOrbital Pt 5   dxy \
	OrthoOrbital Pt 5   dyz \
	OrthoOrbital Pt 5   dz2 \
	OrthoOrbital Pt 5   dxz \
	OrthoOrbital Pt 5   dx2-y2 \
	OrthoOrbital Pt 6   s \
	OrthoOrbital Pt 6   p \
	OrthoOrbital Pt 6   px \
	OrthoOrbital Pt 6   py \
	OrthoOrbital Pt 6   pz \
	OrthoOrbital Pt 6   d \
	OrthoOrbital Pt 6   dxy \
	OrthoOrbital Pt 6   dyz \
	OrthoOrbital Pt 6   dz2 \
	OrthoOrbital Pt 6   dxz \
	OrthoOrbital Pt 6   dx2-y2 \
	OrthoOrbital Pt 7   s \
	OrthoOrbital Pt 7   p \
	OrthoOrbital Pt 7   px \
	OrthoOrbital Pt 7   py \
	OrthoOrbital Pt 7   pz \
	OrthoOrbital Pt 7   d \
	OrthoOrbital Pt 7   dxy \
	OrthoOrbital Pt 7   dyz \
	OrthoOrbital Pt 7   dz2 \
	OrthoOrbital Pt 7   dxz \
	OrthoOrbital Pt 7   dx2-y2 \
	OrthoOrbital Pt 8   s \
	OrthoOrbital Pt 8   p \
	OrthoOrbital Pt 8   px \
	OrthoOrbital Pt 8   py \
	OrthoOrbital Pt 8   pz \
	OrthoOrbital Pt 8   d \
	OrthoOrbital Pt 8   dxy \
	OrthoOrbital Pt 8   dyz \
	OrthoOrbital Pt 8   dz2 \
	OrthoOrbital Pt 8   dxz \
	OrthoOrbital Pt 8   dx2-y2 \
	OrthoOrbital Pt 9   s \
	OrthoOrbital Pt 9   p \
	OrthoOrbital Pt 9   px \
	OrthoOrbital Pt 9   py \
	OrthoOrbital Pt 9   pz \
	OrthoOrbital Pt 9   d \
	OrthoOrbital Pt 9   dxy \
	OrthoOrbital Pt 9   dyz \
	OrthoOrbital Pt 9   dz2 \
	OrthoOrbital Pt 9   dxz \
	OrthoOrbital Pt 9   dx2-y2 \
	OrthoOrbital Pt 10   s \
	OrthoOrbital Pt 10   p \
	OrthoOrbital Pt 10   px \
	OrthoOrbital Pt 10   py \
	OrthoOrbital Pt 10   pz \
	OrthoOrbital Pt 10   d \
	OrthoOrbital Pt 10   dxy \
	OrthoOrbital Pt 10   dyz \
	OrthoOrbital Pt 10   dz2 \
	OrthoOrbital Pt 10   dxz \
	OrthoOrbital Pt 10   dx2-y2 \
	OrthoOrbital Pt 11   s \
	OrthoOrbital Pt 11   p \
	OrthoOrbital Pt 11   px \
	OrthoOrbital Pt 11   py \
	OrthoOrbital Pt 11   pz \
	OrthoOrbital Pt 11   d \
	OrthoOrbital Pt 11   dxy \
	OrthoOrbital Pt 11   dyz \
	OrthoOrbital Pt 11   dz2 \
	OrthoOrbital Pt 11   dxz \
	OrthoOrbital Pt 11   dx2-y2 \
	OrthoOrbital Pt 12   s \
	OrthoOrbital Pt 12   p \
	OrthoOrbital Pt 12   px \
	OrthoOrbital Pt 12   py \
	OrthoOrbital Pt 12   pz \
	OrthoOrbital Pt 12   d \
	OrthoOrbital Pt 12   dxy \
	OrthoOrbital Pt 12   dyz \
	OrthoOrbital Pt 12   dz2 \
	OrthoOrbital Pt 12   dxz \
	OrthoOrbital Pt 12   dx2-y2 \
	OrthoOrbital Pt 13   s \
	OrthoOrbital Pt 13   p \
	OrthoOrbital Pt 13   px \
	OrthoOrbital Pt 13   py \
	OrthoOrbital Pt 13   pz \
	OrthoOrbital Pt 13   d \
	OrthoOrbital Pt 13   dxy \
	OrthoOrbital Pt 13   dyz \
	OrthoOrbital Pt 13   dz2 \
	OrthoOrbital Pt 13   dxz \
	OrthoOrbital Pt 13   dx2-y2 \
	OrthoOrbital Pt 14   s \
	OrthoOrbital Pt 14   p \
	OrthoOrbital Pt 14   px \
	OrthoOrbital Pt 14   py \
	OrthoOrbital Pt 14   pz \
	OrthoOrbital Pt 14   d \
	OrthoOrbital Pt 14   dxy \
	OrthoOrbital Pt 14   dyz \
	OrthoOrbital Pt 14   dz2 \
	OrthoOrbital Pt 14   dxz \
	OrthoOrbital Pt 14   dx2-y2 \
	OrthoOrbital Pt 15   s \
	OrthoOrbital Pt 15   p \
	OrthoOrbital Pt 15   px \
	OrthoOrbital Pt 15   py \
	OrthoOrbital Pt 15   pz \
	OrthoOrbital Pt 15   d \
	OrthoOrbital Pt 15   dxy \
	OrthoOrbital Pt 15   dyz \
	OrthoOrbital Pt 15   dz2 \
	OrthoOrbital Pt 15   dxz \
	OrthoOrbital Pt 15   dx2-y2 \
	OrthoOrbital Pt 16   s \
	OrthoOrbital Pt 16   p \
	OrthoOrbital Pt 16   px \
	OrthoOrbital Pt 16   py \
	OrthoOrbital Pt 16   pz \
	OrthoOrbital Pt 16   d \
	OrthoOrbital Pt 16   dxy \
	OrthoOrbital Pt 16   dyz \
	OrthoOrbital Pt 16   dz2 \
	OrthoOrbital Pt 16   dxz \
	OrthoOrbital Pt 16   dx2-y2 \
	OrthoOrbital Pt 17   s \
	OrthoOrbital Pt 17   p \
	OrthoOrbital Pt 17   px \
	OrthoOrbital Pt 17   py \
	OrthoOrbital Pt 17   pz \
	OrthoOrbital Pt 17   d \
	OrthoOrbital Pt 17   dxy \
	OrthoOrbital Pt 17   dyz \
	OrthoOrbital Pt 17   dz2 \
	OrthoOrbital Pt 17   dxz \
	OrthoOrbital Pt 17   dx2-y2 \
	OrthoOrbital Pt 18   s \
	OrthoOrbital Pt 18   p \
	OrthoOrbital Pt 18   px \
	OrthoOrbital Pt 18   py \
	OrthoOrbital Pt 18   pz \
	OrthoOrbital Pt 18   d \
	OrthoOrbital Pt 18   dxy \
	OrthoOrbital Pt 18   dyz \
	OrthoOrbital Pt 18   dz2 \
	OrthoOrbital Pt 18   dxz \
	OrthoOrbital Pt 18   dx2-y2
dump End ElecDensity KEdensity BandEigs EigStats RhoAtom DOS Kpoints
dump Ionic State IonicPositions Lattice EigStats Ecomponents
dump 
dump 
dump 
dump 
dump 
dump 
dump 
dump 
dump-name jdft.$VAR
elec-cutoff 20
elec-eigen-algo Davidson
elec-ex-corr gga-PBE
elec-initial-magnetization 0.000000 no
elec-n-bands 173
elec-smearing Fermi 0.001
electronic-minimize  \
	dirUpdateScheme      FletcherReeves \
	linminMethod         DirUpdateRecommended \
	nIterations          100 \
	history              15 \
	knormThreshold       0 \
	energyDiffThreshold  1e-07 \
	nEnergyDiff          2 \
	alphaTstart          1 \
	alphaTmin            1e-10 \
	updateTestStepSize   yes \
	alphaTreduceFactor   0.1 \
	alphaTincreaseFactor 3 \
	nAlphaAdjustMax      3 \
	wolfeEnergy          0.0001 \
	wolfeGradient        0.9 \
	fdTest               no
exchange-regularization WignerSeitzTruncated
fluid LinearPCM 298.000000 1.013250
fluid-anion F- 0.5 MeanFieldLJ \
	epsBulk 1 \
	pMol 0 \
	epsInf 1 \
	Pvap 0 \
	sigmaBulk 0 \
	Rvdw 2.24877 \
	Res 0 \
	tauNuc 343133
fluid-cation Na+ 0.5 MeanFieldLJ \
	epsBulk 1 \
	pMol 0 \
	epsInf 1 \
	Pvap 0 \
	sigmaBulk 0 \
	Rvdw 2.19208 \
	Res 0 \
	tauNuc 343133
fluid-ex-corr lda-TF lda-PZ
fluid-gummel-loop 10 1.000000e-05
fluid-minimize  \
	dirUpdateScheme      PolakRibiere \
	linminMethod         DirUpdateRecommended \
	nIterations          400 \
	history              15 \
	knormThreshold       1e-11 \
	energyDiffThreshold  0 \
	nEnergyDiff          2 \
	alphaTstart          1 \
	alphaTmin            1e-10 \
	updateTestStepSize   yes \
	alphaTreduceFactor   0.1 \
	alphaTincreaseFactor 3 \
	nAlphaAdjustMax      6 \
	wolfeEnergy          0.0001 \
	wolfeGradient        0.9 \
	fdTest               no
fluid-solvent H2O 55.338 ScalarEOS \
	epsBulk 78.4 \
	pMol 0.92466 \
	epsInf 1.77 \
	Pvap 1.06736e-10 \
	sigmaBulk 4.62e-05 \
	Rvdw 2.61727 \
	Res 1.42 \
	tauNuc 343133 \
	poleEl 15 7 1
forces-output-coords Positions
ion Pt   0.000000000000000   6.975987000000000  64.742620999999986 1
ion Pt   0.000000000000000  13.951988999999998  62.276236999999995 1
ion Pt   5.231995999999999   0.000000000000000  45.011551999999995 1
ion Pt   0.000000000000000   5.231990000000000  59.809853999999987 1
ion Pt   0.000000000000000  12.207992000000001  57.343469999999989 1
ion Pt   0.000000000000000   3.487993000000000  54.877085999999991 1
ion Pt   0.000000000000000  10.463996000000000  52.410702999999991 1
ion Pt   5.231995999999999   1.743997000000000  49.944318999999986 1
ion Pt   5.231995999999999   8.719999000000000  47.477935999999993 1
ion Pt   2.615997999999999   9.591989999999999  61.043078999999992 1
ion Pt   2.615997999999999   0.872006000000000  58.576694999999994 1
ion Pt   2.615997999999999   2.616003000000000  63.509462999999982 1
ion Pt   2.615997999999999   7.847993000000000  56.110311999999986 1
ion Pt   2.615997999999999  14.823980000000001  53.643927999999995 1
ion Pt   2.615997999999999   6.103996000000000  51.177543999999990 1
ion Pt   2.615997999999999  13.079982999999999  48.711093999999996 1
ion Pt   2.615997999999999   4.360000000000000  46.244709999999991 1
ion Pt   2.615997999999999  11.335986000000000  65.975845999999990 1
ion-species /projects/musgravc/apps/jdftx-1.6.0/build/pseudopotentials/GBRV_v1.5/$ID_pbe_v1.uspp
ion-species /projects/musgravc/apps/jdftx-1.6.0/build/pseudopotentials/GBRV_v1.5/$ID_pbe_v1.2.uspp
ion-species /projects/musgravc/apps/jdftx-1.6.0/build/pseudopotentials/GBRV_v1.5/$ID_pbe_v1.4.uspp
ion-species /projects/musgravc/apps/jdftx-1.6.0/build/pseudopotentials/GBRV_v1.5/$ID_pbe_v1.5.uspp
ion-width Ecut
ionic-minimize  \
	dirUpdateScheme      L-BFGS \
	linminMethod         DirUpdateRecommended \
	nIterations          100 \
	history              15 \
	knormThreshold       0.0001 \
	energyDiffThreshold  1e-06 \
	nEnergyDiff          2 \
	alphaTstart          1 \
	alphaTmin            1e-10 \
	updateTestStepSize   yes \
	alphaTreduceFactor   0.1 \
	alphaTincreaseFactor 3 \
	nAlphaAdjustMax      3 \
	wolfeEnergy          0.0001 \
	wolfeGradient        0.9 \
	fdTest               no
kpoint   0.000000000000   0.000000000000   0.000000000000  1.00000000000000
kpoint-folding 12 4 1 
latt-move-scale 0 0 0
latt-scale 1 1 1 
lattice  \
	   5.231996000000000    0.000000000000000    0.000000000000000  \
	   0.000000000000000   15.695986000000000    0.000000000000000  \
	   0.000000000000000    0.000000000000000   66.592426000000003 
lattice-minimize  \
	dirUpdateScheme      L-BFGS \
	linminMethod         DirUpdateRecommended \
	nIterations          0 \
	history              15 \
	knormThreshold       0 \
	energyDiffThreshold  1e-06 \
	nEnergyDiff          2 \
	alphaTstart          1 \
	alphaTmin            1e-10 \
	updateTestStepSize   yes \
	alphaTreduceFactor   0.1 \
	alphaTincreaseFactor 3 \
	nAlphaAdjustMax      3 \
	wolfeEnergy          0.0001 \
	wolfeGradient        0.9 \
	fdTest               no
lcao-params 30 1e-06 0.001
pcm-variant CANDLE
spintype z-spin
subspace-rotation-factor 1 yes
symmetries none
symmetry-threshold 0.0001
target-mu -0.1713 no

van-der-waals D3


Applied RMS atom displacement 0 bohrs to make symmetries exact.

---------- Initializing the Grid ----------
R = 
[        5.232            0            0  ]
[            0       15.696            0  ]
[            0            0      66.5924  ]
unit cell volume = 5468.66
G =
[    1.20092          0          0  ]
[          0   0.400305          0  ]
[          0          0  0.0943529  ]
Minimum fftbox size, Smin = [  24  64  272  ]
Chosen fftbox size, S = [  24  64  280  ]

---------- Exchange Correlation functional ----------
Initalized PBE GGA exchange.
Initalized PBE GGA correlation.

---------- Setting up pseudopotentials ----------
Width of ionic core gaussian charges (only for fluid interactions / plotting) set to 0.397384

Reading pseudopotential file '/projects/musgravc/apps/jdftx-1.6.0/build/pseudopotentials/GBRV_v1.5/pt_pbe_v1.4.uspp':
  Title: Pt.  Created by USPP 7.3.6 on 31-3-15
  Reference state energy: -105.002503.  16 valence electrons in orbitals:
    |510>  occupation: 6  eigenvalue: -2.158104
    |520>  occupation: 9.5  eigenvalue: -0.335376
    |600>  occupation: 0  eigenvalue: -0.319640
    |610>  occupation: 0  eigenvalue: -0.122947
  lMax: 2  lLocal: 3  QijEcut: 5.5
  6 projectors sampled on a log grid with 745 points:
    l: 0  eig: -0.319640  rCut: 2.45
    l: 0  eig: 1.500000  rCut: 2.45
    l: 1  eig: -2.158104  rCut: 1.6
    l: 1  eig: -0.122947  rCut: 1.6
    l: 2  eig: -0.500000  rCut: 1.6
    l: 2  eig: -0.335375  rCut: 1.6
  Partial core density with radius 1.1
  Transforming core density to a uniform radial grid of dG=0.02 with 1174 points.
  Transforming local potential to a uniform radial grid of dG=0.02 with 1174 points.
  Transforming nonlocal projectors to a uniform radial grid of dG=0.02 with 432 points.
  Transforming density augmentations to a uniform radial grid of dG=0.02 with 1174 points.
  Transforming atomic orbitals to a uniform radial grid of dG=0.02 with 432 points.
  Core radius for overlap checks: 2.45 bohrs.

Initialized 1 species with 18 total atoms.

Folded 1 k-points by 12x4x1 to 48 k-points.

---------- Setting up k-points, bands, fillings ----------
No reducable k-points. 
Computing the number of bands and number of electrons
Calculating initial fillings.
nElectrons: 288.000000   nBands: 173   nStates: 96

----- Setting up reduced wavefunction bases (one per k-point) -----
average nbasis = 23357.729 , ideal nbasis = 23362.528

----- Initializing Supercell corresponding to k-point mesh -----
Lattice vector linear combinations in supercell:
[  12   0   0  ]
[   0   4   0  ]
[   0   0   1  ]
Supercell lattice vectors:
[  62.784  0  0  ]
[  0  62.7839  0  ]
[  0  0  66.5924  ]

Initializing DFT-D3 calculator:
	Parameters set for gga-PBE functional
	s6:  1.000  s_r6:  1.217
	s8:  0.722  s_r8:  1.000
	Per-atom parameters loaded for:
	Pt:  sqrtQ[a0]:  5.888  Rcov[a0]:  2.116  CN: [ 0.00 1.92 6.67 ]

Initializing DFT-D2 calculator for fluid / solvation:
	Pt:  C6:  815.23 Eh-a0^6  R0: 3.326 a0 (WARNING: beyond Grimme's data set)

---------- Setting up ewald sum ----------
Optimum gaussian width for ewald sums = 4.341685 bohr.
Real space sum over 855 unit cells with max indices [  9  4  2  ]
Reciprocal space sum over 5355 terms with max indices [  3  7  25  ]

Computing DFT-D3 correction:
# coordination-number Pt 7.126 8.720 5.563 9.550 9.559 9.560 9.554 9.544 7.157 9.544 9.554 7.157 9.560 9.559 9.550 8.720 7.126 5.562
# diagonal-C6 Pt 336.87 336.87 336.87 336.87 336.87 336.87 336.87 336.87 336.87 336.87 336.87 336.87 336.87 336.87 336.87 336.87 336.87 336.87
EvdW_6 =   -0.152132
EvdW_8 =   -0.247826

---------- Allocating electronic variables ----------
Initializing wave functions:  linear combination of atomic orbitals
Pt pseudo-atom occupations:   s ( 0 )  p ( 6 0 )  d ( 10 )
	FillingsUpdate:  mu: -0.171300000  nElectrons: 288.000000  magneticMoment: [ Abs: 0.00165  Tot: -0.00009 ]
LCAOMinimize: Iter:   0  G: -1543.7657598607022464  |grad|_K:  1.085e-02  alpha:  1.000e+00
LCAOMinimize: 	Step increased G by 1.878930e+02, reducing alpha to 2.063114e-02.
	FillingsUpdate:  mu: -0.171300000  nElectrons: 288.000000  magneticMoment: [ Abs: 0.00144  Tot: +0.00002 ]
LCAOMinimize: Iter:   1  G: -1549.7947813794537524  |grad|_K:  2.510e-03  alpha:  2.063e-02  linmin:  8.567e-02  cgtest: -3.605e-01  t[s]:    159.36
LCAOMinimize: 	Predicted alpha/alphaT>3.000000, increasing alphaT to 6.189342e-02.
	FillingsUpdate:  mu: -0.171300000  nElectrons: 288.000000  magneticMoment: [ Abs: 0.00116  Tot: -0.00007 ]
LCAOMinimize: Iter:   2  G: -1550.6563670542559521  |grad|_K:  3.318e-03  alpha:  8.524e-02  linmin:  2.632e-03  cgtest:  5.489e-01  t[s]:    220.89
	FillingsUpdate:  mu: -0.171300000  nElectrons: 288.000000  magneticMoment: [ Abs: 0.00110  Tot: -0.00005 ]
LCAOMinimize: Iter:   3  G: -1551.0878262546107180  |grad|_K:  1.603e-03  alpha:  2.268e-02  linmin:  4.273e-02  cgtest: -3.791e-01  t[s]:    270.09
LCAOMinimize: 	Predicted alpha/alphaT>3.000000, increasing alphaT to 6.804099e-02.
	FillingsUpdate:  mu: -0.171300000  nElectrons: 288.000000  magneticMoment: [ Abs: 0.00092  Tot: +0.00005 ]
LCAOMinimize: Iter:   4  G: -1551.5309867861426483  |grad|_K:  2.144e-03  alpha:  1.019e-01  linmin: -1.170e-03  cgtest:  3.918e-01  t[s]:    331.76
	FillingsUpdate:  mu: -0.171300000  nElectrons: 288.000000  magneticMoment: [ Abs: 0.00090  Tot: +0.00006 ]
LCAOMinimize: Iter:   5  G: -1551.6082612645604968  |grad|_K:  1.255e-03  alpha:  7.546e-03  linmin:  6.718e-03  cgtest: -1.437e-01  t[s]:    381.82
	FillingsUpdate:  mu: -0.171300000  nElectrons: 288.000000  magneticMoment: [ Abs: 0.00088  Tot: +0.00009 ]
LCAOMinimize: Iter:   6  G: -1551.6575173960768552  |grad|_K:  6.462e-04  alpha:  1.496e-02  linmin:  4.391e-03  cgtest:  2.553e-01  t[s]:    431.30
	FillingsUpdate:  mu: -0.171300000  nElectrons: 288.000000  magneticMoment: [ Abs: 0.00087  Tot: +0.00009 ]
LCAOMinimize: Iter:   7  G: -1551.6751708716826670  |grad|_K:  9.888e-04  alpha:  1.887e-02  linmin: -6.482e-04  cgtest:  1.351e-02  t[s]:    480.63
	FillingsUpdate:  mu: -0.171300000  nElectrons: 288.000000  magneticMoment: [ Abs: 0.00085  Tot: +0.00008 ]
LCAOMinimize: Iter:   8  G: -1551.7114907969244086  |grad|_K:  5.506e-04  alpha:  1.637e-02  linmin: -1.439e-03  cgtest: -1.267e-01  t[s]:    529.89
	FillingsUpdate:  mu: -0.171300000  nElectrons: 288.000000  magneticMoment: [ Abs: 0.00082  Tot: +0.00008 ]
LCAOMinimize: Iter:   9  G: -1551.7430537295185786  |grad|_K:  4.856e-04  alpha:  4.626e-02  linmin:  2.811e-03  cgtest: -5.286e-02  t[s]:    579.06
	FillingsUpdate:  mu: -0.171300000  nElectrons: 288.000000  magneticMoment: [ Abs: 0.00080  Tot: +0.00008 ]
LCAOMinimize: Iter:  10  G: -1551.7536690884987820  |grad|_K:  8.221e-04  alpha:  2.054e-02  linmin: -1.701e-04  cgtest:  3.691e-02  t[s]:    628.11
	FillingsUpdate:  mu: -0.171300000  nElectrons: 288.000000  magneticMoment: [ Abs: 0.00076  Tot: +0.00009 ]
LCAOMinimize: Iter:  11  G: -1551.7937819423750625  |grad|_K:  4.297e-04  alpha:  2.619e-02  linmin:  4.706e-04  cgtest: -2.645e-01  t[s]:    677.16
	FillingsUpdate:  mu: -0.171300000  nElectrons: 288.000000  magneticMoment: [ Abs: 0.00075  Tot: +0.00012 ]
LCAOMinimize: Iter:  12  G: -1551.8056515433358982  |grad|_K:  4.243e-04  alpha:  2.880e-02  linmin:  9.352e-05  cgtest:  3.630e-02  t[s]:    726.90
	FillingsUpdate:  mu: -0.171300000  nElectrons: 288.000000  magneticMoment: [ Abs: 0.00075  Tot: +0.00013 ]
LCAOMinimize: Iter:  13  G: -1551.8086799600498580  |grad|_K:  2.500e-04  alpha:  7.328e-03  linmin: -1.140e-03  cgtest:  2.312e-02  t[s]:    776.38
LCAOMinimize: 	Predicted alpha/alphaT>3.000000, increasing alphaT to 2.198413e-02.
	FillingsUpdate:  mu: -0.171300000  nElectrons: 288.000000  magneticMoment: [ Abs: 0.00075  Tot: +0.00016 ]
LCAOMinimize: Iter:  14  G: -1551.8141493741049999  |grad|_K:  1.681e-04  alpha:  3.804e-02  linmin: -1.257e-04  cgtest: -6.070e-02  t[s]:    838.35
	FillingsUpdate:  mu: -0.171300000  nElectrons: 288.000000  magneticMoment: [ Abs: 0.00075  Tot: +0.00016 ]
LCAOMinimize: Iter:  15  G: -1551.8147055466106394  |grad|_K:  1.411e-04  alpha:  8.715e-03  linmin: -5.843e-05  cgtest: -8.883e-05  t[s]:    887.59
LCAOMinimize: 	Predicted alpha/alphaT>3.000000, increasing alphaT to 2.614518e-02.
	FillingsUpdate:  mu: -0.171300000  nElectrons: 288.000000  magneticMoment: [ Abs: 0.00076  Tot: +0.00017 ]
LCAOMinimize: Iter:  16  G: -1551.8160862146883119  |grad|_K:  6.916e-05  alpha:  3.056e-02  linmin: -2.534e-03  cgtest:  9.609e-03  t[s]:    949.37
	FillingsUpdate:  mu: -0.171300000  nElectrons: 288.000000  magneticMoment: [ Abs: 0.00076  Tot: +0.00017 ]
LCAOMinimize: Iter:  17  G: -1551.8162306743336103  |grad|_K:  7.929e-05  alpha:  1.337e-02  linmin: -1.436e-03  cgtest:  4.040e-04  t[s]:    998.71
	FillingsUpdate:  mu: -0.171300000  nElectrons: 288.000000  magneticMoment: [ Abs: 0.00076  Tot: +0.00018 ]
LCAOMinimize: Iter:  18  G: -1551.8164640827719722  |grad|_K:  4.903e-05  alpha:  1.606e-02  linmin: -7.245e-03  cgtest:  5.648e-02  t[s]:   1047.95
	FillingsUpdate:  mu: -0.171300000  nElectrons: 288.000000  magneticMoment: [ Abs: 0.00076  Tot: +0.00019 ]
LCAOMinimize: Iter:  19  G: -1551.8166960555774949  |grad|_K:  6.061e-05  alpha:  3.833e-02  linmin: -8.296e-03  cgtest:  4.018e-02  t[s]:   1097.11
	FillingsUpdate:  mu: -0.171300000  nElectrons: 288.000000  magneticMoment: [ Abs: 0.00076  Tot: +0.00019 ]
LCAOMinimize: Iter:  20  G: -1551.8167931504074204  |grad|_K:  6.086e-05  alpha:  1.074e-02  linmin: -6.900e-04  cgtest: -1.295e-01  t[s]:   1146.23
LCAOMinimize: 	Predicted alpha/alphaT>3.000000, increasing alphaT to 3.221274e-02.
	FillingsUpdate:  mu: -0.171300000  nElectrons: 288.000000  magneticMoment: [ Abs: 0.00077  Tot: +0.00021 ]
LCAOMinimize: Iter:  21  G: -1551.8171155173033640  |grad|_K:  4.230e-05  alpha:  3.780e-02  linmin: -2.325e-03  cgtest:  6.850e-01  t[s]:   1207.85
	FillingsUpdate:  mu: -0.171300000  nElectrons: 288.000000  magneticMoment: [ Abs: 0.00077  Tot: +0.00021 ]
LCAOMinimize: Iter:  22  G: -1551.8171816044000479  |grad|_K:  6.141e-05  alpha:  1.605e-02  linmin:  1.260e-03  cgtest: -9.113e-03  t[s]:   1257.12
	FillingsUpdate:  mu: -0.171300000  nElectrons: 288.000000  magneticMoment: [ Abs: 0.00077  Tot: +0.00022 ]
LCAOMinimize: Iter:  23  G: -1551.8173438279034144  |grad|_K:  2.266e-05  alpha:  1.947e-02  linmin:  1.291e-02  cgtest: -2.063e-02  t[s]:   1307.04
	FillingsUpdate:  mu: -0.171300000  nElectrons: 288.000000  magneticMoment: [ Abs: 0.00078  Tot: +0.00022 ]
LCAOMinimize: Iter:  24  G: -1551.8173924313580301  |grad|_K:  2.615e-05  alpha:  4.693e-02  linmin:  8.571e-03  cgtest: -2.067e-02  t[s]:   1356.14
	FillingsUpdate:  mu: -0.171300000  nElectrons: 288.000000  magneticMoment: [ Abs: 0.00078  Tot: +0.00023 ]
LCAOMinimize: Iter:  25  G: -1551.8174404532944664  |grad|_K:  3.976e-05  alpha:  3.402e-02  linmin:  6.487e-04  cgtest:  7.536e-02  t[s]:   1405.34
	FillingsUpdate:  mu: -0.171300000  nElectrons: 288.000000  magneticMoment: [ Abs: 0.00079  Tot: +0.00023 ]
LCAOMinimize: Iter:  26  G: -1551.8174664025373204  |grad|_K:  1.577e-05  alpha:  7.294e-03  linmin:  3.069e-04  cgtest: -5.156e-02  t[s]:   1454.36
LCAOMinimize: 	Predicted alpha/alphaT>3.000000, increasing alphaT to 2.188305e-02.
LCAOMinimize: 	Predicted alpha/alphaT>3.000000, increasing alphaT to 6.564915e-02.
	FillingsUpdate:  mu: -0.171300000  nElectrons: 288.000000  magneticMoment: [ Abs: 0.00079  Tot: +0.00025 ]
LCAOMinimize: Iter:  27  G: -1551.8175093492257020  |grad|_K:  2.334e-05  alpha:  7.623e-02  linmin: -1.437e-03  cgtest:  5.739e-03  t[s]:   1528.68
	FillingsUpdate:  mu: -0.171300000  nElectrons: 288.000000  magneticMoment: [ Abs: 0.00080  Tot: +0.00025 ]
LCAOMinimize: Iter:  28  G: -1551.8175248886213922  |grad|_K:  2.396e-05  alpha:  1.218e-02  linmin:  4.049e-05  cgtest: -4.682e-02  t[s]:   1577.84
	FillingsUpdate:  mu: -0.171300000  nElectrons: 288.000000  magneticMoment: [ Abs: 0.00080  Tot: +0.00026 ]
LCAOMinimize: Iter:  29  G: -1551.8175442753044990  |grad|_K:  1.457e-05  alpha:  1.513e-02  linmin:  3.354e-03  cgtest: -8.213e-03  t[s]:   1627.85
LCAOMinimize: 	Predicted alpha/alphaT>3.000000, increasing alphaT to 4.539138e-02.
	FillingsUpdate:  mu: -0.171300000  nElectrons: 288.000000  magneticMoment: [ Abs: 0.00082  Tot: +0.00028 ]
LCAOMinimize: Iter:  30  G: -1551.8175695580953288  |grad|_K:  6.812e-06  alpha:  5.910e-02  linmin:  2.428e-02  cgtest: -1.709e-01  t[s]:   1689.53
LCAOMinimize: None of the convergence criteria satisfied after 30 iterations.
----- createFluidSolver() ----- (Fluid-side solver setup)
   Initializing fluid molecule 'H2O'
     Initializing site 'O'
       Electron density: proportional to exp(-r/0.36935)*erfc((r-0.51523)/0.36823) with norm 6.826
       Charge density: gaussian nuclear width 0.478731 with net site charge 0.826
       Polarizability: cuspless exponential with width 0.32 and norm 3.73
       Hard sphere radius: 2.57003 bohrs
       Positions in reference frame:
         [ +0.000000 +0.000000 +0.000000 ]
     Initializing site 'H'
       Electron density: proportional to exp(-r/0.34641)*erfc((r-0)/0.390882) with norm 0.587
       Charge density: gaussian nuclear width 0.377945 with net site charge -0.413
       Polarizability: cuspless exponential with width 0.39 and norm 3.3
       Positions in reference frame:
         [ +0.000000 -1.441945 +1.122523 ]
         [ +0.000000 +1.441945 +1.122523 ]
     Net charge: 0   dipole magnitude: 0.927204
     Initializing spherical shell mfKernel with radius 2.61727 Bohr
     deltaS corrections:
       site 'O': -7.54299
       site 'H': -6.83917
   Initializing fluid molecule 'Na+'
     Initializing site 'Na'
       Electron density: proportional to exp(-r/0.19682)*erfc((r-0.71491)/0.41314) with norm 8.1383
       Charge density: gaussian nuclear width 0.365347 with net site charge -1
       Hard sphere radius: 1.86327 bohrs
       Positions in reference frame:
         [ +0.000000 +0.000000 +0.000000 ]
     Net charge: -1   dipole magnitude: 0
     Initializing gaussian mfKernel with width: 1.55004 Bohr
     deltaS corrections:
       site 'Na': -22.3555
   Initializing fluid molecule 'F-'
     Initializing site 'F'
       Electron density: proportional to exp(-r/0.38886)*erfc((r-0)/0.438782) with norm 8
       Charge density: gaussian nuclear width 0.374796 with net site charge 1
       Hard sphere radius: 2.39995 bohrs
       Positions in reference frame:
         [ +0.000000 +0.000000 +0.000000 ]
     Net charge: 1   dipole magnitude: 0
     Initializing gaussian mfKernel with width: 1.59012 Bohr
     deltaS corrections:
       site 'F': -9.04335

Correction to mu due to finite nuclear width = -0.052253
   Cavity determined by nc: 0.00142 and sigma: 0.707107
   Nonlocal vdW cavity from gaussian model electron density with norm = 8 and sigma = 0.993594 bohr
   Charge asymmetry in cavity with sensitivity pCavity = 36.5 e-bohr/Eh
   Electrostatic cavity expanded by eta = 1.46 bohrs
   Weighted density cavitation model constrained by Nbulk: 0.0049383 bohr^-3, Pvap: 3.14029 kPa, Rvdw: 2.61727 bohr and sigmaBulk: 4.62e-05 Eh/bohr^2 at T: 298 K.
   Weighted density dispersion model using vdW pair potentials with single solvent site with sqrtC6eff: 0.77 SI.


---- Citations for features of the code used in this run ----

   Software package:
      R. Sundararaman, K. Letchworth-Weaver, K.A. Schwarz, D. Gunceler, Y. Ozhabes and T.A. Arias, 'JDFTx: software for joint density-functional theory', SoftwareX 6, 278 (2017)

   gga-PBE exchange-correlation functional:
      J.P. Perdew, K. Burke and M. Ernzerhof, Phys. Rev. Lett. 77, 3865 (1996)

   Pseudopotentials:
      KF Garrity, JW Bennett, KM Rabe and D Vanderbilt, Comput. Mater. Sci. 81, 446 (2014)

   DFT-D3 dispersion correction:
      S. Grimme, J. Antony, S. Ehrlich and H. Krieg, J. Chem. Phys. 132, 154104 (2010)

   DFT-D2 dispersion correction:
      S. Grimme, J. Comput. Chem. 27, 1787 (2006)

   Charge-asymmetric nonlocally-determined local-electric (CANDLE) solvation model:
      R. Sundararaman and W.A. Goddard III, J. Chem. Phys. 142, 064107 (2015)

   Total energy minimization with Auxiliary Hamiltonian:
      C. Freysoldt, S. Boeck, and J. Neugebauer, Phys. Rev. B 79, 241103(R) (2009)

   Grand-canonical (fixed-potential) DFT:
      R. Sundararaman, W. A. Goddard III and T. A. Arias, J. Chem. Phys. 146, 114104 (2017)

   Linear-tetrahedron sampling for density of states:
      G. Lehmann and M. Taut, Phys. status solidi (b) 54, 469 (1972)

This list may not be complete. Please suggest additional citations or
report any other bugs at https://github.com/shankar1729/jdftx/issues

Initialization completed successfully at t[s]:   1700.02


Computing DFT-D3 correction:
# coordination-number Pt 7.126 8.720 5.563 9.550 9.559 9.560 9.554 9.544 7.157 9.544 9.554 7.157 9.560 9.559 9.550 8.720 7.126 5.562
# diagonal-C6 Pt 336.87 336.87 336.87 336.87 336.87 336.87 336.87 336.87 336.87 336.87 336.87 336.87 336.87 336.87 336.87 336.87 336.87 336.87
EvdW_6 =   -0.152132
EvdW_8 =   -0.247826
Fluid solver invoked on fresh (random / LCAO) wavefunctions
Running a vacuum solve first:

-------- Initial electronic minimization -----------
	FillingsUpdate:  mu: +0.128302559  nElectrons: 288.000000  magneticMoment: [ Abs: 0.00082  Tot: +0.00028 ]
ElecMinimize: Iter:   0  G: -1551.821101771216036  |grad|_K:  3.401e-05  alpha:  1.000e+00
	FillingsUpdate:  mu: +0.172398385  nElectrons: 288.000000  magneticMoment: [ Abs: 0.00070  Tot: +0.00031 ]
	SubspaceRotationAdjust: set factor to 0.647
ElecMinimize: Iter:   1  G: -1552.015241225114778  |grad|_K:  3.515e-05  alpha:  4.325e-01  linmin:  1.369e-05  t[s]:   1806.04
	FillingsUpdate:  mu: +0.172373165  nElectrons: 288.000000  magneticMoment: [ Abs: 0.00070  Tot: +0.00032 ]
	SubspaceRotationAdjust: set factor to 0.34
ElecMinimize: Iter:   2  G: -1552.017075340414976  |grad|_K:  3.481e-05  alpha:  9.867e-03  linmin:  2.417e-03  t[s]:   1871.76
ElecMinimize: 	Predicted alpha/alphaT>3.000000, increasing alphaT to 2.960246e-02.
	FillingsUpdate:  mu: +0.176236761  nElectrons: 288.000000  magneticMoment: [ Abs: 0.00068  Tot: +0.00031 ]
	SubspaceRotationAdjust: set factor to 0.193
ElecMinimize: Iter:   3  G: -1552.024022728551245  |grad|_K:  4.563e-05  alpha:  3.729e-02  linmin: -1.093e-05  t[s]:   1955.47
	FillingsUpdate:  mu: +0.135633439  nElectrons: 288.000000  magneticMoment: [ Abs: 0.00064  Tot: +0.00029 ]
	SubspaceRotationAdjust: set factor to 0.109
	SubspaceRotationAdjust: resetting CG because factor has changed by 0.109295
ElecMinimize: 	State modified externally: resetting search direction.
ElecMinimize: Iter:   4  G: -1552.042596611643603  |grad|_K:  1.817e-05  alpha:  2.312e-02
ElecMinimize: 	Predicted alpha/alphaT>3.000000, increasing alphaT to 6.935113e-02.
	FillingsUpdate:  mu: +0.165509938  nElectrons: 288.000000  magneticMoment: [ Abs: 0.00062  Tot: +0.00030 ]
	SubspaceRotationAdjust: set factor to 0.0758
ElecMinimize: Iter:   5  G: -1552.057252795942077  |grad|_K:  1.674e-05  alpha:  1.146e-01  linmin:  5.058e-04  t[s]:   2139.71
	FillingsUpdate:  mu: +0.167184684  nElectrons: 288.000000  magneticMoment: [ Abs: 0.00059  Tot: +0.00029 ]
	SubspaceRotationAdjust: set factor to 0.0469
ElecMinimize: Iter:   6  G: -1552.065875508126055  |grad|_K:  8.350e-06  alpha:  7.959e-02  linmin:  1.765e-05  t[s]:   2205.51
ElecMinimize: 	Predicted alpha/alphaT>3.000000, increasing alphaT to 2.387625e-01.
	FillingsUpdate:  mu: +0.147037529  nElectrons: 288.000000  magneticMoment: [ Abs: 0.00051  Tot: +0.00029 ]
	SubspaceRotationAdjust: set factor to 0.0569
ElecMinimize: Iter:   7  G: -1552.074961934436715  |grad|_K:  6.104e-06  alpha:  3.349e-01  linmin:  1.639e-05  t[s]:   2287.97
	FillingsUpdate:  mu: +0.148411110  nElectrons: 288.000000  magneticMoment: [ Abs: 0.00047  Tot: +0.00028 ]
	SubspaceRotationAdjust: set factor to 0.0441
ElecMinimize: Iter:   8  G: -1552.078482846936367  |grad|_K:  6.605e-06  alpha:  2.431e-01  linmin: -7.053e-06  t[s]:   2353.67
	FillingsUpdate:  mu: +0.145095318  nElectrons: 288.000000  magneticMoment: [ Abs: 0.00043  Tot: +0.00028 ]
	SubspaceRotationAdjust: set factor to 0.0343
ElecMinimize: Iter:   9  G: -1552.081415147084044  |grad|_K:  2.792e-06  alpha:  1.726e-01  linmin: -2.896e-06  t[s]:   2419.43
	FillingsUpdate:  mu: +0.151462828  nElectrons: 288.000000  magneticMoment: [ Abs: 0.00042  Tot: +0.00028 ]
	SubspaceRotationAdjust: set factor to 0.0347
ElecMinimize: Iter:  10  G: -1552.082385625103598  |grad|_K:  1.628e-06  alpha:  3.196e-01  linmin: -7.450e-06  t[s]:   2486.41
	FillingsUpdate:  mu: +0.148667642  nElectrons: 288.000000  magneticMoment: [ Abs: 0.00042  Tot: +0.00027 ]
	SubspaceRotationAdjust: set factor to 0.037
ElecMinimize: Iter:  11  G: -1552.082908359162730  |grad|_K:  1.518e-06  alpha:  5.064e-01  linmin:  5.934e-06  t[s]:   2552.46
	FillingsUpdate:  mu: +0.147166669  nElectrons: 288.000000  magneticMoment: [ Abs: 0.00042  Tot: +0.00027 ]
	SubspaceRotationAdjust: set factor to 0.0308
ElecMinimize: Iter:  12  G: -1552.083184740069100  |grad|_K:  1.360e-06  alpha:  3.085e-01  linmin:  5.256e-08  t[s]:   2618.12
	FillingsUpdate:  mu: +0.147279179  nElectrons: 288.000000  magneticMoment: [ Abs: 0.00043  Tot: +0.00027 ]
	SubspaceRotationAdjust: set factor to 0.0287
ElecMinimize: Iter:  13  G: -1552.083390663967975  |grad|_K:  9.817e-07  alpha:  2.860e-01  linmin: -9.377e-07  t[s]:   2683.64
	FillingsUpdate:  mu: +0.148088246  nElectrons: 288.000000  magneticMoment: [ Abs: 0.00044  Tot: +0.00026 ]
	SubspaceRotationAdjust: set factor to 0.0346
ElecMinimize: Iter:  14  G: -1552.083572131511573  |grad|_K:  8.849e-07  alpha:  4.836e-01  linmin:  1.139e-06  t[s]:   2749.31
	FillingsUpdate:  mu: +0.146447752  nElectrons: 288.000000  magneticMoment: [ Abs: 0.00045  Tot: +0.00025 ]
	SubspaceRotationAdjust: set factor to 0.0368
ElecMinimize: Iter:  15  G: -1552.083784607294774  |grad|_K:  1.098e-06  alpha:  6.975e-01  linmin:  4.357e-06  t[s]:   2815.52
	FillingsUpdate:  mu: +0.145757508  nElectrons: 288.000000  magneticMoment: [ Abs: 0.00046  Tot: +0.00025 ]
	SubspaceRotationAdjust: set factor to 0.0308
ElecMinimize: Iter:  16  G: -1552.083942560110472  |grad|_K:  1.113e-06  alpha:  3.374e-01  linmin:  1.879e-06  t[s]:   2881.29
	FillingsUpdate:  mu: +0.145694819  nElectrons: 288.000000  magneticMoment: [ Abs: 0.00045  Tot: +0.00024 ]
	SubspaceRotationAdjust: set factor to 0.0277
ElecMinimize: Iter:  17  G: -1552.084107420803548  |grad|_K:  9.535e-07  alpha:  3.421e-01  linmin: -5.989e-07  t[s]:   2947.03
	FillingsUpdate:  mu: +0.144775205  nElectrons: 288.000000  magneticMoment: [ Abs: 0.00043  Tot: +0.00023 ]
	SubspaceRotationAdjust: set factor to 0.0299
ElecMinimize: Iter:  18  G: -1552.084324757160402  |grad|_K:  1.005e-06  alpha:  6.138e-01  linmin:  9.942e-08  t[s]:   3012.56
	FillingsUpdate:  mu: +0.143009959  nElectrons: 288.000000  magneticMoment: [ Abs: 0.00038  Tot: +0.00023 ]
	SubspaceRotationAdjust: set factor to 0.0283
ElecMinimize: Iter:  19  G: -1552.084521540702326  |grad|_K:  9.269e-07  alpha:  5.004e-01  linmin: -1.068e-06  t[s]:   3078.64
	FillingsUpdate:  mu: +0.142573173  nElectrons: 288.000000  magneticMoment: [ Abs: 0.00035  Tot: +0.00022 ]
	SubspaceRotationAdjust: set factor to 0.0217
ElecMinimize: Iter:  20  G: -1552.084620484454263  |grad|_K:  7.228e-07  alpha:  2.960e-01  linmin:  3.119e-08  t[s]:   3145.92
	FillingsUpdate:  mu: +0.142707673  nElectrons: 288.000000  magneticMoment: [ Abs: 0.00032  Tot: +0.00022 ]
	SubspaceRotationAdjust: set factor to 0.0215
ElecMinimize: Iter:  21  G: -1552.084702506445865  |grad|_K:  5.605e-07  alpha:  4.032e-01  linmin: -1.510e-06  t[s]:   3211.62
	FillingsUpdate:  mu: +0.142431901  nElectrons: 288.000000  magneticMoment: [ Abs: 0.00029  Tot: +0.00022 ]
	SubspaceRotationAdjust: set factor to 0.0225
ElecMinimize: Iter:  22  G: -1552.084758998886173  |grad|_K:  4.421e-07  alpha:  4.615e-01  linmin: -6.659e-07  t[s]:   3277.24
	FillingsUpdate:  mu: +0.142276217  nElectrons: 288.000000  magneticMoment: [ Abs: 0.00028  Tot: +0.00021 ]
	SubspaceRotationAdjust: set factor to 0.0196
ElecMinimize: Iter:  23  G: -1552.084785090502464  |grad|_K:  3.157e-07  alpha:  3.428e-01  linmin: -2.817e-07  t[s]:   3342.90
	FillingsUpdate:  mu: +0.142240512  nElectrons: 288.000000  magneticMoment: [ Abs: 0.00027  Tot: +0.00021 ]
	SubspaceRotationAdjust: set factor to 0.02
ElecMinimize: Iter:  24  G: -1552.084800446525605  |grad|_K:  2.431e-07  alpha:  3.957e-01  linmin: -1.926e-07  t[s]:   3409.33
	FillingsUpdate:  mu: +0.142136312  nElectrons: 288.000000  magneticMoment: [ Abs: 0.00027  Tot: +0.00021 ]
	SubspaceRotationAdjust: set factor to 0.0227
ElecMinimize: Iter:  25  G: -1552.084810770263857  |grad|_K:  1.906e-07  alpha:  4.488e-01  linmin: -1.427e-07  t[s]:   3475.28
	FillingsUpdate:  mu: +0.142108239  nElectrons: 288.000000  magneticMoment: [ Abs: 0.00026  Tot: +0.00021 ]
	SubspaceRotationAdjust: set factor to 0.023
ElecMinimize: Iter:  26  G: -1552.084816496759004  |grad|_K:  1.564e-07  alpha:  4.048e-01  linmin: -1.347e-07  t[s]:   3540.92
	FillingsUpdate:  mu: +0.142176397  nElectrons: 288.000000  magneticMoment: [ Abs: 0.00026  Tot: +0.00021 ]
	SubspaceRotationAdjust: set factor to 0.0256
ElecMinimize: Iter:  27  G: -1552.084820468935504  |grad|_K:  1.392e-07  alpha:  4.172e-01  linmin: -4.119e-08  t[s]:   3606.49
	FillingsUpdate:  mu: +0.142244759  nElectrons: 288.000000  magneticMoment: [ Abs: 0.00025  Tot: +0.00021 ]
	SubspaceRotationAdjust: set factor to 0.0307
ElecMinimize: Iter:  28  G: -1552.084825162967263  |grad|_K:  1.452e-07  alpha:  6.225e-01  linmin: -2.324e-07  t[s]:   3672.10
	FillingsUpdate:  mu: +0.142258120  nElectrons: 288.000000  magneticMoment: [ Abs: 0.00025  Tot: +0.00021 ]
	SubspaceRotationAdjust: set factor to 0.0318
ElecMinimize: Iter:  29  G: -1552.084829395898396  |grad|_K:  1.664e-07  alpha:  5.159e-01  linmin: -4.349e-08  t[s]:   3739.21
	FillingsUpdate:  mu: +0.142350075  nElectrons: 288.000000  magneticMoment: [ Abs: 0.00024  Tot: +0.00020 ]
	SubspaceRotationAdjust: set factor to 0.0288
ElecMinimize: Iter:  30  G: -1552.084833821243365  |grad|_K:  1.768e-07  alpha:  4.107e-01  linmin:  2.471e-08  t[s]:   3805.06
	FillingsUpdate:  mu: +0.142543460  nElectrons: 288.000000  magneticMoment: [ Abs: 0.00023  Tot: +0.00020 ]
	SubspaceRotationAdjust: set factor to 0.0289
ElecMinimize: Iter:  31  G: -1552.084840223840047  |grad|_K:  1.842e-07  alpha:  5.259e-01  linmin: -8.865e-08  t[s]:   3870.93
	FillingsUpdate:  mu: +0.142577424  nElectrons: 288.000000  magneticMoment: [ Abs: 0.00022  Tot: +0.00019 ]
	SubspaceRotationAdjust: set factor to 0.0309
ElecMinimize: Iter:  32  G: -1552.084847861391154  |grad|_K:  1.760e-07  alpha:  5.781e-01  linmin:  1.770e-08  t[s]:   3936.45
	FillingsUpdate:  mu: +0.142665697  nElectrons: 288.000000  magneticMoment: [ Abs: 0.00021  Tot: +0.00019 ]
	SubspaceRotationAdjust: set factor to 0.0299
ElecMinimize: Iter:  33  G: -1552.084853912977223  |grad|_K:  1.764e-07  alpha:  5.015e-01  linmin:  1.445e-07  t[s]:   4002.04
	FillingsUpdate:  mu: +0.142846826  nElectrons: 288.000000  magneticMoment: [ Abs: 0.00020  Tot: +0.00018 ]
	SubspaceRotationAdjust: set factor to 0.0244
ElecMinimize: Iter:  34  G: -1552.084858182183780  |grad|_K:  1.570e-07  alpha:  3.525e-01  linmin: -4.068e-08  t[s]:   4067.62
	FillingsUpdate:  mu: +0.142982050  nElectrons: 288.000000  magneticMoment: [ Abs: 0.00020  Tot: +0.00018 ]
	SubspaceRotationAdjust: set factor to 0.0235
ElecMinimize: Iter:  35  G: -1552.084861819374964  |grad|_K:  1.178e-07  alpha:  3.789e-01  linmin:  1.721e-07  t[s]:   4133.44
	FillingsUpdate:  mu: +0.142954364  nElectrons: 288.000000  magneticMoment: [ Abs: 0.00019  Tot: +0.00018 ]
	SubspaceRotationAdjust: set factor to 0.0264
ElecMinimize: Iter:  36  G: -1552.084864134726786  |grad|_K:  8.954e-08  alpha:  4.285e-01  linmin:  7.008e-08  t[s]:   4199.26
	FillingsUpdate:  mu: +0.142979464  nElectrons: 288.000000  magneticMoment: [ Abs: 0.00019  Tot: +0.00018 ]
	SubspaceRotationAdjust: set factor to 0.0264
ElecMinimize: Iter:  37  G: -1552.084865435546135  |grad|_K:  7.693e-08  alpha:  4.167e-01  linmin: -1.227e-07  t[s]:   4264.79
	FillingsUpdate:  mu: +0.143018490  nElectrons: 288.000000  magneticMoment: [ Abs: 0.00019  Tot: +0.00017 ]
	SubspaceRotationAdjust: set factor to 0.0252
ElecMinimize: Iter:  38  G: -1552.084866273287844  |grad|_K:  6.362e-08  alpha:  3.636e-01  linmin:  1.426e-07  t[s]:   4330.71
	FillingsUpdate:  mu: +0.143003840  nElectrons: 288.000000  magneticMoment: [ Abs: 0.00019  Tot: +0.00017 ]
	SubspaceRotationAdjust: set factor to 0.0299
ElecMinimize: Iter:  39  G: -1552.084866956733094  |grad|_K:  4.905e-08  alpha:  4.336e-01  linmin: -4.736e-07  t[s]:   4396.33
	FillingsUpdate:  mu: +0.142974056  nElectrons: 288.000000  magneticMoment: [ Abs: 0.00019  Tot: +0.00017 ]
	SubspaceRotationAdjust: set factor to 0.0344
ElecMinimize: Iter:  40  G: -1552.084867426790424  |grad|_K:  4.701e-08  alpha:  5.019e-01  linmin:  8.405e-07  t[s]:   4462.47
	FillingsUpdate:  mu: +0.142999241  nElectrons: 288.000000  magneticMoment: [ Abs: 0.00018  Tot: +0.00017 ]
	SubspaceRotationAdjust: set factor to 0.0336
ElecMinimize: Iter:  41  G: -1552.084867790380486  |grad|_K:  4.790e-08  alpha:  4.227e-01  linmin:  9.112e-07  t[s]:   4528.37
	FillingsUpdate:  mu: +0.143017302  nElectrons: 288.000000  magneticMoment: [ Abs: 0.00018  Tot: +0.00017 ]
	SubspaceRotationAdjust: set factor to 0.0298
ElecMinimize: Iter:  42  G: -1552.084868079756689  |grad|_K:  4.125e-08  alpha:  3.243e-01  linmin: -2.385e-07  t[s]:   4594.48
	FillingsUpdate:  mu: +0.142985467  nElectrons: 288.000000  magneticMoment: [ Abs: 0.00018  Tot: +0.00017 ]
	SubspaceRotationAdjust: set factor to 0.0317
ElecMinimize: Iter:  43  G: -1552.084868366277078  |grad|_K:  3.388e-08  alpha:  4.326e-01  linmin:  7.271e-08  t[s]:   4660.40
	FillingsUpdate:  mu: +0.142958804  nElectrons: 288.000000  magneticMoment: [ Abs: 0.00018  Tot: +0.00016 ]
	SubspaceRotationAdjust: set factor to 0.0345
ElecMinimize: Iter:  44  G: -1552.084868589568714  |grad|_K:  2.935e-08  alpha:  4.998e-01  linmin:  9.822e-07  t[s]:   4726.12
	FillingsUpdate:  mu: +0.142974619  nElectrons: 288.000000  magneticMoment: [ Abs: 0.00018  Tot: +0.00016 ]
	SubspaceRotationAdjust: set factor to 0.0341
ElecMinimize: Iter:  45  G: -1552.084868734457132  |grad|_K:  2.613e-08  alpha:  4.320e-01  linmin: -8.637e-07  t[s]:   4792.29
	FillingsUpdate:  mu: +0.142973637  nElectrons: 288.000000  magneticMoment: [ Abs: 0.00017  Tot: +0.00016 ]
	SubspaceRotationAdjust: set factor to 0.0288
ElecMinimize: Iter:  46  G: -1552.084868819725671  |grad|_K:  2.312e-08  alpha:  3.207e-01  linmin: -1.143e-06  t[s]:   4858.37
	FillingsUpdate:  mu: +0.142958331  nElectrons: 288.000000  magneticMoment: [ Abs: 0.00017  Tot: +0.00016 ]
	SubspaceRotationAdjust: set factor to 0.0277
ElecMinimize: Iter:  47  G: -1552.084868888571691  |grad|_K:  1.757e-08  alpha:  3.315e-01  linmin:  1.622e-06  t[s]:   4925.62
ElecMinimize: Converged (|Delta G|<1.000000e-07 for 2 iters).
Setting wave functions to eigenvectors of Hamiltonian
Converging empty states (this may take a while): |deigs|: 2.480e-03
Vacuum energy after initial minimize, F = -1552.084868888571691

Shifting auxilliary hamiltonian by -0.314258 to set nElectrons=288.000000

-------- Electronic minimization -----------
	Linear fluid (dielectric constant: 78.4, screening length: 8.12261 Bohr) occupying 0.536993 of unit cell:	Completed after 24 iterations at t[s]:   5178.28
	FillingsUpdate:  mu: -0.171300000  nElectrons: 288.000000  magneticMoment: [ Abs: 0.00015  Tot: +0.00014 ]
ElecMinimize: Iter:   0  G: -1552.089096316404948  |grad|_K:  4.851e-06  alpha:  1.000e+00
	Linear fluid (dielectric constant: 78.4, screening length: 8.12261 Bohr) occupying 0.571547 of unit cell:	Completed after 32 iterations at t[s]:   5235.31
	Linear fluid (dielectric constant: 78.4, screening length: 8.12261 Bohr) occupying 0.537273 of unit cell:	Completed after 25 iterations at t[s]:   5255.50
	FillingsUpdate:  mu: -0.171300000  nElectrons: 288.068127  magneticMoment: [ Abs: 0.00015  Tot: +0.00014 ]
	SubspaceRotationAdjust: set factor to 0.015
ElecMinimize: Iter:   1  G: -1552.089809407188795  |grad|_K:  2.366e-06  alpha:  9.611e-02  linmin:  5.520e-02  t[s]:   5283.49
	Linear fluid (dielectric constant: 78.4, screening length: 8.12261 Bohr) occupying 0.537344 of unit cell:	Completed after 15 iterations at t[s]:   5307.42
ElecMinimize: 	Predicted alpha/alphaT>3.000000, increasing alphaT to 2.883178e-01.
	Linear fluid (dielectric constant: 78.4, screening length: 8.12261 Bohr) occupying 0.537492 of unit cell:	Completed after 18 iterations at t[s]:   5326.67
	Linear fluid (dielectric constant: 78.4, screening length: 8.12261 Bohr) occupying 0.537541 of unit cell:	Completed after 15 iterations at t[s]:   5345.76
	FillingsUpdate:  mu: -0.171300000  nElectrons: 288.080015  magneticMoment: [ Abs: 0.00015  Tot: +0.00014 ]
	SubspaceRotationAdjust: set factor to 0.00883
ElecMinimize: Iter:   2  G: -1552.090434999026911  |grad|_K:  1.480e-06  alpha:  3.494e-01  linmin:  4.667e-05  t[s]:   5373.78
	Linear fluid (dielectric constant: 78.4, screening length: 8.12261 Bohr) occupying 0.538432 of unit cell:	Completed after 15 iterations at t[s]:   5397.82
	Linear fluid (dielectric constant: 78.4, screening length: 8.12261 Bohr) occupying 0.538332 of unit cell:	Completed after 12 iterations at t[s]:   5416.49
	FillingsUpdate:  mu: -0.171300000  nElectrons: 288.124920  magneticMoment: [ Abs: 0.00016  Tot: +0.00014 ]
	SubspaceRotationAdjust: set factor to 0.00471
ElecMinimize: Iter:   3  G: -1552.090706110255269  |grad|_K:  9.731e-07  alpha:  3.183e-01  linmin: -8.402e-04  t[s]:   5444.36
	Linear fluid (dielectric constant: 78.4, screening length: 8.12261 Bohr) occupying 0.538493 of unit cell:	Completed after 15 iterations at t[s]:   5468.30
	Linear fluid (dielectric constant: 78.4, screening length: 8.12261 Bohr) occupying 0.538651 of unit cell:	Completed after 15 iterations at t[s]:   5488.11
	FillingsUpdate:  mu: -0.171300000  nElectrons: 288.135107  magneticMoment: [ Abs: 0.00019  Tot: +0.00014 ]
	SubspaceRotationAdjust: set factor to 0.00356
	SubspaceRotationAdjust: resetting CG because factor has changed by 0.12835
	Linear fluid (dielectric constant: 78.4, screening length: 8.12261 Bohr) occupying 0.538651 of unit cell:	Completed after 0 iterations at t[s]:   5525.19
ElecMinimize: 	State modified externally: resetting search direction.
ElecMinimize: Iter:   4  G: -1552.090937180044648  |grad|_K:  6.510e-07  alpha:  6.242e-01
	Linear fluid (dielectric constant: 78.4, screening length: 8.12261 Bohr) occupying 0.538729 of unit cell:	Completed after 18 iterations at t[s]:   5577.00
	Linear fluid (dielectric constant: 78.4, screening length: 8.12261 Bohr) occupying 0.538696 of unit cell:	Completed after 14 iterations at t[s]:   5595.93
	FillingsUpdate:  mu: -0.171300000  nElectrons: 288.139271  magneticMoment: [ Abs: 0.00020  Tot: +0.00014 ]
	SubspaceRotationAdjust: set factor to 0.00632
ElecMinimize: Iter:   5  G: -1552.090998508526127  |grad|_K:  3.408e-07  alpha:  3.717e-01  linmin:  3.843e-05  t[s]:   5623.90
	Linear fluid (dielectric constant: 78.4, screening length: 8.12261 Bohr) occupying 0.538641 of unit cell:	Completed after 11 iterations at t[s]:   5647.46
	Linear fluid (dielectric constant: 78.4, screening length: 8.12261 Bohr) occupying 0.538569 of unit cell:	Completed after 12 iterations at t[s]:   5666.21
	FillingsUpdate:  mu: -0.171300000  nElectrons: 288.138740  magneticMoment: [ Abs: 0.00022  Tot: +0.00014 ]
	SubspaceRotationAdjust: set factor to 0.00732
ElecMinimize: Iter:   6  G: -1552.091037206164629  |grad|_K:  3.862e-07  alpha:  8.552e-01  linmin: -6.730e-05  t[s]:   5694.38
	Linear fluid (dielectric constant: 78.4, screening length: 8.12261 Bohr) occupying 0.538426 of unit cell:	Completed after 13 iterations at t[s]:   5718.09
	Linear fluid (dielectric constant: 78.4, screening length: 8.12261 Bohr) occupying 0.538442 of unit cell:	Completed after 7 iterations at t[s]:   5736.45
	FillingsUpdate:  mu: -0.171300000  nElectrons: 288.140674  magneticMoment: [ Abs: 0.00025  Tot: +0.00014 ]
	SubspaceRotationAdjust: set factor to 0.00842
ElecMinimize: Iter:   7  G: -1552.091081112346046  |grad|_K:  4.076e-07  alpha:  7.557e-01  linmin:  6.008e-05  t[s]:   5764.34
	Linear fluid (dielectric constant: 78.4, screening length: 8.12261 Bohr) occupying 0.538584 of unit cell:	Completed after 12 iterations at t[s]:   5788.69
	Linear fluid (dielectric constant: 78.4, screening length: 8.12261 Bohr) occupying 0.538608 of unit cell:	Completed after 8 iterations at t[s]:   5806.71
	FillingsUpdate:  mu: -0.171300000  nElectrons: 288.155590  magneticMoment: [ Abs: 0.00030  Tot: +0.00013 ]
	SubspaceRotationAdjust: set factor to 0.00996
ElecMinimize: Iter:   8  G: -1552.091137162822861  |grad|_K:  5.038e-07  alpha:  8.667e-01  linmin: -1.792e-04  t[s]:   5834.66
	Linear fluid (dielectric constant: 78.4, screening length: 8.12261 Bohr) occupying 0.539034 of unit cell:	Completed after 14 iterations at t[s]:   5858.49
	Linear fluid (dielectric constant: 78.4, screening length: 8.12261 Bohr) occupying 0.538963 of unit cell:	Completed after 11 iterations at t[s]:   5877.25
	FillingsUpdate:  mu: -0.171300000  nElectrons: 288.175721  magneticMoment: [ Abs: 0.00035  Tot: +0.00013 ]
	SubspaceRotationAdjust: set factor to 0.0109
ElecMinimize: Iter:   9  G: -1552.091210101483739  |grad|_K:  5.181e-07  alpha:  7.361e-01  linmin: -6.125e-05  t[s]:   5905.37
	Linear fluid (dielectric constant: 78.4, screening length: 8.12261 Bohr) occupying 0.539921 of unit cell:	Completed after 13 iterations at t[s]:   5928.95
	Linear fluid (dielectric constant: 78.4, screening length: 8.12261 Bohr) occupying 0.539552 of unit cell:	Completed after 11 iterations at t[s]:   5947.77
	FillingsUpdate:  mu: -0.171300000  nElectrons: 288.197328  magneticMoment: [ Abs: 0.00037  Tot: +0.00013 ]
	SubspaceRotationAdjust: set factor to 0.0101
ElecMinimize: Iter:  10  G: -1552.091259314834815  |grad|_K:  4.633e-07  alpha:  4.725e-01  linmin:  3.874e-05  t[s]:   5975.69
	Linear fluid (dielectric constant: 78.4, screening length: 8.12261 Bohr) occupying 0.539726 of unit cell:	Completed after 8 iterations at t[s]:   5998.84
	Linear fluid (dielectric constant: 78.4, screening length: 8.12261 Bohr) occupying 0.539836 of unit cell:	Completed after 6 iterations at t[s]:   6016.93
	FillingsUpdate:  mu: -0.171300000  nElectrons: 288.208999  magneticMoment: [ Abs: 0.00038  Tot: +0.00013 ]
	SubspaceRotationAdjust: set factor to 0.0105
ElecMinimize: Iter:  11  G: -1552.091323078877394  |grad|_K:  5.145e-07  alpha:  7.643e-01  linmin:  4.304e-05  t[s]:   6044.89
	Linear fluid (dielectric constant: 78.4, screening length: 8.12261 Bohr) occupying 0.540298 of unit cell:	Completed after 14 iterations at t[s]:   6068.72
	Linear fluid (dielectric constant: 78.4, screening length: 8.12261 Bohr) occupying 0.540241 of unit cell:	Completed after 9 iterations at t[s]:   6087.54
	FillingsUpdate:  mu: -0.171300000  nElectrons: 288.223692  magneticMoment: [ Abs: 0.00035  Tot: +0.00013 ]
	SubspaceRotationAdjust: set factor to 0.0117
ElecMinimize: Iter:  12  G: -1552.091392403302962  |grad|_K:  4.644e-07  alpha:  6.738e-01  linmin: -5.266e-05  t[s]:   6115.50
	Linear fluid (dielectric constant: 78.4, screening length: 8.12261 Bohr) occupying 0.540104 of unit cell:	Completed after 13 iterations at t[s]:   6139.08
	Linear fluid (dielectric constant: 78.4, screening length: 8.12261 Bohr) occupying 0.540109 of unit cell:	Completed after 2 iterations at t[s]:   6156.89
	FillingsUpdate:  mu: -0.171300000  nElectrons: 288.224429  magneticMoment: [ Abs: 0.00032  Tot: +0.00013 ]
	SubspaceRotationAdjust: set factor to 0.0122
ElecMinimize: Iter:  13  G: -1552.091447262257816  |grad|_K:  4.784e-07  alpha:  6.522e-01  linmin:  2.589e-05  t[s]:   6184.76
	Linear fluid (dielectric constant: 78.4, screening length: 8.12261 Bohr) occupying 0.540336 of unit cell:	Completed after 14 iterations at t[s]:   6208.55
	Linear fluid (dielectric constant: 78.4, screening length: 8.12261 Bohr) occupying 0.540305 of unit cell:	Completed after 10 iterations at t[s]:   6227.06
	FillingsUpdate:  mu: -0.171300000  nElectrons: 288.233264  magneticMoment: [ Abs: 0.00029  Tot: +0.00013 ]
	SubspaceRotationAdjust: set factor to 0.0128
ElecMinimize: Iter:  14  G: -1552.091497561588312  |grad|_K:  4.763e-07  alpha:  5.653e-01  linmin: -4.083e-05  t[s]:   6255.01
	Linear fluid (dielectric constant: 78.4, screening length: 8.12261 Bohr) occupying 0.539998 of unit cell:	Completed after 13 iterations at t[s]:   6278.83
	Linear fluid (dielectric constant: 78.4, screening length: 8.12261 Bohr) occupying 0.540029 of unit cell:	Completed after 9 iterations at t[s]:   6297.45
	FillingsUpdate:  mu: -0.171300000  nElectrons: 288.230400  magneticMoment: [ Abs: 0.00026  Tot: +0.00013 ]
	SubspaceRotationAdjust: set factor to 0.0134
ElecMinimize: Iter:  15  G: -1552.091542637316024  |grad|_K:  4.612e-07  alpha:  5.096e-01  linmin:  8.112e-08  t[s]:   6325.51
	Linear fluid (dielectric constant: 78.4, screening length: 8.12261 Bohr) occupying 0.540132 of unit cell:	Completed after 13 iterations at t[s]:   6349.12
	Linear fluid (dielectric constant: 78.4, screening length: 8.12261 Bohr) occupying 0.540168 of unit cell:	Completed after 11 iterations at t[s]:   6367.87
	FillingsUpdate:  mu: -0.171300000  nElectrons: 288.237864  magneticMoment: [ Abs: 0.00024  Tot: +0.00013 ]
	SubspaceRotationAdjust: set factor to 0.0143
ElecMinimize: Iter:  16  G: -1552.091599192419608  |grad|_K:  5.424e-07  alpha:  6.832e-01  linmin:  2.587e-05  t[s]:   6396.03
	Linear fluid (dielectric constant: 78.4, screening length: 8.12261 Bohr) occupying 0.539924 of unit cell:	Completed after 14 iterations at t[s]:   6419.78
	Linear fluid (dielectric constant: 78.4, screening length: 8.12261 Bohr) occupying 0.539904 of unit cell:	Completed after 9 iterations at t[s]:   6438.20
	FillingsUpdate:  mu: -0.171300000  nElectrons: 288.237137  magneticMoment: [ Abs: 0.00022  Tot: +0.00012 ]
	SubspaceRotationAdjust: set factor to 0.0141
ElecMinimize: Iter:  17  G: -1552.091683823366338  |grad|_K:  6.339e-07  alpha:  7.395e-01  linmin: -2.736e-05  t[s]:   6465.96
	Linear fluid (dielectric constant: 78.4, screening length: 8.12261 Bohr) occupying 0.540651 of unit cell:	Completed after 15 iterations at t[s]:   6489.96
	Linear fluid (dielectric constant: 78.4, screening length: 8.12261 Bohr) occupying 0.540412 of unit cell:	Completed after 13 iterations at t[s]:   6508.89
	FillingsUpdate:  mu: -0.171300000  nElectrons: 288.252833  magneticMoment: [ Abs: 0.00023  Tot: +0.00012 ]
	SubspaceRotationAdjust: set factor to 0.0119
ElecMinimize: Iter:  18  G: -1552.091763974797914  |grad|_K:  6.656e-07  alpha:  5.118e-01  linmin: -1.004e-06  t[s]:   6536.89
	Linear fluid (dielectric constant: 78.4, screening length: 8.12261 Bohr) occupying 0.540356 of unit cell:	Completed after 14 iterations at t[s]:   6560.59
	Linear fluid (dielectric constant: 78.4, screening length: 8.12261 Bohr) occupying 0.540360 of unit cell:	Completed after 9 iterations at t[s]:   6579.13
	FillingsUpdate:  mu: -0.171300000  nElectrons: 288.255694  magneticMoment: [ Abs: 0.00024  Tot: +0.00012 ]
	SubspaceRotationAdjust: set factor to 0.01
ElecMinimize: Iter:  19  G: -1552.091845845601256  |grad|_K:  6.003e-07  alpha:  4.746e-01  linmin: -8.202e-06  t[s]:   6607.06
	Linear fluid (dielectric constant: 78.4, screening length: 8.12261 Bohr) occupying 0.540855 of unit cell:	Completed after 15 iterations at t[s]:   6630.93
	Linear fluid (dielectric constant: 78.4, screening length: 8.12261 Bohr) occupying 0.540974 of unit cell:	Completed after 10 iterations at t[s]:   6649.47
	FillingsUpdate:  mu: -0.171300000  nElectrons: 288.272405  magneticMoment: [ Abs: 0.00024  Tot: +0.00011 ]
	SubspaceRotationAdjust: set factor to 0.0101
ElecMinimize: Iter:  20  G: -1552.091927887636757  |grad|_K:  4.797e-07  alpha:  5.842e-01  linmin: -4.132e-05  t[s]:   6677.41
	Linear fluid (dielectric constant: 78.4, screening length: 8.12261 Bohr) occupying 0.541289 of unit cell:	Completed after 12 iterations at t[s]:   6701.60
	Linear fluid (dielectric constant: 78.4, screening length: 8.12261 Bohr) occupying 0.541296 of unit cell:	Completed after 2 iterations at t[s]:   6719.36
	FillingsUpdate:  mu: -0.171300000  nElectrons: 288.281957  magneticMoment: [ Abs: 0.00021  Tot: +0.00011 ]
	SubspaceRotationAdjust: set factor to 0.011
ElecMinimize: Iter:  21  G: -1552.091981494721722  |grad|_K:  4.027e-07  alpha:  5.972e-01  linmin: -2.983e-05  t[s]:   6747.36
	Linear fluid (dielectric constant: 78.4, screening length: 8.12261 Bohr) occupying 0.541491 of unit cell:	Completed after 11 iterations at t[s]:   6770.74
	Linear fluid (dielectric constant: 78.4, screening length: 8.12261 Bohr) occupying 0.541502 of unit cell:	Completed after 2 iterations at t[s]:   6788.67
	FillingsUpdate:  mu: -0.171300000  nElectrons: 288.289122  magneticMoment: [ Abs: 0.00019  Tot: +0.00011 ]
	SubspaceRotationAdjust: set factor to 0.0125
ElecMinimize: Iter:  22  G: -1552.092021258384420  |grad|_K:  3.466e-07  alpha:  6.292e-01  linmin: -2.316e-05  t[s]:   6816.51
	Linear fluid (dielectric constant: 78.4, screening length: 8.12261 Bohr) occupying 0.541631 of unit cell:	Completed after 10 iterations at t[s]:   6839.86
	Linear fluid (dielectric constant: 78.4, screening length: 8.12261 Bohr) occupying 0.541629 of unit cell:	Completed after 0 iterations at t[s]:   6857.26
	FillingsUpdate:  mu: -0.171300000  nElectrons: 288.294660  magneticMoment: [ Abs: 0.00017  Tot: +0.00011 ]
	SubspaceRotationAdjust: set factor to 0.0156
ElecMinimize: Iter:  23  G: -1552.092050307995805  |grad|_K:  2.906e-07  alpha:  6.206e-01  linmin:  2.277e-05  t[s]:   6885.06
	Linear fluid (dielectric constant: 78.4, screening length: 8.12261 Bohr) occupying 0.541648 of unit cell:	Completed after 12 iterations at t[s]:   6908.74
	Linear fluid (dielectric constant: 78.4, screening length: 8.12261 Bohr) occupying 0.541650 of unit cell:	Completed after 2 iterations at t[s]:   6926.45
	FillingsUpdate:  mu: -0.171300000  nElectrons: 288.297940  magneticMoment: [ Abs: 0.00017  Tot: +0.00011 ]
	SubspaceRotationAdjust: set factor to 0.0188
ElecMinimize: Iter:  24  G: -1552.092071916295708  |grad|_K:  2.955e-07  alpha:  6.576e-01  linmin: -2.434e-05  t[s]:   6954.48
	Linear fluid (dielectric constant: 78.4, screening length: 8.12261 Bohr) occupying 0.542096 of unit cell:	Completed after 14 iterations at t[s]:   6978.26
	Linear fluid (dielectric constant: 78.4, screening length: 8.12261 Bohr) occupying 0.542004 of unit cell:	Completed after 10 iterations at t[s]:   6997.44
	FillingsUpdate:  mu: -0.171300000  nElectrons: 288.306959  magneticMoment: [ Abs: 0.00017  Tot: +0.00011 ]
	SubspaceRotationAdjust: set factor to 0.0181
ElecMinimize: Iter:  25  G: -1552.092089771449764  |grad|_K:  3.456e-07  alpha:  5.244e-01  linmin:  4.911e-05  t[s]:   7025.39
	Linear fluid (dielectric constant: 78.4, screening length: 8.12261 Bohr) occupying 0.541889 of unit cell:	Completed after 13 iterations at t[s]:   7049.04
	Linear fluid (dielectric constant: 78.4, screening length: 8.12261 Bohr) occupying 0.541931 of unit cell:	Completed after 11 iterations at t[s]:   7067.74
	FillingsUpdate:  mu: -0.171300000  nElectrons: 288.307856  magneticMoment: [ Abs: 0.00018  Tot: +0.00011 ]
	SubspaceRotationAdjust: set factor to 0.0165
ElecMinimize: Iter:  26  G: -1552.092105215974698  |grad|_K:  3.046e-07  alpha:  3.320e-01  linmin:  1.596e-05  t[s]:   7095.63
	Linear fluid (dielectric constant: 78.4, screening length: 8.12261 Bohr) occupying 0.542168 of unit cell:	Completed after 12 iterations at t[s]:   7119.29
	Linear fluid (dielectric constant: 78.4, screening length: 8.12261 Bohr) occupying 0.542331 of unit cell:	Completed after 10 iterations at t[s]:   7137.97
	FillingsUpdate:  mu: -0.171300000  nElectrons: 288.317561  magneticMoment: [ Abs: 0.00019  Tot: +0.00010 ]
	SubspaceRotationAdjust: set factor to 0.0163
ElecMinimize: Iter:  27  G: -1552.092125277834157  |grad|_K:  2.871e-07  alpha:  5.562e-01  linmin:  3.773e-05  t[s]:   7166.19
	Linear fluid (dielectric constant: 78.4, screening length: 8.12261 Bohr) occupying 0.542495 of unit cell:	Completed after 6 iterations at t[s]:   7189.10
	Linear fluid (dielectric constant: 78.4, screening length: 8.12261 Bohr) occupying 0.542504 of unit cell:	Completed after 2 iterations at t[s]:   7206.82
	FillingsUpdate:  mu: -0.171300000  nElectrons: 288.322640  magneticMoment: [ Abs: 0.00018  Tot: +0.00010 ]
	SubspaceRotationAdjust: set factor to 0.0161
ElecMinimize: Iter:  28  G: -1552.092144161680835  |grad|_K:  2.501e-07  alpha:  5.890e-01  linmin: -7.195e-05  t[s]:   7234.68
	Linear fluid (dielectric constant: 78.4, screening length: 8.12261 Bohr) occupying 0.542876 of unit cell:	Completed after 12 iterations at t[s]:   7258.16
	Linear fluid (dielectric constant: 78.4, screening length: 8.12261 Bohr) occupying 0.542841 of unit cell:	Completed after 6 iterations at t[s]:   7276.39
	FillingsUpdate:  mu: -0.171300000  nElectrons: 288.329452  magneticMoment: [ Abs: 0.00017  Tot: +0.00010 ]
	SubspaceRotationAdjust: set factor to 0.0148
ElecMinimize: Iter:  29  G: -1552.092157190926173  |grad|_K:  2.299e-07  alpha:  5.332e-01  linmin:  1.417e-04  t[s]:   7304.49
	Linear fluid (dielectric constant: 78.4, screening length: 8.12261 Bohr) occupying 0.542805 of unit cell:	Completed after 13 iterations at t[s]:   7328.29
	Linear fluid (dielectric constant: 78.4, screening length: 8.12261 Bohr) occupying 0.542816 of unit cell:	Completed after 10 iterations at t[s]:   7346.97
	FillingsUpdate:  mu: -0.171300000  nElectrons: 288.329488  magneticMoment: [ Abs: 0.00015  Tot: +0.00010 ]
	SubspaceRotationAdjust: set factor to 0.012
ElecMinimize: Iter:  30  G: -1552.092164828771956  |grad|_K:  2.025e-07  alpha:  3.727e-01  linmin:  1.401e-05  t[s]:   7375.08
	Linear fluid (dielectric constant: 78.4, screening length: 8.12261 Bohr) occupying 0.543011 of unit cell:	Completed after 12 iterations at t[s]:   7398.61
	Linear fluid (dielectric constant: 78.4, screening length: 8.12261 Bohr) occupying 0.543029 of unit cell:	Completed after 2 iterations at t[s]:   7416.42
	FillingsUpdate:  mu: -0.171300000  nElectrons: 288.333342  magneticMoment: [ Abs: 0.00014  Tot: +0.00010 ]
	SubspaceRotationAdjust: set factor to 0.0111
ElecMinimize: Iter:  31  G: -1552.092171305980628  |grad|_K:  1.468e-07  alpha:  4.055e-01  linmin: -2.956e-04  t[s]:   7444.49
	Linear fluid (dielectric constant: 78.4, screening length: 8.12261 Bohr) occupying 0.543063 of unit cell:	Completed after 9 iterations at t[s]:   7468.00
	Linear fluid (dielectric constant: 78.4, screening length: 8.12261 Bohr) occupying 0.543073 of unit cell:	Completed after 2 iterations at t[s]:   7485.71
	FillingsUpdate:  mu: -0.171300000  nElectrons: 288.334177  magneticMoment: [ Abs: 0.00013  Tot: +0.00010 ]
	SubspaceRotationAdjust: set factor to 0.0134
ElecMinimize: Iter:  32  G: -1552.092175798526114  |grad|_K:  1.160e-07  alpha:  5.308e-01  linmin: -1.081e-04  t[s]:   7513.56
	Linear fluid (dielectric constant: 78.4, screening length: 8.12261 Bohr) occupying 0.543001 of unit cell:	Completed after 10 iterations at t[s]:   7537.06
	Linear fluid (dielectric constant: 78.4, screening length: 8.12261 Bohr) occupying 0.543006 of unit cell:	Completed after 2 iterations at t[s]:   7554.89
	FillingsUpdate:  mu: -0.171300000  nElectrons: 288.333059  magneticMoment: [ Abs: 0.00012  Tot: +0.00010 ]
	SubspaceRotationAdjust: set factor to 0.0143
ElecMinimize: Iter:  33  G: -1552.092178419964512  |grad|_K:  1.112e-07  alpha:  4.988e-01  linmin:  2.057e-04  t[s]:   7584.13
	Linear fluid (dielectric constant: 78.4, screening length: 8.12261 Bohr) occupying 0.543044 of unit cell:	Completed after 11 iterations at t[s]:   7608.00
	Linear fluid (dielectric constant: 78.4, screening length: 8.12261 Bohr) occupying 0.543035 of unit cell:	Completed after 6 iterations at t[s]:   7626.29
	FillingsUpdate:  mu: -0.171300000  nElectrons: 288.333549  magneticMoment: [ Abs: 0.00012  Tot: +0.00010 ]
	SubspaceRotationAdjust: set factor to 0.0154
ElecMinimize: Iter:  34  G: -1552.092180233577892  |grad|_K:  9.778e-08  alpha:  3.799e-01  linmin: -5.673e-07  t[s]:   7654.19
	Linear fluid (dielectric constant: 78.4, screening length: 8.12261 Bohr) occupying 0.542941 of unit cell:	Completed after 9 iterations at t[s]:   7677.51
	Linear fluid (dielectric constant: 78.4, screening length: 8.12261 Bohr) occupying 0.542921 of unit cell:	Completed after 6 iterations at t[s]:   7695.69
	FillingsUpdate:  mu: -0.171300000  nElectrons: 288.331636  magneticMoment: [ Abs: 0.00012  Tot: +0.00010 ]
	SubspaceRotationAdjust: set factor to 0.0191
ElecMinimize: Iter:  35  G: -1552.092181965867667  |grad|_K:  8.405e-08  alpha:  4.630e-01  linmin: -4.608e-04  t[s]:   7723.53
	Linear fluid (dielectric constant: 78.4, screening length: 8.12261 Bohr) occupying 0.542855 of unit cell:	Completed after 9 iterations at t[s]:   7746.98
	Linear fluid (dielectric constant: 78.4, screening length: 8.12261 Bohr) occupying 0.542823 of unit cell:	Completed after 3 iterations at t[s]:   7764.88
	FillingsUpdate:  mu: -0.171300000  nElectrons: 288.329996  magneticMoment: [ Abs: 0.00012  Tot: +0.00010 ]
	SubspaceRotationAdjust: set factor to 0.0242
ElecMinimize: Iter:  36  G: -1552.092183889521721  |grad|_K:  8.700e-08  alpha:  6.855e-01  linmin: -1.347e-04  t[s]:   7792.91
	Linear fluid (dielectric constant: 78.4, screening length: 8.12261 Bohr) occupying 0.542745 of unit cell:	Completed after 6 iterations at t[s]:   7815.89
	Linear fluid (dielectric constant: 78.4, screening length: 8.12261 Bohr) occupying 0.542751 of unit cell:	Completed after 2 iterations at t[s]:   7833.62
	FillingsUpdate:  mu: -0.171300000  nElectrons: 288.328781  magneticMoment: [ Abs: 0.00012  Tot: +0.00010 ]
	SubspaceRotationAdjust: set factor to 0.0266
	SubspaceRotationAdjust: resetting CG because factor has changed by 7.47006
	Linear fluid (dielectric constant: 78.4, screening length: 8.12261 Bohr) occupying 0.542751 of unit cell:	Completed after 0 iterations at t[s]:   7870.56
ElecMinimize: 	State modified externally: resetting search direction.
ElecMinimize: Iter:  37  G: -1552.092185769363141  |grad|_K:  9.961e-08  alpha:  6.336e-01
	Linear fluid (dielectric constant: 78.4, screening length: 8.12261 Bohr) occupying 0.542533 of unit cell:	Completed after 11 iterations at t[s]:   7921.95
	Linear fluid (dielectric constant: 78.4, screening length: 8.12261 Bohr) occupying 0.542663 of unit cell:	Completed after 11 iterations at t[s]:   7940.54
	FillingsUpdate:  mu: -0.171300000  nElectrons: 288.327292  magneticMoment: [ Abs: 0.00012  Tot: +0.00010 ]
	SubspaceRotationAdjust: set factor to 0.0176
ElecMinimize: Iter:  38  G: -1552.092186737464317  |grad|_K:  1.176e-07  alpha:  2.540e-01  linmin:  2.220e-04  t[s]:   7968.52
	Linear fluid (dielectric constant: 78.4, screening length: 8.12261 Bohr) occupying 0.542727 of unit cell:	Completed after 9 iterations at t[s]:   7991.91
	Linear fluid (dielectric constant: 78.4, screening length: 8.12261 Bohr) occupying 0.542744 of unit cell:	Completed after 6 iterations at t[s]:   8010.03
	FillingsUpdate:  mu: -0.171300000  nElectrons: 288.328662  magneticMoment: [ Abs: 0.00011  Tot: +0.00010 ]
	SubspaceRotationAdjust: set factor to 0.017
ElecMinimize: Iter:  39  G: -1552.092188459092540  |grad|_K:  9.496e-08  alpha:  3.204e-01  linmin: -1.348e-04  t[s]:   8038.08
	Linear fluid (dielectric constant: 78.4, screening length: 8.12261 Bohr) occupying 0.542761 of unit cell:	Completed after 7 iterations at t[s]:   8061.08
	Linear fluid (dielectric constant: 78.4, screening length: 8.12261 Bohr) occupying 0.542779 of unit cell:	Completed after 2 iterations at t[s]:   8078.78
	FillingsUpdate:  mu: -0.171300000  nElectrons: 288.329283  magneticMoment: [ Abs: 0.00011  Tot: +0.00010 ]
	SubspaceRotationAdjust: set factor to 0.0203
ElecMinimize: Iter:  40  G: -1552.092190755630554  |grad|_K:  8.430e-08  alpha:  6.472e-01  linmin: -4.233e-04  t[s]:   8106.51
	Linear fluid (dielectric constant: 78.4, screening length: 8.12261 Bohr) occupying 0.542650 of unit cell:	Completed after 11 iterations at t[s]:   8129.91
	Linear fluid (dielectric constant: 78.4, screening length: 8.12261 Bohr) occupying 0.542698 of unit cell:	Completed after 9 iterations at t[s]:   8148.29
	FillingsUpdate:  mu: -0.171300000  nElectrons: 288.327936  magneticMoment: [ Abs: 0.00011  Tot: +0.00010 ]
	SubspaceRotationAdjust: set factor to 0.0174
ElecMinimize: Iter:  41  G: -1552.092191925640691  |grad|_K:  8.988e-08  alpha:  4.083e-01  linmin:  2.303e-04  t[s]:   8176.21
	Linear fluid (dielectric constant: 78.4, screening length: 8.12261 Bohr) occupying 0.542768 of unit cell:	Completed after 10 iterations at t[s]:   8200.79
	Linear fluid (dielectric constant: 78.4, screening length: 8.12261 Bohr) occupying 0.542748 of unit cell:	Completed after 9 iterations at t[s]:   8219.27
	FillingsUpdate:  mu: -0.171300000  nElectrons: 288.328830  magneticMoment: [ Abs: 0.00011  Tot: +0.00009 ]
	SubspaceRotationAdjust: set factor to 0.0136
ElecMinimize: Iter:  42  G: -1552.092192829343048  |grad|_K:  6.776e-08  alpha:  2.900e-01  linmin:  6.312e-05  t[s]:   8247.34
	Linear fluid (dielectric constant: 78.4, screening length: 8.12261 Bohr) occupying 0.542718 of unit cell:	Completed after 7 iterations at t[s]:   8270.29
	Linear fluid (dielectric constant: 78.4, screening length: 8.12261 Bohr) occupying 0.542682 of unit cell:	Completed after 7 iterations at t[s]:   8288.65
	FillingsUpdate:  mu: -0.171300000  nElectrons: 288.327820  magneticMoment: [ Abs: 0.00011  Tot: +0.00009 ]
	SubspaceRotationAdjust: set factor to 0.0156
ElecMinimize: Iter:  43  G: -1552.092193972516952  |grad|_K:  5.435e-08  alpha:  6.394e-01  linmin: -1.028e-04  t[s]:   8316.55
	Linear fluid (dielectric constant: 78.4, screening length: 8.12261 Bohr) occupying 0.542640 of unit cell:	Completed after 7 iterations at t[s]:   8339.59
	Linear fluid (dielectric constant: 78.4, screening length: 8.12261 Bohr) occupying 0.542633 of unit cell:	Completed after 1 iterations at t[s]:   8357.07
	FillingsUpdate:  mu: -0.171300000  nElectrons: 288.327127  magneticMoment: [ Abs: 0.00011  Tot: +0.00009 ]
	SubspaceRotationAdjust: set factor to 0.0176
ElecMinimize: Iter:  44  G: -1552.092194834760221  |grad|_K:  5.165e-08  alpha:  7.458e-01  linmin: -1.590e-04  t[s]:   8384.84
	Linear fluid (dielectric constant: 78.4, screening length: 8.12261 Bohr) occupying 0.542610 of unit cell:	Completed after 3 iterations at t[s]:   8407.59
	Linear fluid (dielectric constant: 78.4, screening length: 8.12261 Bohr) occupying 0.542606 of unit cell:	Completed after 0 iterations at t[s]:   8425.08
	FillingsUpdate:  mu: -0.171300000  nElectrons: 288.326799  magneticMoment: [ Abs: 0.00010  Tot: +0.00009 ]
	SubspaceRotationAdjust: set factor to 0.0193
ElecMinimize: Iter:  45  G: -1552.092195738654937  |grad|_K:  5.761e-08  alpha:  8.618e-01  linmin: -1.254e-04  t[s]:   8453.15
	Linear fluid (dielectric constant: 78.4, screening length: 8.12261 Bohr) occupying 0.542552 of unit cell:	Completed after 9 iterations at t[s]:   8476.57
	Linear fluid (dielectric constant: 78.4, screening length: 8.12261 Bohr) occupying 0.542550 of unit cell:	Completed after 0 iterations at t[s]:   8495.14
	FillingsUpdate:  mu: -0.171300000  nElectrons: 288.325962  magneticMoment: [ Abs: 0.00010  Tot: +0.00009 ]
	SubspaceRotationAdjust: set factor to 0.0203
ElecMinimize: Iter:  46  G: -1552.092196898654947  |grad|_K:  6.527e-08  alpha:  8.896e-01  linmin: -3.374e-05  t[s]:   8523.13
	Linear fluid (dielectric constant: 78.4, screening length: 8.12261 Bohr) occupying 0.542582 of unit cell:	Completed after 10 iterations at t[s]:   8546.57
	Linear fluid (dielectric constant: 78.4, screening length: 8.12261 Bohr) occupying 0.542574 of unit cell:	Completed after 6 iterations at t[s]:   8564.71
	FillingsUpdate:  mu: -0.171300000  nElectrons: 288.326446  magneticMoment: [ Abs: 0.00010  Tot: +0.00009 ]
	SubspaceRotationAdjust: set factor to 0.0184
ElecMinimize: Iter:  47  G: -1552.092198005564796  |grad|_K:  8.542e-08  alpha:  6.646e-01  linmin:  4.013e-05  t[s]:   8592.58
	Linear fluid (dielectric constant: 78.4, screening length: 8.12261 Bohr) occupying 0.542342 of unit cell:	Completed after 11 iterations at t[s]:   8616.10
	Linear fluid (dielectric constant: 78.4, screening length: 8.12261 Bohr) occupying 0.542488 of unit cell:	Completed after 11 iterations at t[s]:   8634.93
	FillingsUpdate:  mu: -0.171300000  nElectrons: 288.325025  magneticMoment: [ Abs: 0.00010  Tot: +0.00009 ]
	SubspaceRotationAdjust: set factor to 0.0126
ElecMinimize: Iter:  48  G: -1552.092198681855052  |grad|_K:  6.709e-08  alpha:  2.447e-01  linmin:  3.511e-05  t[s]:   8662.78
	Linear fluid (dielectric constant: 78.4, screening length: 8.12261 Bohr) occupying 0.542492 of unit cell:	Completed after 3 iterations at t[s]:   8685.45
	Linear fluid (dielectric constant: 78.4, screening length: 8.12261 Bohr) occupying 0.542495 of unit cell:	Completed after 6 iterations at t[s]:   8703.73
	FillingsUpdate:  mu: -0.171300000  nElectrons: 288.325187  magneticMoment: [ Abs: 0.00010  Tot: +0.00009 ]
	SubspaceRotationAdjust: set factor to 0.014
ElecMinimize: Iter:  49  G: -1552.092199575911081  |grad|_K:  5.197e-08  alpha:  5.189e-01  linmin:  1.484e-04  t[s]:   8731.70
	Linear fluid (dielectric constant: 78.4, screening length: 8.12261 Bohr) occupying 0.542503 of unit cell:	Completed after 8 iterations at t[s]:   8754.95
	Linear fluid (dielectric constant: 78.4, screening length: 8.12261 Bohr) occupying 0.542503 of unit cell:	Completed after 0 iterations at t[s]:   8772.31
	FillingsUpdate:  mu: -0.171300000  nElectrons: 288.325363  magneticMoment: [ Abs: 0.00010  Tot: +0.00009 ]
	SubspaceRotationAdjust: set factor to 0.0152
ElecMinimize: Iter:  50  G: -1552.092200147692665  |grad|_K:  4.372e-08  alpha:  5.508e-01  linmin: -1.074e-04  t[s]:   8800.52
	Linear fluid (dielectric constant: 78.4, screening length: 8.12261 Bohr) occupying 0.542459 of unit cell:	Completed after 9 iterations at t[s]:   8823.90
	Linear fluid (dielectric constant: 78.4, screening length: 8.12261 Bohr) occupying 0.542466 of unit cell:	Completed after 2 iterations at t[s]:   8841.55
	FillingsUpdate:  mu: -0.171300000  nElectrons: 288.324782  magneticMoment: [ Abs: 0.00009  Tot: +0.00009 ]
	SubspaceRotationAdjust: set factor to 0.0134
ElecMinimize: Iter:  51  G: -1552.092200492990287  |grad|_K:  4.800e-08  alpha:  4.580e-01  linmin:  3.188e-04  t[s]:   8869.42
	Linear fluid (dielectric constant: 78.4, screening length: 8.12261 Bohr) occupying 0.542506 of unit cell:	Completed after 9 iterations at t[s]:   8892.83
	Linear fluid (dielectric constant: 78.4, screening length: 8.12261 Bohr) occupying 0.542495 of unit cell:	Completed after 4 iterations at t[s]:   8910.79
	FillingsUpdate:  mu: -0.171300000  nElectrons: 288.325345  magneticMoment: [ Abs: 0.00009  Tot: +0.00008 ]
	SubspaceRotationAdjust: set factor to 0.0106
ElecMinimize: Iter:  52  G: -1552.092200780109124  |grad|_K:  3.748e-08  alpha:  3.343e-01  linmin:  1.033e-04  t[s]:   8938.67
	Linear fluid (dielectric constant: 78.4, screening length: 8.12261 Bohr) occupying 0.542482 of unit cell:	Completed after 3 iterations at t[s]:   8961.31
	Linear fluid (dielectric constant: 78.4, screening length: 8.12261 Bohr) occupying 0.542470 of unit cell:	Completed after 6 iterations at t[s]:   8979.55
	FillingsUpdate:  mu: -0.171300000  nElectrons: 288.325024  magneticMoment: [ Abs: 0.00009  Tot: +0.00008 ]
	SubspaceRotationAdjust: set factor to 0.0117
ElecMinimize: Iter:  53  G: -1552.092201141074383  |grad|_K:  3.336e-08  alpha:  6.643e-01  linmin: -2.191e-04  t[s]:   9007.31
	Linear fluid (dielectric constant: 78.4, screening length: 8.12261 Bohr) occupying 0.542446 of unit cell:	Completed after 2 iterations at t[s]:   9029.91
	Linear fluid (dielectric constant: 78.4, screening length: 8.12261 Bohr) occupying 0.542447 of unit cell:	Completed after 0 iterations at t[s]:   9047.24
	FillingsUpdate:  mu: -0.171300000  nElectrons: 288.324749  magneticMoment: [ Abs: 0.00009  Tot: +0.00008 ]
	SubspaceRotationAdjust: set factor to 0.0128
ElecMinimize: Iter:  54  G: -1552.092201430949217  |grad|_K:  2.819e-08  alpha:  6.578e-01  linmin: -3.799e-05  t[s]:   9075.31
	Linear fluid (dielectric constant: 78.4, screening length: 8.12261 Bohr) occupying 0.542435 of unit cell:	Completed after 2 iterations at t[s]:   9099.04
	Linear fluid (dielectric constant: 78.4, screening length: 8.12261 Bohr) occupying 0.542435 of unit cell:	Completed after 0 iterations at t[s]:   9116.50
	FillingsUpdate:  mu: -0.171300000  nElectrons: 288.324642  magneticMoment: [ Abs: 0.00009  Tot: +0.00008 ]
	SubspaceRotationAdjust: set factor to 0.014
ElecMinimize: Iter:  55  G: -1552.092201632299066  |grad|_K:  2.514e-08  alpha:  6.499e-01  linmin: -5.326e-05  t[s]:   9144.47
	Linear fluid (dielectric constant: 78.4, screening length: 8.12261 Bohr) occupying 0.542420 of unit cell:	Completed after 2 iterations at t[s]:   9167.03
	Linear fluid (dielectric constant: 78.4, screening length: 8.12261 Bohr) occupying 0.542418 of unit cell:	Completed after 0 iterations at t[s]:   9184.50
	FillingsUpdate:  mu: -0.171300000  nElectrons: 288.324418  magneticMoment: [ Abs: 0.00009  Tot: +0.00008 ]
	SubspaceRotationAdjust: set factor to 0.0153
ElecMinimize: Iter:  56  G: -1552.092201815061571  |grad|_K:  2.358e-08  alpha:  7.403e-01  linmin: -1.475e-04  t[s]:   9212.41
	Linear fluid (dielectric constant: 78.4, screening length: 8.12261 Bohr) occupying 0.542399 of unit cell:	Completed after 6 iterations at t[s]:   9235.36
	Linear fluid (dielectric constant: 78.4, screening length: 8.12261 Bohr) occupying 0.542401 of unit cell:	Completed after 0 iterations at t[s]:   9252.74
	FillingsUpdate:  mu: -0.171300000  nElectrons: 288.324155  magneticMoment: [ Abs: 0.00009  Tot: +0.00008 ]
	SubspaceRotationAdjust: set factor to 0.0161
ElecMinimize: Iter:  57  G: -1552.092201959989325  |grad|_K:  2.405e-08  alpha:  6.670e-01  linmin: -2.627e-04  t[s]:   9280.53
	Linear fluid (dielectric constant: 78.4, screening length: 8.12261 Bohr) occupying 0.542436 of unit cell:	Completed after 9 iterations at t[s]:   9303.87
	Linear fluid (dielectric constant: 78.4, screening length: 8.12261 Bohr) occupying 0.542416 of unit cell:	Completed after 9 iterations at t[s]:   9322.32
	FillingsUpdate:  mu: -0.171300000  nElectrons: 288.324417  magneticMoment: [ Abs: 0.00009  Tot: +0.00008 ]
	SubspaceRotationAdjust: set factor to 0.0122
ElecMinimize: Iter:  58  G: -1552.092202024090511  |grad|_K:  2.150e-08  alpha:  2.888e-01  linmin:  1.485e-04  t[s]:   9350.25
	Linear fluid (dielectric constant: 78.4, screening length: 8.12261 Bohr) occupying 0.542405 of unit cell:	Completed after 2 iterations at t[s]:   9372.95
	Linear fluid (dielectric constant: 78.4, screening length: 8.12261 Bohr) occupying 0.542401 of unit cell:	Completed after 4 iterations at t[s]:   9391.20
	FillingsUpdate:  mu: -0.171300000  nElectrons: 288.324149  magneticMoment: [ Abs: 0.00009  Tot: +0.00008 ]
	SubspaceRotationAdjust: set factor to 0.0125
ElecMinimize: Iter:  59  G: -1552.092202093408787  |grad|_K:  1.655e-08  alpha:  4.105e-01  linmin:  7.849e-04  t[s]:   9419.11
ElecMinimize: Converged (|Delta G|<1.000000e-07 for 2 iters).
Setting wave functions to eigenvectors of Hamiltonian
Converging empty states (this may take a while): |deigs|: 1.324e-04
Single-point solvation energy estimate, DeltaG = -0.007333204837096

Computing DFT-D3 correction:
# coordination-number Pt 7.126 8.720 5.563 9.550 9.559 9.560 9.554 9.544 7.157 9.544 9.554 7.157 9.560 9.559 9.550 8.720 7.126 5.562
# diagonal-C6 Pt 336.87 336.87 336.87 336.87 336.87 336.87 336.87 336.87 336.87 336.87 336.87 336.87 336.87 336.87 336.87 336.87 336.87 336.87
EvdW_6 =   -0.152132
EvdW_8 =   -0.247826

# Ionic positions in cartesian coordinates:
ion Pt   0.000000000000000   6.975987000000000  64.742620999999986 1
ion Pt   0.000000000000000  13.951988999999998  62.276236999999995 1
ion Pt   5.231995999999999   0.000000000000000  45.011551999999995 1
ion Pt   0.000000000000000   5.231990000000000  59.809853999999987 1
ion Pt   0.000000000000000  12.207992000000001  57.343469999999989 1
ion Pt   0.000000000000000   3.487993000000000  54.877085999999991 1
ion Pt   0.000000000000000  10.463996000000000  52.410702999999991 1
[...]

#--- Lowdin population analysis ---
# oxidation-state Pt -0.059 -0.053 -0.011 +0.012 +0.018 +0.017 +0.009 +0.008 -0.015 +0.008 +0.009 -0.016 +0.017 +0.018 +0.012 -0.052 -0.059 -0.011
# magnetic-moments Pt -0.000 -0.000 -0.000 +0.000 +0.000 -0.000 -0.000 +0.000 -0.000 -0.000 +0.000 +0.000 +0.000 -0.000 -0.000 +0.000 +0.000 +0.000


Computing DFT-D3 correction:
# coordination-number Pt 7.113 8.408 5.942 9.304 9.451 9.427 9.420 9.126 7.124 9.123 9.417 7.120 9.427 9.452 9.308 8.411 7.116 5.939
# diagonal-C6 Pt 336.87 336.87 336.87 336.87 336.87 336.87 336.87 336.87 336.87 336.87 336.87 336.87 336.87 336.87 336.87 336.87 336.87 336.87
EvdW_6 =   -0.151767
EvdW_8 =   -0.247142
Shifting auxilliary hamiltonian by -0.000021 to set nElectrons=288.340568

-------- Electronic minimization -----------
	Linear fluid (dielectric constant: 78.4, screening length: 8.12261 Bohr) occupying 0.547150 of unit cell:	Completed after 13 iterations at t[s]:  49367.25
	FillingsUpdate:  mu: -0.171300000  nElectrons: 288.340568  magneticMoment: [ Abs: 0.00002  Tot: +0.00000 ]
ElecMinimize: Iter:   0  G: -1552.110115824203149  |grad|_K:  2.764e-07  alpha:  1.000e+00
	Linear fluid (dielectric constant: 78.4, screening length: 8.12261 Bohr) occupying 0.548140 of unit cell:	Completed after 15 iterations at t[s]:  49422.46
	Linear fluid (dielectric constant: 78.4, screening length: 8.12261 Bohr) occupying 0.547343 of unit cell:	Completed after 14 iterations at t[s]:  49441.40
	FillingsUpdate:  mu: -0.171300000  nElectrons: 288.343728  magneticMoment: [ Abs: 0.00002  Tot: +0.00000 ]
	SubspaceRotationAdjust: set factor to 0.00972
ElecMinimize: Iter:   1  G: -1552.110121695544422  |grad|_K:  1.158e-07  alpha:  1.972e-01  linmin:  6.449e-05  t[s]:  49469.36
	Linear fluid (dielectric constant: 78.4, screening length: 8.12261 Bohr) occupying 0.547317 of unit cell:	Completed after 9 iterations at t[s]:  49492.68
	Linear fluid (dielectric constant: 78.4, screening length: 8.12261 Bohr) occupying 0.547292 of unit cell:	Completed after 9 iterations at t[s]:  49511.22
	FillingsUpdate:  mu: -0.171300000  nElectrons: 288.342939  magneticMoment: [ Abs: 0.00002  Tot: +0.00000 ]
	SubspaceRotationAdjust: set factor to 0.0109
ElecMinimize: Iter:   2  G: -1552.110123705912656  |grad|_K:  5.444e-08  alpha:  3.840e-01  linmin: -2.151e-03  t[s]:  49539.14
	Linear fluid (dielectric constant: 78.4, screening length: 8.12261 Bohr) occupying 0.547285 of unit cell:	Completed after 2 iterations at t[s]:  49561.80
	Linear fluid (dielectric constant: 78.4, screening length: 8.12261 Bohr) occupying 0.547281 of unit cell:	Completed after 2 iterations at t[s]:  49579.50
	FillingsUpdate:  mu: -0.171300000  nElectrons: 288.342813  magneticMoment: [ Abs: 0.00002  Tot: +0.00000 ]
	SubspaceRotationAdjust: set factor to 0.0134
ElecMinimize: Iter:   3  G: -1552.110124344545511  |grad|_K:  3.970e-08  alpha:  5.511e-01  linmin: -9.992e-04  t[s]:  49607.35
	Linear fluid (dielectric constant: 78.4, screening length: 8.12261 Bohr) occupying 0.547278 of unit cell:	Completed after 3 iterations at t[s]:  49630.20
	Linear fluid (dielectric constant: 78.4, screening length: 8.12261 Bohr) occupying 0.547278 of unit cell:	Completed after 0 iterations at t[s]:  49647.76
	FillingsUpdate:  mu: -0.171300000  nElectrons: 288.342809  magneticMoment: [ Abs: 0.00003  Tot: +0.00000 ]
	SubspaceRotationAdjust: set factor to 0.0165
ElecMinimize: Iter:   4  G: -1552.110124745640178  |grad|_K:  3.680e-08  alpha:  6.494e-01  linmin: -2.489e-03  t[s]:  49675.89
	Linear fluid (dielectric constant: 78.4, screening length: 8.12261 Bohr) occupying 0.547262 of unit cell:	Completed after 3 iterations at t[s]:  49698.65
	Linear fluid (dielectric constant: 78.4, screening length: 8.12261 Bohr) occupying 0.547258 of unit cell:	Completed after 0 iterations at t[s]:  49716.28
	FillingsUpdate:  mu: -0.171300000  nElectrons: 288.342561  magneticMoment: [ Abs: 0.00003  Tot: +0.00000 ]
	SubspaceRotationAdjust: set factor to 0.0203
ElecMinimize: Iter:   5  G: -1552.110125179676970  |grad|_K:  3.901e-08  alpha:  8.044e-01  linmin: -1.692e-03  t[s]:  49744.39
	Linear fluid (dielectric constant: 78.4, screening length: 8.12261 Bohr) occupying 0.547211 of unit cell:	Completed after 7 iterations at t[s]:  49767.61
	Linear fluid (dielectric constant: 78.4, screening length: 8.12261 Bohr) occupying 0.547205 of unit cell:	Completed after 0 iterations at t[s]:  49785.00
	FillingsUpdate:  mu: -0.171300000  nElectrons: 288.341765  magneticMoment: [ Abs: 0.00003  Tot: +0.00000 ]
	SubspaceRotationAdjust: set factor to 0.0221
ElecMinimize: Iter:   6  G: -1552.110125729016090  |grad|_K:  5.176e-08  alpha:  9.013e-01  linmin: -1.937e-03  t[s]:  49812.88
	Linear fluid (dielectric constant: 78.4, screening length: 8.12261 Bohr) occupying 0.547246 of unit cell:	Completed after 10 iterations at t[s]:  49836.48
	Linear fluid (dielectric constant: 78.4, screening length: 8.12261 Bohr) occupying 0.547226 of unit cell:	Completed after 10 iterations at t[s]:  49855.10
	FillingsUpdate:  mu: -0.171300000  nElectrons: 288.342135  magneticMoment: [ Abs: 0.00003  Tot: +0.00000 ]
	SubspaceRotationAdjust: set factor to 0.0193
ElecMinimize: Iter:   7  G: -1552.110126241122089  |grad|_K:  6.319e-08  alpha:  4.633e-01  linmin:  7.359e-05  t[s]:  49883.18
	Linear fluid (dielectric constant: 78.4, screening length: 8.12261 Bohr) occupying 0.547144 of unit cell:	Completed after 9 iterations at t[s]:  49907.95
	Linear fluid (dielectric constant: 78.4, screening length: 8.12261 Bohr) occupying 0.547136 of unit cell:	Completed after 2 iterations at t[s]:  49925.83
	FillingsUpdate:  mu: -0.171300000  nElectrons: 288.340649  magneticMoment: [ Abs: 0.00004  Tot: +0.00000 ]
	SubspaceRotationAdjust: set factor to 0.0185
ElecMinimize: Iter:   8  G: -1552.110127029451178  |grad|_K:  5.983e-08  alpha:  5.083e-01  linmin: -3.588e-04  t[s]:  49953.81
	Linear fluid (dielectric constant: 78.4, screening length: 8.12261 Bohr) occupying 0.547099 of unit cell:	Completed after 6 iterations at t[s]:  49976.91
	Linear fluid (dielectric constant: 78.4, screening length: 8.12261 Bohr) occupying 0.547081 of unit cell:	Completed after 2 iterations at t[s]:  49994.74
	FillingsUpdate:  mu: -0.171300000  nElectrons: 288.339663  magneticMoment: [ Abs: 0.00003  Tot: +0.00000 ]
	SubspaceRotationAdjust: set factor to 0.0203
ElecMinimize: Iter:   9  G: -1552.110128101203145  |grad|_K:  5.805e-08  alpha:  7.553e-01  linmin: -2.204e-04  t[s]:  50022.74
	Linear fluid (dielectric constant: 78.4, screening length: 8.12261 Bohr) occupying 0.547071 of unit cell:	Completed after 6 iterations at t[s]:  50045.95
	Linear fluid (dielectric constant: 78.4, screening length: 8.12261 Bohr) occupying 0.547072 of unit cell:	Completed after 2 iterations at t[s]:  50063.81
	FillingsUpdate:  mu: -0.171300000  nElectrons: 288.339378  magneticMoment: [ Abs: 0.00003  Tot: +0.00000 ]
	SubspaceRotationAdjust: set factor to 0.0216
ElecMinimize: Iter:  10  G: -1552.110128986666723  |grad|_K:  5.899e-08  alpha:  6.696e-01  linmin: -1.163e-05  t[s]:  50091.75
	Linear fluid (dielectric constant: 78.4, screening length: 8.12261 Bohr) occupying 0.546971 of unit cell:	Completed after 10 iterations at t[s]:  50115.35
	Linear fluid (dielectric constant: 78.4, screening length: 8.12261 Bohr) occupying 0.547007 of unit cell:	Completed after 9 iterations at t[s]:  50133.89
	FillingsUpdate:  mu: -0.171300000  nElectrons: 288.338207  magneticMoment: [ Abs: 0.00003  Tot: +0.00000 ]
	SubspaceRotationAdjust: set factor to 0.0188
ElecMinimize: Iter:  11  G: -1552.110129573108452  |grad|_K:  6.259e-08  alpha:  4.300e-01  linmin:  1.112e-04  t[s]:  50161.93
	Linear fluid (dielectric constant: 78.4, screening length: 8.12261 Bohr) occupying 0.547047 of unit cell:	Completed after 10 iterations at t[s]:  50185.39
	Linear fluid (dielectric constant: 78.4, screening length: 8.12261 Bohr) occupying 0.547041 of unit cell:	Completed after 2 iterations at t[s]:  50204.34
	FillingsUpdate:  mu: -0.171300000  nElectrons: 288.338667  magneticMoment: [ Abs: 0.00002  Tot: +0.00000 ]
	SubspaceRotationAdjust: set factor to 0.0166
ElecMinimize: Iter:  12  G: -1552.110130130016614  |grad|_K:  4.853e-08  alpha:  3.666e-01  linmin:  3.233e-04  t[s]:  50232.21
	Linear fluid (dielectric constant: 78.4, screening length: 8.12261 Bohr) occupying 0.547032 of unit cell:	Completed after 6 iterations at t[s]:  50255.39
	Linear fluid (dielectric constant: 78.4, screening length: 8.12261 Bohr) occupying 0.547026 of unit cell:	Completed after 2 iterations at t[s]:  50273.14
	FillingsUpdate:  mu: -0.171300000  nElectrons: 288.338340  magneticMoment: [ Abs: 0.00002  Tot: +0.00000 ]
	SubspaceRotationAdjust: set factor to 0.0191
ElecMinimize: Iter:  13  G: -1552.110130652386943  |grad|_K:  4.031e-08  alpha:  5.702e-01  linmin: -8.114e-04  t[s]:  50301.06
	Linear fluid (dielectric constant: 78.4, screening length: 8.12261 Bohr) occupying 0.547042 of unit cell:	Completed after 2 iterations at t[s]:  50323.98
	Linear fluid (dielectric constant: 78.4, screening length: 8.12261 Bohr) occupying 0.547045 of unit cell:	Completed after 0 iterations at t[s]:  50341.50
	FillingsUpdate:  mu: -0.171300000  nElectrons: 288.338625  magneticMoment: [ Abs: 0.00002  Tot: +0.00000 ]
	SubspaceRotationAdjust: set factor to 0.023
ElecMinimize: Iter:  14  G: -1552.110131114782689  |grad|_K:  3.815e-08  alpha:  7.099e-01  linmin: -2.333e-04  t[s]:  50369.46
	Linear fluid (dielectric constant: 78.4, screening length: 8.12261 Bohr) occupying 0.547096 of unit cell:	Completed after 8 iterations at t[s]:  50392.68
	Linear fluid (dielectric constant: 78.4, screening length: 8.12261 Bohr) occupying 0.547091 of unit cell:	Completed after 0 iterations at t[s]:  50410.18
	FillingsUpdate:  mu: -0.171300000  nElectrons: 288.339401  magneticMoment: [ Abs: 0.00001  Tot: +0.00000 ]
	SubspaceRotationAdjust: set factor to 0.024
ElecMinimize: Iter:  15  G: -1552.110131482210591  |grad|_K:  4.754e-08  alpha:  6.445e-01  linmin:  1.092e-04  t[s]:  50438.09
	Linear fluid (dielectric constant: 78.4, screening length: 8.12261 Bohr) occupying 0.547046 of unit cell:	Completed after 10 iterations at t[s]:  50461.54
	Linear fluid (dielectric constant: 78.4, screening length: 8.12261 Bohr) occupying 0.547075 of unit cell:	Completed after 10 iterations at t[s]:  50480.17
	FillingsUpdate:  mu: -0.171300000  nElectrons: 288.339162  magneticMoment: [ Abs: 0.00001  Tot: +0.00000 ]
	SubspaceRotationAdjust: set factor to 0.0189
ElecMinimize: Iter:  16  G: -1552.110131678048674  |grad|_K:  4.175e-08  alpha:  2.382e-01  linmin:  3.827e-04  t[s]:  50508.17
	Linear fluid (dielectric constant: 78.4, screening length: 8.12261 Bohr) occupying 0.547099 of unit cell:	Completed after 3 iterations at t[s]:  50531.01
	Linear fluid (dielectric constant: 78.4, screening length: 8.12261 Bohr) occupying 0.547127 of unit cell:	Completed after 7 iterations at t[s]:  50549.34
	FillingsUpdate:  mu: -0.171300000  nElectrons: 288.340102  magneticMoment: [ Abs: 0.00001  Tot: +0.00000 ]
	SubspaceRotationAdjust: set factor to 0.0227
ElecMinimize: Iter:  17  G: -1552.110132002474529  |grad|_K:  3.333e-08  alpha:  5.069e-01  linmin:  1.183e-03  t[s]:  50577.26
	Linear fluid (dielectric constant: 78.4, screening length: 8.12261 Bohr) occupying 0.547173 of unit cell:	Completed after 8 iterations at t[s]:  50600.52
	Linear fluid (dielectric constant: 78.4, screening length: 8.12261 Bohr) occupying 0.547174 of unit cell:	Completed after 0 iterations at t[s]:  50617.98
	FillingsUpdate:  mu: -0.171300000  nElectrons: 288.340937  magneticMoment: [ Abs: 0.00001  Tot: +0.00000 ]
	SubspaceRotationAdjust: set factor to 0.0228
ElecMinimize: Iter:  18  G: -1552.110132219020898  |grad|_K:  3.357e-08  alpha:  5.215e-01  linmin: -4.264e-04  t[s]:  50645.90
	Linear fluid (dielectric constant: 78.4, screening length: 8.12261 Bohr) occupying 0.547156 of unit cell:	Completed after 9 iterations at t[s]:  50669.39
	Linear fluid (dielectric constant: 78.4, screening length: 8.12261 Bohr) occupying 0.547165 of unit cell:	Completed after 7 iterations at t[s]:  50687.70
	FillingsUpdate:  mu: -0.171300000  nElectrons: 288.340827  magneticMoment: [ Abs: 0.00001  Tot: +0.00000 ]
	SubspaceRotationAdjust: set factor to 0.0172
ElecMinimize: Iter:  19  G: -1552.110132339312713  |grad|_K:  2.944e-08  alpha:  2.702e-01  linmin:  5.726e-04  t[s]:  50715.57
	Linear fluid (dielectric constant: 78.4, screening length: 8.12261 Bohr) occupying 0.547187 of unit cell:	Completed after 7 iterations at t[s]:  50738.90
	Linear fluid (dielectric constant: 78.4, screening length: 8.12261 Bohr) occupying 0.547196 of unit cell:	Completed after 0 iterations at t[s]:  50756.34
	FillingsUpdate:  mu: -0.171300000  nElectrons: 288.341389  magneticMoment: [ Abs: 0.00001  Tot: +0.00000 ]
	SubspaceRotationAdjust: set factor to 0.0238
ElecMinimize: Iter:  20  G: -1552.110132472573241  |grad|_K:  1.949e-08  alpha:  3.811e-01  linmin: -6.175e-03  t[s]:  50784.40
	Linear fluid (dielectric constant: 78.4, screening length: 8.12261 Bohr) occupying 0.547218 of unit cell:	Completed after 7 iterations at t[s]:  50808.29
	Linear fluid (dielectric constant: 78.4, screening length: 8.12261 Bohr) occupying 0.547216 of unit cell:	Completed after 0 iterations at t[s]:  50825.84
	FillingsUpdate:  mu: -0.171300000  nElectrons: 288.341729  magneticMoment: [ Abs: 0.00001  Tot: +0.00000 ]
	SubspaceRotationAdjust: set factor to 0.0192
ElecMinimize: Iter:  21  G: -1552.110132530102192  |grad|_K:  2.585e-08  alpha:  3.504e-01  linmin: -4.095e-03  t[s]:  50853.83
	Linear fluid (dielectric constant: 78.4, screening length: 8.12261 Bohr) occupying 0.547202 of unit cell:	Completed after 9 iterations at t[s]:  50877.19
	Linear fluid (dielectric constant: 78.4, screening length: 8.12261 Bohr) occupying 0.547208 of unit cell:	Completed after 3 iterations at t[s]:  50895.08
	FillingsUpdate:  mu: -0.171300000  nElectrons: 288.341624  magneticMoment: [ Abs: 0.00001  Tot: +0.00000 ]
	SubspaceRotationAdjust: set factor to 0.0177
ElecMinimize: Iter:  22  G: -1552.110132585035217  |grad|_K:  1.635e-08  alpha:  1.958e-01  linmin:  1.572e-03  t[s]:  50923.07
ElecMinimize: Converged (|Delta G|<1.000000e-07 for 2 iters).
Setting wave functions to eigenvectors of Hamiltonian
Converging empty states (this may take a while): |deigs|: 1.221e-08

Computing DFT-D3 correction:
# coordination-number Pt 7.113 8.408 5.942 9.304 9.451 9.427 9.420 9.126 7.124 9.123 9.417 7.120 9.427 9.452 9.308 8.411 7.116 5.939
# diagonal-C6 Pt 336.87 336.87 336.87 336.87 336.87 336.87 336.87 336.87 336.87 336.87 336.87 336.87 336.87 336.87 336.87 336.87 336.87 336.87
EvdW_6 =   -0.151767
EvdW_8 =   -0.247142

# Ionic positions in cartesian coordinates:
ion Pt   0.000241619476563   6.849131406063348  64.777148347808492 1
ion Pt   0.000216433939304  14.160336999948688  62.566238041403970 1
ion Pt   5.231834747797247   0.222032536767295  45.283684014197640 1
ion Pt   0.000042409961647   5.224340330945707  59.757722548044676 1
ion Pt  -0.000033087487192  12.330798462300509  57.338847571553025 1
ion Pt  -0.000012294687055   3.417590026673135  54.922063513957525 1
ion Pt  -0.000137846260126  10.448702901458834  52.268967655441266 1
ion Pt   5.231930140490639   1.684228177470100  50.130976329067551 1
ion Pt   5.231857872115565   8.650355991303481  47.203805728592108 1
ion Pt   2.615979964882748   9.651804136630803  60.856291475636411 1
ion Pt   2.616103803756100   0.887574955828553  58.716912659857215 1
ion Pt   2.616224610683127   2.685525458266234  63.784575518868337 1
ion Pt   2.615951469087154   7.918039461256885  56.064057626952753 1
ion Pt   2.615973896578114  14.700450307468673  53.647472896146354 1
ion Pt   2.615930599682515   6.111686697709653  51.229406606643877 1
ion Pt   2.615808783018942  12.871481608494877  48.420248323291609 1
ion Pt   2.615836453702938   4.487277931278567  46.211819105505811 1
ion Pt   2.616220423261761  11.114522610134651  65.706211037031252 1

# Forces in Cartesian coordinates:
force Pt   0.000001605907218   0.000029015558867   0.000196661963724 1
force Pt   0.000000894191729   0.000050481680498   0.000185067617464 1
force Pt  -0.000001633792022   0.000012982456955  -0.000146543920213 1
force Pt   0.000000553991208  -0.000113147465563   0.000046195460159 1
force Pt   0.000000354589854   0.000047454960396   0.000111255592822 1
force Pt  -0.000000400354458   0.000090242574313   0.000012346042887 1
force Pt  -0.000000262036950   0.000033304548752  -0.000090033424112 1
force Pt  -0.000000878810013   0.000050738140983  -0.000164031490725 1
force Pt  -0.000001382864283   0.000087017249097  -0.000150274676977 1
force Pt   0.000000242778115  -0.000055145335230   0.000215684534025 1
force Pt   0.000000218694893  -0.000024520994463   0.000146786312303 1
force Pt   0.000001094834345  -0.000088087104760   0.000235312744769 1
force Pt  -0.000000147328519  -0.000105002461482   0.000057952174623 1
force Pt  -0.000000812209482  -0.000030428469956  -0.000054086620618 1
force Pt  -0.000000606612008   0.000108975624914   0.000017045207246 1
force Pt  -0.000001125095002  -0.000046140966667  -0.000121202904416 1
force Pt  -0.000001853387149  -0.000047761746939  -0.000163189938540 1
force Pt   0.000000708627777  -0.000031846138590   0.000156115564708 1

# Energy components:
   A_diel =       -0.1122168664857347
   Eewald =    14241.7299125144490972
       EH =    15708.2573837984073180
     Eloc =   -31829.0178741925374197
      Enl =      -18.9309500487963263
     EvdW =       -0.3989085665165991
      Exc =     -512.1145455771015804
 Exc_core =      295.0448768890673819
       KE =      514.0596073072882746
  MuShift =       -0.0178509009290927
-------------------------------------
     Etot =    -1601.5005656431546868
       TS =        0.0024872038004163
-------------------------------------
        F =    -1601.5030528469551427
      muN =      -49.3929202619199614
-------------------------------------
        G =    -1552.1101325850352168


Dumping 'jdft.fillings' ... done
Dumping 'jdft.wfns' ... done
Dumping 'jdft.fluidState' ... done
Dumping 'jdft.ionpos' ... done
Dumping 'jdft.lattice' ... done
Dumping 'jdft.eigenvals' ... done
Dumping 'jdft.eigStats' ... 
	eMin: -2.122789 at state 24 ( [ +0.500000 +0.000000 +0.000000 ] spin 1 )
	HOMO: -0.171361 at state 76 ( [ -0.416667 +0.000000 +0.000000 ] spin -1 )
	mu  : -0.171300
	LUMO: -0.171241 at state 30 ( [ -0.416667 +0.500000 +0.000000 ] spin 1 )
	eMax: +0.124215 at state 22 ( [ +0.416667 +0.500000 +0.000000 ] spin 1 )
	HOMO-LUMO gap: +0.000120
	Optical gap  : +0.000497 at state 64 ( [ +0.333333 +0.000000 +0.000000 ] spin -1 )
Dumping 'jdft.Ecomponents' ... done
IonicMinimize: Iter:  11  G: -1552.110132585035217  |grad|_K:  8.899e-05  alpha:  1.000e+00  linmin:  1.821e-01  t[s]:  50993.62
IonicMinimize: Converged (|grad|_K<1.000000e-04).

#--- Lowdin population analysis ---
# oxidation-state Pt -0.058 -0.051 -0.009 +0.012 +0.015 +0.015 +0.008 +0.008 -0.014 +0.008 +0.008 -0.014 +0.015 +0.015 +0.011 -0.051 -0.057 -0.009
# magnetic-moments Pt -0.000 +0.000 -0.000 +0.000 +0.000 -0.000 +0.000 -0.000 +0.000 +0.000 -0.000 -0.000 +0.000 -0.000 -0.000 -0.000 +0.000 +0.000


Dumping 'jdft.n_up' ... done
Dumping 'jdft.n_dn' ... done
Dumping 'jdft.tau_up' ... done
Dumping 'jdft.tau_dn' ... done
Dumping 'jdft.eigenvals' ... done
Dumping 'jdft.eigStats' ... 
	eMin: -2.122789 at state 24 ( [ +0.500000 +0.000000 +0.000000 ] spin 1 )
	HOMO: -0.171361 at state 76 ( [ -0.416667 +0.000000 +0.000000 ] spin -1 )
	mu  : -0.171300
	LUMO: -0.171241 at state 30 ( [ -0.416667 +0.500000 +0.000000 ] spin 1 )
	eMax: +0.124215 at state 22 ( [ +0.416667 +0.500000 +0.000000 ] spin 1 )
	HOMO-LUMO gap: +0.000120
	Optical gap  : +0.000497 at state 64 ( [ +0.333333 +0.000000 +0.000000 ] spin -1 )
Dumping 'jdft.kPts' ... done
Dumping 'jdft.dosUp' ... done.
Dumping 'jdft.dosDn' ... done.
End date and time: Tue Dec  7 06:56:14 2021  (Duration: 0-14:10:37.05)
Done!
