
*************** JDFTx 1.6.0  ***************

Start date and time: Mon Dec  6 15:54:11 2021
Executable /projects/musgravc/apps/jdftx-1.6.1/build/jdftx with command-line: -i in
Running on hosts (process indices):  shas0450.rc.int.colorado.edu (0-23)
Divided in process groups (process indices):  0 (0)  1 (1)  2 (2)  3 (3)  4 (4)  5 (5)  6 (6)  7 (7)  8 (8)  9 (9)  10 (10)  11 (11)  12 (12)  13 (13)  14 (14)  15 (15)  16 (16)  17 (17)  18 (18)  19 (19)  20 (20)  21 (21)  22 (22)  23 (23)
Resource initialization completed at t[s]:      0.00
Run totals: 24 processes, 24 threads, 0 GPUs


Input parsed successfully to the following command list (including defaults):

basis kpoint-dependent
converge-empty-states yes
coords-type Cartesian
core-overlap-check none
coulomb-interaction Periodic
davidson-band-ratio 1.1
density-of-states Etol 1.000000e-06 Esigma 1.000000e-03 \
		Complete \
	Total \
	OrthoOrbital Cu 1   s \
	OrthoOrbital Cu 1   p \
	OrthoOrbital Cu 1   px \
	OrthoOrbital Cu 1   py \
	OrthoOrbital Cu 1   pz \
	OrthoOrbital Cu 1   d \
	OrthoOrbital Cu 1   dxy \
	OrthoOrbital Cu 1   dyz \
	OrthoOrbital Cu 1   dz2 \
	OrthoOrbital Cu 1   dxz \
	OrthoOrbital Cu 1   dx2-y2 \
	OrthoOrbital Cu 2   s \
	OrthoOrbital Cu 2   p \
	OrthoOrbital Cu 2   px \
	OrthoOrbital Cu 2   py \
	OrthoOrbital Cu 2   pz \
	OrthoOrbital Cu 2   d \
	OrthoOrbital Cu 2   dxy \
	OrthoOrbital Cu 2   dyz \
	OrthoOrbital Cu 2   dz2 \
	OrthoOrbital Cu 2   dxz \
	OrthoOrbital Cu 2   dx2-y2 \
	OrthoOrbital Cu 3   s \
	OrthoOrbital Cu 3   p \
	OrthoOrbital Cu 3   px \
	OrthoOrbital Cu 3   py \
	OrthoOrbital Cu 3   pz \
	OrthoOrbital Cu 3   d \
	OrthoOrbital Cu 3   dxy \
	OrthoOrbital Cu 3   dyz \
	OrthoOrbital Cu 3   dz2 \
	OrthoOrbital Cu 3   dxz \
	OrthoOrbital Cu 3   dx2-y2 \
	OrthoOrbital Cu 4   s \
	OrthoOrbital Cu 4   p \
	OrthoOrbital Cu 4   px \
	OrthoOrbital Cu 4   py \
	OrthoOrbital Cu 4   pz \
	OrthoOrbital Cu 4   d \
	OrthoOrbital Cu 4   dxy \
	OrthoOrbital Cu 4   dyz \
	OrthoOrbital Cu 4   dz2 \
	OrthoOrbital Cu 4   dxz \
	OrthoOrbital Cu 4   dx2-y2 \
	OrthoOrbital Cu 5   s \
	OrthoOrbital Cu 5   p \
	OrthoOrbital Cu 5   px \
	OrthoOrbital Cu 5   py \
	OrthoOrbital Cu 5   pz \
	OrthoOrbital Cu 5   d \
	OrthoOrbital Cu 5   dxy \
	OrthoOrbital Cu 5   dyz \
	OrthoOrbital Cu 5   dz2 \
	OrthoOrbital Cu 5   dxz \
	OrthoOrbital Cu 5   dx2-y2 \
	OrthoOrbital Cu 6   s \
	OrthoOrbital Cu 6   p \
	OrthoOrbital Cu 6   px \
	OrthoOrbital Cu 6   py \
	OrthoOrbital Cu 6   pz \
	OrthoOrbital Cu 6   d \
	OrthoOrbital Cu 6   dxy \
	OrthoOrbital Cu 6   dyz \
	OrthoOrbital Cu 6   dz2 \
	OrthoOrbital Cu 6   dxz \
	OrthoOrbital Cu 6   dx2-y2 \
	OrthoOrbital Cu 7   s \
	OrthoOrbital Cu 7   p \
	OrthoOrbital Cu 7   px \
	OrthoOrbital Cu 7   py \
	OrthoOrbital Cu 7   pz \
	OrthoOrbital Cu 7   d \
	OrthoOrbital Cu 7   dxy \
	OrthoOrbital Cu 7   dyz \
	OrthoOrbital Cu 7   dz2 \
	OrthoOrbital Cu 7   dxz \
	OrthoOrbital Cu 7   dx2-y2 \
	OrthoOrbital Cu 8   s \
	OrthoOrbital Cu 8   p \
	OrthoOrbital Cu 8   px \
	OrthoOrbital Cu 8   py \
	OrthoOrbital Cu 8   pz \
	OrthoOrbital Cu 8   d \
	OrthoOrbital Cu 8   dxy \
	OrthoOrbital Cu 8   dyz \
	OrthoOrbital Cu 8   dz2 \
	OrthoOrbital Cu 8   dxz \
	OrthoOrbital Cu 8   dx2-y2 \
	OrthoOrbital Cu 9   s \
	OrthoOrbital Cu 9   p \
	OrthoOrbital Cu 9   px \
	OrthoOrbital Cu 9   py \
	OrthoOrbital Cu 9   pz \
	OrthoOrbital Cu 9   d \
	OrthoOrbital Cu 9   dxy \
	OrthoOrbital Cu 9   dyz \
	OrthoOrbital Cu 9   dz2 \
	OrthoOrbital Cu 9   dxz \
	OrthoOrbital Cu 9   dx2-y2 \
	OrthoOrbital Cu 10   s \
	OrthoOrbital Cu 10   p \
	OrthoOrbital Cu 10   px \
	OrthoOrbital Cu 10   py \
	OrthoOrbital Cu 10   pz \
	OrthoOrbital Cu 10   d \
	OrthoOrbital Cu 10   dxy \
	OrthoOrbital Cu 10   dyz \
	OrthoOrbital Cu 10   dz2 \
	OrthoOrbital Cu 10   dxz \
	OrthoOrbital Cu 10   dx2-y2 \
	OrthoOrbital Cu 11   s \
	OrthoOrbital Cu 11   p \
	OrthoOrbital Cu 11   px \
	OrthoOrbital Cu 11   py \
	OrthoOrbital Cu 11   pz \
	OrthoOrbital Cu 11   d \
	OrthoOrbital Cu 11   dxy \
	OrthoOrbital Cu 11   dyz \
	OrthoOrbital Cu 11   dz2 \
	OrthoOrbital Cu 11   dxz \
	OrthoOrbital Cu 11   dx2-y2 \
	OrthoOrbital Cu 12   s \
	OrthoOrbital Cu 12   p \
	OrthoOrbital Cu 12   px \
	OrthoOrbital Cu 12   py \
	OrthoOrbital Cu 12   pz \
	OrthoOrbital Cu 12   d \
	OrthoOrbital Cu 12   dxy \
	OrthoOrbital Cu 12   dyz \
	OrthoOrbital Cu 12   dz2 \
	OrthoOrbital Cu 12   dxz \
	OrthoOrbital Cu 12   dx2-y2
dump End ElecDensity KEdensity BandEigs EigStats RhoAtom DOS Kpoints
dump Ionic State IonicPositions Lattice EigStats Ecomponents
dump 
dump 
dump 
dump 
dump 
dump 
dump 
dump 
dump-name jdft.$VAR
elec-cutoff 20
elec-eigen-algo Davidson
elec-ex-corr gga-PBE
elec-initial-magnetization 0.000000 no
elec-n-bands 137
elec-smearing Fermi 0.001
electronic-minimize  \
	dirUpdateScheme      FletcherReeves \
	linminMethod         DirUpdateRecommended \
	nIterations          100 \
	history              15 \
	knormThreshold       0 \
	energyDiffThreshold  1e-07 \
	nEnergyDiff          2 \
	alphaTstart          1 \
	alphaTmin            1e-10 \
	updateTestStepSize   yes \
	alphaTreduceFactor   0.1 \
	alphaTincreaseFactor 3 \
	nAlphaAdjustMax      3 \
	wolfeEnergy          0.0001 \
	wolfeGradient        0.9 \
	fdTest               no
exchange-regularization WignerSeitzTruncated
fluid LinearPCM 298.000000 1.013250
fluid-anion F- 0.5 MeanFieldLJ \
	epsBulk 1 \
	pMol 0 \
	epsInf 1 \
	Pvap 0 \
	sigmaBulk 0 \
	Rvdw 2.24877 \
	Res 0 \
	tauNuc 343133
fluid-cation Na+ 0.5 MeanFieldLJ \
	epsBulk 1 \
	pMol 0 \
	epsInf 1 \
	Pvap 0 \
	sigmaBulk 0 \
	Rvdw 2.19208 \
	Res 0 \
	tauNuc 343133
fluid-ex-corr lda-TF lda-PZ
fluid-gummel-loop 10 1.000000e-05
fluid-minimize  \
	dirUpdateScheme      PolakRibiere \
	linminMethod         DirUpdateRecommended \
	nIterations          400 \
	history              15 \
	knormThreshold       1e-11 \
	energyDiffThreshold  0 \
	nEnergyDiff          2 \
	alphaTstart          1 \
	alphaTmin            1e-10 \
	updateTestStepSize   yes \
	alphaTreduceFactor   0.1 \
	alphaTincreaseFactor 3 \
	nAlphaAdjustMax      6 \
	wolfeEnergy          0.0001 \
	wolfeGradient        0.9 \
	fdTest               no
fluid-solvent H2O 55.338 ScalarEOS \
	epsBulk 78.4 \
	pMol 0.92466 \
	epsInf 1.77 \
	Pvap 1.06736e-10 \
	sigmaBulk 4.62e-05 \
	Rvdw 2.61727 \
	Res 1.42 \
	tauNuc 343133 \
	poleEl 15 7 1
forces-output-coords Positions
ion Cu   0.000000000000000   0.000000000000000  15.824043000000001 1
ion Cu   0.000000000000000   3.891928000000000   2.064025000000000 1
ion Cu   0.000000000000000   7.783867999999999   4.816009000000000 1
ion Cu   0.000000000000000   0.000000000000000   7.568042000000000 1
ion Cu   0.000000000000000   3.891928000000000  10.320026000000000 1
ion Cu   0.000000000000000   7.783867999999999  13.072058999999999 1
ion Cu   2.383311000000000   0.000000000000000   3.439992000000000 1
ion Cu   2.383311000000000   3.891928000000000   6.192025000000000 1
ion Cu   2.383311000000000   7.783867999999999   8.944058999999999 1
ion Cu   2.383311000000000   0.000000000000000  11.696043000000000 1
ion Cu   2.383311000000000   3.891928000000000  14.448076000000000 1
ion Cu   2.383311000000000   7.783867999999999   0.688008000000000 1
ion-species /projects/musgravc/apps/jdftx-1.6.0/build/pseudopotentials/GBRV_v1.5/$ID_pbe_v1.uspp
ion-species /projects/musgravc/apps/jdftx-1.6.0/build/pseudopotentials/GBRV_v1.5/$ID_pbe_v1.2.uspp
ion-species /projects/musgravc/apps/jdftx-1.6.0/build/pseudopotentials/GBRV_v1.5/$ID_pbe_v1.4.uspp
ion-species /projects/musgravc/apps/jdftx-1.6.0/build/pseudopotentials/GBRV_v1.5/$ID_pbe_v1.5.uspp
ion-width Ecut
ionic-minimize  \
	dirUpdateScheme      L-BFGS \
	linminMethod         DirUpdateRecommended \
	nIterations          100 \
	history              15 \
	knormThreshold       0.0001 \
	energyDiffThreshold  1e-06 \
	nEnergyDiff          2 \
	alphaTstart          1 \
	alphaTmin            1e-10 \
	updateTestStepSize   yes \
	alphaTreduceFactor   0.1 \
	alphaTincreaseFactor 3 \
	nAlphaAdjustMax      3 \
	wolfeEnergy          0.0001 \
	wolfeGradient        0.9 \
	fdTest               no
kpoint   0.000000000000   0.000000000000   0.000000000000  1.00000000000000
kpoint-folding 12 5 1 
latt-move-scale 0 0 0
latt-scale 1 1 1 
lattice  \
	   4.766623000000000   -0.000000000000000    0.000000000000000  \
	   0.000000000000000   11.675796000000000    0.000000000000000  \
	   0.000000000000000    0.000000000000000   49.536203999999998 
lattice-minimize  \
	dirUpdateScheme      L-BFGS \
	linminMethod         DirUpdateRecommended \
	nIterations          0 \
	history              15 \
	knormThreshold       0 \
	energyDiffThreshold  1e-06 \
	nEnergyDiff          2 \
	alphaTstart          1 \
	alphaTmin            1e-10 \
	updateTestStepSize   yes \
	alphaTreduceFactor   0.1 \
	alphaTincreaseFactor 3 \
	nAlphaAdjustMax      3 \
	wolfeEnergy          0.0001 \
	wolfeGradient        0.9 \
	fdTest               no
lcao-params 30 1e-06 0.001
pcm-variant CANDLE
spintype z-spin
subspace-rotation-factor 1 yes
symmetries none
symmetry-threshold 0.0001
target-mu -0.1713 no

van-der-waals D3


Applied RMS atom displacement 0 bohrs to make symmetries exact.

---------- Initializing the Grid ----------
R = 
[      4.76662            0            0  ]
[            0      11.6758            0  ]
[            0            0      49.5362  ]
unit cell volume = 2756.89
G =
[    1.31816          0         -0  ]
[          0   0.538138          0  ]
[          0         -0    0.12684  ]
Minimum fftbox size, Smin = [  20  48  200  ]
Chosen fftbox size, S = [  20  48  200  ]

---------- Exchange Correlation functional ----------
Initalized PBE GGA exchange.
Initalized PBE GGA correlation.

---------- Setting up pseudopotentials ----------
Width of ionic core gaussian charges (only for fluid interactions / plotting) set to 0.397384

Reading pseudopotential file '/projects/musgravc/apps/jdftx-1.6.0/build/pseudopotentials/GBRV_v1.5/cu_pbe_v1.2.uspp':
  Title: Cu.  Created by USPP 7.3.6 on 3-2-2014
  Reference state energy: -201.059491.  19 valence electrons in orbitals:
    |300>  occupation: 2  eigenvalue: -5.020764
    |310>  occupation: 6  eigenvalue: -3.445588
    |320>  occupation: 8  eigenvalue: -0.925168
    |400>  occupation: 2  eigenvalue: -0.567638
    |410>  occupation: 0  eigenvalue: -0.326154
  lMax: 2  lLocal: 3  QijEcut: 6
  6 projectors sampled on a log grid with 613 points:
    l: 0  eig: -5.020767  rCut: 1.4
    l: 0  eig: -0.567640  rCut: 1.4
    l: 1  eig: -3.445589  rCut: 1.55
    l: 1  eig: -0.326157  rCut: 1.55
    l: 2  eig: -0.925170  rCut: 1.5
    l: 2  eig: 1.500000  rCut: 1.5
  Partial core density with radius 0.8
  Transforming core density to a uniform radial grid of dG=0.02 with 1125 points.
  Transforming local potential to a uniform radial grid of dG=0.02 with 1125 points.
  Transforming nonlocal projectors to a uniform radial grid of dG=0.02 with 432 points.
  Transforming density augmentations to a uniform radial grid of dG=0.02 with 1125 points.
  Transforming atomic orbitals to a uniform radial grid of dG=0.02 with 432 points.
  Core radius for overlap checks: 1.55 bohrs.

Initialized 1 species with 12 total atoms.

Folded 1 k-points by 12x5x1 to 60 k-points.

---------- Setting up k-points, bands, fillings ----------
No reducable k-points. 
Computing the number of bands and number of electrons
Calculating initial fillings.
nElectrons: 228.000000   nBands: 137   nStates: 120

----- Setting up reduced wavefunction bases (one per k-point) -----
average nbasis = 11778.483 , ideal nbasis = 11777.660

----- Initializing Supercell corresponding to k-point mesh -----
Lattice vector linear combinations in supercell:
[  12   0   0  ]
[   0   5   0  ]
[   0   0   1  ]
Supercell lattice vectors:
[  57.1995  0  0  ]
[  0  58.379  0  ]
[  0  0  49.5362  ]

Initializing DFT-D3 calculator:
	Parameters set for gga-PBE functional
	s6:  1.000  s_r6:  1.217
	s8:  0.722  s_r8:  1.000
	Per-atom parameters loaded for:
	Cu:  sqrtQ[a0]:  5.226  Rcov[a0]:  1.909  CN: [ 0.00 0.96 ]

Initializing DFT-D2 calculator for fluid / solvation:
	Cu:  C6:  187.33 Eh-a0^6  R0: 2.952 a0

---------- Setting up ewald sum ----------
Optimum gaussian width for ewald sums = 3.697032 bohr.
Real space sum over 1045 unit cells with max indices [  9  5  2  ]
Reciprocal space sum over 4095 terms with max indices [  3  6  22  ]

Computing DFT-D3 correction:
# coordination-number Cu 5.330 6.833 9.123 9.152 9.148 7.624 7.624 9.148 9.152 9.123 6.833 5.330
# diagonal-C6 Cu 175.00 175.00 175.00 175.00 175.00 175.00 175.00 175.00 175.00 175.00 175.00 175.00
EvdW_6 =   -0.063958
EvdW_8 =   -0.098710

---------- Allocating electronic variables ----------
Initializing wave functions:  linear combination of atomic orbitals
Cu pseudo-atom occupations:   s ( 2 1 )  p ( 6 0 )  d ( 10 )
	FillingsUpdate:  mu: -0.171300000  nElectrons: 228.000000  magneticMoment: [ Abs: 0.15810  Tot: -0.00054 ]
LCAOMinimize: Iter:   0  G: -2321.4623751788972186  |grad|_K:  2.611e-02  alpha:  1.000e+00
LCAOMinimize: 	Step increased G by 3.128228e+02, reducing alpha to 4.292486e-02.
LCAOMinimize: 	Step increased G by 2.157012e+01, reducing alpha to 4.292486e-03.
	FillingsUpdate:  mu: -0.171300000  nElectrons: 228.000000  magneticMoment: [ Abs: 0.16096  Tot: -0.00078 ]
LCAOMinimize: Iter:   1  G: -2328.8119733434132286  |grad|_K:  1.704e-02  alpha:  4.292e-03  linmin: -1.878e-01  cgtest:  9.475e-01  t[s]:     59.51
LCAOMinimize: Encountered beta<0, resetting CG.
LCAOMinimize: 	Predicted alpha/alphaT>3.000000, increasing alphaT to 1.287746e-02.
	FillingsUpdate:  mu: -0.171300000  nElectrons: 228.000000  magneticMoment: [ Abs: 0.16552  Tot: -0.00749 ]
LCAOMinimize: Iter:   2  G: -2335.3425802316246518  |grad|_K:  1.094e-02  alpha:  1.487e-02  linmin: -4.077e-02  cgtest:  3.934e-02  t[s]:     78.84
LCAOMinimize: 	Wrong curvature in test step, increasing alphaT to 4.461876e-02.
	FillingsUpdate:  mu: -0.171300000  nElectrons: 228.000000  magneticMoment: [ Abs: 0.18225  Tot: -0.05047 ]
LCAOMinimize: Iter:   3  G: -2341.8623106835138969  |grad|_K:  1.238e-02  alpha: -5.921e-02  linmin: -1.696e-01  cgtest:  8.215e-01  t[s]:     93.62
	FillingsUpdate:  mu: -0.171300000  nElectrons: 228.000000  magneticMoment: [ Abs: 0.00121  Tot: +0.00018 ]
LCAOMinimize: Iter:   4  G: -2368.7910857650072103  |grad|_K:  2.169e-03  alpha:  5.162e-01  linmin:  8.722e-02  cgtest: -4.124e+00  t[s]:    108.86
	FillingsUpdate:  mu: -0.171300000  nElectrons: 228.000000  magneticMoment: [ Abs: 0.00123  Tot: +0.00020 ]
LCAOMinimize: Iter:   5  G: -2368.7913795412637228  |grad|_K:  2.161e-03  alpha:  5.304e-03  linmin: -1.653e-04  cgtest:  1.000e+00  t[s]:    124.12
LCAOMinimize: Encountered beta<0, resetting CG.
LCAOMinimize: 	Wrong curvature in test step, increasing alphaT to 1.591096e-02.
	FillingsUpdate:  mu: -0.171300000  nElectrons: 228.000000  magneticMoment: [ Abs: 0.00123  Tot: +0.00020 ]
LCAOMinimize: Iter:   6  G: -2368.8648178171451946  |grad|_K:  2.157e-03  alpha: -9.965e-01  linmin: -8.417e-02  cgtest:  9.926e-01  t[s]:    138.82
	FillingsUpdate:  mu: -0.171300000  nElectrons: 228.000000  magneticMoment: [ Abs: 0.00124  Tot: +0.00030 ]
LCAOMinimize: Iter:   7  G: -2369.1359910865367056  |grad|_K:  2.142e-03  alpha:  1.940e-02  linmin: -8.255e-02  cgtest:  9.725e-01  t[s]:    154.08
LCAOMinimize: 	Wrong curvature in test step, increasing alphaT to 5.820896e-02.
	FillingsUpdate:  mu: -0.171300000  nElectrons: 228.000000  magneticMoment: [ Abs: 0.00128  Tot: +0.00053 ]
LCAOMinimize: Iter:   8  G: -2369.4074441886787099  |grad|_K:  2.126e-03  alpha: -1.016e+00  linmin: -1.012e-01  cgtest:  9.736e-01  t[s]:    169.33
	FillingsUpdate:  mu: -0.171300000  nElectrons: 228.000000  magneticMoment: [ Abs: 0.00133  Tot: +0.00070 ]
LCAOMinimize: Iter:   9  G: -2369.6863993136753379  |grad|_K:  2.112e-03  alpha:  2.025e-02  linmin: -1.264e-01  cgtest:  9.722e-01  t[s]:    184.97
LCAOMinimize: 	Wrong curvature in test step, increasing alphaT to 6.074671e-02.
	FillingsUpdate:  mu: -0.171300000  nElectrons: 228.000000  magneticMoment: [ Abs: 0.00134  Tot: +0.00075 ]
LCAOMinimize: Iter:  10  G: -2369.9629035007428683  |grad|_K:  2.103e-03  alpha: -8.293e-01  linmin: -1.348e-01  cgtest:  9.709e-01  t[s]:    199.76
	FillingsUpdate:  mu: -0.171300000  nElectrons: 228.000000  magneticMoment: [ Abs: 0.00132  Tot: +0.00074 ]
LCAOMinimize: Iter:  11  G: -2370.2579218938462873  |grad|_K:  2.098e-03  alpha:  2.165e-02  linmin: -1.407e-01  cgtest:  9.677e-01  t[s]:    215.03
LCAOMinimize: 	Wrong curvature in test step, increasing alphaT to 6.495598e-02.
	FillingsUpdate:  mu: -0.171300000  nElectrons: 228.000000  magneticMoment: [ Abs: 0.00128  Tot: +0.00069 ]
LCAOMinimize: Iter:  12  G: -2370.5531348971344414  |grad|_K:  2.094e-03  alpha: -6.828e-01  linmin: -1.465e-01  cgtest:  9.667e-01  t[s]:    229.68
	FillingsUpdate:  mu: -0.171300000  nElectrons: 228.000000  magneticMoment: [ Abs: 0.00122  Tot: +0.00059 ]
LCAOMinimize: Iter:  13  G: -2370.8816840725012298  |grad|_K:  2.094e-03  alpha:  2.404e-02  linmin: -1.515e-01  cgtest:  9.620e-01  t[s]:    244.93
LCAOMinimize: 	Wrong curvature in test step, increasing alphaT to 7.211875e-02.
	FillingsUpdate:  mu: -0.171300000  nElectrons: 228.000000  magneticMoment: [ Abs: 0.00114  Tot: +0.00044 ]
LCAOMinimize: Iter:  14  G: -2371.2124625324559020  |grad|_K:  2.095e-03  alpha: -5.965e-01  linmin: -1.535e-01  cgtest:  9.607e-01  t[s]:    259.59
	FillingsUpdate:  mu: -0.171300000  nElectrons: 228.000000  magneticMoment: [ Abs: 0.00104  Tot: +0.00021 ]
LCAOMinimize: Iter:  15  G: -2371.6041708104880854  |grad|_K:  2.100e-03  alpha:  2.820e-02  linmin: -1.527e-01  cgtest:  9.524e-01  t[s]:    274.79
LCAOMinimize: 	Wrong curvature in test step, increasing alphaT to 8.460192e-02.
	FillingsUpdate:  mu: -0.171300000  nElectrons: 228.000000  magneticMoment: [ Abs: 0.00098  Tot: -0.00002 ]
LCAOMinimize: Iter:  16  G: -2372.0022432185087382  |grad|_K:  2.106e-03  alpha: -5.313e-01  linmin: -1.558e-01  cgtest:  9.508e-01  t[s]:    289.58
	FillingsUpdate:  mu: -0.171300000  nElectrons: 228.000000  magneticMoment: [ Abs: 0.00096  Tot: -0.00020 ]
LCAOMinimize: Iter:  17  G: -2372.5203966037156533  |grad|_K:  2.114e-03  alpha:  3.609e-02  linmin: -1.695e-01  cgtest:  9.358e-01  t[s]:    304.82
LCAOMinimize: 	Wrong curvature in test step, increasing alphaT to 1.082662e-01.
	FillingsUpdate:  mu: -0.171300000  nElectrons: 228.000000  magneticMoment: [ Abs: 0.00094  Tot: -0.00024 ]
LCAOMinimize: Iter:  18  G: -2373.0525971645101890  |grad|_K:  2.122e-03  alpha: -4.932e-01  linmin: -1.764e-01  cgtest:  9.331e-01  t[s]:    319.56
	FillingsUpdate:  mu: -0.171300000  nElectrons: 228.000000  magneticMoment: [ Abs: 0.00098  Tot: -0.00039 ]
LCAOMinimize: Iter:  19  G: -2373.8870592126086194  |grad|_K:  2.135e-03  alpha:  5.469e-02  linmin: -1.437e-01  cgtest:  8.923e-01  t[s]:    334.84
LCAOMinimize: 	Wrong curvature in test step, increasing alphaT to 1.640631e-01.
	FillingsUpdate:  mu: -0.171300000  nElectrons: 228.000000  magneticMoment: [ Abs: 0.00109  Tot: -0.00062 ]
LCAOMinimize: Iter:  20  G: -2374.7767821021061536  |grad|_K:  2.126e-03  alpha: -4.514e-01  linmin: -1.406e-01  cgtest:  8.866e-01  t[s]:    349.61
	FillingsUpdate:  mu: -0.171300000  nElectrons: 228.000000  magneticMoment: [ Abs: 0.00107  Tot: -0.00020 ]
LCAOMinimize: Iter:  21  G: -2375.8554594670390543  |grad|_K:  2.058e-03  alpha:  6.678e-02  linmin: -1.820e-01  cgtest:  8.673e-01  t[s]:    364.81
LCAOMinimize: 	Wrong curvature in test step, increasing alphaT to 2.003409e-01.
	FillingsUpdate:  mu: -0.171300000  nElectrons: 228.000000  magneticMoment: [ Abs: 0.00128  Tot: -0.00032 ]
LCAOMinimize: Iter:  22  G: -2376.8373548043018673  |grad|_K:  1.939e-03  alpha: -8.816e-01  linmin: -1.813e-01  cgtest:  8.739e-01  t[s]:    379.56
	FillingsUpdate:  mu: -0.171300000  nElectrons: 228.000000  magneticMoment: [ Abs: 0.00140  Tot: -0.00034 ]
LCAOMinimize: Iter:  23  G: -2377.2662203992999821  |grad|_K:  1.873e-03  alpha:  3.509e-02  linmin: -1.803e-01  cgtest:  9.427e-01  t[s]:    394.84
LCAOMinimize: 	Wrong curvature in test step, increasing alphaT to 1.052684e-01.
	FillingsUpdate:  mu: -0.171300000  nElectrons: 228.000000  magneticMoment: [ Abs: 0.00151  Tot: -0.00034 ]
LCAOMinimize: Iter:  24  G: -2377.6446491620231427  |grad|_K:  1.816e-03  alpha: -1.531e+00  linmin: -1.844e-01  cgtest:  9.449e-01  t[s]:    409.46
	FillingsUpdate:  mu: -0.171300000  nElectrons: 228.000000  magneticMoment: [ Abs: 0.00163  Tot: -0.00038 ]
LCAOMinimize: Iter:  25  G: -2377.9481418117961766  |grad|_K:  1.773e-03  alpha:  2.996e-02  linmin: -1.707e-01  cgtest:  9.505e-01  t[s]:    424.73
LCAOMinimize: 	Wrong curvature in test step, increasing alphaT to 8.989030e-02.
	FillingsUpdate:  mu: -0.171300000  nElectrons: 228.000000  magneticMoment: [ Abs: 0.00177  Tot: -0.00047 ]
LCAOMinimize: Iter:  26  G: -2378.2385274093039698  |grad|_K:  1.732e-03  alpha: -1.100e+00  linmin: -1.418e-01  cgtest:  9.497e-01  t[s]:    439.37
	FillingsUpdate:  mu: -0.171300000  nElectrons: 228.000000  magneticMoment: [ Abs: 0.00191  Tot: -0.00046 ]
LCAOMinimize: Iter:  27  G: -2378.4987392758075657  |grad|_K:  1.686e-03  alpha:  2.826e-02  linmin: -1.766e-01  cgtest:  9.567e-01  t[s]:    454.53
LCAOMinimize: 	Wrong curvature in test step, increasing alphaT to 8.477722e-02.
	FillingsUpdate:  mu: -0.171300000  nElectrons: 228.000000  magneticMoment: [ Abs: 0.00205  Tot: -0.00042 ]
LCAOMinimize: Iter:  28  G: -2378.7429931975216277  |grad|_K:  1.645e-03  alpha: -1.540e+00  linmin: -2.080e-01  cgtest:  9.555e-01  t[s]:    470.06
	FillingsUpdate:  mu: -0.171300000  nElectrons: 228.000000  magneticMoment: [ Abs: 0.00218  Tot: -0.00040 ]
LCAOMinimize: Iter:  29  G: -2378.9679357207351131  |grad|_K:  1.609e-03  alpha:  2.720e-02  linmin: -2.138e-01  cgtest:  9.535e-01  t[s]:    485.27
LCAOMinimize: 	Wrong curvature in test step, increasing alphaT to 8.159980e-02.
	FillingsUpdate:  mu: -0.171300000  nElectrons: 228.000000  magneticMoment: [ Abs: 0.00230  Tot: -0.00040 ]
LCAOMinimize: Iter:  30  G: -2379.1844469560892321  |grad|_K:  1.572e-03  alpha: -1.044e+00  linmin: -2.167e-01  cgtest:  9.515e-01  t[s]:    499.91
LCAOMinimize: None of the convergence criteria satisfied after 30 iterations.
----- createFluidSolver() ----- (Fluid-side solver setup)
   Initializing fluid molecule 'H2O'
     Initializing site 'O'
       Electron density: proportional to exp(-r/0.36935)*erfc((r-0.51523)/0.36823) with norm 6.826
       Charge density: gaussian nuclear width 0.478731 with net site charge 0.826
       Polarizability: cuspless exponential with width 0.32 and norm 3.73
       Hard sphere radius: 2.57003 bohrs
       Positions in reference frame:
         [ +0.000000 +0.000000 +0.000000 ]
     Initializing site 'H'
       Electron density: proportional to exp(-r/0.34641)*erfc((r-0)/0.390882) with norm 0.587
       Charge density: gaussian nuclear width 0.377945 with net site charge -0.413
       Polarizability: cuspless exponential with width 0.39 and norm 3.3
       Positions in reference frame:
         [ +0.000000 -1.441945 +1.122523 ]
         [ +0.000000 +1.441945 +1.122523 ]
     Net charge: 0   dipole magnitude: 0.927204
     Initializing spherical shell mfKernel with radius 2.61727 Bohr
     deltaS corrections:
       site 'O': -7.54299
       site 'H': -6.83917
   Initializing fluid molecule 'Na+'
     Initializing site 'Na'
       Electron density: proportional to exp(-r/0.19682)*erfc((r-0.71491)/0.41314) with norm 8.1383
       Charge density: gaussian nuclear width 0.365347 with net site charge -1
       Hard sphere radius: 1.86327 bohrs
       Positions in reference frame:
         [ +0.000000 +0.000000 +0.000000 ]
     Net charge: -1   dipole magnitude: 0
     Initializing gaussian mfKernel with width: 1.55004 Bohr
     deltaS corrections:
       site 'Na': -22.3555
   Initializing fluid molecule 'F-'
     Initializing site 'F'
       Electron density: proportional to exp(-r/0.38886)*erfc((r-0)/0.438782) with norm 8
       Charge density: gaussian nuclear width 0.374796 with net site charge 1
       Hard sphere radius: 2.39995 bohrs
       Positions in reference frame:
         [ +0.000000 +0.000000 +0.000000 ]
     Net charge: 1   dipole magnitude: 0
     Initializing gaussian mfKernel with width: 1.59012 Bohr
     deltaS corrections:
       site 'F': -9.04335

Correction to mu due to finite nuclear width = -0.0820568
   Cavity determined by nc: 0.00142 and sigma: 0.707107
   Nonlocal vdW cavity from gaussian model electron density with norm = 8 and sigma = 0.993594 bohr
   Charge asymmetry in cavity with sensitivity pCavity = 36.5 e-bohr/Eh
   Electrostatic cavity expanded by eta = 1.46 bohrs
   Weighted density cavitation model constrained by Nbulk: 0.0049383 bohr^-3, Pvap: 3.14029 kPa, Rvdw: 2.61727 bohr and sigmaBulk: 4.62e-05 Eh/bohr^2 at T: 298 K.
   Weighted density dispersion model using vdW pair potentials with single solvent site with sqrtC6eff: 0.77 SI.


---- Citations for features of the code used in this run ----

   Software package:
      R. Sundararaman, K. Letchworth-Weaver, K.A. Schwarz, D. Gunceler, Y. Ozhabes and T.A. Arias, 'JDFTx: software for joint density-functional theory', SoftwareX 6, 278 (2017)

   gga-PBE exchange-correlation functional:
      J.P. Perdew, K. Burke and M. Ernzerhof, Phys. Rev. Lett. 77, 3865 (1996)

   Pseudopotentials:
      KF Garrity, JW Bennett, KM Rabe and D Vanderbilt, Comput. Mater. Sci. 81, 446 (2014)

   DFT-D3 dispersion correction:
      S. Grimme, J. Antony, S. Ehrlich and H. Krieg, J. Chem. Phys. 132, 154104 (2010)

   DFT-D2 dispersion correction:
      S. Grimme, J. Comput. Chem. 27, 1787 (2006)

   Charge-asymmetric nonlocally-determined local-electric (CANDLE) solvation model:
      R. Sundararaman and W.A. Goddard III, J. Chem. Phys. 142, 064107 (2015)

   Total energy minimization with Auxiliary Hamiltonian:
      C. Freysoldt, S. Boeck, and J. Neugebauer, Phys. Rev. B 79, 241103(R) (2009)

   Grand-canonical (fixed-potential) DFT:
      R. Sundararaman, W. A. Goddard III and T. A. Arias, J. Chem. Phys. 146, 114104 (2017)

   Linear-tetrahedron sampling for density of states:
      G. Lehmann and M. Taut, Phys. status solidi (b) 54, 469 (1972)

This list may not be complete. Please suggest additional citations or
report any other bugs at https://github.com/shankar1729/jdftx/issues

Initialization completed successfully at t[s]:    505.44


Computing DFT-D3 correction:
# coordination-number Cu 5.330 6.833 9.123 9.152 9.148 7.624 7.624 9.148 9.152 9.123 6.833 5.330
# diagonal-C6 Cu 175.00 175.00 175.00 175.00 175.00 175.00 175.00 175.00 175.00 175.00 175.00 175.00
EvdW_6 =   -0.063958
EvdW_8 =   -0.098710
Fluid solver invoked on fresh (random / LCAO) wavefunctions
Running a vacuum solve first:

-------- Initial electronic minimization -----------
	FillingsUpdate:  mu: +0.764898818  nElectrons: 228.000000  magneticMoment: [ Abs: 0.00230  Tot: -0.00040 ]
ElecMinimize: Iter:   0  G: -2379.184852473078536  |grad|_K:  4.247e-04  alpha:  1.000e+00
	FillingsUpdate:  mu: +0.231011456  nElectrons: 228.000000  magneticMoment: [ Abs: 0.00271  Tot: -0.00078 ]
	SubspaceRotationAdjust: set factor to 0.972
ElecMinimize: Iter:   1  G: -2381.927240246160636  |grad|_K:  1.681e-04  alpha:  1.002e-01  linmin:  2.595e-03  t[s]:    542.68
	FillingsUpdate:  mu: +0.283242626  nElectrons: 228.000000  magneticMoment: [ Abs: 0.00243  Tot: -0.00089 ]
	SubspaceRotationAdjust: set factor to 1.08
ElecMinimize: Iter:   2  G: -2382.563780693699300  |grad|_K:  9.307e-05  alpha:  1.527e-01  linmin: -3.363e-05  t[s]:    565.77
	FillingsUpdate:  mu: +0.147197605  nElectrons: 228.000000  magneticMoment: [ Abs: 0.00240  Tot: -0.00125 ]
	SubspaceRotationAdjust: set factor to 1
ElecMinimize: Iter:   3  G: -2382.862147532388008  |grad|_K:  7.969e-05  alpha:  1.774e-01  linmin:  6.311e-05  t[s]:    589.04
	FillingsUpdate:  mu: +0.078058267  nElectrons: 228.000000  magneticMoment: [ Abs: 0.00199  Tot: -0.00086 ]
	SubspaceRotationAdjust: set factor to 0.841
ElecMinimize: Iter:   4  G: -2383.001571372167746  |grad|_K:  4.423e-05  alpha:  1.194e-01  linmin: -9.270e-06  t[s]:    612.51
	FillingsUpdate:  mu: +0.108347620  nElectrons: 228.000000  magneticMoment: [ Abs: 0.00169  Tot: -0.00053 ]
	SubspaceRotationAdjust: set factor to 0.898
ElecMinimize: Iter:   5  G: -2383.041496309288505  |grad|_K:  3.186e-05  alpha:  1.044e-01  linmin: -6.626e-06  t[s]:    635.76
	FillingsUpdate:  mu: +0.125099568  nElectrons: 228.000000  magneticMoment: [ Abs: 0.00133  Tot: -0.00022 ]
	SubspaceRotationAdjust: set factor to 0.597
ElecMinimize: Iter:   6  G: -2383.070981799654419  |grad|_K:  4.537e-05  alpha:  1.460e-01  linmin: -1.197e-05  t[s]:    658.96
	FillingsUpdate:  mu: +0.090433967  nElectrons: 228.000000  magneticMoment: [ Abs: 0.00101  Tot: +0.00003 ]
	SubspaceRotationAdjust: set factor to 0.389
ElecMinimize: Iter:   7  G: -2383.098762635443109  |grad|_K:  2.404e-05  alpha:  6.991e-02  linmin:  6.989e-06  t[s]:    682.15
	FillingsUpdate:  mu: +0.094761708  nElectrons: 228.000000  magneticMoment: [ Abs: 0.00085  Tot: +0.00006 ]
	SubspaceRotationAdjust: set factor to 0.564
ElecMinimize: Iter:   8  G: -2383.109285335217919  |grad|_K:  1.176e-05  alpha:  9.502e-02  linmin: -3.565e-06  t[s]:    705.40
	FillingsUpdate:  mu: +0.099837933  nElectrons: 228.000000  magneticMoment: [ Abs: 0.00075  Tot: +0.00001 ]
	SubspaceRotationAdjust: set factor to 0.529
ElecMinimize: Iter:   9  G: -2383.113315515826343  |grad|_K:  1.060e-05  alpha:  1.484e-01  linmin: -4.193e-06  t[s]:    728.67
	FillingsUpdate:  mu: +0.100353745  nElectrons: 228.000000  magneticMoment: [ Abs: 0.00065  Tot: -0.00009 ]
	SubspaceRotationAdjust: set factor to 0.402
ElecMinimize: Iter:  10  G: -2383.116335609719954  |grad|_K:  8.419e-06  alpha:  1.373e-01  linmin: -2.130e-06  t[s]:    752.01
	FillingsUpdate:  mu: +0.101078038  nElectrons: 228.000000  magneticMoment: [ Abs: 0.00059  Tot: -0.00016 ]
	SubspaceRotationAdjust: set factor to 0.367
ElecMinimize: Iter:  11  G: -2383.117897139500656  |grad|_K:  5.485e-06  alpha:  1.128e-01  linmin: -8.158e-07  t[s]:    775.87
	FillingsUpdate:  mu: +0.103121974  nElectrons: 228.000000  magneticMoment: [ Abs: 0.00052  Tot: -0.00018 ]
	SubspaceRotationAdjust: set factor to 0.417
ElecMinimize: Iter:  12  G: -2383.118964782006969  |grad|_K:  4.827e-06  alpha:  1.819e-01  linmin: -1.770e-06  t[s]:    799.20
	FillingsUpdate:  mu: +0.101261185  nElectrons: 228.000000  magneticMoment: [ Abs: 0.00045  Tot: -0.00016 ]
	SubspaceRotationAdjust: set factor to 0.393
ElecMinimize: Iter:  13  G: -2383.119628788128466  |grad|_K:  3.419e-06  alpha:  1.461e-01  linmin: -4.415e-07  t[s]:    822.55
	FillingsUpdate:  mu: +0.100327372  nElectrons: 228.000000  magneticMoment: [ Abs: 0.00039  Tot: -0.00014 ]
	SubspaceRotationAdjust: set factor to 0.386
ElecMinimize: Iter:  14  G: -2383.119978348228869  |grad|_K:  2.953e-06  alpha:  1.535e-01  linmin:  7.562e-07  t[s]:    845.81
	FillingsUpdate:  mu: +0.101207566  nElectrons: 228.000000  magneticMoment: [ Abs: 0.00033  Tot: -0.00011 ]
	SubspaceRotationAdjust: set factor to 0.431
ElecMinimize: Iter:  15  G: -2383.120275091403073  |grad|_K:  2.252e-06  alpha:  1.748e-01  linmin: -3.147e-07  t[s]:    868.97
	FillingsUpdate:  mu: +0.100699037  nElectrons: 228.000000  magneticMoment: [ Abs: 0.00029  Tot: -0.00009 ]
	SubspaceRotationAdjust: set factor to 0.455
ElecMinimize: Iter:  16  G: -2383.120419878270695  |grad|_K:  1.773e-06  alpha:  1.465e-01  linmin:  1.610e-06  t[s]:    892.13
	FillingsUpdate:  mu: +0.100125076  nElectrons: 228.000000  magneticMoment: [ Abs: 0.00024  Tot: -0.00008 ]
	SubspaceRotationAdjust: set factor to 0.445
ElecMinimize: Iter:  17  G: -2383.120520201049658  |grad|_K:  1.489e-06  alpha:  1.640e-01  linmin:  4.891e-06  t[s]:    915.26
	FillingsUpdate:  mu: +0.100166792  nElectrons: 228.000000  magneticMoment: [ Abs: 0.00021  Tot: -0.00006 ]
	SubspaceRotationAdjust: set factor to 0.448
ElecMinimize: Iter:  18  G: -2383.120582446671506  |grad|_K:  1.118e-06  alpha:  1.443e-01  linmin:  4.910e-07  t[s]:    938.61
	FillingsUpdate:  mu: +0.099839158  nElectrons: 228.000000  magneticMoment: [ Abs: 0.00018  Tot: -0.00005 ]
	SubspaceRotationAdjust: set factor to 0.484
ElecMinimize: Iter:  19  G: -2383.120625723031480  |grad|_K:  9.453e-07  alpha:  1.779e-01  linmin:  1.576e-06  t[s]:    961.95
	FillingsUpdate:  mu: +0.099695565  nElectrons: 228.000000  magneticMoment: [ Abs: 0.00015  Tot: -0.00005 ]
	SubspaceRotationAdjust: set factor to 0.506
ElecMinimize: Iter:  20  G: -2383.120649756296189  |grad|_K:  6.629e-07  alpha:  1.382e-01  linmin:  4.367e-07  t[s]:    985.13
	FillingsUpdate:  mu: +0.099868070  nElectrons: 228.000000  magneticMoment: [ Abs: 0.00013  Tot: -0.00004 ]
	SubspaceRotationAdjust: set factor to 0.468
ElecMinimize: Iter:  21  G: -2383.120663617146874  |grad|_K:  6.546e-07  alpha:  1.620e-01  linmin:  4.082e-07  t[s]:   1008.38
	FillingsUpdate:  mu: +0.099792045  nElectrons: 228.000000  magneticMoment: [ Abs: 0.00010  Tot: -0.00003 ]
	SubspaceRotationAdjust: set factor to 0.405
ElecMinimize: Iter:  22  G: -2383.120677677228286  |grad|_K:  4.954e-07  alpha:  1.686e-01  linmin:  1.197e-06  t[s]:   1031.73
	FillingsUpdate:  mu: +0.099577570  nElectrons: 228.000000  magneticMoment: [ Abs: 0.00008  Tot: -0.00003 ]
	SubspaceRotationAdjust: set factor to 0.461
ElecMinimize: Iter:  23  G: -2383.120683383222968  |grad|_K:  3.156e-07  alpha:  1.195e-01  linmin:  1.003e-07  t[s]:   1054.92
	FillingsUpdate:  mu: +0.099504299  nElectrons: 228.000000  magneticMoment: [ Abs: 0.00007  Tot: -0.00003 ]
	SubspaceRotationAdjust: set factor to 0.465
ElecMinimize: Iter:  24  G: -2383.120687335856928  |grad|_K:  3.277e-07  alpha:  2.038e-01  linmin:  7.690e-07  t[s]:   1079.24
	FillingsUpdate:  mu: +0.099441977  nElectrons: 228.000000  magneticMoment: [ Abs: 0.00006  Tot: -0.00002 ]
	SubspaceRotationAdjust: set factor to 0.406
ElecMinimize: Iter:  25  G: -2383.120690491323785  |grad|_K:  2.348e-07  alpha:  1.509e-01  linmin:  1.657e-07  t[s]:   1102.39
	FillingsUpdate:  mu: +0.099429750  nElectrons: 228.000000  magneticMoment: [ Abs: 0.00005  Tot: -0.00002 ]
	SubspaceRotationAdjust: set factor to 0.415
ElecMinimize: Iter:  26  G: -2383.120691966155391  |grad|_K:  1.835e-07  alpha:  1.374e-01  linmin:  3.185e-07  t[s]:   1125.70
	FillingsUpdate:  mu: +0.099500772  nElectrons: 228.000000  magneticMoment: [ Abs: 0.00004  Tot: -0.00002 ]
	SubspaceRotationAdjust: set factor to 0.446
ElecMinimize: Iter:  27  G: -2383.120693160114115  |grad|_K:  1.544e-07  alpha:  1.821e-01  linmin:  3.180e-07  t[s]:   1149.07
	FillingsUpdate:  mu: +0.099510420  nElectrons: 228.000000  magneticMoment: [ Abs: 0.00003  Tot: -0.00002 ]
	SubspaceRotationAdjust: set factor to 0.468
ElecMinimize: Iter:  28  G: -2383.120693861962081  |grad|_K:  1.271e-07  alpha:  1.511e-01  linmin:  1.777e-07  t[s]:   1172.40
	FillingsUpdate:  mu: +0.099447766  nElectrons: 228.000000  magneticMoment: [ Abs: 0.00003  Tot: -0.00001 ]
	SubspaceRotationAdjust: set factor to 0.474
ElecMinimize: Iter:  29  G: -2383.120694422962060  |grad|_K:  1.127e-07  alpha:  1.785e-01  linmin:  3.360e-07  t[s]:   1195.55
	FillingsUpdate:  mu: +0.099430616  nElectrons: 228.000000  magneticMoment: [ Abs: 0.00002  Tot: -0.00001 ]
	SubspaceRotationAdjust: set factor to 0.5
ElecMinimize: Iter:  30  G: -2383.120694772387651  |grad|_K:  8.404e-08  alpha:  1.414e-01  linmin:  3.088e-08  t[s]:   1218.79
	FillingsUpdate:  mu: +0.099449975  nElectrons: 228.000000  magneticMoment: [ Abs: 0.00002  Tot: -0.00001 ]
	SubspaceRotationAdjust: set factor to 0.527
ElecMinimize: Iter:  31  G: -2383.120695021657866  |grad|_K:  7.979e-08  alpha:  1.812e-01  linmin:  4.516e-08  t[s]:   1241.96
	FillingsUpdate:  mu: +0.099455777  nElectrons: 228.000000  magneticMoment: [ Abs: 0.00002  Tot: -0.00001 ]
	SubspaceRotationAdjust: set factor to 0.585
ElecMinimize: Iter:  32  G: -2383.120695223158691  |grad|_K:  5.816e-08  alpha:  1.625e-01  linmin:  4.286e-07  t[s]:   1265.18
	FillingsUpdate:  mu: +0.099454264  nElectrons: 228.000000  magneticMoment: [ Abs: 0.00001  Tot: -0.00001 ]
	SubspaceRotationAdjust: set factor to 0.591
ElecMinimize: Iter:  33  G: -2383.120695318090384  |grad|_K:  5.178e-08  alpha:  1.445e-01  linmin:  6.959e-08  t[s]:   1288.37
	FillingsUpdate:  mu: +0.099444989  nElectrons: 228.000000  magneticMoment: [ Abs: 0.00001  Tot: -0.00001 ]
	SubspaceRotationAdjust: set factor to 0.486
ElecMinimize: Iter:  34  G: -2383.120695402945330  |grad|_K:  4.797e-08  alpha:  1.626e-01  linmin:  3.671e-07  t[s]:   1311.71
ElecMinimize: Converged (|Delta G|<1.000000e-07 for 2 iters).
Setting wave functions to eigenvectors of Hamiltonian
Converging empty states (this may take a while): |deigs|: 2.045e-02
Vacuum energy after initial minimize, F = -2383.120695402945330

Shifting auxilliary hamiltonian by -0.270745 to set nElectrons=228.000000

-------- Electronic minimization -----------
	Linear fluid (dielectric constant: 78.4, screening length: 8.12261 Bohr) occupying 0.488481 of unit cell:	Completed after 22 iterations at t[s]:   1406.38
	FillingsUpdate:  mu: -0.171300000  nElectrons: 228.000000  magneticMoment: [ Abs: 0.00000  Tot: -0.00000 ]
ElecMinimize: Iter:   0  G: -2383.120907005863955  |grad|_K:  4.842e-06  alpha:  1.000e+00
	Linear fluid (dielectric constant: 78.4, screening length: 8.12261 Bohr) occupying 0.492098 of unit cell:	Completed after 21 iterations at t[s]:   1426.26
	Linear fluid (dielectric constant: 78.4, screening length: 8.12261 Bohr) occupying 0.488869 of unit cell:	Completed after 21 iterations at t[s]:   1433.82
	FillingsUpdate:  mu: -0.171300000  nElectrons: 227.951348  magneticMoment: [ Abs: 0.00000  Tot: -0.00000 ]
	SubspaceRotationAdjust: set factor to 0.26
ElecMinimize: Iter:   1  G: -2383.121007824937806  |grad|_K:  5.403e-06  alpha:  7.164e-02  linmin:  2.151e-02  t[s]:   1443.02
	Linear fluid (dielectric constant: 78.4, screening length: 8.12261 Bohr) occupying 0.489595 of unit cell:	Completed after 18 iterations at t[s]:   1452.03
	Linear fluid (dielectric constant: 78.4, screening length: 8.12261 Bohr) occupying 0.490581 of unit cell:	Completed after 18 iterations at t[s]:   1459.54
	FillingsUpdate:  mu: -0.171300000  nElectrons: 227.911206  magneticMoment: [ Abs: 0.00000  Tot: -0.00000 ]
	SubspaceRotationAdjust: set factor to 0.175
ElecMinimize: Iter:   2  G: -2383.121353965409071  |grad|_K:  3.779e-06  alpha:  1.776e-01  linmin: -3.557e-04  t[s]:   1468.82
	Linear fluid (dielectric constant: 78.4, screening length: 8.12261 Bohr) occupying 0.491670 of unit cell:	Completed after 19 iterations at t[s]:   1477.90
	Linear fluid (dielectric constant: 78.4, screening length: 8.12261 Bohr) occupying 0.491094 of unit cell:	Completed after 18 iterations at t[s]:   1485.18
	FillingsUpdate:  mu: -0.171300000  nElectrons: 227.926677  magneticMoment: [ Abs: 0.00000  Tot: -0.00000 ]
	SubspaceRotationAdjust: set factor to 0.129
ElecMinimize: Iter:   3  G: -2383.121586647394452  |grad|_K:  1.683e-06  alpha:  8.266e-02  linmin:  3.410e-05  t[s]:   1494.57
	Linear fluid (dielectric constant: 78.4, screening length: 8.12261 Bohr) occupying 0.491289 of unit cell:	Completed after 13 iterations at t[s]:   1503.47
	Linear fluid (dielectric constant: 78.4, screening length: 8.12261 Bohr) occupying 0.491519 of unit cell:	Completed after 15 iterations at t[s]:   1510.65
	FillingsUpdate:  mu: -0.171300000  nElectrons: 227.925727  magneticMoment: [ Abs: 0.00000  Tot: -0.00000 ]
	SubspaceRotationAdjust: set factor to 0.164
ElecMinimize: Iter:   4  G: -2383.121686434974890  |grad|_K:  1.877e-06  alpha:  1.811e-01  linmin: -2.625e-06  t[s]:   1519.98
	Linear fluid (dielectric constant: 78.4, screening length: 8.12261 Bohr) occupying 0.492191 of unit cell:	Completed after 18 iterations at t[s]:   1529.14
	Linear fluid (dielectric constant: 78.4, screening length: 8.12261 Bohr) occupying 0.492301 of unit cell:	Completed after 11 iterations at t[s]:   1536.11
	FillingsUpdate:  mu: -0.171300000  nElectrons: 227.920036  magneticMoment: [ Abs: 0.00000  Tot: -0.00000 ]
	SubspaceRotationAdjust: set factor to 0.176
ElecMinimize: Iter:   5  G: -2383.121831329281576  |grad|_K:  1.336e-06  alpha:  2.111e-01  linmin: -3.011e-05  t[s]:   1545.34
	Linear fluid (dielectric constant: 78.4, screening length: 8.12261 Bohr) occupying 0.492883 of unit cell:	Completed after 12 iterations at t[s]:   1554.30
	Linear fluid (dielectric constant: 78.4, screening length: 8.12261 Bohr) occupying 0.492938 of unit cell:	Completed after 8 iterations at t[s]:   1561.13
	FillingsUpdate:  mu: -0.171300000  nElectrons: 227.918341  magneticMoment: [ Abs: 0.00000  Tot: -0.00000 ]
	SubspaceRotationAdjust: set factor to 0.201
ElecMinimize: Iter:   6  G: -2383.121911822984202  |grad|_K:  1.438e-06  alpha:  2.312e-01  linmin:  7.195e-07  t[s]:   1570.28
	Linear fluid (dielectric constant: 78.4, screening length: 8.12261 Bohr) occupying 0.493848 of unit cell:	Completed after 16 iterations at t[s]:   1579.41
	Linear fluid (dielectric constant: 78.4, screening length: 8.12261 Bohr) occupying 0.493567 of unit cell:	Completed after 10 iterations at t[s]:   1586.30
	FillingsUpdate:  mu: -0.171300000  nElectrons: 227.913858  magneticMoment: [ Abs: 0.00000  Tot: -0.00000 ]
	SubspaceRotationAdjust: set factor to 0.241
ElecMinimize: Iter:   7  G: -2383.121975714218479  |grad|_K:  1.181e-06  alpha:  1.587e-01  linmin: -6.287e-07  t[s]:   1595.56
	Linear fluid (dielectric constant: 78.4, screening length: 8.12261 Bohr) occupying 0.494102 of unit cell:	Completed after 15 iterations at t[s]:   1604.47
	Linear fluid (dielectric constant: 78.4, screening length: 8.12261 Bohr) occupying 0.494688 of unit cell:	Completed after 15 iterations at t[s]:   1611.69
	FillingsUpdate:  mu: -0.171300000  nElectrons: 227.902714  magneticMoment: [ Abs: 0.00000  Tot: -0.00000 ]
	SubspaceRotationAdjust: set factor to 0.256
ElecMinimize: Iter:   8  G: -2383.122067926225100  |grad|_K:  1.469e-06  alpha:  3.372e-01  linmin: -5.627e-05  t[s]:   1620.95
	Linear fluid (dielectric constant: 78.4, screening length: 8.12261 Bohr) occupying 0.496494 of unit cell:	Completed after 12 iterations at t[s]:   1629.77
	Linear fluid (dielectric constant: 78.4, screening length: 8.12261 Bohr) occupying 0.495444 of unit cell:	Completed after 11 iterations at t[s]:   1636.73
	FillingsUpdate:  mu: -0.171300000  nElectrons: 227.895175  magneticMoment: [ Abs: 0.00000  Tot: -0.00000 ]
	SubspaceRotationAdjust: set factor to 0.332
ElecMinimize: Iter:   9  G: -2383.122125942235925  |grad|_K:  9.551e-07  alpha:  1.374e-01  linmin:  2.802e-05  t[s]:   1645.94
	Linear fluid (dielectric constant: 78.4, screening length: 8.12261 Bohr) occupying 0.495817 of unit cell:	Completed after 15 iterations at t[s]:   1654.86
	Linear fluid (dielectric constant: 78.4, screening length: 8.12261 Bohr) occupying 0.496029 of unit cell:	Completed after 13 iterations at t[s]:   1661.88
	FillingsUpdate:  mu: -0.171300000  nElectrons: 227.887758  magneticMoment: [ Abs: 0.00000  Tot: -0.00000 ]
	SubspaceRotationAdjust: set factor to 0.358
ElecMinimize: Iter:  10  G: -2383.122164420648460  |grad|_K:  1.005e-06  alpha:  2.170e-01  linmin: -2.036e-05  t[s]:   1672.18
	Linear fluid (dielectric constant: 78.4, screening length: 8.12261 Bohr) occupying 0.496742 of unit cell:	Completed after 18 iterations at t[s]:   1681.29
	Linear fluid (dielectric constant: 78.4, screening length: 8.12261 Bohr) occupying 0.496554 of unit cell:	Completed after 11 iterations at t[s]:   1688.28
	FillingsUpdate:  mu: -0.171300000  nElectrons: 227.883462  magneticMoment: [ Abs: 0.00000  Tot: -0.00000 ]
	SubspaceRotationAdjust: set factor to 0.378
ElecMinimize: Iter:  11  G: -2383.122195716975966  |grad|_K:  6.888e-07  alpha:  1.586e-01  linmin: -2.557e-06  t[s]:   1697.52
	Linear fluid (dielectric constant: 78.4, screening length: 8.12261 Bohr) occupying 0.496833 of unit cell:	Completed after 16 iterations at t[s]:   1706.71
	Linear fluid (dielectric constant: 78.4, screening length: 8.12261 Bohr) occupying 0.496824 of unit cell:	Completed after 6 iterations at t[s]:   1713.46
	FillingsUpdate:  mu: -0.171300000  nElectrons: 227.878482  magneticMoment: [ Abs: 0.00000  Tot: -0.00000 ]
	SubspaceRotationAdjust: set factor to 0.406
ElecMinimize: Iter:  12  G: -2383.122209892589581  |grad|_K:  6.966e-07  alpha:  1.534e-01  linmin: -3.790e-06  t[s]:   1722.62
	Linear fluid (dielectric constant: 78.4, screening length: 8.12261 Bohr) occupying 0.497133 of unit cell:	Completed after 16 iterations at t[s]:   1731.69
	Linear fluid (dielectric constant: 78.4, screening length: 8.12261 Bohr) occupying 0.497143 of unit cell:	Completed after 6 iterations at t[s]:   1738.44
	FillingsUpdate:  mu: -0.171300000  nElectrons: 227.879419  magneticMoment: [ Abs: 0.00000  Tot: -0.00000 ]
	SubspaceRotationAdjust: set factor to 0.297
ElecMinimize: Iter:  13  G: -2383.122224844318225  |grad|_K:  5.188e-07  alpha:  1.581e-01  linmin: -2.416e-05  t[s]:   1747.67
	Linear fluid (dielectric constant: 78.4, screening length: 8.12261 Bohr) occupying 0.497331 of unit cell:	Completed after 13 iterations at t[s]:   1756.53
	Linear fluid (dielectric constant: 78.4, screening length: 8.12261 Bohr) occupying 0.497273 of unit cell:	Completed after 10 iterations at t[s]:   1763.59
	FillingsUpdate:  mu: -0.171300000  nElectrons: 227.876898  magneticMoment: [ Abs: 0.00000  Tot: -0.00000 ]
	SubspaceRotationAdjust: set factor to 0.337
ElecMinimize: Iter:  14  G: -2383.122230606334597  |grad|_K:  3.552e-07  alpha:  1.094e-01  linmin:  5.360e-06  t[s]:   1772.77
	Linear fluid (dielectric constant: 78.4, screening length: 8.12261 Bohr) occupying 0.497341 of unit cell:	Completed after 11 iterations at t[s]:   1781.49
	Linear fluid (dielectric constant: 78.4, screening length: 8.12261 Bohr) occupying 0.497414 of unit cell:	Completed after 11 iterations at t[s]:   1788.57
	FillingsUpdate:  mu: -0.171300000  nElectrons: 227.876532  magneticMoment: [ Abs: 0.00000  Tot: -0.00000 ]
	SubspaceRotationAdjust: set factor to 0.341
ElecMinimize: Iter:  15  G: -2383.122236228881775  |grad|_K:  3.346e-07  alpha:  2.290e-01  linmin: -6.508e-08  t[s]:   1797.71
	Linear fluid (dielectric constant: 78.4, screening length: 8.12261 Bohr) occupying 0.497543 of unit cell:	Completed after 11 iterations at t[s]:   1806.43
	Linear fluid (dielectric constant: 78.4, screening length: 8.12261 Bohr) occupying 0.497491 of unit cell:	Completed after 9 iterations at t[s]:   1813.30
	FillingsUpdate:  mu: -0.171300000  nElectrons: 227.875621  magneticMoment: [ Abs: 0.00000  Tot: -0.00000 ]
	SubspaceRotationAdjust: set factor to 0.381
ElecMinimize: Iter:  16  G: -2383.122239206944869  |grad|_K:  2.096e-07  alpha:  1.364e-01  linmin:  5.550e-06  t[s]:   1822.54
	Linear fluid (dielectric constant: 78.4, screening length: 8.12261 Bohr) occupying 0.497525 of unit cell:	Completed after 8 iterations at t[s]:   1831.12
	Linear fluid (dielectric constant: 78.4, screening length: 8.12261 Bohr) occupying 0.497540 of unit cell:	Completed after 6 iterations at t[s]:   1837.84
	FillingsUpdate:  mu: -0.171300000  nElectrons: 227.875218  magneticMoment: [ Abs: 0.00000  Tot: -0.00000 ]
	SubspaceRotationAdjust: set factor to 0.417
ElecMinimize: Iter:  17  G: -2383.122240891021647  |grad|_K:  1.755e-07  alpha:  1.970e-01  linmin:  1.201e-06  t[s]:   1847.15
	Linear fluid (dielectric constant: 78.4, screening length: 8.12261 Bohr) occupying 0.497578 of unit cell:	Completed after 9 iterations at t[s]:   1855.93
	Linear fluid (dielectric constant: 78.4, screening length: 8.12261 Bohr) occupying 0.497569 of unit cell:	Completed after 6 iterations at t[s]:   1862.69
	FillingsUpdate:  mu: -0.171300000  nElectrons: 227.874983  magneticMoment: [ Abs: 0.00000  Tot: -0.00000 ]
	SubspaceRotationAdjust: set factor to 0.448
ElecMinimize: Iter:  18  G: -2383.122241763640886  |grad|_K:  1.264e-07  alpha:  1.456e-01  linmin: -5.182e-06  t[s]:   1871.93
	Linear fluid (dielectric constant: 78.4, screening length: 8.12261 Bohr) occupying 0.497587 of unit cell:	Completed after 7 iterations at t[s]:   1880.49
	Linear fluid (dielectric constant: 78.4, screening length: 8.12261 Bohr) occupying 0.497596 of unit cell:	Completed after 6 iterations at t[s]:   1887.30
	FillingsUpdate:  mu: -0.171300000  nElectrons: 227.875243  magneticMoment: [ Abs: 0.00000  Tot: -0.00000 ]
	SubspaceRotationAdjust: set factor to 0.486
ElecMinimize: Iter:  19  G: -2383.122242434368218  |grad|_K:  1.085e-07  alpha:  2.157e-01  linmin: -2.022e-06  t[s]:   1896.51
	Linear fluid (dielectric constant: 78.4, screening length: 8.12261 Bohr) occupying 0.497619 of unit cell:	Completed after 9 iterations at t[s]:   1905.14
	Linear fluid (dielectric constant: 78.4, screening length: 8.12261 Bohr) occupying 0.497609 of unit cell:	Completed after 6 iterations at t[s]:   1912.07
	FillingsUpdate:  mu: -0.171300000  nElectrons: 227.875070  magneticMoment: [ Abs: 0.00000  Tot: -0.00000 ]
	SubspaceRotationAdjust: set factor to 0.474
ElecMinimize: Iter:  20  G: -2383.122242717101017  |grad|_K:  7.003e-08  alpha:  1.228e-01  linmin:  3.043e-05  t[s]:   1921.24
	Linear fluid (dielectric constant: 78.4, screening length: 8.12261 Bohr) occupying 0.497617 of unit cell:	Completed after 9 iterations at t[s]:   1929.86
	Linear fluid (dielectric constant: 78.4, screening length: 8.12261 Bohr) occupying 0.497617 of unit cell:	Completed after 0 iterations at t[s]:   1936.40
	FillingsUpdate:  mu: -0.171300000  nElectrons: 227.875428  magneticMoment: [ Abs: 0.00000  Tot: -0.00000 ]
	SubspaceRotationAdjust: set factor to 0.39
ElecMinimize: Iter:  21  G: -2383.122242842830474  |grad|_K:  7.545e-08  alpha:  1.313e-01  linmin: -4.323e-04  t[s]:   1945.52
	Linear fluid (dielectric constant: 78.4, screening length: 8.12261 Bohr) occupying 0.497627 of unit cell:	Completed after 9 iterations at t[s]:   1954.20
	Linear fluid (dielectric constant: 78.4, screening length: 8.12261 Bohr) occupying 0.497625 of unit cell:	Completed after 2 iterations at t[s]:   1960.83
	FillingsUpdate:  mu: -0.171300000  nElectrons: 227.875070  magneticMoment: [ Abs: 0.00000  Tot: -0.00000 ]
	SubspaceRotationAdjust: set factor to 0.263
ElecMinimize: Iter:  22  G: -2383.122242969139734  |grad|_K:  5.005e-08  alpha:  1.076e-01  linmin:  2.824e-04  t[s]:   1970.34
	Linear fluid (dielectric constant: 78.4, screening length: 8.12261 Bohr) occupying 0.497630 of unit cell:	Completed after 7 iterations at t[s]:   1979.17
	Linear fluid (dielectric constant: 78.4, screening length: 8.12261 Bohr) occupying 0.497630 of unit cell:	Completed after 0 iterations at t[s]:   1985.63
	FillingsUpdate:  mu: -0.171300000  nElectrons: 227.875169  magneticMoment: [ Abs: 0.00000  Tot: -0.00000 ]
	SubspaceRotationAdjust: set factor to 0.253
ElecMinimize: Iter:  23  G: -2383.122243027512923  |grad|_K:  3.387e-08  alpha:  1.222e-01  linmin: -5.339e-04  t[s]:   1994.82
	Linear fluid (dielectric constant: 78.4, screening length: 8.12261 Bohr) occupying 0.497633 of unit cell:	Completed after 2 iterations at t[s]:   2003.28
	Linear fluid (dielectric constant: 78.4, screening length: 8.12261 Bohr) occupying 0.497634 of unit cell:	Completed after 0 iterations at t[s]:   2009.69
	FillingsUpdate:  mu: -0.171300000  nElectrons: 227.875150  magneticMoment: [ Abs: 0.00000  Tot: -0.00000 ]
	SubspaceRotationAdjust: set factor to 0.278
ElecMinimize: Iter:  24  G: -2383.122243074269136  |grad|_K:  2.608e-08  alpha:  1.938e-01  linmin: -1.943e-04  t[s]:   2018.81
ElecMinimize: Converged (|Delta G|<1.000000e-07 for 2 iters).
Setting wave functions to eigenvectors of Hamiltonian
Converging empty states (this may take a while): |deigs|: 2.135e-04
Single-point solvation energy estimate, DeltaG = -0.001547671323806

Computing DFT-D3 correction:
# coordination-number Cu 5.330 6.833 9.123 9.152 9.148 7.624 7.624 9.148 9.152 9.123 6.833 5.330
# diagonal-C6 Cu 175.00 175.00 175.00 175.00 175.00 175.00 175.00 175.00 175.00 175.00 175.00 175.00
EvdW_6 =   -0.063958
EvdW_8 =   -0.098710

# Ionic positions in cartesian coordinates:
ion Cu   0.000000000000000   0.000000000000000  15.824043000000001 1
ion Cu   0.000000000000000   3.891928000000000   2.064025000000000 1
ion Cu   0.000000000000000   7.783867999999999   4.816009000000000 1
ion Cu   0.000000000000000   0.000000000000000   7.568042000000000 1
ion Cu   0.000000000000000   3.891928000000000  10.320026000000000 1
ion Cu   0.000000000000000   7.783867999999999  13.072058999999999 1
ion Cu   2.383311000000000   0.000000000000000   3.439992000000000 1
ion Cu   2.383311000000000   3.891928000000000   6.192025000000000 1
ion Cu   2.383311000000000   7.783867999999999   8.944058999999999 1
ion Cu   2.383311000000000   0.000000000000000  11.696043000000000 1
ion Cu   2.383311000000000   3.891928000000000  14.448076000000000 1
ion Cu   2.383311000000000   7.783867999999999   0.688008000000000 1

# Forces in Cartesian coordinates:
force Cu  -0.000000846215429   0.000650772476080  -0.005350346478621 1
force Cu  -0.000001293781479  -0.001515189230236  -0.002251663530170 1
force Cu   0.000000098345847   0.002726620223741  -0.002372121743316 1
force Cu  -0.000002558205503  -0.000088280693772   0.002622795466046 1
force Cu   0.000000513834405   0.001089431344895  -0.001989958667394 1
force Cu   0.000007193858645  -0.001983466291768   0.005298280514271 1
force Cu   0.000002033369132   0.001987514410506  -0.005213244709861 1
force Cu   0.000000189810263  -0.001087779201554   0.002063326605198 1
force Cu   0.000001582905213   0.000087170339570  -0.002576183081787 1
force Cu  -0.000005226276133  -0.002727380810475   0.002321102058122 1
force Cu  -0.000000778922648   0.001512887756600   0.002157353508747 1
force Cu   0.000008234804176  -0.000649183613827   0.005404341441239 1

# Energy components:
   A_diel =        0.0194395642133670
   Eewald =     9377.3716686180068791
       EH =    11591.0996352039455815
     Eloc =   -23845.4347796085785376
      Enl =      439.4840755625833708
     EvdW =       -0.1626682514596578
      Exc =     -232.8099971426798334
 Exc_core =        0.5635932894139307
       KE =      247.7018230043574931
  MuShift =        0.0102447548966522
-------------------------------------
     Etot =    -2422.1569650053011173
       TS =        0.0002913325092267
-------------------------------------
        F =    -2422.1572563378103951
      muN =      -39.0350132635411526
-------------------------------------
        G =    -2383.1222430742691358


Dumping 'jdft.fillings' ... done
Dumping 'jdft.wfns' ... done
Dumping 'jdft.fluidState' ... done
Dumping 'jdft.ionpos' ... done
Dumping 'jdft.lattice' ... done
Dumping 'jdft.eigenvals' ... done
Dumping 'jdft.eigStats' ... 
	eMin: -4.311738 at state 0 ( [ +0.000000 +0.000000 +0.000000 ] spin 1 )
	HOMO: -0.173447 at state 14 ( [ +0.166667 -0.200000 +0.000000 ] spin 1 )
	mu  : -0.171300
	LUMO: -0.171208 at state 20 ( [ +0.333333 +0.000000 +0.000000 ] spin 1 )
	eMax: +0.205776 at state 91 ( [ +0.500000 +0.200000 +0.000000 ] spin -1 )
	HOMO-LUMO gap: +0.002240
	Optical gap  : +0.007776 at state 96 ( [ -0.416667 +0.200000 +0.000000 ] spin -1 )
Dumping 'jdft.Ecomponents' ... done
IonicMinimize: Iter:   0  G: -2383.122243074269136  |grad|_K:  2.274e-03  t[s]:   2102.05

#--- Lowdin population analysis ---
# oxidation-state Cu +0.231 +0.108 +0.040 +0.069 +0.065 +0.065 +0.065 +0.065 +0.069 +0.040 +0.108 +0.231
# magnetic-moments Cu +0.000 -0.000 +0.000 -0.000 -0.000 -0.000 +0.000 +0.000 -0.000 +0.000 -0.000 -0.000


Computing DFT-D3 correction:
# coordination-number Cu 5.344 6.833 9.123 9.147 9.142 7.620 7.620 9.142 9.147 9.123 6.833 5.344
# diagonal-C6 Cu 175.00 175.00 175.00 175.00 175.00 175.00 175.00 175.00 175.00 175.00 175.00 175.00
EvdW_6 =   -0.063957
EvdW_8 =   -0.098707
Shifting auxilliary hamiltonian by -0.000027 to set nElectrons=227.875150

-------- Electronic minimization -----------
	Linear fluid (dielectric constant: 78.4, screening length: 8.12261 Bohr) occupying 0.497760 of unit cell:	Completed after 9 iterations at t[s]:   2111.88
	FillingsUpdate:  mu: -0.171300000  nElectrons: 227.875150  magneticMoment: [ Abs: 0.00000  Tot: -0.00000 ]
ElecMinimize: Iter:   0  G: -2383.122365077968880  |grad|_K:  7.055e-07  alpha:  1.000e+00
	Linear fluid (dielectric constant: 78.4, screening length: 8.12261 Bohr) occupying 0.497770 of unit cell:	Completed after 16 iterations at t[s]:   2131.61
	Linear fluid (dielectric constant: 78.4, screening length: 8.12261 Bohr) occupying 0.497761 of unit cell:	Completed after 16 iterations at t[s]:   2138.74
	FillingsUpdate:  mu: -0.171300000  nElectrons: 227.875699  magneticMoment: [ Abs: 0.00000  Tot: -0.00000 ]
	SubspaceRotationAdjust: set factor to 0.316
ElecMinimize: Iter:   1  G: -2383.122378016813855  |grad|_K:  5.313e-07  alpha:  1.335e-01  linmin:  7.192e-06  t[s]:   2147.85
	Linear fluid (dielectric constant: 78.4, screening length: 8.12261 Bohr) occupying 0.497761 of unit cell:	Completed after 9 iterations at t[s]:   2156.62
	Linear fluid (dielectric constant: 78.4, screening length: 8.12261 Bohr) occupying 0.497761 of unit cell:	Completed after 10 iterations at t[s]:   2163.52
	FillingsUpdate:  mu: -0.171300000  nElectrons: 227.874694  magneticMoment: [ Abs: 0.00000  Tot: -0.00000 ]
	SubspaceRotationAdjust: set factor to 0.353
ElecMinimize: Iter:   2  G: -2383.122394276076648  |grad|_K:  4.693e-07  alpha:  2.957e-01  linmin: -1.254e-05  t[s]:   2172.66
	Linear fluid (dielectric constant: 78.4, screening length: 8.12261 Bohr) occupying 0.497765 of unit cell:	Completed after 12 iterations at t[s]:   2181.56
	Linear fluid (dielectric constant: 78.4, screening length: 8.12261 Bohr) occupying 0.497763 of unit cell:	Completed after 12 iterations at t[s]:   2188.53
	FillingsUpdate:  mu: -0.171300000  nElectrons: 227.876391  magneticMoment: [ Abs: 0.00000  Tot: -0.00000 ]
	SubspaceRotationAdjust: set factor to 0.35
ElecMinimize: Iter:   3  G: -2383.122401419578637  |grad|_K:  4.295e-07  alpha:  1.665e-01  linmin:  4.262e-07  t[s]:   2197.74
	Linear fluid (dielectric constant: 78.4, screening length: 8.12261 Bohr) occupying 0.497759 of unit cell:	Completed after 12 iterations at t[s]:   2206.46
	Linear fluid (dielectric constant: 78.4, screening length: 8.12261 Bohr) occupying 0.497760 of unit cell:	Completed after 9 iterations at t[s]:   2213.42
	FillingsUpdate:  mu: -0.171300000  nElectrons: 227.874394  magneticMoment: [ Abs: 0.00000  Tot: -0.00000 ]
	SubspaceRotationAdjust: set factor to 0.302
ElecMinimize: Iter:   4  G: -2383.122406521451467  |grad|_K:  3.356e-07  alpha:  1.420e-01  linmin:  4.038e-06  t[s]:   2222.65
	Linear fluid (dielectric constant: 78.4, screening length: 8.12261 Bohr) occupying 0.497762 of unit cell:	Completed after 12 iterations at t[s]:   2231.41
	Linear fluid (dielectric constant: 78.4, screening length: 8.12261 Bohr) occupying 0.497762 of unit cell:	Completed after 9 iterations at t[s]:   2238.30
	FillingsUpdate:  mu: -0.171300000  nElectrons: 227.876221  magneticMoment: [ Abs: 0.00000  Tot: -0.00000 ]
	SubspaceRotationAdjust: set factor to 0.267
ElecMinimize: Iter:   5  G: -2383.122410372241575  |grad|_K:  3.675e-07  alpha:  1.756e-01  linmin: -3.740e-07  t[s]:   2247.49
	Linear fluid (dielectric constant: 78.4, screening length: 8.12261 Bohr) occupying 0.497761 of unit cell:	Completed after 9 iterations at t[s]:   2256.18
	Linear fluid (dielectric constant: 78.4, screening length: 8.12261 Bohr) occupying 0.497761 of unit cell:	Completed after 9 iterations at t[s]:   2263.05
	FillingsUpdate:  mu: -0.171300000  nElectrons: 227.875319  magneticMoment: [ Abs: 0.00000  Tot: -0.00000 ]
	SubspaceRotationAdjust: set factor to 0.305
ElecMinimize: Iter:   6  G: -2383.122417135189608  |grad|_K:  2.398e-07  alpha:  2.571e-01  linmin:  2.232e-06  t[s]:   2273.34
	Linear fluid (dielectric constant: 78.4, screening length: 8.12261 Bohr) occupying 0.497759 of unit cell:	Completed after 9 iterations at t[s]:   2282.05
	Linear fluid (dielectric constant: 78.4, screening length: 8.12261 Bohr) occupying 0.497760 of unit cell:	Completed after 9 iterations at t[s]:   2288.96
	FillingsUpdate:  mu: -0.171300000  nElectrons: 227.875003  magneticMoment: [ Abs: 0.00000  Tot: -0.00000 ]
	SubspaceRotationAdjust: set factor to 0.322
ElecMinimize: Iter:   7  G: -2383.122418559465132  |grad|_K:  1.643e-07  alpha:  1.272e-01  linmin:  3.039e-06  t[s]:   2298.24
	Linear fluid (dielectric constant: 78.4, screening length: 8.12261 Bohr) occupying 0.497760 of unit cell:	Completed after 9 iterations at t[s]:   2306.95
	Linear fluid (dielectric constant: 78.4, screening length: 8.12261 Bohr) occupying 0.497759 of unit cell:	Completed after 10 iterations at t[s]:   2313.82
	FillingsUpdate:  mu: -0.171300000  nElectrons: 227.875812  magneticMoment: [ Abs: 0.00000  Tot: -0.00000 ]
	SubspaceRotationAdjust: set factor to 0.298
ElecMinimize: Iter:   8  G: -2383.122420119320395  |grad|_K:  1.962e-07  alpha:  2.972e-01  linmin:  8.805e-06  t[s]:   2322.95
	Linear fluid (dielectric constant: 78.4, screening length: 8.12261 Bohr) occupying 0.497753 of unit cell:	Completed after 11 iterations at t[s]:   2331.71
	Linear fluid (dielectric constant: 78.4, screening length: 8.12261 Bohr) occupying 0.497757 of unit cell:	Completed after 11 iterations at t[s]:   2338.74
	FillingsUpdate:  mu: -0.171300000  nElectrons: 227.875145  magneticMoment: [ Abs: 0.00000  Tot: -0.00000 ]
	SubspaceRotationAdjust: set factor to 0.215
ElecMinimize: Iter:   9  G: -2383.122420897026586  |grad|_K:  9.381e-08  alpha:  1.038e-01  linmin:  3.223e-06  t[s]:   2347.95
	Linear fluid (dielectric constant: 78.4, screening length: 8.12261 Bohr) occupying 0.497756 of unit cell:	Completed after 7 iterations at t[s]:   2356.48
	Linear fluid (dielectric constant: 78.4, screening length: 8.12261 Bohr) occupying 0.497756 of unit cell:	Completed after 7 iterations at t[s]:   2363.41
	FillingsUpdate:  mu: -0.171300000  nElectrons: 227.875451  magneticMoment: [ Abs: 0.00000  Tot: -0.00000 ]
	SubspaceRotationAdjust: set factor to 0.202
ElecMinimize: Iter:  10  G: -2383.122421225699327  |grad|_K:  8.532e-08  alpha:  1.916e-01  linmin: -2.693e-05  t[s]:   2372.60
	Linear fluid (dielectric constant: 78.4, screening length: 8.12261 Bohr) occupying 0.497753 of unit cell:	Completed after 2 iterations at t[s]:   2380.93
	Linear fluid (dielectric constant: 78.4, screening length: 8.12261 Bohr) occupying 0.497754 of unit cell:	Completed after 2 iterations at t[s]:   2387.44
	FillingsUpdate:  mu: -0.171300000  nElectrons: 227.875461  magneticMoment: [ Abs: 0.00000  Tot: -0.00000 ]
	SubspaceRotationAdjust: set factor to 0.211
ElecMinimize: Iter:  11  G: -2383.122421432580268  |grad|_K:  6.249e-08  alpha:  1.458e-01  linmin:  1.623e-06  t[s]:   2396.54
	Linear fluid (dielectric constant: 78.4, screening length: 8.12261 Bohr) occupying 0.497752 of unit cell:	Completed after 6 iterations at t[s]:   2405.14
	Linear fluid (dielectric constant: 78.4, screening length: 8.12261 Bohr) occupying 0.497752 of unit cell:	Completed after 2 iterations at t[s]:   2411.70
	FillingsUpdate:  mu: -0.171300000  nElectrons: 227.875355  magneticMoment: [ Abs: 0.00000  Tot: -0.00000 ]
	SubspaceRotationAdjust: set factor to 0.206
ElecMinimize: Iter:  12  G: -2383.122421569743437  |grad|_K:  5.368e-08  alpha:  1.800e-01  linmin: -1.203e-04  t[s]:   2421.00
	Linear fluid (dielectric constant: 78.4, screening length: 8.12261 Bohr) occupying 0.497750 of unit cell:	Completed after 2 iterations at t[s]:   2429.38
	Linear fluid (dielectric constant: 78.4, screening length: 8.12261 Bohr) occupying 0.497750 of unit cell:	Completed after 1 iterations at t[s]:   2435.96
	FillingsUpdate:  mu: -0.171300000  nElectrons: 227.875424  magneticMoment: [ Abs: 0.00000  Tot: -0.00000 ]
	SubspaceRotationAdjust: set factor to 0.219
ElecMinimize: Iter:  13  G: -2383.122421648749423  |grad|_K:  2.987e-08  alpha:  1.397e-01  linmin:  1.674e-04  t[s]:   2445.21
	Linear fluid (dielectric constant: 78.4, screening length: 8.12261 Bohr) occupying 0.497749 of unit cell:	Completed after 3 iterations at t[s]:   2453.70
	Linear fluid (dielectric constant: 78.4, screening length: 8.12261 Bohr) occupying 0.497749 of unit cell:	Completed after 0 iterations at t[s]:   2460.11
	FillingsUpdate:  mu: -0.171300000  nElectrons: 227.875485  magneticMoment: [ Abs: 0.00000  Tot: -0.00000 ]
	SubspaceRotationAdjust: set factor to 0.221
ElecMinimize: Iter:  14  G: -2383.122421675167971  |grad|_K:  2.448e-08  alpha:  1.521e-01  linmin: -1.127e-03  t[s]:   2469.24
ElecMinimize: Converged (|Delta G|<1.000000e-07 for 2 iters).
Setting wave functions to eigenvectors of Hamiltonian
Converging empty states (this may take a while): |deigs|: 1.071e-07

Computing DFT-D3 correction:
# coordination-number Cu 5.344 6.833 9.123 9.147 9.142 7.620 7.620 9.142 9.147 9.123 6.833 5.344
# diagonal-C6 Cu 175.00 175.00 175.00 175.00 175.00 175.00 175.00 175.00 175.00 175.00 175.00 175.00
EvdW_6 =   -0.063957
EvdW_8 =   -0.098707
IonicMinimize: 	Wolfe criterion not satisfied: alpha: 1  (E-E0)/|gdotd0|: -0.95957  gdotd/gdotd0: 0.937917 (taking cubic step)

Computing DFT-D3 correction:
# coordination-number Cu 5.371 6.831 9.123 9.136 9.132 7.614 7.614 9.131 9.136 9.123 6.832 5.372
# diagonal-C6 Cu 175.00 175.00 175.00 175.00 175.00 175.00 175.00 175.00 175.00 175.00 175.00 175.00
EvdW_6 =   -0.063955
EvdW_8 =   -0.098702
Shifting auxilliary hamiltonian by -0.000002 to set nElectrons=227.875485

-------- Electronic minimization -----------
	Linear fluid (dielectric constant: 78.4, screening length: 8.12261 Bohr) occupying 0.497995 of unit cell:	Completed after 15 iterations at t[s]:   2502.92
	FillingsUpdate:  mu: -0.171300000  nElectrons: 227.875485  magneticMoment: [ Abs: 0.00001  Tot: -0.00000 ]
ElecMinimize: Iter:   0  G: -2383.122510659532963  |grad|_K:  1.387e-06  alpha:  1.000e+00
	Linear fluid (dielectric constant: 78.4, screening length: 8.12261 Bohr) occupying 0.498009 of unit cell:	Completed after 12 iterations at t[s]:   2522.58
	Linear fluid (dielectric constant: 78.4, screening length: 8.12261 Bohr) occupying 0.497997 of unit cell:	Completed after 12 iterations at t[s]:   2529.55
	FillingsUpdate:  mu: -0.171300000  nElectrons: 227.875475  magneticMoment: [ Abs: 0.00001  Tot: -0.00000 ]
	SubspaceRotationAdjust: set factor to 0.249
ElecMinimize: Iter:   1  G: -2383.122560783255722  |grad|_K:  1.028e-06  alpha:  1.337e-01  linmin: -1.506e-05  t[s]:   2538.80
	Linear fluid (dielectric constant: 78.4, screening length: 8.12261 Bohr) occupying 0.497999 of unit cell:	Completed after 8 iterations at t[s]:   2547.45
	Linear fluid (dielectric constant: 78.4, screening length: 8.12261 Bohr) occupying 0.498001 of unit cell:	Completed after 8 iterations at t[s]:   2554.25
	FillingsUpdate:  mu: -0.171300000  nElectrons: 227.875809  magneticMoment: [ Abs: 0.00001  Tot: -0.00000 ]
	SubspaceRotationAdjust: set factor to 0.289
ElecMinimize: Iter:   2  G: -2383.122622086596948  |grad|_K:  8.523e-07  alpha:  2.976e-01  linmin: -2.004e-06  t[s]:   2563.50
	Linear fluid (dielectric constant: 78.4, screening length: 8.12261 Bohr) occupying 0.498002 of unit cell:	Completed after 6 iterations at t[s]:   2573.02
	Linear fluid (dielectric constant: 78.4, screening length: 8.12261 Bohr) occupying 0.498002 of unit cell:	Completed after 3 iterations at t[s]:   2579.60
	FillingsUpdate:  mu: -0.171300000  nElectrons: 227.875842  magneticMoment: [ Abs: 0.00001  Tot: -0.00000 ]
	SubspaceRotationAdjust: set factor to 0.341
ElecMinimize: Iter:   3  G: -2383.122650421262279  |grad|_K:  7.502e-07  alpha:  2.003e-01  linmin:  2.032e-07  t[s]:   2588.88
	Linear fluid (dielectric constant: 78.4, screening length: 8.12261 Bohr) occupying 0.498002 of unit cell:	Completed after 6 iterations at t[s]:   2597.42
	Linear fluid (dielectric constant: 78.4, screening length: 8.12261 Bohr) occupying 0.498002 of unit cell:	Completed after 2 iterations at t[s]:   2604.15
	FillingsUpdate:  mu: -0.171300000  nElectrons: 227.875852  magneticMoment: [ Abs: 0.00000  Tot: -0.00000 ]
	SubspaceRotationAdjust: set factor to 0.432
ElecMinimize: Iter:   4  G: -2383.122669122007665  |grad|_K:  6.029e-07  alpha:  1.706e-01  linmin:  1.094e-06  t[s]:   2613.39
	Linear fluid (dielectric constant: 78.4, screening length: 8.12261 Bohr) occupying 0.498001 of unit cell:	Completed after 6 iterations at t[s]:   2621.94
	Linear fluid (dielectric constant: 78.4, screening length: 8.12261 Bohr) occupying 0.498000 of unit cell:	Completed after 9 iterations at t[s]:   2628.90
	FillingsUpdate:  mu: -0.171300000  nElectrons: 227.875987  magneticMoment: [ Abs: 0.00000  Tot: -0.00000 ]
	SubspaceRotationAdjust: set factor to 0.471
ElecMinimize: Iter:   5  G: -2383.122698258146102  |grad|_K:  8.207e-07  alpha:  4.115e-01  linmin: -3.282e-07  t[s]:   2638.09
	Linear fluid (dielectric constant: 78.4, screening length: 8.12261 Bohr) occupying 0.497986 of unit cell:	Completed after 13 iterations at t[s]:   2646.87
	Linear fluid (dielectric constant: 78.4, screening length: 8.12261 Bohr) occupying 0.497996 of unit cell:	Completed after 13 iterations at t[s]:   2653.89
	FillingsUpdate:  mu: -0.171300000  nElectrons: 227.874801  magneticMoment: [ Abs: 0.00000  Tot: -0.00000 ]
	SubspaceRotationAdjust: set factor to 0.512
ElecMinimize: Iter:   6  G: -2383.122715527214950  |grad|_K:  4.473e-07  alpha:  1.317e-01  linmin:  4.556e-07  t[s]:   2663.26
	Linear fluid (dielectric constant: 78.4, screening length: 8.12261 Bohr) occupying 0.497996 of unit cell:	Completed after 11 iterations at t[s]:   2672.00
	Linear fluid (dielectric constant: 78.4, screening length: 8.12261 Bohr) occupying 0.497996 of unit cell:	Completed after 2 iterations at t[s]:   2678.65
	FillingsUpdate:  mu: -0.171300000  nElectrons: 227.876910  magneticMoment: [ Abs: 0.00000  Tot: -0.00000 ]
	SubspaceRotationAdjust: set factor to 0.454
ElecMinimize: Iter:   7  G: -2383.122720751821817  |grad|_K:  4.899e-07  alpha:  1.341e-01  linmin: -1.990e-05  t[s]:   2687.94
	Linear fluid (dielectric constant: 78.4, screening length: 8.12261 Bohr) occupying 0.497986 of unit cell:	Completed after 12 iterations at t[s]:   2696.84
	Linear fluid (dielectric constant: 78.4, screening length: 8.12261 Bohr) occupying 0.497987 of unit cell:	Completed after 6 iterations at t[s]:   2703.57
	FillingsUpdate:  mu: -0.171300000  nElectrons: 227.874449  magneticMoment: [ Abs: 0.00000  Tot: -0.00000 ]
	SubspaceRotationAdjust: set factor to 0.321
ElecMinimize: Iter:   8  G: -2383.122726824855363  |grad|_K:  5.098e-07  alpha:  1.296e-01  linmin:  1.802e-05  t[s]:   2712.78
	Linear fluid (dielectric constant: 78.4, screening length: 8.12261 Bohr) occupying 0.497981 of unit cell:	Completed after 11 iterations at t[s]:   2721.56
	Linear fluid (dielectric constant: 78.4, screening length: 8.12261 Bohr) occupying 0.497982 of unit cell:	Completed after 9 iterations at t[s]:   2728.45
	FillingsUpdate:  mu: -0.171300000  nElectrons: 227.876025  magneticMoment: [ Abs: 0.00000  Tot: -0.00000 ]
	SubspaceRotationAdjust: set factor to 0.346
ElecMinimize: Iter:   9  G: -2383.122731967107939  |grad|_K:  2.179e-07  alpha:  1.019e-01  linmin: -3.205e-06  t[s]:   2737.61
	Linear fluid (dielectric constant: 78.4, screening length: 8.12261 Bohr) occupying 0.497980 of unit cell:	Completed after 9 iterations at t[s]:   2746.28
	Linear fluid (dielectric constant: 78.4, screening length: 8.12261 Bohr) occupying 0.497977 of unit cell:	Completed after 9 iterations at t[s]:   2753.36
	FillingsUpdate:  mu: -0.171300000  nElectrons: 227.876705  magneticMoment: [ Abs: 0.00000  Tot: -0.00000 ]
	SubspaceRotationAdjust: set factor to 0.339
ElecMinimize: Iter:  10  G: -2383.122733771125240  |grad|_K:  2.074e-07  alpha:  1.948e-01  linmin: -1.969e-05  t[s]:   2762.63
	Linear fluid (dielectric constant: 78.4, screening length: 8.12261 Bohr) occupying 0.497968 of unit cell:	Completed after 11 iterations at t[s]:   2771.34
	Linear fluid (dielectric constant: 78.4, screening length: 8.12261 Bohr) occupying 0.497971 of unit cell:	Completed after 9 iterations at t[s]:   2778.27
	FillingsUpdate:  mu: -0.171300000  nElectrons: 227.875713  magneticMoment: [ Abs: 0.00000  Tot: -0.00000 ]
	SubspaceRotationAdjust: set factor to 0.241
ElecMinimize: Iter:  11  G: -2383.122734795904762  |grad|_K:  1.623e-07  alpha:  1.221e-01  linmin:  4.897e-06  t[s]:   2787.53
	Linear fluid (dielectric constant: 78.4, screening length: 8.12261 Bohr) occupying 0.497968 of unit cell:	Completed after 9 iterations at t[s]:   2796.19
	Linear fluid (dielectric constant: 78.4, screening length: 8.12261 Bohr) occupying 0.497967 of unit cell:	Completed after 7 iterations at t[s]:   2803.00
	FillingsUpdate:  mu: -0.171300000  nElectrons: 227.876290  magneticMoment: [ Abs: 0.00000  Tot: -0.00000 ]
	SubspaceRotationAdjust: set factor to 0.214
ElecMinimize: Iter:  12  G: -2383.122735580567678  |grad|_K:  1.383e-07  alpha:  1.530e-01  linmin: -2.441e-05  t[s]:   2812.25
	Linear fluid (dielectric constant: 78.4, screening length: 8.12261 Bohr) occupying 0.497961 of unit cell:	Completed after 6 iterations at t[s]:   2820.81
	Linear fluid (dielectric constant: 78.4, screening length: 8.12261 Bohr) occupying 0.497961 of unit cell:	Completed after 0 iterations at t[s]:   2827.35
	FillingsUpdate:  mu: -0.171300000  nElectrons: 227.876401  magneticMoment: [ Abs: 0.00000  Tot: -0.00000 ]
	SubspaceRotationAdjust: set factor to 0.246
ElecMinimize: Iter:  13  G: -2383.122736141015139  |grad|_K:  8.884e-08  alpha:  1.501e-01  linmin:  3.918e-05  t[s]:   2836.55
	Linear fluid (dielectric constant: 78.4, screening length: 8.12261 Bohr) occupying 0.497958 of unit cell:	Completed after 9 iterations at t[s]:   2845.22
	Linear fluid (dielectric constant: 78.4, screening length: 8.12261 Bohr) occupying 0.497958 of unit cell:	Completed after 2 iterations at t[s]:   2851.80
	FillingsUpdate:  mu: -0.171300000  nElectrons: 227.876144  magneticMoment: [ Abs: 0.00000  Tot: -0.00000 ]
	SubspaceRotationAdjust: set factor to 0.238
ElecMinimize: Iter:  14  G: -2383.122736327645271  |grad|_K:  6.629e-08  alpha:  1.209e-01  linmin:  7.030e-04  t[s]:   2860.98
	Linear fluid (dielectric constant: 78.4, screening length: 8.12261 Bohr) occupying 0.497956 of unit cell:	Completed after 2 iterations at t[s]:   2870.58
	Linear fluid (dielectric constant: 78.4, screening length: 8.12261 Bohr) occupying 0.497954 of unit cell:	Completed after 2 iterations at t[s]:   2877.13
	FillingsUpdate:  mu: -0.171300000  nElectrons: 227.876176  magneticMoment: [ Abs: 0.00000  Tot: -0.00000 ]
	SubspaceRotationAdjust: set factor to 0.271
ElecMinimize: Iter:  15  G: -2383.122736522953346  |grad|_K:  5.790e-08  alpha:  2.307e-01  linmin: -3.441e-04  t[s]:   2886.41
	Linear fluid (dielectric constant: 78.4, screening length: 8.12261 Bohr) occupying 0.497951 of unit cell:	Completed after 7 iterations at t[s]:   2894.97
	Linear fluid (dielectric constant: 78.4, screening length: 8.12261 Bohr) occupying 0.497952 of unit cell:	Completed after 2 iterations at t[s]:   2901.60
	FillingsUpdate:  mu: -0.171300000  nElectrons: 227.876268  magneticMoment: [ Abs: 0.00000  Tot: -0.00000 ]
	SubspaceRotationAdjust: set factor to 0.305
ElecMinimize: Iter:  16  G: -2383.122736607847401  |grad|_K:  4.384e-08  alpha:  1.296e-01  linmin:  1.883e-04  t[s]:   2910.88
	Linear fluid (dielectric constant: 78.4, screening length: 8.12261 Bohr) occupying 0.497951 of unit cell:	Completed after 6 iterations at t[s]:   2919.45
	Linear fluid (dielectric constant: 78.4, screening length: 8.12261 Bohr) occupying 0.497950 of unit cell:	Completed after 2 iterations at t[s]:   2926.07
	FillingsUpdate:  mu: -0.171300000  nElectrons: 227.876148  magneticMoment: [ Abs: 0.00000  Tot: -0.00000 ]
	SubspaceRotationAdjust: set factor to 0.326
ElecMinimize: Iter:  17  G: -2383.122736686536427  |grad|_K:  4.787e-08  alpha:  2.052e-01  linmin: -8.448e-04  t[s]:   2935.34
ElecMinimize: Converged (|Delta G|<1.000000e-07 for 2 iters).
Setting wave functions to eigenvectors of Hamiltonian
Converging empty states (this may take a while): |deigs|: 1.242e-07

Computing DFT-D3 correction:
# coordination-number Cu 5.371 6.831 9.123 9.136 9.132 7.614 7.614 9.131 9.136 9.123 6.832 5.372
# diagonal-C6 Cu 175.00 175.00 175.00 175.00 175.00 175.00 175.00 175.00 175.00 175.00 175.00 175.00
EvdW_6 =   -0.063955
EvdW_8 =   -0.098702

# Ionic positions in cartesian coordinates:
ion Cu  -0.000004824527908   0.001951538250801  15.807963540218520 1
ion Cu  -0.000006167226059   3.887381653131851   2.057241589063870 1
ion Cu  -0.000001990844082   7.792047081493783   4.808864214424434 1
ion Cu  -0.000009960498131  -0.000265621258756   7.575881966052520 1
ion Cu  -0.000000744378407   3.895195514857246  10.314027703652199 1
ion Cu   0.000019295694312   7.777916821947257  13.087925421197195 1
ion Cu   2.383314814225773   0.005961764054079   3.424323845524799 1
ion Cu   2.383309283549166   3.888663883217897   6.198186559469976 1
ion Cu   2.383313462834017   7.784128731841268   8.936302030409021 1
ion Cu   2.383293035289977  -0.008182921608866  11.702977885828746 1
ion Cu   2.383306377350435   3.896465884092361  14.454519640180623 1
ion Cu   2.383333418530904   7.781919669981078   0.704192603978099 1

# Forces in Cartesian coordinates:
force Cu   0.000003008295533   0.000695238224178  -0.004041061278612 1
force Cu  -0.000000550797247  -0.001156077045927  -0.001873226161442 1
force Cu  -0.000000940890834   0.002133722035944  -0.001684382955700 1
force Cu  -0.000000621330559  -0.000133339236357   0.001721232624951 1
force Cu   0.000002590793100   0.000776565922462  -0.000867879749574 1
force Cu   0.000003124229065  -0.001890298376540   0.004228238824221 1
force Cu   0.000005222429644   0.001900449519478  -0.004146495715789 1
force Cu  -0.000000112429960  -0.000761222697401   0.000882592763463 1
force Cu   0.000003635224438   0.000126699409068  -0.001688011164403 1
force Cu  -0.000004091587736  -0.002143658289104   0.001628341834973 1
force Cu  -0.000001003748187   0.001144923734626   0.001807617060048 1
force Cu   0.000006972922917  -0.000690786317926   0.004066285131144 1

# Energy components:
   A_diel =        0.0192814325936713
   Eewald =     9376.1892610320810491
       EH =    11589.8920639023890544
     Eloc =   -23843.0410632388557133
      Enl =      439.4807322068779740
     EvdW =       -0.1626564090612569
      Exc =     -232.8094167033856934
 Exc_core =        0.5635932730646575
       KE =      247.7004083068221973
  MuShift =        0.0101628617688344
-------------------------------------
     Etot =    -2422.1576333357033946
       TS =        0.0002875727580745
-------------------------------------
        F =    -2422.1579209084616195
      muN =      -39.0351842219252276
-------------------------------------
        G =    -2383.1227366865364274


Dumping 'jdft.fillings' ... done
Dumping 'jdft.wfns' ... done
Dumping 'jdft.fluidState' ... done
Dumping 'jdft.ionpos' ... done
Dumping 'jdft.lattice' ... done
Dumping 'jdft.eigenvals' ... done
Dumping 'jdft.eigStats' ... 
	eMin: -4.311775 at state 0 ( [ +0.000000 +0.000000 +0.000000 ] spin 1 )
	HOMO: -0.173559 at state 51 ( [ -0.166667 +0.200000 +0.000000 ] spin 1 )
	mu  : -0.171300
	LUMO: -0.171281 at state 96 ( [ -0.416667 +0.200000 +0.000000 ] spin -1 )
	eMax: +0.205550 at state 94 ( [ +0.500000 -0.200000 +0.000000 ] spin -1 )
	HOMO-LUMO gap: +0.002278
	Optical gap  : +0.007584 at state 29 ( [ +0.416667 -0.200000 +0.000000 ] spin 1 )
Dumping 'jdft.Ecomponents' ... done
IonicMinimize: Iter:   1  G: -2383.122736686536427  |grad|_K:  1.738e-03  alpha:  3.000e+00  linmin: -9.926e-01  t[s]:   2959.25

#--- Lowdin population analysis ---
# oxidation-state Cu +0.230 +0.108 +0.040 +0.069 +0.065 +0.065 +0.065 +0.065 +0.069 +0.040 +0.108 +0.230
# magnetic-moments Cu -0.000 +0.000 +0.000 +0.000 -0.000 -0.000 -0.000 -0.000 -0.000 -0.000 -0.000 -0.000


Computing DFT-D3 correction:
[...]
	FillingsUpdate:  mu: -0.171300000  nElectrons: 227.883844  magneticMoment: [ Abs: 0.00000  Tot: -0.00000 ]
	SubspaceRotationAdjust: set factor to 0.279
ElecMinimize: Iter:   8  G: -2383.123734887555202  |grad|_K:  1.182e-07  alpha:  2.186e-01  linmin:  6.728e-05  t[s]:   5822.16
	Linear fluid (dielectric constant: 78.4, screening length: 8.12261 Bohr) occupying 0.499167 of unit cell:	Completed after 10 iterations at t[s]:   5830.86
	Linear fluid (dielectric constant: 78.4, screening length: 8.12261 Bohr) occupying 0.499169 of unit cell:	Completed after 8 iterations at t[s]:   5837.65
	FillingsUpdate:  mu: -0.171300000  nElectrons: 227.883453  magneticMoment: [ Abs: 0.00000  Tot: -0.00000 ]
	SubspaceRotationAdjust: set factor to 0.247
ElecMinimize: Iter:   9  G: -2383.123735278342338  |grad|_K:  5.394e-08  alpha:  1.448e-01  linmin:  1.153e-05  t[s]:   5846.85
	Linear fluid (dielectric constant: 78.4, screening length: 8.12261 Bohr) occupying 0.499168 of unit cell:	Completed after 2 iterations at t[s]:   5855.17
	Linear fluid (dielectric constant: 78.4, screening length: 8.12261 Bohr) occupying 0.499168 of unit cell:	Completed after 0 iterations at t[s]:   5861.62
	FillingsUpdate:  mu: -0.171300000  nElectrons: 227.883471  magneticMoment: [ Abs: 0.00000  Tot: -0.00000 ]
	SubspaceRotationAdjust: set factor to 0.261
ElecMinimize: Iter:  10  G: -2383.123735363566993  |grad|_K:  4.574e-08  alpha:  1.507e-01  linmin: -4.876e-05  t[s]:   5872.03
	Linear fluid (dielectric constant: 78.4, screening length: 8.12261 Bohr) occupying 0.499167 of unit cell:	Completed after 6 iterations at t[s]:   5880.55
	Linear fluid (dielectric constant: 78.4, screening length: 8.12261 Bohr) occupying 0.499166 of unit cell:	Completed after 0 iterations at t[s]:   5887.01
	FillingsUpdate:  mu: -0.171300000  nElectrons: 227.883581  magneticMoment: [ Abs: 0.00000  Tot: -0.00000 ]
	SubspaceRotationAdjust: set factor to 0.26
ElecMinimize: Iter:  11  G: -2383.123735427743668  |grad|_K:  3.294e-08  alpha:  1.567e-01  linmin: -5.256e-06  t[s]:   5896.26
ElecMinimize: Converged (|Delta G|<1.000000e-07 for 2 iters).
Setting wave functions to eigenvectors of Hamiltonian
Converging empty states (this may take a while): |deigs|: 1.236e-08

Computing DFT-D3 correction:
# coordination-number Cu 5.544 6.859 9.093 9.035 9.011 7.558 7.556 9.010 9.036 9.095 6.861 5.543
# diagonal-C6 Cu 175.00 175.00 175.00 175.00 175.00 175.00 175.00 175.00 175.00 175.00 175.00 175.00
EvdW_6 =   -0.063907
EvdW_8 =   -0.098562

# Ionic positions in cartesian coordinates:
ion Cu  -0.000069384707349   0.020029697909503  15.727556625264507 1
ion Cu   0.000027510311615   3.882857970202351   2.011945191513490 1
ion Cu   0.000047723683080   7.845850210682931   4.813586582618447 1
ion Cu   0.000016667967050   0.008362508867684   7.574247181397562 1
ion Cu   0.000027313688889   3.889629933341100  10.325553912765942 1
ion Cu  -0.000064120829249   7.729938898507207  13.176303709778351 1
ion Cu   2.383272940832305   0.053983539559325   3.335578662186280 1
ion Cu   2.383332821361877   3.894558351736356   6.187423180887156 1
ion Cu   2.383338164951173   7.775671376500005   8.938301590516952 1
ion Cu   2.383271753286516  -0.062176881352810  11.698028736665345 1
ion Cu   2.383330480971353   3.900767057900038  14.499791096066451 1
ion Cu   2.383334128482739   7.763711336146312   0.784090530339515 1

# Forces in Cartesian coordinates:
force Cu  -0.000000970728474  -0.000143455285435  -0.000200909819955 1
force Cu  -0.000002184350065   0.000183698947626  -0.000005030970579 1
force Cu  -0.000002286139380   0.000107570998025   0.000037207962055 1
force Cu  -0.000000898163989   0.000068676474905   0.000103234058350 1
force Cu  -0.000000514750230  -0.000034159307553  -0.000384695449180 1
force Cu  -0.000000164399153  -0.000024522551307  -0.000021411817447 1
force Cu  -0.000000374879049   0.000005120123125  -0.000009154013987 1
force Cu  -0.000000259611418   0.000015692202111   0.000405912534290 1
force Cu   0.000000224737550  -0.000082641971157  -0.000112763424552 1
force Cu  -0.000001192873988  -0.000095588609709  -0.000065526174508 1
force Cu  -0.000000507436886  -0.000179859154248  -0.000030976115026 1
force Cu  -0.000001218812053   0.000136572969464   0.000150953091526 1

# Energy components:
   A_diel =        0.0181467563438848
   Eewald =     9362.2051156880843337
       EH =    11575.8574979206332500
     Eloc =   -23815.0129445515594853
      Enl =      439.4779886429961380
     EvdW =       -0.1624688177923588
      Exc =     -232.8095952737420475
 Exc_core =        0.5636132823211188
       KE =      247.6931817696832638
  MuShift =        0.0095529766348970
-------------------------------------
     Etot =    -2422.1599116063975998
       TS =        0.0002812267455104
-------------------------------------
        F =    -2422.1601928331429008
      muN =      -39.0364574053992399
-------------------------------------
        G =    -2383.1237354277436680


Dumping 'jdft.fillings' ... done
Dumping 'jdft.wfns' ... done
Dumping 'jdft.fluidState' ... done
Dumping 'jdft.ionpos' ... done
Dumping 'jdft.lattice' ... done
Dumping 'jdft.eigenvals' ... done
Dumping 'jdft.eigStats' ... 
	eMin: -4.311597 at state 60 ( [ +0.000000 +0.000000 +0.000000 ] spin -1 )
	HOMO: -0.171282 at state 26 ( [ +0.416667 +0.200000 +0.000000 ] spin 1 )
	mu  : -0.171300
	LUMO: -0.171064 at state 95 ( [ -0.416667 +0.000000 +0.000000 ] spin -1 )
	eMax: +0.205524 at state 90 ( [ +0.500000 +0.000000 +0.000000 ] spin -1 )
	HOMO-LUMO gap: +0.000218
	Optical gap  : +0.007404 at state 45 ( [ -0.250000 +0.000000 +0.000000 ] spin 1 )
Dumping 'jdft.Ecomponents' ... done
IonicMinimize: Iter:   6  G: -2383.123735427743668  |grad|_K:  1.230e-04  alpha:  1.000e+00  linmin: -3.893e-01  t[s]:   5919.90

#--- Lowdin population analysis ---
# oxidation-state Cu +0.221 +0.106 +0.039 +0.071 +0.069 +0.067 +0.067 +0.069 +0.071 +0.039 +0.106 +0.221
# magnetic-moments Cu +0.000 +0.000 -0.000 -0.000 -0.000 +0.000 -0.000 +0.000 +0.000 +0.000 -0.000 -0.000


Computing DFT-D3 correction:
# coordination-number Cu 5.550 6.857 9.096 9.039 9.018 7.557 7.554 9.014 9.040 9.099 6.859 5.550
# diagonal-C6 Cu 175.00 175.00 175.00 175.00 175.00 175.00 175.00 175.00 175.00 175.00 175.00 175.00
EvdW_6 =   -0.063916
EvdW_8 =   -0.098595
Shifting auxilliary hamiltonian by -0.000020 to set nElectrons=227.883581

-------- Electronic minimization -----------
	Linear fluid (dielectric constant: 78.4, screening length: 8.12261 Bohr) occupying 0.499255 of unit cell:	Completed after 8 iterations at t[s]:   5929.82
	FillingsUpdate:  mu: -0.171300000  nElectrons: 227.883581  magneticMoment: [ Abs: 0.00000  Tot: +0.00000 ]
ElecMinimize: Iter:   0  G: -2383.123698464110021  |grad|_K:  7.008e-07  alpha:  1.000e+00
	Linear fluid (dielectric constant: 78.4, screening length: 8.12261 Bohr) occupying 0.499277 of unit cell:	Completed after 15 iterations at t[s]:   5949.46
	Linear fluid (dielectric constant: 78.4, screening length: 8.12261 Bohr) occupying 0.499258 of unit cell:	Completed after 15 iterations at t[s]:   5956.59
	FillingsUpdate:  mu: -0.171300000  nElectrons: 227.884652  magneticMoment: [ Abs: 0.00000  Tot: +0.00000 ]
	SubspaceRotationAdjust: set factor to 0.266
ElecMinimize: Iter:   1  G: -2383.123711067572913  |grad|_K:  5.010e-07  alpha:  1.319e-01  linmin:  2.707e-05  t[s]:   5965.80
	Linear fluid (dielectric constant: 78.4, screening length: 8.12261 Bohr) occupying 0.499258 of unit cell:	Completed after 10 iterations at t[s]:   5974.54
	Linear fluid (dielectric constant: 78.4, screening length: 8.12261 Bohr) occupying 0.499257 of unit cell:	Completed after 10 iterations at t[s]:   5981.42
	FillingsUpdate:  mu: -0.171300000  nElectrons: 227.883133  magneticMoment: [ Abs: 0.00000  Tot: +0.00000 ]
	SubspaceRotationAdjust: set factor to 0.268
ElecMinimize: Iter:   2  G: -2383.123723582769799  |grad|_K:  3.897e-07  alpha:  2.560e-01  linmin: -3.088e-05  t[s]:   5990.62
	Linear fluid (dielectric constant: 78.4, screening length: 8.12261 Bohr) occupying 0.499261 of unit cell:	Completed after 11 iterations at t[s]:   5999.34
	Linear fluid (dielectric constant: 78.4, screening length: 8.12261 Bohr) occupying 0.499260 of unit cell:	Completed after 9 iterations at t[s]:   6006.17
	FillingsUpdate:  mu: -0.171300000  nElectrons: 227.884340  magneticMoment: [ Abs: 0.00000  Tot: +0.00000 ]
	SubspaceRotationAdjust: set factor to 0.258
ElecMinimize: Iter:   3  G: -2383.123728562177348  |grad|_K:  3.139e-07  alpha:  1.683e-01  linmin: -8.774e-07  t[s]:   6015.48
	Linear fluid (dielectric constant: 78.4, screening length: 8.12261 Bohr) occupying 0.499259 of unit cell:	Completed after 11 iterations at t[s]:   6024.35
	Linear fluid (dielectric constant: 78.4, screening length: 8.12261 Bohr) occupying 0.499259 of unit cell:	Completed after 6 iterations at t[s]:   6031.14
	FillingsUpdate:  mu: -0.171300000  nElectrons: 227.883469  magneticMoment: [ Abs: 0.00000  Tot: +0.00000 ]
	SubspaceRotationAdjust: set factor to 0.299
ElecMinimize: Iter:   4  G: -2383.123731383071117  |grad|_K:  1.945e-07  alpha:  1.470e-01  linmin:  1.059e-05  t[s]:   6040.34
	Linear fluid (dielectric constant: 78.4, screening length: 8.12261 Bohr) occupying 0.499260 of unit cell:	Completed after 8 iterations at t[s]:   6049.02
	Linear fluid (dielectric constant: 78.4, screening length: 8.12261 Bohr) occupying 0.499262 of unit cell:	Completed after 8 iterations at t[s]:   6055.95
	FillingsUpdate:  mu: -0.171300000  nElectrons: 227.883991  magneticMoment: [ Abs: 0.00000  Tot: +0.00000 ]
	SubspaceRotationAdjust: set factor to 0.324
ElecMinimize: Iter:   5  G: -2383.123733953044848  |grad|_K:  2.682e-07  alpha:  3.483e-01  linmin: -2.464e-05  t[s]:   6065.12
	Linear fluid (dielectric constant: 78.4, screening length: 8.12261 Bohr) occupying 0.499265 of unit cell:	Completed after 9 iterations at t[s]:   6073.73
	Linear fluid (dielectric constant: 78.4, screening length: 8.12261 Bohr) occupying 0.499264 of unit cell:	Completed after 9 iterations at t[s]:   6080.58
	FillingsUpdate:  mu: -0.171300000  nElectrons: 227.883755  magneticMoment: [ Abs: 0.00000  Tot: +0.00000 ]
	SubspaceRotationAdjust: set factor to 0.379
ElecMinimize: Iter:   6  G: -2383.123736501534040  |grad|_K:  1.526e-07  alpha:  1.813e-01  linmin:  9.221e-07  t[s]:   6089.84
	Linear fluid (dielectric constant: 78.4, screening length: 8.12261 Bohr) occupying 0.499265 of unit cell:	Completed after 9 iterations at t[s]:   6098.49
	Linear fluid (dielectric constant: 78.4, screening length: 8.12261 Bohr) occupying 0.499265 of unit cell:	Completed after 2 iterations at t[s]:   6105.10
	FillingsUpdate:  mu: -0.171300000  nElectrons: 227.884275  magneticMoment: [ Abs: 0.00000  Tot: +0.00000 ]
	SubspaceRotationAdjust: set factor to 0.397
ElecMinimize: Iter:   7  G: -2383.123737401079325  |grad|_K:  1.778e-07  alpha:  1.983e-01  linmin: -2.225e-05  t[s]:   6114.20
	Linear fluid (dielectric constant: 78.4, screening length: 8.12261 Bohr) occupying 0.499266 of unit cell:	Completed after 9 iterations at t[s]:   6122.86
	Linear fluid (dielectric constant: 78.4, screening length: 8.12261 Bohr) occupying 0.499266 of unit cell:	Completed after 7 iterations at t[s]:   6129.69
	FillingsUpdate:  mu: -0.171300000  nElectrons: 227.883561  magneticMoment: [ Abs: 0.00000  Tot: +0.00000 ]
	SubspaceRotationAdjust: set factor to 0.338
ElecMinimize: Iter:   8  G: -2383.123739017663411  |grad|_K:  1.396e-07  alpha:  2.622e-01  linmin:  4.281e-05  t[s]:   6138.96
	Linear fluid (dielectric constant: 78.4, screening length: 8.12261 Bohr) occupying 0.499269 of unit cell:	Completed after 11 iterations at t[s]:   6147.73
	Linear fluid (dielectric constant: 78.4, screening length: 8.12261 Bohr) occupying 0.499267 of unit cell:	Completed after 11 iterations at t[s]:   6154.68
	FillingsUpdate:  mu: -0.171300000  nElectrons: 227.884249  magneticMoment: [ Abs: 0.00000  Tot: +0.00000 ]
	SubspaceRotationAdjust: set factor to 0.223
ElecMinimize: Iter:   9  G: -2383.123739372952059  |grad|_K:  9.605e-08  alpha:  9.384e-02  linmin:  8.351e-07  t[s]:   6163.91
	Linear fluid (dielectric constant: 78.4, screening length: 8.12261 Bohr) occupying 0.499266 of unit cell:	Completed after 7 iterations at t[s]:   6173.60
	Linear fluid (dielectric constant: 78.4, screening length: 8.12261 Bohr) occupying 0.499266 of unit cell:	Completed after 7 iterations at t[s]:   6180.36
	FillingsUpdate:  mu: -0.171300000  nElectrons: 227.883982  magneticMoment: [ Abs: 0.00000  Tot: +0.00000 ]
	SubspaceRotationAdjust: set factor to 0.206
ElecMinimize: Iter:  10  G: -2383.123739688921432  |grad|_K:  7.465e-08  alpha:  1.753e-01  linmin: -5.431e-05  t[s]:   6189.56
	Linear fluid (dielectric constant: 78.4, screening length: 8.12261 Bohr) occupying 0.499265 of unit cell:	Completed after 2 iterations at t[s]:   6197.86
	Linear fluid (dielectric constant: 78.4, screening length: 8.12261 Bohr) occupying 0.499265 of unit cell:	Completed after 2 iterations at t[s]:   6204.54
	FillingsUpdate:  mu: -0.171300000  nElectrons: 227.883933  magneticMoment: [ Abs: 0.00000  Tot: +0.00000 ]
	SubspaceRotationAdjust: set factor to 0.216
ElecMinimize: Iter:  11  G: -2383.123739857370765  |grad|_K:  5.989e-08  alpha:  1.548e-01  linmin: -1.186e-05  t[s]:   6213.75
	Linear fluid (dielectric constant: 78.4, screening length: 8.12261 Bohr) occupying 0.499265 of unit cell:	Completed after 2 iterations at t[s]:   6222.14
	Linear fluid (dielectric constant: 78.4, screening length: 8.12261 Bohr) occupying 0.499265 of unit cell:	Completed after 3 iterations at t[s]:   6228.80
	FillingsUpdate:  mu: -0.171300000  nElectrons: 227.884077  magneticMoment: [ Abs: 0.00000  Tot: +0.00000 ]
	SubspaceRotationAdjust: set factor to 0.218
ElecMinimize: Iter:  12  G: -2383.123739995143296  |grad|_K:  5.165e-08  alpha:  1.980e-01  linmin:  1.586e-04  t[s]:   6237.99
	Linear fluid (dielectric constant: 78.4, screening length: 8.12261 Bohr) occupying 0.499263 of unit cell:	Completed after 6 iterations at t[s]:   6246.51
	Linear fluid (dielectric constant: 78.4, screening length: 8.12261 Bohr) occupying 0.499264 of unit cell:	Completed after 2 iterations at t[s]:   6253.04
	FillingsUpdate:  mu: -0.171300000  nElectrons: 227.884115  magneticMoment: [ Abs: 0.00000  Tot: +0.00000 ]
	SubspaceRotationAdjust: set factor to 0.228
ElecMinimize: Iter:  13  G: -2383.123740052122685  |grad|_K:  2.702e-08  alpha:  1.124e-01  linmin:  3.644e-05  t[s]:   6262.18
	Linear fluid (dielectric constant: 78.4, screening length: 8.12261 Bohr) occupying 0.499263 of unit cell:	Completed after 3 iterations at t[s]:   6270.59
	Linear fluid (dielectric constant: 78.4, screening length: 8.12261 Bohr) occupying 0.499263 of unit cell:	Completed after 6 iterations at t[s]:   6277.31
	FillingsUpdate:  mu: -0.171300000  nElectrons: 227.883997  magneticMoment: [ Abs: 0.00000  Tot: +0.00000 ]
	SubspaceRotationAdjust: set factor to 0.205
ElecMinimize: Iter:  14  G: -2383.123740080363405  |grad|_K:  2.509e-08  alpha:  2.057e-01  linmin:  7.108e-04  t[s]:   6286.45
ElecMinimize: Converged (|Delta G|<1.000000e-07 for 2 iters).
Setting wave functions to eigenvectors of Hamiltonian
Converging empty states (this may take a while): |deigs|: 3.186e-08

Computing DFT-D3 correction:
# coordination-number Cu 5.550 6.857 9.096 9.039 9.018 7.557 7.554 9.014 9.040 9.099 6.859 5.550
# diagonal-C6 Cu 175.00 175.00 175.00 175.00 175.00 175.00 175.00 175.00 175.00 175.00 175.00 175.00
EvdW_6 =   -0.063916
EvdW_8 =   -0.098595

# Ionic positions in cartesian coordinates:
ion Cu  -0.000088103394764   0.016743294955666  15.722808462663469 1
ion Cu   0.000015318901318   3.887277774531754   2.012463170955070 1
ion Cu   0.000032529822860   7.848761750321524   4.816634539247970 1
ion Cu   0.000024875451479   0.009565788665641   7.572313149879227 1
ion Cu   0.000034846231721   3.887080651292239  10.322640514523526 1
ion Cu  -0.000052231187288   7.727196155467198  13.177393117038379 1
ion Cu   2.383260927919042   0.056613389319778   3.333995949912031 1
ion Cu   2.383355259672981   3.896896402371334   6.191138033687415 1
ion Cu   2.383357278126613   7.774388494575643   8.940317391372250 1
ion Cu   2.383267096354768  -0.064818549642445  11.694983895654712 1
ion Cu   2.383347112611933   3.896562971337445  14.499349685621391 1
ion Cu   2.383311089489337   7.766915876804223   0.788369089444555 1

# Forces in Cartesian coordinates:
force Cu  -0.000000509069752  -0.000147457007336   0.000029327105081 1
force Cu  -0.000001917949922   0.000089340589584  -0.000024375984296 1
force Cu  -0.000001863260895   0.000024371561500  -0.000167221965511 1
force Cu  -0.000001542357348  -0.000026599881624   0.000094227839909 1
force Cu  -0.000000700771572   0.000044408322036   0.000034154118244 1
force Cu   0.000000085838975  -0.000058206386949   0.000049718144397 1
force Cu  -0.000000317691737   0.000061735591392  -0.000068284500996 1
force Cu  -0.000001261110217  -0.000048510168555  -0.000052817775517 1
force Cu  -0.000000857765664   0.000013877651391  -0.000109847628574 1
force Cu  -0.000000607670178  -0.000046965770031   0.000141379771243 1
force Cu  -0.000001188350863  -0.000092762551463  -0.000001592763423 1
force Cu  -0.000000991871757   0.000141558394060  -0.000076907514899 1

# Energy components:
   A_diel =        0.0180879813349575
   Eewald =     9365.6076433220478066
       EH =    11579.2419963626198296
     Eloc =   -23821.7996536957216449
      Enl =      439.4770842988795607
     EvdW =       -0.1625111231461038
      Exc =     -232.8101858343134154
 Exc_core =        0.5636144885479558
       KE =      247.6944172424130670
  MuShift =        0.0095188693857812
-------------------------------------
     Etot =    -2422.1599880879525699
       TS =        0.0002805993912543
-------------------------------------
        F =    -2422.1602686873438870
      muN =      -39.0365286069804895
-------------------------------------
        G =    -2383.1237400803634046


Dumping 'jdft.fillings' ... done
Dumping 'jdft.wfns' ... done
Dumping 'jdft.fluidState' ... done
Dumping 'jdft.ionpos' ... done
Dumping 'jdft.lattice' ... done
Dumping 'jdft.eigenvals' ... done
Dumping 'jdft.eigStats' ... 
	eMin: -4.311685 at state 0 ( [ +0.000000 +0.000000 +0.000000 ] spin 1 )
	HOMO: -0.171361 at state 39 ( [ -0.416667 -0.200000 +0.000000 ] spin 1 )
	mu  : -0.171300
	LUMO: -0.171100 at state 85 ( [ +0.416667 +0.000000 +0.000000 ] spin -1 )
	eMax: +0.205577 at state 90 ( [ +0.500000 +0.000000 +0.000000 ] spin -1 )
	HOMO-LUMO gap: +0.000262
	Optical gap  : +0.007396 at state 15 ( [ +0.250000 +0.000000 +0.000000 ] spin 1 )
Dumping 'jdft.Ecomponents' ... done
IonicMinimize: Iter:   7  G: -2383.123740080363405  |grad|_K:  6.643e-05  alpha:  1.000e+00  linmin: -1.091e-03  t[s]:   6310.19
IonicMinimize: Converged (|grad|_K<1.000000e-04).

#--- Lowdin population analysis ---
# oxidation-state Cu +0.221 +0.106 +0.039 +0.070 +0.069 +0.067 +0.067 +0.069 +0.070 +0.039 +0.106 +0.221
# magnetic-moments Cu +0.000 +0.000 +0.000 -0.000 +0.000 +0.000 -0.000 -0.000 +0.000 -0.000 -0.000 -0.000


Dumping 'jdft.n_up' ... done
Dumping 'jdft.n_dn' ... done
Dumping 'jdft.tau_up' ... done
Dumping 'jdft.tau_dn' ... done
Dumping 'jdft.eigenvals' ... done
Dumping 'jdft.eigStats' ... 
	eMin: -4.311685 at state 0 ( [ +0.000000 +0.000000 +0.000000 ] spin 1 )
	HOMO: -0.171361 at state 39 ( [ -0.416667 -0.200000 +0.000000 ] spin 1 )
	mu  : -0.171300
	LUMO: -0.171100 at state 85 ( [ +0.416667 +0.000000 +0.000000 ] spin -1 )
	eMax: +0.205577 at state 90 ( [ +0.500000 +0.000000 +0.000000 ] spin -1 )
	HOMO-LUMO gap: +0.000262
	Optical gap  : +0.007396 at state 15 ( [ +0.250000 +0.000000 +0.000000 ] spin 1 )
Dumping 'jdft.kPts' ... done
Dumping 'jdft.dosUp' ... done.
Dumping 'jdft.dosDn' ... done.
End date and time: Mon Dec  6 17:39:39 2021  (Duration: 0-1:45:27.60)
Done!
