
*************** JDFTx 1.6.0  ***************

Start date and time: Mon Dec  6 15:25:59 2021
Executable /projects/musgravc/apps/jdftx-1.6.1/build/jdftx with command-line: -i in
Running on hosts (process indices):  shas0434.rc.int.colorado.edu (0-23)
Divided in process groups (process indices):  0 (0)  1 (1)  2 (2)  3 (3)  4 (4)  5 (5)  6 (6)  7 (7)  8 (8)  9 (9)  10 (10)  11 (11)  12 (12)  13 (13)  14 (14)  15 (15)  16 (16)  17 (17)  18 (18)  19 (19)  20 (20)  21 (21)  22 (22)  23 (23)
Resource initialization completed at t[s]:      0.00
Run totals: 24 processes, 24 threads, 0 GPUs


Input parsed successfully to the following command list (including defaults):

basis kpoint-dependent
converge-empty-states yes
coords-type Cartesian
core-overlap-check none
coulomb-interaction Periodic
davidson-band-ratio 1.1
density-of-states Etol 1.000000e-06 Esigma 1.000000e-03 \
		Complete \
	Total \
	OrthoOrbital Cu 1   s \
	OrthoOrbital Cu 1   p \
	OrthoOrbital Cu 1   px \
	OrthoOrbital Cu 1   py \
	OrthoOrbital Cu 1   pz \
	OrthoOrbital Cu 1   d \
	OrthoOrbital Cu 1   dxy \
	OrthoOrbital Cu 1   dyz \
	OrthoOrbital Cu 1   dz2 \
	OrthoOrbital Cu 1   dxz \
	OrthoOrbital Cu 1   dx2-y2 \
	OrthoOrbital Cu 2   s \
	OrthoOrbital Cu 2   p \
	OrthoOrbital Cu 2   px \
	OrthoOrbital Cu 2   py \
	OrthoOrbital Cu 2   pz \
	OrthoOrbital Cu 2   d \
	OrthoOrbital Cu 2   dxy \
	OrthoOrbital Cu 2   dyz \
	OrthoOrbital Cu 2   dz2 \
	OrthoOrbital Cu 2   dxz \
	OrthoOrbital Cu 2   dx2-y2 \
	OrthoOrbital Cu 3   s \
	OrthoOrbital Cu 3   p \
	OrthoOrbital Cu 3   px \
	OrthoOrbital Cu 3   py \
	OrthoOrbital Cu 3   pz \
	OrthoOrbital Cu 3   d \
	OrthoOrbital Cu 3   dxy \
	OrthoOrbital Cu 3   dyz \
	OrthoOrbital Cu 3   dz2 \
	OrthoOrbital Cu 3   dxz \
	OrthoOrbital Cu 3   dx2-y2 \
	OrthoOrbital Cu 4   s \
	OrthoOrbital Cu 4   p \
	OrthoOrbital Cu 4   px \
	OrthoOrbital Cu 4   py \
	OrthoOrbital Cu 4   pz \
	OrthoOrbital Cu 4   d \
	OrthoOrbital Cu 4   dxy \
	OrthoOrbital Cu 4   dyz \
	OrthoOrbital Cu 4   dz2 \
	OrthoOrbital Cu 4   dxz \
	OrthoOrbital Cu 4   dx2-y2 \
	OrthoOrbital Cu 5   s \
	OrthoOrbital Cu 5   p \
	OrthoOrbital Cu 5   px \
	OrthoOrbital Cu 5   py \
	OrthoOrbital Cu 5   pz \
	OrthoOrbital Cu 5   d \
	OrthoOrbital Cu 5   dxy \
	OrthoOrbital Cu 5   dyz \
	OrthoOrbital Cu 5   dz2 \
	OrthoOrbital Cu 5   dxz \
	OrthoOrbital Cu 5   dx2-y2 \
	OrthoOrbital Cu 6   s \
	OrthoOrbital Cu 6   p \
	OrthoOrbital Cu 6   px \
	OrthoOrbital Cu 6   py \
	OrthoOrbital Cu 6   pz \
	OrthoOrbital Cu 6   d \
	OrthoOrbital Cu 6   dxy \
	OrthoOrbital Cu 6   dyz \
	OrthoOrbital Cu 6   dz2 \
	OrthoOrbital Cu 6   dxz \
	OrthoOrbital Cu 6   dx2-y2 \
	OrthoOrbital Cu 7   s \
	OrthoOrbital Cu 7   p \
	OrthoOrbital Cu 7   px \
	OrthoOrbital Cu 7   py \
	OrthoOrbital Cu 7   pz \
	OrthoOrbital Cu 7   d \
	OrthoOrbital Cu 7   dxy \
	OrthoOrbital Cu 7   dyz \
	OrthoOrbital Cu 7   dz2 \
	OrthoOrbital Cu 7   dxz \
	OrthoOrbital Cu 7   dx2-y2 \
	OrthoOrbital Cu 8   s \
	OrthoOrbital Cu 8   p \
	OrthoOrbital Cu 8   px \
	OrthoOrbital Cu 8   py \
	OrthoOrbital Cu 8   pz \
	OrthoOrbital Cu 8   d \
	OrthoOrbital Cu 8   dxy \
	OrthoOrbital Cu 8   dyz \
	OrthoOrbital Cu 8   dz2 \
	OrthoOrbital Cu 8   dxz \
	OrthoOrbital Cu 8   dx2-y2 \
	OrthoOrbital Cu 9   s \
	OrthoOrbital Cu 9   p \
	OrthoOrbital Cu 9   px \
	OrthoOrbital Cu 9   py \
	OrthoOrbital Cu 9   pz \
	OrthoOrbital Cu 9   d \
	OrthoOrbital Cu 9   dxy \
	OrthoOrbital Cu 9   dyz \
	OrthoOrbital Cu 9   dz2 \
	OrthoOrbital Cu 9   dxz \
	OrthoOrbital Cu 9   dx2-y2 \
	OrthoOrbital Cu 10   s \
	OrthoOrbital Cu 10   p \
	OrthoOrbital Cu 10   px \
	OrthoOrbital Cu 10   py \
	OrthoOrbital Cu 10   pz \
	OrthoOrbital Cu 10   d \
	OrthoOrbital Cu 10   dxy \
	OrthoOrbital Cu 10   dyz \
	OrthoOrbital Cu 10   dz2 \
	OrthoOrbital Cu 10   dxz \
	OrthoOrbital Cu 10   dx2-y2 \
	OrthoOrbital Cu 11   s \
	OrthoOrbital Cu 11   p \
	OrthoOrbital Cu 11   px \
	OrthoOrbital Cu 11   py \
	OrthoOrbital Cu 11   pz \
	OrthoOrbital Cu 11   d \
	OrthoOrbital Cu 11   dxy \
	OrthoOrbital Cu 11   dyz \
	OrthoOrbital Cu 11   dz2 \
	OrthoOrbital Cu 11   dxz \
	OrthoOrbital Cu 11   dx2-y2 \
	OrthoOrbital Cu 12   s \
	OrthoOrbital Cu 12   p \
	OrthoOrbital Cu 12   px \
	OrthoOrbital Cu 12   py \
	OrthoOrbital Cu 12   pz \
	OrthoOrbital Cu 12   d \
	OrthoOrbital Cu 12   dxy \
	OrthoOrbital Cu 12   dyz \
	OrthoOrbital Cu 12   dz2 \
	OrthoOrbital Cu 12   dxz \
	OrthoOrbital Cu 12   dx2-y2 \
	OrthoOrbital Cu 13   s \
	OrthoOrbital Cu 13   p \
	OrthoOrbital Cu 13   px \
	OrthoOrbital Cu 13   py \
	OrthoOrbital Cu 13   pz \
	OrthoOrbital Cu 13   d \
	OrthoOrbital Cu 13   dxy \
	OrthoOrbital Cu 13   dyz \
	OrthoOrbital Cu 13   dz2 \
	OrthoOrbital Cu 13   dxz \
	OrthoOrbital Cu 13   dx2-y2 \
	OrthoOrbital Cu 14   s \
	OrthoOrbital Cu 14   p \
	OrthoOrbital Cu 14   px \
	OrthoOrbital Cu 14   py \
	OrthoOrbital Cu 14   pz \
	OrthoOrbital Cu 14   d \
	OrthoOrbital Cu 14   dxy \
	OrthoOrbital Cu 14   dyz \
	OrthoOrbital Cu 14   dz2 \
	OrthoOrbital Cu 14   dxz \
	OrthoOrbital Cu 14   dx2-y2 \
	OrthoOrbital Cu 15   s \
	OrthoOrbital Cu 15   p \
	OrthoOrbital Cu 15   px \
	OrthoOrbital Cu 15   py \
	OrthoOrbital Cu 15   pz \
	OrthoOrbital Cu 15   d \
	OrthoOrbital Cu 15   dxy \
	OrthoOrbital Cu 15   dyz \
	OrthoOrbital Cu 15   dz2 \
	OrthoOrbital Cu 15   dxz \
	OrthoOrbital Cu 15   dx2-y2 \
	OrthoOrbital Cu 16   s \
	OrthoOrbital Cu 16   p \
	OrthoOrbital Cu 16   px \
	OrthoOrbital Cu 16   py \
	OrthoOrbital Cu 16   pz \
	OrthoOrbital Cu 16   d \
	OrthoOrbital Cu 16   dxy \
	OrthoOrbital Cu 16   dyz \
	OrthoOrbital Cu 16   dz2 \
	OrthoOrbital Cu 16   dxz \
	OrthoOrbital Cu 16   dx2-y2 \
	OrthoOrbital Cu 17   s \
	OrthoOrbital Cu 17   p \
	OrthoOrbital Cu 17   px \
	OrthoOrbital Cu 17   py \
	OrthoOrbital Cu 17   pz \
	OrthoOrbital Cu 17   d \
	OrthoOrbital Cu 17   dxy \
	OrthoOrbital Cu 17   dyz \
	OrthoOrbital Cu 17   dz2 \
	OrthoOrbital Cu 17   dxz \
	OrthoOrbital Cu 17   dx2-y2 \
	OrthoOrbital Cu 18   s \
	OrthoOrbital Cu 18   p \
	OrthoOrbital Cu 18   px \
	OrthoOrbital Cu 18   py \
	OrthoOrbital Cu 18   pz \
	OrthoOrbital Cu 18   d \
	OrthoOrbital Cu 18   dxy \
	OrthoOrbital Cu 18   dyz \
	OrthoOrbital Cu 18   dz2 \
	OrthoOrbital Cu 18   dxz \
	OrthoOrbital Cu 18   dx2-y2 \
	OrthoOrbital Cu 19   s \
	OrthoOrbital Cu 19   p \
	OrthoOrbital Cu 19   px \
	OrthoOrbital Cu 19   py \
	OrthoOrbital Cu 19   pz \
	OrthoOrbital Cu 19   d \
	OrthoOrbital Cu 19   dxy \
	OrthoOrbital Cu 19   dyz \
	OrthoOrbital Cu 19   dz2 \
	OrthoOrbital Cu 19   dxz \
	OrthoOrbital Cu 19   dx2-y2 \
	OrthoOrbital Cu 20   s \
	OrthoOrbital Cu 20   p \
	OrthoOrbital Cu 20   px \
	OrthoOrbital Cu 20   py \
	OrthoOrbital Cu 20   pz \
	OrthoOrbital Cu 20   d \
	OrthoOrbital Cu 20   dxy \
	OrthoOrbital Cu 20   dyz \
	OrthoOrbital Cu 20   dz2 \
	OrthoOrbital Cu 20   dxz \
	OrthoOrbital Cu 20   dx2-y2 \
	OrthoOrbital Cu 21   s \
	OrthoOrbital Cu 21   p \
	OrthoOrbital Cu 21   px \
	OrthoOrbital Cu 21   py \
	OrthoOrbital Cu 21   pz \
	OrthoOrbital Cu 21   d \
	OrthoOrbital Cu 21   dxy \
	OrthoOrbital Cu 21   dyz \
	OrthoOrbital Cu 21   dz2 \
	OrthoOrbital Cu 21   dxz \
	OrthoOrbital Cu 21   dx2-y2 \
	OrthoOrbital Cu 22   s \
	OrthoOrbital Cu 22   p \
	OrthoOrbital Cu 22   px \
	OrthoOrbital Cu 22   py \
	OrthoOrbital Cu 22   pz \
	OrthoOrbital Cu 22   d \
	OrthoOrbital Cu 22   dxy \
	OrthoOrbital Cu 22   dyz \
	OrthoOrbital Cu 22   dz2 \
	OrthoOrbital Cu 22   dxz \
	OrthoOrbital Cu 22   dx2-y2 \
	OrthoOrbital Cu 23   s \
	OrthoOrbital Cu 23   p \
	OrthoOrbital Cu 23   px \
	OrthoOrbital Cu 23   py \
	OrthoOrbital Cu 23   pz \
	OrthoOrbital Cu 23   d \
	OrthoOrbital Cu 23   dxy \
	OrthoOrbital Cu 23   dyz \
	OrthoOrbital Cu 23   dz2 \
	OrthoOrbital Cu 23   dxz \
	OrthoOrbital Cu 23   dx2-y2 \
	OrthoOrbital Cu 24   s \
	OrthoOrbital Cu 24   p \
	OrthoOrbital Cu 24   px \
	OrthoOrbital Cu 24   py \
	OrthoOrbital Cu 24   pz \
	OrthoOrbital Cu 24   d \
	OrthoOrbital Cu 24   dxy \
	OrthoOrbital Cu 24   dyz \
	OrthoOrbital Cu 24   dz2 \
	OrthoOrbital Cu 24   dxz \
	OrthoOrbital Cu 24   dx2-y2 \
	OrthoOrbital Cu 25   s \
	OrthoOrbital Cu 25   p \
	OrthoOrbital Cu 25   px \
	OrthoOrbital Cu 25   py \
	OrthoOrbital Cu 25   pz \
	OrthoOrbital Cu 25   d \
	OrthoOrbital Cu 25   dxy \
	OrthoOrbital Cu 25   dyz \
	OrthoOrbital Cu 25   dz2 \
	OrthoOrbital Cu 25   dxz \
	OrthoOrbital Cu 25   dx2-y2 \
	OrthoOrbital Cu 26   s \
	OrthoOrbital Cu 26   p \
	OrthoOrbital Cu 26   px \
	OrthoOrbital Cu 26   py \
	OrthoOrbital Cu 26   pz \
	OrthoOrbital Cu 26   d \
	OrthoOrbital Cu 26   dxy \
	OrthoOrbital Cu 26   dyz \
	OrthoOrbital Cu 26   dz2 \
	OrthoOrbital Cu 26   dxz \
	OrthoOrbital Cu 26   dx2-y2
dump End ElecDensity KEdensity BandEigs EigStats RhoAtom DOS Kpoints
dump Ionic State IonicPositions Lattice EigStats Ecomponents
dump 
dump 
dump 
dump 
dump 
dump 
dump 
dump 
dump-name jdft.$VAR
elec-cutoff 20
elec-eigen-algo Davidson
elec-ex-corr gga-PBE
elec-initial-magnetization 0.000000 no
elec-n-bands 297
elec-smearing Fermi 0.001
electronic-minimize  \
	dirUpdateScheme      FletcherReeves \
	linminMethod         DirUpdateRecommended \
	nIterations          100 \
	history              15 \
	knormThreshold       0 \
	energyDiffThreshold  1e-07 \
	nEnergyDiff          2 \
	alphaTstart          1 \
	alphaTmin            1e-10 \
	updateTestStepSize   yes \
	alphaTreduceFactor   0.1 \
	alphaTincreaseFactor 3 \
	nAlphaAdjustMax      3 \
	wolfeEnergy          0.0001 \
	wolfeGradient        0.9 \
	fdTest               no
exchange-regularization WignerSeitzTruncated
fluid LinearPCM 298.000000 1.013250
fluid-anion F- 0.5 MeanFieldLJ \
	epsBulk 1 \
	pMol 0 \
	epsInf 1 \
	Pvap 0 \
	sigmaBulk 0 \
	Rvdw 2.24877 \
	Res 0 \
	tauNuc 343133
fluid-cation Na+ 0.5 MeanFieldLJ \
	epsBulk 1 \
	pMol 0 \
	epsInf 1 \
	Pvap 0 \
	sigmaBulk 0 \
	Rvdw 2.19208 \
	Res 0 \
	tauNuc 343133
fluid-ex-corr lda-TF lda-PZ
fluid-gummel-loop 10 1.000000e-05
fluid-minimize  \
	dirUpdateScheme      PolakRibiere \
	linminMethod         DirUpdateRecommended \
	nIterations          400 \
	history              15 \
	knormThreshold       1e-11 \
	energyDiffThreshold  0 \
	nEnergyDiff          2 \
	alphaTstart          1 \
	alphaTmin            1e-10 \
	updateTestStepSize   yes \
	alphaTreduceFactor   0.1 \
	alphaTincreaseFactor 3 \
	nAlphaAdjustMax      6 \
	wolfeEnergy          0.0001 \
	wolfeGradient        0.9 \
	fdTest               no
fluid-solvent H2O 55.338 ScalarEOS \
	epsBulk 78.4 \
	pMol 0.92466 \
	epsInf 1.77 \
	Pvap 1.06736e-10 \
	sigmaBulk 4.62e-05 \
	Rvdw 2.61727 \
	Res 1.42 \
	tauNuc 343133 \
	poleEl 15 7 1
forces-output-coords Positions
ion Cu  -0.000003000000000   9.348120000000000  21.968073000000000 1
ion Cu   0.000000000000000   3.739243000000000  18.228829000000001 1
ion Cu   3.370512000000001   6.543688000000000  20.098451000000001 1
ion Cu   3.370515000000000   0.934811000000000  16.359207999999999 1
ion Cu  -0.000003000000000   7.478499000000001  12.619964000000000 1
ion Cu   0.000000000000000   1.869622000000000   8.880720999999999 1
ion Cu   3.370512000000000  10.282931000000001  14.489585999999999 1
ion Cu   3.370515000000000   4.674054000000000  10.750343000000001 1
ion Cu  -0.000003000000000  11.217741999999999   7.011099000000000 1
ion Cu   0.000000000000000   5.608865000000001   3.271856000000000 1
ion Cu   0.000000000000000   0.000000000000000  23.837693999999999 1
ion Cu   3.370512000000000   8.413310000000001   5.141478000000000 1
ion Cu   3.370515000000000   2.804432000000000   1.402234000000000 1
ion Cu   3.370508000000000  11.217741999999999  19.163676999999996 1
ion Cu   3.370512000000000   5.608865000000001  15.424359999999998 1
ion Cu   0.000000000000000   8.413310000000001  17.293982000000000 1
ion Cu   0.000003000000000   2.804432000000000  13.554738999999998 1
ion Cu   3.370508000000000   9.348120000000000   9.815495000000000 1
ion Cu   3.370512000000001   3.739243000000000   6.076251999999999 1
ion Cu   3.370512000000000   0.000000000000000  11.685116999999998 1
ion Cu   0.000000000000000   6.543688000000000   7.945874000000000 1
ion Cu   0.000003000000000   0.934811000000000   4.206630000000000 1
ion Cu   3.370508000000000   7.478499000000001   0.467387000000000 1
ion Cu   3.370512000000001   1.869622000000000  21.033297999999995 1
ion Cu   0.000000000000000  10.282931000000001   2.337009000000000 1
ion Cu   0.000003000000000   4.674054000000000  22.902920000000002 1
ion-species /projects/musgravc/apps/jdftx-1.6.0/build/pseudopotentials/GBRV_v1.5/$ID_pbe_v1.uspp
ion-species /projects/musgravc/apps/jdftx-1.6.0/build/pseudopotentials/GBRV_v1.5/$ID_pbe_v1.2.uspp
ion-species /projects/musgravc/apps/jdftx-1.6.0/build/pseudopotentials/GBRV_v1.5/$ID_pbe_v1.4.uspp
ion-species /projects/musgravc/apps/jdftx-1.6.0/build/pseudopotentials/GBRV_v1.5/$ID_pbe_v1.5.uspp
ion-width Ecut
ionic-minimize  \
	dirUpdateScheme      L-BFGS \
	linminMethod         DirUpdateRecommended \
	nIterations          100 \
	history              15 \
	knormThreshold       0.0001 \
	energyDiffThreshold  1e-06 \
	nEnergyDiff          2 \
	alphaTstart          1 \
	alphaTmin            1e-10 \
	updateTestStepSize   yes \
	alphaTreduceFactor   0.1 \
	alphaTincreaseFactor 3 \
	nAlphaAdjustMax      3 \
	wolfeEnergy          0.0001 \
	wolfeGradient        0.9 \
	fdTest               no
kpoint   0.000000000000   0.000000000000   0.000000000000  1.00000000000000
kpoint-folding 9 4 1 
latt-move-scale 0 0 0
latt-scale 1 1 1 
lattice  \
	   6.741023000000000   -3.370512000000000    0.000000000000000  \
	   0.000000000000000   12.152552999999999    0.000000000000000  \
	   0.000000000000000    0.000000000000000   72.915317000000002 
lattice-minimize  \
	dirUpdateScheme      L-BFGS \
	linminMethod         DirUpdateRecommended \
	nIterations          0 \
	history              15 \
	knormThreshold       0 \
	energyDiffThreshold  1e-06 \
	nEnergyDiff          2 \
	alphaTstart          1 \
	alphaTmin            1e-10 \
	updateTestStepSize   yes \
	alphaTreduceFactor   0.1 \
	alphaTincreaseFactor 3 \
	nAlphaAdjustMax      3 \
	wolfeEnergy          0.0001 \
	wolfeGradient        0.9 \
	fdTest               no
lcao-params 30 1e-06 0.001
pcm-variant CANDLE
spintype z-spin
subspace-rotation-factor 1 yes
symmetries none
symmetry-threshold 0.0001
van-der-waals D3


Applied RMS atom displacement 0 bohrs to make symmetries exact.

---------- Initializing the Grid ----------
R = 
[      6.74102     -3.37051            0  ]
[            0      12.1526            0  ]
[            0            0      72.9153  ]
unit cell volume = 5973.27
G =
[   0.932082   0.258513         -0  ]
[          0   0.517026          0  ]
[          0         -0   0.086171  ]
Minimum fftbox size, Smin = [  28  52  296  ]
Chosen fftbox size, S = [  28  54  300  ]

---------- Exchange Correlation functional ----------
Initalized PBE GGA exchange.
Initalized PBE GGA correlation.

---------- Setting up pseudopotentials ----------
Width of ionic core gaussian charges (only for fluid interactions / plotting) set to 0.397384

Reading pseudopotential file '/projects/musgravc/apps/jdftx-1.6.0/build/pseudopotentials/GBRV_v1.5/cu_pbe_v1.2.uspp':
  Title: Cu.  Created by USPP 7.3.6 on 3-2-2014
  Reference state energy: -201.059491.  19 valence electrons in orbitals:
    |300>  occupation: 2  eigenvalue: -5.020764
    |310>  occupation: 6  eigenvalue: -3.445588
    |320>  occupation: 8  eigenvalue: -0.925168
    |400>  occupation: 2  eigenvalue: -0.567638
    |410>  occupation: 0  eigenvalue: -0.326154
  lMax: 2  lLocal: 3  QijEcut: 6
  6 projectors sampled on a log grid with 613 points:
    l: 0  eig: -5.020767  rCut: 1.4
    l: 0  eig: -0.567640  rCut: 1.4
    l: 1  eig: -3.445589  rCut: 1.55
    l: 1  eig: -0.326157  rCut: 1.55
    l: 2  eig: -0.925170  rCut: 1.5
    l: 2  eig: 1.500000  rCut: 1.5
  Partial core density with radius 0.8
  Transforming core density to a uniform radial grid of dG=0.02 with 1277 points.
  Transforming local potential to a uniform radial grid of dG=0.02 with 1277 points.
  Transforming nonlocal projectors to a uniform radial grid of dG=0.02 with 432 points.
  Transforming density augmentations to a uniform radial grid of dG=0.02 with 1277 points.
  Transforming atomic orbitals to a uniform radial grid of dG=0.02 with 432 points.
  Core radius for overlap checks: 1.55 bohrs.

Initialized 1 species with 26 total atoms.

Folded 1 k-points by 9x4x1 to 36 k-points.

---------- Setting up k-points, bands, fillings ----------
No reducable k-points. 
Computing the number of bands and number of electrons
Calculating initial fillings.
nElectrons: 494.000000   nBands: 297   nStates: 72

----- Setting up reduced wavefunction bases (one per k-point) -----
average nbasis = 25520.806 , ideal nbasis = 25518.262

----- Initializing Supercell corresponding to k-point mesh -----
Lattice vector linear combinations in supercell:
[   9   0   0  ]
[   0   4   0  ]
[   0   0   1  ]
Supercell lattice vectors:
[  60.6692  -13.482  0  ]
[  0  48.6102  0  ]
[  0  0  72.9153  ]

Initializing DFT-D3 calculator:
	Parameters set for gga-PBE functional
	s6:  1.000  s_r6:  1.217
	s8:  0.722  s_r8:  1.000
	Per-atom parameters loaded for:
	Cu:  sqrtQ[a0]:  5.226  Rcov[a0]:  1.909  CN: [ 0.00 0.96 ]

Initializing DFT-D2 calculator for fluid / solvation:
	Cu:  C6:  187.33 Eh-a0^6  R0: 2.952 a0

---------- Setting up ewald sum ----------
Optimum gaussian width for ewald sums = 4.205509 bohr.
Real space sum over 935 unit cells with max indices [  8  5  2  ]
Reciprocal space sum over 6669 terms with max indices [  4  6  28  ]

Computing DFT-D3 correction:
# coordination-number Cu 6.854 9.148 8.375 9.157 9.160 9.158 9.159 9.160 9.153 8.350 4.602 9.127 5.358 9.127 9.158 9.153 9.160 9.159 9.148 9.160 9.157 8.375 4.602 8.350 6.854 5.358
# diagonal-C6 Cu 175.00 175.00 175.00 175.00 175.00 175.00 175.00 175.00 175.00 175.00 175.00 175.00 175.00 175.00 175.00 175.00 175.00 175.00 175.00 175.00 175.00 175.00 175.00 175.00 175.00 175.00
EvdW_6 =   -0.161310
EvdW_8 =   -0.239379

---------- Allocating electronic variables ----------
Initializing wave functions:  linear combination of atomic orbitals
Cu pseudo-atom occupations:   s ( 2 1 )  p ( 6 0 )  d ( 10 )
	FillingsUpdate:  mu: -4.123431002  nElectrons: 494.000000  magneticMoment: [ Abs: 0.21743  Tot: +0.00183 ]
LCAOMinimize: Iter:   0  F: -5124.3024016646932068  |grad|_K:  3.278e-02  alpha:  1.000e+00
LCAOMinimize: 	Step increased F by 1.662299e+03, reducing alpha to 4.033372e-02.
LCAOMinimize: 	Step increased F by 2.337484e+02, reducing alpha to 4.033372e-03.
	FillingsUpdate:  mu: -3.019434485  nElectrons: 494.000000  magneticMoment: [ Abs: 0.21840  Tot: -0.00092 ]
LCAOMinimize: Iter:   1  F: -5148.1387195642273582  |grad|_K:  1.263e-02  alpha:  4.033e-03  linmin: -1.951e-01  cgtest:  8.469e-01  t[s]:    267.02
LCAOMinimize: Encountered beta<0, resetting CG.
	FillingsUpdate:  mu: -1.978496353  nElectrons: 494.000000  magneticMoment: [ Abs: 0.22619  Tot: -0.00307 ]
LCAOMinimize: Iter:   2  F: -5156.5176563905160947  |grad|_K:  1.119e-02  alpha:  1.194e-02  linmin: -1.867e-02  cgtest:  6.060e-02  t[s]:    332.73
LCAOMinimize: 	Predicted alpha/alphaT>3.000000, increasing alphaT to 3.581864e-02.
	FillingsUpdate:  mu: +0.413305433  nElectrons: 494.000000  magneticMoment: [ Abs: 0.01816  Tot: -0.00088 ]
LCAOMinimize: Iter:   3  F: -5183.0957476787416454  |grad|_K:  1.774e-02  alpha:  5.492e-02  linmin:  7.213e-03  cgtest:  4.355e-02  t[s]:    415.21
	FillingsUpdate:  mu: +1.375019043  nElectrons: 494.000000  magneticMoment: [ Abs: 0.00128  Tot: -0.00005 ]
LCAOMinimize: Iter:   4  F: -5237.6465664426623334  |grad|_K:  4.340e-03  alpha:  4.746e-02  linmin:  1.006e-02  cgtest: -1.146e-03  t[s]:    480.72
	FillingsUpdate:  mu: +1.180138996  nElectrons: 494.000000  magneticMoment: [ Abs: 0.00121  Tot: -0.00002 ]
LCAOMinimize: Iter:   5  F: -5239.0610187932288682  |grad|_K:  1.919e-03  alpha:  2.126e-02  linmin:  1.930e-02  cgtest:  6.784e-02  t[s]:    546.55
LCAOMinimize: 	Predicted alpha/alphaT>3.000000, increasing alphaT to 6.378618e-02.
LCAOMinimize: 	Predicted alpha/alphaT>3.000000, increasing alphaT to 1.913585e-01.
	FillingsUpdate:  mu: +0.810319739  nElectrons: 494.000000  magneticMoment: [ Abs: 0.00141  Tot: -0.00001 ]
LCAOMinimize: Iter:   6  F: -5241.3026872464051849  |grad|_K:  1.312e-03  alpha:  9.830e-02  linmin: -1.088e-01  cgtest:  2.287e-01  t[s]:    645.57
	FillingsUpdate:  mu: +0.446072445  nElectrons: 494.000000  magneticMoment: [ Abs: 0.00197  Tot: +0.00001 ]
LCAOMinimize: Iter:   7  F: -5242.1654852398032745  |grad|_K:  3.697e-03  alpha:  1.181e-01  linmin:  2.848e-02  cgtest: -1.491e-01  t[s]:    711.51
LCAOMinimize: 	Bad step direction: g.d > 0.
LCAOMinimize: 	Undoing step.
LCAOMinimize: 	Step failed: resetting search direction.
	FillingsUpdate:  mu: +0.446072445  nElectrons: 494.000000  magneticMoment: [ Abs: 0.00197  Tot: +0.00001 ]
LCAOMinimize: Iter:   8  F: -5242.1654852398032745  |grad|_K:  3.697e-03  alpha:  0.000e+00
	FillingsUpdate:  mu: +0.389008604  nElectrons: 494.000000  magneticMoment: [ Abs: 0.00196  Tot: +0.00003 ]
LCAOMinimize: Iter:   9  F: -5242.6452910591542604  |grad|_K:  2.079e-03  alpha:  5.530e-03  linmin: -1.129e-01  cgtest:  9.577e-01  t[s]:    825.58
LCAOMinimize: Encountered beta<0, resetting CG.
LCAOMinimize: 	Predicted alpha/alphaT>3.000000, increasing alphaT to 1.659096e-02.
	FillingsUpdate:  mu: +0.428837773  nElectrons: 494.000000  magneticMoment: [ Abs: 0.00198  Tot: +0.00003 ]
LCAOMinimize: Iter:  10  F: -5242.9464893644026233  |grad|_K:  1.497e-03  alpha:  1.683e-02  linmin: -1.735e-03  cgtest: -4.323e-02  t[s]:    908.18
LCAOMinimize: 	Predicted alpha/alphaT>3.000000, increasing alphaT to 5.050206e-02.
	FillingsUpdate:  mu: +0.689872431  nElectrons: 494.000000  magneticMoment: [ Abs: 0.00211  Tot: +0.00001 ]
LCAOMinimize: Iter:  11  F: -5243.4182411818119363  |grad|_K:  1.430e-03  alpha:  4.849e-02  linmin:  3.487e-02  cgtest:  1.083e-01  t[s]:    991.27
	FillingsUpdate:  mu: +0.685415414  nElectrons: 494.000000  magneticMoment: [ Abs: 0.00216  Tot: -0.00001 ]
LCAOMinimize: Iter:  12  F: -5243.4943646522397103  |grad|_K:  1.411e-03  alpha:  9.565e-03  linmin: -2.670e-02  cgtest:  9.013e-01  t[s]:   1056.80
LCAOMinimize: 	Predicted alpha/alphaT>3.000000, increasing alphaT to 2.869512e-02.
	FillingsUpdate:  mu: +0.406846938  nElectrons: 494.000000  magneticMoment: [ Abs: 0.00221  Tot: -0.00002 ]
LCAOMinimize: Iter:  13  F: -5243.7574963307361031  |grad|_K:  7.304e-04  alpha:  3.133e-02  linmin:  1.063e-02  cgtest: -1.480e-01  t[s]:   1139.02
LCAOMinimize: 	Predicted alpha/alphaT>3.000000, increasing alphaT to 9.399203e-02.
	FillingsUpdate:  mu: +0.271495153  nElectrons: 494.000000  magneticMoment: [ Abs: 0.00285  Tot: -0.00018 ]
LCAOMinimize: Iter:  14  F: -5244.0144371183305338  |grad|_K:  1.228e-03  alpha:  1.619e-01  linmin:  4.137e-02  cgtest: -1.957e-01  t[s]:   1221.63
	FillingsUpdate:  mu: +0.265836054  nElectrons: 494.000000  magneticMoment: [ Abs: 0.00286  Tot: -0.00018 ]
LCAOMinimize: Iter:  15  F: -5244.0157656845549354  |grad|_K:  1.192e-03  alpha:  4.724e-04  linmin: -1.154e-02  cgtest:  9.975e-01  t[s]:   1287.11
LCAOMinimize: Encountered beta<0, resetting CG.
LCAOMinimize: 	Predicted alpha/alphaT>3.000000, increasing alphaT to 1.417120e-03.
LCAOMinimize: 	Predicted alpha/alphaT>3.000000, increasing alphaT to 4.251359e-03.
	FillingsUpdate:  mu: +0.222964960  nElectrons: 494.000000  magneticMoment: [ Abs: 0.00283  Tot: -0.00013 ]
LCAOMinimize: Iter:  16  F: -5244.0730323137813684  |grad|_K:  6.788e-04  alpha:  9.567e-03  linmin: -9.852e-03  cgtest:  6.244e-02  t[s]:   1386.20
LCAOMinimize: 	Predicted alpha/alphaT>3.000000, increasing alphaT to 2.870006e-02.
	FillingsUpdate:  mu: +0.182190701  nElectrons: 494.000000  magneticMoment: [ Abs: 0.00282  Tot: -0.00014 ]
LCAOMinimize: Iter:  17  F: -5244.1436938836986883  |grad|_K:  2.570e-04  alpha:  3.590e-02  linmin: -2.293e-03  cgtest: -2.997e-01  t[s]:   1468.30
	FillingsUpdate:  mu: +0.173805156  nElectrons: 494.000000  magneticMoment: [ Abs: 0.00282  Tot: -0.00012 ]
LCAOMinimize: Iter:  18  F: -5244.1474727746171993  |grad|_K:  1.804e-04  alpha:  1.334e-02  linmin: -3.020e-03  cgtest:  1.379e-02  t[s]:   1534.18
	FillingsUpdate:  mu: +0.173152392  nElectrons: 494.000000  magneticMoment: [ Abs: 0.00284  Tot: -0.00012 ]
LCAOMinimize: Iter:  19  F: -5244.1515497262298595  |grad|_K:  1.270e-04  alpha:  2.992e-02  linmin:  1.703e-03  cgtest: -1.764e-02  t[s]:   1600.10
	FillingsUpdate:  mu: +0.169006383  nElectrons: 494.000000  magneticMoment: [ Abs: 0.00286  Tot: -0.00010 ]
LCAOMinimize: Iter:  20  F: -5244.1534695199461567  |grad|_K:  1.266e-04  alpha:  2.913e-02  linmin: -1.272e-03  cgtest:  2.006e-02  t[s]:   1665.63
	FillingsUpdate:  mu: +0.169234170  nElectrons: 494.000000  magneticMoment: [ Abs: 0.00288  Tot: -0.00011 ]
LCAOMinimize: Iter:  21  F: -5244.1549768740442232  |grad|_K:  1.444e-04  alpha:  2.254e-02  linmin: -1.664e-04  cgtest: -4.228e-02  t[s]:   1731.21
	FillingsUpdate:  mu: +0.167094271  nElectrons: 494.000000  magneticMoment: [ Abs: 0.00298  Tot: -0.00014 ]
LCAOMinimize: Iter:  22  F: -5244.1595113790781397  |grad|_K:  1.117e-04  alpha:  5.237e-02  linmin: -1.495e-05  cgtest:  5.648e-02  t[s]:   1796.71
	FillingsUpdate:  mu: +0.166947409  nElectrons: 494.000000  magneticMoment: [ Abs: 0.00302  Tot: -0.00015 ]
LCAOMinimize: Iter:  23  F: -5244.1607843040856096  |grad|_K:  1.142e-04  alpha:  2.424e-02  linmin: -5.160e-04  cgtest:  1.097e-02  t[s]:   1863.38
	FillingsUpdate:  mu: +0.163227920  nElectrons: 494.000000  magneticMoment: [ Abs: 0.00306  Tot: -0.00015 ]
LCAOMinimize: Iter:  24  F: -5244.1616989336125698  |grad|_K:  6.025e-05  alpha:  1.669e-02  linmin:  4.173e-05  cgtest: -2.037e-03  t[s]:   1929.25
	FillingsUpdate:  mu: +0.158593423  nElectrons: 494.000000  magneticMoment: [ Abs: 0.00308  Tot: -0.00016 ]
LCAOMinimize: Iter:  25  F: -5244.1620314068022708  |grad|_K:  3.142e-05  alpha:  2.216e-02  linmin:  1.247e-04  cgtest: -9.131e-04  t[s]:   1994.78
	FillingsUpdate:  mu: +0.157908144  nElectrons: 494.000000  magneticMoment: [ Abs: 0.00309  Tot: -0.00016 ]
LCAOMinimize: Iter:  26  F: -5244.1621369185295407  |grad|_K:  3.824e-05  alpha:  2.586e-02  linmin:  9.084e-05  cgtest:  1.631e-04  t[s]:   2060.36
	FillingsUpdate:  mu: +0.156748858  nElectrons: 494.000000  magneticMoment: [ Abs: 0.00312  Tot: -0.00016 ]
LCAOMinimize: Iter:  27  F: -5244.1622648539714646  |grad|_K:  2.071e-05  alpha:  2.114e-02  linmin:  3.483e-04  cgtest:  3.344e-03  t[s]:   2125.64
	FillingsUpdate:  mu: +0.156802447  nElectrons: 494.000000  magneticMoment: [ Abs: 0.00316  Tot: -0.00016 ]
LCAOMinimize: Iter:  28  F: -5244.1623640723064455  |grad|_K:  3.188e-05  alpha:  5.626e-02  linmin:  2.099e-04  cgtest:  3.738e-03  t[s]:   2191.87
	FillingsUpdate:  mu: +0.155114517  nElectrons: 494.000000  magneticMoment: [ Abs: 0.00319  Tot: -0.00016 ]
LCAOMinimize: Iter:  29  F: -5244.1624429741314088  |grad|_K:  2.599e-05  alpha:  1.877e-02  linmin: -1.751e-04  cgtest:  2.007e-02  t[s]:   2257.35
	FillingsUpdate:  mu: +0.152546704  nElectrons: 494.000000  magneticMoment: [ Abs: 0.00322  Tot: -0.00016 ]
LCAOMinimize: Iter:  30  F: -5244.1625038849042539  |grad|_K:  1.643e-05  alpha:  2.170e-02  linmin: -7.316e-06  cgtest: -1.837e-02  t[s]:   2322.96
LCAOMinimize: None of the convergence criteria satisfied after 30 iterations.
----- createFluidSolver() ----- (Fluid-side solver setup)
   Initializing fluid molecule 'H2O'
     Initializing site 'O'
       Electron density: proportional to exp(-r/0.36935)*erfc((r-0.51523)/0.36823) with norm 6.826
       Charge density: gaussian nuclear width 0.478731 with net site charge 0.826
       Polarizability: cuspless exponential with width 0.32 and norm 3.73
       Hard sphere radius: 2.57003 bohrs
       Positions in reference frame:
         [ +0.000000 +0.000000 +0.000000 ]
     Initializing site 'H'
       Electron density: proportional to exp(-r/0.34641)*erfc((r-0)/0.390882) with norm 0.587
       Charge density: gaussian nuclear width 0.377945 with net site charge -0.413
       Polarizability: cuspless exponential with width 0.39 and norm 3.3
       Positions in reference frame:
         [ +0.000000 -1.441945 +1.122523 ]
         [ +0.000000 +1.441945 +1.122523 ]
     Net charge: 0   dipole magnitude: 0.927204
     Initializing spherical shell mfKernel with radius 2.61727 Bohr
     deltaS corrections:
       site 'O': -7.54299
       site 'H': -6.83917
   Initializing fluid molecule 'Na+'
     Initializing site 'Na'
       Electron density: proportional to exp(-r/0.19682)*erfc((r-0.71491)/0.41314) with norm 8.1383
       Charge density: gaussian nuclear width 0.365347 with net site charge -1
       Hard sphere radius: 1.86327 bohrs
       Positions in reference frame:
         [ +0.000000 +0.000000 +0.000000 ]
     Net charge: -1   dipole magnitude: 0
     Initializing gaussian mfKernel with width: 1.55004 Bohr
     deltaS corrections:
       site 'Na': -22.3555
   Initializing fluid molecule 'F-'
     Initializing site 'F'
       Electron density: proportional to exp(-r/0.38886)*erfc((r-0)/0.438782) with norm 8
       Charge density: gaussian nuclear width 0.374796 with net site charge 1
       Hard sphere radius: 2.39995 bohrs
       Positions in reference frame:
         [ +0.000000 +0.000000 +0.000000 ]
     Net charge: 1   dipole magnitude: 0
     Initializing gaussian mfKernel with width: 1.59012 Bohr
     deltaS corrections:
       site 'F': -9.04335

Correction to mu due to finite nuclear width = -0.0820568
   Cavity determined by nc: 0.00142 and sigma: 0.707107
   Nonlocal vdW cavity from gaussian model electron density with norm = 8 and sigma = 0.993594 bohr
   Charge asymmetry in cavity with sensitivity pCavity = 36.5 e-bohr/Eh
   Electrostatic cavity expanded by eta = 1.46 bohrs
   Weighted density cavitation model constrained by Nbulk: 0.0049383 bohr^-3, Pvap: 3.14029 kPa, Rvdw: 2.61727 bohr and sigmaBulk: 4.62e-05 Eh/bohr^2 at T: 298 K.
   Weighted density dispersion model using vdW pair potentials with single solvent site with sqrtC6eff: 0.77 SI.


---- Citations for features of the code used in this run ----

   Software package:
      R. Sundararaman, K. Letchworth-Weaver, K.A. Schwarz, D. Gunceler, Y. Ozhabes and T.A. Arias, 'JDFTx: software for joint density-functional theory', SoftwareX 6, 278 (2017)

   gga-PBE exchange-correlation functional:
      J.P. Perdew, K. Burke and M. Ernzerhof, Phys. Rev. Lett. 77, 3865 (1996)

   Pseudopotentials:
      KF Garrity, JW Bennett, KM Rabe and D Vanderbilt, Comput. Mater. Sci. 81, 446 (2014)

   DFT-D3 dispersion correction:
      S. Grimme, J. Antony, S. Ehrlich and H. Krieg, J. Chem. Phys. 132, 154104 (2010)

   DFT-D2 dispersion correction:
      S. Grimme, J. Comput. Chem. 27, 1787 (2006)

   Charge-asymmetric nonlocally-determined local-electric (CANDLE) solvation model:
      R. Sundararaman and W.A. Goddard III, J. Chem. Phys. 142, 064107 (2015)

   Total energy minimization with Auxiliary Hamiltonian:
      C. Freysoldt, S. Boeck, and J. Neugebauer, Phys. Rev. B 79, 241103(R) (2009)

   Linear-tetrahedron sampling for density of states:
      G. Lehmann and M. Taut, Phys. status solidi (b) 54, 469 (1972)

This list may not be complete. Please suggest additional citations or
report any other bugs at https://github.com/shankar1729/jdftx/issues

Initialization completed successfully at t[s]:   2341.06


Computing DFT-D3 correction:
# coordination-number Cu 6.854 9.148 8.375 9.157 9.160 9.158 9.159 9.160 9.153 8.350 4.602 9.127 5.358 9.127 9.158 9.153 9.160 9.159 9.148 9.160 9.157 8.375 4.602 8.350 6.854 5.358
# diagonal-C6 Cu 175.00 175.00 175.00 175.00 175.00 175.00 175.00 175.00 175.00 175.00 175.00 175.00 175.00 175.00 175.00 175.00 175.00 175.00 175.00 175.00 175.00 175.00 175.00 175.00 175.00 175.00
EvdW_6 =   -0.161310
EvdW_8 =   -0.239379
Fluid solver invoked on fresh (random / LCAO) wavefunctions
Running a vacuum solve first:

-------- Initial electronic minimization -----------
	FillingsUpdate:  mu: +0.152546981  nElectrons: 494.000000  magneticMoment: [ Abs: 0.00322  Tot: -0.00016 ]
ElecMinimize: Iter:   0  F: -5244.162503884889702  |grad|_K:  1.793e-04  alpha:  1.000e+00
	FillingsUpdate:  mu: +0.034735480  nElectrons: 494.000000  magneticMoment: [ Abs: 0.00309  Tot: -0.00017 ]
	SubspaceRotationAdjust: set factor to 0.97
ElecMinimize: Iter:   1  F: -5245.854196813879753  |grad|_K:  8.900e-05  alpha:  9.990e-02  linmin:  2.653e-04  t[s]:   2514.42
	FillingsUpdate:  mu: +0.389702166  nElectrons: 494.000000  magneticMoment: [ Abs: 0.00219  Tot: -0.00011 ]
	SubspaceRotationAdjust: set factor to 0.538
ElecMinimize: Iter:   2  F: -5247.214400392745119  |grad|_K:  1.661e-04  alpha:  2.865e-01  linmin: -2.532e-04  t[s]:   2624.72
ElecMinimize: 	Step increased F by 3.596195e-01, reducing alpha to 5.201293e-03.
	FillingsUpdate:  mu: +0.289182642  nElectrons: 494.000000  magneticMoment: [ Abs: 0.00215  Tot: -0.00010 ]
	SubspaceRotationAdjust: set factor to 0.416
ElecMinimize: Iter:   3  F: -5247.373197851317855  |grad|_K:  8.478e-05  alpha:  5.201e-03  linmin: -8.893e-04  t[s]:   2806.75
ElecMinimize: 	Predicted alpha/alphaT>3.000000, increasing alphaT to 1.560388e-02.
	FillingsUpdate:  mu: +0.229704339  nElectrons: 494.000000  magneticMoment: [ Abs: 0.00207  Tot: -0.00011 ]
	SubspaceRotationAdjust: set factor to 0.23
ElecMinimize: Iter:   4  F: -5247.510155862533793  |grad|_K:  5.548e-05  alpha:  1.903e-02  linmin: -5.591e-05  t[s]:   2945.33
ElecMinimize: 	Predicted alpha/alphaT>3.000000, increasing alphaT to 5.708290e-02.
	FillingsUpdate:  mu: +0.355532813  nElectrons: 494.000000  magneticMoment: [ Abs: 0.00191  Tot: -0.00012 ]
	SubspaceRotationAdjust: set factor to 0.145
ElecMinimize: Iter:   5  F: -5247.633902845155717  |grad|_K:  6.985e-05  alpha:  6.951e-02  linmin: -2.204e-05  t[s]:   3083.94
	FillingsUpdate:  mu: +0.225923984  nElectrons: 494.000000  magneticMoment: [ Abs: 0.00192  Tot: -0.00010 ]
	SubspaceRotationAdjust: set factor to 0.226
ElecMinimize: Iter:   6  F: -5247.799553616559024  |grad|_K:  6.606e-05  alpha:  6.086e-02  linmin: -1.512e-06  t[s]:   3194.66
	FillingsUpdate:  mu: +0.129508039  nElectrons: 494.000000  magneticMoment: [ Abs: 0.00177  Tot: -0.00007 ]
	SubspaceRotationAdjust: set factor to 0.207
ElecMinimize: Iter:   7  F: -5247.966253444651556  |grad|_K:  5.338e-05  alpha:  6.889e-02  linmin: -1.958e-05  t[s]:   3305.45
	FillingsUpdate:  mu: +0.167795957  nElectrons: 494.000000  magneticMoment: [ Abs: 0.00146  Tot: -0.00005 ]
	SubspaceRotationAdjust: set factor to 0.228
ElecMinimize: Iter:   8  F: -5248.057551875579520  |grad|_K:  3.123e-05  alpha:  5.635e-02  linmin: -1.265e-06  t[s]:   3417.14
	FillingsUpdate:  mu: +0.105377016  nElectrons: 494.000000  magneticMoment: [ Abs: 0.00123  Tot: -0.00005 ]
	SubspaceRotationAdjust: set factor to 0.288
ElecMinimize: Iter:   9  F: -5248.088330767522166  |grad|_K:  2.113e-05  alpha:  5.742e-02  linmin: -6.291e-06  t[s]:   3527.94
	FillingsUpdate:  mu: +0.125737820  nElectrons: 494.000000  magneticMoment: [ Abs: 0.00106  Tot: -0.00005 ]
	SubspaceRotationAdjust: set factor to 0.265
ElecMinimize: Iter:  10  F: -5248.106650001969683  |grad|_K:  1.998e-05  alpha:  7.422e-02  linmin: -8.096e-06  t[s]:   3638.41
	FillingsUpdate:  mu: +0.119105827  nElectrons: 494.000000  magneticMoment: [ Abs: 0.00098  Tot: -0.00004 ]
	SubspaceRotationAdjust: set factor to 0.387
ElecMinimize: Iter:  11  F: -5248.123670625490377  |grad|_K:  1.588e-05  alpha:  7.717e-02  linmin: -1.149e-06  t[s]:   3749.74
	FillingsUpdate:  mu: +0.118622306  nElectrons: 494.000000  magneticMoment: [ Abs: 0.00095  Tot: -0.00003 ]
	SubspaceRotationAdjust: set factor to 0.35
ElecMinimize: Iter:  12  F: -5248.133393621254982  |grad|_K:  1.376e-05  alpha:  7.021e-02  linmin: -3.803e-06  t[s]:   3860.33
	FillingsUpdate:  mu: +0.111662675  nElectrons: 494.000000  magneticMoment: [ Abs: 0.00089  Tot: -0.00002 ]
	SubspaceRotationAdjust: set factor to 0.444
ElecMinimize: Iter:  13  F: -5248.142531086770759  |grad|_K:  1.186e-05  alpha:  8.749e-02  linmin: -2.144e-06  t[s]:   3970.99
	FillingsUpdate:  mu: +0.108035108  nElectrons: 494.000000  magneticMoment: [ Abs: 0.00082  Tot: -0.00002 ]
	SubspaceRotationAdjust: set factor to 0.386
ElecMinimize: Iter:  14  F: -5248.148595247623234  |grad|_K:  1.100e-05  alpha:  7.835e-02  linmin: -1.924e-06  t[s]:   4081.39
	FillingsUpdate:  mu: +0.106482748  nElectrons: 494.000000  magneticMoment: [ Abs: 0.00077  Tot: -0.00001 ]
	SubspaceRotationAdjust: set factor to 0.582
ElecMinimize: Iter:  15  F: -5248.153607296833798  |grad|_K:  6.513e-06  alpha:  7.528e-02  linmin:  1.210e-08  t[s]:   4192.06
	FillingsUpdate:  mu: +0.107865211  nElectrons: 494.000000  magneticMoment: [ Abs: 0.00073  Tot: -0.00001 ]
	SubspaceRotationAdjust: set factor to 0.56
ElecMinimize: Iter:  16  F: -5248.155442070852587  |grad|_K:  6.793e-06  alpha:  7.878e-02  linmin: -6.223e-07  t[s]:   4303.39
	FillingsUpdate:  mu: +0.107601707  nElectrons: 494.000000  magneticMoment: [ Abs: 0.00065  Tot: -0.00000 ]
	SubspaceRotationAdjust: set factor to 0.53
ElecMinimize: Iter:  17  F: -5248.157474045369781  |grad|_K:  6.313e-06  alpha:  8.016e-02  linmin: -1.170e-07  t[s]:   4414.40
	FillingsUpdate:  mu: +0.103519255  nElectrons: 494.000000  magneticMoment: [ Abs: 0.00052  Tot: +0.00001 ]
	SubspaceRotationAdjust: set factor to 0.655
ElecMinimize: Iter:  18  F: -5248.160025657452024  |grad|_K:  5.392e-06  alpha:  1.166e-01  linmin:  1.825e-07  t[s]:   4524.86
	FillingsUpdate:  mu: +0.101814066  nElectrons: 494.000000  magneticMoment: [ Abs: 0.00045  Tot: +0.00001 ]
	SubspaceRotationAdjust: set factor to 0.588
ElecMinimize: Iter:  19  F: -5248.161373156745867  |grad|_K:  5.550e-06  alpha:  8.444e-02  linmin:  1.983e-08  t[s]:   4636.42
	FillingsUpdate:  mu: +0.100870878  nElectrons: 494.000000  magneticMoment: [ Abs: 0.00038  Tot: +0.00002 ]
	SubspaceRotationAdjust: set factor to 0.473
ElecMinimize: Iter:  20  F: -5248.162425096885272  |grad|_K:  4.617e-06  alpha:  6.220e-02  linmin:  3.345e-08  t[s]:   4747.13
	FillingsUpdate:  mu: +0.100098746  nElectrons: 494.000000  magneticMoment: [ Abs: 0.00029  Tot: +0.00002 ]
	SubspaceRotationAdjust: set factor to 0.531
ElecMinimize: Iter:  21  F: -5248.163548560959498  |grad|_K:  3.147e-06  alpha:  9.616e-02  linmin:  1.405e-06  t[s]:   4858.51
	FillingsUpdate:  mu: +0.099803471  nElectrons: 494.000000  magneticMoment: [ Abs: 0.00025  Tot: +0.00003 ]
	SubspaceRotationAdjust: set factor to 0.521
ElecMinimize: Iter:  22  F: -5248.163966837386397  |grad|_K:  2.223e-06  alpha:  7.723e-02  linmin: -6.674e-08  t[s]:   4969.83
	FillingsUpdate:  mu: +0.100293244  nElectrons: 494.000000  magneticMoment: [ Abs: 0.00023  Tot: +0.00003 ]
	SubspaceRotationAdjust: set factor to 0.426
ElecMinimize: Iter:  23  F: -5248.164157243632872  |grad|_K:  2.006e-06  alpha:  7.019e-02  linmin: -2.209e-07  t[s]:   5080.77
	FillingsUpdate:  mu: +0.101724571  nElectrons: 494.000000  magneticMoment: [ Abs: 0.00018  Tot: +0.00003 ]
	SubspaceRotationAdjust: set factor to 0.413
ElecMinimize: Iter:  24  F: -5248.164412401264599  |grad|_K:  1.948e-06  alpha:  1.155e-01  linmin: -9.597e-08  t[s]:   5191.90
	FillingsUpdate:  mu: +0.102074470  nElectrons: 494.000000  magneticMoment: [ Abs: 0.00014  Tot: +0.00002 ]
	SubspaceRotationAdjust: set factor to 0.452
ElecMinimize: Iter:  25  F: -5248.164622811761546  |grad|_K:  1.417e-06  alpha:  1.010e-01  linmin:  1.471e-07  t[s]:   5302.73
	FillingsUpdate:  mu: +0.101467260  nElectrons: 494.000000  magneticMoment: [ Abs: 0.00012  Tot: +0.00002 ]
	SubspaceRotationAdjust: set factor to 0.385
ElecMinimize: Iter:  26  F: -5248.164696988481410  |grad|_K:  9.599e-07  alpha:  6.737e-02  linmin: -5.405e-09  t[s]:   5413.55
	FillingsUpdate:  mu: +0.100828719  nElectrons: 494.000000  magneticMoment: [ Abs: 0.00011  Tot: +0.00002 ]
	SubspaceRotationAdjust: set factor to 0.393
ElecMinimize: Iter:  27  F: -5248.164748230646182  |grad|_K:  8.505e-07  alpha:  1.013e-01  linmin: -4.485e-07  t[s]:   5525.32
	FillingsUpdate:  mu: +0.101084182  nElectrons: 494.000000  magneticMoment: [ Abs: 0.00009  Tot: +0.00002 ]
	SubspaceRotationAdjust: set factor to 0.437
ElecMinimize: Iter:  28  F: -5248.164793642088625  |grad|_K:  7.054e-07  alpha:  1.143e-01  linmin: -1.777e-07  t[s]:   5635.77
	FillingsUpdate:  mu: +0.101680450  nElectrons: 494.000000  magneticMoment: [ Abs: 0.00008  Tot: +0.00002 ]
	SubspaceRotationAdjust: set factor to 0.403
ElecMinimize: Iter:  29  F: -5248.164816085853090  |grad|_K:  5.563e-07  alpha:  8.215e-02  linmin: -9.628e-09  t[s]:   5746.56
	FillingsUpdate:  mu: +0.102133312  nElectrons: 494.000000  magneticMoment: [ Abs: 0.00006  Tot: +0.00002 ]
	SubspaceRotationAdjust: set factor to 0.421
ElecMinimize: Iter:  30  F: -5248.164835037910052  |grad|_K:  5.037e-07  alpha:  1.116e-01  linmin: -2.794e-08  t[s]:   5858.34
	FillingsUpdate:  mu: +0.101992132  nElectrons: 494.000000  magneticMoment: [ Abs: 0.00005  Tot: +0.00001 ]
	SubspaceRotationAdjust: set factor to 0.505
ElecMinimize: Iter:  31  F: -5248.164849487695392  |grad|_K:  3.798e-07  alpha:  1.037e-01  linmin: -2.528e-08  t[s]:   5969.03
	FillingsUpdate:  mu: +0.101758205  nElectrons: 494.000000  magneticMoment: [ Abs: 0.00005  Tot: +0.00001 ]
	SubspaceRotationAdjust: set factor to 0.493
ElecMinimize: Iter:  32  F: -5248.164856537147898  |grad|_K:  3.322e-07  alpha:  8.905e-02  linmin: -3.751e-09  t[s]:   6080.50
	FillingsUpdate:  mu: +0.101692109  nElectrons: 494.000000  magneticMoment: [ Abs: 0.00004  Tot: +0.00001 ]
	SubspaceRotationAdjust: set factor to 0.485
ElecMinimize: Iter:  33  F: -5248.164862657285084  |grad|_K:  3.281e-07  alpha:  1.011e-01  linmin:  9.277e-08  t[s]:   6190.96
	FillingsUpdate:  mu: +0.101836465  nElectrons: 494.000000  magneticMoment: [ Abs: 0.00003  Tot: +0.00001 ]
	SubspaceRotationAdjust: set factor to 0.513
ElecMinimize: Iter:  34  F: -5248.164869295895187  |grad|_K:  2.816e-07  alpha:  1.123e-01  linmin:  1.518e-07  t[s]:   6301.52
	FillingsUpdate:  mu: +0.101908369  nElectrons: 494.000000  magneticMoment: [ Abs: 0.00003  Tot: +0.00001 ]
	SubspaceRotationAdjust: set factor to 0.584
ElecMinimize: Iter:  35  F: -5248.164873373454611  |grad|_K:  2.032e-07  alpha:  9.369e-02  linmin:  1.079e-07  t[s]:   6412.63
	FillingsUpdate:  mu: +0.101873277  nElectrons: 494.000000  magneticMoment: [ Abs: 0.00002  Tot: +0.00001 ]
	SubspaceRotationAdjust: set factor to 0.598
ElecMinimize: Iter:  36  F: -5248.164875958085759  |grad|_K:  2.190e-07  alpha:  1.141e-01  linmin:  1.795e-08  t[s]:   6523.45
	FillingsUpdate:  mu: +0.101817391  nElectrons: 494.000000  magneticMoment: [ Abs: 0.00002  Tot: +0.00000 ]
	SubspaceRotationAdjust: set factor to 0.52
ElecMinimize: Iter:  37  F: -5248.164878530828901  |grad|_K:  2.199e-07  alpha:  9.775e-02  linmin:  3.412e-08  t[s]:   6634.19
	FillingsUpdate:  mu: +0.101767245  nElectrons: 494.000000  magneticMoment: [ Abs: 0.00002  Tot: +0.00000 ]
	SubspaceRotationAdjust: set factor to 0.42
ElecMinimize: Iter:  38  F: -5248.164880201581582  |grad|_K:  1.420e-07  alpha:  6.296e-02  linmin: -1.069e-08  t[s]:   6746.10
	FillingsUpdate:  mu: +0.101708169  nElectrons: 494.000000  magneticMoment: [ Abs: 0.00002  Tot: +0.00000 ]
	SubspaceRotationAdjust: set factor to 0.44
ElecMinimize: Iter:  39  F: -5248.164881227033220  |grad|_K:  1.205e-07  alpha:  9.261e-02  linmin:  2.470e-07  t[s]:   6856.83
	FillingsUpdate:  mu: +0.101675720  nElectrons: 494.000000  magneticMoment: [ Abs: 0.00001  Tot: +0.00000 ]
	SubspaceRotationAdjust: set factor to 0.445
ElecMinimize: Iter:  40  F: -5248.164882262267383  |grad|_K:  1.198e-07  alpha:  1.297e-01  linmin: -5.834e-07  t[s]:   6968.38
	FillingsUpdate:  mu: +0.101721647  nElectrons: 494.000000  magneticMoment: [ Abs: 0.00001  Tot: +0.00000 ]
	SubspaceRotationAdjust: set factor to 0.397
ElecMinimize: Iter:  41  F: -5248.164882933521767  |grad|_K:  8.972e-08  alpha:  8.493e-02  linmin:  2.524e-07  t[s]:   7078.80
	FillingsUpdate:  mu: +0.101772399  nElectrons: 494.000000  magneticMoment: [ Abs: 0.00001  Tot: -0.00000 ]
	SubspaceRotationAdjust: set factor to 0.38
ElecMinimize: Iter:  42  F: -5248.164883294780338  |grad|_K:  6.598e-08  alpha:  8.190e-02  linmin: -6.079e-08  t[s]:   7189.68
	FillingsUpdate:  mu: +0.101769274  nElectrons: 494.000000  magneticMoment: [ Abs: 0.00001  Tot: -0.00000 ]
	SubspaceRotationAdjust: set factor to 0.415
ElecMinimize: Iter:  43  F: -5248.164883570676466  |grad|_K:  6.103e-08  alpha:  1.163e-01  linmin:  1.801e-06  t[s]:   7300.58
	FillingsUpdate:  mu: +0.101728754  nElectrons: 494.000000  magneticMoment: [ Abs: 0.00001  Tot: -0.00000 ]
	SubspaceRotationAdjust: set factor to 0.405
ElecMinimize: Iter:  44  F: -5248.164883765754894  |grad|_K:  4.856e-08  alpha:  9.635e-02  linmin:  3.080e-07  t[s]:   7411.23
	FillingsUpdate:  mu: +0.101707654  nElectrons: 494.000000  magneticMoment: [ Abs: 0.00001  Tot: -0.00000 ]
	SubspaceRotationAdjust: set factor to 0.404
ElecMinimize: Iter:  45  F: -5248.164883879943773  |grad|_K:  4.028e-08  alpha:  8.848e-02  linmin:  2.600e-07  t[s]:   7521.93
	FillingsUpdate:  mu: +0.101718571  nElectrons: 494.000000  magneticMoment: [ Abs: 0.00001  Tot: -0.00000 ]
	SubspaceRotationAdjust: set factor to 0.444
ElecMinimize: Iter:  46  F: -5248.164884001122118  |grad|_K:  4.170e-08  alpha:  1.363e-01  linmin:  2.407e-07  t[s]:   7633.60
	FillingsUpdate:  mu: +0.101728268  nElectrons: 494.000000  magneticMoment: [ Abs: 0.00001  Tot: -0.00000 ]
	SubspaceRotationAdjust: set factor to 0.442
ElecMinimize: Iter:  47  F: -5248.164884092319880  |grad|_K:  3.198e-08  alpha:  9.537e-02  linmin: -4.751e-07  t[s]:   7744.94
	FillingsUpdate:  mu: +0.101719149  nElectrons: 494.000000  magneticMoment: [ Abs: 0.00000  Tot: -0.00000 ]
	SubspaceRotationAdjust: set factor to 0.454
ElecMinimize: Iter:  48  F: -5248.164884139062451  |grad|_K:  2.645e-08  alpha:  8.391e-02  linmin:  1.806e-07  t[s]:   7855.56
ElecMinimize: Converged (|Delta F|<1.000000e-07 for 2 iters).
Setting wave functions to eigenvectors of Hamiltonian
Converging empty states (this may take a while): |deigs|: 1.754e-02
Vacuum energy after initial minimize, F = -5248.164884139062451


-------- Electronic minimization -----------
	Linear fluid (dielectric constant: 78.4, screening length: 8.12261 Bohr) occupying 0.541723 of unit cell:	Completed after 21 iterations at t[s]:   8369.91
	FillingsUpdate:  mu: -0.153469172  nElectrons: 494.000000  magneticMoment: [ Abs: 0.00000  Tot: -0.00000 ]
ElecMinimize: Iter:   0  F: -5248.165262340598929  |grad|_K:  6.054e-07  alpha:  1.000e+00
	Linear fluid (dielectric constant: 78.4, screening length: 8.12261 Bohr) occupying 0.543119 of unit cell:	Completed after 21 iterations at t[s]:   8463.12
	Linear fluid (dielectric constant: 78.4, screening length: 8.12261 Bohr) occupying 0.542085 of unit cell:	Completed after 20 iterations at t[s]:   8494.44
	FillingsUpdate:  mu: -0.149273631  nElectrons: 494.000000  magneticMoment: [ Abs: 0.00000  Tot: -0.00000 ]
	SubspaceRotationAdjust: set factor to 0.298
ElecMinimize: Iter:   1  F: -5248.165312098496543  |grad|_K:  8.348e-07  alpha:  2.522e-01  linmin:  1.107e-06  t[s]:   8539.07
	Linear fluid (dielectric constant: 78.4, screening length: 8.12261 Bohr) occupying 0.542937 of unit cell:	Completed after 19 iterations at t[s]:   8580.38
	Linear fluid (dielectric constant: 78.4, screening length: 8.12261 Bohr) occupying 0.542882 of unit cell:	Completed after 9 iterations at t[s]:   8609.99
	FillingsUpdate:  mu: -0.146763823  nElectrons: 494.000000  magneticMoment: [ Abs: 0.00000  Tot: -0.00000 ]
	SubspaceRotationAdjust: set factor to 0.367
ElecMinimize: Iter:   2  F: -5248.165400715841315  |grad|_K:  6.555e-07  alpha:  2.353e-01  linmin: -1.952e-07  t[s]:   8654.87
	Linear fluid (dielectric constant: 78.4, screening length: 8.12261 Bohr) occupying 0.543387 of unit cell:	Completed after 13 iterations at t[s]:   8695.59
	Linear fluid (dielectric constant: 78.4, screening length: 8.12261 Bohr) occupying 0.543200 of unit cell:	Completed after 7 iterations at t[s]:   8725.21
	FillingsUpdate:  mu: -0.147515342  nElectrons: 494.000000  magneticMoment: [ Abs: 0.00000  Tot: -0.00000 ]
	SubspaceRotationAdjust: set factor to 0.464
ElecMinimize: Iter:   3  F: -5248.165435598284603  |grad|_K:  4.501e-07  alpha:  1.472e-01  linmin: -7.570e-09  t[s]:   8770.50
	Linear fluid (dielectric constant: 78.4, screening length: 8.12261 Bohr) occupying 0.543367 of unit cell:	Completed after 11 iterations at t[s]:   8810.98
	Linear fluid (dielectric constant: 78.4, screening length: 8.12261 Bohr) occupying 0.543499 of unit cell:	Completed after 12 iterations at t[s]:   8841.11
	FillingsUpdate:  mu: -0.148789122  nElectrons: 494.000000  magneticMoment: [ Abs: 0.00000  Tot: -0.00000 ]
	SubspaceRotationAdjust: set factor to 0.486
ElecMinimize: Iter:   4  F: -5248.165465139839398  |grad|_K:  3.843e-07  alpha:  2.655e-01  linmin: -3.231e-08  t[s]:   8886.04
	Linear fluid (dielectric constant: 78.4, screening length: 8.12261 Bohr) occupying 0.543765 of unit cell:	Completed after 14 iterations at t[s]:   8926.73
	Linear fluid (dielectric constant: 78.4, screening length: 8.12261 Bohr) occupying 0.543648 of unit cell:	Completed after 12 iterations at t[s]:   8956.67
	FillingsUpdate:  mu: -0.147631076  nElectrons: 494.000000  magneticMoment: [ Abs: 0.00000  Tot: -0.00000 ]
	SubspaceRotationAdjust: set factor to 0.378
ElecMinimize: Iter:   5  F: -5248.165477036974153  |grad|_K:  2.554e-07  alpha:  1.470e-01  linmin:  1.874e-08  t[s]:   9001.59
	Linear fluid (dielectric constant: 78.4, screening length: 8.12261 Bohr) occupying 0.543715 of unit cell:	Completed after 10 iterations at t[s]:   9041.61
	Linear fluid (dielectric constant: 78.4, screening length: 8.12261 Bohr) occupying 0.543732 of unit cell:	Completed after 6 iterations at t[s]:   9071.60
	FillingsUpdate:  mu: -0.148075986  nElectrons: 494.000000  magneticMoment: [ Abs: 0.00000  Tot: -0.00000 ]
	SubspaceRotationAdjust: set factor to 0.413
ElecMinimize: Iter:   6  F: -5248.165483653327101  |grad|_K:  1.888e-07  alpha:  1.849e-01  linmin: -1.037e-08  t[s]:   9116.39
	Linear fluid (dielectric constant: 78.4, screening length: 8.12261 Bohr) occupying 0.543782 of unit cell:	Completed after 10 iterations at t[s]:   9156.42
	Linear fluid (dielectric constant: 78.4, screening length: 8.12261 Bohr) occupying 0.543779 of unit cell:	Completed after 2 iterations at t[s]:   9185.30
	FillingsUpdate:  mu: -0.148224572  nElectrons: 494.000000  magneticMoment: [ Abs: 0.00000  Tot: -0.00000 ]
	SubspaceRotationAdjust: set factor to 0.446
ElecMinimize: Iter:   7  F: -5248.165487052036951  |grad|_K:  1.501e-07  alpha:  1.737e-01  linmin:  1.319e-07  t[s]:   9229.79
	Linear fluid (dielectric constant: 78.4, screening length: 8.12261 Bohr) occupying 0.543812 of unit cell:	Completed after 7 iterations at t[s]:   9269.66
	Linear fluid (dielectric constant: 78.4, screening length: 8.12261 Bohr) occupying 0.543818 of unit cell:	Completed after 2 iterations at t[s]:   9298.40
	FillingsUpdate:  mu: -0.148116312  nElectrons: 494.000000  magneticMoment: [ Abs: 0.00000  Tot: +0.00000 ]
	SubspaceRotationAdjust: set factor to 0.488
ElecMinimize: Iter:   8  F: -5248.165489559448361  |grad|_K:  1.084e-07  alpha:  2.036e-01  linmin: -5.597e-08  t[s]:   9342.92
	Linear fluid (dielectric constant: 78.4, screening length: 8.12261 Bohr) occupying 0.543838 of unit cell:	Completed after 10 iterations at t[s]:   9383.81
	Linear fluid (dielectric constant: 78.4, screening length: 8.12261 Bohr) occupying 0.543831 of unit cell:	Completed after 7 iterations at t[s]:   9413.14
	FillingsUpdate:  mu: -0.147973461  nElectrons: 494.000000  magneticMoment: [ Abs: 0.00000  Tot: +0.00000 ]
	SubspaceRotationAdjust: set factor to 0.459
ElecMinimize: Iter:   9  F: -5248.165490424061318  |grad|_K:  7.941e-08  alpha:  1.336e-01  linmin:  2.079e-07  t[s]:   9458.01
	Linear fluid (dielectric constant: 78.4, screening length: 8.12261 Bohr) occupying 0.543835 of unit cell:	Completed after 4 iterations at t[s]:   9497.51
	Linear fluid (dielectric constant: 78.4, screening length: 8.12261 Bohr) occupying 0.543839 of unit cell:	Completed after 6 iterations at t[s]:   9526.61
	FillingsUpdate:  mu: -0.148171338  nElectrons: 494.000000  magneticMoment: [ Abs: 0.00000  Tot: +0.00000 ]
	SubspaceRotationAdjust: set factor to 0.482
ElecMinimize: Iter:  10  F: -5248.165491343218491  |grad|_K:  7.100e-08  alpha:  2.701e-01  linmin:  5.802e-07  t[s]:   9571.17
	Linear fluid (dielectric constant: 78.4, screening length: 8.12261 Bohr) occupying 0.543846 of unit cell:	Completed after 7 iterations at t[s]:   9610.94
	Linear fluid (dielectric constant: 78.4, screening length: 8.12261 Bohr) occupying 0.543842 of unit cell:	Completed after 3 iterations at t[s]:   9639.83
	FillingsUpdate:  mu: -0.148240246  nElectrons: 494.000000  magneticMoment: [ Abs: 0.00000  Tot: +0.00000 ]
	SubspaceRotationAdjust: set factor to 0.569
ElecMinimize: Iter:  11  F: -5248.165491657152415  |grad|_K:  3.813e-08  alpha:  1.143e-01  linmin:  3.068e-07  t[s]:   9684.56
	Linear fluid (dielectric constant: 78.4, screening length: 8.12261 Bohr) occupying 0.543844 of unit cell:	Completed after 3 iterations at t[s]:   9724.19
	Linear fluid (dielectric constant: 78.4, screening length: 8.12261 Bohr) occupying 0.543845 of unit cell:	Completed after 2 iterations at t[s]:   9753.06
	FillingsUpdate:  mu: -0.148104988  nElectrons: 494.000000  magneticMoment: [ Abs: 0.00000  Tot: +0.00000 ]
	SubspaceRotationAdjust: set factor to 0.531
ElecMinimize: Iter:  12  F: -5248.165491841259609  |grad|_K:  3.951e-08  alpha:  2.214e-01  linmin: -5.850e-06  t[s]:   9797.59
	Linear fluid (dielectric constant: 78.4, screening length: 8.12261 Bohr) occupying 0.543845 of unit cell:	Completed after 4 iterations at t[s]:   9837.13
	Linear fluid (dielectric constant: 78.4, screening length: 8.12261 Bohr) occupying 0.543845 of unit cell:	Completed after 2 iterations at t[s]:   9865.93
	FillingsUpdate:  mu: -0.148151211  nElectrons: 494.000000  magneticMoment: [ Abs: 0.00000  Tot: +0.00000 ]
	SubspaceRotationAdjust: set factor to 0.475
ElecMinimize: Iter:  13  F: -5248.165491975662007  |grad|_K:  2.597e-08  alpha:  1.490e-01  linmin:  9.060e-07  t[s]:   9910.73
	Linear fluid (dielectric constant: 78.4, screening length: 8.12261 Bohr) occupying 0.543844 of unit cell:	Completed after 2 iterations at t[s]:   9950.22
	Linear fluid (dielectric constant: 78.4, screening length: 8.12261 Bohr) occupying 0.543844 of unit cell:	Completed after 0 iterations at t[s]:   9979.38
	FillingsUpdate:  mu: -0.148152077  nElectrons: 494.000000  magneticMoment: [ Abs: 0.00000  Tot: +0.00000 ]
	SubspaceRotationAdjust: set factor to 0.456
ElecMinimize: Iter:  14  F: -5248.165492027060282  |grad|_K:  1.981e-08  alpha:  1.397e-01  linmin:  8.838e-06  t[s]:  10024.48
	Linear fluid (dielectric constant: 78.4, screening length: 8.12261 Bohr) occupying 0.543843 of unit cell:	Completed after 2 iterations at t[s]:  10063.76
	Linear fluid (dielectric constant: 78.4, screening length: 8.12261 Bohr) occupying 0.543842 of unit cell:	Completed after 0 iterations at t[s]:  10092.27
	FillingsUpdate:  mu: -0.148153977  nElectrons: 494.000000  magneticMoment: [ Abs: 0.00000  Tot: +0.00000 ]
	SubspaceRotationAdjust: set factor to 0.575
ElecMinimize: Iter:  15  F: -5248.165492065532817  |grad|_K:  1.303e-08  alpha:  1.833e-01  linmin: -8.036e-05  t[s]:  10137.20
ElecMinimize: Converged (|Delta F|<1.000000e-07 for 2 iters).
Setting wave functions to eigenvectors of Hamiltonian
Converging empty states (this may take a while): |deigs|: 1.583e-04
Single-point solvation energy estimate, DeltaF = -0.000607926470366

Computing DFT-D3 correction:
# coordination-number Cu 6.854 9.148 8.375 9.157 9.160 9.158 9.159 9.160 9.153 8.350 4.602 9.127 5.358 9.127 9.158 9.153 9.160 9.159 9.148 9.160 9.157 8.375 4.602 8.350 6.854 5.358
# diagonal-C6 Cu 175.00 175.00 175.00 175.00 175.00 175.00 175.00 175.00 175.00 175.00 175.00 175.00 175.00 175.00 175.00 175.00 175.00 175.00 175.00 175.00 175.00 175.00 175.00 175.00 175.00 175.00
EvdW_6 =   -0.161310
EvdW_8 =   -0.239379

# Ionic positions in cartesian coordinates:
ion Cu  -0.000003000000000   9.348120000000000  21.968073000000000 1
ion Cu   0.000000000000000   3.739243000000000  18.228829000000001 1
ion Cu   3.370512000000001   6.543688000000000  20.098451000000001 1
ion Cu   3.370515000000000   0.934811000000000  16.359207999999999 1
ion Cu  -0.000003000000000   7.478499000000001  12.619964000000000 1
ion Cu   0.000000000000000   1.869622000000000   8.880720999999999 1
ion Cu   3.370512000000000  10.282931000000001  14.489585999999999 1
ion Cu   3.370515000000000   4.674054000000000  10.750343000000001 1
ion Cu  -0.000003000000000  11.217741999999999   7.011099000000000 1
ion Cu   0.000000000000000   5.608865000000001   3.271856000000000 1
ion Cu   0.000000000000000   0.000000000000000  23.837693999999999 1
ion Cu   3.370512000000000   8.413310000000001   5.141478000000000 1
ion Cu   3.370515000000000   2.804432000000000   1.402234000000000 1
ion Cu   3.370508000000000  11.217741999999999  19.163676999999996 1
ion Cu   3.370512000000000   5.608865000000001  15.424359999999998 1
ion Cu   0.000000000000000   8.413310000000001  17.293982000000000 1
ion Cu   0.000003000000000   2.804432000000000  13.554738999999998 1
ion Cu   3.370508000000000   9.348120000000000   9.815495000000000 1
ion Cu   3.370512000000001   3.739243000000000   6.076251999999999 1
ion Cu   3.370512000000000   0.000000000000000  11.685116999999998 1
ion Cu   0.000000000000000   6.543688000000000   7.945874000000000 1
ion Cu   0.000003000000000   0.934811000000000   4.206630000000000 1
ion Cu   3.370508000000000   7.478499000000001   0.467387000000000 1
ion Cu   3.370512000000001   1.869622000000000  21.033297999999995 1
ion Cu   0.000000000000000  10.282931000000001   2.337009000000000 1
ion Cu   0.000003000000000   4.674054000000000  22.902920000000002 1

# Forces in Cartesian coordinates:
force Cu   0.000011945535396  -0.000931607821363   0.002783141882856 1
force Cu   0.000015525115765   0.000529097087251  -0.001833590436585 1
force Cu   0.000015426803968   0.000561712662481   0.007142063537574 1
force Cu  -0.000070706410933   0.000179762117384  -0.001217218867908 1
force Cu   0.000091720774712   0.000277439217408  -0.000248150422703 1
force Cu   0.000012095291423  -0.000103638391512   0.000397752633682 1
force Cu  -0.000072886530509   0.000124366655213   0.000483227981110 1
force Cu   0.000009521001507  -0.000025678603667   0.000011309311575 1
force Cu  -0.000074669514577  -0.000298921401277   0.002499898358436 1
force Cu  -0.000003322976957  -0.000592255142302  -0.007995446230008 1
force Cu   0.000044838869019  -0.000210224421973  -0.008057098024500 1
force Cu  -0.000042746702884   0.001285124811024  -0.001470089326962 1
force Cu  -0.000006210766041  -0.000300074486018   0.004499368835922 1
force Cu   0.000096093310228  -0.001297590919510   0.001465738531385 1
force Cu  -0.000060490233472   0.000109985071752  -0.000437255103816 1
force Cu   0.000129473656862   0.000288494706908  -0.002514609903887 1
force Cu  -0.000078112390181   0.000026799579766  -0.000084527745607 1
force Cu   0.000157379113627  -0.000134636399119  -0.000539791848541 1
force Cu  -0.000089189293359  -0.000530685827866   0.001842431308835 1
force Cu  -0.000063111397994  -0.000272672810036   0.000186820985590 1
force Cu   0.000059104183807  -0.000167876190837   0.001217099222490 1
force Cu  -0.000027363119966  -0.000551261131495  -0.007111089928624 1
force Cu  -0.000017839261021   0.000213082157076   0.008073745049849 1
force Cu  -0.000044627056896   0.000601870114767   0.008008718548185 1
force Cu   0.000069603270450   0.000918515969235  -0.002767995979070 1
force Cu  -0.000059659734841   0.000307253654787  -0.004494538956902 1

# Energy components:
   A_diel =       -0.0008714598770898
   Eewald =    47453.3492808475930360
       EH =    52257.8988859597593546
     Eloc =  -105944.5643270214932272
      Enl =      952.2134591627992677
     EvdW =       -0.4006884602830818
      Exc =     -504.5884780601352873
 Exc_core =        1.2212571625317838
       KE =      536.7067062925750633
-------------------------------------
     Etot =    -5248.1647755765270631
       TS =        0.0007164890061703
-------------------------------------
        F =    -5248.1654920655328169


Dumping 'jdft.fillings' ... done
Dumping 'jdft.wfns' ... done
Dumping 'jdft.fluidState' ... done
Dumping 'jdft.ionpos' ... done
Dumping 'jdft.lattice' ... done
Dumping 'jdft.eigenvals' ... done
Dumping 'jdft.eigStats' ... 
	eMin: -4.288001 at state 36 ( [ +0.000000 +0.000000 +0.000000 ] spin -1 )
	HOMO: -0.149169 at state 7 ( [ +0.111111 -0.250000 +0.000000 ] spin 1 )
	mu  : -0.148154
	LUMO: -0.147849 at state 29 ( [ -0.222222 +0.250000 +0.000000 ] spin 1 )
	eMax: +0.196994 at state 33 ( [ -0.111111 +0.250000 +0.000000 ] spin 1 )
	HOMO-LUMO gap: +0.001320
	Optical gap  : +0.002802 at state 63 ( [ -0.333333 -0.250000 +0.000000 ] spin -1 )
Dumping 'jdft.Ecomponents' ... done
IonicMinimize: Iter:   0  F: -5248.165492065532817  |grad|_K:  2.404e-03  t[s]:  10488.72

#--- Lowdin population analysis ---
# oxidation-state Cu +0.053 +0.068 +0.039 +0.073 +0.074 +0.075 +0.077 +0.078 +0.072 +0.001 +0.248 +0.047 +0.190 +0.047 +0.075 +0.072 +0.077 +0.077 +0.068 +0.074 +0.073 +0.039 +0.248 +0.001 +0.053 +0.190
# magnetic-moments Cu -0.000 +0.000 -0.000 +0.000 -0.000 +0.000 -0.000 +0.000 +0.000 -0.000 +0.000 +0.000 -0.000 +0.000 +0.000 +0.000 -0.000 +0.000 +0.000 -0.000 +0.000 +0.000 +0.000 +0.000 -0.000 -0.000


Computing DFT-D3 correction:
# coordination-number Cu 6.860 9.138 8.370 9.151 9.162 9.156 9.161 9.162 9.146 8.349 4.626 9.122 5.378 9.122 9.156 9.146 9.162 9.161 9.138 9.162 9.151 8.370 4.626 8.349 6.860 5.378
# diagonal-C6 Cu 175.00 175.00 175.00 175.00 175.00 175.00 175.00 175.00 175.00 175.00 175.00 175.00 175.00 175.00 175.00 175.00 175.00 175.00 175.00 175.00 175.00 175.00 175.00 175.00 175.00 175.00
EvdW_6 =   -0.161310
EvdW_8 =   -0.239365

-------- Electronic minimization -----------
	Linear fluid (dielectric constant: 78.4, screening length: 8.12261 Bohr) occupying 0.544023 of unit cell:	Completed after 11 iterations at t[s]:  10533.14
	FillingsUpdate:  mu: -0.147923126  nElectrons: 494.000000  magneticMoment: [ Abs: 0.00000  Tot: +0.00000 ]
ElecMinimize: Iter:   0  F: -5248.165793233357363  |grad|_K:  6.936e-07  alpha:  1.000e+00
	Linear fluid (dielectric constant: 78.4, screening length: 8.12261 Bohr) occupying 0.543966 of unit cell:	Completed after 19 iterations at t[s]:  10625.69
	Linear fluid (dielectric constant: 78.4, screening length: 8.12261 Bohr) occupying 0.544015 of unit cell:	Completed after 19 iterations at t[s]:  10656.32
	FillingsUpdate:  mu: -0.148381855  nElectrons: 494.000000  magneticMoment: [ Abs: 0.00000  Tot: +0.00000 ]
	SubspaceRotationAdjust: set factor to 0.673
ElecMinimize: Iter:   1  F: -5248.165829352989022  |grad|_K:  5.535e-07  alpha:  1.368e-01  linmin: -3.873e-06  t[s]:  10700.81
	Linear fluid (dielectric constant: 78.4, screening length: 8.12261 Bohr) occupying 0.544009 of unit cell:	Completed after 9 iterations at t[s]:  10740.96
	Linear fluid (dielectric constant: 78.4, screening length: 8.12261 Bohr) occupying 0.544004 of unit cell:	Completed after 9 iterations at t[s]:  10770.67
	FillingsUpdate:  mu: -0.148350183  nElectrons: 494.000000  magneticMoment: [ Abs: 0.00000  Tot: +0.00000 ]
	SubspaceRotationAdjust: set factor to 0.712
ElecMinimize: Iter:   2  F: -5248.165876885836951  |grad|_K:  5.376e-07  alpha:  2.828e-01  linmin:  6.846e-06  t[s]:  10815.70
	Linear fluid (dielectric constant: 78.4, screening length: 8.12261 Bohr) occupying 0.543991 of unit cell:	Completed after 12 iterations at t[s]:  10856.32
	Linear fluid (dielectric constant: 78.4, screening length: 8.12261 Bohr) occupying 0.543998 of unit cell:	Completed after 11 iterations at t[s]:  10887.52
	FillingsUpdate:  mu: -0.148269119  nElectrons: 494.000000  magneticMoment: [ Abs: 0.00000  Tot: -0.00000 ]
	SubspaceRotationAdjust: set factor to 0.599
ElecMinimize: Iter:   3  F: -5248.165895859267039  |grad|_K:  4.336e-07  alpha:  1.198e-01  linmin:  6.054e-07  t[s]:  10932.29
	Linear fluid (dielectric constant: 78.4, screening length: 8.12261 Bohr) occupying 0.543994 of unit cell:	Completed after 10 iterations at t[s]:  10972.54
	Linear fluid (dielectric constant: 78.4, screening length: 8.12261 Bohr) occupying 0.543993 of unit cell:	Completed after 6 iterations at t[s]:  11001.92
	FillingsUpdate:  mu: -0.148299998  nElectrons: 494.000000  magneticMoment: [ Abs: 0.00000  Tot: -0.00000 ]
	SubspaceRotationAdjust: set factor to 0.459
ElecMinimize: Iter:   4  F: -5248.165909344254032  |grad|_K:  3.052e-07  alpha:  1.307e-01  linmin:  4.928e-06  t[s]:  11046.96
	Linear fluid (dielectric constant: 78.4, screening length: 8.12261 Bohr) occupying 0.543992 of unit cell:	Completed after 9 iterations at t[s]:  11087.04
	Linear fluid (dielectric constant: 78.4, screening length: 8.12261 Bohr) occupying 0.543992 of unit cell:	Completed after 0 iterations at t[s]:  11115.55
	FillingsUpdate:  mu: -0.148311013  nElectrons: 494.000000  magneticMoment: [ Abs: 0.00000  Tot: -0.00000 ]
	SubspaceRotationAdjust: set factor to 0.454
ElecMinimize: Iter:   5  F: -5248.165916006107182  |grad|_K:  2.290e-07  alpha:  1.304e-01  linmin:  7.167e-06  t[s]:  11161.24
	Linear fluid (dielectric constant: 78.4, screening length: 8.12261 Bohr) occupying 0.543994 of unit cell:	Completed after 6 iterations at t[s]:  11201.03
	Linear fluid (dielectric constant: 78.4, screening length: 8.12261 Bohr) occupying 0.543996 of unit cell:	Completed after 7 iterations at t[s]:  11230.45
	FillingsUpdate:  mu: -0.148260065  nElectrons: 494.000000  magneticMoment: [ Abs: 0.00000  Tot: -0.00000 ]
	SubspaceRotationAdjust: set factor to 0.513
ElecMinimize: Iter:   6  F: -5248.165923658327301  |grad|_K:  1.732e-07  alpha:  2.666e-01  linmin:  1.045e-05  t[s]:  11275.28
	Linear fluid (dielectric constant: 78.4, screening length: 8.12261 Bohr) occupying 0.543999 of unit cell:	Completed after 10 iterations at t[s]:  11315.72
	Linear fluid (dielectric constant: 78.4, screening length: 8.12261 Bohr) occupying 0.543997 of unit cell:	Completed after 10 iterations at t[s]:  11345.53
	FillingsUpdate:  mu: -0.148231740  nElectrons: 494.000000  magneticMoment: [ Abs: 0.00000  Tot: -0.00000 ]
	SubspaceRotationAdjust: set factor to 0.363
ElecMinimize: Iter:   7  F: -5248.165925345063442  |grad|_K:  7.589e-08  alpha:  1.026e-01  linmin:  4.798e-06  t[s]:  11390.04
	Linear fluid (dielectric constant: 78.4, screening length: 8.12261 Bohr) occupying 0.543997 of unit cell:	Completed after 2 iterations at t[s]:  11429.41
	Linear fluid (dielectric constant: 78.4, screening length: 8.12261 Bohr) occupying 0.543997 of unit cell:	Completed after 2 iterations at t[s]:  11459.36
	FillingsUpdate:  mu: -0.148243500  nElectrons: 494.000000  magneticMoment: [ Abs: 0.00000  Tot: -0.00000 ]
	SubspaceRotationAdjust: set factor to 0.344
ElecMinimize: Iter:   8  F: -5248.165925911530394  |grad|_K:  8.065e-08  alpha:  1.810e-01  linmin:  8.578e-05  t[s]:  11504.53
	Linear fluid (dielectric constant: 78.4, screening length: 8.12261 Bohr) occupying 0.543998 of unit cell:	Completed after 6 iterations at t[s]:  11544.32
	Linear fluid (dielectric constant: 78.4, screening length: 8.12261 Bohr) occupying 0.543998 of unit cell:	Completed after 0 iterations at t[s]:  11572.81
	FillingsUpdate:  mu: -0.148288865  nElectrons: 494.000000  magneticMoment: [ Abs: 0.00000  Tot: -0.00000 ]
	SubspaceRotationAdjust: set factor to 0.411
ElecMinimize: Iter:   9  F: -5248.165926485852651  |grad|_K:  4.154e-08  alpha:  1.634e-01  linmin:  1.972e-05  t[s]:  11617.55
	Linear fluid (dielectric constant: 78.4, screening length: 8.12261 Bohr) occupying 0.543998 of unit cell:	Completed after 6 iterations at t[s]:  11657.41
	Linear fluid (dielectric constant: 78.4, screening length: 8.12261 Bohr) occupying 0.543998 of unit cell:	Completed after 2 iterations at t[s]:  11686.42
	FillingsUpdate:  mu: -0.148270092  nElectrons: 494.000000  magneticMoment: [ Abs: 0.00000  Tot: -0.00000 ]
	SubspaceRotationAdjust: set factor to 0.328
ElecMinimize: Iter:  10  F: -5248.165926611125542  |grad|_K:  2.785e-08  alpha:  1.347e-01  linmin:  1.971e-04  t[s]:  11730.98
	Linear fluid (dielectric constant: 78.4, screening length: 8.12261 Bohr) occupying 0.543999 of unit cell:	Completed after 2 iterations at t[s]:  11771.05
	Linear fluid (dielectric constant: 78.4, screening length: 8.12261 Bohr) occupying 0.543999 of unit cell:	Completed after 0 iterations at t[s]:  11799.55
	FillingsUpdate:  mu: -0.148268529  nElectrons: 494.000000  magneticMoment: [ Abs: 0.00000  Tot: -0.00000 ]
	SubspaceRotationAdjust: set factor to 0.38
ElecMinimize: Iter:  11  F: -5248.165926680324446  |grad|_K:  1.917e-08  alpha:  1.641e-01  linmin: -7.377e-04  t[s]:  11844.21
	Linear fluid (dielectric constant: 78.4, screening length: 8.12261 Bohr) occupying 0.543999 of unit cell:	Completed after 2 iterations at t[s]:  11883.65
	Linear fluid (dielectric constant: 78.4, screening length: 8.12261 Bohr) occupying 0.543999 of unit cell:	Completed after 0 iterations at t[s]:  11912.14
	FillingsUpdate:  mu: -0.148267923  nElectrons: 494.000000  magneticMoment: [ Abs: 0.00000  Tot: -0.00000 ]
	SubspaceRotationAdjust: set factor to 0.37
ElecMinimize: Iter:  12  F: -5248.165926720498646  |grad|_K:  1.606e-08  alpha:  1.902e-01  linmin: -1.721e-04  t[s]:  11956.84
ElecMinimize: Converged (|Delta F|<1.000000e-07 for 2 iters).
Setting wave functions to eigenvectors of Hamiltonian
Converging empty states (this may take a while): |deigs|: 4.278e-08

Computing DFT-D3 correction:
# coordination-number Cu 6.860 9.138 8.370 9.151 9.162 9.156 9.161 9.162 9.146 8.349 4.626 9.122 5.378 9.122 9.156 9.146 9.162 9.161 9.138 9.162 9.151 8.370 4.626 8.349 6.860 5.378
# diagonal-C6 Cu 175.00 175.00 175.00 175.00 175.00 175.00 175.00 175.00 175.00 175.00 175.00 175.00 175.00 175.00 175.00 175.00 175.00 175.00 175.00 175.00 175.00 175.00 175.00 175.00 175.00 175.00
EvdW_6 =   -0.161310
EvdW_8 =   -0.239365
IonicMinimize: 	Wolfe criterion not satisfied: alpha: 1  (E-E0)/|gdotd0|: -0.963863  gdotd/gdotd0: 0.919451 (taking cubic step)

Computing DFT-D3 correction:
# coordination-number Cu 6.871 9.118 8.360 9.138 9.167 9.152 9.165 9.167 9.133 8.345 4.674 9.111 5.417 9.111 9.151 9.133 9.166 9.165 9.119 9.167 9.139 8.360 4.674 8.345 6.871 5.417
# diagonal-C6 Cu 175.00 175.00 175.00 175.00 175.00 175.00 175.00 175.00 175.00 175.00 175.00 175.00 175.00 175.00 175.00 175.00 175.00 175.00 175.00 175.00 175.00 175.00 175.00 175.00 175.00 175.00
EvdW_6 =   -0.161310
EvdW_8 =   -0.239339

-------- Electronic minimization -----------
	Linear fluid (dielectric constant: 78.4, screening length: 8.12261 Bohr) occupying 0.544376 of unit cell:	Completed after 15 iterations at t[s]:  12120.24
	FillingsUpdate:  mu: -0.148006654  nElectrons: 494.000000  magneticMoment: [ Abs: 0.00000  Tot: -0.00000 ]
ElecMinimize: Iter:   0  F: -5248.166152261113893  |grad|_K:  1.352e-06  alpha:  1.000e+00
	Linear fluid (dielectric constant: 78.4, screening length: 8.12261 Bohr) occupying 0.544353 of unit cell:	Completed after 17 iterations at t[s]:  12211.95
	Linear fluid (dielectric constant: 78.4, screening length: 8.12261 Bohr) occupying 0.544373 of unit cell:	Completed after 17 iterations at t[s]:  12242.54
	FillingsUpdate:  mu: -0.148241662  nElectrons: 494.000000  magneticMoment: [ Abs: 0.00000  Tot: -0.00000 ]
	SubspaceRotationAdjust: set factor to 0.429
ElecMinimize: Iter:   1  F: -5248.166285019519819  |grad|_K:  1.019e-06  alpha:  1.322e-01  linmin: -1.756e-05  t[s]:  12287.08
	Linear fluid (dielectric constant: 78.4, screening length: 8.12261 Bohr) occupying 0.544367 of unit cell:	Completed after 7 iterations at t[s]:  12327.01
	Linear fluid (dielectric constant: 78.4, screening length: 8.12261 Bohr) occupying 0.544359 of unit cell:	Completed after 10 iterations at t[s]:  12356.85
	FillingsUpdate:  mu: -0.148826028  nElectrons: 494.000000  magneticMoment: [ Abs: 0.00000  Tot: -0.00000 ]
	SubspaceRotationAdjust: set factor to 0.497
ElecMinimize: Iter:   2  F: -5248.166455046740339  |grad|_K:  9.079e-07  alpha:  2.981e-01  linmin:  3.380e-06  t[s]:  12401.31
	Linear fluid (dielectric constant: 78.4, screening length: 8.12261 Bohr) occupying 0.544350 of unit cell:	Completed after 12 iterations at t[s]:  12441.75
	Linear fluid (dielectric constant: 78.4, screening length: 8.12261 Bohr) occupying 0.544353 of unit cell:	Completed after 10 iterations at t[s]:  12471.67
	FillingsUpdate:  mu: -0.148149692  nElectrons: 494.000000  magneticMoment: [ Abs: 0.00000  Tot: -0.00000 ]
	SubspaceRotationAdjust: set factor to 0.566
ElecMinimize: Iter:   3  F: -5248.166534370502632  |grad|_K:  7.660e-07  alpha:  1.754e-01  linmin:  1.794e-08  t[s]:  12516.80
	Linear fluid (dielectric constant: 78.4, screening length: 8.12261 Bohr) occupying 0.544340 of unit cell:	Completed after 11 iterations at t[s]:  12557.36
	Linear fluid (dielectric constant: 78.4, screening length: 8.12261 Bohr) occupying 0.544340 of unit cell:	Completed after 0 iterations at t[s]:  12586.12
	FillingsUpdate:  mu: -0.148578044  nElectrons: 494.000000  magneticMoment: [ Abs: 0.00000  Tot: -0.00000 ]
	SubspaceRotationAdjust: set factor to 0.705
ElecMinimize: Iter:   4  F: -5248.166590228524910  |grad|_K:  5.394e-07  alpha:  1.734e-01  linmin:  1.186e-05  t[s]:  12630.93
	Linear fluid (dielectric constant: 78.4, screening length: 8.12261 Bohr) occupying 0.544339 of unit cell:	Completed after 10 iterations at t[s]:  12671.76
	Linear fluid (dielectric constant: 78.4, screening length: 8.12261 Bohr) occupying 0.544338 of unit cell:	Completed after 10 iterations at t[s]:  12701.58
	FillingsUpdate:  mu: -0.147984012  nElectrons: 494.000000  magneticMoment: [ Abs: 0.00000  Tot: -0.00000 ]
	SubspaceRotationAdjust: set factor to 0.725
ElecMinimize: Iter:   5  F: -5248.166642745463832  |grad|_K:  6.566e-07  alpha:  3.289e-01  linmin: -8.485e-06  t[s]:  12746.50
	Linear fluid (dielectric constant: 78.4, screening length: 8.12261 Bohr) occupying 0.544311 of unit cell:	Completed after 19 iterations at t[s]:  12787.86
	Linear fluid (dielectric constant: 78.4, screening length: 8.12261 Bohr) occupying 0.544328 of unit cell:	Completed after 16 iterations at t[s]:  12818.32
	FillingsUpdate:  mu: -0.148726681  nElectrons: 494.000000  magneticMoment: [ Abs: 0.00000  Tot: -0.00000 ]
	SubspaceRotationAdjust: set factor to 0.487
ElecMinimize: Iter:   6  F: -5248.166669261441712  |grad|_K:  3.661e-07  alpha:  1.118e-01  linmin:  1.176e-06  t[s]:  12862.88
	Linear fluid (dielectric constant: 78.4, screening length: 8.12261 Bohr) occupying 0.544332 of unit cell:	Completed after 12 iterations at t[s]:  12903.37
	Linear fluid (dielectric constant: 78.4, screening length: 8.12261 Bohr) occupying 0.544331 of unit cell:	Completed after 7 iterations at t[s]:  12932.86
	FillingsUpdate:  mu: -0.148310156  nElectrons: 494.000000  magneticMoment: [ Abs: 0.00000  Tot: -0.00000 ]
	SubspaceRotationAdjust: set factor to 0.345
ElecMinimize: Iter:   7  F: -5248.166675541236145  |grad|_K:  2.196e-07  alpha:  8.537e-02  linmin:  5.944e-06  t[s]:  12977.93
	Linear fluid (dielectric constant: 78.4, screening length: 8.12261 Bohr) occupying 0.544330 of unit cell:	Completed after 6 iterations at t[s]:  13017.61
	Linear fluid (dielectric constant: 78.4, screening length: 8.12261 Bohr) occupying 0.544330 of unit cell:	Completed after 6 iterations at t[s]:  13047.09
	FillingsUpdate:  mu: -0.148189581  nElectrons: 494.000000  magneticMoment: [ Abs: 0.00000  Tot: -0.00000 ]
	SubspaceRotationAdjust: set factor to 0.363
ElecMinimize: Iter:   8  F: -5248.166682307705742  |grad|_K:  2.343e-07  alpha:  2.533e-01  linmin: -6.292e-05  t[s]:  13091.75
	Linear fluid (dielectric constant: 78.4, screening length: 8.12261 Bohr) occupying 0.544322 of unit cell:	Completed after 11 iterations at t[s]:  13132.05
	Linear fluid (dielectric constant: 78.4, screening length: 8.12261 Bohr) occupying 0.544326 of unit cell:	Completed after 10 iterations at t[s]:  13161.78
	FillingsUpdate:  mu: -0.148539950  nElectrons: 494.000000  magneticMoment: [ Abs: 0.00000  Tot: -0.00000 ]
	SubspaceRotationAdjust: set factor to 0.389
ElecMinimize: Iter:   9  F: -5248.166685750031320  |grad|_K:  1.124e-07  alpha:  1.131e-01  linmin:  8.454e-06  t[s]:  13206.81
	Linear fluid (dielectric constant: 78.4, screening length: 8.12261 Bohr) occupying 0.544326 of unit cell:	Completed after 5 iterations at t[s]:  13246.37
	Linear fluid (dielectric constant: 78.4, screening length: 8.12261 Bohr) occupying 0.544326 of unit cell:	Completed after 3 iterations at t[s]:  13276.11
	FillingsUpdate:  mu: -0.148633039  nElectrons: 494.000000  magneticMoment: [ Abs: 0.00000  Tot: -0.00000 ]
	SubspaceRotationAdjust: set factor to 0.382
ElecMinimize: Iter:  10  F: -5248.166686896664942  |grad|_K:  9.320e-08  alpha:  1.655e-01  linmin:  7.931e-07  t[s]:  13320.87
	Linear fluid (dielectric constant: 78.4, screening length: 8.12261 Bohr) occupying 0.544328 of unit cell:	Completed after 2 iterations at t[s]:  13360.25
	Linear fluid (dielectric constant: 78.4, screening length: 8.12261 Bohr) occupying 0.544328 of unit cell:	Completed after 0 iterations at t[s]:  13388.88
	FillingsUpdate:  mu: -0.148585899  nElectrons: 494.000000  magneticMoment: [ Abs: 0.00000  Tot: -0.00000 ]
	SubspaceRotationAdjust: set factor to 0.402
ElecMinimize: Iter:  11  F: -5248.166687618675496  |grad|_K:  6.973e-08  alpha:  1.512e-01  linmin:  1.777e-04  t[s]:  13433.49
	Linear fluid (dielectric constant: 78.4, screening length: 8.12261 Bohr) occupying 0.544330 of unit cell:	Completed after 6 iterations at t[s]:  13473.41
	Linear fluid (dielectric constant: 78.4, screening length: 8.12261 Bohr) occupying 0.544331 of unit cell:	Completed after 0 iterations at t[s]:  13502.03
	FillingsUpdate:  mu: -0.148420576  nElectrons: 494.000000  magneticMoment: [ Abs: 0.00000  Tot: -0.00000 ]
	SubspaceRotationAdjust: set factor to 0.387
ElecMinimize: Iter:  12  F: -5248.166688048078868  |grad|_K:  5.296e-08  alpha:  1.632e-01  linmin: -3.612e-04  t[s]:  13546.70
	Linear fluid (dielectric constant: 78.4, screening length: 8.12261 Bohr) occupying 0.544331 of unit cell:	Completed after 2 iterations at t[s]:  13587.08
	Linear fluid (dielectric constant: 78.4, screening length: 8.12261 Bohr) occupying 0.544331 of unit cell:	Completed after 0 iterations at t[s]:  13615.74
	FillingsUpdate:  mu: -0.148424586  nElectrons: 494.000000  magneticMoment: [ Abs: 0.00000  Tot: -0.00000 ]
	SubspaceRotationAdjust: set factor to 0.445
ElecMinimize: Iter:  13  F: -5248.166688313035593  |grad|_K:  3.794e-08  alpha:  1.625e-01  linmin: -1.507e-04  t[s]:  13660.80
	Linear fluid (dielectric constant: 78.4, screening length: 8.12261 Bohr) occupying 0.544331 of unit cell:	Completed after 2 iterations at t[s]:  13700.46
	Linear fluid (dielectric constant: 78.4, screening length: 8.12261 Bohr) occupying 0.544331 of unit cell:	Completed after 2 iterations at t[s]:  13729.43
	FillingsUpdate:  mu: -0.148462367  nElectrons: 494.000000  magneticMoment: [ Abs: 0.00000  Tot: -0.00000 ]
	SubspaceRotationAdjust: set factor to 0.469
ElecMinimize: Iter:  14  F: -5248.166688411539326  |grad|_K:  2.940e-08  alpha:  1.253e-01  linmin: -9.368e-06  t[s]:  13774.28
	Linear fluid (dielectric constant: 78.4, screening length: 8.12261 Bohr) occupying 0.544330 of unit cell:	Completed after 2 iterations at t[s]:  13813.71
	Linear fluid (dielectric constant: 78.4, screening length: 8.12261 Bohr) occupying 0.544330 of unit cell:	Completed after 2 iterations at t[s]:  13842.60
	FillingsUpdate:  mu: -0.148492834  nElectrons: 494.000000  magneticMoment: [ Abs: 0.00000  Tot: -0.00000 ]
	SubspaceRotationAdjust: set factor to 0.498
[...]
Setting wave functions to eigenvectors of Hamiltonian
Converging empty states (this may take a while): |deigs|: 2.709e-08

Computing DFT-D3 correction:
# coordination-number Cu 6.929 9.052 8.329 9.084 9.141 9.087 9.153 9.134 9.062 8.325 4.931 9.080 5.598 9.093 9.093 9.073 9.136 9.150 9.039 9.141 9.075 8.316 4.926 8.337 6.919 5.605
# diagonal-C6 Cu 175.00 175.00 175.00 175.00 175.00 175.00 175.00 175.00 175.00 175.00 175.00 175.00 175.00 175.00 175.00 175.00 175.00 175.00 175.00 175.00 175.00 175.00 175.00 175.00 175.00 175.00
EvdW_6 =   -0.161235
EvdW_8 =   -0.239171

# Ionic positions in cartesian coordinates:
ion Cu   0.000829058414469   9.327635259889849  22.020921831603353 1
ion Cu  -0.000511194305160   3.746408901361302  18.219395573354372 1
ion Cu   3.370695821331759   6.563151837163648  20.209719046344972 1
ion Cu   3.369544483732291   0.945305504707921  16.372516126712316 1
ion Cu   0.001364981087054   7.481438279335643  12.615939500501209 1
ion Cu  -0.000666716589651   1.859181768834904   8.865727275101047 1
ion Cu   3.369926019163354  10.287967466522337  14.496326153006173 1
ion Cu   3.371106168486126   4.670439343613589  10.755645084956878 1
ion Cu  -0.000794823993910  11.219712945836251   7.016616880650290 1
ion Cu  -0.000813828616281   5.591167818317188   3.179887900216013 1
ion Cu   0.001078357841591  -0.022423485259284  23.696282067527267 1
ion Cu   3.370117046575307   8.432954532749902   5.145062399307593 1
ion Cu   3.369875408970141   2.803423767597087   1.450223604800176 1
ion Cu   3.372268954467893  11.197996030511096  19.160203773147735 1
ion Cu   3.370246703825203   5.619343578855841  15.442503908208614 1
ion Cu   0.001912701536171   8.411308741593590  17.290152062043607 1
ion Cu  -0.002066602578898   2.808086770915321  13.552794719184918 1
ion Cu   3.372445308980097   9.343140029621631   9.811944844157329 1
ion Cu   3.369397382904996   3.731849623139718   6.087099636647271 1
ion Cu   3.369537999164847  -0.002887805855276  11.692133399418537 1
ion Cu   0.000641591451683   6.533366134175279   7.935024112373482 1
ion Cu  -0.000240380102806   0.915415147282894   4.093576338069171 1
ion Cu   3.370519241256765   7.500620029237742   0.603687344730487 1
ion Cu   3.370385786125935   1.887337518710834  21.122412167100613 1
ion Cu   0.000983644138712  10.303496859785996   2.280128393958152 1
ion Cu  -0.001130113267685   4.675197401355000  22.850351856878405 1

# Forces in Cartesian coordinates:
force Cu   0.000003289223596  -0.000098786320326   0.000203492726428 1
force Cu   0.000013149662516   0.000079436735253  -0.000167646464682 1
force Cu  -0.000000431733965  -0.000039971799351   0.000158541737197 1
force Cu  -0.000008694060351  -0.000001976918785  -0.000310511249740 1
force Cu   0.000013017057278  -0.000055400305349  -0.000012856639824 1
force Cu   0.000016845205859   0.000015589106026  -0.000089477187269 1
force Cu   0.000006167428647   0.000053981756231  -0.000031523859887 1
force Cu  -0.000021445459943   0.000010234875463  -0.000092502565999 1
force Cu  -0.000005400207816  -0.000058580855072  -0.000024074920658 1
force Cu   0.000005583123485   0.000087017434124  -0.000064065662460 1
force Cu   0.000007579930998   0.000077247399769   0.000445924917165 1
force Cu  -0.000002944591530  -0.000003516479369  -0.000004678545013 1
force Cu   0.000000889975241   0.000090236225082  -0.000147496287977 1
force Cu  -0.000001573215542  -0.000028404123712  -0.000120444226260 1
force Cu  -0.000012160390897  -0.000010690190412  -0.000096850033820 1
force Cu   0.000002788768227   0.000042718012656  -0.000157674271016 1
force Cu   0.000024180442942  -0.000005382685110  -0.000055742356606 1
force Cu  -0.000003876744287  -0.000071327000608  -0.000137095426523 1
force Cu  -0.000007440052148  -0.000070386826582   0.000003812382956 1
force Cu  -0.000005395889371   0.000048794627793  -0.000094511143228 1
force Cu   0.000007211494764  -0.000002911629834   0.000128563233899 1
force Cu  -0.000000218318955   0.000058411473268  -0.000046068464254 1
force Cu   0.000000759129145  -0.000059123053137  -0.000108346099162 1
force Cu   0.000003634483072  -0.000052870881466   0.000230185457501 1
force Cu  -0.000001632958210   0.000072405426714   0.000064356435180 1
force Cu   0.000005112593892  -0.000076833017954   0.000446207781822 1

# Energy components:
   A_diel =       -0.0009603285251540
   Eewald =    47436.6324888632880175
       EH =    52240.3816422332092770
     Eloc =  -105910.3139323250798043
      Enl =      952.1953832667450115
     EvdW =       -0.4004053409128080
      Exc =     -504.5981560795115684
 Exc_core =        1.2212465550088667
       KE =      536.7148172888827276
-------------------------------------
     Etot =    -5248.1678758668840601
       TS =        0.0007387312900883
-------------------------------------
        F =    -5248.1686145981739173


Dumping 'jdft.fillings' ... done
Dumping 'jdft.wfns' ... done
Dumping 'jdft.fluidState' ... done
Dumping 'jdft.ionpos' ... done
Dumping 'jdft.lattice' ... done
Dumping 'jdft.eigenvals' ... done
Dumping 'jdft.eigStats' ... 
	eMin: -4.289471 at state 36 ( [ +0.000000 +0.000000 +0.000000 ] spin -1 )
	HOMO: -0.150050 at state 65 ( [ -0.222222 +0.250000 +0.000000 ] spin -1 )
	mu  : -0.150023
	LUMO: -0.149830 at state 27 ( [ -0.333333 -0.250000 +0.000000 ] spin 1 )
	eMax: +0.196945 at state 69 ( [ -0.111111 +0.250000 +0.000000 ] spin -1 )
	HOMO-LUMO gap: +0.000220
	Optical gap  : +0.001731 at state 13 ( [ +0.333333 +0.250000 +0.000000 ] spin 1 )
Dumping 'jdft.Ecomponents' ... done
IonicMinimize: Iter:   5  F: -5248.168614598173917  |grad|_K:  1.067e-04  alpha:  1.000e+00  linmin:  3.656e-01  t[s]:  23229.71

#--- Lowdin population analysis ---
# oxidation-state Cu +0.058 +0.071 +0.039 +0.073 +0.074 +0.076 +0.076 +0.077 +0.074 +0.002 +0.234 +0.048 +0.185 +0.047 +0.076 +0.074 +0.077 +0.076 +0.071 +0.074 +0.073 +0.039 +0.234 +0.002 +0.058 +0.185
# magnetic-moments Cu +0.000 +0.000 -0.000 +0.000 -0.000 -0.000 -0.000 +0.000 +0.000 -0.000 -0.000 -0.000 +0.000 +0.000 -0.000 +0.000 -0.000 -0.000 +0.000 -0.000 +0.000 -0.000 -0.000 -0.000 +0.000 +0.000


Computing DFT-D3 correction:
# coordination-number Cu 6.925 9.047 8.324 9.083 9.142 9.088 9.153 9.136 9.063 8.325 4.927 9.080 5.597 9.088 9.093 9.070 9.138 9.150 9.039 9.141 9.077 8.317 4.925 8.331 6.920 5.601
# diagonal-C6 Cu 175.00 175.00 175.00 175.00 175.00 175.00 175.00 175.00 175.00 175.00 175.00 175.00 175.00 175.00 175.00 175.00 175.00 175.00 175.00 175.00 175.00 175.00 175.00 175.00 175.00 175.00
EvdW_6 =   -0.161231
EvdW_8 =   -0.239149

-------- Electronic minimization -----------
	Linear fluid (dielectric constant: 78.4, screening length: 8.12261 Bohr) occupying 0.546260 of unit cell:	Completed after 12 iterations at t[s]:  23274.22
	FillingsUpdate:  mu: -0.149338977  nElectrons: 494.000000  magneticMoment: [ Abs: 0.00000  Tot: -0.00000 ]
ElecMinimize: Iter:   0  F: -5248.168607216906821  |grad|_K:  2.493e-07  alpha:  1.000e+00
	Linear fluid (dielectric constant: 78.4, screening length: 8.12261 Bohr) occupying 0.546193 of unit cell:	Completed after 19 iterations at t[s]:  23366.18
	Linear fluid (dielectric constant: 78.4, screening length: 8.12261 Bohr) occupying 0.546253 of unit cell:	Completed after 19 iterations at t[s]:  23397.05
	FillingsUpdate:  mu: -0.150084752  nElectrons: 494.000000  magneticMoment: [ Abs: 0.00000  Tot: -0.00000 ]
	SubspaceRotationAdjust: set factor to 0.368
ElecMinimize: Iter:   1  F: -5248.168610603242996  |grad|_K:  1.327e-07  alpha:  9.937e-02  linmin:  2.158e-06  t[s]:  23441.47
	Linear fluid (dielectric constant: 78.4, screening length: 8.12261 Bohr) occupying 0.546252 of unit cell:	Completed after 2 iterations at t[s]:  23481.98
	Linear fluid (dielectric constant: 78.4, screening length: 8.12261 Bohr) occupying 0.546251 of unit cell:	Completed after 2 iterations at t[s]:  23510.91
	FillingsUpdate:  mu: -0.150150004  nElectrons: 494.000000  magneticMoment: [ Abs: 0.00000  Tot: +0.00000 ]
	SubspaceRotationAdjust: set factor to 0.431
ElecMinimize: Iter:   2  F: -5248.168613068376544  |grad|_K:  1.378e-07  alpha:  2.542e-01  linmin: -4.813e-05  t[s]:  23555.68
	Linear fluid (dielectric constant: 78.4, screening length: 8.12261 Bohr) occupying 0.546254 of unit cell:	Completed after 6 iterations at t[s]:  23595.53
	Linear fluid (dielectric constant: 78.4, screening length: 8.12261 Bohr) occupying 0.546253 of unit cell:	Completed after 2 iterations at t[s]:  23624.43
	FillingsUpdate:  mu: -0.150110084  nElectrons: 494.000000  magneticMoment: [ Abs: 0.00000  Tot: +0.00000 ]
	SubspaceRotationAdjust: set factor to 0.528
ElecMinimize: Iter:   3  F: -5248.168614780955977  |grad|_K:  8.906e-08  alpha:  1.634e-01  linmin:  2.163e-05  t[s]:  23669.44
	Linear fluid (dielectric constant: 78.4, screening length: 8.12261 Bohr) occupying 0.546257 of unit cell:	Completed after 6 iterations at t[s]:  23709.66
	Linear fluid (dielectric constant: 78.4, screening length: 8.12261 Bohr) occupying 0.546257 of unit cell:	Completed after 2 iterations at t[s]:  23738.53
	FillingsUpdate:  mu: -0.149914486  nElectrons: 494.000000  magneticMoment: [ Abs: 0.00000  Tot: +0.00000 ]
	SubspaceRotationAdjust: set factor to 0.568
ElecMinimize: Iter:   4  F: -5248.168615643401608  |grad|_K:  7.204e-08  alpha:  1.998e-01  linmin:  1.259e-04  t[s]:  23783.43
	Linear fluid (dielectric constant: 78.4, screening length: 8.12261 Bohr) occupying 0.546259 of unit cell:	Completed after 6 iterations at t[s]:  23823.25
	Linear fluid (dielectric constant: 78.4, screening length: 8.12261 Bohr) occupying 0.546259 of unit cell:	Completed after 2 iterations at t[s]:  23852.18
	FillingsUpdate:  mu: -0.150060307  nElectrons: 494.000000  magneticMoment: [ Abs: 0.00000  Tot: +0.00000 ]
	SubspaceRotationAdjust: set factor to 0.529
ElecMinimize: Iter:   5  F: -5248.168616275503155  |grad|_K:  6.928e-08  alpha:  2.254e-01  linmin: -2.081e-06  t[s]:  23896.83
	Linear fluid (dielectric constant: 78.4, screening length: 8.12261 Bohr) occupying 0.546262 of unit cell:	Completed after 6 iterations at t[s]:  23936.58
	Linear fluid (dielectric constant: 78.4, screening length: 8.12261 Bohr) occupying 0.546262 of unit cell:	Completed after 0 iterations at t[s]:  23965.15
	FillingsUpdate:  mu: -0.149948285  nElectrons: 494.000000  magneticMoment: [ Abs: 0.00000  Tot: +0.00000 ]
	SubspaceRotationAdjust: set factor to 0.507
ElecMinimize: Iter:   6  F: -5248.168616854968604  |grad|_K:  5.530e-08  alpha:  2.195e-01  linmin:  4.378e-05  t[s]:  24009.85
	Linear fluid (dielectric constant: 78.4, screening length: 8.12261 Bohr) occupying 0.546262 of unit cell:	Completed after 6 iterations at t[s]:  24049.84
	Linear fluid (dielectric constant: 78.4, screening length: 8.12261 Bohr) occupying 0.546262 of unit cell:	Completed after 2 iterations at t[s]:  24079.99
	FillingsUpdate:  mu: -0.149954132  nElectrons: 494.000000  magneticMoment: [ Abs: 0.00000  Tot: +0.00000 ]
	SubspaceRotationAdjust: set factor to 0.497
ElecMinimize: Iter:   7  F: -5248.168617029467896  |grad|_K:  2.806e-08  alpha:  1.060e-01  linmin:  9.285e-05  t[s]:  24124.95
	Linear fluid (dielectric constant: 78.4, screening length: 8.12261 Bohr) occupying 0.546262 of unit cell:	Completed after 2 iterations at t[s]:  24164.32
	Linear fluid (dielectric constant: 78.4, screening length: 8.12261 Bohr) occupying 0.546261 of unit cell:	Completed after 2 iterations at t[s]:  24193.31
	FillingsUpdate:  mu: -0.149953392  nElectrons: 494.000000  magneticMoment: [ Abs: 0.00000  Tot: +0.00000 ]
	SubspaceRotationAdjust: set factor to 0.456
ElecMinimize: Iter:   8  F: -5248.168617133142106  |grad|_K:  2.842e-08  alpha:  2.346e-01  linmin: -2.964e-04  t[s]:  24238.02
	Linear fluid (dielectric constant: 78.4, screening length: 8.12261 Bohr) occupying 0.546259 of unit cell:	Completed after 4 iterations at t[s]:  24277.53
	Linear fluid (dielectric constant: 78.4, screening length: 8.12261 Bohr) occupying 0.546260 of unit cell:	Completed after 2 iterations at t[s]:  24306.34
	FillingsUpdate:  mu: -0.149993007  nElectrons: 494.000000  magneticMoment: [ Abs: 0.00000  Tot: +0.00000 ]
	SubspaceRotationAdjust: set factor to 0.367
ElecMinimize: Iter:   9  F: -5248.168617196449304  |grad|_K:  1.598e-08  alpha:  1.353e-01  linmin:  1.092e-04  t[s]:  24351.25
	Linear fluid (dielectric constant: 78.4, screening length: 8.12261 Bohr) occupying 0.546260 of unit cell:	Completed after 1 iterations at t[s]:  24391.49
	Linear fluid (dielectric constant: 78.4, screening length: 8.12261 Bohr) occupying 0.546260 of unit cell:	Completed after 0 iterations at t[s]:  24420.02
	FillingsUpdate:  mu: -0.149993943  nElectrons: 494.000000  magneticMoment: [ Abs: 0.00000  Tot: +0.00000 ]
	SubspaceRotationAdjust: set factor to 0.423
ElecMinimize: Iter:  10  F: -5248.168617217943392  |grad|_K:  1.028e-08  alpha:  1.539e-01  linmin: -8.806e-04  t[s]:  24464.97
ElecMinimize: Converged (|Delta F|<1.000000e-07 for 2 iters).
Setting wave functions to eigenvectors of Hamiltonian
Converging empty states (this may take a while): |deigs|: 3.452e-09

Computing DFT-D3 correction:
# coordination-number Cu 6.925 9.047 8.324 9.083 9.142 9.088 9.153 9.136 9.063 8.325 4.927 9.080 5.597 9.088 9.093 9.070 9.138 9.150 9.039 9.141 9.077 8.317 4.925 8.331 6.920 5.601
# diagonal-C6 Cu 175.00 175.00 175.00 175.00 175.00 175.00 175.00 175.00 175.00 175.00 175.00 175.00 175.00 175.00 175.00 175.00 175.00 175.00 175.00 175.00 175.00 175.00 175.00 175.00 175.00 175.00
EvdW_6 =   -0.161231
EvdW_8 =   -0.239149

# Ionic positions in cartesian coordinates:
ion Cu   0.000839451489193   9.326896374278261  22.021700824936435 1
ion Cu  -0.000437998122359   3.746868830043295  18.218839226873687 1
ion Cu   3.370686875649318   6.562782943255265  20.210687461238226 1
ion Cu   3.369495292811333   0.945252460740996  16.370729927678109 1
ion Cu   0.001417969106754   7.481137446138989  12.615864189636142 1
ion Cu  -0.000575808716611   1.859320357056206   8.865187749502311 1
ion Cu   3.369951029635699  10.288262117438046  14.495934923854261 1
ion Cu   3.370972630863446   4.670478258343427  10.755102428829526 1
ion Cu  -0.000838120252516  11.219226376215847   7.016214224345900 1
ion Cu  -0.000782541708994   5.591977166341758   3.180041314454534 1
ion Cu   0.001123268717612  -0.021813490731586  23.699350636160727 1
ion Cu   3.370087986658234   8.432655446961821   5.144748590049844 1
ion Cu   3.369869253211018   2.803936639458706   1.449162441672846 1
ion Cu   3.372237109285115  11.198100233094584  19.159909543647831 1
ion Cu   3.370171748990916   5.619239218648915  15.441918073184270 1
ion Cu   0.001912912649209   8.411696410614613  17.289567784418715 1
ion Cu  -0.001932883457332   2.808063450115534  13.552294569079191 1
ion Cu   3.372403520690465   9.342725698858382   9.811221193569793 1
ion Cu   3.369349894549210   3.731423247657983   6.086798923145867 1
ion Cu   3.369512879068474  -0.002637931917761  11.691396663259772 1
ion Cu   0.000664223582765   6.533394320197897   7.935789262600110 1
ion Cu  -0.000253454804877   0.915926463259767   4.093508505867963 1
ion Cu   3.370510583092258   7.500140306981541   0.602628981361684 1
ion Cu   3.370405655031670   1.886740767211224  21.123427763632325 1
ion Cu   0.000962314483248  10.304093388006809   2.281038552773942 1
ion Cu  -0.001100792503245   4.674747501729486  22.853212244225979 1

# Forces in Cartesian coordinates:
force Cu   0.000003552473134  -0.000047315252179   0.000114675781533 1
force Cu   0.000005533301738   0.000067699439506  -0.000056529177935 1
force Cu   0.000003396985979  -0.000051615672146   0.000120129111752 1
force Cu  -0.000000345143460   0.000017190059664  -0.000183733790091 1
force Cu   0.000002324614337   0.000001396247554  -0.000002578984246 1
force Cu   0.000003214405005  -0.000035781892042  -0.000042628730983 1
force Cu   0.000003078736701   0.000013856861407  -0.000077244358314 1
force Cu  -0.000004356193014  -0.000005411621069  -0.000041609956464 1
force Cu  -0.000001079429848  -0.000033051656542   0.000062790312514 1
force Cu   0.000002102598554   0.000044577845211  -0.000009520001770 1
force Cu   0.000007216880873  -0.000012808599282   0.000153638617384 1
force Cu  -0.000001817521716   0.000009480043873   0.000072108621330 1
force Cu   0.000000878034315   0.000076448903666  -0.000091049114558 1
force Cu   0.000001154119221  -0.000014950010810  -0.000042531531075 1
force Cu   0.000000441153283   0.000034363232139  -0.000048713260865 1
force Cu   0.000000703276857   0.000020745631331  -0.000096852367348 1
force Cu   0.000006943029338   0.000001624792518  -0.000073584519545 1
force Cu  -0.000000472778844  -0.000020476673492  -0.000040047761221 1
force Cu  -0.000001128381959  -0.000058120954571   0.000052672743189 1
force Cu   0.000001107658250  -0.000006612229246  -0.000107076820654 1
force Cu  -0.000000738895750  -0.000021450368242   0.000122468515446 1
force Cu  -0.000002305823130   0.000055188543493  -0.000045148920326 1
force Cu   0.000001886301343   0.000019003499375  -0.000035777241342 1
force Cu   0.000005032250507  -0.000043945697608   0.000122459707736 1
force Cu  -0.000001647302799   0.000063197340195   0.000019059655482 1
force Cu   0.000003880995602  -0.000077128532790   0.000241253315560 1

# Energy components:
   A_diel =       -0.0009596795582927
   Eewald =    47433.1365039078664267
       EH =    52236.9124624133110046
     Eloc =  -105903.3488114274368854
      Enl =      952.1961035940848888
     EvdW =       -0.4003795842913452
      Exc =     -504.5976011355622290
 Exc_core =        1.2212464032081254
       KE =      536.7135567881268798
-------------------------------------
     Etot =    -5248.1678787202499734
       TS =        0.0007384976933951
-------------------------------------
        F =    -5248.1686172179433925


Dumping 'jdft.fillings' ... done
Dumping 'jdft.wfns' ... done
Dumping 'jdft.fluidState' ... done
Dumping 'jdft.ionpos' ... done
Dumping 'jdft.lattice' ... done
Dumping 'jdft.eigenvals' ... done
Dumping 'jdft.eigStats' ... 
	eMin: -4.289429 at state 36 ( [ +0.000000 +0.000000 +0.000000 ] spin -1 )
	HOMO: -0.150015 at state 47 ( [ +0.222222 -0.250000 +0.000000 ] spin -1 )
	mu  : -0.149994
	LUMO: -0.149787 at state 27 ( [ -0.333333 -0.250000 +0.000000 ] spin 1 )
	eMax: +0.196945 at state 69 ( [ -0.111111 +0.250000 +0.000000 ] spin -1 )
	HOMO-LUMO gap: +0.000228
	Optical gap  : +0.001751 at state 63 ( [ -0.333333 -0.250000 +0.000000 ] spin -1 )
Dumping 'jdft.Ecomponents' ... done
IonicMinimize: Iter:   6  F: -5248.168617217943392  |grad|_K:  6.031e-05  alpha:  1.000e+00  linmin: -8.432e-01  t[s]:  24583.80
IonicMinimize: Converged (|grad|_K<1.000000e-04).

#--- Lowdin population analysis ---
# oxidation-state Cu +0.058 +0.071 +0.039 +0.073 +0.074 +0.076 +0.076 +0.078 +0.074 +0.002 +0.235 +0.048 +0.185 +0.047 +0.076 +0.074 +0.078 +0.076 +0.071 +0.074 +0.073 +0.039 +0.234 +0.002 +0.058 +0.185
# magnetic-moments Cu +0.000 +0.000 -0.000 -0.000 +0.000 +0.000 +0.000 -0.000 +0.000 -0.000 +0.000 -0.000 +0.000 +0.000 -0.000 -0.000 +0.000 -0.000 -0.000 +0.000 -0.000 +0.000 +0.000 -0.000 +0.000 -0.000


Dumping 'jdft.n_up' ... done
Dumping 'jdft.n_dn' ... done
Dumping 'jdft.tau_up' ... done
Dumping 'jdft.tau_dn' ... done
Dumping 'jdft.eigenvals' ... done
Dumping 'jdft.eigStats' ... 
	eMin: -4.289429 at state 36 ( [ +0.000000 +0.000000 +0.000000 ] spin -1 )
	HOMO: -0.150015 at state 47 ( [ +0.222222 -0.250000 +0.000000 ] spin -1 )
	mu  : -0.149994
	LUMO: -0.149787 at state 27 ( [ -0.333333 -0.250000 +0.000000 ] spin 1 )
	eMax: +0.196945 at state 69 ( [ -0.111111 +0.250000 +0.000000 ] spin -1 )
	HOMO-LUMO gap: +0.000228
	Optical gap  : +0.001751 at state 63 ( [ -0.333333 -0.250000 +0.000000 ] spin -1 )
Dumping 'jdft.kPts' ... done
Dumping 'jdft.dosUp' ... done.
Dumping 'jdft.dosDn' ... done.
End date and time: Mon Dec  6 22:16:52 2021  (Duration: 0-6:50:52.44)
Done!
ipcrm: permission denied for id (94700367)
ipcrm: permission denied for id (94864209)
