
*************** JDFTx 1.6.0  ***************

Start date and time: Thu Feb 17 03:52:38 2022
Executable /projects/musgravc/apps/jdftx-1.6.1/build/jdftx with command-line: -i in
Running on hosts (process indices):  shas0530.rc.int.colorado.edu (0-23)
Divided in process groups (process indices):  0 (0)  1 (1)  2 (2)  3 (3)  4 (4)  5 (5)  6 (6)  7 (7)  8 (8)  9 (9)  10 (10)  11 (11)  12 (12)  13 (13)  14 (14)  15 (15)  16 (16)  17 (17)  18 (18)  19 (19)  20 (20)  21 (21)  22 (22)  23 (23)
Resource initialization completed at t[s]:      0.00
Run totals: 24 processes, 24 threads, 0 GPUs


Input parsed successfully to the following command list (including defaults):

basis kpoint-dependent
converge-empty-states yes
coords-type Cartesian
core-overlap-check none
coulomb-interaction Periodic
davidson-band-ratio 1.1
density-of-states Etol 1.000000e-06 Esigma 1.000000e-03 \
		Complete \
	Total \
	OrthoOrbital Pt 1   s \
	OrthoOrbital Pt 1   p \
	OrthoOrbital Pt 1   px \
	OrthoOrbital Pt 1   py \
	OrthoOrbital Pt 1   pz \
	OrthoOrbital Pt 1   d \
	OrthoOrbital Pt 1   dxy \
	OrthoOrbital Pt 1   dyz \
	OrthoOrbital Pt 1   dz2 \
	OrthoOrbital Pt 1   dxz \
	OrthoOrbital Pt 1   dx2-y2 \
	OrthoOrbital Pt 2   s \
	OrthoOrbital Pt 2   p \
	OrthoOrbital Pt 2   px \
	OrthoOrbital Pt 2   py \
	OrthoOrbital Pt 2   pz \
	OrthoOrbital Pt 2   d \
	OrthoOrbital Pt 2   dxy \
	OrthoOrbital Pt 2   dyz \
	OrthoOrbital Pt 2   dz2 \
	OrthoOrbital Pt 2   dxz \
	OrthoOrbital Pt 2   dx2-y2 \
	OrthoOrbital Pt 3   s \
	OrthoOrbital Pt 3   p \
	OrthoOrbital Pt 3   px \
	OrthoOrbital Pt 3   py \
	OrthoOrbital Pt 3   pz \
	OrthoOrbital Pt 3   d \
	OrthoOrbital Pt 3   dxy \
	OrthoOrbital Pt 3   dyz \
	OrthoOrbital Pt 3   dz2 \
	OrthoOrbital Pt 3   dxz \
	OrthoOrbital Pt 3   dx2-y2 \
	OrthoOrbital Pt 4   s \
	OrthoOrbital Pt 4   p \
	OrthoOrbital Pt 4   px \
	OrthoOrbital Pt 4   py \
	OrthoOrbital Pt 4   pz \
	OrthoOrbital Pt 4   d \
	OrthoOrbital Pt 4   dxy \
	OrthoOrbital Pt 4   dyz \
	OrthoOrbital Pt 4   dz2 \
	OrthoOrbital Pt 4   dxz \
	OrthoOrbital Pt 4   dx2-y2 \
	OrthoOrbital Pt 5   s \
	OrthoOrbital Pt 5   p \
	OrthoOrbital Pt 5   px \
	OrthoOrbital Pt 5   py \
	OrthoOrbital Pt 5   pz \
	OrthoOrbital Pt 5   d \
	OrthoOrbital Pt 5   dxy \
	OrthoOrbital Pt 5   dyz \
	OrthoOrbital Pt 5   dz2 \
	OrthoOrbital Pt 5   dxz \
	OrthoOrbital Pt 5   dx2-y2 \
	OrthoOrbital Pt 6   s \
	OrthoOrbital Pt 6   p \
	OrthoOrbital Pt 6   px \
	OrthoOrbital Pt 6   py \
	OrthoOrbital Pt 6   pz \
	OrthoOrbital Pt 6   d \
	OrthoOrbital Pt 6   dxy \
	OrthoOrbital Pt 6   dyz \
	OrthoOrbital Pt 6   dz2 \
	OrthoOrbital Pt 6   dxz \
	OrthoOrbital Pt 6   dx2-y2 \
	OrthoOrbital Pt 7   s \
	OrthoOrbital Pt 7   p \
	OrthoOrbital Pt 7   px \
	OrthoOrbital Pt 7   py \
	OrthoOrbital Pt 7   pz \
	OrthoOrbital Pt 7   d \
	OrthoOrbital Pt 7   dxy \
	OrthoOrbital Pt 7   dyz \
	OrthoOrbital Pt 7   dz2 \
	OrthoOrbital Pt 7   dxz \
	OrthoOrbital Pt 7   dx2-y2 \
	OrthoOrbital Pt 8   s \
	OrthoOrbital Pt 8   p \
	OrthoOrbital Pt 8   px \
	OrthoOrbital Pt 8   py \
	OrthoOrbital Pt 8   pz \
	OrthoOrbital Pt 8   d \
	OrthoOrbital Pt 8   dxy \
	OrthoOrbital Pt 8   dyz \
	OrthoOrbital Pt 8   dz2 \
	OrthoOrbital Pt 8   dxz \
	OrthoOrbital Pt 8   dx2-y2 \
	OrthoOrbital Pt 9   s \
	OrthoOrbital Pt 9   p \
	OrthoOrbital Pt 9   px \
	OrthoOrbital Pt 9   py \
	OrthoOrbital Pt 9   pz \
	OrthoOrbital Pt 9   d \
	OrthoOrbital Pt 9   dxy \
	OrthoOrbital Pt 9   dyz \
	OrthoOrbital Pt 9   dz2 \
	OrthoOrbital Pt 9   dxz \
	OrthoOrbital Pt 9   dx2-y2 \
	OrthoOrbital Pt 10   s \
	OrthoOrbital Pt 10   p \
	OrthoOrbital Pt 10   px \
	OrthoOrbital Pt 10   py \
	OrthoOrbital Pt 10   pz \
	OrthoOrbital Pt 10   d \
	OrthoOrbital Pt 10   dxy \
	OrthoOrbital Pt 10   dyz \
	OrthoOrbital Pt 10   dz2 \
	OrthoOrbital Pt 10   dxz \
	OrthoOrbital Pt 10   dx2-y2 \
	OrthoOrbital Pt 11   s \
	OrthoOrbital Pt 11   p \
	OrthoOrbital Pt 11   px \
	OrthoOrbital Pt 11   py \
	OrthoOrbital Pt 11   pz \
	OrthoOrbital Pt 11   d \
	OrthoOrbital Pt 11   dxy \
	OrthoOrbital Pt 11   dyz \
	OrthoOrbital Pt 11   dz2 \
	OrthoOrbital Pt 11   dxz \
	OrthoOrbital Pt 11   dx2-y2 \
	OrthoOrbital Pt 12   s \
	OrthoOrbital Pt 12   p \
	OrthoOrbital Pt 12   px \
	OrthoOrbital Pt 12   py \
	OrthoOrbital Pt 12   pz \
	OrthoOrbital Pt 12   d \
	OrthoOrbital Pt 12   dxy \
	OrthoOrbital Pt 12   dyz \
	OrthoOrbital Pt 12   dz2 \
	OrthoOrbital Pt 12   dxz \
	OrthoOrbital Pt 12   dx2-y2 \
	OrthoOrbital Pt 13   s \
	OrthoOrbital Pt 13   p \
	OrthoOrbital Pt 13   px \
	OrthoOrbital Pt 13   py \
	OrthoOrbital Pt 13   pz \
	OrthoOrbital Pt 13   d \
	OrthoOrbital Pt 13   dxy \
	OrthoOrbital Pt 13   dyz \
	OrthoOrbital Pt 13   dz2 \
	OrthoOrbital Pt 13   dxz \
	OrthoOrbital Pt 13   dx2-y2 \
	OrthoOrbital Pt 14   s \
	OrthoOrbital Pt 14   p \
	OrthoOrbital Pt 14   px \
	OrthoOrbital Pt 14   py \
	OrthoOrbital Pt 14   pz \
	OrthoOrbital Pt 14   d \
	OrthoOrbital Pt 14   dxy \
	OrthoOrbital Pt 14   dyz \
	OrthoOrbital Pt 14   dz2 \
	OrthoOrbital Pt 14   dxz \
	OrthoOrbital Pt 14   dx2-y2 \
	OrthoOrbital Pt 15   s \
	OrthoOrbital Pt 15   p \
	OrthoOrbital Pt 15   px \
	OrthoOrbital Pt 15   py \
	OrthoOrbital Pt 15   pz \
	OrthoOrbital Pt 15   d \
	OrthoOrbital Pt 15   dxy \
	OrthoOrbital Pt 15   dyz \
	OrthoOrbital Pt 15   dz2 \
	OrthoOrbital Pt 15   dxz \
	OrthoOrbital Pt 15   dx2-y2 \
	OrthoOrbital Pt 16   s \
	OrthoOrbital Pt 16   p \
	OrthoOrbital Pt 16   px \
	OrthoOrbital Pt 16   py \
	OrthoOrbital Pt 16   pz \
	OrthoOrbital Pt 16   d \
	OrthoOrbital Pt 16   dxy \
	OrthoOrbital Pt 16   dyz \
	OrthoOrbital Pt 16   dz2 \
	OrthoOrbital Pt 16   dxz \
	OrthoOrbital Pt 16   dx2-y2 \
	OrthoOrbital Pt 17   s \
	OrthoOrbital Pt 17   p \
	OrthoOrbital Pt 17   px \
	OrthoOrbital Pt 17   py \
	OrthoOrbital Pt 17   pz \
	OrthoOrbital Pt 17   d \
	OrthoOrbital Pt 17   dxy \
	OrthoOrbital Pt 17   dyz \
	OrthoOrbital Pt 17   dz2 \
	OrthoOrbital Pt 17   dxz \
	OrthoOrbital Pt 17   dx2-y2 \
	OrthoOrbital Pt 18   s \
	OrthoOrbital Pt 18   p \
	OrthoOrbital Pt 18   px \
	OrthoOrbital Pt 18   py \
	OrthoOrbital Pt 18   pz \
	OrthoOrbital Pt 18   d \
	OrthoOrbital Pt 18   dxy \
	OrthoOrbital Pt 18   dyz \
	OrthoOrbital Pt 18   dz2 \
	OrthoOrbital Pt 18   dxz \
	OrthoOrbital Pt 18   dx2-y2 \
	OrthoOrbital Pt 19   s \
	OrthoOrbital Pt 19   p \
	OrthoOrbital Pt 19   px \
	OrthoOrbital Pt 19   py \
	OrthoOrbital Pt 19   pz \
	OrthoOrbital Pt 19   d \
	OrthoOrbital Pt 19   dxy \
	OrthoOrbital Pt 19   dyz \
	OrthoOrbital Pt 19   dz2 \
	OrthoOrbital Pt 19   dxz \
	OrthoOrbital Pt 19   dx2-y2 \
	OrthoOrbital Pt 20   s \
	OrthoOrbital Pt 20   p \
	OrthoOrbital Pt 20   px \
	OrthoOrbital Pt 20   py \
	OrthoOrbital Pt 20   pz \
	OrthoOrbital Pt 20   d \
	OrthoOrbital Pt 20   dxy \
	OrthoOrbital Pt 20   dyz \
	OrthoOrbital Pt 20   dz2 \
	OrthoOrbital Pt 20   dxz \
	OrthoOrbital Pt 20   dx2-y2 \
	OrthoOrbital Pt 21   s \
	OrthoOrbital Pt 21   p \
	OrthoOrbital Pt 21   px \
	OrthoOrbital Pt 21   py \
	OrthoOrbital Pt 21   pz \
	OrthoOrbital Pt 21   d \
	OrthoOrbital Pt 21   dxy \
	OrthoOrbital Pt 21   dyz \
	OrthoOrbital Pt 21   dz2 \
	OrthoOrbital Pt 21   dxz \
	OrthoOrbital Pt 21   dx2-y2 \
	OrthoOrbital Pt 22   s \
	OrthoOrbital Pt 22   p \
	OrthoOrbital Pt 22   px \
	OrthoOrbital Pt 22   py \
	OrthoOrbital Pt 22   pz \
	OrthoOrbital Pt 22   d \
	OrthoOrbital Pt 22   dxy \
	OrthoOrbital Pt 22   dyz \
	OrthoOrbital Pt 22   dz2 \
	OrthoOrbital Pt 22   dxz \
	OrthoOrbital Pt 22   dx2-y2 \
	OrthoOrbital Pt 23   s \
	OrthoOrbital Pt 23   p \
	OrthoOrbital Pt 23   px \
	OrthoOrbital Pt 23   py \
	OrthoOrbital Pt 23   pz \
	OrthoOrbital Pt 23   d \
	OrthoOrbital Pt 23   dxy \
	OrthoOrbital Pt 23   dyz \
	OrthoOrbital Pt 23   dz2 \
	OrthoOrbital Pt 23   dxz \
	OrthoOrbital Pt 23   dx2-y2 \
	OrthoOrbital Pt 24   s \
	OrthoOrbital Pt 24   p \
	OrthoOrbital Pt 24   px \
	OrthoOrbital Pt 24   py \
	OrthoOrbital Pt 24   pz \
	OrthoOrbital Pt 24   d \
	OrthoOrbital Pt 24   dxy \
	OrthoOrbital Pt 24   dyz \
	OrthoOrbital Pt 24   dz2 \
	OrthoOrbital Pt 24   dxz \
	OrthoOrbital Pt 24   dx2-y2 \
	OrthoOrbital Pt 25   s \
	OrthoOrbital Pt 25   p \
	OrthoOrbital Pt 25   px \
	OrthoOrbital Pt 25   py \
	OrthoOrbital Pt 25   pz \
	OrthoOrbital Pt 25   d \
	OrthoOrbital Pt 25   dxy \
	OrthoOrbital Pt 25   dyz \
	OrthoOrbital Pt 25   dz2 \
	OrthoOrbital Pt 25   dxz \
	OrthoOrbital Pt 25   dx2-y2 \
	OrthoOrbital Pt 26   s \
	OrthoOrbital Pt 26   p \
	OrthoOrbital Pt 26   px \
	OrthoOrbital Pt 26   py \
	OrthoOrbital Pt 26   pz \
	OrthoOrbital Pt 26   d \
	OrthoOrbital Pt 26   dxy \
	OrthoOrbital Pt 26   dyz \
	OrthoOrbital Pt 26   dz2 \
	OrthoOrbital Pt 26   dxz \
	OrthoOrbital Pt 26   dx2-y2 \
	OrthoOrbital Pt 27   s \
	OrthoOrbital Pt 27   p \
	OrthoOrbital Pt 27   px \
	OrthoOrbital Pt 27   py \
	OrthoOrbital Pt 27   pz \
	OrthoOrbital Pt 27   d \
	OrthoOrbital Pt 27   dxy \
	OrthoOrbital Pt 27   dyz \
	OrthoOrbital Pt 27   dz2 \
	OrthoOrbital Pt 27   dxz \
	OrthoOrbital Pt 27   dx2-y2 \
	OrthoOrbital Pt 28   s \
	OrthoOrbital Pt 28   p \
	OrthoOrbital Pt 28   px \
	OrthoOrbital Pt 28   py \
	OrthoOrbital Pt 28   pz \
	OrthoOrbital Pt 28   d \
	OrthoOrbital Pt 28   dxy \
	OrthoOrbital Pt 28   dyz \
	OrthoOrbital Pt 28   dz2 \
	OrthoOrbital Pt 28   dxz \
	OrthoOrbital Pt 28   dx2-y2 \
	OrthoOrbital Pt 29   s \
	OrthoOrbital Pt 29   p \
	OrthoOrbital Pt 29   px \
	OrthoOrbital Pt 29   py \
	OrthoOrbital Pt 29   pz \
	OrthoOrbital Pt 29   d \
	OrthoOrbital Pt 29   dxy \
	OrthoOrbital Pt 29   dyz \
	OrthoOrbital Pt 29   dz2 \
	OrthoOrbital Pt 29   dxz \
	OrthoOrbital Pt 29   dx2-y2 \
	OrthoOrbital Pt 30   s \
	OrthoOrbital Pt 30   p \
	OrthoOrbital Pt 30   px \
	OrthoOrbital Pt 30   py \
	OrthoOrbital Pt 30   pz \
	OrthoOrbital Pt 30   d \
	OrthoOrbital Pt 30   dxy \
	OrthoOrbital Pt 30   dyz \
	OrthoOrbital Pt 30   dz2 \
	OrthoOrbital Pt 30   dxz \
	OrthoOrbital Pt 30   dx2-y2 \
	OrthoOrbital Pt 31   s \
	OrthoOrbital Pt 31   p \
	OrthoOrbital Pt 31   px \
	OrthoOrbital Pt 31   py \
	OrthoOrbital Pt 31   pz \
	OrthoOrbital Pt 31   d \
	OrthoOrbital Pt 31   dxy \
	OrthoOrbital Pt 31   dyz \
	OrthoOrbital Pt 31   dz2 \
	OrthoOrbital Pt 31   dxz \
	OrthoOrbital Pt 31   dx2-y2 \
	OrthoOrbital Pt 32   s \
	OrthoOrbital Pt 32   p \
	OrthoOrbital Pt 32   px \
	OrthoOrbital Pt 32   py \
	OrthoOrbital Pt 32   pz \
	OrthoOrbital Pt 32   d \
	OrthoOrbital Pt 32   dxy \
	OrthoOrbital Pt 32   dyz \
	OrthoOrbital Pt 32   dz2 \
	OrthoOrbital Pt 32   dxz \
	OrthoOrbital Pt 32   dx2-y2 \
	OrthoOrbital Pt 33   s \
	OrthoOrbital Pt 33   p \
	OrthoOrbital Pt 33   px \
	OrthoOrbital Pt 33   py \
	OrthoOrbital Pt 33   pz \
	OrthoOrbital Pt 33   d \
	OrthoOrbital Pt 33   dxy \
	OrthoOrbital Pt 33   dyz \
	OrthoOrbital Pt 33   dz2 \
	OrthoOrbital Pt 33   dxz \
	OrthoOrbital Pt 33   dx2-y2 \
	OrthoOrbital Pt 34   s \
	OrthoOrbital Pt 34   p \
	OrthoOrbital Pt 34   px \
	OrthoOrbital Pt 34   py \
	OrthoOrbital Pt 34   pz \
	OrthoOrbital Pt 34   d \
	OrthoOrbital Pt 34   dxy \
	OrthoOrbital Pt 34   dyz \
	OrthoOrbital Pt 34   dz2 \
	OrthoOrbital Pt 34   dxz \
	OrthoOrbital Pt 34   dx2-y2 \
	OrthoOrbital Pt 35   s \
	OrthoOrbital Pt 35   p \
	OrthoOrbital Pt 35   px \
	OrthoOrbital Pt 35   py \
	OrthoOrbital Pt 35   pz \
	OrthoOrbital Pt 35   d \
	OrthoOrbital Pt 35   dxy \
	OrthoOrbital Pt 35   dyz \
	OrthoOrbital Pt 35   dz2 \
	OrthoOrbital Pt 35   dxz \
	OrthoOrbital Pt 35   dx2-y2 \
	OrthoOrbital Pt 36   s \
	OrthoOrbital Pt 36   p \
	OrthoOrbital Pt 36   px \
	OrthoOrbital Pt 36   py \
	OrthoOrbital Pt 36   pz \
	OrthoOrbital Pt 36   d \
	OrthoOrbital Pt 36   dxy \
	OrthoOrbital Pt 36   dyz \
	OrthoOrbital Pt 36   dz2 \
	OrthoOrbital Pt 36   dxz \
	OrthoOrbital Pt 36   dx2-y2 \
	OrthoOrbital Pt 37   s \
	OrthoOrbital Pt 37   p \
	OrthoOrbital Pt 37   px \
	OrthoOrbital Pt 37   py \
	OrthoOrbital Pt 37   pz \
	OrthoOrbital Pt 37   d \
	OrthoOrbital Pt 37   dxy \
	OrthoOrbital Pt 37   dyz \
	OrthoOrbital Pt 37   dz2 \
	OrthoOrbital Pt 37   dxz \
	OrthoOrbital Pt 37   dx2-y2 \
	OrthoOrbital Pt 38   s \
	OrthoOrbital Pt 38   p \
	OrthoOrbital Pt 38   px \
	OrthoOrbital Pt 38   py \
	OrthoOrbital Pt 38   pz \
	OrthoOrbital Pt 38   d \
	OrthoOrbital Pt 38   dxy \
	OrthoOrbital Pt 38   dyz \
	OrthoOrbital Pt 38   dz2 \
	OrthoOrbital Pt 38   dxz \
	OrthoOrbital Pt 38   dx2-y2 \
	OrthoOrbital Pt 39   s \
	OrthoOrbital Pt 39   p \
	OrthoOrbital Pt 39   px \
	OrthoOrbital Pt 39   py \
	OrthoOrbital Pt 39   pz \
	OrthoOrbital Pt 39   d \
	OrthoOrbital Pt 39   dxy \
	OrthoOrbital Pt 39   dyz \
	OrthoOrbital Pt 39   dz2 \
	OrthoOrbital Pt 39   dxz \
	OrthoOrbital Pt 39   dx2-y2 \
	OrthoOrbital Pt 40   s \
	OrthoOrbital Pt 40   p \
	OrthoOrbital Pt 40   px \
	OrthoOrbital Pt 40   py \
	OrthoOrbital Pt 40   pz \
	OrthoOrbital Pt 40   d \
	OrthoOrbital Pt 40   dxy \
	OrthoOrbital Pt 40   dyz \
	OrthoOrbital Pt 40   dz2 \
	OrthoOrbital Pt 40   dxz \
	OrthoOrbital Pt 40   dx2-y2 \
	OrthoOrbital Pt 41   s \
	OrthoOrbital Pt 41   p \
	OrthoOrbital Pt 41   px \
	OrthoOrbital Pt 41   py \
	OrthoOrbital Pt 41   pz \
	OrthoOrbital Pt 41   d \
	OrthoOrbital Pt 41   dxy \
	OrthoOrbital Pt 41   dyz \
	OrthoOrbital Pt 41   dz2 \
	OrthoOrbital Pt 41   dxz \
	OrthoOrbital Pt 41   dx2-y2 \
	OrthoOrbital Pt 42   s \
	OrthoOrbital Pt 42   p \
	OrthoOrbital Pt 42   px \
	OrthoOrbital Pt 42   py \
	OrthoOrbital Pt 42   pz \
	OrthoOrbital Pt 42   d \
	OrthoOrbital Pt 42   dxy \
	OrthoOrbital Pt 42   dyz \
	OrthoOrbital Pt 42   dz2 \
	OrthoOrbital Pt 42   dxz \
	OrthoOrbital Pt 42   dx2-y2 \
	OrthoOrbital Pt 43   s \
	OrthoOrbital Pt 43   p \
	OrthoOrbital Pt 43   px \
	OrthoOrbital Pt 43   py \
	OrthoOrbital Pt 43   pz \
	OrthoOrbital Pt 43   d \
	OrthoOrbital Pt 43   dxy \
	OrthoOrbital Pt 43   dyz \
	OrthoOrbital Pt 43   dz2 \
	OrthoOrbital Pt 43   dxz \
	OrthoOrbital Pt 43   dx2-y2 \
	OrthoOrbital Pt 44   s \
	OrthoOrbital Pt 44   p \
	OrthoOrbital Pt 44   px \
	OrthoOrbital Pt 44   py \
	OrthoOrbital Pt 44   pz \
	OrthoOrbital Pt 44   d \
	OrthoOrbital Pt 44   dxy \
	OrthoOrbital Pt 44   dyz \
	OrthoOrbital Pt 44   dz2 \
	OrthoOrbital Pt 44   dxz \
	OrthoOrbital Pt 44   dx2-y2 \
	OrthoOrbital C 1   s \
	OrthoOrbital C 1   p \
	OrthoOrbital C 1   px \
	OrthoOrbital C 1   py \
	OrthoOrbital C 1   pz \
	OrthoOrbital O 1   s \
	OrthoOrbital O 1   p \
	OrthoOrbital O 1   px \
	OrthoOrbital O 1   py \
	OrthoOrbital O 1   pz
dump End ElecDensity KEdensity BandEigs EigStats RhoAtom DOS Kpoints
dump Ionic State IonicPositions Lattice EigStats Ecomponents
dump 
dump 
dump 
dump 
dump 
dump 
dump 
dump 
dump-name jdft.$VAR
elec-cutoff 20
elec-eigen-algo Davidson
elec-ex-corr gga-PBE
elec-initial-magnetization 0.000000 no
elec-n-bands 429
elec-smearing Fermi 0.001
electronic-minimize  \
	dirUpdateScheme      FletcherReeves \
	linminMethod         DirUpdateRecommended \
	nIterations          100 \
	history              15 \
	knormThreshold       0 \
	energyDiffThreshold  1e-07 \
	nEnergyDiff          2 \
	alphaTstart          1 \
	alphaTmin            1e-10 \
	updateTestStepSize   yes \
	alphaTreduceFactor   0.1 \
	alphaTincreaseFactor 3 \
	nAlphaAdjustMax      3 \
	wolfeEnergy          0.0001 \
	wolfeGradient        0.9 \
	fdTest               no
exchange-regularization WignerSeitzTruncated
fluid LinearPCM 298.000000 1.013250
fluid-anion F- 0.5 MeanFieldLJ \
	epsBulk 1 \
	pMol 0 \
	epsInf 1 \
	Pvap 0 \
	sigmaBulk 0 \
	Rvdw 2.24877 \
	Res 0 \
	tauNuc 343133
fluid-cation Na+ 0.5 MeanFieldLJ \
	epsBulk 1 \
	pMol 0 \
	epsInf 1 \
	Pvap 0 \
	sigmaBulk 0 \
	Rvdw 2.19208 \
	Res 0 \
	tauNuc 343133
fluid-ex-corr lda-TF lda-PZ
fluid-gummel-loop 10 1.000000e-05
fluid-minimize  \
	dirUpdateScheme      PolakRibiere \
	linminMethod         DirUpdateRecommended \
	nIterations          400 \
	history              15 \
	knormThreshold       1e-11 \
	energyDiffThreshold  0 \
	nEnergyDiff          2 \
	alphaTstart          1 \
	alphaTmin            1e-10 \
	updateTestStepSize   yes \
	alphaTreduceFactor   0.1 \
	alphaTincreaseFactor 3 \
	nAlphaAdjustMax      6 \
	wolfeEnergy          0.0001 \
	wolfeGradient        0.9 \
	fdTest               no
fluid-solvent H2O 55.338 ScalarEOS \
	epsBulk 78.4 \
	pMol 0.92466 \
	epsInf 1.77 \
	Pvap 1.06736e-10 \
	sigmaBulk 4.62e-05 \
	Rvdw 2.61727 \
	Res 1.42 \
	tauNuc 343133 \
	poleEl 15 7 1
forces-output-coords Positions
ion Pt   5.241340000000000   0.218295000000000  23.220851000000003 0
ion Pt   2.625348000000001   8.894560000000000  23.220851000000003 0
ion Pt   0.009344000000000   0.218295000000000  23.220851000000003 0
ion Pt  -2.606647000000000   8.894560000000000  23.220851000000003 0
ion Pt  -0.009459000000000   4.514096000000000   1.317516000000000 0
ion Pt  -2.625445999999999  13.190378999999998   1.317516000000000 0
ion Pt   5.222547000000000   4.514096000000000   1.317516000000000 0
ion Pt   2.606540000000002  13.190378999999998   1.317516000000000 0
ion Pt   2.606795000000000   0.560262000000000   3.078081000000000 0
ion Pt  -0.009207000000000   9.236561999999999   3.078081000000000 0
ion Pt   7.838791000000000   0.560262000000000   3.078081000000000 0
ion Pt   5.222789000000000   9.236561999999999   3.078081000000000 0
ion Pt   2.609997000000000   5.509561000000000   5.634781000000000 0
ion Pt  -0.006004999999998  14.185860999999997   5.634781000000000 0
ion Pt   7.841993000000000   5.509561000000000   5.634781000000000 0
ion Pt   5.225991000000001  14.185860999999997   5.634781000000000 0
ion Pt  -0.003359000000000   1.572871000000000   7.779941000000001 0
ion Pt  -2.619355999999999  10.249154000000001   7.779941000000001 0
ion Pt   5.228637000000000   1.572871000000000   7.779941000000001 0
ion Pt   2.612640000000000  10.249154000000001   7.779941000000001 0
ion Pt  -0.002505000000000   6.318328999999999  10.051066000000002 0
ion Pt  -2.618501999999999  14.994611999999998  10.051066000000002 0
ion Pt   5.229490000000001   6.318328999999999  10.051066000000002 0
ion Pt   2.613493000000001  14.994611999999998  10.051066000000002 0
ion Pt   2.616171000000000   2.366906999999999  12.270803000000001 0
ion Pt   0.000174000000001  11.043189999999997  12.270803000000001 0
ion Pt   7.848167000000002   2.366906999999999  12.270803000000001 0
ion Pt   5.232170000000000  11.043189999999997  12.270803000000001 0
ion Pt   2.618583000000000   7.091334000000000  14.490026000000002 0
ion Pt   0.002581000000000  15.767633999999997  14.490026000000002 0
ion Pt   7.850579000000000   7.091334000000000  14.490026000000002 0
ion Pt   5.234577000000002  15.767633999999997  14.490026000000002 0
ion Pt   0.003506000000000   3.159276999999999  16.761077000000000 0
ion Pt  -2.612480999999999  11.835559999999999  16.761077000000000 0
ion Pt   5.235502000000000   3.159276999999999  16.761077000000000 0
ion Pt   2.619515000000000  11.835559999999999  16.761077000000000 0
ion Pt   0.005971000000000   7.898454000000000  18.905721000000000 0
ion Pt  -2.610025999999999  16.574736000000001  18.905721000000000 0
ion Pt   5.237966000000002   7.898454000000000  18.905721000000000 0
ion Pt   2.621969000000001  16.574736000000001  18.905721000000000 0
ion Pt   2.624935000000000   4.172007999999999  21.461684999999999 0
ion Pt   0.008938000000001  12.848289999999999  21.461684999999999 0
ion Pt   7.856931000000001   4.172007999999999  21.461684999999999 0
ion Pt   5.240934000000001  12.848289999999999  21.461684999999999 0
ion C   0.009351000000001   8.894560000000000  25.527903000000002 1  Linear 0 0 1
ion O   0.069445000000000   8.894560000000000  27.683223000000002 1  Linear 0 0 1
ion-species /projects/musgravc/apps/jdftx-1.6.0/build/pseudopotentials/GBRV_v1.5/$ID_pbe_v1.uspp
ion-species /projects/musgravc/apps/jdftx-1.6.0/build/pseudopotentials/GBRV_v1.5/$ID_pbe_v1.2.uspp
ion-species /projects/musgravc/apps/jdftx-1.6.0/build/pseudopotentials/GBRV_v1.5/$ID_pbe_v1.4.uspp
ion-species /projects/musgravc/apps/jdftx-1.6.0/build/pseudopotentials/GBRV_v1.5/$ID_pbe_v1.5.uspp
ion-width Ecut
ionic-minimize  \
	dirUpdateScheme      L-BFGS \
	linminMethod         DirUpdateRecommended \
	nIterations          100 \
	history              15 \
	knormThreshold       0.0001 \
	energyDiffThreshold  1e-06 \
	nEnergyDiff          2 \
	alphaTstart          1 \
	alphaTmin            1e-10 \
	updateTestStepSize   yes \
	alphaTreduceFactor   0.1 \
	alphaTincreaseFactor 3 \
	nAlphaAdjustMax      3 \
	wolfeEnergy          0.0001 \
	wolfeGradient        0.9 \
	fdTest               no
kpoint   0.000000000000   0.000000000000   0.000000000000  1.00000000000000
kpoint-folding 6 3 1 
latt-move-scale 0 0 0
latt-scale 1 1 1 
lattice  \
	  10.463991999999999   -5.231994000000000    0.000000000000000  \
	   0.000000000000000   17.352564999999998    0.000000000000000  \
	   0.000000000000000    0.000000000000000   73.620697000000007 
lattice-minimize  \
	dirUpdateScheme      L-BFGS \
	linminMethod         DirUpdateRecommended \
	nIterations          0 \
	history              15 \
	knormThreshold       0 \
	energyDiffThreshold  1e-06 \
	nEnergyDiff          2 \
	alphaTstart          1 \
	alphaTmin            1e-10 \
	updateTestStepSize   yes \
	alphaTreduceFactor   0.1 \
	alphaTincreaseFactor 3 \
	nAlphaAdjustMax      3 \
	wolfeEnergy          0.0001 \
	wolfeGradient        0.9 \
	fdTest               no
lcao-params 30 1e-06 0.001
pcm-variant CANDLE
spintype z-spin
subspace-rotation-factor 1 yes
symmetries automatic
symmetry-threshold 0.0001
van-der-waals D3



---------- Setting up symmetries ----------

Found 8 point-group symmetries of the bravais lattice
Found 1 space-group symmetries with basis
Applied RMS atom displacement 0 bohrs to make symmetries exact.

---------- Initializing the Grid ----------
R = 
[       10.464     -5.23199            0  ]
[            0      17.3526            0  ]
[            0            0      73.6207  ]
unit cell volume = 13367.8
G =
[   0.600458   0.181045         -0  ]
[          0    0.36209          0  ]
[          0         -0  0.0853454  ]
Minimum fftbox size, Smin = [  44  76  300  ]
Chosen fftbox size, S = [  48  80  300  ]

---------- Exchange Correlation functional ----------
Initalized PBE GGA exchange.
Initalized PBE GGA correlation.

---------- Setting up pseudopotentials ----------
Width of ionic core gaussian charges (only for fluid interactions / plotting) set to 0.397384

Reading pseudopotential file '/projects/musgravc/apps/jdftx-1.6.0/build/pseudopotentials/GBRV_v1.5/pt_pbe_v1.4.uspp':
  Title: Pt.  Created by USPP 7.3.6 on 31-3-15
  Reference state energy: -105.002503.  16 valence electrons in orbitals:
    |510>  occupation: 6  eigenvalue: -2.158104
    |520>  occupation: 9.5  eigenvalue: -0.335376
    |600>  occupation: 0  eigenvalue: -0.319640
    |610>  occupation: 0  eigenvalue: -0.122947
  lMax: 2  lLocal: 3  QijEcut: 5.5
  6 projectors sampled on a log grid with 745 points:
    l: 0  eig: -0.319640  rCut: 2.45
    l: 0  eig: 1.500000  rCut: 2.45
    l: 1  eig: -2.158104  rCut: 1.6
    l: 1  eig: -0.122947  rCut: 1.6
    l: 2  eig: -0.500000  rCut: 1.6
    l: 2  eig: -0.335375  rCut: 1.6
  Partial core density with radius 1.1
  Transforming core density to a uniform radial grid of dG=0.02 with 1353 points.
  Transforming local potential to a uniform radial grid of dG=0.02 with 1353 points.
  Transforming nonlocal projectors to a uniform radial grid of dG=0.02 with 432 points.
  Transforming density augmentations to a uniform radial grid of dG=0.02 with 1353 points.
  Transforming atomic orbitals to a uniform radial grid of dG=0.02 with 432 points.
  Core radius for overlap checks: 2.45 bohrs.

Reading pseudopotential file '/projects/musgravc/apps/jdftx-1.6.0/build/pseudopotentials/GBRV_v1.5/c_pbe_v1.2.uspp':
  Title: C.  Created by USPP 7.3.6 on 3-2-2014
  Reference state energy: -5.406344.  4 valence electrons in orbitals:
    |200>  occupation: 2  eigenvalue: -0.504890
    |210>  occupation: 2  eigenvalue: -0.194356
  lMax: 1  lLocal: 2  QijEcut: 5
  4 projectors sampled on a log grid with 503 points:
    l: 0  eig: -0.504890  rCut: 1.3
    l: 0  eig: 0.000000  rCut: 1.3
    l: 1  eig: -0.194357  rCut: 1.3
    l: 1  eig: 0.000000  rCut: 1.3
  Partial core density with radius 1.1
  Transforming core density to a uniform radial grid of dG=0.02 with 1353 points.
  Transforming local potential to a uniform radial grid of dG=0.02 with 1353 points.
  Transforming nonlocal projectors to a uniform radial grid of dG=0.02 with 432 points.
  Transforming density augmentations to a uniform radial grid of dG=0.02 with 1353 points.
  Transforming atomic orbitals to a uniform radial grid of dG=0.02 with 432 points.
  Core radius for overlap checks: 1.30 bohrs.

Reading pseudopotential file '/projects/musgravc/apps/jdftx-1.6.0/build/pseudopotentials/GBRV_v1.5/o_pbe_v1.2.uspp':
  Title: O.  Created by USPP 7.3.6 on 3-2-2014
  Reference state energy: -15.894388.  6 valence electrons in orbitals:
    |200>  occupation: 2  eigenvalue: -0.878823
    |210>  occupation: 4  eigenvalue: -0.332131
  lMax: 2  lLocal: 2  QijEcut: 6
  5 projectors sampled on a log grid with 511 points:
    l: 0  eig: -0.878823  rCut: 1.25
    l: 0  eig: 0.000000  rCut: 1.25
    l: 1  eig: -0.332132  rCut: 1.25
    l: 1  eig: 0.000000  rCut: 1.25
    l: 2  eig: 1.000000  rCut: 1.25
  Partial core density with radius 0.7
  Transforming core density to a uniform radial grid of dG=0.02 with 1353 points.
  Transforming local potential to a uniform radial grid of dG=0.02 with 1353 points.
  Transforming nonlocal projectors to a uniform radial grid of dG=0.02 with 432 points.
  Transforming density augmentations to a uniform radial grid of dG=0.02 with 1353 points.
  Transforming atomic orbitals to a uniform radial grid of dG=0.02 with 432 points.
  Core radius for overlap checks: 1.25 bohrs.

Initialized 3 species with 46 total atoms.

Folded 1 k-points by 6x3x1 to 18 k-points.

---------- Setting up k-points, bands, fillings ----------
Adding inversion symmetry to k-mesh for non-inversion-symmetric unit cell.
Reduced to 10 k-points under symmetry. 
Computing the number of bands and number of electrons
Calculating initial fillings.
nElectrons: 714.000000   nBands: 429   nStates: 20

----- Setting up reduced wavefunction bases (one per k-point) -----
average nbasis = 57117.722 , ideal nbasis = 57108.400

----- Initializing Supercell corresponding to k-point mesh -----
Lattice vector linear combinations in supercell:
[   6   0   0  ]
[   0   3   0  ]
[   0   0   1  ]
Supercell lattice vectors:
[  62.784  -15.696  0  ]
[  0  52.0577  0  ]
[  0  0  73.6207  ]

Initializing DFT-D3 calculator:
	Parameters set for gga-PBE functional
	s6:  1.000  s_r6:  1.217
	s8:  0.722  s_r8:  1.000
	Per-atom parameters loaded for:
	Pt:  sqrtQ[a0]:  5.888  Rcov[a0]:  2.116  CN: [ 0.00 1.92 6.67 ]
	 C:  sqrtQ[a0]:  3.105  Rcov[a0]:  1.417  CN: [ 0.00 0.99 2.00 3.00 3.98 ]
	 O:  sqrtQ[a0]:  2.594  Rcov[a0]:  1.191  CN: [ 0.00 0.99 1.99 ]

Initializing DFT-D2 calculator for fluid / solvation:
	Pt:  C6:  815.23 Eh-a0^6  R0: 3.326 a0 (WARNING: beyond Grimme's data set)
	 C:  C6:   30.35 Eh-a0^6  R0: 2.744 a0
	 O:  C6:   12.14 Eh-a0^6  R0: 2.536 a0

---------- Setting up ewald sum ----------
Optimum gaussian width for ewald sums = 5.001928 bohr.
Real space sum over 585 unit cells with max indices [  6  4  2  ]
Reciprocal space sum over 8085 terms with max indices [  5  7  24  ]

Computing DFT-D3 correction:
# coordination-number Pt 5.958 7.047 5.958 7.035 5.954 5.954 5.954 5.954 7.677 7.677 7.677 7.677 9.494 9.494 9.494 9.494 9.261 9.261 9.261 9.261 9.597 9.597 9.597 9.597 9.519 9.519 9.519 9.519 9.598 9.598 9.598 9.598 9.264 9.264 9.264 9.264 9.506 9.497 9.499 9.497 7.689 7.744 7.689 7.684
# coordination-number C 3.095
# coordination-number O 1.181
# diagonal-C6 Pt 336.87 336.87 336.87 336.87 336.87 336.87 336.87 336.87 336.87 336.87 336.87 336.87 336.87 336.87 336.87 336.87 336.87 336.87 336.87 336.87 336.87 336.87 336.87 336.87 336.87 336.87 336.87 336.87 336.87 336.87 336.87 336.87 336.87 336.87 336.87 336.87 336.87 336.87 336.87 336.87 336.87 336.87 336.87 336.87
# diagonal-C6 C 25.46
# diagonal-C6 O 12.62
EvdW_6 =   -0.391499
EvdW_8 =   -0.630665

---------- Allocating electronic variables ----------
Initializing wave functions:  linear combination of atomic orbitals
Pt pseudo-atom occupations:   s ( 0 )  p ( 6 0 )  d ( 10 )
C pseudo-atom occupations:   s ( 2 )  p ( 2 )
O pseudo-atom occupations:   s ( 2 )  p ( 4 )
	FillingsUpdate:  mu: -1.385511489  nElectrons: 714.000000  magneticMoment: [ Abs: 0.00342  Tot: +0.00010 ]
LCAOMinimize: Iter:   0  F: -3914.8002284802123540  |grad|_K:  1.741e-02  alpha:  1.000e+00
LCAOMinimize: 	Step increased F by 5.798772e+02, reducing alpha to 1.964903e-02.
	FillingsUpdate:  mu: -0.022582692  nElectrons: 714.000000  magneticMoment: [ Abs: 0.00291  Tot: +0.00016 ]
LCAOMinimize: Iter:   1  F: -3928.3821643386668256  |grad|_K:  5.907e-03  alpha:  1.965e-02  linmin:  7.934e-02  cgtest: -5.555e-01  t[s]:    306.32
	FillingsUpdate:  mu: +0.127727999  nElectrons: 714.000000  magneticMoment: [ Abs: 0.00278  Tot: +0.00016 ]
LCAOMinimize: Iter:   2  F: -3929.0587718244105417  |grad|_K:  6.244e-03  alpha:  1.172e-02  linmin: -1.600e-04  cgtest:  5.289e-01  t[s]:    396.12
	FillingsUpdate:  mu: -0.264696697  nElectrons: 714.000000  magneticMoment: [ Abs: 0.00254  Tot: -0.00001 ]
LCAOMinimize: Iter:   3  F: -3931.8073101853710796  |grad|_K:  5.654e-03  alpha:  3.013e-02  linmin:  4.384e-02  cgtest: -6.301e-01  t[s]:    485.43
	FillingsUpdate:  mu: -0.250979120  nElectrons: 714.000000  magneticMoment: [ Abs: 0.00247  Tot: -0.00002 ]
LCAOMinimize: Iter:   4  F: -3932.0562776405868135  |grad|_K:  5.727e-03  alpha:  6.140e-03  linmin:  1.270e-04  cgtest:  8.946e-01  t[s]:    574.69
	FillingsUpdate:  mu: +0.027065930  nElectrons: 714.000000  magneticMoment: [ Abs: 0.00240  Tot: -0.00011 ]
LCAOMinimize: Iter:   5  F: -3933.3972511599981772  |grad|_K:  3.472e-03  alpha:  1.415e-02  linmin:  2.773e-04  cgtest: -2.864e-02  t[s]:    664.86
	FillingsUpdate:  mu: +0.005872558  nElectrons: 714.000000  magneticMoment: [ Abs: 0.00237  Tot: -0.00009 ]
LCAOMinimize: Iter:   6  F: -3933.6662278554967997  |grad|_K:  1.926e-03  alpha:  7.651e-03  linmin: -1.812e-03  cgtest:  1.095e-02  t[s]:    754.51
LCAOMinimize: 	Predicted alpha/alphaT>3.000000, increasing alphaT to 2.295399e-02.
LCAOMinimize: 	Predicted alpha/alphaT>3.000000, increasing alphaT to 6.886197e-02.
	FillingsUpdate:  mu: +0.076747356  nElectrons: 714.000000  magneticMoment: [ Abs: 0.00214  Tot: +0.00003 ]
LCAOMinimize: Iter:   7  F: -3934.6376075878192751  |grad|_K:  3.413e-03  alpha:  9.301e-02  linmin:  4.280e-03  cgtest:  8.870e-02  t[s]:    890.46
	FillingsUpdate:  mu: +0.142924557  nElectrons: 714.000000  magneticMoment: [ Abs: 0.00206  Tot: +0.00006 ]
LCAOMinimize: Iter:   8  F: -3934.8122221768940108  |grad|_K:  3.126e-03  alpha:  1.069e-02  linmin:  2.426e-02  cgtest: -4.447e-01  t[s]:    980.04
	FillingsUpdate:  mu: +0.206317928  nElectrons: 714.000000  magneticMoment: [ Abs: 0.00200  Tot: +0.00006 ]
LCAOMinimize: Iter:   9  F: -3934.8671809916450002  |grad|_K:  3.208e-03  alpha:  5.865e-03  linmin:  1.434e-04  cgtest:  9.536e-01  t[s]:   1069.54
	FillingsUpdate:  mu: +0.124766133  nElectrons: 714.000000  magneticMoment: [ Abs: 0.00199  Tot: +0.00007 ]
LCAOMinimize: Iter:  10  F: -3935.0171705567859135  |grad|_K:  1.084e-03  alpha:  5.037e-03  linmin:  4.793e-03  cgtest: -3.248e-02  t[s]:   1158.88
LCAOMinimize: 	Predicted alpha/alphaT>3.000000, increasing alphaT to 1.511051e-02.
LCAOMinimize: 	Predicted alpha/alphaT>3.000000, increasing alphaT to 4.533154e-02.
	FillingsUpdate:  mu: +0.213298730  nElectrons: 714.000000  magneticMoment: [ Abs: 0.00193  Tot: +0.00008 ]
LCAOMinimize: Iter:  11  F: -3935.2108826492817570  |grad|_K:  1.326e-03  alpha:  5.891e-02  linmin:  6.703e-03  cgtest:  1.390e-01  t[s]:   1295.22
	FillingsUpdate:  mu: +0.181884323  nElectrons: 714.000000  magneticMoment: [ Abs: 0.00190  Tot: +0.00008 ]
LCAOMinimize: Iter:  12  F: -3935.2904199029871961  |grad|_K:  1.451e-03  alpha:  1.801e-02  linmin:  3.585e-03  cgtest: -4.185e-02  t[s]:   1384.78
	FillingsUpdate:  mu: +0.120233274  nElectrons: 714.000000  magneticMoment: [ Abs: 0.00188  Tot: +0.00008 ]
LCAOMinimize: Iter:  13  F: -3935.3336015070935900  |grad|_K:  7.680e-04  alpha:  7.317e-03  linmin: -2.277e-03  cgtest:  1.710e-01  t[s]:   1474.13
LCAOMinimize: 	Predicted alpha/alphaT>3.000000, increasing alphaT to 2.194952e-02.
	FillingsUpdate:  mu: +0.163092936  nElectrons: 714.000000  magneticMoment: [ Abs: 0.00183  Tot: +0.00009 ]
LCAOMinimize: Iter:  14  F: -3935.4298978678052663  |grad|_K:  1.026e-03  alpha:  5.654e-02  linmin:  1.135e-03  cgtest: -5.491e-02  t[s]:   1587.50
	FillingsUpdate:  mu: +0.147610224  nElectrons: 714.000000  magneticMoment: [ Abs: 0.00182  Tot: +0.00009 ]
LCAOMinimize: Iter:  15  F: -3935.4542802521004887  |grad|_K:  9.279e-04  alpha:  8.989e-03  linmin:  4.448e-03  cgtest: -7.703e-02  t[s]:   1676.65
	FillingsUpdate:  mu: +0.079753733  nElectrons: 714.000000  magneticMoment: [ Abs: 0.00178  Tot: +0.00009 ]
LCAOMinimize: Iter:  16  F: -3935.5043203144123254  |grad|_K:  7.006e-04  alpha:  2.191e-02  linmin: -7.352e-04  cgtest:  2.882e-01  t[s]:   1765.86
	FillingsUpdate:  mu: +0.110231303  nElectrons: 714.000000  magneticMoment: [ Abs: 0.00177  Tot: +0.00010 ]
LCAOMinimize: Iter:  17  F: -3935.5262308079636568  |grad|_K:  9.285e-04  alpha:  1.523e-02  linmin:  6.461e-05  cgtest: -1.554e-02  t[s]:   1855.63
	FillingsUpdate:  mu: +0.124004053  nElectrons: 714.000000  magneticMoment: [ Abs: 0.00175  Tot: +0.00009 ]
LCAOMinimize: Iter:  18  F: -3935.5561312959061979  |grad|_K:  4.934e-04  alpha:  1.205e-02  linmin: -5.898e-05  cgtest:  9.356e-02  t[s]:   1945.00
	FillingsUpdate:  mu: +0.113817725  nElectrons: 714.000000  magneticMoment: [ Abs: 0.00174  Tot: +0.00010 ]
LCAOMinimize: Iter:  19  F: -3935.5735827689504731  |grad|_K:  6.752e-04  alpha:  2.486e-02  linmin:  4.368e-05  cgtest: -8.008e-03  t[s]:   2034.24
	FillingsUpdate:  mu: +0.094138980  nElectrons: 714.000000  magneticMoment: [ Abs: 0.00173  Tot: +0.00010 ]
LCAOMinimize: Iter:  20  F: -3935.5834123540639666  |grad|_K:  3.974e-04  alpha:  7.318e-03  linmin: -1.497e-03  cgtest:  4.277e-02  t[s]:   2123.55
LCAOMinimize: 	Predicted alpha/alphaT>3.000000, increasing alphaT to 2.195531e-02.
	FillingsUpdate:  mu: +0.132972037  nElectrons: 714.000000  magneticMoment: [ Abs: 0.00171  Tot: +0.00009 ]
LCAOMinimize: Iter:  21  F: -3935.6002691159028473  |grad|_K:  4.086e-04  alpha:  3.657e-02  linmin:  4.929e-04  cgtest: -5.487e-02  t[s]:   2236.98
	FillingsUpdate:  mu: +0.133254891  nElectrons: 714.000000  magneticMoment: [ Abs: 0.00170  Tot: +0.00009 ]
LCAOMinimize: Iter:  22  F: -3935.6036899833979987  |grad|_K:  3.250e-04  alpha:  7.105e-03  linmin: -4.855e-04  cgtest:  3.699e-02  t[s]:   2326.41
LCAOMinimize: 	Predicted alpha/alphaT>3.000000, increasing alphaT to 2.131647e-02.
	FillingsUpdate:  mu: +0.114431961  nElectrons: 714.000000  magneticMoment: [ Abs: 0.00170  Tot: +0.00010 ]
LCAOMinimize: Iter:  23  F: -3935.6112597468368222  |grad|_K:  2.339e-04  alpha:  2.470e-02  linmin:  1.749e-04  cgtest: -6.302e-02  t[s]:   2439.08
	FillingsUpdate:  mu: +0.123516807  nElectrons: 714.000000  magneticMoment: [ Abs: 0.00169  Tot: +0.00010 ]
LCAOMinimize: Iter:  24  F: -3935.6142298131326243  |grad|_K:  3.515e-04  alpha:  1.885e-02  linmin:  2.231e-05  cgtest:  7.233e-03  t[s]:   2529.08
	FillingsUpdate:  mu: +0.129964975  nElectrons: 714.000000  magneticMoment: [ Abs: 0.00169  Tot: +0.00010 ]
LCAOMinimize: Iter:  25  F: -3935.6177445114249167  |grad|_K:  1.450e-04  alpha:  9.887e-03  linmin:  7.387e-05  cgtest: -1.743e-02  t[s]:   2618.38
LCAOMinimize: 	Predicted alpha/alphaT>3.000000, increasing alphaT to 2.966151e-02.
	FillingsUpdate:  mu: +0.120482829  nElectrons: 714.000000  magneticMoment: [ Abs: 0.00169  Tot: +0.00010 ]
LCAOMinimize: Iter:  26  F: -3935.6198531382956389  |grad|_K:  2.292e-04  alpha:  3.479e-02  linmin: -2.353e-05  cgtest:  2.054e-03  t[s]:   2731.26
	FillingsUpdate:  mu: +0.116172841  nElectrons: 714.000000  magneticMoment: [ Abs: 0.00169  Tot: +0.00010 ]
LCAOMinimize: Iter:  27  F: -3935.6209038734291425  |grad|_K:  1.291e-04  alpha:  6.919e-03  linmin: -1.153e-04  cgtest: -6.255e-04  t[s]:   2820.90
LCAOMinimize: 	Predicted alpha/alphaT>3.000000, increasing alphaT to 2.075623e-02.
	FillingsUpdate:  mu: +0.123090373  nElectrons: 714.000000  magneticMoment: [ Abs: 0.00169  Tot: +0.00010 ]
LCAOMinimize: Iter:  28  F: -3935.6221143162028966  |grad|_K:  9.070e-05  alpha:  2.515e-02  linmin: -3.286e-05  cgtest: -4.390e-03  t[s]:   2933.82
	FillingsUpdate:  mu: +0.122495151  nElectrons: 714.000000  magneticMoment: [ Abs: 0.00169  Tot: +0.00010 ]
LCAOMinimize: Iter:  29  F: -3935.6223474244184217  |grad|_K:  1.018e-04  alpha:  9.828e-03  linmin:  1.960e-05  cgtest:  8.212e-05  t[s]:   3023.25
	FillingsUpdate:  mu: +0.116612789  nElectrons: 714.000000  magneticMoment: [ Abs: 0.00169  Tot: +0.00010 ]
LCAOMinimize: Iter:  30  F: -3935.6231045916247240  |grad|_K:  6.762e-05  alpha:  2.542e-02  linmin:  2.774e-04  cgtest: -7.049e-03  t[s]:   3113.64
LCAOMinimize: None of the convergence criteria satisfied after 30 iterations.
----- createFluidSolver() ----- (Fluid-side solver setup)
   Initializing fluid molecule 'H2O'
     Initializing site 'O'
       Electron density: proportional to exp(-r/0.36935)*erfc((r-0.51523)/0.36823) with norm 6.826
       Charge density: gaussian nuclear width 0.478731 with net site charge 0.826
       Polarizability: cuspless exponential with width 0.32 and norm 3.73
       Hard sphere radius: 2.57003 bohrs
       Positions in reference frame:
         [ +0.000000 +0.000000 +0.000000 ]
     Initializing site 'H'
       Electron density: proportional to exp(-r/0.34641)*erfc((r-0)/0.390882) with norm 0.587
       Charge density: gaussian nuclear width 0.377945 with net site charge -0.413
       Polarizability: cuspless exponential with width 0.39 and norm 3.3
       Positions in reference frame:
         [ +0.000000 -1.441945 +1.122523 ]
         [ +0.000000 +1.441945 +1.122523 ]
     Net charge: 0   dipole magnitude: 0.927204
     Initializing spherical shell mfKernel with radius 2.61727 Bohr
     deltaS corrections:
       site 'O': -7.54299
       site 'H': -6.83917
   Initializing fluid molecule 'Na+'
     Initializing site 'Na'
       Electron density: proportional to exp(-r/0.19682)*erfc((r-0.71491)/0.41314) with norm 8.1383
       Charge density: gaussian nuclear width 0.365347 with net site charge -1
       Hard sphere radius: 1.86327 bohrs
       Positions in reference frame:
         [ +0.000000 +0.000000 +0.000000 ]
     Net charge: -1   dipole magnitude: 0
     Initializing gaussian mfKernel with width: 1.55004 Bohr
     deltaS corrections:
       site 'Na': -22.3555
   Initializing fluid molecule 'F-'
     Initializing site 'F'
       Electron density: proportional to exp(-r/0.38886)*erfc((r-0)/0.438782) with norm 8
       Charge density: gaussian nuclear width 0.374796 with net site charge 1
       Hard sphere radius: 2.39995 bohrs
       Positions in reference frame:
         [ +0.000000 +0.000000 +0.000000 ]
     Net charge: 1   dipole magnitude: 0
     Initializing gaussian mfKernel with width: 1.59012 Bohr
     deltaS corrections:
       site 'F': -9.04335

Correction to mu due to finite nuclear width = -0.0529952
   Cavity determined by nc: 0.00142 and sigma: 0.707107
   Nonlocal vdW cavity from gaussian model electron density with norm = 8 and sigma = 0.993594 bohr
   Charge asymmetry in cavity with sensitivity pCavity = 36.5 e-bohr/Eh
   Electrostatic cavity expanded by eta = 1.46 bohrs
   Weighted density cavitation model constrained by Nbulk: 0.0049383 bohr^-3, Pvap: 3.14029 kPa, Rvdw: 2.61727 bohr and sigmaBulk: 4.62e-05 Eh/bohr^2 at T: 298 K.
   Weighted density dispersion model using vdW pair potentials with single solvent site with sqrtC6eff: 0.77 SI.


---- Citations for features of the code used in this run ----

   Software package:
      R. Sundararaman, K. Letchworth-Weaver, K.A. Schwarz, D. Gunceler, Y. Ozhabes and T.A. Arias, 'JDFTx: software for joint density-functional theory', SoftwareX 6, 278 (2017)

   gga-PBE exchange-correlation functional:
      J.P. Perdew, K. Burke and M. Ernzerhof, Phys. Rev. Lett. 77, 3865 (1996)

   Pseudopotentials:
      KF Garrity, JW Bennett, KM Rabe and D Vanderbilt, Comput. Mater. Sci. 81, 446 (2014)

   DFT-D3 dispersion correction:
      S. Grimme, J. Antony, S. Ehrlich and H. Krieg, J. Chem. Phys. 132, 154104 (2010)

   DFT-D2 dispersion correction:
      S. Grimme, J. Comput. Chem. 27, 1787 (2006)

   Charge-asymmetric nonlocally-determined local-electric (CANDLE) solvation model:
      R. Sundararaman and W.A. Goddard III, J. Chem. Phys. 142, 064107 (2015)

   Total energy minimization with Auxiliary Hamiltonian:
      C. Freysoldt, S. Boeck, and J. Neugebauer, Phys. Rev. B 79, 241103(R) (2009)

   Linear-tetrahedron sampling for density of states:
      G. Lehmann and M. Taut, Phys. status solidi (b) 54, 469 (1972)

This list may not be complete. Please suggest additional citations or
report any other bugs at https://github.com/shankar1729/jdftx/issues

Initialization completed successfully at t[s]:   3140.58


Computing DFT-D3 correction:
# coordination-number Pt 5.958 7.047 5.958 7.035 5.954 5.954 5.954 5.954 7.677 7.677 7.677 7.677 9.494 9.494 9.494 9.494 9.261 9.261 9.261 9.261 9.597 9.597 9.597 9.597 9.519 9.519 9.519 9.519 9.598 9.598 9.598 9.598 9.264 9.264 9.264 9.264 9.506 9.497 9.499 9.497 7.689 7.744 7.689 7.684
# coordination-number C 3.095
# coordination-number O 1.181
# diagonal-C6 Pt 336.87 336.87 336.87 336.87 336.87 336.87 336.87 336.87 336.87 336.87 336.87 336.87 336.87 336.87 336.87 336.87 336.87 336.87 336.87 336.87 336.87 336.87 336.87 336.87 336.87 336.87 336.87 336.87 336.87 336.87 336.87 336.87 336.87 336.87 336.87 336.87 336.87 336.87 336.87 336.87 336.87 336.87 336.87 336.87
# diagonal-C6 C 25.46
# diagonal-C6 O 12.62
EvdW_6 =   -0.391499
EvdW_8 =   -0.630665
Fluid solver invoked on fresh (random / LCAO) wavefunctions
Running a vacuum solve first:

-------- Initial electronic minimization -----------
	FillingsUpdate:  mu: +0.116613741  nElectrons: 714.000000  magneticMoment: [ Abs: 0.00169  Tot: +0.00010 ]
ElecMinimize: Iter:   0  F: -3935.623104591626088  |grad|_K:  5.505e-05  alpha:  1.000e+00
	FillingsUpdate:  mu: +0.267922558  nElectrons: 714.000000  magneticMoment: [ Abs: 0.00136  Tot: +0.00009 ]
	SubspaceRotationAdjust: set factor to 0.515
ElecMinimize: Iter:   1  F: -3936.110509053729402  |grad|_K:  1.679e-04  alpha:  3.264e-01  linmin:  4.189e-06  t[s]:   3373.69
ElecMinimize: 	Step increased F by 1.089629e-01, reducing alpha to 1.764059e-03.
	FillingsUpdate:  mu: +0.250298129  nElectrons: 714.000000  magneticMoment: [ Abs: 0.00135  Tot: +0.00009 ]
	SubspaceRotationAdjust: set factor to 0.281
ElecMinimize: Iter:   2  F: -3936.153201189047650  |grad|_K:  9.403e-05  alpha:  1.764e-03  linmin: -2.919e-03  t[s]:   3617.69
ElecMinimize: 	Predicted alpha/alphaT>3.000000, increasing alphaT to 5.292176e-03.
	FillingsUpdate:  mu: +0.212025206  nElectrons: 714.000000  magneticMoment: [ Abs: 0.00132  Tot: +0.00010 ]
	SubspaceRotationAdjust: set factor to 0.173
ElecMinimize: Iter:   3  F: -3936.217591126403477  |grad|_K:  5.607e-05  alpha:  8.428e-03  linmin: -9.074e-05  t[s]:   3806.01
	FillingsUpdate:  mu: +0.174517989  nElectrons: 714.000000  magneticMoment: [ Abs: 0.00129  Tot: +0.00011 ]
	SubspaceRotationAdjust: set factor to 0.114
	SubspaceRotationAdjust: resetting CG because factor has changed by 0.113955
ElecMinimize: 	State modified externally: resetting search direction.
ElecMinimize: Iter:   4  F: -3936.252432698978737  |grad|_K:  3.981e-05  alpha:  2.202e-02
	FillingsUpdate:  mu: +0.152735087  nElectrons: 714.000000  magneticMoment: [ Abs: 0.00125  Tot: +0.00011 ]
	SubspaceRotationAdjust: set factor to 0.0482
ElecMinimize: Iter:   5  F: -3936.290612194120058  |grad|_K:  2.466e-05  alpha:  4.920e-02  linmin:  3.759e-04  t[s]:   4179.20
ElecMinimize: 	Predicted alpha/alphaT>3.000000, increasing alphaT to 1.475933e-01.
	FillingsUpdate:  mu: +0.180767221  nElectrons: 714.000000  magneticMoment: [ Abs: 0.00102  Tot: +0.00011 ]
	SubspaceRotationAdjust: set factor to 0.0375
ElecMinimize: Iter:   6  F: -3936.370179363930220  |grad|_K:  1.655e-05  alpha:  2.682e-01  linmin: -1.559e-05  t[s]:   4368.35
	FillingsUpdate:  mu: +0.139199418  nElectrons: 714.000000  magneticMoment: [ Abs: 0.00073  Tot: +0.00011 ]
	SubspaceRotationAdjust: set factor to 0.0319
ElecMinimize: Iter:   7  F: -3936.424396274093397  |grad|_K:  9.457e-06  alpha:  4.021e-01  linmin:  8.948e-06  t[s]:   4518.66
	FillingsUpdate:  mu: +0.149018703  nElectrons: 714.000000  magneticMoment: [ Abs: 0.00062  Tot: +0.00012 ]
	SubspaceRotationAdjust: set factor to 0.0293
ElecMinimize: Iter:   8  F: -3936.437528860167731  |grad|_K:  5.585e-06  alpha:  2.987e-01  linmin: -2.293e-06  t[s]:   4670.18
	FillingsUpdate:  mu: +0.153955212  nElectrons: 714.000000  magneticMoment: [ Abs: 0.00056  Tot: +0.00012 ]
	SubspaceRotationAdjust: set factor to 0.0214
ElecMinimize: Iter:   9  F: -3936.441395109051882  |grad|_K:  4.483e-06  alpha:  2.520e-01  linmin: -6.165e-06  t[s]:   4820.75
	FillingsUpdate:  mu: +0.152284446  nElectrons: 714.000000  magneticMoment: [ Abs: 0.00048  Tot: +0.00012 ]
	SubspaceRotationAdjust: set factor to 0.0238
ElecMinimize: Iter:  10  F: -3936.444949319615262  |grad|_K:  3.033e-06  alpha:  3.595e-01  linmin:  4.470e-06  t[s]:   4972.10
	FillingsUpdate:  mu: +0.146894878  nElectrons: 714.000000  magneticMoment: [ Abs: 0.00045  Tot: +0.00012 ]
	SubspaceRotationAdjust: set factor to 0.0277
ElecMinimize: Iter:  11  F: -3936.446708076338382  |grad|_K:  2.043e-06  alpha:  3.889e-01  linmin:  3.026e-06  t[s]:   5122.52
	FillingsUpdate:  mu: +0.147056551  nElectrons: 714.000000  magneticMoment: [ Abs: 0.00043  Tot: +0.00012 ]
	SubspaceRotationAdjust: set factor to 0.0257
ElecMinimize: Iter:  12  F: -3936.447506508031893  |grad|_K:  2.222e-06  alpha:  3.891e-01  linmin: -2.258e-06  t[s]:   5273.07
	FillingsUpdate:  mu: +0.148574400  nElectrons: 714.000000  magneticMoment: [ Abs: 0.00042  Tot: +0.00012 ]
	SubspaceRotationAdjust: set factor to 0.0267
ElecMinimize: Iter:  13  F: -3936.448506625509253  |grad|_K:  1.817e-06  alpha:  4.116e-01  linmin:  1.421e-06  t[s]:   5423.28
	FillingsUpdate:  mu: +0.146548248  nElectrons: 714.000000  magneticMoment: [ Abs: 0.00041  Tot: +0.00012 ]
	SubspaceRotationAdjust: set factor to 0.0321
ElecMinimize: Iter:  14  F: -3936.449448448863677  |grad|_K:  1.903e-06  alpha:  5.804e-01  linmin:  1.663e-06  t[s]:   5574.19
	FillingsUpdate:  mu: +0.144888609  nElectrons: 714.000000  magneticMoment: [ Abs: 0.00040  Tot: +0.00012 ]
	SubspaceRotationAdjust: set factor to 0.0317
ElecMinimize: Iter:  15  F: -3936.450511058524171  |grad|_K:  2.423e-06  alpha:  5.972e-01  linmin: -1.104e-06  t[s]:   5724.65
	FillingsUpdate:  mu: +0.144404593  nElectrons: 714.000000  magneticMoment: [ Abs: 0.00039  Tot: +0.00011 ]
	SubspaceRotationAdjust: set factor to 0.0252
ElecMinimize: Iter:  16  F: -3936.451390698636260  |grad|_K:  2.256e-06  alpha:  3.039e-01  linmin: -1.437e-07  t[s]:   5876.06
	FillingsUpdate:  mu: +0.143438259  nElectrons: 714.000000  magneticMoment: [ Abs: 0.00037  Tot: +0.00011 ]
	SubspaceRotationAdjust: set factor to 0.0261
ElecMinimize: Iter:  17  F: -3936.452632961939798  |grad|_K:  2.091e-06  alpha:  4.957e-01  linmin: -1.545e-06  t[s]:   6026.21
	FillingsUpdate:  mu: +0.140119674  nElectrons: 714.000000  magneticMoment: [ Abs: 0.00034  Tot: +0.00010 ]
	SubspaceRotationAdjust: set factor to 0.0272
ElecMinimize: Iter:  18  F: -3936.453944319981929  |grad|_K:  1.999e-06  alpha:  6.086e-01  linmin: -3.255e-06  t[s]:   6177.12
	FillingsUpdate:  mu: +0.140144861  nElectrons: 714.000000  magneticMoment: [ Abs: 0.00031  Tot: +0.00010 ]
	SubspaceRotationAdjust: set factor to 0.0226
ElecMinimize: Iter:  19  F: -3936.454688064522543  |grad|_K:  1.818e-06  alpha:  3.772e-01  linmin: -4.831e-07  t[s]:   6327.43
	FillingsUpdate:  mu: +0.140440954  nElectrons: 714.000000  magneticMoment: [ Abs: 0.00028  Tot: +0.00010 ]
	SubspaceRotationAdjust: set factor to 0.0183
ElecMinimize: Iter:  20  F: -3936.455239815882123  |grad|_K:  1.383e-06  alpha:  3.393e-01  linmin: -1.027e-06  t[s]:   6478.54
	FillingsUpdate:  mu: +0.139411411  nElectrons: 714.000000  magneticMoment: [ Abs: 0.00026  Tot: +0.00010 ]
	SubspaceRotationAdjust: set factor to 0.0211
ElecMinimize: Iter:  21  F: -3936.455658743828735  |grad|_K:  1.002e-06  alpha:  4.452e-01  linmin: -2.505e-07  t[s]:   6629.15
	FillingsUpdate:  mu: +0.138783617  nElectrons: 714.000000  magneticMoment: [ Abs: 0.00024  Tot: +0.00010 ]
	SubspaceRotationAdjust: set factor to 0.0202
ElecMinimize: Iter:  22  F: -3936.455862083589182  |grad|_K:  7.876e-07  alpha:  4.117e-01  linmin: -1.992e-07  t[s]:   6779.80
	FillingsUpdate:  mu: +0.138672043  nElectrons: 714.000000  magneticMoment: [ Abs: 0.00023  Tot: +0.00010 ]
	SubspaceRotationAdjust: set factor to 0.0182
ElecMinimize: Iter:  23  F: -3936.455980212058421  |grad|_K:  6.294e-07  alpha:  3.871e-01  linmin: -8.033e-08  t[s]:   6930.26
	FillingsUpdate:  mu: +0.138682764  nElectrons: 714.000000  magneticMoment: [ Abs: 0.00022  Tot: +0.00010 ]
	SubspaceRotationAdjust: set factor to 0.0216
ElecMinimize: Iter:  24  F: -3936.456061844388387  |grad|_K:  4.430e-07  alpha:  4.189e-01  linmin:  1.164e-07  t[s]:   7080.70
	FillingsUpdate:  mu: +0.138671219  nElectrons: 714.000000  magneticMoment: [ Abs: 0.00022  Tot: +0.00010 ]
	SubspaceRotationAdjust: set factor to 0.0239
ElecMinimize: Iter:  25  F: -3936.456110774246554  |grad|_K:  4.049e-07  alpha:  5.068e-01  linmin:  8.249e-08  t[s]:   7231.00
	FillingsUpdate:  mu: +0.138749901  nElectrons: 714.000000  magneticMoment: [ Abs: 0.00021  Tot: +0.00010 ]
	SubspaceRotationAdjust: set factor to 0.0233
ElecMinimize: Iter:  26  F: -3936.456144062844942  |grad|_K:  3.813e-07  alpha:  4.129e-01  linmin:  3.424e-08  t[s]:   7382.15
	FillingsUpdate:  mu: +0.138826972  nElectrons: 714.000000  magneticMoment: [ Abs: 0.00021  Tot: +0.00009 ]
	SubspaceRotationAdjust: set factor to 0.0253
ElecMinimize: Iter:  27  F: -3936.456178232760067  |grad|_K:  3.465e-07  alpha:  4.778e-01  linmin:  2.106e-07  t[s]:   7532.72
	FillingsUpdate:  mu: +0.138737058  nElectrons: 714.000000  magneticMoment: [ Abs: 0.00020  Tot: +0.00009 ]
	SubspaceRotationAdjust: set factor to 0.029
ElecMinimize: Iter:  28  F: -3936.456214959100635  |grad|_K:  3.576e-07  alpha:  6.220e-01  linmin:  8.505e-08  t[s]:   7683.29
	FillingsUpdate:  mu: +0.138985421  nElectrons: 714.000000  magneticMoment: [ Abs: 0.00019  Tot: +0.00009 ]
	SubspaceRotationAdjust: set factor to 0.0294
ElecMinimize: Iter:  29  F: -3936.456248831688754  |grad|_K:  3.774e-07  alpha:  5.386e-01  linmin:  8.885e-08  t[s]:   7833.55
	FillingsUpdate:  mu: +0.139232253  nElectrons: 714.000000  magneticMoment: [ Abs: 0.00019  Tot: +0.00009 ]
	SubspaceRotationAdjust: set factor to 0.0247
ElecMinimize: Iter:  30  F: -3936.456274578132252  |grad|_K:  3.800e-07  alpha:  3.674e-01  linmin:  2.713e-08  t[s]:   7983.79
	FillingsUpdate:  mu: +0.139339224  nElectrons: 714.000000  magneticMoment: [ Abs: 0.00018  Tot: +0.00009 ]
	SubspaceRotationAdjust: set factor to 0.0241
ElecMinimize: Iter:  31  F: -3936.456304965112849  |grad|_K:  3.134e-07  alpha:  4.278e-01  linmin: -1.471e-08  t[s]:   8134.17
	FillingsUpdate:  mu: +0.139429947  nElectrons: 714.000000  magneticMoment: [ Abs: 0.00017  Tot: +0.00009 ]
	SubspaceRotationAdjust: set factor to 0.0271
ElecMinimize: Iter:  32  F: -3936.456330755099771  |grad|_K:  2.724e-07  alpha:  5.338e-01  linmin: -1.533e-08  t[s]:   8285.04
	FillingsUpdate:  mu: +0.139659112  nElectrons: 714.000000  magneticMoment: [ Abs: 0.00016  Tot: +0.00009 ]
	SubspaceRotationAdjust: set factor to 0.0274
ElecMinimize: Iter:  33  F: -3936.456348864726351  |grad|_K:  2.650e-07  alpha:  4.961e-01  linmin:  3.739e-08  t[s]:   8435.68
	FillingsUpdate:  mu: +0.139724913  nElectrons: 714.000000  magneticMoment: [ Abs: 0.00015  Tot: +0.00009 ]
	SubspaceRotationAdjust: set factor to 0.024
ElecMinimize: Iter:  34  F: -3936.456361267558350  |grad|_K:  2.341e-07  alpha:  3.590e-01  linmin: -2.212e-08  t[s]:   8587.00
	FillingsUpdate:  mu: +0.139728549  nElectrons: 714.000000  magneticMoment: [ Abs: 0.00014  Tot: +0.00008 ]
	SubspaceRotationAdjust: set factor to 0.0251
ElecMinimize: Iter:  35  F: -3936.456372109606491  |grad|_K:  1.904e-07  alpha:  4.022e-01  linmin: -1.338e-08  t[s]:   8737.21
	FillingsUpdate:  mu: +0.139872115  nElectrons: 714.000000  magneticMoment: [ Abs: 0.00014  Tot: +0.00008 ]
	SubspaceRotationAdjust: set factor to 0.0299
ElecMinimize: Iter:  36  F: -3936.456381798663188  |grad|_K:  1.677e-07  alpha:  5.432e-01  linmin: -2.032e-07  t[s]:   8887.89
	FillingsUpdate:  mu: +0.139937815  nElectrons: 714.000000  magneticMoment: [ Abs: 0.00013  Tot: +0.00008 ]
	SubspaceRotationAdjust: set factor to 0.0315
ElecMinimize: Iter:  37  F: -3936.456389232059337  |grad|_K:  1.773e-07  alpha:  5.374e-01  linmin: -1.029e-08  t[s]:   9038.24
	FillingsUpdate:  mu: +0.139901756  nElectrons: 714.000000  magneticMoment: [ Abs: 0.00013  Tot: +0.00008 ]
	SubspaceRotationAdjust: set factor to 0.0273
ElecMinimize: Iter:  38  F: -3936.456394537083270  |grad|_K:  1.717e-07  alpha:  3.431e-01  linmin:  2.166e-08  t[s]:   9189.09
	FillingsUpdate:  mu: +0.139867509  nElectrons: 714.000000  magneticMoment: [ Abs: 0.00013  Tot: +0.00008 ]
	SubspaceRotationAdjust: set factor to 0.0268
ElecMinimize: Iter:  39  F: -3936.456400518754890  |grad|_K:  1.503e-07  alpha:  4.123e-01  linmin:  1.487e-07  t[s]:   9339.41
	FillingsUpdate:  mu: +0.140002077  nElectrons: 714.000000  magneticMoment: [ Abs: 0.00012  Tot: +0.00008 ]
	SubspaceRotationAdjust: set factor to 0.0299
ElecMinimize: Iter:  40  F: -3936.456406481174781  |grad|_K:  1.337e-07  alpha:  5.370e-01  linmin:  1.247e-07  t[s]:   9490.48
	FillingsUpdate:  mu: +0.139973146  nElectrons: 714.000000  magneticMoment: [ Abs: 0.00011  Tot: +0.00008 ]
	SubspaceRotationAdjust: set factor to 0.0325
ElecMinimize: Iter:  41  F: -3936.456411443176876  |grad|_K:  1.281e-07  alpha:  5.646e-01  linmin: -1.371e-07  t[s]:   9640.76
	FillingsUpdate:  mu: +0.139902615  nElectrons: 714.000000  magneticMoment: [ Abs: 0.00011  Tot: +0.00007 ]
	SubspaceRotationAdjust: set factor to 0.029
ElecMinimize: Iter:  42  F: -3936.456414684120318  |grad|_K:  1.314e-07  alpha:  4.015e-01  linmin: -3.389e-08  t[s]:   9791.46
	FillingsUpdate:  mu: +0.139905889  nElectrons: 714.000000  magneticMoment: [ Abs: 0.00010  Tot: +0.00007 ]
	SubspaceRotationAdjust: set factor to 0.0245
ElecMinimize: Iter:  43  F: -3936.456417269813755  |grad|_K:  1.034e-07  alpha:  3.044e-01  linmin: -1.238e-08  t[s]:   9942.81
	FillingsUpdate:  mu: +0.139954266  nElectrons: 714.000000  magneticMoment: [ Abs: 0.00010  Tot: +0.00007 ]
	SubspaceRotationAdjust: set factor to 0.027
ElecMinimize: Iter:  44  F: -3936.456419728005585  |grad|_K:  8.496e-08  alpha:  4.674e-01  linmin:  2.009e-07  t[s]:  10093.25
	FillingsUpdate:  mu: +0.139894853  nElectrons: 714.000000  magneticMoment: [ Abs: 0.00010  Tot: +0.00007 ]
	SubspaceRotationAdjust: set factor to 0.0301
ElecMinimize: Iter:  45  F: -3936.456421476976629  |grad|_K:  7.015e-08  alpha:  4.930e-01  linmin:  5.685e-07  t[s]:  10244.44
	FillingsUpdate:  mu: +0.139879886  nElectrons: 714.000000  magneticMoment: [ Abs: 0.00009  Tot: +0.00007 ]
	SubspaceRotationAdjust: set factor to 0.0279
ElecMinimize: Iter:  46  F: -3936.456422481652680  |grad|_K:  6.847e-08  alpha:  4.153e-01  linmin: -5.731e-07  t[s]:  10394.74
	FillingsUpdate:  mu: +0.139890373  nElectrons: 714.000000  magneticMoment: [ Abs: 0.00009  Tot: +0.00007 ]
	SubspaceRotationAdjust: set factor to 0.0239
ElecMinimize: Iter:  47  F: -3936.456423187837117  |grad|_K:  5.290e-08  alpha:  3.058e-01  linmin:  1.184e-07  t[s]:  10546.18
	FillingsUpdate:  mu: +0.139888550  nElectrons: 714.000000  magneticMoment: [ Abs: 0.00009  Tot: +0.00007 ]
	SubspaceRotationAdjust: set factor to 0.027
ElecMinimize: Iter:  48  F: -3936.456423821133285  |grad|_K:  4.232e-08  alpha:  4.599e-01  linmin: -2.003e-06  t[s]:  10696.56
	FillingsUpdate:  mu: +0.139852444  nElectrons: 714.000000  magneticMoment: [ Abs: 0.00009  Tot: +0.00007 ]
	SubspaceRotationAdjust: set factor to 0.0305
ElecMinimize: Iter:  49  F: -3936.456424259305550  |grad|_K:  3.647e-08  alpha:  4.946e-01  linmin: -1.716e-06  t[s]:  10847.74
	FillingsUpdate:  mu: +0.139853566  nElectrons: 714.000000  magneticMoment: [ Abs: 0.00009  Tot: +0.00007 ]
	SubspaceRotationAdjust: set factor to 0.0294
ElecMinimize: Iter:  50  F: -3936.456424550510292  |grad|_K:  3.697e-08  alpha:  4.436e-01  linmin: -1.431e-06  t[s]:  10998.31
	FillingsUpdate:  mu: +0.139861314  nElectrons: 714.000000  magneticMoment: [ Abs: 0.00009  Tot: +0.00007 ]
	SubspaceRotationAdjust: set factor to 0.0256
ElecMinimize: Iter:  51  F: -3936.456424758164303  |grad|_K:  3.053e-08  alpha:  3.085e-01  linmin: -2.568e-06  t[s]:  11149.20
	FillingsUpdate:  mu: +0.139847062  nElectrons: 714.000000  magneticMoment: [ Abs: 0.00008  Tot: +0.00007 ]
	SubspaceRotationAdjust: set factor to 0.0288
ElecMinimize: Iter:  52  F: -3936.456424979897747  |grad|_K:  2.623e-08  alpha:  4.802e-01  linmin: -2.808e-06  t[s]:  11299.62
	FillingsUpdate:  mu: +0.139835221  nElectrons: 714.000000  magneticMoment: [ Abs: 0.00008  Tot: +0.00007 ]
	SubspaceRotationAdjust: set factor to 0.0331
ElecMinimize: Iter:  53  F: -3936.456425166635654  |grad|_K:  2.422e-08  alpha:  5.526e-01  linmin:  5.060e-06  t[s]:  11449.90
	FillingsUpdate:  mu: +0.139843574  nElectrons: 714.000000  magneticMoment: [ Abs: 0.00008  Tot: +0.00006 ]
	SubspaceRotationAdjust: set factor to 0.0327
ElecMinimize: Iter:  54  F: -3936.456425304691493  |grad|_K:  2.581e-08  alpha:  4.801e-01  linmin:  3.405e-06  t[s]:  11600.43
	FillingsUpdate:  mu: +0.139839662  nElectrons: 714.000000  magneticMoment: [ Abs: 0.00008  Tot: +0.00006 ]
	SubspaceRotationAdjust: set factor to 0.0271
ElecMinimize: Iter:  55  F: -3936.456425402464902  |grad|_K:  2.335e-08  alpha:  2.997e-01  linmin: -1.098e-06  t[s]:  11751.96
	FillingsUpdate:  mu: +0.139824371  nElectrons: 714.000000  magneticMoment: [ Abs: 0.00008  Tot: +0.00006 ]
	SubspaceRotationAdjust: set factor to 0.0285
ElecMinimize: Iter:  56  F: -3936.456425515269075  |grad|_K:  1.872e-08  alpha:  4.119e-01  linmin: -1.246e-05  t[s]:  11902.55
	FillingsUpdate:  mu: +0.139828729  nElectrons: 714.000000  magneticMoment: [ Abs: 0.00008  Tot: +0.00006 ]
	SubspaceRotationAdjust: set factor to 0.0325
ElecMinimize: Iter:  57  F: -3936.456425610688257  |grad|_K:  1.670e-08  alpha:  5.387e-01  linmin: -6.089e-06  t[s]:  12053.90
	FillingsUpdate:  mu: +0.139832603  nElectrons: 714.000000  magneticMoment: [ Abs: 0.00007  Tot: +0.00006 ]
	SubspaceRotationAdjust: set factor to 0.0319
ElecMinimize: Iter:  58  F: -3936.456425677475636  |grad|_K:  1.694e-08  alpha:  4.749e-01  linmin:  3.088e-06  t[s]:  12204.23
ElecMinimize: Converged (|Delta F|<1.000000e-07 for 2 iters).
Setting wave functions to eigenvectors of Hamiltonian
Converging empty states (this may take a while): |deigs|: 2.482e-03
Vacuum energy after initial minimize, F = -3936.456425677475636


-------- Electronic minimization -----------
	Linear fluid (dielectric constant: 78.4, screening length: 8.12261 Bohr) occupying 0.537757 of unit cell:	Completed after 28 iterations at t[s]:  13029.29
	FillingsUpdate:  mu: -0.203949393  nElectrons: 714.000000  magneticMoment: [ Abs: 0.00006  Tot: +0.00005 ]
ElecMinimize: Iter:   0  F: -3936.464167489468309  |grad|_K:  1.710e-06  alpha:  1.000e+00
	Linear fluid (dielectric constant: 78.4, screening length: 8.12261 Bohr) occupying 0.538320 of unit cell:	Completed after 23 iterations at t[s]:  13159.13
	Linear fluid (dielectric constant: 78.4, screening length: 8.12261 Bohr) occupying 0.537883 of unit cell:	Completed after 21 iterations at t[s]:  13207.03
	FillingsUpdate:  mu: -0.202501658  nElectrons: 714.000000  magneticMoment: [ Abs: 0.00005  Tot: +0.00005 ]
	SubspaceRotationAdjust: set factor to 0.0302
ElecMinimize: Iter:   1  F: -3936.464518315115129  |grad|_K:  7.847e-07  alpha:  2.446e-01  linmin:  8.665e-06  t[s]:  13266.46
	Linear fluid (dielectric constant: 78.4, screening length: 8.12261 Bohr) occupying 0.537999 of unit cell:	Completed after 12 iterations at t[s]:  13326.15
ElecMinimize: 	Predicted alpha/alphaT>3.000000, increasing alphaT to 7.337460e-01.
	Linear fluid (dielectric constant: 78.4, screening length: 8.12261 Bohr) occupying 0.538234 of unit cell:	Completed after 12 iterations at t[s]:  13371.14
	Linear fluid (dielectric constant: 78.4, screening length: 8.12261 Bohr) occupying 0.538249 of unit cell:	Completed after 2 iterations at t[s]:  13412.83
	FillingsUpdate:  mu: -0.202089825  nElectrons: 714.000000  magneticMoment: [ Abs: 0.00005  Tot: +0.00005 ]
	SubspaceRotationAdjust: set factor to 0.0356
ElecMinimize: Iter:   2  F: -3936.464749136711362  |grad|_K:  6.614e-07  alpha:  7.641e-01  linmin: -7.776e-07  t[s]:  13471.65
	Linear fluid (dielectric constant: 78.4, screening length: 8.12261 Bohr) occupying 0.538633 of unit cell:	Completed after 12 iterations at t[s]:  13531.87
	Linear fluid (dielectric constant: 78.4, screening length: 8.12261 Bohr) occupying 0.538566 of unit cell:	Completed after 6 iterations at t[s]:  13575.14
	FillingsUpdate:  mu: -0.201738623  nElectrons: 714.000000  magneticMoment: [ Abs: 0.00005  Tot: +0.00005 ]
	SubspaceRotationAdjust: set factor to 0.0425
ElecMinimize: Iter:   3  F: -3936.464884852522118  |grad|_K:  5.348e-07  alpha:  6.301e-01  linmin: -1.553e-07  t[s]:  13633.98
	Linear fluid (dielectric constant: 78.4, screening length: 8.12261 Bohr) occupying 0.538791 of unit cell:	Completed after 12 iterations at t[s]:  13694.23
	Linear fluid (dielectric constant: 78.4, screening length: 8.12261 Bohr) occupying 0.538785 of unit cell:	Completed after 0 iterations at t[s]:  13735.07
	FillingsUpdate:  mu: -0.201516991  nElectrons: 714.000000  magneticMoment: [ Abs: 0.00005  Tot: +0.00005 ]
	SubspaceRotationAdjust: set factor to 0.0509
ElecMinimize: Iter:   4  F: -3936.464971324140151  |grad|_K:  4.727e-07  alpha:  6.142e-01  linmin:  6.181e-07  t[s]:  13793.80
	Linear fluid (dielectric constant: 78.4, screening length: 8.12261 Bohr) occupying 0.538946 of unit cell:	Completed after 12 iterations at t[s]:  13854.68
	Linear fluid (dielectric constant: 78.4, screening length: 8.12261 Bohr) occupying 0.538989 of unit cell:	Completed after 7 iterations at t[s]:  13897.61
	FillingsUpdate:  mu: -0.200832605  nElectrons: 714.000000  magneticMoment: [ Abs: 0.00005  Tot: +0.00005 ]
	SubspaceRotationAdjust: set factor to 0.0576
ElecMinimize: Iter:   5  F: -3936.465056804943742  |grad|_K:  5.016e-07  alpha:  7.792e-01  linmin: -5.064e-07  t[s]:  13956.19
	Linear fluid (dielectric constant: 78.4, screening length: 8.12261 Bohr) occupying 0.539162 of unit cell:	Completed after 12 iterations at t[s]:  14016.31
	Linear fluid (dielectric constant: 78.4, screening length: 8.12261 Bohr) occupying 0.539111 of unit cell:	Completed after 10 iterations at t[s]:  14060.46
	FillingsUpdate:  mu: -0.201035192  nElectrons: 714.000000  magneticMoment: [ Abs: 0.00005  Tot: +0.00005 ]
	SubspaceRotationAdjust: set factor to 0.0526
ElecMinimize: Iter:   6  F: -3936.465124260939774  |grad|_K:  5.959e-07  alpha:  5.436e-01  linmin: -2.463e-08  t[s]:  14119.22
	Linear fluid (dielectric constant: 78.4, screening length: 8.12261 Bohr) occupying 0.539282 of unit cell:	Completed after 12 iterations at t[s]:  14179.71
	Linear fluid (dielectric constant: 78.4, screening length: 8.12261 Bohr) occupying 0.539234 of unit cell:	Completed after 10 iterations at t[s]:  14223.85
	FillingsUpdate:  mu: -0.200593196  nElectrons: 714.000000  magneticMoment: [ Abs: 0.00005  Tot: +0.00005 ]
	SubspaceRotationAdjust: set factor to 0.0421
ElecMinimize: Iter:   7  F: -3936.465192459370428  |grad|_K:  4.927e-07  alpha:  3.910e-01  linmin: -3.690e-08  t[s]:  14282.63
	Linear fluid (dielectric constant: 78.4, screening length: 8.12261 Bohr) occupying 0.539286 of unit cell:	Completed after 10 iterations at t[s]:  14342.22
	Linear fluid (dielectric constant: 78.4, screening length: 8.12261 Bohr) occupying 0.539311 of unit cell:	Completed after 7 iterations at t[s]:  14385.49
	FillingsUpdate:  mu: -0.200464847  nElectrons: 714.000000  magneticMoment: [ Abs: 0.00005  Tot: +0.00004 ]
	SubspaceRotationAdjust: set factor to 0.0427
ElecMinimize: Iter:   8  F: -3936.465263104371388  |grad|_K:  4.222e-07  alpha:  5.913e-01  linmin: -2.598e-08  t[s]:  14444.48
	Linear fluid (dielectric constant: 78.4, screening length: 8.12261 Bohr) occupying 0.539347 of unit cell:	Completed after 10 iterations at t[s]:  14504.06
	Linear fluid (dielectric constant: 78.4, screening length: 8.12261 Bohr) occupying 0.539346 of unit cell:	Completed after 0 iterations at t[s]:  14545.14
	FillingsUpdate:  mu: -0.200924023  nElectrons: 714.000000  magneticMoment: [ Abs: 0.00005  Tot: +0.00004 ]
	SubspaceRotationAdjust: set factor to 0.0459
ElecMinimize: Iter:   9  F: -3936.465313974505534  |grad|_K:  3.622e-07  alpha:  5.798e-01  linmin:  1.562e-07  t[s]:  14603.89
	Linear fluid (dielectric constant: 78.4, screening length: 8.12261 Bohr) occupying 0.539358 of unit cell:	Completed after 8 iterations at t[s]:  14662.94
	Linear fluid (dielectric constant: 78.4, screening length: 8.12261 Bohr) occupying 0.539356 of unit cell:	Completed after 2 iterations at t[s]:  14704.59
	FillingsUpdate:  mu: -0.200651740  nElectrons: 714.000000  magneticMoment: [ Abs: 0.00005  Tot: +0.00004 ]
	SubspaceRotationAdjust: set factor to 0.051
ElecMinimize: Iter:  10  F: -3936.465345923381392  |grad|_K:  2.881e-07  alpha:  4.964e-01  linmin:  5.097e-08  t[s]:  14763.98
	Linear fluid (dielectric constant: 78.4, screening length: 8.12261 Bohr) occupying 0.539358 of unit cell:	Completed after 7 iterations at t[s]:  14822.37
	Linear fluid (dielectric constant: 78.4, screening length: 8.12261 Bohr) occupying 0.539358 of unit cell:	Completed after 2 iterations at t[s]:  14864.48
	FillingsUpdate:  mu: -0.200805254  nElectrons: 714.000000  magneticMoment: [ Abs: 0.00004  Tot: +0.00004 ]
	SubspaceRotationAdjust: set factor to 0.0588
ElecMinimize: Iter:  11  F: -3936.465368255825979  |grad|_K:  2.269e-07  alpha:  5.474e-01  linmin: -1.030e-07  t[s]:  14923.29
	Linear fluid (dielectric constant: 78.4, screening length: 8.12261 Bohr) occupying 0.539368 of unit cell:	Completed after 8 iterations at t[s]:  14982.30
	Linear fluid (dielectric constant: 78.4, screening length: 8.12261 Bohr) occupying 0.539368 of unit cell:	Completed after 0 iterations at t[s]:  15023.25
	FillingsUpdate:  mu: -0.200669510  nElectrons: 714.000000  magneticMoment: [ Abs: 0.00004  Tot: +0.00004 ]
	SubspaceRotationAdjust: set factor to 0.0623
ElecMinimize: Iter:  12  F: -3936.465382288225101  |grad|_K:  2.087e-07  alpha:  5.535e-01  linmin:  2.161e-08  t[s]:  15082.12
	Linear fluid (dielectric constant: 78.4, screening length: 8.12261 Bohr) occupying 0.539375 of unit cell:	Completed after 10 iterations at t[s]:  15141.76
	Linear fluid (dielectric constant: 78.4, screening length: 8.12261 Bohr) occupying 0.539373 of unit cell:	Completed after 8 iterations at t[s]:  15185.34
	FillingsUpdate:  mu: -0.200615686  nElectrons: 714.000000  magneticMoment: [ Abs: 0.00004  Tot: +0.00004 ]
	SubspaceRotationAdjust: set factor to 0.0527
ElecMinimize: Iter:  13  F: -3936.465390126319107  |grad|_K:  1.975e-07  alpha:  3.653e-01  linmin:  2.602e-07  t[s]:  15244.08
	Linear fluid (dielectric constant: 78.4, screening length: 8.12261 Bohr) occupying 0.539391 of unit cell:	Completed after 8 iterations at t[s]:  15303.17
	Linear fluid (dielectric constant: 78.4, screening length: 8.12261 Bohr) occupying 0.539392 of unit cell:	Completed after 1 iterations at t[s]:  15345.45
	FillingsUpdate:  mu: -0.200500772  nElectrons: 714.000000  magneticMoment: [ Abs: 0.00004  Tot: +0.00004 ]
	SubspaceRotationAdjust: set factor to 0.0485
ElecMinimize: Iter:  14  F: -3936.465397479073090  |grad|_K:  1.453e-07  alpha:  3.847e-01  linmin: -5.554e-07  t[s]:  15404.16
	Linear fluid (dielectric constant: 78.4, screening length: 8.12261 Bohr) occupying 0.539405 of unit cell:	Completed after 4 iterations at t[s]:  15462.05
	Linear fluid (dielectric constant: 78.4, screening length: 8.12261 Bohr) occupying 0.539413 of unit cell:	Completed after 4 iterations at t[s]:  15504.48
	FillingsUpdate:  mu: -0.200458589  nElectrons: 714.000000  magneticMoment: [ Abs: 0.00004  Tot: +0.00004 ]
	SubspaceRotationAdjust: set factor to 0.0559
ElecMinimize: Iter:  15  F: -3936.465403790882647  |grad|_K:  1.248e-07  alpha:  6.070e-01  linmin:  6.318e-07  t[s]:  15563.06
	Linear fluid (dielectric constant: 78.4, screening length: 8.12261 Bohr) occupying 0.539436 of unit cell:	Completed after 7 iterations at t[s]:  15621.77
	Linear fluid (dielectric constant: 78.4, screening length: 8.12261 Bohr) occupying 0.539436 of unit cell:	Completed after 0 iterations at t[s]:  15662.59
	FillingsUpdate:  mu: -0.200237947  nElectrons: 714.000000  magneticMoment: [ Abs: 0.00004  Tot: +0.00004 ]
	SubspaceRotationAdjust: set factor to 0.0642
ElecMinimize: Iter:  16  F: -3936.465408329402635  |grad|_K:  1.090e-07  alpha:  5.986e-01  linmin: -4.826e-07  t[s]:  15721.38
	Linear fluid (dielectric constant: 78.4, screening length: 8.12261 Bohr) occupying 0.539461 of unit cell:	Completed after 8 iterations at t[s]:  15780.40
	Linear fluid (dielectric constant: 78.4, screening length: 8.12261 Bohr) occupying 0.539459 of unit cell:	Completed after 0 iterations at t[s]:  15821.20
	FillingsUpdate:  mu: -0.200339620  nElectrons: 714.000000  magneticMoment: [ Abs: 0.00004  Tot: +0.00004 ]
	SubspaceRotationAdjust: set factor to 0.0634
ElecMinimize: Iter:  17  F: -3936.465411648967347  |grad|_K:  1.150e-07  alpha:  5.638e-01  linmin:  7.161e-07  t[s]:  15879.95
	Linear fluid (dielectric constant: 78.4, screening length: 8.12261 Bohr) occupying 0.539482 of unit cell:	Completed after 9 iterations at t[s]:  15939.28
	Linear fluid (dielectric constant: 78.4, screening length: 8.12261 Bohr) occupying 0.539472 of unit cell:	Completed after 7 iterations at t[s]:  15983.16
	FillingsUpdate:  mu: -0.200095729  nElectrons: 714.000000  magneticMoment: [ Abs: 0.00004  Tot: +0.00004 ]
	SubspaceRotationAdjust: set factor to 0.0507
ElecMinimize: Iter:  18  F: -3936.465413647442347  |grad|_K:  1.006e-07  alpha:  3.157e-01  linmin:  1.996e-07  t[s]:  16041.87
	Linear fluid (dielectric constant: 78.4, screening length: 8.12261 Bohr) occupying 0.539485 of unit cell:	Completed after 6 iterations at t[s]:  16100.34
	Linear fluid (dielectric constant: 78.4, screening length: 8.12261 Bohr) occupying 0.539489 of unit cell:	Completed after 2 iterations at t[s]:  16142.10
	FillingsUpdate:  mu: -0.200005803  nElectrons: 714.000000  magneticMoment: [ Abs: 0.00004  Tot: +0.00003 ]
	SubspaceRotationAdjust: set factor to 0.0509
ElecMinimize: Iter:  19  F: -3936.465415681467675  |grad|_K:  7.824e-08  alpha:  4.090e-01  linmin: -1.468e-06  t[s]:  16200.81
	Linear fluid (dielectric constant: 78.4, screening length: 8.12261 Bohr) occupying 0.539498 of unit cell:	Completed after 3 iterations at t[s]:  16258.91
	Linear fluid (dielectric constant: 78.4, screening length: 8.12261 Bohr) occupying 0.539499 of unit cell:	Completed after 2 iterations at t[s]:  16300.45
	FillingsUpdate:  mu: -0.200139141  nElectrons: 714.000000  magneticMoment: [ Abs: 0.00004  Tot: +0.00003 ]
	SubspaceRotationAdjust: set factor to 0.0545
ElecMinimize: Iter:  20  F: -3936.465417120600705  |grad|_K:  6.682e-08  alpha:  4.696e-01  linmin: -2.095e-07  t[s]:  16359.20
	Linear fluid (dielectric constant: 78.4, screening length: 8.12261 Bohr) occupying 0.539505 of unit cell:	Completed after 7 iterations at t[s]:  16417.87
	Linear fluid (dielectric constant: 78.4, screening length: 8.12261 Bohr) occupying 0.539504 of unit cell:	Completed after 0 iterations at t[s]:  16458.70
	FillingsUpdate:  mu: -0.200006869  nElectrons: 714.000000  magneticMoment: [ Abs: 0.00004  Tot: +0.00003 ]
	SubspaceRotationAdjust: set factor to 0.0492
ElecMinimize: Iter:  21  F: -3936.465418079042138  |grad|_K:  6.470e-08  alpha:  4.334e-01  linmin:  3.175e-06  t[s]:  16517.36
	Linear fluid (dielectric constant: 78.4, screening length: 8.12261 Bohr) occupying 0.539511 of unit cell:	Completed after 8 iterations at t[s]:  16576.22
	Linear fluid (dielectric constant: 78.4, screening length: 8.12261 Bohr) occupying 0.539509 of unit cell:	Completed after 2 iterations at t[s]:  16618.04
	FillingsUpdate:  mu: -0.199938731  nElectrons: 714.000000  magneticMoment: [ Abs: 0.00004  Tot: +0.00003 ]
	SubspaceRotationAdjust: set factor to 0.042
ElecMinimize: Iter:  22  F: -3936.465418661107833  |grad|_K:  5.061e-08  alpha:  2.987e-01  linmin:  1.091e-06  t[s]:  16676.63
	Linear fluid (dielectric constant: 78.4, screening length: 8.12261 Bohr) occupying 0.539510 of unit cell:	Completed after 3 iterations at t[s]:  16734.22
	Linear fluid (dielectric constant: 78.4, screening length: 8.12261 Bohr) occupying 0.539510 of unit cell:	Completed after 0 iterations at t[s]:  16775.34
	FillingsUpdate:  mu: -0.199997549  nElectrons: 714.000000  magneticMoment: [ Abs: 0.00003  Tot: +0.00003 ]
	SubspaceRotationAdjust: set factor to 0.0524
ElecMinimize: Iter:  23  F: -3936.465419185388782  |grad|_K:  3.590e-08  alpha:  4.095e-01  linmin: -8.854e-06  t[s]:  16834.10
	Linear fluid (dielectric constant: 78.4, screening length: 8.12261 Bohr) occupying 0.539509 of unit cell:	Completed after 2 iterations at t[s]:  16891.90
	Linear fluid (dielectric constant: 78.4, screening length: 8.12261 Bohr) occupying 0.539509 of unit cell:	Completed after 0 iterations at t[s]:  16932.79
	FillingsUpdate:  mu: -0.200032557  nElectrons: 714.000000  magneticMoment: [ Abs: 0.00003  Tot: +0.00003 ]
	SubspaceRotationAdjust: set factor to 0.0543
ElecMinimize: Iter:  24  F: -3936.465419468593609  |grad|_K:  3.881e-08  alpha:  4.105e-01  linmin: -9.397e-06  t[s]:  16991.47
	Linear fluid (dielectric constant: 78.4, screening length: 8.12261 Bohr) occupying 0.539509 of unit cell:	Completed after 3 iterations at t[s]:  17049.10
	Linear fluid (dielectric constant: 78.4, screening length: 8.12261 Bohr) occupying 0.539509 of unit cell:	Completed after 1 iterations at t[s]:  17090.54
	FillingsUpdate:  mu: -0.199971457  nElectrons: 714.000000  magneticMoment: [ Abs: 0.00003  Tot: +0.00003 ]
	SubspaceRotationAdjust: set factor to 0.0534
ElecMinimize: Iter:  25  F: -3936.465419712148559  |grad|_K:  3.139e-08  alpha:  3.080e-01  linmin:  3.926e-06  t[s]:  17149.52
	Linear fluid (dielectric constant: 78.4, screening length: 8.12261 Bohr) occupying 0.539508 of unit cell:	Completed after 0 iterations at t[s]:  17206.20
	Linear fluid (dielectric constant: 78.4, screening length: 8.12261 Bohr) occupying 0.539508 of unit cell:	Completed after 2 iterations at t[s]:  17247.97
	FillingsUpdate:  mu: -0.199979422  nElectrons: 714.000000  magneticMoment: [ Abs: 0.00003  Tot: +0.00003 ]
	SubspaceRotationAdjust: set factor to 0.0643
ElecMinimize: Iter:  26  F: -3936.465419911909066  |grad|_K:  3.071e-08  alpha:  4.710e-01  linmin:  8.209e-06  t[s]:  17306.63
	Linear fluid (dielectric constant: 78.4, screening length: 8.12261 Bohr) occupying 0.539505 of unit cell:	Completed after 3 iterations at t[s]:  17364.33
	Linear fluid (dielectric constant: 78.4, screening length: 8.12261 Bohr) occupying 0.539506 of unit cell:	Completed after 0 iterations at t[s]:  17405.23
	FillingsUpdate:  mu: -0.200036236  nElectrons: 714.000000  magneticMoment: [ Abs: 0.00003  Tot: +0.00003 ]
	SubspaceRotationAdjust: set factor to 0.057
ElecMinimize: Iter:  27  F: -3936.465420061494115  |grad|_K:  3.086e-08  alpha:  3.412e-01  linmin:  1.461e-05  t[s]:  17463.95
	Linear fluid (dielectric constant: 78.4, screening length: 8.12261 Bohr) occupying 0.539504 of unit cell:	Completed after 2 iterations at t[s]:  17521.15
	Linear fluid (dielectric constant: 78.4, screening length: 8.12261 Bohr) occupying 0.539504 of unit cell:	Completed after 0 iterations at t[s]:  17561.88
	FillingsUpdate:  mu: -0.200024615  nElectrons: 714.000000  magneticMoment: [ Abs: 0.00003  Tot: +0.00003 ]
	SubspaceRotationAdjust: set factor to 0.0543
ElecMinimize: Iter:  28  F: -3936.465420160916892  |grad|_K:  2.146e-08  alpha:  2.554e-01  linmin: -7.511e-07  t[s]:  17620.59
	Linear fluid (dielectric constant: 78.4, screening length: 8.12261 Bohr) occupying 0.539503 of unit cell:	Completed after 0 iterations at t[s]:  17676.86
	Linear fluid (dielectric constant: 78.4, screening length: 8.12261 Bohr) occupying 0.539502 of unit cell:	Completed after 2 iterations at t[s]:  17718.65
	FillingsUpdate:  mu: -0.200019373  nElectrons: 714.000000  magneticMoment: [ Abs: 0.00003  Tot: +0.00003 ]
	SubspaceRotationAdjust: set factor to 0.0579
ElecMinimize: Iter:  29  F: -3936.465420270652885  |grad|_K:  1.941e-08  alpha:  5.408e-01  linmin:  1.244e-05  t[s]:  17778.09
	Linear fluid (dielectric constant: 78.4, screening length: 8.12261 Bohr) occupying 0.539501 of unit cell:	Completed after 0 iterations at t[s]:  17834.43
	Linear fluid (dielectric constant: 78.4, screening length: 8.12261 Bohr) occupying 0.539501 of unit cell:	Completed after 0 iterations at t[s]:  17875.31
	FillingsUpdate:  mu: -0.200019493  nElectrons: 714.000000  magneticMoment: [ Abs: 0.00003  Tot: +0.00003 ]
	SubspaceRotationAdjust: set factor to 0.0676
ElecMinimize: Iter:  30  F: -3936.465420365905175  |grad|_K:  1.781e-08  alpha:  5.628e-01  linmin: -2.838e-06  t[s]:  17934.12
	Linear fluid (dielectric constant: 78.4, screening length: 8.12261 Bohr) occupying 0.539500 of unit cell:	Completed after 3 iterations at t[s]:  17991.55
	Linear fluid (dielectric constant: 78.4, screening length: 8.12261 Bohr) occupying 0.539501 of unit cell:	Completed after 2 iterations at t[s]:  18033.34
	FillingsUpdate:  mu: -0.200108030  nElectrons: 714.000000  magneticMoment: [ Abs: 0.00003  Tot: +0.00003 ]
	SubspaceRotationAdjust: set factor to 0.0627
ElecMinimize: Iter:  31  F: -3936.465420376389829  |grad|_K:  2.261e-08  alpha:  2.343e-01  linmin:  1.369e-05  t[s]:  18092.16
ElecMinimize: Converged (|Delta F|<1.000000e-07 for 2 iters).
Setting wave functions to eigenvectors of Hamiltonian
Converging empty states (this may take a while): |deigs|: 9.845e-05
Single-point solvation energy estimate, DeltaF = -0.008994698914194

Computing DFT-D3 correction:
# coordination-number Pt 5.958 7.047 5.958 7.035 5.954 5.954 5.954 5.954 7.677 7.677 7.677 7.677 9.494 9.494 9.494 9.494 9.261 9.261 9.261 9.261 9.597 9.597 9.597 9.597 9.519 9.519 9.519 9.519 9.598 9.598 9.598 9.598 9.264 9.264 9.264 9.264 9.506 9.497 9.499 9.497 7.689 7.744 7.689 7.684
# coordination-number C 3.095
# coordination-number O 1.181
# diagonal-C6 Pt 336.87 336.87 336.87 336.87 336.87 336.87 336.87 336.87 336.87 336.87 336.87 336.87 336.87 336.87 336.87 336.87 336.87 336.87 336.87 336.87 336.87 336.87 336.87 336.87 336.87 336.87 336.87 336.87 336.87 336.87 336.87 336.87 336.87 336.87 336.87 336.87 336.87 336.87 336.87 336.87 336.87 336.87 336.87 336.87
# diagonal-C6 C 25.46
# diagonal-C6 O 12.62
EvdW_6 =   -0.391499
EvdW_8 =   -0.630665

# Ionic positions in cartesian coordinates:
ion Pt   5.241340000000000   0.218295000000000  23.220851000000003 0
ion Pt   2.625348000000001   8.894560000000000  23.220851000000003 0
ion Pt   0.009344000000000   0.218295000000000  23.220851000000003 0
ion Pt  -2.606647000000000   8.894560000000000  23.220851000000003 0
ion Pt  -0.009459000000000   4.514096000000000   1.317516000000000 0
ion Pt  -2.625445999999999  13.190378999999998   1.317516000000000 0
ion Pt   5.222547000000000   4.514096000000000   1.317516000000000 0
ion Pt   2.606540000000002  13.190378999999998   1.317516000000000 0
[...]
force Pt   0.000328854248211  -0.000160015625338  -0.002836365793072 0
force Pt   0.000174012918045   0.000605904525267   0.000502704781470 0
force Pt   0.000175156754721   0.000339997123244   0.000820732136307 0
force Pt   0.000129397562579   0.000790327855431   0.000608020523462 0
force Pt  -0.000336065884990   0.000161333963813   0.000076240567532 0
force Pt  -0.000013216839323  -0.000918539511965   0.000966422785902 0
force Pt   0.000397377354486   0.000185870234479   0.000112493893740 0
force Pt  -0.000045419512013  -0.000263389241786   0.000484127884850 0
force Pt  -0.001325757968546  -0.000721178466014  -0.003588773777873 0
force Pt  -0.000135280737474  -0.000301772569910   0.000034314624808 0
force Pt   0.001021994440572  -0.000889734600872  -0.003802387164401 0
force Pt  -0.000297075536174  -0.000607161837010   0.000179791648961 0
force Pt   0.000128457921920  -0.000254711166503   0.000015523115374 0
force Pt   0.000104778373248  -0.001035052561861   0.000392177827818 0
force Pt  -0.000015217039072   0.002147919898269  -0.001056106902034 0
force Pt  -0.000100594322738  -0.001097525672981   0.000225584564458 0
force Pt   0.000318373107369  -0.002031117603455  -0.008308705546498 0
force Pt   0.000510590289693   0.001122276215497  -0.000832161161801 0
force Pt   0.000413288882868   0.001197906279820   0.004737231845199 0
force Pt  -0.000345964854947   0.001283244718873  -0.000857338901910 0
force Pt  -0.000255908556157  -0.003931960007881  -0.002887355214900 0
force Pt  -0.000248530948824   0.011555474334585  -0.010364452816426 0
force Pt  -0.000237211782473  -0.004012126196042  -0.003048017475371 0
force Pt  -0.000298796754232   0.002697542249174  -0.003318685594883 0
force C   0.000774137601313  -0.001152475063115   0.000172859510799 1  Linear 0 0 1
force O  -0.001649928881452  -0.000240644417047  -0.000064520221583 1  Linear 0 0 1

# Energy components:
   A_diel =       -0.0111987104957109
   Eewald =    43782.0721202317072311
       EH =    47346.8817140773244319
     Eloc =   -95752.6860197731148219
      Enl =      -43.2518088781813645
     EvdW =       -1.0213537016123011
      Exc =    -1257.2014756515068257
 Exc_core =      721.3195240606755760
       KE =     1267.4156587990719345
-------------------------------------
     Etot =    -3936.4828395461336186
       TS =        0.0073292007042032
-------------------------------------
        F =    -3936.4901687468377531


Dumping 'jdft.fillings' ... done
Dumping 'jdft.wfns' ... done
Dumping 'jdft.fluidState' ... done
Dumping 'jdft.ionpos' ... done
Dumping 'jdft.lattice' ... done
Dumping 'jdft.eigenvals' ... done
Dumping 'jdft.eigStats' ... 
	eMin: -2.151548 at state 0 ( [ +0.000000 +0.000000 +0.000000 ] spin 1 )
	HOMO: -0.200242 at state 10 ( [ +0.000000 +0.000000 +0.000000 ] spin -1 )
	mu  : -0.200110
	LUMO: -0.200060 at state 2 ( [ +0.166667 +0.000000 +0.000000 ] spin 1 )
	eMax: +0.082595 at state 18 ( [ +0.500000 +0.000000 +0.000000 ] spin -1 )
	HOMO-LUMO gap: +0.000183
	Optical gap  : +0.000556 at state 0 ( [ +0.000000 +0.000000 +0.000000 ] spin 1 )
Dumping 'jdft.Ecomponents' ... done
IonicMinimize: Iter:   8  F: -3936.490168746837753  |grad|_K:  1.305e-04  alpha:  8.893e-02  linmin: -2.754e-03  t[s]:  64974.66

#--- Lowdin population analysis ---
# oxidation-state Pt +0.073 -0.016 +0.071 -0.017 +0.073 +0.071 +0.076 +0.071 -0.016 -0.015 -0.016 -0.015 -0.012 -0.014 -0.013 -0.014 +0.009 +0.009 +0.009 +0.009 +0.011 +0.009 +0.013 +0.009 +0.012 +0.013 +0.012 +0.013 +0.005 +0.011 +0.006 +0.012 +0.013 +0.011 +0.015 +0.011 -0.013 -0.010 -0.054 -0.010 -0.020 -0.018 -0.020 -0.027
# magnetic-moments Pt +0.000 +0.000 +0.000 +0.000 +0.000 +0.000 +0.000 +0.000 +0.000 +0.000 +0.000 +0.000 +0.000 +0.000 +0.000 +0.000 +0.000 +0.000 +0.000 +0.000 +0.000 +0.000 +0.000 +0.000 +0.000 +0.000 +0.000 +0.000 +0.000 +0.000 +0.000 +0.000 +0.000 +0.000 +0.000 +0.000 +0.000 +0.000 +0.000 +0.000 +0.000 +0.000 +0.000 +0.000
# oxidation-state C +0.400
# magnetic-moments C +0.000
# oxidation-state O -0.162
# magnetic-moments O +0.000


Computing DFT-D3 correction:
# coordination-number Pt 5.958 6.970 5.958 6.967 5.954 5.954 5.954 5.954 7.677 7.677 7.677 7.677 9.494 9.494 9.494 9.494 9.261 9.261 9.261 9.261 9.597 9.597 9.597 9.597 9.519 9.519 9.519 9.519 9.598 9.598 9.598 9.598 9.264 9.264 9.264 9.264 9.502 9.497 9.498 9.497 7.686 7.712 7.686 7.683
# coordination-number C 3.018
# coordination-number O 1.067
# diagonal-C6 Pt 336.87 336.87 336.87 336.87 336.87 336.87 336.87 336.87 336.87 336.87 336.87 336.87 336.87 336.87 336.87 336.87 336.87 336.87 336.87 336.87 336.87 336.87 336.87 336.87 336.87 336.87 336.87 336.87 336.87 336.87 336.87 336.87 336.87 336.87 336.87 336.87 336.87 336.87 336.87 336.87 336.87 336.87 336.87 336.87
# diagonal-C6 C 25.64
# diagonal-C6 O 12.76
EvdW_6 =   -0.391099
EvdW_8 =   -0.630254

-------- Electronic minimization -----------
	Linear fluid (dielectric constant: 78.4, screening length: 8.12261 Bohr) occupying 0.536436 of unit cell:	Completed after 14 iterations at t[s]:  65045.17
	FillingsUpdate:  mu: -0.201998178  nElectrons: 714.000000  magneticMoment: [ Abs: 0.00000  Tot: +0.00000 ]
ElecMinimize: Iter:   0  F: -3936.490080435861728  |grad|_K:  1.119e-06  alpha:  1.000e+00
	Linear fluid (dielectric constant: 78.4, screening length: 8.12261 Bohr) occupying 0.536612 of unit cell:	Completed after 23 iterations at t[s]:  65176.93
	Linear fluid (dielectric constant: 78.4, screening length: 8.12261 Bohr) occupying 0.536457 of unit cell:	Completed after 21 iterations at t[s]:  65224.68
	FillingsUpdate:  mu: -0.200375198  nElectrons: 714.000000  magneticMoment: [ Abs: 0.00000  Tot: +0.00000 ]
	SubspaceRotationAdjust: set factor to 0.0743
ElecMinimize: Iter:   1  F: -3936.490165248455014  |grad|_K:  1.344e-07  alpha:  1.382e-01  linmin:  1.411e-03  t[s]:  65283.32
	Linear fluid (dielectric constant: 78.4, screening length: 8.12261 Bohr) occupying 0.536457 of unit cell:	Completed after 5 iterations at t[s]:  65341.68
	Linear fluid (dielectric constant: 78.4, screening length: 8.12261 Bohr) occupying 0.536458 of unit cell:	Completed after 6 iterations at t[s]:  65384.87
	FillingsUpdate:  mu: -0.200008591  nElectrons: 714.000000  magneticMoment: [ Abs: 0.00000  Tot: +0.00000 ]
	SubspaceRotationAdjust: set factor to 0.0554
ElecMinimize: Iter:   2  F: -3936.490167633960482  |grad|_K:  7.117e-08  alpha:  2.747e-01  linmin:  3.651e-03  t[s]:  65443.63
	Linear fluid (dielectric constant: 78.4, screening length: 8.12261 Bohr) occupying 0.536460 of unit cell:	Completed after 6 iterations at t[s]:  65503.19
	Linear fluid (dielectric constant: 78.4, screening length: 8.12261 Bohr) occupying 0.536460 of unit cell:	Completed after 0 iterations at t[s]:  65544.28
	FillingsUpdate:  mu: -0.200134240  nElectrons: 714.000000  magneticMoment: [ Abs: 0.00000  Tot: +0.00000 ]
	SubspaceRotationAdjust: set factor to 0.0337
ElecMinimize: Iter:   3  F: -3936.490168302217626  |grad|_K:  3.736e-08  alpha:  2.758e-01  linmin: -2.338e-03  t[s]:  65602.79
	Linear fluid (dielectric constant: 78.4, screening length: 8.12261 Bohr) occupying 0.536460 of unit cell:	Completed after 2 iterations at t[s]:  65660.32
	Linear fluid (dielectric constant: 78.4, screening length: 8.12261 Bohr) occupying 0.536460 of unit cell:	Completed after 2 iterations at t[s]:  65702.53
	FillingsUpdate:  mu: -0.200133966  nElectrons: 714.000000  magneticMoment: [ Abs: 0.00000  Tot: +0.00000 ]
	SubspaceRotationAdjust: set factor to 0.0347
ElecMinimize: Iter:   4  F: -3936.490168607717806  |grad|_K:  2.354e-08  alpha:  4.348e-01  linmin: -6.454e-03  t[s]:  65762.16
	Linear fluid (dielectric constant: 78.4, screening length: 8.12261 Bohr) occupying 0.536460 of unit cell:	Completed after 2 iterations at t[s]:  65819.62
	Linear fluid (dielectric constant: 78.4, screening length: 8.12261 Bohr) occupying 0.536460 of unit cell:	Completed after 0 iterations at t[s]:  65860.99
	FillingsUpdate:  mu: -0.200114557  nElectrons: 714.000000  magneticMoment: [ Abs: 0.00000  Tot: +0.00000 ]
	SubspaceRotationAdjust: set factor to 0.0443
ElecMinimize: Iter:   5  F: -3936.490168758673462  |grad|_K:  1.487e-08  alpha:  5.210e-01  linmin: -6.916e-03  t[s]:  65919.62
	Linear fluid (dielectric constant: 78.4, screening length: 8.12261 Bohr) occupying 0.536461 of unit cell:	Completed after 2 iterations at t[s]:  65977.13
	Linear fluid (dielectric constant: 78.4, screening length: 8.12261 Bohr) occupying 0.536460 of unit cell:	Completed after 0 iterations at t[s]:  66018.44
	FillingsUpdate:  mu: -0.200092711  nElectrons: 714.000000  magneticMoment: [ Abs: 0.00000  Tot: +0.00000 ]
	SubspaceRotationAdjust: set factor to 0.0385
ElecMinimize: Iter:   6  F: -3936.490168802084554  |grad|_K:  1.424e-08  alpha:  4.039e-01  linmin: -4.150e-03  t[s]:  66077.48
	Linear fluid (dielectric constant: 78.4, screening length: 8.12261 Bohr) occupying 0.536460 of unit cell:	Completed after 2 iterations at t[s]:  66134.99
	Linear fluid (dielectric constant: 78.4, screening length: 8.12261 Bohr) occupying 0.536460 of unit cell:	Completed after 0 iterations at t[s]:  66176.21
	FillingsUpdate:  mu: -0.200102805  nElectrons: 714.000000  magneticMoment: [ Abs: 0.00000  Tot: +0.00000 ]
	SubspaceRotationAdjust: set factor to 0.0343
ElecMinimize: Iter:   7  F: -3936.490168829329832  |grad|_K:  8.812e-09  alpha:  2.668e-01  linmin:  6.680e-03  t[s]:  66234.88
ElecMinimize: Converged (|Delta F|<1.000000e-07 for 2 iters).
Setting wave functions to eigenvectors of Hamiltonian
Converging empty states (this may take a while): |deigs|: 6.784e-10

Computing DFT-D3 correction:
# coordination-number Pt 5.958 6.970 5.958 6.967 5.954 5.954 5.954 5.954 7.677 7.677 7.677 7.677 9.494 9.494 9.494 9.494 9.261 9.261 9.261 9.261 9.597 9.597 9.597 9.597 9.519 9.519 9.519 9.519 9.598 9.598 9.598 9.598 9.264 9.264 9.264 9.264 9.502 9.497 9.498 9.497 7.686 7.712 7.686 7.683
# coordination-number C 3.018
# coordination-number O 1.067
# diagonal-C6 Pt 336.87 336.87 336.87 336.87 336.87 336.87 336.87 336.87 336.87 336.87 336.87 336.87 336.87 336.87 336.87 336.87 336.87 336.87 336.87 336.87 336.87 336.87 336.87 336.87 336.87 336.87 336.87 336.87 336.87 336.87 336.87 336.87 336.87 336.87 336.87 336.87 336.87 336.87 336.87 336.87 336.87 336.87 336.87 336.87
# diagonal-C6 C 25.64
# diagonal-C6 O 12.76
EvdW_6 =   -0.391099
EvdW_8 =   -0.630254

# Ionic positions in cartesian coordinates:
ion Pt   5.241340000000000   0.218295000000000  23.220851000000003 0
ion Pt   2.625348000000001   8.894560000000000  23.220851000000003 0
ion Pt   0.009344000000000   0.218295000000000  23.220851000000003 0
ion Pt  -2.606647000000000   8.894560000000000  23.220851000000003 0
ion Pt  -0.009459000000000   4.514096000000000   1.317516000000000 0
ion Pt  -2.625445999999999  13.190378999999998   1.317516000000000 0
ion Pt   5.222547000000000   4.514096000000000   1.317516000000000 0
ion Pt   2.606540000000002  13.190378999999998   1.317516000000000 0
ion Pt   2.606795000000000   0.560262000000000   3.078081000000000 0
ion Pt  -0.009207000000000   9.236561999999999   3.078081000000000 0
ion Pt   7.838791000000000   0.560262000000000   3.078081000000000 0
ion Pt   5.222789000000000   9.236561999999999   3.078081000000000 0
ion Pt   2.609997000000000   5.509561000000000   5.634781000000000 0
ion Pt  -0.006004999999998  14.185860999999997   5.634781000000000 0
ion Pt   7.841993000000000   5.509561000000000   5.634781000000000 0
ion Pt   5.225991000000001  14.185860999999997   5.634781000000000 0
ion Pt  -0.003359000000000   1.572871000000000   7.779941000000001 0
ion Pt  -2.619355999999999  10.249154000000001   7.779941000000001 0
ion Pt   5.228637000000000   1.572871000000000   7.779941000000001 0
ion Pt   2.612640000000000  10.249154000000001   7.779941000000001 0
ion Pt  -0.002505000000000   6.318328999999999  10.051066000000002 0
ion Pt  -2.618501999999999  14.994611999999998  10.051066000000002 0
ion Pt   5.229490000000001   6.318328999999999  10.051066000000002 0
ion Pt   2.613493000000001  14.994611999999998  10.051066000000002 0
ion Pt   2.616171000000000   2.366906999999999  12.270803000000001 0
ion Pt   0.000174000000001  11.043189999999997  12.270803000000001 0
ion Pt   7.848167000000002   2.366906999999999  12.270803000000001 0
ion Pt   5.232170000000000  11.043189999999997  12.270803000000001 0
ion Pt   2.618583000000000   7.091334000000000  14.490026000000002 0
ion Pt   0.002581000000000  15.767633999999997  14.490026000000002 0
ion Pt   7.850579000000000   7.091334000000000  14.490026000000002 0
ion Pt   5.234577000000002  15.767633999999997  14.490026000000002 0
ion Pt   0.003506000000000   3.159276999999999  16.761077000000000 0
ion Pt  -2.612480999999999  11.835559999999999  16.761077000000000 0
ion Pt   5.235502000000000   3.159276999999999  16.761077000000000 0
ion Pt   2.619515000000000  11.835559999999999  16.761077000000000 0
ion Pt   0.005971000000000   7.898454000000000  18.905721000000000 0
ion Pt  -2.610025999999999  16.574736000000001  18.905721000000000 0
ion Pt   5.237966000000002   7.898454000000000  18.905721000000000 0
ion Pt   2.621969000000001  16.574736000000001  18.905721000000000 0
ion Pt   2.624935000000000   4.172007999999999  21.461684999999999 0
ion Pt   0.008938000000001  12.848289999999999  21.461684999999999 0
ion Pt   7.856931000000001   4.172007999999999  21.461684999999999 0
ion Pt   5.240934000000001  12.848289999999999  21.461684999999999 0
ion C   0.009351000000001   8.894560000000000  25.967185866394008 1  Linear 0 0 1
ion O   0.069445000000000   8.894560000000000  28.201802507813486 1  Linear 0 0 1

# Forces in Cartesian coordinates:
force Pt   0.000053630364921   0.000661440708412   0.001325386952581 0
force Pt   0.006754890158415  -0.002067693903730   0.013609102685590 0
force Pt   0.000015018547622  -0.000936376036427   0.001368352270765 0
force Pt  -0.006321912163070  -0.002180711702590   0.015227601529690 0
force Pt   0.000052105695645  -0.000090663299728  -0.000363769973653 0
force Pt  -0.000086281389952  -0.000055135095190  -0.000641122493207 0
force Pt  -0.000198861082730   0.000768765774917   0.000481810577559 0
force Pt   0.000056199063870  -0.000072604943062  -0.000770371256727 0
force Pt  -0.000136479944812  -0.000450849431102   0.000580753090737 0
force Pt   0.000292923432943   0.000373419222888   0.000218326010574 0
force Pt   0.000783689017883  -0.000571694712475   0.000592584382679 0
force Pt   0.000147330225371  -0.000073050662171   0.000367039921957 0
force Pt  -0.000340045495955  -0.001016964681648  -0.000590329786886 0
force Pt  -0.000264540686144  -0.000718752699997  -0.000138281779558 0
force Pt   0.000107962160717  -0.000719139197848  -0.000324357382455 0
force Pt  -0.000179100109086  -0.000611624048091   0.000152635673217 0
force Pt   0.000006305971872   0.000946837521110  -0.000108263938967 0
force Pt   0.000065454225024   0.000722668778541  -0.000224770048174 0
force Pt  -0.000023510828860   0.000813304993802  -0.000207082241555 0
force Pt  -0.000027350216097   0.000733221744886  -0.000314277380995 0
force Pt   0.000328248721561  -0.000167696245288  -0.003191704556632 0
force Pt   0.000174600363895   0.000610684643300   0.000145250755628 0
force Pt   0.000174971796134   0.000333217986295   0.000467318882632 0
force Pt   0.000129234896166   0.000795709177720   0.000251291812613 0
force Pt  -0.000334994592440   0.000152044862100  -0.000109185343399 0
force Pt  -0.000013424187732  -0.000910037804796   0.000779993756903 0
force Pt   0.000395842856786   0.000177069211760  -0.000073042182534 0
force Pt  -0.000045751843235  -0.000256690633283   0.000298049875027 0
force Pt  -0.001323543367853  -0.000726429343792  -0.003549427937692 0
force Pt  -0.000135311954071  -0.000300996770485   0.000081826531433 0
force Pt   0.001020697469568  -0.000895335509018  -0.003762472852343 0
force Pt  -0.000296628071411  -0.000605762473589   0.000226672565974 0
force Pt   0.000128994828149  -0.000262703370642   0.000281123741667 0
force Pt   0.000103788107412  -0.001016659269596   0.000653095706917 0
force Pt  -0.000014832151679   0.002141827528411  -0.000789570400028 0
force Pt  -0.000098744496619  -0.001078806355242   0.000486550127170 0
force Pt   0.000318659569222  -0.002030172441260  -0.007972189305558 0
force Pt   0.000511052100668   0.001130590081264  -0.000482439039985 0
force Pt   0.000413825912338   0.001196923477310   0.005068755686776 0
force Pt  -0.000345467384515   0.001291811009210  -0.000507372876580 0
force Pt  -0.000254229623069  -0.003936712846417  -0.002601996132444 0
force Pt  -0.000249288802060   0.011595421262467  -0.010077884524309 0
force Pt  -0.000238660716905  -0.004016059500069  -0.002761823877322 0
force Pt  -0.000298834120490   0.002728559978286  -0.003026198746554 0
force C   0.000766396151033  -0.001150122785467   0.000105528129316 1  Linear 0 0 1
force O  -0.001661371753394  -0.000237626520657  -0.000043854659068 1  Linear 0 0 1

# Energy components:
   A_diel =       -0.0111777699729732
   Eewald =    43782.0640302065803553
       EH =    47346.8772602364188060
     Eloc =   -95752.6737199493509252
      Enl =      -43.2518140279683081
     EvdW =       -1.0213535371603153
      Exc =    -1257.2015379092738385
 Exc_core =      721.3195240577197183
       KE =     1267.4159491294415147
-------------------------------------
     Etot =    -3936.4828395635640845
       TS =        0.0073292657657769
-------------------------------------
        F =    -3936.4901688293298321


Dumping 'jdft.fillings' ... done
Dumping 'jdft.wfns' ... done
Dumping 'jdft.fluidState' ... done
Dumping 'jdft.ionpos' ... done
Dumping 'jdft.lattice' ... done
Dumping 'jdft.eigenvals' ... done
Dumping 'jdft.eigStats' ... 
	eMin: -2.151543 at state 0 ( [ +0.000000 +0.000000 +0.000000 ] spin 1 )
	HOMO: -0.200238 at state 10 ( [ +0.000000 +0.000000 +0.000000 ] spin -1 )
	mu  : -0.200103
	LUMO: -0.200058 at state 2 ( [ +0.166667 +0.000000 +0.000000 ] spin 1 )
	eMax: +0.082601 at state 18 ( [ +0.500000 +0.000000 +0.000000 ] spin -1 )
	HOMO-LUMO gap: +0.000180
	Optical gap  : +0.000549 at state 0 ( [ +0.000000 +0.000000 +0.000000 ] spin 1 )
Dumping 'jdft.Ecomponents' ... done
IonicMinimize: Iter:   9  F: -3936.490168829329832  |grad|_K:  8.081e-05  alpha:  1.000e+00  linmin: -2.788e-03  t[s]:  66400.46
IonicMinimize: Converged (|grad|_K<1.000000e-04).

#--- Lowdin population analysis ---
# oxidation-state Pt +0.072 -0.016 +0.071 -0.017 +0.075 +0.073 +0.077 +0.073 -0.014 -0.014 -0.014 -0.013 -0.010 -0.012 -0.011 -0.012 +0.010 +0.010 +0.011 +0.010 +0.012 +0.010 +0.013 +0.010 +0.011 +0.012 +0.011 +0.011 +0.003 +0.009 +0.004 +0.010 +0.011 +0.009 +0.013 +0.009 -0.015 -0.011 -0.055 -0.011 -0.020 -0.019 -0.020 -0.027
# magnetic-moments Pt +0.000 +0.000 +0.000 +0.000 +0.000 +0.000 +0.000 +0.000 +0.000 +0.000 +0.000 +0.000 +0.000 +0.000 +0.000 +0.000 +0.000 +0.000 +0.000 +0.000 +0.000 +0.000 +0.000 +0.000 +0.000 +0.000 +0.000 +0.000 +0.000 +0.000 +0.000 +0.000 +0.000 +0.000 +0.000 +0.000 +0.000 +0.000 +0.000 +0.000 +0.000 +0.000 +0.000 +0.000
# oxidation-state C +0.400
# magnetic-moments C +0.000
# oxidation-state O -0.162
# magnetic-moments O -0.000


Dumping 'jdft.n_up' ... done
Dumping 'jdft.n_dn' ... done
Dumping 'jdft.tau_up' ... done
Dumping 'jdft.tau_dn' ... done
Dumping 'jdft.eigenvals' ... done
Dumping 'jdft.eigStats' ... 
	eMin: -2.151543 at state 0 ( [ +0.000000 +0.000000 +0.000000 ] spin 1 )
	HOMO: -0.200238 at state 10 ( [ +0.000000 +0.000000 +0.000000 ] spin -1 )
	mu  : -0.200103
	LUMO: -0.200058 at state 2 ( [ +0.166667 +0.000000 +0.000000 ] spin 1 )
	eMax: +0.082601 at state 18 ( [ +0.500000 +0.000000 +0.000000 ] spin -1 )
	HOMO-LUMO gap: +0.000180
	Optical gap  : +0.000549 at state 0 ( [ +0.000000 +0.000000 +0.000000 ] spin 1 )
Dumping 'jdft.kPts' ... done
Dumping 'jdft.kMap' ... done
Dumping 'jdft.dosUp' ... done.
Dumping 'jdft.dosDn' ... done.
End date and time: Thu Feb 17 22:20:49 2022  (Duration: 0-18:28:11.41)
Done!
