
*************** JDFTx 1.6.0  ***************

Start date and time: Thu Feb 17 03:04:50 2022
Executable /projects/musgravc/apps/jdftx-1.6.1/build/jdftx with command-line: -i in
Running on hosts (process indices):  shas0803.rc.int.colorado.edu (0-23)
Divided in process groups (process indices):  0 (0)  1 (1)  2 (2)  3 (3)  4 (4)  5 (5)  6 (6)  7 (7)  8 (8)  9 (9)  10 (10)  11 (11)  12 (12)  13 (13)  14 (14)  15 (15)  16 (16)  17 (17)  18 (18)  19 (19)  20 (20)  21 (21)  22 (22)  23 (23)
Resource initialization completed at t[s]:      0.00
Run totals: 24 processes, 24 threads, 0 GPUs


Input parsed successfully to the following command list (including defaults):

basis kpoint-dependent
converge-empty-states yes
coords-type Cartesian
core-overlap-check none
coulomb-interaction Periodic
davidson-band-ratio 1.1
density-of-states Etol 1.000000e-06 Esigma 1.000000e-03 \
		Complete \
	Total \
	OrthoOrbital Pt 1   s \
	OrthoOrbital Pt 1   p \
	OrthoOrbital Pt 1   px \
	OrthoOrbital Pt 1   py \
	OrthoOrbital Pt 1   pz \
	OrthoOrbital Pt 1   d \
	OrthoOrbital Pt 1   dxy \
	OrthoOrbital Pt 1   dyz \
	OrthoOrbital Pt 1   dz2 \
	OrthoOrbital Pt 1   dxz \
	OrthoOrbital Pt 1   dx2-y2 \
	OrthoOrbital Pt 2   s \
	OrthoOrbital Pt 2   p \
	OrthoOrbital Pt 2   px \
	OrthoOrbital Pt 2   py \
	OrthoOrbital Pt 2   pz \
	OrthoOrbital Pt 2   d \
	OrthoOrbital Pt 2   dxy \
	OrthoOrbital Pt 2   dyz \
	OrthoOrbital Pt 2   dz2 \
	OrthoOrbital Pt 2   dxz \
	OrthoOrbital Pt 2   dx2-y2 \
	OrthoOrbital Pt 3   s \
	OrthoOrbital Pt 3   p \
	OrthoOrbital Pt 3   px \
	OrthoOrbital Pt 3   py \
	OrthoOrbital Pt 3   pz \
	OrthoOrbital Pt 3   d \
	OrthoOrbital Pt 3   dxy \
	OrthoOrbital Pt 3   dyz \
	OrthoOrbital Pt 3   dz2 \
	OrthoOrbital Pt 3   dxz \
	OrthoOrbital Pt 3   dx2-y2 \
	OrthoOrbital Pt 4   s \
	OrthoOrbital Pt 4   p \
	OrthoOrbital Pt 4   px \
	OrthoOrbital Pt 4   py \
	OrthoOrbital Pt 4   pz \
	OrthoOrbital Pt 4   d \
	OrthoOrbital Pt 4   dxy \
	OrthoOrbital Pt 4   dyz \
	OrthoOrbital Pt 4   dz2 \
	OrthoOrbital Pt 4   dxz \
	OrthoOrbital Pt 4   dx2-y2 \
	OrthoOrbital Pt 5   s \
	OrthoOrbital Pt 5   p \
	OrthoOrbital Pt 5   px \
	OrthoOrbital Pt 5   py \
	OrthoOrbital Pt 5   pz \
	OrthoOrbital Pt 5   d \
	OrthoOrbital Pt 5   dxy \
	OrthoOrbital Pt 5   dyz \
	OrthoOrbital Pt 5   dz2 \
	OrthoOrbital Pt 5   dxz \
	OrthoOrbital Pt 5   dx2-y2 \
	OrthoOrbital Pt 6   s \
	OrthoOrbital Pt 6   p \
	OrthoOrbital Pt 6   px \
	OrthoOrbital Pt 6   py \
	OrthoOrbital Pt 6   pz \
	OrthoOrbital Pt 6   d \
	OrthoOrbital Pt 6   dxy \
	OrthoOrbital Pt 6   dyz \
	OrthoOrbital Pt 6   dz2 \
	OrthoOrbital Pt 6   dxz \
	OrthoOrbital Pt 6   dx2-y2 \
	OrthoOrbital Pt 7   s \
	OrthoOrbital Pt 7   p \
	OrthoOrbital Pt 7   px \
	OrthoOrbital Pt 7   py \
	OrthoOrbital Pt 7   pz \
	OrthoOrbital Pt 7   d \
	OrthoOrbital Pt 7   dxy \
	OrthoOrbital Pt 7   dyz \
	OrthoOrbital Pt 7   dz2 \
	OrthoOrbital Pt 7   dxz \
	OrthoOrbital Pt 7   dx2-y2 \
	OrthoOrbital Pt 8   s \
	OrthoOrbital Pt 8   p \
	OrthoOrbital Pt 8   px \
	OrthoOrbital Pt 8   py \
	OrthoOrbital Pt 8   pz \
	OrthoOrbital Pt 8   d \
	OrthoOrbital Pt 8   dxy \
	OrthoOrbital Pt 8   dyz \
	OrthoOrbital Pt 8   dz2 \
	OrthoOrbital Pt 8   dxz \
	OrthoOrbital Pt 8   dx2-y2 \
	OrthoOrbital Pt 9   s \
	OrthoOrbital Pt 9   p \
	OrthoOrbital Pt 9   px \
	OrthoOrbital Pt 9   py \
	OrthoOrbital Pt 9   pz \
	OrthoOrbital Pt 9   d \
	OrthoOrbital Pt 9   dxy \
	OrthoOrbital Pt 9   dyz \
	OrthoOrbital Pt 9   dz2 \
	OrthoOrbital Pt 9   dxz \
	OrthoOrbital Pt 9   dx2-y2 \
	OrthoOrbital Pt 10   s \
	OrthoOrbital Pt 10   p \
	OrthoOrbital Pt 10   px \
	OrthoOrbital Pt 10   py \
	OrthoOrbital Pt 10   pz \
	OrthoOrbital Pt 10   d \
	OrthoOrbital Pt 10   dxy \
	OrthoOrbital Pt 10   dyz \
	OrthoOrbital Pt 10   dz2 \
	OrthoOrbital Pt 10   dxz \
	OrthoOrbital Pt 10   dx2-y2 \
	OrthoOrbital Pt 11   s \
	OrthoOrbital Pt 11   p \
	OrthoOrbital Pt 11   px \
	OrthoOrbital Pt 11   py \
	OrthoOrbital Pt 11   pz \
	OrthoOrbital Pt 11   d \
	OrthoOrbital Pt 11   dxy \
	OrthoOrbital Pt 11   dyz \
	OrthoOrbital Pt 11   dz2 \
	OrthoOrbital Pt 11   dxz \
	OrthoOrbital Pt 11   dx2-y2 \
	OrthoOrbital Pt 12   s \
	OrthoOrbital Pt 12   p \
	OrthoOrbital Pt 12   px \
	OrthoOrbital Pt 12   py \
	OrthoOrbital Pt 12   pz \
	OrthoOrbital Pt 12   d \
	OrthoOrbital Pt 12   dxy \
	OrthoOrbital Pt 12   dyz \
	OrthoOrbital Pt 12   dz2 \
	OrthoOrbital Pt 12   dxz \
	OrthoOrbital Pt 12   dx2-y2 \
	OrthoOrbital Pt 13   s \
	OrthoOrbital Pt 13   p \
	OrthoOrbital Pt 13   px \
	OrthoOrbital Pt 13   py \
	OrthoOrbital Pt 13   pz \
	OrthoOrbital Pt 13   d \
	OrthoOrbital Pt 13   dxy \
	OrthoOrbital Pt 13   dyz \
	OrthoOrbital Pt 13   dz2 \
	OrthoOrbital Pt 13   dxz \
	OrthoOrbital Pt 13   dx2-y2 \
	OrthoOrbital Pt 14   s \
	OrthoOrbital Pt 14   p \
	OrthoOrbital Pt 14   px \
	OrthoOrbital Pt 14   py \
	OrthoOrbital Pt 14   pz \
	OrthoOrbital Pt 14   d \
	OrthoOrbital Pt 14   dxy \
	OrthoOrbital Pt 14   dyz \
	OrthoOrbital Pt 14   dz2 \
	OrthoOrbital Pt 14   dxz \
	OrthoOrbital Pt 14   dx2-y2 \
	OrthoOrbital Pt 15   s \
	OrthoOrbital Pt 15   p \
	OrthoOrbital Pt 15   px \
	OrthoOrbital Pt 15   py \
	OrthoOrbital Pt 15   pz \
	OrthoOrbital Pt 15   d \
	OrthoOrbital Pt 15   dxy \
	OrthoOrbital Pt 15   dyz \
	OrthoOrbital Pt 15   dz2 \
	OrthoOrbital Pt 15   dxz \
	OrthoOrbital Pt 15   dx2-y2 \
	OrthoOrbital Pt 16   s \
	OrthoOrbital Pt 16   p \
	OrthoOrbital Pt 16   px \
	OrthoOrbital Pt 16   py \
	OrthoOrbital Pt 16   pz \
	OrthoOrbital Pt 16   d \
	OrthoOrbital Pt 16   dxy \
	OrthoOrbital Pt 16   dyz \
	OrthoOrbital Pt 16   dz2 \
	OrthoOrbital Pt 16   dxz \
	OrthoOrbital Pt 16   dx2-y2 \
	OrthoOrbital Pt 17   s \
	OrthoOrbital Pt 17   p \
	OrthoOrbital Pt 17   px \
	OrthoOrbital Pt 17   py \
	OrthoOrbital Pt 17   pz \
	OrthoOrbital Pt 17   d \
	OrthoOrbital Pt 17   dxy \
	OrthoOrbital Pt 17   dyz \
	OrthoOrbital Pt 17   dz2 \
	OrthoOrbital Pt 17   dxz \
	OrthoOrbital Pt 17   dx2-y2 \
	OrthoOrbital Pt 18   s \
	OrthoOrbital Pt 18   p \
	OrthoOrbital Pt 18   px \
	OrthoOrbital Pt 18   py \
	OrthoOrbital Pt 18   pz \
	OrthoOrbital Pt 18   d \
	OrthoOrbital Pt 18   dxy \
	OrthoOrbital Pt 18   dyz \
	OrthoOrbital Pt 18   dz2 \
	OrthoOrbital Pt 18   dxz \
	OrthoOrbital Pt 18   dx2-y2 \
	OrthoOrbital Pt 19   s \
	OrthoOrbital Pt 19   p \
	OrthoOrbital Pt 19   px \
	OrthoOrbital Pt 19   py \
	OrthoOrbital Pt 19   pz \
	OrthoOrbital Pt 19   d \
	OrthoOrbital Pt 19   dxy \
	OrthoOrbital Pt 19   dyz \
	OrthoOrbital Pt 19   dz2 \
	OrthoOrbital Pt 19   dxz \
	OrthoOrbital Pt 19   dx2-y2 \
	OrthoOrbital Pt 20   s \
	OrthoOrbital Pt 20   p \
	OrthoOrbital Pt 20   px \
	OrthoOrbital Pt 20   py \
	OrthoOrbital Pt 20   pz \
	OrthoOrbital Pt 20   d \
	OrthoOrbital Pt 20   dxy \
	OrthoOrbital Pt 20   dyz \
	OrthoOrbital Pt 20   dz2 \
	OrthoOrbital Pt 20   dxz \
	OrthoOrbital Pt 20   dx2-y2 \
	OrthoOrbital Pt 21   s \
	OrthoOrbital Pt 21   p \
	OrthoOrbital Pt 21   px \
	OrthoOrbital Pt 21   py \
	OrthoOrbital Pt 21   pz \
	OrthoOrbital Pt 21   d \
	OrthoOrbital Pt 21   dxy \
	OrthoOrbital Pt 21   dyz \
	OrthoOrbital Pt 21   dz2 \
	OrthoOrbital Pt 21   dxz \
	OrthoOrbital Pt 21   dx2-y2 \
	OrthoOrbital Pt 22   s \
	OrthoOrbital Pt 22   p \
	OrthoOrbital Pt 22   px \
	OrthoOrbital Pt 22   py \
	OrthoOrbital Pt 22   pz \
	OrthoOrbital Pt 22   d \
	OrthoOrbital Pt 22   dxy \
	OrthoOrbital Pt 22   dyz \
	OrthoOrbital Pt 22   dz2 \
	OrthoOrbital Pt 22   dxz \
	OrthoOrbital Pt 22   dx2-y2 \
	OrthoOrbital Pt 23   s \
	OrthoOrbital Pt 23   p \
	OrthoOrbital Pt 23   px \
	OrthoOrbital Pt 23   py \
	OrthoOrbital Pt 23   pz \
	OrthoOrbital Pt 23   d \
	OrthoOrbital Pt 23   dxy \
	OrthoOrbital Pt 23   dyz \
	OrthoOrbital Pt 23   dz2 \
	OrthoOrbital Pt 23   dxz \
	OrthoOrbital Pt 23   dx2-y2 \
	OrthoOrbital Pt 24   s \
	OrthoOrbital Pt 24   p \
	OrthoOrbital Pt 24   px \
	OrthoOrbital Pt 24   py \
	OrthoOrbital Pt 24   pz \
	OrthoOrbital Pt 24   d \
	OrthoOrbital Pt 24   dxy \
	OrthoOrbital Pt 24   dyz \
	OrthoOrbital Pt 24   dz2 \
	OrthoOrbital Pt 24   dxz \
	OrthoOrbital Pt 24   dx2-y2 \
	OrthoOrbital Pt 25   s \
	OrthoOrbital Pt 25   p \
	OrthoOrbital Pt 25   px \
	OrthoOrbital Pt 25   py \
	OrthoOrbital Pt 25   pz \
	OrthoOrbital Pt 25   d \
	OrthoOrbital Pt 25   dxy \
	OrthoOrbital Pt 25   dyz \
	OrthoOrbital Pt 25   dz2 \
	OrthoOrbital Pt 25   dxz \
	OrthoOrbital Pt 25   dx2-y2 \
	OrthoOrbital Pt 26   s \
	OrthoOrbital Pt 26   p \
	OrthoOrbital Pt 26   px \
	OrthoOrbital Pt 26   py \
	OrthoOrbital Pt 26   pz \
	OrthoOrbital Pt 26   d \
	OrthoOrbital Pt 26   dxy \
	OrthoOrbital Pt 26   dyz \
	OrthoOrbital Pt 26   dz2 \
	OrthoOrbital Pt 26   dxz \
	OrthoOrbital Pt 26   dx2-y2 \
	OrthoOrbital Pt 27   s \
	OrthoOrbital Pt 27   p \
	OrthoOrbital Pt 27   px \
	OrthoOrbital Pt 27   py \
	OrthoOrbital Pt 27   pz \
	OrthoOrbital Pt 27   d \
	OrthoOrbital Pt 27   dxy \
	OrthoOrbital Pt 27   dyz \
	OrthoOrbital Pt 27   dz2 \
	OrthoOrbital Pt 27   dxz \
	OrthoOrbital Pt 27   dx2-y2 \
	OrthoOrbital Pt 28   s \
	OrthoOrbital Pt 28   p \
	OrthoOrbital Pt 28   px \
	OrthoOrbital Pt 28   py \
	OrthoOrbital Pt 28   pz \
	OrthoOrbital Pt 28   d \
	OrthoOrbital Pt 28   dxy \
	OrthoOrbital Pt 28   dyz \
	OrthoOrbital Pt 28   dz2 \
	OrthoOrbital Pt 28   dxz \
	OrthoOrbital Pt 28   dx2-y2 \
	OrthoOrbital Pt 29   s \
	OrthoOrbital Pt 29   p \
	OrthoOrbital Pt 29   px \
	OrthoOrbital Pt 29   py \
	OrthoOrbital Pt 29   pz \
	OrthoOrbital Pt 29   d \
	OrthoOrbital Pt 29   dxy \
	OrthoOrbital Pt 29   dyz \
	OrthoOrbital Pt 29   dz2 \
	OrthoOrbital Pt 29   dxz \
	OrthoOrbital Pt 29   dx2-y2 \
	OrthoOrbital Pt 30   s \
	OrthoOrbital Pt 30   p \
	OrthoOrbital Pt 30   px \
	OrthoOrbital Pt 30   py \
	OrthoOrbital Pt 30   pz \
	OrthoOrbital Pt 30   d \
	OrthoOrbital Pt 30   dxy \
	OrthoOrbital Pt 30   dyz \
	OrthoOrbital Pt 30   dz2 \
	OrthoOrbital Pt 30   dxz \
	OrthoOrbital Pt 30   dx2-y2 \
	OrthoOrbital Pt 31   s \
	OrthoOrbital Pt 31   p \
	OrthoOrbital Pt 31   px \
	OrthoOrbital Pt 31   py \
	OrthoOrbital Pt 31   pz \
	OrthoOrbital Pt 31   d \
	OrthoOrbital Pt 31   dxy \
	OrthoOrbital Pt 31   dyz \
	OrthoOrbital Pt 31   dz2 \
	OrthoOrbital Pt 31   dxz \
	OrthoOrbital Pt 31   dx2-y2 \
	OrthoOrbital Pt 32   s \
	OrthoOrbital Pt 32   p \
	OrthoOrbital Pt 32   px \
	OrthoOrbital Pt 32   py \
	OrthoOrbital Pt 32   pz \
	OrthoOrbital Pt 32   d \
	OrthoOrbital Pt 32   dxy \
	OrthoOrbital Pt 32   dyz \
	OrthoOrbital Pt 32   dz2 \
	OrthoOrbital Pt 32   dxz \
	OrthoOrbital Pt 32   dx2-y2 \
	OrthoOrbital Pt 33   s \
	OrthoOrbital Pt 33   p \
	OrthoOrbital Pt 33   px \
	OrthoOrbital Pt 33   py \
	OrthoOrbital Pt 33   pz \
	OrthoOrbital Pt 33   d \
	OrthoOrbital Pt 33   dxy \
	OrthoOrbital Pt 33   dyz \
	OrthoOrbital Pt 33   dz2 \
	OrthoOrbital Pt 33   dxz \
	OrthoOrbital Pt 33   dx2-y2 \
	OrthoOrbital Pt 34   s \
	OrthoOrbital Pt 34   p \
	OrthoOrbital Pt 34   px \
	OrthoOrbital Pt 34   py \
	OrthoOrbital Pt 34   pz \
	OrthoOrbital Pt 34   d \
	OrthoOrbital Pt 34   dxy \
	OrthoOrbital Pt 34   dyz \
	OrthoOrbital Pt 34   dz2 \
	OrthoOrbital Pt 34   dxz \
	OrthoOrbital Pt 34   dx2-y2 \
	OrthoOrbital Pt 35   s \
	OrthoOrbital Pt 35   p \
	OrthoOrbital Pt 35   px \
	OrthoOrbital Pt 35   py \
	OrthoOrbital Pt 35   pz \
	OrthoOrbital Pt 35   d \
	OrthoOrbital Pt 35   dxy \
	OrthoOrbital Pt 35   dyz \
	OrthoOrbital Pt 35   dz2 \
	OrthoOrbital Pt 35   dxz \
	OrthoOrbital Pt 35   dx2-y2 \
	OrthoOrbital Pt 36   s \
	OrthoOrbital Pt 36   p \
	OrthoOrbital Pt 36   px \
	OrthoOrbital Pt 36   py \
	OrthoOrbital Pt 36   pz \
	OrthoOrbital Pt 36   d \
	OrthoOrbital Pt 36   dxy \
	OrthoOrbital Pt 36   dyz \
	OrthoOrbital Pt 36   dz2 \
	OrthoOrbital Pt 36   dxz \
	OrthoOrbital Pt 36   dx2-y2 \
	OrthoOrbital Pt 37   s \
	OrthoOrbital Pt 37   p \
	OrthoOrbital Pt 37   px \
	OrthoOrbital Pt 37   py \
	OrthoOrbital Pt 37   pz \
	OrthoOrbital Pt 37   d \
	OrthoOrbital Pt 37   dxy \
	OrthoOrbital Pt 37   dyz \
	OrthoOrbital Pt 37   dz2 \
	OrthoOrbital Pt 37   dxz \
	OrthoOrbital Pt 37   dx2-y2 \
	OrthoOrbital Pt 38   s \
	OrthoOrbital Pt 38   p \
	OrthoOrbital Pt 38   px \
	OrthoOrbital Pt 38   py \
	OrthoOrbital Pt 38   pz \
	OrthoOrbital Pt 38   d \
	OrthoOrbital Pt 38   dxy \
	OrthoOrbital Pt 38   dyz \
	OrthoOrbital Pt 38   dz2 \
	OrthoOrbital Pt 38   dxz \
	OrthoOrbital Pt 38   dx2-y2 \
	OrthoOrbital Pt 39   s \
	OrthoOrbital Pt 39   p \
	OrthoOrbital Pt 39   px \
	OrthoOrbital Pt 39   py \
	OrthoOrbital Pt 39   pz \
	OrthoOrbital Pt 39   d \
	OrthoOrbital Pt 39   dxy \
	OrthoOrbital Pt 39   dyz \
	OrthoOrbital Pt 39   dz2 \
	OrthoOrbital Pt 39   dxz \
	OrthoOrbital Pt 39   dx2-y2 \
	OrthoOrbital Pt 40   s \
	OrthoOrbital Pt 40   p \
	OrthoOrbital Pt 40   px \
	OrthoOrbital Pt 40   py \
	OrthoOrbital Pt 40   pz \
	OrthoOrbital Pt 40   d \
	OrthoOrbital Pt 40   dxy \
	OrthoOrbital Pt 40   dyz \
	OrthoOrbital Pt 40   dz2 \
	OrthoOrbital Pt 40   dxz \
	OrthoOrbital Pt 40   dx2-y2 \
	OrthoOrbital Pt 41   s \
	OrthoOrbital Pt 41   p \
	OrthoOrbital Pt 41   px \
	OrthoOrbital Pt 41   py \
	OrthoOrbital Pt 41   pz \
	OrthoOrbital Pt 41   d \
	OrthoOrbital Pt 41   dxy \
	OrthoOrbital Pt 41   dyz \
	OrthoOrbital Pt 41   dz2 \
	OrthoOrbital Pt 41   dxz \
	OrthoOrbital Pt 41   dx2-y2 \
	OrthoOrbital Pt 42   s \
	OrthoOrbital Pt 42   p \
	OrthoOrbital Pt 42   px \
	OrthoOrbital Pt 42   py \
	OrthoOrbital Pt 42   pz \
	OrthoOrbital Pt 42   d \
	OrthoOrbital Pt 42   dxy \
	OrthoOrbital Pt 42   dyz \
	OrthoOrbital Pt 42   dz2 \
	OrthoOrbital Pt 42   dxz \
	OrthoOrbital Pt 42   dx2-y2 \
	OrthoOrbital Pt 43   s \
	OrthoOrbital Pt 43   p \
	OrthoOrbital Pt 43   px \
	OrthoOrbital Pt 43   py \
	OrthoOrbital Pt 43   pz \
	OrthoOrbital Pt 43   d \
	OrthoOrbital Pt 43   dxy \
	OrthoOrbital Pt 43   dyz \
	OrthoOrbital Pt 43   dz2 \
	OrthoOrbital Pt 43   dxz \
	OrthoOrbital Pt 43   dx2-y2 \
	OrthoOrbital Pt 44   s \
	OrthoOrbital Pt 44   p \
	OrthoOrbital Pt 44   px \
	OrthoOrbital Pt 44   py \
	OrthoOrbital Pt 44   pz \
	OrthoOrbital Pt 44   d \
	OrthoOrbital Pt 44   dxy \
	OrthoOrbital Pt 44   dyz \
	OrthoOrbital Pt 44   dz2 \
	OrthoOrbital Pt 44   dxz \
	OrthoOrbital Pt 44   dx2-y2 \
	OrthoOrbital Pt 45   s \
	OrthoOrbital Pt 45   p \
	OrthoOrbital Pt 45   px \
	OrthoOrbital Pt 45   py \
	OrthoOrbital Pt 45   pz \
	OrthoOrbital Pt 45   d \
	OrthoOrbital Pt 45   dxy \
	OrthoOrbital Pt 45   dyz \
	OrthoOrbital Pt 45   dz2 \
	OrthoOrbital Pt 45   dxz \
	OrthoOrbital Pt 45   dx2-y2 \
	OrthoOrbital Pt 46   s \
	OrthoOrbital Pt 46   p \
	OrthoOrbital Pt 46   px \
	OrthoOrbital Pt 46   py \
	OrthoOrbital Pt 46   pz \
	OrthoOrbital Pt 46   d \
	OrthoOrbital Pt 46   dxy \
	OrthoOrbital Pt 46   dyz \
	OrthoOrbital Pt 46   dz2 \
	OrthoOrbital Pt 46   dxz \
	OrthoOrbital Pt 46   dx2-y2 \
	OrthoOrbital Pt 47   s \
	OrthoOrbital Pt 47   p \
	OrthoOrbital Pt 47   px \
	OrthoOrbital Pt 47   py \
	OrthoOrbital Pt 47   pz \
	OrthoOrbital Pt 47   d \
	OrthoOrbital Pt 47   dxy \
	OrthoOrbital Pt 47   dyz \
	OrthoOrbital Pt 47   dz2 \
	OrthoOrbital Pt 47   dxz \
	OrthoOrbital Pt 47   dx2-y2 \
	OrthoOrbital Pt 48   s \
	OrthoOrbital Pt 48   p \
	OrthoOrbital Pt 48   px \
	OrthoOrbital Pt 48   py \
	OrthoOrbital Pt 48   pz \
	OrthoOrbital Pt 48   d \
	OrthoOrbital Pt 48   dxy \
	OrthoOrbital Pt 48   dyz \
	OrthoOrbital Pt 48   dz2 \
	OrthoOrbital Pt 48   dxz \
	OrthoOrbital Pt 48   dx2-y2 \
	OrthoOrbital C 1   s \
	OrthoOrbital C 1   p \
	OrthoOrbital C 1   px \
	OrthoOrbital C 1   py \
	OrthoOrbital C 1   pz \
	OrthoOrbital O 1   s \
	OrthoOrbital O 1   p \
	OrthoOrbital O 1   px \
	OrthoOrbital O 1   py \
	OrthoOrbital O 1   pz
dump End ElecDensity KEdensity BandEigs EigStats RhoAtom DOS Kpoints
dump Ionic State IonicPositions Lattice EigStats Ecomponents
dump 
dump 
dump 
dump 
dump 
dump 
dump 
dump 
dump-name jdft.$VAR
elec-cutoff 20
elec-eigen-algo Davidson
elec-ex-corr gga-PBE
elec-initial-magnetization 0.000000 no
elec-n-bands 467
elec-smearing Fermi 0.001
electronic-minimize  \
	dirUpdateScheme      FletcherReeves \
	linminMethod         DirUpdateRecommended \
	nIterations          100 \
	history              15 \
	knormThreshold       0 \
	energyDiffThreshold  1e-07 \
	nEnergyDiff          2 \
	alphaTstart          1 \
	alphaTmin            1e-10 \
	updateTestStepSize   yes \
	alphaTreduceFactor   0.1 \
	alphaTincreaseFactor 3 \
	nAlphaAdjustMax      3 \
	wolfeEnergy          0.0001 \
	wolfeGradient        0.9 \
	fdTest               no
exchange-regularization WignerSeitzTruncated
fluid LinearPCM 298.000000 1.013250
fluid-anion F- 0.5 MeanFieldLJ \
	epsBulk 1 \
	pMol 0 \
	epsInf 1 \
	Pvap 0 \
	sigmaBulk 0 \
	Rvdw 2.24877 \
	Res 0 \
	tauNuc 343133
fluid-cation Na+ 0.5 MeanFieldLJ \
	epsBulk 1 \
	pMol 0 \
	epsInf 1 \
	Pvap 0 \
	sigmaBulk 0 \
	Rvdw 2.19208 \
	Res 0 \
	tauNuc 343133
fluid-ex-corr lda-TF lda-PZ
fluid-gummel-loop 10 1.000000e-05
fluid-minimize  \
	dirUpdateScheme      PolakRibiere \
	linminMethod         DirUpdateRecommended \
	nIterations          400 \
	history              15 \
	knormThreshold       1e-11 \
	energyDiffThreshold  0 \
	nEnergyDiff          2 \
	alphaTstart          1 \
	alphaTmin            1e-10 \
	updateTestStepSize   yes \
	alphaTreduceFactor   0.1 \
	alphaTincreaseFactor 3 \
	nAlphaAdjustMax      6 \
	wolfeEnergy          0.0001 \
	wolfeGradient        0.9 \
	fdTest               no
fluid-solvent H2O 55.338 ScalarEOS \
	epsBulk 78.4 \
	pMol 0.92466 \
	epsInf 1.77 \
	Pvap 1.06736e-10 \
	sigmaBulk 4.62e-05 \
	Rvdw 2.61727 \
	Res 1.42 \
	tauNuc 343133 \
	poleEl 15 7 1
forces-output-coords Positions
ion Pt   0.000220000000000   0.307628000000000  17.100908000000000 0
ion Pt   0.000220000000000  13.123347000000001  17.100908000000000 0
ion Pt   5.232205000000001   0.307628000000000  17.100908000000000 0
ion Pt   5.232205000000001  13.123347000000001  17.100908000000000 0
ion Pt  10.463699000000000   4.022239000000000   2.178053000000000 0
ion Pt  10.463699000000000  16.837956999999999   2.178053000000000 0
ion Pt   5.231692000000000   4.022239000000000   2.178053000000000 0
ion Pt   5.231692000000000  16.837956999999999   2.178053000000000 0
ion Pt  10.463981000000000   8.528655000000001   5.417403000000000 0
ion Pt  10.463981000000000  21.344373999999998   5.417403000000000 0
ion Pt   5.231975000000000   8.528655000000001   5.417403000000000 0
ion Pt   5.231975000000000  21.344373999999998   5.417403000000000 0
ion Pt  10.463844999999999  25.622132000000001   8.238791000000001 0
ion Pt  10.463844999999999  12.806414000000000   8.238791000000001 0
ion Pt   5.231849000000001  25.622132000000001   8.238791000000001 0
ion Pt   5.231849000000001  12.806414000000000   8.238791000000001 0
ion Pt   0.000157000000000   4.349296000000000  11.332694000000000 0
ion Pt   0.000157000000000  17.165013999999999  11.332694000000000 0
ion Pt   5.232153000000001   4.349296000000000  11.332694000000000 0
ion Pt   5.232153000000001  17.165013999999999  11.332694000000000 0
ion Pt   0.000303000000000   8.653275000000001  14.682311000000000 0
ion Pt   0.000303000000000  21.469018999999999  14.682311000000000 0
ion Pt   5.232310000000000   8.653275000000001  14.682311000000000 0
ion Pt   5.232310000000000  21.469018999999999  14.682311000000000 0
ion Pt   2.615715000000000  25.523040999999999   3.443627000000001 0
ion Pt   2.615715000000000  12.707296999999999   3.443627000000001 0
ion Pt   7.847711000000000  25.523040999999999   3.443627000000001 0
ion Pt   7.847711000000000  12.707296999999999   3.443627000000001 0
ion Pt   2.615810000000000   4.193175000000000   6.787100000000000 0
ion Pt   2.615810000000000  17.008893000000000   6.787100000000000 0
ion Pt   7.847806000000000   4.193175000000000   6.787100000000000 0
ion Pt   7.847806000000000  17.008893000000000   6.787100000000000 0
ion Pt   2.616155000000000   8.553081999999998   9.886386000000000 0
ion Pt   2.616155000000000  21.368799999999997   9.886386000000000 0
ion Pt   7.848151000000000   8.553081999999998   9.886386000000000 0
ion Pt   7.848151000000000  21.368799999999997   9.886386000000000 0
ion Pt   2.615998000000000   0.014841000000000  12.709460000000000 0
ion Pt   2.615998000000000  12.830558999999997  12.709460000000000 0
ion Pt   7.847994000000001   0.014841000000000  12.709460000000000 0
ion Pt   7.847994000000001  12.830558999999997  12.709460000000000 0
ion Pt   2.616322000000000   4.520642000000000  15.941687000000002 0
ion Pt   2.616322000000000  17.336386000000001  15.941687000000002 0
ion Pt   7.848318000000000   4.520642000000000  15.941687000000002 0
ion Pt   7.848318000000000  17.336386000000001  15.941687000000002 0
ion Pt   2.615768000000000   8.237738999999999   1.026553000000000 0
ion Pt   2.615768000000000  21.053457000000002   1.026553000000000 0
ion Pt   7.847764000000001   8.237738999999999   1.026553000000000 0
ion Pt   7.847764000000001  21.053457000000002   1.026553000000000 0
ion C   3.924269000000000   8.821982000000000  18.125830000000001 1  Linear 0 0 1
ion O   3.984353000000000   8.821982000000000  20.281210000000002 1  Linear 0 0 1
ion-species /projects/musgravc/apps/jdftx-1.6.0/build/pseudopotentials/GBRV_v1.5/$ID_pbe_v1.uspp
ion-species /projects/musgravc/apps/jdftx-1.6.0/build/pseudopotentials/GBRV_v1.5/$ID_pbe_v1.2.uspp
ion-species /projects/musgravc/apps/jdftx-1.6.0/build/pseudopotentials/GBRV_v1.5/$ID_pbe_v1.4.uspp
ion-species /projects/musgravc/apps/jdftx-1.6.0/build/pseudopotentials/GBRV_v1.5/$ID_pbe_v1.5.uspp
ion-width Ecut
ionic-minimize  \
	dirUpdateScheme      L-BFGS \
	linminMethod         DirUpdateRecommended \
	nIterations          100 \
	history              15 \
	knormThreshold       0.0001 \
	energyDiffThreshold  1e-06 \
	nEnergyDiff          2 \
	alphaTstart          1 \
	alphaTmin            1e-10 \
	updateTestStepSize   yes \
	alphaTreduceFactor   0.1 \
	alphaTincreaseFactor 3 \
	nAlphaAdjustMax      3 \
	wolfeEnergy          0.0001 \
	wolfeGradient        0.9 \
	fdTest               no
kpoint   0.000000000000   0.000000000000   0.000000000000  1.00000000000000
kpoint-folding 6 2 1 
latt-move-scale 0 0 0
latt-scale 1 1 1 
lattice  \
	  10.463991999999999    0.000000000000000    0.000000000000000  \
	   0.000000000000000   25.631436000000001    0.000000000000000  \
	   0.000000000000000    0.000000000000000   54.372487000000000 
lattice-minimize  \
	dirUpdateScheme      L-BFGS \
	linminMethod         DirUpdateRecommended \
	nIterations          0 \
	history              15 \
	knormThreshold       0 \
	energyDiffThreshold  1e-06 \
	nEnergyDiff          2 \
	alphaTstart          1 \
	alphaTmin            1e-10 \
	updateTestStepSize   yes \
	alphaTreduceFactor   0.1 \
	alphaTincreaseFactor 3 \
	nAlphaAdjustMax      3 \
	wolfeEnergy          0.0001 \
	wolfeGradient        0.9 \
	fdTest               no
lcao-params 30 1e-06 0.001
pcm-variant CANDLE
spintype z-spin
subspace-rotation-factor 1 yes
symmetries automatic
symmetry-threshold 0.0001
van-der-waals D3



---------- Setting up symmetries ----------

Found 8 point-group symmetries of the bravais lattice
Found 1 space-group symmetries with basis
Applied RMS atom displacement 0 bohrs to make symmetries exact.

---------- Initializing the Grid ----------
R = 
[       10.464            0            0  ]
[            0      25.6314            0  ]
[            0            0      54.3725  ]
unit cell volume = 14583.1
G =
[   0.600458          0          0  ]
[          0   0.245136          0  ]
[          0          0   0.115558  ]
Minimum fftbox size, Smin = [  44  104  220  ]
Chosen fftbox size, S = [  48  108  224  ]

---------- Exchange Correlation functional ----------
Initalized PBE GGA exchange.
Initalized PBE GGA correlation.

---------- Setting up pseudopotentials ----------
Width of ionic core gaussian charges (only for fluid interactions / plotting) set to 0.397384

Reading pseudopotential file '/projects/musgravc/apps/jdftx-1.6.0/build/pseudopotentials/GBRV_v1.5/pt_pbe_v1.4.uspp':
  Title: Pt.  Created by USPP 7.3.6 on 31-3-15
  Reference state energy: -105.002503.  16 valence electrons in orbitals:
    |510>  occupation: 6  eigenvalue: -2.158104
    |520>  occupation: 9.5  eigenvalue: -0.335376
    |600>  occupation: 0  eigenvalue: -0.319640
    |610>  occupation: 0  eigenvalue: -0.122947
  lMax: 2  lLocal: 3  QijEcut: 5.5
  6 projectors sampled on a log grid with 745 points:
    l: 0  eig: -0.319640  rCut: 2.45
    l: 0  eig: 1.500000  rCut: 2.45
    l: 1  eig: -2.158104  rCut: 1.6
    l: 1  eig: -0.122947  rCut: 1.6
    l: 2  eig: -0.500000  rCut: 1.6
    l: 2  eig: -0.335375  rCut: 1.6
  Partial core density with radius 1.1
  Transforming core density to a uniform radial grid of dG=0.02 with 1179 points.
  Transforming local potential to a uniform radial grid of dG=0.02 with 1179 points.
  Transforming nonlocal projectors to a uniform radial grid of dG=0.02 with 432 points.
  Transforming density augmentations to a uniform radial grid of dG=0.02 with 1179 points.
  Transforming atomic orbitals to a uniform radial grid of dG=0.02 with 432 points.
  Core radius for overlap checks: 2.45 bohrs.

Reading pseudopotential file '/projects/musgravc/apps/jdftx-1.6.0/build/pseudopotentials/GBRV_v1.5/c_pbe_v1.2.uspp':
  Title: C.  Created by USPP 7.3.6 on 3-2-2014
  Reference state energy: -5.406344.  4 valence electrons in orbitals:
    |200>  occupation: 2  eigenvalue: -0.504890
    |210>  occupation: 2  eigenvalue: -0.194356
  lMax: 1  lLocal: 2  QijEcut: 5
  4 projectors sampled on a log grid with 503 points:
    l: 0  eig: -0.504890  rCut: 1.3
    l: 0  eig: 0.000000  rCut: 1.3
    l: 1  eig: -0.194357  rCut: 1.3
    l: 1  eig: 0.000000  rCut: 1.3
  Partial core density with radius 1.1
  Transforming core density to a uniform radial grid of dG=0.02 with 1179 points.
  Transforming local potential to a uniform radial grid of dG=0.02 with 1179 points.
  Transforming nonlocal projectors to a uniform radial grid of dG=0.02 with 432 points.
  Transforming density augmentations to a uniform radial grid of dG=0.02 with 1179 points.
  Transforming atomic orbitals to a uniform radial grid of dG=0.02 with 432 points.
  Core radius for overlap checks: 1.30 bohrs.

Reading pseudopotential file '/projects/musgravc/apps/jdftx-1.6.0/build/pseudopotentials/GBRV_v1.5/o_pbe_v1.2.uspp':
  Title: O.  Created by USPP 7.3.6 on 3-2-2014
  Reference state energy: -15.894388.  6 valence electrons in orbitals:
    |200>  occupation: 2  eigenvalue: -0.878823
    |210>  occupation: 4  eigenvalue: -0.332131
  lMax: 2  lLocal: 2  QijEcut: 6
  5 projectors sampled on a log grid with 511 points:
    l: 0  eig: -0.878823  rCut: 1.25
    l: 0  eig: 0.000000  rCut: 1.25
    l: 1  eig: -0.332132  rCut: 1.25
    l: 1  eig: 0.000000  rCut: 1.25
    l: 2  eig: 1.000000  rCut: 1.25
  Partial core density with radius 0.7
  Transforming core density to a uniform radial grid of dG=0.02 with 1179 points.
  Transforming local potential to a uniform radial grid of dG=0.02 with 1179 points.
  Transforming nonlocal projectors to a uniform radial grid of dG=0.02 with 432 points.
  Transforming density augmentations to a uniform radial grid of dG=0.02 with 1179 points.
  Transforming atomic orbitals to a uniform radial grid of dG=0.02 with 432 points.
  Core radius for overlap checks: 1.25 bohrs.

Initialized 3 species with 50 total atoms.

Folded 1 k-points by 6x2x1 to 12 k-points.

---------- Setting up k-points, bands, fillings ----------
Adding inversion symmetry to k-mesh for non-inversion-symmetric unit cell.
Reduced to 8 k-points under symmetry. 
Computing the number of bands and number of electrons
Calculating initial fillings.
nElectrons: 778.000000   nBands: 467   nStates: 16

----- Setting up reduced wavefunction bases (one per k-point) -----
average nbasis = 62290.083 , ideal nbasis = 62300.069

----- Initializing Supercell corresponding to k-point mesh -----
Lattice vector linear combinations in supercell:
[   6   0   0  ]
[   0   2   0  ]
[   0   0   1  ]
Supercell lattice vectors:
[  62.784  0  0  ]
[  0  51.2629  0  ]
[  0  0  54.3725  ]

Initializing DFT-D3 calculator:
	Parameters set for gga-PBE functional
	s6:  1.000  s_r6:  1.217
	s8:  0.722  s_r8:  1.000
	Per-atom parameters loaded for:
	Pt:  sqrtQ[a0]:  5.888  Rcov[a0]:  2.116  CN: [ 0.00 1.92 6.67 ]
	 C:  sqrtQ[a0]:  3.105  Rcov[a0]:  1.417  CN: [ 0.00 0.99 2.00 3.00 3.98 ]
	 O:  sqrtQ[a0]:  2.594  Rcov[a0]:  1.191  CN: [ 0.00 0.99 1.99 ]

Initializing DFT-D2 calculator for fluid / solvation:
	Pt:  C6:  815.23 Eh-a0^6  R0: 3.326 a0 (WARNING: beyond Grimme's data set)
	 C:  C6:   30.35 Eh-a0^6  R0: 2.744 a0
	 O:  C6:   12.14 Eh-a0^6  R0: 2.536 a0

---------- Setting up ewald sum ----------
Optimum gaussian width for ewald sums = 5.078065 bohr.
Real space sum over 455 unit cells with max indices [  6  3  2  ]
Reciprocal space sum over 7733 terms with max indices [  5  9  18  ]

Computing DFT-D3 correction:
# coordination-number Pt 5.929 5.972 5.929 6.555 7.145 7.145 7.145 7.145 9.433 9.433 9.433 9.433 9.344 9.344 9.344 9.344 9.309 9.308 9.309 9.308 7.841 7.662 8.674 7.662 7.666 7.666 7.666 7.666 9.310 9.310 9.310 9.310 9.343 9.342 9.343 9.342 9.434 9.441 9.434 9.436 7.443 7.149 7.172 7.149 5.929 5.929 5.929 5.929
# coordination-number C 3.115
# coordination-number O 1.089
# diagonal-C6 Pt 336.87 336.87 336.87 336.87 336.87 336.87 336.87 336.87 336.87 336.87 336.87 336.87 336.87 336.87 336.87 336.87 336.87 336.87 336.87 336.87 336.87 336.87 336.87 336.87 336.87 336.87 336.87 336.87 336.87 336.87 336.87 336.87 336.87 336.87 336.87 336.87 336.87 336.87 336.87 336.87 336.87 336.87 336.87 336.87 336.87 336.87 336.87 336.87
# diagonal-C6 C 25.39
# diagonal-C6 O 12.74
EvdW_6 =   -0.380693
EvdW_8 =   -0.632863

---------- Allocating electronic variables ----------
Initializing wave functions:  linear combination of atomic orbitals
Pt pseudo-atom occupations:   s ( 0 )  p ( 6 0 )  d ( 10 )
C pseudo-atom occupations:   s ( 2 )  p ( 2 )
O pseudo-atom occupations:   s ( 2 )  p ( 4 )
	FillingsUpdate:  mu: -0.823501908  nElectrons: 778.000000  magneticMoment: [ Abs: 0.00479  Tot: -0.00020 ]
LCAOMinimize: Iter:   0  F: -4269.1983662421707777  |grad|_K:  1.301e-02  alpha:  1.000e+00
LCAOMinimize: 	Step increased F by 2.132623e+02, reducing alpha to 1.931155e-02.
	FillingsUpdate:  mu: -0.387897603  nElectrons: 778.000000  magneticMoment: [ Abs: 0.00413  Tot: -0.00019 ]
LCAOMinimize: Iter:   1  F: -4282.3784498374161558  |grad|_K:  6.271e-03  alpha:  1.931e-02  linmin: -1.456e-01  cgtest:  6.518e-01  t[s]:    326.00
LCAOMinimize: Encountered beta<0, resetting CG.
	FillingsUpdate:  mu: -0.008251547  nElectrons: 778.000000  magneticMoment: [ Abs: 0.00376  Tot: -0.00019 ]
LCAOMinimize: Iter:   2  F: -4285.1564429126328832  |grad|_K:  6.720e-03  alpha:  2.965e-02  linmin:  4.029e-02  cgtest: -1.619e-01  t[s]:    420.89
	FillingsUpdate:  mu: +0.238189464  nElectrons: 778.000000  magneticMoment: [ Abs: 0.00349  Tot: -0.00011 ]
LCAOMinimize: Iter:   3  F: -4286.4210758966937647  |grad|_K:  5.423e-03  alpha:  1.693e-02  linmin:  7.848e-04  cgtest:  7.335e-01  t[s]:    515.67
	FillingsUpdate:  mu: +0.036443704  nElectrons: 778.000000  magneticMoment: [ Abs: 0.00342  Tot: -0.00005 ]
LCAOMinimize: Iter:   4  F: -4288.0507545343289166  |grad|_K:  3.929e-03  alpha:  2.014e-02  linmin: -4.941e-03  cgtest: -2.467e-02  t[s]:    609.63
	FillingsUpdate:  mu: -0.127420710  nElectrons: 778.000000  magneticMoment: [ Abs: 0.00334  Tot: +0.00007 ]
LCAOMinimize: Iter:   5  F: -4288.8363520553948547  |grad|_K:  2.094e-03  alpha:  1.824e-02  linmin: -6.719e-03  cgtest:  3.163e-02  t[s]:    703.83
LCAOMinimize: 	Predicted alpha/alphaT>3.000000, increasing alphaT to 5.472650e-02.
	FillingsUpdate:  mu: +0.187067201  nElectrons: 778.000000  magneticMoment: [ Abs: 0.00290  Tot: +0.00024 ]
LCAOMinimize: Iter:   6  F: -4290.2404372011988016  |grad|_K:  2.970e-03  alpha:  1.139e-01  linmin: -2.515e-03  cgtest:  1.201e-01  t[s]:    823.76
	FillingsUpdate:  mu: +0.169524905  nElectrons: 778.000000  magneticMoment: [ Abs: 0.00279  Tot: +0.00011 ]
LCAOMinimize: Iter:   7  F: -4290.5605609402928167  |grad|_K:  1.524e-03  alpha:  1.422e-02  linmin:  1.602e-02  cgtest: -4.047e-01  t[s]:    918.57
	FillingsUpdate:  mu: +0.172368183  nElectrons: 778.000000  magneticMoment: [ Abs: 0.00268  Tot: +0.00005 ]
LCAOMinimize: Iter:   8  F: -4290.6836839257166503  |grad|_K:  1.497e-03  alpha:  2.489e-02  linmin:  7.862e-04  cgtest:  4.495e-01  t[s]:   1012.98
	FillingsUpdate:  mu: +0.167255176  nElectrons: 778.000000  magneticMoment: [ Abs: 0.00264  Tot: +0.00007 ]
LCAOMinimize: Iter:   9  F: -4290.7834607370505182  |grad|_K:  1.132e-03  alpha:  1.626e-02  linmin:  1.009e-04  cgtest: -3.480e-02  t[s]:   1107.48
	FillingsUpdate:  mu: +0.156124623  nElectrons: 778.000000  magneticMoment: [ Abs: 0.00259  Tot: +0.00007 ]
LCAOMinimize: Iter:  10  F: -4290.8585455896636631  |grad|_K:  9.864e-04  alpha:  2.147e-02  linmin:  4.328e-04  cgtest:  2.694e-04  t[s]:   1202.40
	FillingsUpdate:  mu: +0.182975312  nElectrons: 778.000000  magneticMoment: [ Abs: 0.00249  Tot: +0.00008 ]
LCAOMinimize: Iter:  11  F: -4290.9803785607327882  |grad|_K:  1.367e-03  alpha:  4.677e-02  linmin:  1.289e-03  cgtest:  7.149e-03  t[s]:   1297.27
	FillingsUpdate:  mu: +0.162904566  nElectrons: 778.000000  magneticMoment: [ Abs: 0.00243  Tot: +0.00008 ]
LCAOMinimize: Iter:  12  F: -4291.0509237512887921  |grad|_K:  8.429e-04  alpha:  1.421e-02  linmin: -2.462e-05  cgtest:  9.105e-02  t[s]:   1391.62
	FillingsUpdate:  mu: +0.149732896  nElectrons: 778.000000  magneticMoment: [ Abs: 0.00240  Tot: +0.00007 ]
LCAOMinimize: Iter:  13  F: -4291.1008337989287611  |grad|_K:  6.777e-04  alpha:  2.564e-02  linmin: -1.295e-04  cgtest: -2.198e-02  t[s]:   1486.03
	FillingsUpdate:  mu: +0.144088143  nElectrons: 778.000000  magneticMoment: [ Abs: 0.00238  Tot: +0.00007 ]
LCAOMinimize: Iter:  14  F: -4291.1280054694070714  |grad|_K:  7.089e-04  alpha:  2.150e-02  linmin:  2.811e-04  cgtest:  1.617e-03  t[s]:   1581.22
	FillingsUpdate:  mu: +0.129314240  nElectrons: 778.000000  magneticMoment: [ Abs: 0.00235  Tot: +0.00007 ]
LCAOMinimize: Iter:  15  F: -4291.1589174360296965  |grad|_K:  4.380e-04  alpha:  2.260e-02  linmin:  2.874e-04  cgtest:  2.488e-02  t[s]:   1676.02
	FillingsUpdate:  mu: +0.135021690  nElectrons: 778.000000  magneticMoment: [ Abs: 0.00234  Tot: +0.00006 ]
LCAOMinimize: Iter:  16  F: -4291.1707650631196884  |grad|_K:  4.204e-04  alpha:  2.264e-02  linmin:  2.817e-04  cgtest:  1.022e-02  t[s]:   1771.33
	FillingsUpdate:  mu: +0.135754618  nElectrons: 778.000000  magneticMoment: [ Abs: 0.00233  Tot: +0.00005 ]
LCAOMinimize: Iter:  17  F: -4291.1781489780669290  |grad|_K:  2.496e-04  alpha:  1.528e-02  linmin:  2.317e-05  cgtest:  3.985e-03  t[s]:   1865.83
	FillingsUpdate:  mu: +0.136139267  nElectrons: 778.000000  magneticMoment: [ Abs: 0.00233  Tot: +0.00005 ]
LCAOMinimize: Iter:  18  F: -4291.1833498657579185  |grad|_K:  2.425e-04  alpha:  3.063e-02  linmin:  6.738e-04  cgtest: -1.797e-03  t[s]:   1960.02
	FillingsUpdate:  mu: +0.133420751  nElectrons: 778.000000  magneticMoment: [ Abs: 0.00233  Tot: +0.00005 ]
LCAOMinimize: Iter:  19  F: -4291.1861537567947380  |grad|_K:  2.141e-04  alpha:  1.758e-02  linmin:  2.275e-05  cgtest:  1.550e-02  t[s]:   2055.61
	FillingsUpdate:  mu: +0.128203073  nElectrons: 778.000000  magneticMoment: [ Abs: 0.00232  Tot: +0.00005 ]
LCAOMinimize: Iter:  20  F: -4291.1890897334242254  |grad|_K:  1.378e-04  alpha:  2.343e-02  linmin:  2.668e-04  cgtest: -1.269e-02  t[s]:   2149.60
	FillingsUpdate:  mu: +0.127854914  nElectrons: 778.000000  magneticMoment: [ Abs: 0.00232  Tot: +0.00005 ]
LCAOMinimize: Iter:  21  F: -4291.1905081676113696  |grad|_K:  1.725e-04  alpha:  2.735e-02  linmin:  9.729e-06  cgtest:  4.006e-03  t[s]:   2243.80
	FillingsUpdate:  mu: +0.128038224  nElectrons: 778.000000  magneticMoment: [ Abs: 0.00232  Tot: +0.00005 ]
LCAOMinimize: Iter:  22  F: -4291.1921421191646004  |grad|_K:  1.072e-04  alpha:  2.008e-02  linmin: -3.832e-05  cgtest: -6.335e-03  t[s]:   2339.13
	FillingsUpdate:  mu: +0.127649404  nElectrons: 778.000000  magneticMoment: [ Abs: 0.00232  Tot: +0.00006 ]
LCAOMinimize: Iter:  23  F: -4291.1927619601556216  |grad|_K:  6.014e-05  alpha:  1.970e-02  linmin: -3.537e-05  cgtest: -2.110e-04  t[s]:   2433.13
	FillingsUpdate:  mu: +0.127321246  nElectrons: 778.000000  magneticMoment: [ Abs: 0.00232  Tot: +0.00006 ]
LCAOMinimize: Iter:  24  F: -4291.1928841273775106  |grad|_K:  3.933e-05  alpha:  1.233e-02  linmin: -4.654e-06  cgtest:  1.153e-04  t[s]:   2527.40
LCAOMinimize: 	Predicted alpha/alphaT>3.000000, increasing alphaT to 3.699532e-02.
	FillingsUpdate:  mu: +0.126421898  nElectrons: 778.000000  magneticMoment: [ Abs: 0.00232  Tot: +0.00006 ]
LCAOMinimize: Iter:  25  F: -4291.1930440870673920  |grad|_K:  4.130e-05  alpha:  3.777e-02  linmin:  3.613e-05  cgtest:  4.512e-04  t[s]:   2646.47
	FillingsUpdate:  mu: +0.126220624  nElectrons: 778.000000  magneticMoment: [ Abs: 0.00232  Tot: +0.00006 ]
LCAOMinimize: Iter:  26  F: -4291.1931475235815014  |grad|_K:  4.083e-05  alpha:  2.215e-02  linmin: -4.931e-06  cgtest:  9.505e-04  t[s]:   2741.23
	FillingsUpdate:  mu: +0.126531667  nElectrons: 778.000000  magneticMoment: [ Abs: 0.00233  Tot: +0.00006 ]
LCAOMinimize: Iter:  27  F: -4291.1932305612563141  |grad|_K:  2.676e-05  alpha:  1.818e-02  linmin:  3.299e-05  cgtest: -8.598e-04  t[s]:   2835.31
	FillingsUpdate:  mu: +0.127211986  nElectrons: 778.000000  magneticMoment: [ Abs: 0.00233  Tot: +0.00007 ]
LCAOMinimize: Iter:  28  F: -4291.1932924272850869  |grad|_K:  2.850e-05  alpha:  3.159e-02  linmin:  3.938e-05  cgtest:  1.810e-03  t[s]:   2930.07
	FillingsUpdate:  mu: +0.127474709  nElectrons: 778.000000  magneticMoment: [ Abs: 0.00233  Tot: +0.00007 ]
LCAOMinimize: Iter:  29  F: -4291.1933335600324426  |grad|_K:  2.669e-05  alpha:  1.851e-02  linmin: -2.149e-06  cgtest:  6.468e-04  t[s]:   3024.36
	FillingsUpdate:  mu: +0.127228424  nElectrons: 778.000000  magneticMoment: [ Abs: 0.00233  Tot: +0.00007 ]
LCAOMinimize: Iter:  30  F: -4291.1933968047360395  |grad|_K:  2.184e-05  alpha:  3.244e-02  linmin:  1.657e-05  cgtest: -3.047e-03  t[s]:   3119.27
LCAOMinimize: None of the convergence criteria satisfied after 30 iterations.
----- createFluidSolver() ----- (Fluid-side solver setup)
   Initializing fluid molecule 'H2O'
     Initializing site 'O'
       Electron density: proportional to exp(-r/0.36935)*erfc((r-0.51523)/0.36823) with norm 6.826
       Charge density: gaussian nuclear width 0.478731 with net site charge 0.826
       Polarizability: cuspless exponential with width 0.32 and norm 3.73
       Hard sphere radius: 2.57003 bohrs
       Positions in reference frame:
         [ +0.000000 +0.000000 +0.000000 ]
     Initializing site 'H'
       Electron density: proportional to exp(-r/0.34641)*erfc((r-0)/0.390882) with norm 0.587
       Charge density: gaussian nuclear width 0.377945 with net site charge -0.413
       Polarizability: cuspless exponential with width 0.39 and norm 3.3
       Positions in reference frame:
         [ +0.000000 -1.441945 +1.122523 ]
         [ +0.000000 +1.441945 +1.122523 ]
     Net charge: 0   dipole magnitude: 0.927204
     Initializing spherical shell mfKernel with radius 2.61727 Bohr
     deltaS corrections:
       site 'O': -7.54299
       site 'H': -6.83917
   Initializing fluid molecule 'Na+'
     Initializing site 'Na'
       Electron density: proportional to exp(-r/0.19682)*erfc((r-0.71491)/0.41314) with norm 8.1383
       Charge density: gaussian nuclear width 0.365347 with net site charge -1
       Hard sphere radius: 1.86327 bohrs
       Positions in reference frame:
         [ +0.000000 +0.000000 +0.000000 ]
     Net charge: -1   dipole magnitude: 0
     Initializing gaussian mfKernel with width: 1.55004 Bohr
     deltaS corrections:
       site 'Na': -22.3555
   Initializing fluid molecule 'F-'
     Initializing site 'F'
       Electron density: proportional to exp(-r/0.38886)*erfc((r-0)/0.438782) with norm 8
       Charge density: gaussian nuclear width 0.374796 with net site charge 1
       Hard sphere radius: 2.39995 bohrs
       Positions in reference frame:
         [ +0.000000 +0.000000 +0.000000 ]
     Net charge: 1   dipole magnitude: 0
     Initializing gaussian mfKernel with width: 1.59012 Bohr
     deltaS corrections:
       site 'F': -9.04335

Correction to mu due to finite nuclear width = -0.0529334
   Cavity determined by nc: 0.00142 and sigma: 0.707107
   Nonlocal vdW cavity from gaussian model electron density with norm = 8 and sigma = 0.993594 bohr
   Charge asymmetry in cavity with sensitivity pCavity = 36.5 e-bohr/Eh
   Electrostatic cavity expanded by eta = 1.46 bohrs
   Weighted density cavitation model constrained by Nbulk: 0.0049383 bohr^-3, Pvap: 3.14029 kPa, Rvdw: 2.61727 bohr and sigmaBulk: 4.62e-05 Eh/bohr^2 at T: 298 K.
   Weighted density dispersion model using vdW pair potentials with single solvent site with sqrtC6eff: 0.77 SI.


---- Citations for features of the code used in this run ----

   Software package:
      R. Sundararaman, K. Letchworth-Weaver, K.A. Schwarz, D. Gunceler, Y. Ozhabes and T.A. Arias, 'JDFTx: software for joint density-functional theory', SoftwareX 6, 278 (2017)

   gga-PBE exchange-correlation functional:
      J.P. Perdew, K. Burke and M. Ernzerhof, Phys. Rev. Lett. 77, 3865 (1996)

   Pseudopotentials:
      KF Garrity, JW Bennett, KM Rabe and D Vanderbilt, Comput. Mater. Sci. 81, 446 (2014)

   DFT-D3 dispersion correction:
      S. Grimme, J. Antony, S. Ehrlich and H. Krieg, J. Chem. Phys. 132, 154104 (2010)

   DFT-D2 dispersion correction:
      S. Grimme, J. Comput. Chem. 27, 1787 (2006)

   Charge-asymmetric nonlocally-determined local-electric (CANDLE) solvation model:
      R. Sundararaman and W.A. Goddard III, J. Chem. Phys. 142, 064107 (2015)

   Total energy minimization with Auxiliary Hamiltonian:
      C. Freysoldt, S. Boeck, and J. Neugebauer, Phys. Rev. B 79, 241103(R) (2009)

   Linear-tetrahedron sampling for density of states:
      G. Lehmann and M. Taut, Phys. status solidi (b) 54, 469 (1972)

This list may not be complete. Please suggest additional citations or
report any other bugs at https://github.com/shankar1729/jdftx/issues

Initialization completed successfully at t[s]:   3150.97


Computing DFT-D3 correction:
# coordination-number Pt 5.929 5.972 5.929 6.555 7.145 7.145 7.145 7.145 9.433 9.433 9.433 9.433 9.344 9.344 9.344 9.344 9.309 9.308 9.309 9.308 7.841 7.662 8.674 7.662 7.666 7.666 7.666 7.666 9.310 9.310 9.310 9.310 9.343 9.342 9.343 9.342 9.434 9.441 9.434 9.436 7.443 7.149 7.172 7.149 5.929 5.929 5.929 5.929
# coordination-number C 3.115
# coordination-number O 1.089
# diagonal-C6 Pt 336.87 336.87 336.87 336.87 336.87 336.87 336.87 336.87 336.87 336.87 336.87 336.87 336.87 336.87 336.87 336.87 336.87 336.87 336.87 336.87 336.87 336.87 336.87 336.87 336.87 336.87 336.87 336.87 336.87 336.87 336.87 336.87 336.87 336.87 336.87 336.87 336.87 336.87 336.87 336.87 336.87 336.87 336.87 336.87 336.87 336.87 336.87 336.87
# diagonal-C6 C 25.39
# diagonal-C6 O 12.74
EvdW_6 =   -0.380693
EvdW_8 =   -0.632863
Fluid solver invoked on fresh (random / LCAO) wavefunctions
Running a vacuum solve first:

-------- Initial electronic minimization -----------
	FillingsUpdate:  mu: +0.127228518  nElectrons: 778.000000  magneticMoment: [ Abs: 0.00233  Tot: +0.00007 ]
ElecMinimize: Iter:   0  F: -4291.193396804729673  |grad|_K:  5.764e-05  alpha:  1.000e+00
	FillingsUpdate:  mu: +0.170514060  nElectrons: 778.000000  magneticMoment: [ Abs: 0.00185  Tot: +0.00008 ]
	SubspaceRotationAdjust: set factor to 0.615
ElecMinimize: Iter:   1  F: -4291.847201384352957  |grad|_K:  6.366e-05  alpha:  4.253e-01  linmin:  3.123e-05  t[s]:   3407.16
	FillingsUpdate:  mu: +0.171349755  nElectrons: 778.000000  magneticMoment: [ Abs: 0.00181  Tot: +0.00009 ]
	SubspaceRotationAdjust: set factor to 0.308
ElecMinimize: Iter:   2  F: -4291.865038351924341  |grad|_K:  5.376e-05  alpha:  2.035e-02  linmin:  1.499e-03  t[s]:   3574.23
	FillingsUpdate:  mu: +0.173537781  nElectrons: 778.000000  magneticMoment: [ Abs: 0.00172  Tot: +0.00010 ]
	SubspaceRotationAdjust: set factor to 0.214
ElecMinimize: Iter:   3  F: -4291.890303784056414  |grad|_K:  4.802e-05  alpha:  3.945e-02  linmin: -7.282e-06  t[s]:   3740.98
	FillingsUpdate:  mu: +0.177557487  nElectrons: 778.000000  magneticMoment: [ Abs: 0.00154  Tot: +0.00009 ]
	SubspaceRotationAdjust: set factor to 0.132
	SubspaceRotationAdjust: resetting CG because factor has changed by 0.131698
ElecMinimize: 	State modified externally: resetting search direction.
ElecMinimize: Iter:   4  F: -4291.970361351124666  |grad|_K:  3.458e-05  alpha:  7.376e-02
	FillingsUpdate:  mu: +0.150980935  nElectrons: 778.000000  magneticMoment: [ Abs: 0.00149  Tot: +0.00010 ]
	SubspaceRotationAdjust: set factor to 0.211
ElecMinimize: Iter:   5  F: -4292.010567864625955  |grad|_K:  1.569e-05  alpha:  7.196e-02  linmin: -1.973e-05  t[s]:   4152.77
ElecMinimize: 	Predicted alpha/alphaT>3.000000, increasing alphaT to 2.158926e-01.
	FillingsUpdate:  mu: +0.151036140  nElectrons: 778.000000  magneticMoment: [ Abs: 0.00122  Tot: +0.00009 ]
	SubspaceRotationAdjust: set factor to 0.199
ElecMinimize: Iter:   6  F: -4292.052001155729158  |grad|_K:  1.038e-05  alpha:  3.602e-01  linmin:  1.254e-05  t[s]:   4361.80
	FillingsUpdate:  mu: +0.148261379  nElectrons: 778.000000  magneticMoment: [ Abs: 0.00108  Tot: +0.00010 ]
	SubspaceRotationAdjust: set factor to 0.148
ElecMinimize: Iter:   7  F: -4292.061567887135425  |grad|_K:  1.248e-05  alpha:  1.903e-01  linmin: -5.610e-07  t[s]:   4528.93
	FillingsUpdate:  mu: +0.142185824  nElectrons: 778.000000  magneticMoment: [ Abs: 0.00082  Tot: +0.00010 ]
	SubspaceRotationAdjust: set factor to 0.13
ElecMinimize: Iter:   8  F: -4292.077156468375506  |grad|_K:  6.960e-06  alpha:  2.142e-01  linmin: -3.139e-06  t[s]:   4695.44
	FillingsUpdate:  mu: +0.150245709  nElectrons: 778.000000  magneticMoment: [ Abs: 0.00072  Tot: +0.00010 ]
	SubspaceRotationAdjust: set factor to 0.1
ElecMinimize: Iter:   9  F: -4292.082002531933540  |grad|_K:  5.591e-06  alpha:  2.140e-01  linmin: -5.085e-06  t[s]:   4862.52
	FillingsUpdate:  mu: +0.151247948  nElectrons: 778.000000  magneticMoment: [ Abs: 0.00067  Tot: +0.00009 ]
	SubspaceRotationAdjust: set factor to 0.0713
ElecMinimize: Iter:  10  F: -4292.083783677964675  |grad|_K:  3.727e-06  alpha:  1.221e-01  linmin:  2.847e-06  t[s]:   5029.44
	FillingsUpdate:  mu: +0.146890722  nElectrons: 778.000000  magneticMoment: [ Abs: 0.00060  Tot: +0.00009 ]
	SubspaceRotationAdjust: set factor to 0.0812
ElecMinimize: Iter:  11  F: -4292.085628176841055  |grad|_K:  2.692e-06  alpha:  2.845e-01  linmin:  2.171e-06  t[s]:   5196.70
	FillingsUpdate:  mu: +0.145439115  nElectrons: 778.000000  magneticMoment: [ Abs: 0.00054  Tot: +0.00009 ]
	SubspaceRotationAdjust: set factor to 0.0748
ElecMinimize: Iter:  12  F: -4292.086754608152660  |grad|_K:  2.633e-06  alpha:  3.329e-01  linmin: -7.781e-07  t[s]:   5363.65
	FillingsUpdate:  mu: +0.146729461  nElectrons: 778.000000  magneticMoment: [ Abs: 0.00050  Tot: +0.00009 ]
	SubspaceRotationAdjust: set factor to 0.068
ElecMinimize: Iter:  13  F: -4292.087540400100806  |grad|_K:  2.164e-06  alpha:  2.428e-01  linmin: -4.610e-07  t[s]:   5531.11
	FillingsUpdate:  mu: +0.147858268  nElectrons: 778.000000  magneticMoment: [ Abs: 0.00047  Tot: +0.00009 ]
	SubspaceRotationAdjust: set factor to 0.0614
ElecMinimize: Iter:  14  F: -4292.088092831750146  |grad|_K:  1.504e-06  alpha:  2.525e-01  linmin: -7.236e-07  t[s]:   5698.20
	FillingsUpdate:  mu: +0.146542403  nElectrons: 778.000000  magneticMoment: [ Abs: 0.00044  Tot: +0.00009 ]
	SubspaceRotationAdjust: set factor to 0.072
ElecMinimize: Iter:  15  F: -4292.088474100350140  |grad|_K:  1.312e-06  alpha:  3.610e-01  linmin:  7.414e-07  t[s]:   5864.81
	FillingsUpdate:  mu: +0.145574695  nElectrons: 778.000000  magneticMoment: [ Abs: 0.00042  Tot: +0.00009 ]
	SubspaceRotationAdjust: set factor to 0.0616
ElecMinimize: Iter:  16  F: -4292.088734813218252  |grad|_K:  1.403e-06  alpha:  3.241e-01  linmin: -7.904e-08  t[s]:   6031.92
	FillingsUpdate:  mu: +0.145499036  nElectrons: 778.000000  magneticMoment: [ Abs: 0.00039  Tot: +0.00008 ]
	SubspaceRotationAdjust: set factor to 0.0672
ElecMinimize: Iter:  17  F: -4292.089033584326899  |grad|_K:  9.924e-07  alpha:  3.249e-01  linmin:  1.953e-07  t[s]:   6199.12
	FillingsUpdate:  mu: +0.146227567  nElectrons: 778.000000  magneticMoment: [ Abs: 0.00037  Tot: +0.00008 ]
	SubspaceRotationAdjust: set factor to 0.0712
ElecMinimize: Iter:  18  F: -4292.089230948286968  |grad|_K:  9.086e-07  alpha:  4.291e-01  linmin: -1.713e-07  t[s]:   6366.06
	FillingsUpdate:  mu: +0.145797179  nElectrons: 778.000000  magneticMoment: [ Abs: 0.00035  Tot: +0.00008 ]
	SubspaceRotationAdjust: set factor to 0.0609
ElecMinimize: Iter:  19  F: -4292.089344409914702  |grad|_K:  8.727e-07  alpha:  2.943e-01  linmin: -2.464e-08  t[s]:   6533.23
	FillingsUpdate:  mu: +0.144744093  nElectrons: 778.000000  magneticMoment: [ Abs: 0.00032  Tot: +0.00008 ]
	SubspaceRotationAdjust: set factor to 0.0554
ElecMinimize: Iter:  20  F: -4292.089471136019711  |grad|_K:  7.815e-07  alpha:  3.562e-01  linmin: -2.844e-07  t[s]:   6700.05
	FillingsUpdate:  mu: +0.144677196  nElectrons: 778.000000  magneticMoment: [ Abs: 0.00029  Tot: +0.00007 ]
	SubspaceRotationAdjust: set factor to 0.0557
ElecMinimize: Iter:  21  F: -4292.089575119547590  |grad|_K:  5.996e-07  alpha:  3.644e-01  linmin: -2.112e-07  t[s]:   6866.75
	FillingsUpdate:  mu: +0.145080978  nElectrons: 778.000000  magneticMoment: [ Abs: 0.00027  Tot: +0.00007 ]
	SubspaceRotationAdjust: set factor to 0.0542
ElecMinimize: Iter:  22  F: -4292.089637385535752  |grad|_K:  5.029e-07  alpha:  3.707e-01  linmin: -3.092e-07  t[s]:   7033.73
	FillingsUpdate:  mu: +0.144946182  nElectrons: 778.000000  magneticMoment: [ Abs: 0.00025  Tot: +0.00007 ]
	SubspaceRotationAdjust: set factor to 0.0462
ElecMinimize: Iter:  23  F: -4292.089674166302757  |grad|_K:  4.323e-07  alpha:  3.112e-01  linmin: -1.990e-07  t[s]:   7200.35
	FillingsUpdate:  mu: +0.144475345  nElectrons: 778.000000  magneticMoment: [ Abs: 0.00023  Tot: +0.00007 ]
	SubspaceRotationAdjust: set factor to 0.0522
ElecMinimize: Iter:  24  F: -4292.089710816558181  |grad|_K:  3.371e-07  alpha:  4.197e-01  linmin: -1.732e-07  t[s]:   7368.13
	FillingsUpdate:  mu: +0.144598968  nElectrons: 778.000000  magneticMoment: [ Abs: 0.00022  Tot: +0.00007 ]
	SubspaceRotationAdjust: set factor to 0.0527
ElecMinimize: Iter:  25  F: -4292.089731528931225  |grad|_K:  2.897e-07  alpha:  3.900e-01  linmin: -1.725e-07  t[s]:   7535.16
	FillingsUpdate:  mu: +0.144764427  nElectrons: 778.000000  magneticMoment: [ Abs: 0.00020  Tot: +0.00007 ]
	SubspaceRotationAdjust: set factor to 0.0474
ElecMinimize: Iter:  26  F: -4292.089744101732322  |grad|_K:  2.345e-07  alpha:  3.206e-01  linmin: -1.136e-07  t[s]:   7701.48
	FillingsUpdate:  mu: +0.144715042  nElectrons: 778.000000  magneticMoment: [ Abs: 0.00019  Tot: +0.00006 ]
	SubspaceRotationAdjust: set factor to 0.0537
ElecMinimize: Iter:  27  F: -4292.089755196570877  |grad|_K:  2.069e-07  alpha:  4.317e-01  linmin: -8.909e-08  t[s]:   7868.65
	FillingsUpdate:  mu: +0.144628177  nElectrons: 778.000000  magneticMoment: [ Abs: 0.00018  Tot: +0.00006 ]
	SubspaceRotationAdjust: set factor to 0.0555
ElecMinimize: Iter:  28  F: -4292.089764276116512  |grad|_K:  1.907e-07  alpha:  4.540e-01  linmin: -7.410e-08  t[s]:   8035.41
	FillingsUpdate:  mu: +0.144698515  nElectrons: 778.000000  magneticMoment: [ Abs: 0.00017  Tot: +0.00006 ]
	SubspaceRotationAdjust: set factor to 0.0532
ElecMinimize: Iter:  29  F: -4292.089770463505374  |grad|_K:  1.773e-07  alpha:  3.640e-01  linmin:  3.520e-08  t[s]:   8202.14
	FillingsUpdate:  mu: +0.144810980  nElectrons: 778.000000  magneticMoment: [ Abs: 0.00016  Tot: +0.00006 ]
	SubspaceRotationAdjust: set factor to 0.051
ElecMinimize: Iter:  30  F: -4292.089776437557703  |grad|_K:  1.653e-07  alpha:  4.068e-01  linmin:  3.378e-08  t[s]:   8369.44
	FillingsUpdate:  mu: +0.144823506  nElectrons: 778.000000  magneticMoment: [ Abs: 0.00015  Tot: +0.00006 ]
	SubspaceRotationAdjust: set factor to 0.0553
ElecMinimize: Iter:  31  F: -4292.089782466164252  |grad|_K:  1.520e-07  alpha:  4.726e-01  linmin:  1.620e-07  t[s]:   8537.00
	FillingsUpdate:  mu: +0.144846622  nElectrons: 778.000000  magneticMoment: [ Abs: 0.00013  Tot: +0.00006 ]
	SubspaceRotationAdjust: set factor to 0.054
ElecMinimize: Iter:  32  F: -4292.089787213121781  |grad|_K:  1.435e-07  alpha:  4.401e-01  linmin:  1.837e-07  t[s]:   8703.77
	FillingsUpdate:  mu: +0.144902717  nElectrons: 778.000000  magneticMoment: [ Abs: 0.00012  Tot: +0.00006 ]
	SubspaceRotationAdjust: set factor to 0.0445
ElecMinimize: Iter:  33  F: -4292.089790258530229  |grad|_K:  1.184e-07  alpha:  3.168e-01  linmin: -5.796e-09  t[s]:   8871.18
	FillingsUpdate:  mu: +0.144954340  nElectrons: 778.000000  magneticMoment: [ Abs: 0.00011  Tot: +0.00005 ]
	SubspaceRotationAdjust: set factor to 0.0496
ElecMinimize: Iter:  34  F: -4292.089793147482851  |grad|_K:  9.507e-08  alpha:  4.416e-01  linmin:  1.704e-07  t[s]:   9038.08
	FillingsUpdate:  mu: +0.144949133  nElectrons: 778.000000  magneticMoment: [ Abs: 0.00011  Tot: +0.00005 ]
	SubspaceRotationAdjust: set factor to 0.0475
ElecMinimize: Iter:  35  F: -4292.089794952884404  |grad|_K:  8.014e-08  alpha:  4.280e-01  linmin:  2.587e-07  t[s]:   9205.10
	FillingsUpdate:  mu: +0.144958774  nElectrons: 778.000000  magneticMoment: [ Abs: 0.00010  Tot: +0.00005 ]
	SubspaceRotationAdjust: set factor to 0.0412
ElecMinimize: Iter:  36  F: -4292.089795937178678  |grad|_K:  5.928e-08  alpha:  3.281e-01  linmin:  3.184e-07  t[s]:   9372.44
	FillingsUpdate:  mu: +0.144982584  nElectrons: 778.000000  magneticMoment: [ Abs: 0.00010  Tot: +0.00005 ]
	SubspaceRotationAdjust: set factor to 0.0408
ElecMinimize: Iter:  37  F: -4292.089796565724100  |grad|_K:  4.573e-08  alpha:  3.830e-01  linmin:  6.902e-07  t[s]:   9539.59
	FillingsUpdate:  mu: +0.144990362  nElectrons: 778.000000  magneticMoment: [ Abs: 0.00010  Tot: +0.00005 ]
	SubspaceRotationAdjust: set factor to 0.043
ElecMinimize: Iter:  38  F: -4292.089796964818561  |grad|_K:  3.505e-08  alpha:  4.089e-01  linmin: -3.609e-09  t[s]:   9706.75
	FillingsUpdate:  mu: +0.144992335  nElectrons: 778.000000  magneticMoment: [ Abs: 0.00009  Tot: +0.00005 ]
	SubspaceRotationAdjust: set factor to 0.0423
ElecMinimize: Iter:  39  F: -4292.089797188346893  |grad|_K:  2.779e-08  alpha:  3.889e-01  linmin: -1.863e-06  t[s]:   9874.96
	FillingsUpdate:  mu: +0.144997997  nElectrons: 778.000000  magneticMoment: [ Abs: 0.00009  Tot: +0.00005 ]
	SubspaceRotationAdjust: set factor to 0.0418
ElecMinimize: Iter:  40  F: -4292.089797320314574  |grad|_K:  2.175e-08  alpha:  3.647e-01  linmin: -2.162e-06  t[s]:  10042.20
	FillingsUpdate:  mu: +0.145001886  nElectrons: 778.000000  magneticMoment: [ Abs: 0.00009  Tot: +0.00005 ]
	SubspaceRotationAdjust: set factor to 0.0499
ElecMinimize: Iter:  41  F: -4292.089797427373924  |grad|_K:  1.870e-08  alpha:  4.817e-01  linmin:  2.457e-06  t[s]:  10209.78
	FillingsUpdate:  mu: +0.145000180  nElectrons: 778.000000  magneticMoment: [ Abs: 0.00009  Tot: +0.00005 ]
	SubspaceRotationAdjust: set factor to 0.0495
ElecMinimize: Iter:  42  F: -4292.089797496068968  |grad|_K:  1.774e-08  alpha:  4.238e-01  linmin: -4.513e-06  t[s]:  10377.33
	FillingsUpdate:  mu: +0.145001662  nElectrons: 778.000000  magneticMoment: [ Abs: 0.00008  Tot: +0.00005 ]
	SubspaceRotationAdjust: set factor to 0.0493
ElecMinimize: Iter:  43  F: -4292.089797555806399  |grad|_K:  1.562e-08  alpha:  4.031e-01  linmin: -7.792e-08  t[s]:  10544.51
ElecMinimize: Converged (|Delta F|<1.000000e-07 for 2 iters).
Setting wave functions to eigenvectors of Hamiltonian
Converging empty states (this may take a while): |deigs|: 3.036e-03
Vacuum energy after initial minimize, F = -4292.089797555806399


-------- Electronic minimization -----------
	Linear fluid (dielectric constant: 78.4, screening length: 8.12261 Bohr) occupying 0.501949 of unit cell:	Completed after 27 iterations at t[s]:  11497.04
	FillingsUpdate:  mu: -0.198486112  nElectrons: 778.000000  magneticMoment: [ Abs: 0.00006  Tot: +0.00004 ]
ElecMinimize: Iter:   0  F: -4292.101899819473147  |grad|_K:  7.484e-07  alpha:  1.000e+00
	Linear fluid (dielectric constant: 78.4, screening length: 8.12261 Bohr) occupying 0.502589 of unit cell:	Completed after 17 iterations at t[s]:  11641.31
	Linear fluid (dielectric constant: 78.4, screening length: 8.12261 Bohr) occupying 0.502478 of unit cell:	Completed after 11 iterations at t[s]:  11689.96
	FillingsUpdate:  mu: -0.196710971  nElectrons: 778.000000  magneticMoment: [ Abs: 0.00005  Tot: +0.00004 ]
	SubspaceRotationAdjust: set factor to 0.0465
ElecMinimize: Iter:   1  F: -4292.102116184290026  |grad|_K:  8.353e-07  alpha:  8.269e-01  linmin:  2.256e-07  t[s]:  11753.78
	Linear fluid (dielectric constant: 78.4, screening length: 8.12261 Bohr) occupying 0.503408 of unit cell:	Completed after 18 iterations at t[s]:  11823.07
	Linear fluid (dielectric constant: 78.4, screening length: 8.12261 Bohr) occupying 0.503028 of unit cell:	Completed after 15 iterations at t[s]:  11873.11
	FillingsUpdate:  mu: -0.196154510  nElectrons: 778.000000  magneticMoment: [ Abs: 0.00005  Tot: +0.00004 ]
	SubspaceRotationAdjust: set factor to 0.0445
ElecMinimize: Iter:   2  F: -4292.102274537337507  |grad|_K:  5.222e-07  alpha:  4.862e-01  linmin:  1.664e-07  t[s]:  11937.53
	Linear fluid (dielectric constant: 78.4, screening length: 8.12261 Bohr) occupying 0.503276 of unit cell:	Completed after 12 iterations at t[s]:  12005.06
	Linear fluid (dielectric constant: 78.4, screening length: 8.12261 Bohr) occupying 0.503310 of unit cell:	Completed after 3 iterations at t[s]:  12051.40
	FillingsUpdate:  mu: -0.196024921  nElectrons: 778.000000  magneticMoment: [ Abs: 0.00005  Tot: +0.00004 ]
	SubspaceRotationAdjust: set factor to 0.0506
ElecMinimize: Iter:   3  F: -4292.102345006506766  |grad|_K:  3.910e-07  alpha:  5.534e-01  linmin: -2.493e-07  t[s]:  12115.41
	Linear fluid (dielectric constant: 78.4, screening length: 8.12261 Bohr) occupying 0.503456 of unit cell:	Completed after 12 iterations at t[s]:  12183.03
	Linear fluid (dielectric constant: 78.4, screening length: 8.12261 Bohr) occupying 0.503473 of unit cell:	Completed after 3 iterations at t[s]:  12229.16
	FillingsUpdate:  mu: -0.195576212  nElectrons: 778.000000  magneticMoment: [ Abs: 0.00005  Tot: +0.00004 ]
	SubspaceRotationAdjust: set factor to 0.0561
ElecMinimize: Iter:   4  F: -4292.102389365836643  |grad|_K:  3.589e-07  alpha:  6.199e-01  linmin: -4.165e-07  t[s]:  12293.33
	Linear fluid (dielectric constant: 78.4, screening length: 8.12261 Bohr) occupying 0.503590 of unit cell:	Completed after 11 iterations at t[s]:  12360.44
	Linear fluid (dielectric constant: 78.4, screening length: 8.12261 Bohr) occupying 0.503601 of unit cell:	Completed after 3 iterations at t[s]:  12406.80
	FillingsUpdate:  mu: -0.195229161  nElectrons: 778.000000  magneticMoment: [ Abs: 0.00005  Tot: +0.00004 ]
	SubspaceRotationAdjust: set factor to 0.06
ElecMinimize: Iter:   5  F: -4292.102430091572387  |grad|_K:  3.552e-07  alpha:  6.741e-01  linmin: -2.771e-07  t[s]:  12470.97
	Linear fluid (dielectric constant: 78.4, screening length: 8.12261 Bohr) occupying 0.503708 of unit cell:	Completed after 11 iterations at t[s]:  12538.34
	Linear fluid (dielectric constant: 78.4, screening length: 8.12261 Bohr) occupying 0.503714 of unit cell:	Completed after 2 iterations at t[s]:  12584.38
	FillingsUpdate:  mu: -0.194989645  nElectrons: 778.000000  magneticMoment: [ Abs: 0.00005  Tot: +0.00004 ]
	SubspaceRotationAdjust: set factor to 0.061
ElecMinimize: Iter:   6  F: -4292.102472019667402  |grad|_K:  3.632e-07  alpha:  7.086e-01  linmin: -1.841e-07  t[s]:  12648.31
	Linear fluid (dielectric constant: 78.4, screening length: 8.12261 Bohr) occupying 0.503823 of unit cell:	Completed after 11 iterations at t[s]:  12715.54
	Linear fluid (dielectric constant: 78.4, screening length: 8.12261 Bohr) occupying 0.503811 of unit cell:	Completed after 3 iterations at t[s]:  12761.97
	FillingsUpdate:  mu: -0.194667748  nElectrons: 778.000000  magneticMoment: [ Abs: 0.00005  Tot: +0.00004 ]
	SubspaceRotationAdjust: set factor to 0.0591
ElecMinimize: Iter:   7  F: -4292.102510840314608  |grad|_K:  3.473e-07  alpha:  6.279e-01  linmin: -8.865e-09  t[s]:  12825.73
	Linear fluid (dielectric constant: 78.4, screening length: 8.12261 Bohr) occupying 0.503898 of unit cell:	Completed after 10 iterations at t[s]:  12892.61
	Linear fluid (dielectric constant: 78.4, screening length: 8.12261 Bohr) occupying 0.503895 of unit cell:	Completed after 1 iterations at t[s]:  12938.12
	FillingsUpdate:  mu: -0.194570091  nElectrons: 778.000000  magneticMoment: [ Abs: 0.00004  Tot: +0.00004 ]
	SubspaceRotationAdjust: set factor to 0.0526
ElecMinimize: Iter:   8  F: -4292.102545230040960  |grad|_K:  3.134e-07  alpha:  6.104e-01  linmin:  5.355e-08  t[s]:  13002.20
	Linear fluid (dielectric constant: 78.4, screening length: 8.12261 Bohr) occupying 0.503966 of unit cell:	Completed after 11 iterations at t[s]:  13069.27
	Linear fluid (dielectric constant: 78.4, screening length: 8.12261 Bohr) occupying 0.503953 of unit cell:	Completed after 3 iterations at t[s]:  13117.18
	FillingsUpdate:  mu: -0.194410420  nElectrons: 778.000000  magneticMoment: [ Abs: 0.00004  Tot: +0.00004 ]
	SubspaceRotationAdjust: set factor to 0.0442
ElecMinimize: Iter:   9  F: -4292.102567924086543  |grad|_K:  2.558e-07  alpha:  4.964e-01  linmin: -8.445e-08  t[s]:  13181.26
	Linear fluid (dielectric constant: 78.4, screening length: 8.12261 Bohr) occupying 0.503993 of unit cell:	Completed after 7 iterations at t[s]:  13247.48
	Linear fluid (dielectric constant: 78.4, screening length: 8.12261 Bohr) occupying 0.503995 of unit cell:	Completed after 0 iterations at t[s]:  13292.59
	FillingsUpdate:  mu: -0.194337489  nElectrons: 778.000000  magneticMoment: [ Abs: 0.00004  Tot: +0.00004 ]
	SubspaceRotationAdjust: set factor to 0.0425
ElecMinimize: Iter:  10  F: -4292.102583728161335  |grad|_K:  1.837e-07  alpha:  5.156e-01  linmin: -5.411e-07  t[s]:  13356.85
	Linear fluid (dielectric constant: 78.4, screening length: 8.12261 Bohr) occupying 0.504017 of unit cell:	Completed after 7 iterations at t[s]:  13423.48
	Linear fluid (dielectric constant: 78.4, screening length: 8.12261 Bohr) occupying 0.504020 of unit cell:	Completed after 0 iterations at t[s]:  13468.66
	FillingsUpdate:  mu: -0.194211258  nElectrons: 778.000000  magneticMoment: [ Abs: 0.00004  Tot: +0.00004 ]
	SubspaceRotationAdjust: set factor to 0.0471
ElecMinimize: Iter:  11  F: -4292.102592823436680  |grad|_K:  1.317e-07  alpha:  5.701e-01  linmin: -4.141e-07  t[s]:  13532.57
	Linear fluid (dielectric constant: 78.4, screening length: 8.12261 Bohr) occupying 0.504033 of unit cell:	Completed after 2 iterations at t[s]:  13597.22
	Linear fluid (dielectric constant: 78.4, screening length: 8.12261 Bohr) occupying 0.504033 of unit cell:	Completed after 0 iterations at t[s]:  13642.30
	FillingsUpdate:  mu: -0.194197438  nElectrons: 778.000000  magneticMoment: [ Abs: 0.00004  Tot: +0.00004 ]
	SubspaceRotationAdjust: set factor to 0.0519
ElecMinimize: Iter:  12  F: -4292.102597452572809  |grad|_K:  9.934e-08  alpha:  5.676e-01  linmin: -2.181e-07  t[s]:  13706.17
	Linear fluid (dielectric constant: 78.4, screening length: 8.12261 Bohr) occupying 0.504042 of unit cell:	Completed after 3 iterations at t[s]:  13771.13
	Linear fluid (dielectric constant: 78.4, screening length: 8.12261 Bohr) occupying 0.504041 of unit cell:	Completed after 0 iterations at t[s]:  13816.32
	FillingsUpdate:  mu: -0.194197557  nElectrons: 778.000000  magneticMoment: [ Abs: 0.00004  Tot: +0.00004 ]
	SubspaceRotationAdjust: set factor to 0.055
ElecMinimize: Iter:  13  F: -4292.102600014136442  |grad|_K:  8.105e-08  alpha:  5.539e-01  linmin:  3.848e-07  t[s]:  13880.21
	Linear fluid (dielectric constant: 78.4, screening length: 8.12261 Bohr) occupying 0.504047 of unit cell:	Completed after 3 iterations at t[s]:  13945.17
	Linear fluid (dielectric constant: 78.4, screening length: 8.12261 Bohr) occupying 0.504047 of unit cell:	Completed after 0 iterations at t[s]:  13990.14
	FillingsUpdate:  mu: -0.194185285  nElectrons: 778.000000  magneticMoment: [ Abs: 0.00004  Tot: +0.00003 ]
	SubspaceRotationAdjust: set factor to 0.0573
ElecMinimize: Iter:  14  F: -4292.102601626713295  |grad|_K:  6.934e-08  alpha:  5.280e-01  linmin:  4.483e-07  t[s]:  14053.94
	Linear fluid (dielectric constant: 78.4, screening length: 8.12261 Bohr) occupying 0.504052 of unit cell:	Completed after 2 iterations at t[s]:  14118.42
	Linear fluid (dielectric constant: 78.4, screening length: 8.12261 Bohr) occupying 0.504052 of unit cell:	Completed after 0 iterations at t[s]:  14163.52
	FillingsUpdate:  mu: -0.194195243  nElectrons: 778.000000  magneticMoment: [ Abs: 0.00004  Tot: +0.00003 ]
	SubspaceRotationAdjust: set factor to 0.0646
ElecMinimize: Iter:  15  F: -4292.102602832773300  |grad|_K:  5.724e-08  alpha:  5.404e-01  linmin: -7.069e-07  t[s]:  14227.48
	Linear fluid (dielectric constant: 78.4, screening length: 8.12261 Bohr) occupying 0.504055 of unit cell:	Completed after 2 iterations at t[s]:  14292.31
	Linear fluid (dielectric constant: 78.4, screening length: 8.12261 Bohr) occupying 0.504056 of unit cell:	Completed after 0 iterations at t[s]:  14337.35
	FillingsUpdate:  mu: -0.194213131  nElectrons: 778.000000  magneticMoment: [ Abs: 0.00004  Tot: +0.00003 ]
	SubspaceRotationAdjust: set factor to 0.0768
ElecMinimize: Iter:  16  F: -4292.102603884870405  |grad|_K:  5.047e-08  alpha:  6.776e-01  linmin: -1.022e-06  t[s]:  14401.30
	Linear fluid (dielectric constant: 78.4, screening length: 8.12261 Bohr) occupying 0.504060 of unit cell:	Completed after 2 iterations at t[s]:  14465.84
	Linear fluid (dielectric constant: 78.4, screening length: 8.12261 Bohr) occupying 0.504060 of unit cell:	Completed after 0 iterations at t[s]:  14510.84
	FillingsUpdate:  mu: -0.194236080  nElectrons: 778.000000  magneticMoment: [ Abs: 0.00004  Tot: +0.00003 ]
	SubspaceRotationAdjust: set factor to 0.0856
ElecMinimize: Iter:  17  F: -4292.102604684563630  |grad|_K:  4.975e-08  alpha:  6.610e-01  linmin: -9.349e-07  t[s]:  14574.73
	Linear fluid (dielectric constant: 78.4, screening length: 8.12261 Bohr) occupying 0.504063 of unit cell:	Completed after 3 iterations at t[s]:  14639.59
	Linear fluid (dielectric constant: 78.4, screening length: 8.12261 Bohr) occupying 0.504062 of unit cell:	Completed after 1 iterations at t[s]:  14685.54
	FillingsUpdate:  mu: -0.194254132  nElectrons: 778.000000  magneticMoment: [ Abs: 0.00004  Tot: +0.00003 ]
	SubspaceRotationAdjust: set factor to 0.0778
ElecMinimize: Iter:  18  F: -4292.102605218728968  |grad|_K:  5.250e-08  alpha:  4.538e-01  linmin:  8.219e-07  t[s]:  14749.10
	Linear fluid (dielectric constant: 78.4, screening length: 8.12261 Bohr) occupying 0.504065 of unit cell:	Completed after 2 iterations at t[s]:  14813.62
	Linear fluid (dielectric constant: 78.4, screening length: 8.12261 Bohr) occupying 0.504064 of unit cell:	Completed after 2 iterations at t[s]:  14859.58
	FillingsUpdate:  mu: -0.194267498  nElectrons: 778.000000  magneticMoment: [ Abs: 0.00004  Tot: +0.00003 ]
	SubspaceRotationAdjust: set factor to 0.0679
ElecMinimize: Iter:  19  F: -4292.102605676624989  |grad|_K:  4.105e-08  alpha:  3.663e-01  linmin:  3.330e-07  t[s]:  14923.70
	Linear fluid (dielectric constant: 78.4, screening length: 8.12261 Bohr) occupying 0.504066 of unit cell:	Completed after 2 iterations at t[s]:  14988.24
	Linear fluid (dielectric constant: 78.4, screening length: 8.12261 Bohr) occupying 0.504067 of unit cell:	Completed after 0 iterations at t[s]:  15033.31
	FillingsUpdate:  mu: -0.194277415  nElectrons: 778.000000  magneticMoment: [ Abs: 0.00003  Tot: +0.00003 ]
	SubspaceRotationAdjust: set factor to 0.0808
ElecMinimize: Iter:  20  F: -4292.102606100867888  |grad|_K:  3.172e-08  alpha:  5.307e-01  linmin: -2.526e-06  t[s]:  15097.18
	Linear fluid (dielectric constant: 78.4, screening length: 8.12261 Bohr) occupying 0.504068 of unit cell:	Completed after 2 iterations at t[s]:  15161.93
	Linear fluid (dielectric constant: 78.4, screening length: 8.12261 Bohr) occupying 0.504068 of unit cell:	Completed after 0 iterations at t[s]:  15207.06
	FillingsUpdate:  mu: -0.194299906  nElectrons: 778.000000  magneticMoment: [ Abs: 0.00003  Tot: +0.00003 ]
	SubspaceRotationAdjust: set factor to 0.0793
ElecMinimize: Iter:  21  F: -4292.102606316731908  |grad|_K:  3.547e-08  alpha:  4.461e-01  linmin: -1.693e-06  t[s]:  15271.90
	Linear fluid (dielectric constant: 78.4, screening length: 8.12261 Bohr) occupying 0.504070 of unit cell:	Completed after 3 iterations at t[s]:  15336.64
	Linear fluid (dielectric constant: 78.4, screening length: 8.12261 Bohr) occupying 0.504069 of unit cell:	Completed after 1 iterations at t[s]:  15382.25
	FillingsUpdate:  mu: -0.194307165  nElectrons: 778.000000  magneticMoment: [ Abs: 0.00003  Tot: +0.00003 ]
	SubspaceRotationAdjust: set factor to 0.0637
ElecMinimize: Iter:  22  F: -4292.102606452949658  |grad|_K:  2.552e-08  alpha:  2.339e-01  linmin:  1.715e-06  t[s]:  15446.35
	Linear fluid (dielectric constant: 78.4, screening length: 8.12261 Bohr) occupying 0.504070 of unit cell:	Completed after 0 iterations at t[s]:  15510.33
	Linear fluid (dielectric constant: 78.4, screening length: 8.12261 Bohr) occupying 0.504070 of unit cell:	Completed after 0 iterations at t[s]:  15556.58
	FillingsUpdate:  mu: -0.194307005  nElectrons: 778.000000  magneticMoment: [ Abs: 0.00003  Tot: +0.00003 ]
	SubspaceRotationAdjust: set factor to 0.0857
ElecMinimize: Iter:  23  F: -4292.102606575205755  |grad|_K:  1.972e-08  alpha:  3.955e-01  linmin: -4.995e-06  t[s]:  15620.58
	Linear fluid (dielectric constant: 78.4, screening length: 8.12261 Bohr) occupying 0.504071 of unit cell:	Completed after 2 iterations at t[s]:  15685.19
	Linear fluid (dielectric constant: 78.4, screening length: 8.12261 Bohr) occupying 0.504071 of unit cell:	Completed after 0 iterations at t[s]:  15730.43
	FillingsUpdate:  mu: -0.194296573  nElectrons: 778.000000  magneticMoment: [ Abs: 0.00003  Tot: +0.00003 ]
	SubspaceRotationAdjust: set factor to 0.0729
ElecMinimize: Iter:  24  F: -4292.102606619627295  |grad|_K:  2.400e-08  alpha:  2.423e-01  linmin:  1.118e-05  t[s]:  15794.20
	Linear fluid (dielectric constant: 78.4, screening length: 8.12261 Bohr) occupying 0.504072 of unit cell:	Completed after 2 iterations at t[s]:  15858.86
	Linear fluid (dielectric constant: 78.4, screening length: 8.12261 Bohr) occupying 0.504072 of unit cell:	Completed after 0 iterations at t[s]:  15904.15
	FillingsUpdate:  mu: -0.194302074  nElectrons: 778.000000  magneticMoment: [ Abs: 0.00003  Tot: +0.00003 ]
	SubspaceRotationAdjust: set factor to 0.0889
ElecMinimize: Iter:  25  F: -4292.102606651974384  |grad|_K:  1.295e-08  alpha:  1.650e-01  linmin: -5.463e-06  t[s]:  15968.44
ElecMinimize: Converged (|Delta F|<1.000000e-07 for 2 iters).
Setting wave functions to eigenvectors of Hamiltonian
Converging empty states (this may take a while): |deigs|: 6.251e-05
Single-point solvation energy estimate, DeltaF = -0.012809096167985

Computing DFT-D3 correction:
# coordination-number Pt 5.929 5.972 5.929 6.555 7.145 7.145 7.145 7.145 9.433 9.433 9.433 9.433 9.344 9.344 9.344 9.344 9.309 9.308 9.309 9.308 7.841 7.662 8.674 7.662 7.666 7.666 7.666 7.666 9.310 9.310 9.310 9.310 9.343 9.342 9.343 9.342 9.434 9.441 9.434 9.436 7.443 7.149 7.172 7.149 5.929 5.929 5.929 5.929
# coordination-number C 3.115
# coordination-number O 1.089
# diagonal-C6 Pt 336.87 336.87 336.87 336.87 336.87 336.87 336.87 336.87 336.87 336.87 336.87 336.87 336.87 336.87 336.87 336.87 336.87 336.87 336.87 336.87 336.87 336.87 336.87 336.87 336.87 336.87 336.87 336.87 336.87 336.87 336.87 336.87 336.87 336.87 336.87 336.87 336.87 336.87 336.87 336.87 336.87 336.87 336.87 336.87 336.87 336.87 336.87 336.87
# diagonal-C6 C 25.39
# diagonal-C6 O 12.74
EvdW_6 =   -0.380693
EvdW_8 =   -0.632863

# Ionic positions in cartesian coordinates:
ion Pt   0.000220000000000   0.307628000000000  17.100908000000000 0
ion Pt   0.000220000000000  13.123347000000001  17.100908000000000 0
ion Pt   5.232205000000001   0.307628000000000  17.100908000000000 0
ion Pt   5.232205000000001  13.123347000000001  17.100908000000000 0
ion Pt  10.463699000000000   4.022239000000000   2.178053000000000 0
ion Pt  10.463699000000000  16.837956999999999   2.178053000000000 0
ion Pt   5.231692000000000   4.022239000000000   2.178053000000000 0
ion Pt   5.231692000000000  16.837956999999999   2.178053000000000 0
ion Pt  10.463981000000000   8.528655000000001   5.417403000000000 0
ion Pt  10.463981000000000  21.344373999999998   5.417403000000000 0
ion Pt   5.231975000000000   8.528655000000001   5.417403000000000 0
ion Pt   5.231975000000000  21.344373999999998   5.417403000000000 0
ion Pt  10.463844999999999  25.622132000000001   8.238791000000001 0
ion Pt  10.463844999999999  12.806414000000000   8.238791000000001 0
ion Pt   5.231849000000001  25.622132000000001   8.238791000000001 0
ion Pt   5.231849000000001  12.806414000000000   8.238791000000001 0
ion Pt   0.000157000000000   4.349296000000000  11.332694000000000 0
ion Pt   0.000157000000000  17.165013999999999  11.332694000000000 0
ion Pt   5.232153000000001   4.349296000000000  11.332694000000000 0
ion Pt   5.232153000000001  17.165013999999999  11.332694000000000 0
ion Pt   0.000303000000000   8.653275000000001  14.682311000000000 0
ion Pt   0.000303000000000  21.469018999999999  14.682311000000000 0
ion Pt   5.232310000000000   8.653275000000001  14.682311000000000 0
ion Pt   5.232310000000000  21.469018999999999  14.682311000000000 0
ion Pt   2.615715000000000  25.523040999999999   3.443627000000001 0
ion Pt   2.615715000000000  12.707296999999999   3.443627000000001 0
ion Pt   7.847711000000000  25.523040999999999   3.443627000000001 0
ion Pt   7.847711000000000  12.707296999999999   3.443627000000001 0
ion Pt   2.615810000000000   4.193175000000000   6.787100000000000 0
ion Pt   2.615810000000000  17.008893000000000   6.787100000000000 0
ion Pt   7.847806000000000   4.193175000000000   6.787100000000000 0
ion Pt   7.847806000000000  17.008893000000000   6.787100000000000 0
ion Pt   2.616155000000000   8.553081999999998   9.886386000000000 0
ion Pt   2.616155000000000  21.368799999999997   9.886386000000000 0
ion Pt   7.848151000000000   8.553081999999998   9.886386000000000 0
ion Pt   7.848151000000000  21.368799999999997   9.886386000000000 0
ion Pt   2.615998000000000   0.014841000000000  12.709460000000000 0
ion Pt   2.615998000000000  12.830558999999997  12.709460000000000 0
ion Pt   7.847994000000001   0.014841000000000  12.709460000000000 0
ion Pt   7.847994000000001  12.830558999999997  12.709460000000000 0
ion Pt   2.616322000000000   4.520642000000000  15.941687000000002 0
ion Pt   2.616322000000000  17.336386000000001  15.941687000000002 0
ion Pt   7.848318000000000   4.520642000000000  15.941687000000002 0
ion Pt   7.848318000000000  17.336386000000001  15.941687000000002 0
ion Pt   2.615768000000000   8.237738999999999   1.026553000000000 0
ion Pt   2.615768000000000  21.053457000000002   1.026553000000000 0
ion Pt   7.847764000000001   8.237738999999999   1.026553000000000 0
ion Pt   7.847764000000001  21.053457000000002   1.026553000000000 0
ion C   3.924269000000000   8.821982000000000  18.125830000000001 1  Linear 0 0 1
ion O   3.984353000000000   8.821982000000000  20.281210000000002 1  Linear 0 0 1

# Forces in Cartesian coordinates:
force Pt  -0.000064631248365   0.001589206082070  -0.001609820595532 0
force Pt  -0.002844524130784   0.004069460812100  -0.000471167877316 0
force Pt   0.000350886149435   0.000046456582493  -0.000082298271124 0
force Pt   0.000383489220416   0.013770001221919   0.001600921232254 0
force Pt   0.000336398333629   0.000636559852770  -0.000133519279225 0
force Pt  -0.000063451190941   0.000419172093523   0.000078410722892 0
force Pt  -0.000290312305745   0.000352184153956  -0.000554088391382 0
force Pt   0.000050191539705   0.000370595696771  -0.000088979651297 0
force Pt   0.000179943427950   0.001703097529857  -0.001492462195718 0
force Pt   0.000166433013102   0.000855763170566  -0.000394541140903 0
force Pt  -0.000378751494933   0.000576196574711  -0.000088184060597 0
force Pt  -0.000170714274101   0.000497652525917  -0.000157483023954 0
force Pt  -0.000143762077910   0.000757617617052  -0.000255891195633 0
force Pt   0.000050483950277   0.000602270868242  -0.001583398002929 0
force Pt   0.000141550107034   0.000591376529770  -0.000484268644551 0
force Pt  -0.000129527507295   0.001515657737115  -0.000370652446697 0
force Pt   0.000074120871861  -0.000161965678922  -0.000049325998717 0
force Pt  -0.000088673329655   0.000085345625936  -0.000850806255777 0
force Pt   0.000135885293779  -0.001883772750068  -0.002608063276882 0
force Pt  -0.000025655999616   0.000481112123010  -0.000270689139767 0
force Pt  -0.006004822162298   0.001085395185737  -0.002800458364054 0
force Pt   0.000400055644030   0.001392323700776  -0.000885471574820 0
force Pt   0.005096969980585  -0.005447965402673   0.001220208296380 0
force Pt   0.000088492102291  -0.000417811024197  -0.000359962042389 0
force Pt   0.000188747732855  -0.000376339401500   0.000801591007327 0
force Pt  -0.000223587588745  -0.000903361537896   0.000444777934423 0
force Pt  -0.000209321526058  -0.000514720103356   0.000683634082875 0
force Pt   0.000018804230158  -0.000575220842945   0.000393941045027 0
force Pt   0.000050117151574   0.000466617986944   0.000537953461472 0
force Pt  -0.000135900622638   0.000424404171309  -0.000038421756537 0
force Pt  -0.000056269866425   0.000110054555894  -0.000656217856972 0
force Pt  -0.000030204305294  -0.000033494199271   0.000499704244483 0
force Pt   0.000212627804724  -0.000582903613659  -0.001971144882961 0
force Pt   0.000134157777072  -0.000841332733628   0.000601507063682 0
force Pt  -0.003418071901806  -0.000271568924906   0.007680049988028 0
force Pt   0.000014776754031  -0.000793255525536   0.000643291776177 0
force Pt   0.000223965961130   0.000207921319488   0.000605151603117 0
force Pt  -0.002785794217227   0.003772464148382  -0.003898367012752 0
force Pt  -0.000098919721760  -0.000514829952062   0.000062209392721 0
force Pt   0.002614564026241   0.001935793288759  -0.003048524551361 0
force Pt  -0.004990253347718  -0.011120989839492   0.006420338454015 0
force Pt   0.000237947856557   0.000847114692875  -0.000113076499643 0
force Pt   0.005358656030564  -0.010086539894321   0.000474036372855 0
force Pt  -0.000086628014459  -0.000489191854898   0.000212402005983 0
force Pt   0.001372970938955  -0.000506497798714  -0.001102692390315 0
force Pt   0.000054022399647  -0.000268906324379   0.000149410659246 0
force Pt  -0.000850538700829  -0.000126854516211  -0.000435204398766 0
force Pt  -0.000055264545706  -0.000380486266880  -0.000080316313577 0
force C   0.011205186804579   0.009768777960814  -0.062840548347584 1  Linear 0 0 1
force O  -0.006014210877471  -0.012822891372346   0.066966608114198 1  Linear 0 0 1

# Energy components:
   A_diel =       -0.0136101679461608
   Eewald =    24447.8397673986582959
       EH =    28342.4529445637163008
     Eloc =   -57831.4624193530617049
      Enl =      -47.4172021026997399
     EvdW =       -1.0135564074309069
      Exc =    -1370.6306851711547097
 Exc_core =      786.8850512087785773
       KE =     1381.2655730680323813
-------------------------------------
     Etot =    -4292.0941369631100315
       TS =        0.0084696888645383
-------------------------------------
        F =    -4292.1026066519743836


Dumping 'jdft.fillings' ... done
[...]
# coordination-number C 3.110
# coordination-number O 1.081
# diagonal-C6 Pt 336.87 336.87 336.87 336.87 336.87 336.87 336.87 336.87 336.87 336.87 336.87 336.87 336.87 336.87 336.87 336.87 336.87 336.87 336.87 336.87 336.87 336.87 336.87 336.87 336.87 336.87 336.87 336.87 336.87 336.87 336.87 336.87 336.87 336.87 336.87 336.87 336.87 336.87 336.87 336.87 336.87 336.87 336.87 336.87 336.87 336.87 336.87 336.87
# diagonal-C6 C 25.41
# diagonal-C6 O 12.74
EvdW_6 =   -0.380677
EvdW_8 =   -0.632822
IonicMinimize: 	Wolfe criterion not satisfied: alpha: 1  (E-E0)/|gdotd0|: -0.752466  gdotd/gdotd0: 1.24608 (taking cubic step)

Computing DFT-D3 correction:
# coordination-number Pt 5.929 5.971 5.929 6.550 7.145 7.145 7.145 7.145 9.433 9.433 9.433 9.433 9.344 9.344 9.344 9.344 9.309 9.308 9.309 9.308 7.838 7.662 8.670 7.662 7.666 7.666 7.666 7.666 9.310 9.310 9.310 9.310 9.343 9.342 9.343 9.342 9.434 9.441 9.434 9.436 7.440 7.149 7.172 7.149 5.929 5.929 5.929 5.929
# coordination-number C 3.107
# coordination-number O 1.081
# diagonal-C6 Pt 336.87 336.87 336.87 336.87 336.87 336.87 336.87 336.87 336.87 336.87 336.87 336.87 336.87 336.87 336.87 336.87 336.87 336.87 336.87 336.87 336.87 336.87 336.87 336.87 336.87 336.87 336.87 336.87 336.87 336.87 336.87 336.87 336.87 336.87 336.87 336.87 336.87 336.87 336.87 336.87 336.87 336.87 336.87 336.87 336.87 336.87 336.87 336.87
# diagonal-C6 C 25.42
# diagonal-C6 O 12.74
EvdW_6 =   -0.380676
EvdW_8 =   -0.632819

-------- Electronic minimization -----------
	Linear fluid (dielectric constant: 78.4, screening length: 8.12261 Bohr) occupying 0.503807 of unit cell:	Completed after 9 iterations at t[s]:  40730.08
	FillingsUpdate:  mu: -0.194804424  nElectrons: 778.000000  magneticMoment: [ Abs: 0.00000  Tot: +0.00000 ]
ElecMinimize: Iter:   0  F: -4292.104623175832785  |grad|_K:  4.740e-07  alpha:  1.000e+00
	Linear fluid (dielectric constant: 78.4, screening length: 8.12261 Bohr) occupying 0.503809 of unit cell:	Completed after 15 iterations at t[s]:  40873.12
	Linear fluid (dielectric constant: 78.4, screening length: 8.12261 Bohr) occupying 0.503807 of unit cell:	Completed after 16 iterations at t[s]:  40922.81
	FillingsUpdate:  mu: -0.194839500  nElectrons: 778.000000  magneticMoment: [ Abs: 0.00000  Tot: +0.00000 ]
	SubspaceRotationAdjust: set factor to 0.0736
ElecMinimize: Iter:   1  F: -4292.104634048159824  |grad|_K:  8.709e-08  alpha:  1.049e-01  linmin:  9.722e-04  t[s]:  40986.75
	Linear fluid (dielectric constant: 78.4, screening length: 8.12261 Bohr) occupying 0.503807 of unit cell:	Completed after 2 iterations at t[s]:  41051.85
ElecMinimize: 	Predicted alpha/alphaT>3.000000, increasing alphaT to 3.145952e-01.
	Linear fluid (dielectric constant: 78.4, screening length: 8.12261 Bohr) occupying 0.503807 of unit cell:	Completed after 2 iterations at t[s]:  41097.67
	Linear fluid (dielectric constant: 78.4, screening length: 8.12261 Bohr) occupying 0.503807 of unit cell:	Completed after 0 iterations at t[s]:  41142.79
	FillingsUpdate:  mu: -0.194878382  nElectrons: 778.000000  magneticMoment: [ Abs: 0.00000  Tot: +0.00000 ]
	SubspaceRotationAdjust: set factor to 0.0702
ElecMinimize: Iter:   2  F: -4292.104635188988141  |grad|_K:  4.090e-08  alpha:  3.234e-01  linmin: -1.104e-03  t[s]:  41206.80
	Linear fluid (dielectric constant: 78.4, screening length: 8.12261 Bohr) occupying 0.503807 of unit cell:	Completed after 2 iterations at t[s]:  41271.51
	Linear fluid (dielectric constant: 78.4, screening length: 8.12261 Bohr) occupying 0.503807 of unit cell:	Completed after 0 iterations at t[s]:  41317.18
	FillingsUpdate:  mu: -0.194883404  nElectrons: 778.000000  magneticMoment: [ Abs: 0.00000  Tot: +0.00000 ]
	SubspaceRotationAdjust: set factor to 0.101
ElecMinimize: Iter:   3  F: -4292.104635510217122  |grad|_K:  2.289e-08  alpha:  3.997e-01  linmin: -3.640e-03  t[s]:  41381.06
	Linear fluid (dielectric constant: 78.4, screening length: 8.12261 Bohr) occupying 0.503806 of unit cell:	Completed after 2 iterations at t[s]:  41445.74
	Linear fluid (dielectric constant: 78.4, screening length: 8.12261 Bohr) occupying 0.503806 of unit cell:	Completed after 0 iterations at t[s]:  41491.09
	FillingsUpdate:  mu: -0.194879247  nElectrons: 778.000000  magneticMoment: [ Abs: 0.00000  Tot: +0.00000 ]
	SubspaceRotationAdjust: set factor to 0.0796
ElecMinimize: Iter:   4  F: -4292.104635654473896  |grad|_K:  2.447e-08  alpha:  5.180e-01  linmin: -7.253e-03  t[s]:  41555.09
	Linear fluid (dielectric constant: 78.4, screening length: 8.12261 Bohr) occupying 0.503805 of unit cell:	Completed after 2 iterations at t[s]:  41620.06
	Linear fluid (dielectric constant: 78.4, screening length: 8.12261 Bohr) occupying 0.503806 of unit cell:	Completed after 0 iterations at t[s]:  41665.04
	FillingsUpdate:  mu: -0.194890061  nElectrons: 778.000000  magneticMoment: [ Abs: 0.00000  Tot: +0.00000 ]
	SubspaceRotationAdjust: set factor to 0.0763
ElecMinimize: Iter:   5  F: -4292.104635797635638  |grad|_K:  2.952e-08  alpha:  3.989e-01  linmin:  2.067e-03  t[s]:  41728.66
	Linear fluid (dielectric constant: 78.4, screening length: 8.12261 Bohr) occupying 0.503804 of unit cell:	Completed after 1 iterations at t[s]:  41793.14
	Linear fluid (dielectric constant: 78.4, screening length: 8.12261 Bohr) occupying 0.503804 of unit cell:	Completed after 0 iterations at t[s]:  41838.59
	FillingsUpdate:  mu: -0.194903957  nElectrons: 778.000000  magneticMoment: [ Abs: 0.00000  Tot: +0.00000 ]
	SubspaceRotationAdjust: set factor to 0.0977
ElecMinimize: Iter:   6  F: -4292.104635960803535  |grad|_K:  2.980e-08  alpha:  4.969e-01  linmin: -4.405e-04  t[s]:  41902.16
	Linear fluid (dielectric constant: 78.4, screening length: 8.12261 Bohr) occupying 0.503802 of unit cell:	Completed after 2 iterations at t[s]:  41967.34
	Linear fluid (dielectric constant: 78.4, screening length: 8.12261 Bohr) occupying 0.503803 of unit cell:	Completed after 1 iterations at t[s]:  42013.12
	FillingsUpdate:  mu: -0.194934779  nElectrons: 778.000000  magneticMoment: [ Abs: 0.00000  Tot: +0.00000 ]
	SubspaceRotationAdjust: set factor to 0.0912
ElecMinimize: Iter:   7  F: -4292.104636101114920  |grad|_K:  3.097e-08  alpha:  3.406e-01  linmin:  1.044e-04  t[s]:  42077.07
	Linear fluid (dielectric constant: 78.4, screening length: 8.12261 Bohr) occupying 0.503802 of unit cell:	Completed after 2 iterations at t[s]:  42141.70
	Linear fluid (dielectric constant: 78.4, screening length: 8.12261 Bohr) occupying 0.503802 of unit cell:	Completed after 0 iterations at t[s]:  42186.58
	FillingsUpdate:  mu: -0.194921688  nElectrons: 778.000000  magneticMoment: [ Abs: 0.00000  Tot: +0.00000 ]
	SubspaceRotationAdjust: set factor to 0.0949
ElecMinimize: Iter:   8  F: -4292.104636234758800  |grad|_K:  2.539e-08  alpha:  3.027e-01  linmin:  6.638e-05  t[s]:  42250.50
	Linear fluid (dielectric constant: 78.4, screening length: 8.12261 Bohr) occupying 0.503801 of unit cell:	Completed after 2 iterations at t[s]:  42315.20
	Linear fluid (dielectric constant: 78.4, screening length: 8.12261 Bohr) occupying 0.503801 of unit cell:	Completed after 0 iterations at t[s]:  42360.24
	FillingsUpdate:  mu: -0.194917916  nElectrons: 778.000000  magneticMoment: [ Abs: 0.00000  Tot: +0.00000 ]
	SubspaceRotationAdjust: set factor to 0.093
ElecMinimize: Iter:   9  F: -4292.104636346580264  |grad|_K:  2.109e-08  alpha:  3.675e-01  linmin: -8.237e-04  t[s]:  42423.87
	Linear fluid (dielectric constant: 78.4, screening length: 8.12261 Bohr) occupying 0.503801 of unit cell:	Completed after 1 iterations at t[s]:  42488.37
	Linear fluid (dielectric constant: 78.4, screening length: 8.12261 Bohr) occupying 0.503801 of unit cell:	Completed after 0 iterations at t[s]:  42533.74
	FillingsUpdate:  mu: -0.194921549  nElectrons: 778.000000  magneticMoment: [ Abs: 0.00000  Tot: +0.00000 ]
	SubspaceRotationAdjust: set factor to 0.113
ElecMinimize: Iter:  10  F: -4292.104636437751651  |grad|_K:  1.789e-08  alpha:  4.010e-01  linmin: -8.863e-04  t[s]:  42597.36
	Linear fluid (dielectric constant: 78.4, screening length: 8.12261 Bohr) occupying 0.503802 of unit cell:	Completed after 2 iterations at t[s]:  42662.04
	Linear fluid (dielectric constant: 78.4, screening length: 8.12261 Bohr) occupying 0.503802 of unit cell:	Completed after 0 iterations at t[s]:  42707.30
	FillingsUpdate:  mu: -0.194926075  nElectrons: 778.000000  magneticMoment: [ Abs: 0.00000  Tot: +0.00000 ]
	SubspaceRotationAdjust: set factor to 0.095
ElecMinimize: Iter:  11  F: -4292.104636483673858  |grad|_K:  1.842e-08  alpha:  2.626e-01  linmin:  3.324e-03  t[s]:  42771.66
ElecMinimize: Converged (|Delta F|<1.000000e-07 for 2 iters).
Setting wave functions to eigenvectors of Hamiltonian
Converging empty states (this may take a while): |deigs|: 1.645e-09

Computing DFT-D3 correction:
# coordination-number Pt 5.929 5.971 5.929 6.550 7.145 7.145 7.145 7.145 9.433 9.433 9.433 9.433 9.344 9.344 9.344 9.344 9.309 9.308 9.309 9.308 7.838 7.662 8.670 7.662 7.666 7.666 7.666 7.666 9.310 9.310 9.310 9.310 9.343 9.342 9.343 9.342 9.434 9.441 9.434 9.436 7.440 7.149 7.172 7.149 5.929 5.929 5.929 5.929
# coordination-number C 3.107
# coordination-number O 1.081
# diagonal-C6 Pt 336.87 336.87 336.87 336.87 336.87 336.87 336.87 336.87 336.87 336.87 336.87 336.87 336.87 336.87 336.87 336.87 336.87 336.87 336.87 336.87 336.87 336.87 336.87 336.87 336.87 336.87 336.87 336.87 336.87 336.87 336.87 336.87 336.87 336.87 336.87 336.87 336.87 336.87 336.87 336.87 336.87 336.87 336.87 336.87 336.87 336.87 336.87 336.87
# diagonal-C6 C 25.42
# diagonal-C6 O 12.74
EvdW_6 =   -0.380676
EvdW_8 =   -0.632819

# Ionic positions in cartesian coordinates:
ion Pt   0.000220000000000   0.307628000000000  17.100908000000000 0
ion Pt   0.000220000000000  13.123347000000001  17.100908000000000 0
ion Pt   5.232205000000001   0.307628000000000  17.100908000000000 0
ion Pt   5.232205000000001  13.123347000000001  17.100908000000000 0
ion Pt  10.463699000000000   4.022239000000000   2.178053000000000 0
ion Pt  10.463699000000000  16.837956999999999   2.178053000000000 0
ion Pt   5.231692000000000   4.022239000000000   2.178053000000000 0
ion Pt   5.231692000000000  16.837956999999999   2.178053000000000 0
ion Pt  10.463981000000000   8.528655000000001   5.417403000000000 0
ion Pt  10.463981000000000  21.344373999999998   5.417403000000000 0
ion Pt   5.231975000000000   8.528655000000001   5.417403000000000 0
ion Pt   5.231975000000000  21.344373999999998   5.417403000000000 0
ion Pt  10.463844999999999  25.622132000000001   8.238791000000001 0
ion Pt  10.463844999999999  12.806414000000000   8.238791000000001 0
ion Pt   5.231849000000001  25.622132000000001   8.238791000000001 0
ion Pt   5.231849000000001  12.806414000000000   8.238791000000001 0
ion Pt   0.000157000000000   4.349296000000000  11.332694000000000 0
ion Pt   0.000157000000000  17.165013999999999  11.332694000000000 0
ion Pt   5.232153000000001   4.349296000000000  11.332694000000000 0
ion Pt   5.232153000000001  17.165013999999999  11.332694000000000 0
ion Pt   0.000303000000000   8.653275000000001  14.682311000000000 0
ion Pt   0.000303000000000  21.469018999999999  14.682311000000000 0
ion Pt   5.232310000000000   8.653275000000001  14.682311000000000 0
ion Pt   5.232310000000000  21.469018999999999  14.682311000000000 0
ion Pt   2.615715000000000  25.523040999999999   3.443627000000001 0
ion Pt   2.615715000000000  12.707296999999999   3.443627000000001 0
ion Pt   7.847711000000000  25.523040999999999   3.443627000000001 0
ion Pt   7.847711000000000  12.707296999999999   3.443627000000001 0
ion Pt   2.615810000000000   4.193175000000000   6.787100000000000 0
ion Pt   2.615810000000000  17.008893000000000   6.787100000000000 0
ion Pt   7.847806000000000   4.193175000000000   6.787100000000000 0
ion Pt   7.847806000000000  17.008893000000000   6.787100000000000 0
ion Pt   2.616155000000000   8.553081999999998   9.886386000000000 0
ion Pt   2.616155000000000  21.368799999999997   9.886386000000000 0
ion Pt   7.848151000000000   8.553081999999998   9.886386000000000 0
ion Pt   7.848151000000000  21.368799999999997   9.886386000000000 0
ion Pt   2.615998000000000   0.014841000000000  12.709460000000000 0
ion Pt   2.615998000000000  12.830558999999997  12.709460000000000 0
ion Pt   7.847994000000001   0.014841000000000  12.709460000000000 0
ion Pt   7.847994000000001  12.830558999999997  12.709460000000000 0
ion Pt   2.616322000000000   4.520642000000000  15.941687000000002 0
ion Pt   2.616322000000000  17.336386000000001  15.941687000000002 0
ion Pt   7.848318000000000   4.520642000000000  15.941687000000002 0
ion Pt   7.848318000000000  17.336386000000001  15.941687000000002 0
ion Pt   2.615768000000000   8.237738999999999   1.026553000000000 0
ion Pt   2.615768000000000  21.053457000000002   1.026553000000000 0
ion Pt   7.847764000000001   8.237738999999999   1.026553000000000 0
ion Pt   7.847764000000001  21.053457000000002   1.026553000000000 0
ion C   3.924269000000000   8.821982000000000  18.135402580261477 1  Linear 0 0 1
ion O   3.984353000000000   8.821982000000000  20.353478152678566 1  Linear 0 0 1

# Forces in Cartesian coordinates:
force Pt  -0.000078077993572   0.001537135324686  -0.001608453220926 0
force Pt  -0.002707721973261   0.003971593514013  -0.000431252136183 0
force Pt   0.000357017265546   0.000010744943750  -0.000089057504167 0
force Pt  -0.000222707551372   0.011711802137471   0.002381481073826 0
force Pt   0.000346766066128   0.000613632764579  -0.000346458082463 0
force Pt  -0.000065221403313   0.000385009371590  -0.000048128314442 0
force Pt  -0.000298756270908   0.000328916295841  -0.000765512551198 0
force Pt   0.000054750948947   0.000324232804528  -0.000216328411792 0
force Pt   0.000163857738696   0.001741611030170  -0.001530839230560 0
force Pt   0.000171758988125   0.000816681198181  -0.000435942296125 0
force Pt  -0.000378264831835   0.000610759010237  -0.000153150737088 0
force Pt  -0.000174899076134   0.000455337739122  -0.000203622081511 0
force Pt  -0.000150907710330   0.000736898121534  -0.000116756755720 0
force Pt   0.000043472947545   0.000634876484380  -0.001452688141901 0
force Pt   0.000145302922393   0.000582008447223  -0.000331625756185 0
force Pt  -0.000126368049912   0.001547986184516  -0.000248572468359 0
force Pt   0.000061076136906  -0.000197221144374   0.000144632466690 0
force Pt  -0.000096831062071   0.000042371039021  -0.000658670280289 0
force Pt   0.000116032275764  -0.001842427378072  -0.002367885184351 0
force Pt  -0.000031682583524   0.000450321249950  -0.000074374051282 0
force Pt  -0.005732993501572   0.001133776064968  -0.002433673579904 0
force Pt   0.000428695296453   0.001439335211265  -0.000856157497034 0
force Pt   0.005031380398798  -0.005435805854031   0.003421385010190 0
force Pt   0.000096420066621  -0.000447149862093  -0.000300713728680 0
force Pt   0.000187210069614  -0.000372292889704   0.000601799887746 0
force Pt  -0.000224063581636  -0.000904746469621   0.000333137779651 0
force Pt  -0.000216200706289  -0.000515147272417   0.000482872272591 0
force Pt   0.000023354701981  -0.000568189339207   0.000296923383690 0
force Pt   0.000046202452085   0.000481675146834   0.000549808309784 0
force Pt  -0.000137172514863   0.000384976431408   0.000035995000601 0
force Pt  -0.000057475126502   0.000111831607919  -0.000661646315077 0
force Pt  -0.000031509441010  -0.000067694220790   0.000570964848216 0
force Pt   0.000261028994693  -0.000501259880079  -0.001743625583733 0
force Pt   0.000133043445464  -0.000884867319563   0.000786122479068 0
force Pt  -0.003354943193318  -0.000183266770825   0.007815633660490 0
force Pt   0.000016910836993  -0.000838796455074   0.000836057305169 0
force Pt   0.000219530564308   0.000242958157971   0.000847707675541 0
force Pt  -0.002792548147791   0.003841973585445  -0.003746676067616 0
force Pt  -0.000095178040563  -0.000545392650564   0.000250483098190 0
force Pt   0.002579168616464   0.002009079581880  -0.002844582784364 0
force Pt  -0.004758559458691  -0.010336432976340   0.007174884210433 0
force Pt   0.000258763832263   0.000808138337739  -0.000167790784916 0
force Pt   0.005337408806294  -0.010104369797912   0.000531879539789 0
force Pt  -0.000079448761991  -0.000592861429146   0.000170609077893 0
force Pt   0.001368694274993  -0.000488328077532  -0.001230873461376 0
force Pt   0.000060054384408  -0.000227637383153  -0.000035274537154 0
force Pt  -0.000850626161929  -0.000119322166353  -0.000581031375596 0
force Pt  -0.000057896500746  -0.000351618479326  -0.000271949121994 0
force C   0.011997068130587   0.010734282392043  -0.000175616549930 1  Linear 0 0 1
force O  -0.006841810851023  -0.012291760476340   0.000071455447900 1  Linear 0 0 1

# Energy components:
   A_diel =       -0.0137384843392356
   Eewald =    24442.6949745942583831
       EH =    28336.9031281123134249
     Eloc =   -57820.6895964765135432
      Enl =      -47.4450292925818431
     EvdW =       -1.0134947706677004
      Exc =    -1370.5993604443433469
 Exc_core =      786.8850384523882440
       KE =     1381.1819177605780169
-------------------------------------
     Etot =    -4292.0961605489083013
       TS =        0.0084759347656247
-------------------------------------
        F =    -4292.1046364836738576


Dumping 'jdft.fillings' ... done
Dumping 'jdft.wfns' ... done
Dumping 'jdft.fluidState' ... done
Dumping 'jdft.ionpos' ... done
Dumping 'jdft.lattice' ... done
Dumping 'jdft.eigenvals' ... done
Dumping 'jdft.eigStats' ... 
	eMin: -2.167109 at state 0 ( [ +0.000000 +0.000000 +0.000000 ] spin 1 )
	HOMO: -0.194985 at state 15 ( [ +0.500000 +0.500000 +0.000000 ] spin -1 )
	mu  : -0.194926
	LUMO: -0.194921 at state 0 ( [ +0.000000 +0.000000 +0.000000 ] spin 1 )
	eMax: +0.086286 at state 13 ( [ +0.333333 +0.500000 +0.000000 ] spin -1 )
	HOMO-LUMO gap: +0.000064
	Optical gap  : +0.000357 at state 2 ( [ +0.166667 +0.000000 +0.000000 ] spin 1 )
Dumping 'jdft.Ecomponents' ... done
IonicMinimize: Iter:   5  F: -4292.104636483673858  |grad|_K:  1.341e-04  alpha:  3.000e+00  linmin:  2.101e-03  t[s]:  42956.33
IonicMinimize: Converged (|Delta F|<1.000000e-06 for 2 iters).

#--- Lowdin population analysis ---
# oxidation-state Pt +0.058 +0.036 +0.060 -0.021 +0.012 +0.011 +0.010 +0.011 -0.021 -0.012 -0.013 -0.012 +0.016 +0.016 +0.015 +0.015 +0.009 +0.012 +0.005 +0.012 -0.041 -0.009 -0.069 -0.006 -0.010 -0.010 -0.009 -0.010 +0.010 +0.010 +0.009 +0.011 +0.005 +0.017 -0.000 +0.018 -0.012 -0.008 -0.010 -0.016 -0.044 +0.013 +0.004 +0.007 +0.052 +0.055 +0.054 +0.055
# magnetic-moments Pt +0.000 +0.000 +0.000 +0.000 +0.000 +0.000 +0.000 +0.000 +0.000 +0.000 +0.000 +0.000 +0.000 +0.000 +0.000 +0.000 +0.000 +0.000 +0.000 +0.000 +0.000 +0.000 +0.000 +0.000 +0.000 +0.000 +0.000 +0.000 +0.000 +0.000 +0.000 +0.000 +0.000 +0.000 +0.000 +0.000 +0.000 +0.000 +0.000 +0.000 +0.000 +0.000 +0.000 +0.000 +0.000 +0.000 +0.000 +0.000
# oxidation-state C +0.466
# magnetic-moments C -0.000
# oxidation-state O -0.107
# magnetic-moments O -0.000


Dumping 'jdft.n_up' ... done
Dumping 'jdft.n_dn' ... done
Dumping 'jdft.tau_up' ... done
Dumping 'jdft.tau_dn' ... done
Dumping 'jdft.eigenvals' ... done
Dumping 'jdft.eigStats' ... 
	eMin: -2.167109 at state 0 ( [ +0.000000 +0.000000 +0.000000 ] spin 1 )
	HOMO: -0.194985 at state 15 ( [ +0.500000 +0.500000 +0.000000 ] spin -1 )
	mu  : -0.194926
	LUMO: -0.194921 at state 0 ( [ +0.000000 +0.000000 +0.000000 ] spin 1 )
	eMax: +0.086286 at state 13 ( [ +0.333333 +0.500000 +0.000000 ] spin -1 )
	HOMO-LUMO gap: +0.000064
	Optical gap  : +0.000357 at state 2 ( [ +0.166667 +0.000000 +0.000000 ] spin 1 )
Dumping 'jdft.kPts' ... done
Dumping 'jdft.kMap' ... done
Dumping 'jdft.dosUp' ... done.
Dumping 'jdft.dosDn' ... done.
End date and time: Thu Feb 17 15:02:26 2022  (Duration: 0-11:57:36.36)
Done!
