
*************** JDFTx 1.6.0  ***************

Start date and time: Thu Feb 17 03:49:52 2022
Executable /projects/musgravc/apps/jdftx-1.6.1/build/jdftx with command-line: -i in
Running on hosts (process indices):  shas0344.rc.int.colorado.edu (0-23)
Divided in process groups (process indices):  0 (0)  1 (1)  2 (2)  3 (3)  4 (4)  5 (5)  6 (6)  7 (7)  8 (8)  9 (9)  10 (10)  11 (11)  12 (12)  13 (13)  14 (14)  15 (15)  16 (16)  17 (17)  18 (18)  19 (19)  20 (20)  21 (21)  22 (22)  23 (23)
Resource initialization completed at t[s]:      0.00
Run totals: 24 processes, 24 threads, 0 GPUs


Input parsed successfully to the following command list (including defaults):

basis kpoint-dependent
converge-empty-states yes
coords-type Cartesian
core-overlap-check none
coulomb-interaction Periodic
davidson-band-ratio 1.1
density-of-states Etol 1.000000e-06 Esigma 1.000000e-03 \
		Complete \
	Total \
	OrthoOrbital Pt 1   s \
	OrthoOrbital Pt 1   p \
	OrthoOrbital Pt 1   px \
	OrthoOrbital Pt 1   py \
	OrthoOrbital Pt 1   pz \
	OrthoOrbital Pt 1   d \
	OrthoOrbital Pt 1   dxy \
	OrthoOrbital Pt 1   dyz \
	OrthoOrbital Pt 1   dz2 \
	OrthoOrbital Pt 1   dxz \
	OrthoOrbital Pt 1   dx2-y2 \
	OrthoOrbital Pt 2   s \
	OrthoOrbital Pt 2   p \
	OrthoOrbital Pt 2   px \
	OrthoOrbital Pt 2   py \
	OrthoOrbital Pt 2   pz \
	OrthoOrbital Pt 2   d \
	OrthoOrbital Pt 2   dxy \
	OrthoOrbital Pt 2   dyz \
	OrthoOrbital Pt 2   dz2 \
	OrthoOrbital Pt 2   dxz \
	OrthoOrbital Pt 2   dx2-y2 \
	OrthoOrbital Pt 3   s \
	OrthoOrbital Pt 3   p \
	OrthoOrbital Pt 3   px \
	OrthoOrbital Pt 3   py \
	OrthoOrbital Pt 3   pz \
	OrthoOrbital Pt 3   d \
	OrthoOrbital Pt 3   dxy \
	OrthoOrbital Pt 3   dyz \
	OrthoOrbital Pt 3   dz2 \
	OrthoOrbital Pt 3   dxz \
	OrthoOrbital Pt 3   dx2-y2 \
	OrthoOrbital Pt 4   s \
	OrthoOrbital Pt 4   p \
	OrthoOrbital Pt 4   px \
	OrthoOrbital Pt 4   py \
	OrthoOrbital Pt 4   pz \
	OrthoOrbital Pt 4   d \
	OrthoOrbital Pt 4   dxy \
	OrthoOrbital Pt 4   dyz \
	OrthoOrbital Pt 4   dz2 \
	OrthoOrbital Pt 4   dxz \
	OrthoOrbital Pt 4   dx2-y2 \
	OrthoOrbital Pt 5   s \
	OrthoOrbital Pt 5   p \
	OrthoOrbital Pt 5   px \
	OrthoOrbital Pt 5   py \
	OrthoOrbital Pt 5   pz \
	OrthoOrbital Pt 5   d \
	OrthoOrbital Pt 5   dxy \
	OrthoOrbital Pt 5   dyz \
	OrthoOrbital Pt 5   dz2 \
	OrthoOrbital Pt 5   dxz \
	OrthoOrbital Pt 5   dx2-y2 \
	OrthoOrbital Pt 6   s \
	OrthoOrbital Pt 6   p \
	OrthoOrbital Pt 6   px \
	OrthoOrbital Pt 6   py \
	OrthoOrbital Pt 6   pz \
	OrthoOrbital Pt 6   d \
	OrthoOrbital Pt 6   dxy \
	OrthoOrbital Pt 6   dyz \
	OrthoOrbital Pt 6   dz2 \
	OrthoOrbital Pt 6   dxz \
	OrthoOrbital Pt 6   dx2-y2 \
	OrthoOrbital Pt 7   s \
	OrthoOrbital Pt 7   p \
	OrthoOrbital Pt 7   px \
	OrthoOrbital Pt 7   py \
	OrthoOrbital Pt 7   pz \
	OrthoOrbital Pt 7   d \
	OrthoOrbital Pt 7   dxy \
	OrthoOrbital Pt 7   dyz \
	OrthoOrbital Pt 7   dz2 \
	OrthoOrbital Pt 7   dxz \
	OrthoOrbital Pt 7   dx2-y2 \
	OrthoOrbital Pt 8   s \
	OrthoOrbital Pt 8   p \
	OrthoOrbital Pt 8   px \
	OrthoOrbital Pt 8   py \
	OrthoOrbital Pt 8   pz \
	OrthoOrbital Pt 8   d \
	OrthoOrbital Pt 8   dxy \
	OrthoOrbital Pt 8   dyz \
	OrthoOrbital Pt 8   dz2 \
	OrthoOrbital Pt 8   dxz \
	OrthoOrbital Pt 8   dx2-y2 \
	OrthoOrbital Pt 9   s \
	OrthoOrbital Pt 9   p \
	OrthoOrbital Pt 9   px \
	OrthoOrbital Pt 9   py \
	OrthoOrbital Pt 9   pz \
	OrthoOrbital Pt 9   d \
	OrthoOrbital Pt 9   dxy \
	OrthoOrbital Pt 9   dyz \
	OrthoOrbital Pt 9   dz2 \
	OrthoOrbital Pt 9   dxz \
	OrthoOrbital Pt 9   dx2-y2 \
	OrthoOrbital Pt 10   s \
	OrthoOrbital Pt 10   p \
	OrthoOrbital Pt 10   px \
	OrthoOrbital Pt 10   py \
	OrthoOrbital Pt 10   pz \
	OrthoOrbital Pt 10   d \
	OrthoOrbital Pt 10   dxy \
	OrthoOrbital Pt 10   dyz \
	OrthoOrbital Pt 10   dz2 \
	OrthoOrbital Pt 10   dxz \
	OrthoOrbital Pt 10   dx2-y2 \
	OrthoOrbital Pt 11   s \
	OrthoOrbital Pt 11   p \
	OrthoOrbital Pt 11   px \
	OrthoOrbital Pt 11   py \
	OrthoOrbital Pt 11   pz \
	OrthoOrbital Pt 11   d \
	OrthoOrbital Pt 11   dxy \
	OrthoOrbital Pt 11   dyz \
	OrthoOrbital Pt 11   dz2 \
	OrthoOrbital Pt 11   dxz \
	OrthoOrbital Pt 11   dx2-y2 \
	OrthoOrbital Pt 12   s \
	OrthoOrbital Pt 12   p \
	OrthoOrbital Pt 12   px \
	OrthoOrbital Pt 12   py \
	OrthoOrbital Pt 12   pz \
	OrthoOrbital Pt 12   d \
	OrthoOrbital Pt 12   dxy \
	OrthoOrbital Pt 12   dyz \
	OrthoOrbital Pt 12   dz2 \
	OrthoOrbital Pt 12   dxz \
	OrthoOrbital Pt 12   dx2-y2 \
	OrthoOrbital Pt 13   s \
	OrthoOrbital Pt 13   p \
	OrthoOrbital Pt 13   px \
	OrthoOrbital Pt 13   py \
	OrthoOrbital Pt 13   pz \
	OrthoOrbital Pt 13   d \
	OrthoOrbital Pt 13   dxy \
	OrthoOrbital Pt 13   dyz \
	OrthoOrbital Pt 13   dz2 \
	OrthoOrbital Pt 13   dxz \
	OrthoOrbital Pt 13   dx2-y2 \
	OrthoOrbital Pt 14   s \
	OrthoOrbital Pt 14   p \
	OrthoOrbital Pt 14   px \
	OrthoOrbital Pt 14   py \
	OrthoOrbital Pt 14   pz \
	OrthoOrbital Pt 14   d \
	OrthoOrbital Pt 14   dxy \
	OrthoOrbital Pt 14   dyz \
	OrthoOrbital Pt 14   dz2 \
	OrthoOrbital Pt 14   dxz \
	OrthoOrbital Pt 14   dx2-y2 \
	OrthoOrbital Pt 15   s \
	OrthoOrbital Pt 15   p \
	OrthoOrbital Pt 15   px \
	OrthoOrbital Pt 15   py \
	OrthoOrbital Pt 15   pz \
	OrthoOrbital Pt 15   d \
	OrthoOrbital Pt 15   dxy \
	OrthoOrbital Pt 15   dyz \
	OrthoOrbital Pt 15   dz2 \
	OrthoOrbital Pt 15   dxz \
	OrthoOrbital Pt 15   dx2-y2 \
	OrthoOrbital Pt 16   s \
	OrthoOrbital Pt 16   p \
	OrthoOrbital Pt 16   px \
	OrthoOrbital Pt 16   py \
	OrthoOrbital Pt 16   pz \
	OrthoOrbital Pt 16   d \
	OrthoOrbital Pt 16   dxy \
	OrthoOrbital Pt 16   dyz \
	OrthoOrbital Pt 16   dz2 \
	OrthoOrbital Pt 16   dxz \
	OrthoOrbital Pt 16   dx2-y2 \
	OrthoOrbital Pt 17   s \
	OrthoOrbital Pt 17   p \
	OrthoOrbital Pt 17   px \
	OrthoOrbital Pt 17   py \
	OrthoOrbital Pt 17   pz \
	OrthoOrbital Pt 17   d \
	OrthoOrbital Pt 17   dxy \
	OrthoOrbital Pt 17   dyz \
	OrthoOrbital Pt 17   dz2 \
	OrthoOrbital Pt 17   dxz \
	OrthoOrbital Pt 17   dx2-y2 \
	OrthoOrbital Pt 18   s \
	OrthoOrbital Pt 18   p \
	OrthoOrbital Pt 18   px \
	OrthoOrbital Pt 18   py \
	OrthoOrbital Pt 18   pz \
	OrthoOrbital Pt 18   d \
	OrthoOrbital Pt 18   dxy \
	OrthoOrbital Pt 18   dyz \
	OrthoOrbital Pt 18   dz2 \
	OrthoOrbital Pt 18   dxz \
	OrthoOrbital Pt 18   dx2-y2 \
	OrthoOrbital Pt 19   s \
	OrthoOrbital Pt 19   p \
	OrthoOrbital Pt 19   px \
	OrthoOrbital Pt 19   py \
	OrthoOrbital Pt 19   pz \
	OrthoOrbital Pt 19   d \
	OrthoOrbital Pt 19   dxy \
	OrthoOrbital Pt 19   dyz \
	OrthoOrbital Pt 19   dz2 \
	OrthoOrbital Pt 19   dxz \
	OrthoOrbital Pt 19   dx2-y2 \
	OrthoOrbital Pt 20   s \
	OrthoOrbital Pt 20   p \
	OrthoOrbital Pt 20   px \
	OrthoOrbital Pt 20   py \
	OrthoOrbital Pt 20   pz \
	OrthoOrbital Pt 20   d \
	OrthoOrbital Pt 20   dxy \
	OrthoOrbital Pt 20   dyz \
	OrthoOrbital Pt 20   dz2 \
	OrthoOrbital Pt 20   dxz \
	OrthoOrbital Pt 20   dx2-y2 \
	OrthoOrbital Pt 21   s \
	OrthoOrbital Pt 21   p \
	OrthoOrbital Pt 21   px \
	OrthoOrbital Pt 21   py \
	OrthoOrbital Pt 21   pz \
	OrthoOrbital Pt 21   d \
	OrthoOrbital Pt 21   dxy \
	OrthoOrbital Pt 21   dyz \
	OrthoOrbital Pt 21   dz2 \
	OrthoOrbital Pt 21   dxz \
	OrthoOrbital Pt 21   dx2-y2 \
	OrthoOrbital Pt 22   s \
	OrthoOrbital Pt 22   p \
	OrthoOrbital Pt 22   px \
	OrthoOrbital Pt 22   py \
	OrthoOrbital Pt 22   pz \
	OrthoOrbital Pt 22   d \
	OrthoOrbital Pt 22   dxy \
	OrthoOrbital Pt 22   dyz \
	OrthoOrbital Pt 22   dz2 \
	OrthoOrbital Pt 22   dxz \
	OrthoOrbital Pt 22   dx2-y2 \
	OrthoOrbital Pt 23   s \
	OrthoOrbital Pt 23   p \
	OrthoOrbital Pt 23   px \
	OrthoOrbital Pt 23   py \
	OrthoOrbital Pt 23   pz \
	OrthoOrbital Pt 23   d \
	OrthoOrbital Pt 23   dxy \
	OrthoOrbital Pt 23   dyz \
	OrthoOrbital Pt 23   dz2 \
	OrthoOrbital Pt 23   dxz \
	OrthoOrbital Pt 23   dx2-y2 \
	OrthoOrbital Pt 24   s \
	OrthoOrbital Pt 24   p \
	OrthoOrbital Pt 24   px \
	OrthoOrbital Pt 24   py \
	OrthoOrbital Pt 24   pz \
	OrthoOrbital Pt 24   d \
	OrthoOrbital Pt 24   dxy \
	OrthoOrbital Pt 24   dyz \
	OrthoOrbital Pt 24   dz2 \
	OrthoOrbital Pt 24   dxz \
	OrthoOrbital Pt 24   dx2-y2 \
	OrthoOrbital Pt 25   s \
	OrthoOrbital Pt 25   p \
	OrthoOrbital Pt 25   px \
	OrthoOrbital Pt 25   py \
	OrthoOrbital Pt 25   pz \
	OrthoOrbital Pt 25   d \
	OrthoOrbital Pt 25   dxy \
	OrthoOrbital Pt 25   dyz \
	OrthoOrbital Pt 25   dz2 \
	OrthoOrbital Pt 25   dxz \
	OrthoOrbital Pt 25   dx2-y2 \
	OrthoOrbital Pt 26   s \
	OrthoOrbital Pt 26   p \
	OrthoOrbital Pt 26   px \
	OrthoOrbital Pt 26   py \
	OrthoOrbital Pt 26   pz \
	OrthoOrbital Pt 26   d \
	OrthoOrbital Pt 26   dxy \
	OrthoOrbital Pt 26   dyz \
	OrthoOrbital Pt 26   dz2 \
	OrthoOrbital Pt 26   dxz \
	OrthoOrbital Pt 26   dx2-y2 \
	OrthoOrbital Pt 27   s \
	OrthoOrbital Pt 27   p \
	OrthoOrbital Pt 27   px \
	OrthoOrbital Pt 27   py \
	OrthoOrbital Pt 27   pz \
	OrthoOrbital Pt 27   d \
	OrthoOrbital Pt 27   dxy \
	OrthoOrbital Pt 27   dyz \
	OrthoOrbital Pt 27   dz2 \
	OrthoOrbital Pt 27   dxz \
	OrthoOrbital Pt 27   dx2-y2 \
	OrthoOrbital Pt 28   s \
	OrthoOrbital Pt 28   p \
	OrthoOrbital Pt 28   px \
	OrthoOrbital Pt 28   py \
	OrthoOrbital Pt 28   pz \
	OrthoOrbital Pt 28   d \
	OrthoOrbital Pt 28   dxy \
	OrthoOrbital Pt 28   dyz \
	OrthoOrbital Pt 28   dz2 \
	OrthoOrbital Pt 28   dxz \
	OrthoOrbital Pt 28   dx2-y2 \
	OrthoOrbital Pt 29   s \
	OrthoOrbital Pt 29   p \
	OrthoOrbital Pt 29   px \
	OrthoOrbital Pt 29   py \
	OrthoOrbital Pt 29   pz \
	OrthoOrbital Pt 29   d \
	OrthoOrbital Pt 29   dxy \
	OrthoOrbital Pt 29   dyz \
	OrthoOrbital Pt 29   dz2 \
	OrthoOrbital Pt 29   dxz \
	OrthoOrbital Pt 29   dx2-y2 \
	OrthoOrbital Pt 30   s \
	OrthoOrbital Pt 30   p \
	OrthoOrbital Pt 30   px \
	OrthoOrbital Pt 30   py \
	OrthoOrbital Pt 30   pz \
	OrthoOrbital Pt 30   d \
	OrthoOrbital Pt 30   dxy \
	OrthoOrbital Pt 30   dyz \
	OrthoOrbital Pt 30   dz2 \
	OrthoOrbital Pt 30   dxz \
	OrthoOrbital Pt 30   dx2-y2 \
	OrthoOrbital Pt 31   s \
	OrthoOrbital Pt 31   p \
	OrthoOrbital Pt 31   px \
	OrthoOrbital Pt 31   py \
	OrthoOrbital Pt 31   pz \
	OrthoOrbital Pt 31   d \
	OrthoOrbital Pt 31   dxy \
	OrthoOrbital Pt 31   dyz \
	OrthoOrbital Pt 31   dz2 \
	OrthoOrbital Pt 31   dxz \
	OrthoOrbital Pt 31   dx2-y2 \
	OrthoOrbital Pt 32   s \
	OrthoOrbital Pt 32   p \
	OrthoOrbital Pt 32   px \
	OrthoOrbital Pt 32   py \
	OrthoOrbital Pt 32   pz \
	OrthoOrbital Pt 32   d \
	OrthoOrbital Pt 32   dxy \
	OrthoOrbital Pt 32   dyz \
	OrthoOrbital Pt 32   dz2 \
	OrthoOrbital Pt 32   dxz \
	OrthoOrbital Pt 32   dx2-y2 \
	OrthoOrbital Pt 33   s \
	OrthoOrbital Pt 33   p \
	OrthoOrbital Pt 33   px \
	OrthoOrbital Pt 33   py \
	OrthoOrbital Pt 33   pz \
	OrthoOrbital Pt 33   d \
	OrthoOrbital Pt 33   dxy \
	OrthoOrbital Pt 33   dyz \
	OrthoOrbital Pt 33   dz2 \
	OrthoOrbital Pt 33   dxz \
	OrthoOrbital Pt 33   dx2-y2 \
	OrthoOrbital Pt 34   s \
	OrthoOrbital Pt 34   p \
	OrthoOrbital Pt 34   px \
	OrthoOrbital Pt 34   py \
	OrthoOrbital Pt 34   pz \
	OrthoOrbital Pt 34   d \
	OrthoOrbital Pt 34   dxy \
	OrthoOrbital Pt 34   dyz \
	OrthoOrbital Pt 34   dz2 \
	OrthoOrbital Pt 34   dxz \
	OrthoOrbital Pt 34   dx2-y2 \
	OrthoOrbital Pt 35   s \
	OrthoOrbital Pt 35   p \
	OrthoOrbital Pt 35   px \
	OrthoOrbital Pt 35   py \
	OrthoOrbital Pt 35   pz \
	OrthoOrbital Pt 35   d \
	OrthoOrbital Pt 35   dxy \
	OrthoOrbital Pt 35   dyz \
	OrthoOrbital Pt 35   dz2 \
	OrthoOrbital Pt 35   dxz \
	OrthoOrbital Pt 35   dx2-y2 \
	OrthoOrbital Pt 36   s \
	OrthoOrbital Pt 36   p \
	OrthoOrbital Pt 36   px \
	OrthoOrbital Pt 36   py \
	OrthoOrbital Pt 36   pz \
	OrthoOrbital Pt 36   d \
	OrthoOrbital Pt 36   dxy \
	OrthoOrbital Pt 36   dyz \
	OrthoOrbital Pt 36   dz2 \
	OrthoOrbital Pt 36   dxz \
	OrthoOrbital Pt 36   dx2-y2 \
	OrthoOrbital Pt 37   s \
	OrthoOrbital Pt 37   p \
	OrthoOrbital Pt 37   px \
	OrthoOrbital Pt 37   py \
	OrthoOrbital Pt 37   pz \
	OrthoOrbital Pt 37   d \
	OrthoOrbital Pt 37   dxy \
	OrthoOrbital Pt 37   dyz \
	OrthoOrbital Pt 37   dz2 \
	OrthoOrbital Pt 37   dxz \
	OrthoOrbital Pt 37   dx2-y2 \
	OrthoOrbital Pt 38   s \
	OrthoOrbital Pt 38   p \
	OrthoOrbital Pt 38   px \
	OrthoOrbital Pt 38   py \
	OrthoOrbital Pt 38   pz \
	OrthoOrbital Pt 38   d \
	OrthoOrbital Pt 38   dxy \
	OrthoOrbital Pt 38   dyz \
	OrthoOrbital Pt 38   dz2 \
	OrthoOrbital Pt 38   dxz \
	OrthoOrbital Pt 38   dx2-y2 \
	OrthoOrbital Pt 39   s \
	OrthoOrbital Pt 39   p \
	OrthoOrbital Pt 39   px \
	OrthoOrbital Pt 39   py \
	OrthoOrbital Pt 39   pz \
	OrthoOrbital Pt 39   d \
	OrthoOrbital Pt 39   dxy \
	OrthoOrbital Pt 39   dyz \
	OrthoOrbital Pt 39   dz2 \
	OrthoOrbital Pt 39   dxz \
	OrthoOrbital Pt 39   dx2-y2 \
	OrthoOrbital Pt 40   s \
	OrthoOrbital Pt 40   p \
	OrthoOrbital Pt 40   px \
	OrthoOrbital Pt 40   py \
	OrthoOrbital Pt 40   pz \
	OrthoOrbital Pt 40   d \
	OrthoOrbital Pt 40   dxy \
	OrthoOrbital Pt 40   dyz \
	OrthoOrbital Pt 40   dz2 \
	OrthoOrbital Pt 40   dxz \
	OrthoOrbital Pt 40   dx2-y2 \
	OrthoOrbital C 1   s \
	OrthoOrbital C 1   p \
	OrthoOrbital C 1   px \
	OrthoOrbital C 1   py \
	OrthoOrbital C 1   pz \
	OrthoOrbital O 1   s \
	OrthoOrbital O 1   p \
	OrthoOrbital O 1   px \
	OrthoOrbital O 1   py \
	OrthoOrbital O 1   pz
dump End ElecDensity KEdensity BandEigs EigStats RhoAtom DOS Kpoints
dump Ionic State IonicPositions Lattice EigStats Ecomponents
dump 
dump 
dump 
dump 
dump 
dump 
dump 
dump 
dump-name jdft.$VAR
elec-cutoff 20
elec-eigen-algo Davidson
elec-ex-corr gga-PBE
elec-initial-magnetization 0.000000 no
elec-n-bands 390
elec-smearing Fermi 0.001
electronic-minimize  \
	dirUpdateScheme      FletcherReeves \
	linminMethod         DirUpdateRecommended \
	nIterations          100 \
	history              15 \
	knormThreshold       0 \
	energyDiffThreshold  1e-07 \
	nEnergyDiff          2 \
	alphaTstart          1 \
	alphaTmin            1e-10 \
	updateTestStepSize   yes \
	alphaTreduceFactor   0.1 \
	alphaTincreaseFactor 3 \
	nAlphaAdjustMax      3 \
	wolfeEnergy          0.0001 \
	wolfeGradient        0.9 \
	fdTest               no
exchange-regularization WignerSeitzTruncated
fluid LinearPCM 298.000000 1.013250
fluid-anion F- 0.5 MeanFieldLJ \
	epsBulk 1 \
	pMol 0 \
	epsInf 1 \
	Pvap 0 \
	sigmaBulk 0 \
	Rvdw 2.24877 \
	Res 0 \
	tauNuc 343133
fluid-cation Na+ 0.5 MeanFieldLJ \
	epsBulk 1 \
	pMol 0 \
	epsInf 1 \
	Pvap 0 \
	sigmaBulk 0 \
	Rvdw 2.19208 \
	Res 0 \
	tauNuc 343133
fluid-ex-corr lda-TF lda-PZ
fluid-gummel-loop 10 1.000000e-05
fluid-minimize  \
	dirUpdateScheme      PolakRibiere \
	linminMethod         DirUpdateRecommended \
	nIterations          400 \
	history              15 \
	knormThreshold       1e-11 \
	energyDiffThreshold  0 \
	nEnergyDiff          2 \
	alphaTstart          1 \
	alphaTmin            1e-10 \
	updateTestStepSize   yes \
	alphaTreduceFactor   0.1 \
	alphaTincreaseFactor 3 \
	nAlphaAdjustMax      6 \
	wolfeEnergy          0.0001 \
	wolfeGradient        0.9 \
	fdTest               no
fluid-solvent H2O 55.338 ScalarEOS \
	epsBulk 78.4 \
	pMol 0.92466 \
	epsInf 1.77 \
	Pvap 1.06736e-10 \
	sigmaBulk 4.62e-05 \
	Rvdw 2.61727 \
	Res 1.42 \
	tauNuc 343133 \
	poleEl 15 7 1
forces-output-coords Positions
ion Pt   3.704685000000000   1.822566000000000  12.573157000000000 0
ion Pt   0.005105000000001  10.095076999999998  12.573157000000000 0
ion Pt  11.103842999999998   1.822566000000000  12.573157000000000 0
ion Pt   7.404264000000001  10.095076999999998  12.573157000000000 0
ion Pt  -0.001050999999999   3.273664000000000   9.137368000000000 0
ion Pt  -3.700629999999999  11.546173999999999   9.137368000000000 0
ion Pt   7.398107999999999   3.273664000000000   9.137368000000000 0
ion Pt   3.698529000000002  11.546173999999999   9.137368000000000 0
ion Pt   3.697034000000000   4.963307999999999   5.876891000000000 0
ion Pt  -0.002545000000000  13.235818000000000   5.876891000000000 0
ion Pt  11.096191999999999   4.963307999999999   5.876891000000000 0
ion Pt   7.396613000000001  13.235818000000000   5.876891000000000 0
ion Pt  -0.005535000000000   6.538525999999999   2.275817000000000 0
ion Pt  -3.705113999999998  14.811036999999999   2.275817000000000 0
ion Pt   7.393623999999998   6.538525999999999   2.275817000000000 0
ion Pt   3.694045000000000  14.811036999999999   2.275817000000000 0
ion Pt  -3.696790000000000   8.273420000000000  15.437099999999996 0
ion Pt   0.002789000000000   0.000910000000000  15.437099999999996 0
ion Pt   3.702368999999999   8.273420000000000  15.437099999999996 0
ion Pt   7.401947999999999   0.000910000000000  15.437099999999996 0
ion Pt   3.702198000000001   6.619000999999999  10.667418999999999 0
ion Pt   0.002612000000002  14.891494999999999  10.667418999999999 0
ion Pt  11.101342000000001   6.619000999999999  10.667418999999999 0
ion Pt   7.401770000000000  14.891494999999999  10.667418999999999 0
ion Pt   3.700711000000000   0.034761000000000   7.409074999999999 0
ion Pt   0.001132000000001   8.307271999999999   7.409074999999999 0
ion Pt  11.099869999999996   0.034761000000000   7.409074999999999 0
ion Pt   7.400290000000000   8.307271999999999   7.409074999999999 0
ion Pt  -0.004987000000000   1.486173000000000   3.972789999999999 0
ion Pt  -3.704565999999998   9.758682999999998   3.972789999999999 0
ion Pt   7.394171000000000   1.486173000000000   3.972789999999999 0
ion Pt   3.694592000000002   9.758682999999998   3.972789999999999 0
ion Pt   3.696723000000000   3.307713999999999   1.109493000000000 0
ion Pt  -0.002870999999999  11.580223999999999   1.109493000000000 0
ion Pt  11.095866999999998   3.307713999999999   1.109493000000000 0
ion Pt   7.396302000000000  11.580223999999999   1.109493000000000 0
ion Pt   0.005350000000000   5.043435000000000  14.266009999999996 0
ion Pt  -3.694243999999999  13.315945999999999  14.266009999999996 0
ion Pt   7.404493000000000   5.043435000000000  14.266009999999996 0
ion Pt   3.704914000000001  13.315945999999999  14.266009999999996 0
ion C   3.704914000000000   5.043435000000000  17.052770999999996 1  Linear 0 0 1
ion O   3.765010000000000   5.043435000000000  19.208123999999998 1  Linear 0 0 1
ion-species /projects/musgravc/apps/jdftx-1.6.0/build/pseudopotentials/GBRV_v1.5/$ID_pbe_v1.uspp
ion-species /projects/musgravc/apps/jdftx-1.6.0/build/pseudopotentials/GBRV_v1.5/$ID_pbe_v1.2.uspp
ion-species /projects/musgravc/apps/jdftx-1.6.0/build/pseudopotentials/GBRV_v1.5/$ID_pbe_v1.4.uspp
ion-species /projects/musgravc/apps/jdftx-1.6.0/build/pseudopotentials/GBRV_v1.5/$ID_pbe_v1.5.uspp
ion-width Ecut
ionic-minimize  \
	dirUpdateScheme      L-BFGS \
	linminMethod         DirUpdateRecommended \
	nIterations          100 \
	history              15 \
	knormThreshold       0.0001 \
	energyDiffThreshold  1e-06 \
	nEnergyDiff          2 \
	alphaTstart          1 \
	alphaTmin            1e-10 \
	updateTestStepSize   yes \
	alphaTreduceFactor   0.1 \
	alphaTincreaseFactor 3 \
	nAlphaAdjustMax      3 \
	wolfeEnergy          0.0001 \
	wolfeGradient        0.9 \
	fdTest               no
kpoint   0.000000000000   0.000000000000   0.000000000000  1.00000000000000
kpoint-folding 4 3 1 
latt-move-scale 0 0 0
latt-scale 1 1 1 
lattice  \
	  14.798317000000001   -7.399158000000000    0.000000000000000  \
	   0.000000000000000   16.545020999999998    0.000000000000000  \
	   0.000000000000000    0.000000000000000   49.635063000000002 
lattice-minimize  \
	dirUpdateScheme      L-BFGS \
	linminMethod         DirUpdateRecommended \
	nIterations          0 \
	history              15 \
	knormThreshold       0 \
	energyDiffThreshold  1e-06 \
	nEnergyDiff          2 \
	alphaTstart          1 \
	alphaTmin            1e-10 \
	updateTestStepSize   yes \
	alphaTreduceFactor   0.1 \
	alphaTincreaseFactor 3 \
	nAlphaAdjustMax      3 \
	wolfeEnergy          0.0001 \
	wolfeGradient        0.9 \
	fdTest               no
lcao-params 30 1e-06 0.001
pcm-variant CANDLE
spintype z-spin
subspace-rotation-factor 1 yes
symmetries automatic
symmetry-threshold 0.0001
van-der-waals D3



---------- Setting up symmetries ----------

Found 8 point-group symmetries of the bravais lattice
Found 1 space-group symmetries with basis
Applied RMS atom displacement 0 bohrs to make symmetries exact.

---------- Initializing the Grid ----------
R = 
[      14.7983     -7.39916            0  ]
[            0       16.545            0  ]
[            0            0      49.6351  ]
unit cell volume = 12152.6
G =
[   0.424588   0.189881         -0  ]
[          0   0.379763          0  ]
[          0         -0   0.126588  ]
Minimum fftbox size, Smin = [  60  76  200  ]
Chosen fftbox size, S = [  60  80  200  ]

---------- Exchange Correlation functional ----------
Initalized PBE GGA exchange.
Initalized PBE GGA correlation.

---------- Setting up pseudopotentials ----------
Width of ionic core gaussian charges (only for fluid interactions / plotting) set to 0.397384

Reading pseudopotential file '/projects/musgravc/apps/jdftx-1.6.0/build/pseudopotentials/GBRV_v1.5/pt_pbe_v1.4.uspp':
  Title: Pt.  Created by USPP 7.3.6 on 31-3-15
  Reference state energy: -105.002503.  16 valence electrons in orbitals:
    |510>  occupation: 6  eigenvalue: -2.158104
    |520>  occupation: 9.5  eigenvalue: -0.335376
    |600>  occupation: 0  eigenvalue: -0.319640
    |610>  occupation: 0  eigenvalue: -0.122947
  lMax: 2  lLocal: 3  QijEcut: 5.5
  6 projectors sampled on a log grid with 745 points:
    l: 0  eig: -0.319640  rCut: 2.45
    l: 0  eig: 1.500000  rCut: 2.45
    l: 1  eig: -2.158104  rCut: 1.6
    l: 1  eig: -0.122947  rCut: 1.6
    l: 2  eig: -0.500000  rCut: 1.6
    l: 2  eig: -0.335375  rCut: 1.6
  Partial core density with radius 1.1
  Transforming core density to a uniform radial grid of dG=0.02 with 1383 points.
  Transforming local potential to a uniform radial grid of dG=0.02 with 1383 points.
  Transforming nonlocal projectors to a uniform radial grid of dG=0.02 with 432 points.
  Transforming density augmentations to a uniform radial grid of dG=0.02 with 1383 points.
  Transforming atomic orbitals to a uniform radial grid of dG=0.02 with 432 points.
  Core radius for overlap checks: 2.45 bohrs.

Reading pseudopotential file '/projects/musgravc/apps/jdftx-1.6.0/build/pseudopotentials/GBRV_v1.5/c_pbe_v1.2.uspp':
  Title: C.  Created by USPP 7.3.6 on 3-2-2014
  Reference state energy: -5.406344.  4 valence electrons in orbitals:
    |200>  occupation: 2  eigenvalue: -0.504890
    |210>  occupation: 2  eigenvalue: -0.194356
  lMax: 1  lLocal: 2  QijEcut: 5
  4 projectors sampled on a log grid with 503 points:
    l: 0  eig: -0.504890  rCut: 1.3
    l: 0  eig: 0.000000  rCut: 1.3
    l: 1  eig: -0.194357  rCut: 1.3
    l: 1  eig: 0.000000  rCut: 1.3
  Partial core density with radius 1.1
  Transforming core density to a uniform radial grid of dG=0.02 with 1383 points.
  Transforming local potential to a uniform radial grid of dG=0.02 with 1383 points.
  Transforming nonlocal projectors to a uniform radial grid of dG=0.02 with 432 points.
  Transforming density augmentations to a uniform radial grid of dG=0.02 with 1383 points.
  Transforming atomic orbitals to a uniform radial grid of dG=0.02 with 432 points.
  Core radius for overlap checks: 1.30 bohrs.

Reading pseudopotential file '/projects/musgravc/apps/jdftx-1.6.0/build/pseudopotentials/GBRV_v1.5/o_pbe_v1.2.uspp':
  Title: O.  Created by USPP 7.3.6 on 3-2-2014
  Reference state energy: -15.894388.  6 valence electrons in orbitals:
    |200>  occupation: 2  eigenvalue: -0.878823
    |210>  occupation: 4  eigenvalue: -0.332131
  lMax: 2  lLocal: 2  QijEcut: 6
  5 projectors sampled on a log grid with 511 points:
    l: 0  eig: -0.878823  rCut: 1.25
    l: 0  eig: 0.000000  rCut: 1.25
    l: 1  eig: -0.332132  rCut: 1.25
    l: 1  eig: 0.000000  rCut: 1.25
    l: 2  eig: 1.000000  rCut: 1.25
  Partial core density with radius 0.7
  Transforming core density to a uniform radial grid of dG=0.02 with 1383 points.
  Transforming local potential to a uniform radial grid of dG=0.02 with 1383 points.
  Transforming nonlocal projectors to a uniform radial grid of dG=0.02 with 432 points.
  Transforming density augmentations to a uniform radial grid of dG=0.02 with 1383 points.
  Transforming atomic orbitals to a uniform radial grid of dG=0.02 with 432 points.
  Core radius for overlap checks: 1.25 bohrs.

Initialized 3 species with 42 total atoms.

Folded 1 k-points by 4x3x1 to 12 k-points.

---------- Setting up k-points, bands, fillings ----------
Adding inversion symmetry to k-mesh for non-inversion-symmetric unit cell.
Reduced to 7 k-points under symmetry. 
Computing the number of bands and number of electrons
Calculating initial fillings.
nElectrons: 650.000000   nBands: 390   nStates: 14

----- Setting up reduced wavefunction bases (one per k-point) -----
average nbasis = 51909.083 , ideal nbasis = 51916.717

----- Initializing Supercell corresponding to k-point mesh -----
Lattice vector linear combinations in supercell:
[   4   0   0  ]
[   0   3   0  ]
[   0   0   1  ]
Supercell lattice vectors:
[  59.1933  -22.1975  0  ]
[  0  49.6351  0  ]
[  0  0  49.6351  ]

Initializing DFT-D3 calculator:
	Parameters set for gga-PBE functional
	s6:  1.000  s_r6:  1.217
	s8:  0.722  s_r8:  1.000
	Per-atom parameters loaded for:
	Pt:  sqrtQ[a0]:  5.888  Rcov[a0]:  2.116  CN: [ 0.00 1.92 6.67 ]
	 C:  sqrtQ[a0]:  3.105  Rcov[a0]:  1.417  CN: [ 0.00 0.99 2.00 3.00 3.98 ]
	 O:  sqrtQ[a0]:  2.594  Rcov[a0]:  1.191  CN: [ 0.00 0.99 1.99 ]

Initializing DFT-D2 calculator for fluid / solvation:
	Pt:  C6:  815.23 Eh-a0^6  R0: 3.326 a0 (WARNING: beyond Grimme's data set)
	 C:  C6:   30.35 Eh-a0^6  R0: 2.744 a0
	 O:  C6:   12.14 Eh-a0^6  R0: 2.536 a0

---------- Setting up ewald sum ----------
Optimum gaussian width for ewald sums = 4.919541 bohr.
Real space sum over 495 unit cells with max indices [  5  4  2  ]
Reciprocal space sum over 6825 terms with max indices [  6  7  17  ]

Computing DFT-D3 correction:
# coordination-number Pt 8.642 8.554 8.553 8.554 9.301 9.301 9.301 9.301 9.357 9.357 9.357 9.357 7.000 7.000 7.000 7.000 5.347 5.359 6.480 5.360 9.371 9.361 9.361 9.361 9.299 9.299 9.299 9.299 8.550 8.550 8.550 8.550 5.347 5.347 5.347 5.347 7.584 7.007 7.585 7.007
# coordination-number C 3.269
# coordination-number O 1.173
# diagonal-C6 Pt 336.87 336.87 336.87 336.87 336.87 336.87 336.87 336.87 336.87 336.87 336.87 336.87 336.87 336.87 336.87 336.87 336.87 336.87 336.87 336.87 336.87 336.87 336.87 336.87 336.87 336.87 336.87 336.87 336.87 336.87 336.87 336.87 336.87 336.87 336.87 336.87 336.87 336.87 336.87 336.87
# diagonal-C6 C 24.56
# diagonal-C6 O 12.63
EvdW_6 =   -0.305536
EvdW_8 =   -0.520692

---------- Allocating electronic variables ----------
Initializing wave functions:  linear combination of atomic orbitals
Pt pseudo-atom occupations:   s ( 0 )  p ( 6 0 )  d ( 10 )
C pseudo-atom occupations:   s ( 2 )  p ( 2 )
O pseudo-atom occupations:   s ( 2 )  p ( 4 )
	FillingsUpdate:  mu: -0.830553913  nElectrons: 650.000000  magneticMoment: [ Abs: 0.00554  Tot: +0.00001 ]
LCAOMinimize: Iter:   0  F: -3558.7751758220724696  |grad|_K:  1.529e-02  alpha:  1.000e+00
LCAOMinimize: 	Step increased F by 1.604549e+02, reducing alpha to 2.188513e-02.
	FillingsUpdate:  mu: -0.414149827  nElectrons: 650.000000  magneticMoment: [ Abs: 0.00447  Tot: -0.00024 ]
LCAOMinimize: Iter:   1  F: -3571.8331306352683896  |grad|_K:  7.316e-03  alpha:  2.189e-02  linmin: -1.786e-01  cgtest:  7.403e-01  t[s]:    206.74
LCAOMinimize: Encountered beta<0, resetting CG.
	FillingsUpdate:  mu: +0.038951374  nElectrons: 650.000000  magneticMoment: [ Abs: 0.00386  Tot: -0.00001 ]
LCAOMinimize: Iter:   2  F: -3574.6453436535621222  |grad|_K:  7.710e-03  alpha:  3.515e-02  linmin:  3.365e-02  cgtest: -1.217e-01  t[s]:    267.87
	FillingsUpdate:  mu: +0.222815836  nElectrons: 650.000000  magneticMoment: [ Abs: 0.00354  Tot: +0.00003 ]
LCAOMinimize: Iter:   3  F: -3575.7353079433864878  |grad|_K:  5.229e-03  alpha:  1.517e-02  linmin:  3.359e-03  cgtest:  4.701e-01  t[s]:    329.00
	FillingsUpdate:  mu: +0.002649733  nElectrons: 650.000000  magneticMoment: [ Abs: 0.00334  Tot: -0.00008 ]
LCAOMinimize: Iter:   4  F: -3577.5924537619994226  |grad|_K:  3.540e-03  alpha:  4.354e-02  linmin:  1.446e-02  cgtest: -1.924e-01  t[s]:    389.67
	FillingsUpdate:  mu: +0.000903059  nElectrons: 650.000000  magneticMoment: [ Abs: 0.00324  Tot: -0.00010 ]
LCAOMinimize: Iter:   5  F: -3577.9373937696632311  |grad|_K:  3.055e-03  alpha:  1.927e-02  linmin:  5.282e-03  cgtest:  6.257e-02  t[s]:    450.35
	FillingsUpdate:  mu: +0.125604340  nElectrons: 650.000000  magneticMoment: [ Abs: 0.00289  Tot: -0.00001 ]
LCAOMinimize: Iter:   6  F: -3578.8720410992764300  |grad|_K:  1.120e-03  alpha:  5.718e-02  linmin: -4.917e-02  cgtest:  9.993e-02  t[s]:    510.89
	FillingsUpdate:  mu: +0.136801882  nElectrons: 650.000000  magneticMoment: [ Abs: 0.00282  Tot: +0.00001 ]
LCAOMinimize: Iter:   7  F: -3578.9804933534728661  |grad|_K:  1.700e-03  alpha:  4.762e-02  linmin: -1.610e-03  cgtest: -8.717e-02  t[s]:    571.21
	FillingsUpdate:  mu: +0.096112097  nElectrons: 650.000000  magneticMoment: [ Abs: 0.00267  Tot: -0.00004 ]
LCAOMinimize: Iter:   8  F: -3579.1470579776273553  |grad|_K:  1.373e-03  alpha:  3.471e-02  linmin: -9.929e-04  cgtest:  7.776e-02  t[s]:    631.72
	FillingsUpdate:  mu: +0.173461080  nElectrons: 650.000000  magneticMoment: [ Abs: 0.00249  Tot: +0.00005 ]
LCAOMinimize: Iter:   9  F: -3579.3666097543004980  |grad|_K:  1.073e-03  alpha:  6.997e-02  linmin:  2.421e-03  cgtest: -3.451e-02  t[s]:    692.31
	FillingsUpdate:  mu: +0.161385206  nElectrons: 650.000000  magneticMoment: [ Abs: 0.00247  Tot: +0.00007 ]
LCAOMinimize: Iter:  10  F: -3579.3927919724678759  |grad|_K:  5.887e-04  alpha:  1.347e-02  linmin: -5.232e-03  cgtest:  1.522e-01  t[s]:    752.70
LCAOMinimize: 	Predicted alpha/alphaT>3.000000, increasing alphaT to 4.040433e-02.
	FillingsUpdate:  mu: +0.134061026  nElectrons: 650.000000  magneticMoment: [ Abs: 0.00243  Tot: +0.00007 ]
LCAOMinimize: Iter:  11  F: -3579.4314975326410604  |grad|_K:  4.376e-04  alpha:  6.494e-02  linmin: -1.648e-04  cgtest: -1.177e-01  t[s]:    829.20
	FillingsUpdate:  mu: +0.150969508  nElectrons: 650.000000  magneticMoment: [ Abs: 0.00239  Tot: +0.00006 ]
LCAOMinimize: Iter:  12  F: -3579.4569331058123680  |grad|_K:  5.965e-04  alpha:  7.995e-02  linmin:  1.710e-03  cgtest: -2.521e-02  t[s]:    889.75
	FillingsUpdate:  mu: +0.147076860  nElectrons: 650.000000  magneticMoment: [ Abs: 0.00237  Tot: +0.00006 ]
LCAOMinimize: Iter:  13  F: -3579.4650224414172044  |grad|_K:  2.120e-04  alpha:  1.269e-02  linmin: -1.909e-02  cgtest:  4.305e-01  t[s]:    950.28
LCAOMinimize: Encountered beta<0, resetting CG.
LCAOMinimize: 	Predicted alpha/alphaT>3.000000, increasing alphaT to 3.807509e-02.
	FillingsUpdate:  mu: +0.137616221  nElectrons: 650.000000  magneticMoment: [ Abs: 0.00237  Tot: +0.00007 ]
LCAOMinimize: Iter:  14  F: -3579.4689633469643013  |grad|_K:  2.275e-04  alpha:  5.234e-02  linmin: -3.946e-04  cgtest:  1.218e-03  t[s]:   1026.90
	FillingsUpdate:  mu: +0.133773196  nElectrons: 650.000000  magneticMoment: [ Abs: 0.00237  Tot: +0.00007 ]
LCAOMinimize: Iter:  15  F: -3579.4707842997850094  |grad|_K:  1.683e-04  alpha:  2.116e-02  linmin:  8.544e-04  cgtest: -2.669e-02  t[s]:   1087.66
	FillingsUpdate:  mu: +0.135704818  nElectrons: 650.000000  magneticMoment: [ Abs: 0.00236  Tot: +0.00008 ]
LCAOMinimize: Iter:  16  F: -3579.4734578171792236  |grad|_K:  1.059e-04  alpha:  5.678e-02  linmin:  2.973e-04  cgtest:  3.771e-02  t[s]:   1148.54
	FillingsUpdate:  mu: +0.129572014  nElectrons: 650.000000  magneticMoment: [ Abs: 0.00235  Tot: +0.00008 ]
LCAOMinimize: Iter:  17  F: -3579.4754951058489496  |grad|_K:  6.666e-05  alpha:  1.089e-01  linmin:  8.977e-04  cgtest:  4.942e-03  t[s]:   1209.42
	FillingsUpdate:  mu: +0.129665541  nElectrons: 650.000000  magneticMoment: [ Abs: 0.00235  Tot: +0.00008 ]
LCAOMinimize: Iter:  18  F: -3579.4762723785174785  |grad|_K:  9.902e-05  alpha:  1.049e-01  linmin:  2.187e-04  cgtest:  4.015e-03  t[s]:   1270.16
	FillingsUpdate:  mu: +0.129670001  nElectrons: 650.000000  magneticMoment: [ Abs: 0.00235  Tot: +0.00008 ]
LCAOMinimize: Iter:  19  F: -3579.4764986040231634  |grad|_K:  2.709e-05  alpha:  1.376e-02  linmin: -1.379e-03  cgtest:  3.061e-02  t[s]:   1330.69
LCAOMinimize: 	Predicted alpha/alphaT>3.000000, increasing alphaT to 4.129286e-02.
	FillingsUpdate:  mu: +0.130397862  nElectrons: 650.000000  magneticMoment: [ Abs: 0.00235  Tot: +0.00009 ]
LCAOMinimize: Iter:  20  F: -3579.4766446375515443  |grad|_K:  2.282e-05  alpha:  1.184e-01  linmin:  1.275e-04  cgtest: -1.056e-02  t[s]:   1407.10
	FillingsUpdate:  mu: +0.130284943  nElectrons: 650.000000  magneticMoment: [ Abs: 0.00235  Tot: +0.00010 ]
LCAOMinimize: Iter:  21  F: -3579.4767349321982692  |grad|_K:  2.191e-05  alpha:  1.037e-01  linmin:  9.250e-06  cgtest:  4.102e-03  t[s]:   1467.84
	FillingsUpdate:  mu: +0.130640927  nElectrons: 650.000000  magneticMoment: [ Abs: 0.00236  Tot: +0.00010 ]
LCAOMinimize: Iter:  22  F: -3579.4767621682235585  |grad|_K:  2.730e-05  alpha:  3.383e-02  linmin: -8.439e-05  cgtest:  9.842e-04  t[s]:   1528.50
	FillingsUpdate:  mu: +0.131257265  nElectrons: 650.000000  magneticMoment: [ Abs: 0.00236  Tot: +0.00011 ]
LCAOMinimize: Iter:  23  F: -3579.4768032325700915  |grad|_K:  1.007e-05  alpha:  3.285e-02  linmin:  6.035e-05  cgtest: -1.183e-02  t[s]:   1589.01
	FillingsUpdate:  mu: +0.130886558  nElectrons: 650.000000  magneticMoment: [ Abs: 0.00236  Tot: +0.00011 ]
LCAOMinimize: Iter:  24  F: -3579.4768110054692443  |grad|_K:  4.380e-06  alpha:  4.582e-02  linmin: -2.774e-05  cgtest:  2.179e-03  t[s]:   1649.74
	FillingsUpdate:  mu: +0.131032645  nElectrons: 650.000000  magneticMoment: [ Abs: 0.00236  Tot: +0.00012 ]
LCAOMinimize: Iter:  25  F: -3579.4768141032973290  |grad|_K:  2.456e-06  alpha:  9.645e-02  linmin:  5.471e-05  cgtest: -3.631e-04  t[s]:   1710.98
	FillingsUpdate:  mu: +0.131078476  nElectrons: 650.000000  magneticMoment: [ Abs: 0.00237  Tot: +0.00012 ]
LCAOMinimize: Iter:  26  F: -3579.4768153943919060  |grad|_K:  2.170e-06  alpha:  1.279e-01  linmin:  5.126e-05  cgtest: -6.391e-07  t[s]:   1771.52
	FillingsUpdate:  mu: +0.131070088  nElectrons: 650.000000  magneticMoment: [ Abs: 0.00237  Tot: +0.00012 ]
LCAOMinimize: Iter:  27  F: -3579.4768155820056563  |grad|_K:  2.300e-06  alpha:  2.369e-02  linmin: -1.719e-05  cgtest:  7.020e-04  t[s]:   1832.11
LCAOMinimize: 	Predicted alpha/alphaT>3.000000, increasing alphaT to 7.107504e-02.
	FillingsUpdate:  mu: +0.131022699  nElectrons: 650.000000  magneticMoment: [ Abs: 0.00237  Tot: +0.00013 ]
LCAOMinimize: Iter:  28  F: -3579.4768162614705034  |grad|_K:  1.723e-06  alpha:  7.667e-02  linmin: -7.656e-05  cgtest: -2.009e-03  t[s]:   1908.51
LCAOMinimize: Converged (|Delta F|<1.000000e-06 for 2 iters).
----- createFluidSolver() ----- (Fluid-side solver setup)
   Initializing fluid molecule 'H2O'
     Initializing site 'O'
       Electron density: proportional to exp(-r/0.36935)*erfc((r-0.51523)/0.36823) with norm 6.826
       Charge density: gaussian nuclear width 0.478731 with net site charge 0.826
       Polarizability: cuspless exponential with width 0.32 and norm 3.73
       Hard sphere radius: 2.57003 bohrs
       Positions in reference frame:
         [ +0.000000 +0.000000 +0.000000 ]
     Initializing site 'H'
       Electron density: proportional to exp(-r/0.34641)*erfc((r-0)/0.390882) with norm 0.587
       Charge density: gaussian nuclear width 0.377945 with net site charge -0.413
       Polarizability: cuspless exponential with width 0.39 and norm 3.3
       Positions in reference frame:
         [ +0.000000 -1.441945 +1.122523 ]
         [ +0.000000 +1.441945 +1.122523 ]
     Net charge: 0   dipole magnitude: 0.927204
     Initializing spherical shell mfKernel with radius 2.61727 Bohr
     deltaS corrections:
       site 'O': -7.54299
       site 'H': -6.83917
   Initializing fluid molecule 'Na+'
     Initializing site 'Na'
       Electron density: proportional to exp(-r/0.19682)*erfc((r-0.71491)/0.41314) with norm 8.1383
       Charge density: gaussian nuclear width 0.365347 with net site charge -1
       Hard sphere radius: 1.86327 bohrs
       Positions in reference frame:
         [ +0.000000 +0.000000 +0.000000 ]
     Net charge: -1   dipole magnitude: 0
     Initializing gaussian mfKernel with width: 1.55004 Bohr
     deltaS corrections:
       site 'Na': -22.3555
   Initializing fluid molecule 'F-'
     Initializing site 'F'
       Electron density: proportional to exp(-r/0.38886)*erfc((r-0)/0.438782) with norm 8
       Charge density: gaussian nuclear width 0.374796 with net site charge 1
       Hard sphere radius: 2.39995 bohrs
       Positions in reference frame:
         [ +0.000000 +0.000000 +0.000000 ]
     Net charge: 1   dipole magnitude: 0
     Initializing gaussian mfKernel with width: 1.59012 Bohr
     deltaS corrections:
       site 'F': -9.04335

Correction to mu due to finite nuclear width = -0.0530695
   Cavity determined by nc: 0.00142 and sigma: 0.707107
   Nonlocal vdW cavity from gaussian model electron density with norm = 8 and sigma = 0.993594 bohr
   Charge asymmetry in cavity with sensitivity pCavity = 36.5 e-bohr/Eh
   Electrostatic cavity expanded by eta = 1.46 bohrs
   Weighted density cavitation model constrained by Nbulk: 0.0049383 bohr^-3, Pvap: 3.14029 kPa, Rvdw: 2.61727 bohr and sigmaBulk: 4.62e-05 Eh/bohr^2 at T: 298 K.
   Weighted density dispersion model using vdW pair potentials with single solvent site with sqrtC6eff: 0.77 SI.


---- Citations for features of the code used in this run ----

   Software package:
      R. Sundararaman, K. Letchworth-Weaver, K.A. Schwarz, D. Gunceler, Y. Ozhabes and T.A. Arias, 'JDFTx: software for joint density-functional theory', SoftwareX 6, 278 (2017)

   gga-PBE exchange-correlation functional:
      J.P. Perdew, K. Burke and M. Ernzerhof, Phys. Rev. Lett. 77, 3865 (1996)

   Pseudopotentials:
      KF Garrity, JW Bennett, KM Rabe and D Vanderbilt, Comput. Mater. Sci. 81, 446 (2014)

   DFT-D3 dispersion correction:
      S. Grimme, J. Antony, S. Ehrlich and H. Krieg, J. Chem. Phys. 132, 154104 (2010)

   DFT-D2 dispersion correction:
      S. Grimme, J. Comput. Chem. 27, 1787 (2006)

   Charge-asymmetric nonlocally-determined local-electric (CANDLE) solvation model:
      R. Sundararaman and W.A. Goddard III, J. Chem. Phys. 142, 064107 (2015)

   Total energy minimization with Auxiliary Hamiltonian:
      C. Freysoldt, S. Boeck, and J. Neugebauer, Phys. Rev. B 79, 241103(R) (2009)

   Linear-tetrahedron sampling for density of states:
      G. Lehmann and M. Taut, Phys. status solidi (b) 54, 469 (1972)

This list may not be complete. Please suggest additional citations or
report any other bugs at https://github.com/shankar1729/jdftx/issues

Initialization completed successfully at t[s]:   1928.94


Computing DFT-D3 correction:
# coordination-number Pt 8.642 8.554 8.553 8.554 9.301 9.301 9.301 9.301 9.357 9.357 9.357 9.357 7.000 7.000 7.000 7.000 5.347 5.359 6.480 5.360 9.371 9.361 9.361 9.361 9.299 9.299 9.299 9.299 8.550 8.550 8.550 8.550 5.347 5.347 5.347 5.347 7.584 7.007 7.585 7.007
# coordination-number C 3.269
# coordination-number O 1.173
# diagonal-C6 Pt 336.87 336.87 336.87 336.87 336.87 336.87 336.87 336.87 336.87 336.87 336.87 336.87 336.87 336.87 336.87 336.87 336.87 336.87 336.87 336.87 336.87 336.87 336.87 336.87 336.87 336.87 336.87 336.87 336.87 336.87 336.87 336.87 336.87 336.87 336.87 336.87 336.87 336.87 336.87 336.87
# diagonal-C6 C 24.56
# diagonal-C6 O 12.63
EvdW_6 =   -0.305536
EvdW_8 =   -0.520692
Fluid solver invoked on fresh (random / LCAO) wavefunctions
Running a vacuum solve first:

-------- Initial electronic minimization -----------
	FillingsUpdate:  mu: +0.131022700  nElectrons: 650.000000  magneticMoment: [ Abs: 0.00237  Tot: +0.00013 ]
ElecMinimize: Iter:   0  F: -3579.476816261478234  |grad|_K:  6.847e-05  alpha:  1.000e+00
	FillingsUpdate:  mu: +0.166613434  nElectrons: 650.000000  magneticMoment: [ Abs: 0.00182  Tot: +0.00014 ]
	SubspaceRotationAdjust: set factor to 0.999
ElecMinimize: Iter:   1  F: -3580.053282737604604  |grad|_K:  3.643e-05  alpha:  4.366e-01  linmin:  3.820e-05  t[s]:   2090.09
	FillingsUpdate:  mu: +0.149058023  nElectrons: 650.000000  magneticMoment: [ Abs: 0.00159  Tot: +0.00012 ]
	SubspaceRotationAdjust: set factor to 0.547
ElecMinimize: Iter:   2  F: -3580.121366926199244  |grad|_K:  7.898e-05  alpha:  1.855e-01  linmin:  3.896e-05  t[s]:   2194.60
	FillingsUpdate:  mu: +0.134725609  nElectrons: 650.000000  magneticMoment: [ Abs: 0.00144  Tot: +0.00010 ]
	SubspaceRotationAdjust: set factor to 0.326
ElecMinimize: Iter:   3  F: -3580.162244230797114  |grad|_K:  4.691e-05  alpha:  2.325e-02  linmin: -9.680e-06  t[s]:   2299.30
	FillingsUpdate:  mu: +0.145439915  nElectrons: 650.000000  magneticMoment: [ Abs: 0.00127  Tot: +0.00010 ]
	SubspaceRotationAdjust: set factor to 0.295
ElecMinimize: Iter:   4  F: -3580.199017526369516  |grad|_K:  1.700e-05  alpha:  5.880e-02  linmin:  2.209e-05  t[s]:   2404.43
ElecMinimize: 	Predicted alpha/alphaT>3.000000, increasing alphaT to 1.764095e-01.
	FillingsUpdate:  mu: +0.159394783  nElectrons: 650.000000  magneticMoment: [ Abs: 0.00108  Tot: +0.00009 ]
	SubspaceRotationAdjust: set factor to 0.172
ElecMinimize: Iter:   5  F: -3580.215259826499278  |grad|_K:  2.733e-05  alpha:  1.992e-01  linmin:  1.176e-05  t[s]:   2535.74
	FillingsUpdate:  mu: +0.151085971  nElectrons: 650.000000  magneticMoment: [ Abs: 0.00091  Tot: +0.00008 ]
	SubspaceRotationAdjust: set factor to 0.233
ElecMinimize: Iter:   6  F: -3580.228916828395541  |grad|_K:  9.354e-06  alpha:  6.485e-02  linmin:  1.688e-05  t[s]:   2640.36
ElecMinimize: 	Predicted alpha/alphaT>3.000000, increasing alphaT to 1.945507e-01.
	FillingsUpdate:  mu: +0.143568083  nElectrons: 650.000000  magneticMoment: [ Abs: 0.00076  Tot: +0.00007 ]
	SubspaceRotationAdjust: set factor to 0.168
ElecMinimize: Iter:   7  F: -3580.234919744917079  |grad|_K:  1.057e-05  alpha:  2.420e-01  linmin: -1.156e-05  t[s]:   2771.38
	FillingsUpdate:  mu: +0.142459299  nElectrons: 650.000000  magneticMoment: [ Abs: 0.00068  Tot: +0.00007 ]
	SubspaceRotationAdjust: set factor to 0.127
	SubspaceRotationAdjust: resetting CG because factor has changed by 0.127446
ElecMinimize: 	State modified externally: resetting search direction.
ElecMinimize: Iter:   8  F: -3580.237408148228951  |grad|_K:  6.574e-06  alpha:  7.831e-02
	FillingsUpdate:  mu: +0.146939008  nElectrons: 650.000000  magneticMoment: [ Abs: 0.00065  Tot: +0.00007 ]
	SubspaceRotationAdjust: set factor to 0.105
ElecMinimize: Iter:   9  F: -3580.239459571454972  |grad|_K:  4.901e-06  alpha:  1.672e-01  linmin:  1.503e-04  t[s]:   3029.86
	FillingsUpdate:  mu: +0.149412242  nElectrons: 650.000000  magneticMoment: [ Abs: 0.00061  Tot: +0.00007 ]
	SubspaceRotationAdjust: set factor to 0.074
ElecMinimize: Iter:  10  F: -3580.240623331347706  |grad|_K:  3.297e-06  alpha:  1.709e-01  linmin:  2.226e-05  t[s]:   3134.55
	FillingsUpdate:  mu: +0.146023926  nElectrons: 650.000000  magneticMoment: [ Abs: 0.00048  Tot: +0.00007 ]
	SubspaceRotationAdjust: set factor to 0.0814
ElecMinimize: Iter:  11  F: -3580.242194665721854  |grad|_K:  2.311e-06  alpha:  5.090e-01  linmin:  2.541e-05  t[s]:   3239.13
	FillingsUpdate:  mu: +0.147240440  nElectrons: 650.000000  magneticMoment: [ Abs: 0.00041  Tot: +0.00006 ]
	SubspaceRotationAdjust: set factor to 0.0748
ElecMinimize: Iter:  12  F: -3580.242882432128226  |grad|_K:  2.212e-06  alpha:  4.535e-01  linmin: -1.489e-06  t[s]:   3343.72
	FillingsUpdate:  mu: +0.148019667  nElectrons: 650.000000  magneticMoment: [ Abs: 0.00038  Tot: +0.00006 ]
	SubspaceRotationAdjust: set factor to 0.0517
ElecMinimize: Iter:  13  F: -3580.243184583032416  |grad|_K:  1.466e-06  alpha:  2.170e-01  linmin: -2.858e-07  t[s]:   3448.32
	FillingsUpdate:  mu: +0.148052801  nElectrons: 650.000000  magneticMoment: [ Abs: 0.00035  Tot: +0.00006 ]
	SubspaceRotationAdjust: set factor to 0.0632
ElecMinimize: Iter:  14  F: -3580.243439532416687  |grad|_K:  1.001e-06  alpha:  4.172e-01  linmin:  6.629e-06  t[s]:   3553.10
	FillingsUpdate:  mu: +0.147840775  nElectrons: 650.000000  magneticMoment: [ Abs: 0.00034  Tot: +0.00006 ]
	SubspaceRotationAdjust: set factor to 0.0683
ElecMinimize: Iter:  15  F: -3580.243577259393987  |grad|_K:  8.074e-07  alpha:  4.832e-01  linmin:  5.131e-06  t[s]:   3657.52
	FillingsUpdate:  mu: +0.147922771  nElectrons: 650.000000  magneticMoment: [ Abs: 0.00032  Tot: +0.00006 ]
	SubspaceRotationAdjust: set factor to 0.0585
ElecMinimize: Iter:  16  F: -3580.243637282193959  |grad|_K:  7.711e-07  alpha:  3.238e-01  linmin:  7.396e-08  t[s]:   3762.08
	FillingsUpdate:  mu: +0.148046349  nElectrons: 650.000000  magneticMoment: [ Abs: 0.00030  Tot: +0.00006 ]
	SubspaceRotationAdjust: set factor to 0.0623
ElecMinimize: Iter:  17  F: -3580.243731528033550  |grad|_K:  7.288e-07  alpha:  5.575e-01  linmin:  3.563e-06  t[s]:   3866.69
	FillingsUpdate:  mu: +0.147735868  nElectrons: 650.000000  magneticMoment: [ Abs: 0.00027  Tot: +0.00006 ]
	SubspaceRotationAdjust: set factor to 0.0729
ElecMinimize: Iter:  18  F: -3580.243828484075493  |grad|_K:  6.322e-07  alpha:  6.425e-01  linmin:  4.709e-06  t[s]:   3971.56
	FillingsUpdate:  mu: +0.147893672  nElectrons: 650.000000  magneticMoment: [ Abs: 0.00025  Tot: +0.00005 ]
	SubspaceRotationAdjust: set factor to 0.0654
ElecMinimize: Iter:  19  F: -3580.243881510252777  |grad|_K:  6.840e-07  alpha:  4.669e-01  linmin:  2.634e-07  t[s]:   4076.26
	FillingsUpdate:  mu: +0.148055966  nElectrons: 650.000000  magneticMoment: [ Abs: 0.00022  Tot: +0.00005 ]
	SubspaceRotationAdjust: set factor to 0.0504
ElecMinimize: Iter:  20  F: -3580.243923756544518  |grad|_K:  5.684e-07  alpha:  3.174e-01  linmin: -8.059e-08  t[s]:   4180.94
	FillingsUpdate:  mu: +0.148152817  nElectrons: 650.000000  magneticMoment: [ Abs: 0.00018  Tot: +0.00005 ]
	SubspaceRotationAdjust: set factor to 0.0549
ElecMinimize: Iter:  21  F: -3580.243978016236269  |grad|_K:  4.825e-07  alpha:  5.901e-01  linmin: -2.720e-06  t[s]:   4285.44
	FillingsUpdate:  mu: +0.148172960  nElectrons: 650.000000  magneticMoment: [ Abs: 0.00015  Tot: +0.00005 ]
	SubspaceRotationAdjust: set factor to 0.0557
ElecMinimize: Iter:  22  F: -3580.244011499798034  |grad|_K:  3.993e-07  alpha:  5.051e-01  linmin: -1.304e-06  t[s]:   4390.05
	FillingsUpdate:  mu: +0.148123548  nElectrons: 650.000000  magneticMoment: [ Abs: 0.00013  Tot: +0.00004 ]
	SubspaceRotationAdjust: set factor to 0.0452
ElecMinimize: Iter:  23  F: -3580.244029235686412  |grad|_K:  3.182e-07  alpha:  3.908e-01  linmin: -6.344e-07  t[s]:   4494.60
	FillingsUpdate:  mu: +0.148114979  nElectrons: 650.000000  magneticMoment: [ Abs: 0.00012  Tot: +0.00004 ]
	SubspaceRotationAdjust: set factor to 0.0392
ElecMinimize: Iter:  24  F: -3580.244039678490935  |grad|_K:  2.141e-07  alpha:  3.625e-01  linmin: -8.616e-07  t[s]:   4599.03
	FillingsUpdate:  mu: +0.148153097  nElectrons: 650.000000  magneticMoment: [ Abs: 0.00011  Tot: +0.00004 ]
	SubspaceRotationAdjust: set factor to 0.0451
ElecMinimize: Iter:  25  F: -3580.244045816840298  |grad|_K:  1.686e-07  alpha:  4.708e-01  linmin: -2.275e-07  t[s]:   4703.59
	FillingsUpdate:  mu: +0.148144046  nElectrons: 650.000000  magneticMoment: [ Abs: 0.00010  Tot: +0.00004 ]
	SubspaceRotationAdjust: set factor to 0.0465
ElecMinimize: Iter:  26  F: -3580.244049703148448  |grad|_K:  1.431e-07  alpha:  4.802e-01  linmin: -6.063e-07  t[s]:   4808.96
	FillingsUpdate:  mu: +0.148121431  nElectrons: 650.000000  magneticMoment: [ Abs: 0.00010  Tot: +0.00004 ]
	SubspaceRotationAdjust: set factor to 0.0456
ElecMinimize: Iter:  27  F: -3580.244052279594143  |grad|_K:  1.105e-07  alpha:  4.420e-01  linmin: -8.951e-07  t[s]:   4913.54
	FillingsUpdate:  mu: +0.148137602  nElectrons: 650.000000  magneticMoment: [ Abs: 0.00009  Tot: +0.00004 ]
	SubspaceRotationAdjust: set factor to 0.0507
ElecMinimize: Iter:  28  F: -3580.244053956122116  |grad|_K:  9.137e-08  alpha:  4.821e-01  linmin: -3.097e-07  t[s]:   5018.12
	FillingsUpdate:  mu: +0.148154432  nElectrons: 650.000000  magneticMoment: [ Abs: 0.00009  Tot: +0.00004 ]
	SubspaceRotationAdjust: set factor to 0.0592
ElecMinimize: Iter:  29  F: -3580.244055174919140  |grad|_K:  8.534e-08  alpha:  5.132e-01  linmin:  2.748e-07  t[s]:   5122.84
	FillingsUpdate:  mu: +0.148144121  nElectrons: 650.000000  magneticMoment: [ Abs: 0.00008  Tot: +0.00004 ]
	SubspaceRotationAdjust: set factor to 0.064
ElecMinimize: Iter:  30  F: -3580.244056296284725  |grad|_K:  8.097e-08  alpha:  5.416e-01  linmin:  1.029e-06  t[s]:   5227.54
	FillingsUpdate:  mu: +0.148148425  nElectrons: 650.000000  magneticMoment: [ Abs: 0.00008  Tot: +0.00003 ]
	SubspaceRotationAdjust: set factor to 0.0575
ElecMinimize: Iter:  31  F: -3580.244057191655884  |grad|_K:  8.335e-08  alpha:  4.805e-01  linmin:  1.978e-07  t[s]:   5332.15
	FillingsUpdate:  mu: +0.148167043  nElectrons: 650.000000  magneticMoment: [ Abs: 0.00007  Tot: +0.00003 ]
	SubspaceRotationAdjust: set factor to 0.05
ElecMinimize: Iter:  32  F: -3580.244057911694199  |grad|_K:  6.275e-08  alpha:  3.643e-01  linmin: -3.195e-08  t[s]:   5436.53
	FillingsUpdate:  mu: +0.148166900  nElectrons: 650.000000  magneticMoment: [ Abs: 0.00006  Tot: +0.00003 ]
	SubspaceRotationAdjust: set factor to 0.0544
ElecMinimize: Iter:  33  F: -3580.244058485175628  |grad|_K:  4.713e-08  alpha:  5.124e-01  linmin:  1.459e-06  t[s]:   5541.11
	FillingsUpdate:  mu: +0.148154448  nElectrons: 650.000000  magneticMoment: [ Abs: 0.00006  Tot: +0.00003 ]
	SubspaceRotationAdjust: set factor to 0.0561
ElecMinimize: Iter:  34  F: -3580.244058824921012  |grad|_K:  4.075e-08  alpha:  5.380e-01  linmin:  6.587e-07  t[s]:   5646.53
	FillingsUpdate:  mu: +0.148152291  nElectrons: 650.000000  magneticMoment: [ Abs: 0.00006  Tot: +0.00003 ]
	SubspaceRotationAdjust: set factor to 0.0491
ElecMinimize: Iter:  35  F: -3580.244059012608886  |grad|_K:  3.296e-08  alpha:  3.975e-01  linmin: -6.960e-08  t[s]:   5751.18
	FillingsUpdate:  mu: +0.148149151  nElectrons: 650.000000  magneticMoment: [ Abs: 0.00005  Tot: +0.00003 ]
	SubspaceRotationAdjust: set factor to 0.0438
ElecMinimize: Iter:  36  F: -3580.244059136929536  |grad|_K:  2.411e-08  alpha:  4.014e-01  linmin: -1.329e-06  t[s]:   5855.93
	FillingsUpdate:  mu: +0.148145127  nElectrons: 650.000000  magneticMoment: [ Abs: 0.00005  Tot: +0.00003 ]
	SubspaceRotationAdjust: set factor to 0.0487
ElecMinimize: Iter:  37  F: -3580.244059211638159  |grad|_K:  1.833e-08  alpha:  4.503e-01  linmin: -4.748e-06  t[s]:   5960.61
	FillingsUpdate:  mu: +0.148145626  nElectrons: 650.000000  magneticMoment: [ Abs: 0.00005  Tot: +0.00003 ]
	SubspaceRotationAdjust: set factor to 0.0558
ElecMinimize: Iter:  38  F: -3580.244059254044259  |grad|_K:  1.472e-08  alpha:  4.386e-01  linmin: -4.628e-06  t[s]:   6065.26
ElecMinimize: Converged (|Delta F|<1.000000e-07 for 2 iters).
Setting wave functions to eigenvectors of Hamiltonian
Converging empty states (this may take a while): |deigs|: 2.546e-03
Vacuum energy after initial minimize, F = -3580.244059254044259


-------- Electronic minimization -----------
	Linear fluid (dielectric constant: 78.4, screening length: 8.12261 Bohr) occupying 0.480898 of unit cell:	Completed after 27 iterations at t[s]:   6643.25
	FillingsUpdate:  mu: -0.193137023  nElectrons: 650.000000  magneticMoment: [ Abs: 0.00002  Tot: +0.00002 ]
ElecMinimize: Iter:   0  F: -3580.255181559231005  |grad|_K:  1.025e-06  alpha:  1.000e+00
	Linear fluid (dielectric constant: 78.4, screening length: 8.12261 Bohr) occupying 0.481650 of unit cell:	Completed after 18 iterations at t[s]:   6733.94
	Linear fluid (dielectric constant: 78.4, screening length: 8.12261 Bohr) occupying 0.481690 of unit cell:	Completed after 7 iterations at t[s]:   6764.62
	FillingsUpdate:  mu: -0.190804380  nElectrons: 650.000000  magneticMoment: [ Abs: 0.00002  Tot: +0.00002 ]
	SubspaceRotationAdjust: set factor to 0.0586
ElecMinimize: Iter:   1  F: -3580.255496067123659  |grad|_K:  1.054e-06  alpha:  1.053e+00  linmin: -5.077e-07  t[s]:   6805.11
	Linear fluid (dielectric constant: 78.4, screening length: 8.12261 Bohr) occupying 0.482851 of unit cell:	Completed after 18 iterations at t[s]:   6849.76
	Linear fluid (dielectric constant: 78.4, screening length: 8.12261 Bohr) occupying 0.482216 of unit cell:	Completed after 16 iterations at t[s]:   6882.67
	FillingsUpdate:  mu: -0.190746002  nElectrons: 650.000000  magneticMoment: [ Abs: 0.00002  Tot: +0.00002 ]
	SubspaceRotationAdjust: set factor to 0.0585
ElecMinimize: Iter:   2  F: -3580.255646055728448  |grad|_K:  6.930e-07  alpha:  4.749e-01  linmin:  3.068e-07  t[s]:   6923.05
	Linear fluid (dielectric constant: 78.4, screening length: 8.12261 Bohr) occupying 0.482477 of unit cell:	Completed after 12 iterations at t[s]:   6965.78
	Linear fluid (dielectric constant: 78.4, screening length: 8.12261 Bohr) occupying 0.482553 of unit cell:	Completed after 8 iterations at t[s]:   6996.77
	FillingsUpdate:  mu: -0.190588051  nElectrons: 650.000000  magneticMoment: [ Abs: 0.00002  Tot: +0.00002 ]
	SubspaceRotationAdjust: set factor to 0.0708
ElecMinimize: Iter:   3  F: -3580.255729851673095  |grad|_K:  5.618e-07  alpha:  6.140e-01  linmin:  5.270e-09  t[s]:   7037.35
	Linear fluid (dielectric constant: 78.4, screening length: 8.12261 Bohr) occupying 0.482761 of unit cell:	Completed after 10 iterations at t[s]:   7079.54
	Linear fluid (dielectric constant: 78.4, screening length: 8.12261 Bohr) occupying 0.482797 of unit cell:	Completed after 7 iterations at t[s]:   7110.73
	FillingsUpdate:  mu: -0.189773708  nElectrons: 650.000000  magneticMoment: [ Abs: 0.00002  Tot: +0.00001 ]
	SubspaceRotationAdjust: set factor to 0.0855
ElecMinimize: Iter:   4  F: -3580.255794715696538  |grad|_K:  5.285e-07  alpha:  7.219e-01  linmin: -2.621e-07  t[s]:   7151.66
	Linear fluid (dielectric constant: 78.4, screening length: 8.12261 Bohr) occupying 0.482982 of unit cell:	Completed after 11 iterations at t[s]:   7194.18
	Linear fluid (dielectric constant: 78.4, screening length: 8.12261 Bohr) occupying 0.482993 of unit cell:	Completed after 2 iterations at t[s]:   7223.68
	FillingsUpdate:  mu: -0.189711769  nElectrons: 650.000000  magneticMoment: [ Abs: 0.00002  Tot: +0.00001 ]
	SubspaceRotationAdjust: set factor to 0.0989
ElecMinimize: Iter:   5  F: -3580.255855726813479  |grad|_K:  5.225e-07  alpha:  7.656e-01  linmin: -1.772e-07  t[s]:   7264.17
	Linear fluid (dielectric constant: 78.4, screening length: 8.12261 Bohr) occupying 0.483151 of unit cell:	Completed after 12 iterations at t[s]:   7306.92
	Linear fluid (dielectric constant: 78.4, screening length: 8.12261 Bohr) occupying 0.483144 of unit cell:	Completed after 2 iterations at t[s]:   7336.37
	FillingsUpdate:  mu: -0.189081803  nElectrons: 650.000000  magneticMoment: [ Abs: 0.00002  Tot: +0.00001 ]
	SubspaceRotationAdjust: set factor to 0.109
ElecMinimize: Iter:   6  F: -3580.255912657307363  |grad|_K:  4.713e-07  alpha:  7.312e-01  linmin: -8.285e-08  t[s]:   7376.85
	Linear fluid (dielectric constant: 78.4, screening length: 8.12261 Bohr) occupying 0.483246 of unit cell:	Completed after 10 iterations at t[s]:   7419.24
	Linear fluid (dielectric constant: 78.4, screening length: 8.12261 Bohr) occupying 0.483237 of unit cell:	Completed after 2 iterations at t[s]:   7448.90
	FillingsUpdate:  mu: -0.189303887  nElectrons: 650.000000  magneticMoment: [ Abs: 0.00001  Tot: +0.00001 ]
	SubspaceRotationAdjust: set factor to 0.114
ElecMinimize: Iter:   7  F: -3580.255954724284493  |grad|_K:  4.148e-07  alpha:  6.648e-01  linmin:  1.133e-08  t[s]:   7489.25
	Linear fluid (dielectric constant: 78.4, screening length: 8.12261 Bohr) occupying 0.483297 of unit cell:	Completed after 12 iterations at t[s]:   7532.11
	Linear fluid (dielectric constant: 78.4, screening length: 8.12261 Bohr) occupying 0.483282 of unit cell:	Completed after 7 iterations at t[s]:   7562.81
	FillingsUpdate:  mu: -0.188887296  nElectrons: 650.000000  magneticMoment: [ Abs: 0.00001  Tot: +0.00001 ]
	SubspaceRotationAdjust: set factor to 0.11
ElecMinimize: Iter:   8  F: -3580.255978592973406  |grad|_K:  3.479e-07  alpha:  4.886e-01  linmin: -2.547e-08  t[s]:   7603.31
	Linear fluid (dielectric constant: 78.4, screening length: 8.12261 Bohr) occupying 0.483314 of unit cell:	Completed after 9 iterations at t[s]:   7645.33
	Linear fluid (dielectric constant: 78.4, screening length: 8.12261 Bohr) occupying 0.483310 of unit cell:	Completed after 3 iterations at t[s]:   7675.17
	FillingsUpdate:  mu: -0.188951509  nElectrons: 650.000000  magneticMoment: [ Abs: 0.00001  Tot: +0.00001 ]
	SubspaceRotationAdjust: set factor to 0.0949
ElecMinimize: Iter:   9  F: -3580.255993359026434  |grad|_K:  2.739e-07  alpha:  4.285e-01  linmin:  1.824e-07  t[s]:   7716.51
	Linear fluid (dielectric constant: 78.4, screening length: 8.12261 Bohr) occupying 0.483321 of unit cell:	Completed after 10 iterations at t[s]:   7758.94
	Linear fluid (dielectric constant: 78.4, screening length: 8.12261 Bohr) occupying 0.483320 of unit cell:	Completed after 2 iterations at t[s]:   7788.41
	FillingsUpdate:  mu: -0.189058505  nElectrons: 650.000000  magneticMoment: [ Abs: 0.00001  Tot: +0.00001 ]
	SubspaceRotationAdjust: set factor to 0.0771
ElecMinimize: Iter:  10  F: -3580.256001955064676  |grad|_K:  2.132e-07  alpha:  4.045e-01  linmin: -1.629e-07  t[s]:   7828.85
	Linear fluid (dielectric constant: 78.4, screening length: 8.12261 Bohr) occupying 0.483329 of unit cell:	Completed after 8 iterations at t[s]:   7870.74
	Linear fluid (dielectric constant: 78.4, screening length: 8.12261 Bohr) occupying 0.483330 of unit cell:	Completed after 0 iterations at t[s]:   7899.48
	FillingsUpdate:  mu: -0.188868293  nElectrons: 650.000000  magneticMoment: [ Abs: 0.00001  Tot: +0.00001 ]
	SubspaceRotationAdjust: set factor to 0.0846
ElecMinimize: Iter:  11  F: -3580.256007582295751  |grad|_K:  1.474e-07  alpha:  4.335e-01  linmin: -1.086e-06  t[s]:   7939.86
	Linear fluid (dielectric constant: 78.4, screening length: 8.12261 Bohr) occupying 0.483334 of unit cell:	Completed after 3 iterations at t[s]:   7980.32
	Linear fluid (dielectric constant: 78.4, screening length: 8.12261 Bohr) occupying 0.483335 of unit cell:	Completed after 3 iterations at t[s]:   8011.25
	FillingsUpdate:  mu: -0.188864770  nElectrons: 650.000000  magneticMoment: [ Abs: 0.00001  Tot: +0.00001 ]
	SubspaceRotationAdjust: set factor to 0.0977
ElecMinimize: Iter:  12  F: -3580.256010778191921  |grad|_K:  1.229e-07  alpha:  5.089e-01  linmin: -3.389e-07  t[s]:   8051.44
	Linear fluid (dielectric constant: 78.4, screening length: 8.12261 Bohr) occupying 0.483337 of unit cell:	Completed after 7 iterations at t[s]:   8093.04
	Linear fluid (dielectric constant: 78.4, screening length: 8.12261 Bohr) occupying 0.483337 of unit cell:	Completed after 2 iterations at t[s]:   8122.48
	FillingsUpdate:  mu: -0.188935586  nElectrons: 650.000000  magneticMoment: [ Abs: 0.00001  Tot: +0.00001 ]
	SubspaceRotationAdjust: set factor to 0.0906
ElecMinimize: Iter:  13  F: -3580.256012571934207  |grad|_K:  1.020e-07  alpha:  4.147e-01  linmin:  1.401e-06  t[s]:   8162.87
	Linear fluid (dielectric constant: 78.4, screening length: 8.12261 Bohr) occupying 0.483340 of unit cell:	Completed after 6 iterations at t[s]:   8204.24
	Linear fluid (dielectric constant: 78.4, screening length: 8.12261 Bohr) occupying 0.483341 of unit cell:	Completed after 0 iterations at t[s]:   8232.99
	FillingsUpdate:  mu: -0.188884967  nElectrons: 650.000000  magneticMoment: [ Abs: 0.00001  Tot: +0.00001 ]
	SubspaceRotationAdjust: set factor to 0.0976
ElecMinimize: Iter:  14  F: -3580.256013855810579  |grad|_K:  7.791e-08  alpha:  4.393e-01  linmin: -2.159e-06  t[s]:   8273.44
	Linear fluid (dielectric constant: 78.4, screening length: 8.12261 Bohr) occupying 0.483343 of unit cell:	Completed after 2 iterations at t[s]:   8314.34
	Linear fluid (dielectric constant: 78.4, screening length: 8.12261 Bohr) occupying 0.483343 of unit cell:	Completed after 0 iterations at t[s]:   8343.29
	FillingsUpdate:  mu: -0.188885922  nElectrons: 650.000000  magneticMoment: [ Abs: 0.00001  Tot: +0.00001 ]
	SubspaceRotationAdjust: set factor to 0.118
ElecMinimize: Iter:  15  F: -3580.256014710208547  |grad|_K:  6.847e-08  alpha:  4.825e-01  linmin: -9.283e-07  t[s]:   8383.78
	Linear fluid (dielectric constant: 78.4, screening length: 8.12261 Bohr) occupying 0.483345 of unit cell:	Completed after 6 iterations at t[s]:   8425.13
	Linear fluid (dielectric constant: 78.4, screening length: 8.12261 Bohr) occupying 0.483345 of unit cell:	Completed after 0 iterations at t[s]:   8453.93
	FillingsUpdate:  mu: -0.188935074  nElectrons: 650.000000  magneticMoment: [ Abs: 0.00001  Tot: +0.00001 ]
	SubspaceRotationAdjust: set factor to 0.111
ElecMinimize: Iter:  16  F: -3580.256015275063874  |grad|_K:  6.563e-08  alpha:  4.152e-01  linmin:  5.792e-06  t[s]:   8494.39
	Linear fluid (dielectric constant: 78.4, screening length: 8.12261 Bohr) occupying 0.483348 of unit cell:	Completed after 5 iterations at t[s]:   8535.63
	Linear fluid (dielectric constant: 78.4, screening length: 8.12261 Bohr) occupying 0.483347 of unit cell:	Completed after 2 iterations at t[s]:   8565.09
	FillingsUpdate:  mu: -0.188902120  nElectrons: 650.000000  magneticMoment: [ Abs: 0.00001  Tot: +0.00001 ]
	SubspaceRotationAdjust: set factor to 0.0945
ElecMinimize: Iter:  17  F: -3580.256015613138061  |grad|_K:  5.002e-08  alpha:  3.030e-01  linmin: -8.798e-07  t[s]:   8605.52
	Linear fluid (dielectric constant: 78.4, screening length: 8.12261 Bohr) occupying 0.483348 of unit cell:	Completed after 2 iterations at t[s]:   8645.87
	Linear fluid (dielectric constant: 78.4, screening length: 8.12261 Bohr) occupying 0.483348 of unit cell:	Completed after 0 iterations at t[s]:   8674.67
	FillingsUpdate:  mu: -0.188905986  nElectrons: 650.000000  magneticMoment: [ Abs: 0.00001  Tot: +0.00001 ]
	SubspaceRotationAdjust: set factor to 0.121
ElecMinimize: Iter:  18  F: -3580.256015914733325  |grad|_K:  3.847e-08  alpha:  4.142e-01  linmin: -4.320e-06  t[s]:   8715.05
	Linear fluid (dielectric constant: 78.4, screening length: 8.12261 Bohr) occupying 0.483348 of unit cell:	Completed after 5 iterations at t[s]:   8756.03
	Linear fluid (dielectric constant: 78.4, screening length: 8.12261 Bohr) occupying 0.483348 of unit cell:	Completed after 0 iterations at t[s]:   8784.84
	FillingsUpdate:  mu: -0.188934213  nElectrons: 650.000000  magneticMoment: [ Abs: 0.00001  Tot: +0.00001 ]
	SubspaceRotationAdjust: set factor to 0.103
ElecMinimize: Iter:  19  F: -3580.256016060852744  |grad|_K:  4.204e-08  alpha:  3.442e-01  linmin: -4.449e-06  t[s]:   8825.20
	Linear fluid (dielectric constant: 78.4, screening length: 8.12261 Bohr) occupying 0.483349 of unit cell:	Completed after 3 iterations at t[s]:   8865.75
	Linear fluid (dielectric constant: 78.4, screening length: 8.12261 Bohr) occupying 0.483349 of unit cell:	Completed after 2 iterations at t[s]:   8895.33
	FillingsUpdate:  mu: -0.188926312  nElectrons: 650.000000  magneticMoment: [ Abs: 0.00001  Tot: +0.00001 ]
	SubspaceRotationAdjust: set factor to 0.109
ElecMinimize: Iter:  20  F: -3580.256016167776124  |grad|_K:  2.706e-08  alpha:  2.252e-01  linmin: -7.551e-07  t[s]:   8936.47
	Linear fluid (dielectric constant: 78.4, screening length: 8.12261 Bohr) occupying 0.483349 of unit cell:	Completed after 0 iterations at t[s]:   8976.12
	Linear fluid (dielectric constant: 78.4, screening length: 8.12261 Bohr) occupying 0.483349 of unit cell:	Completed after 2 iterations at t[s]:   9005.51
	FillingsUpdate:  mu: -0.188922729  nElectrons: 650.000000  magneticMoment: [ Abs: 0.00001  Tot: +0.00001 ]
	SubspaceRotationAdjust: set factor to 0.121
ElecMinimize: Iter:  21  F: -3580.256016251379151  |grad|_K:  2.733e-08  alpha:  4.867e-01  linmin:  4.630e-05  t[s]:   9045.88
	Linear fluid (dielectric constant: 78.4, screening length: 8.12261 Bohr) occupying 0.483348 of unit cell:	Completed after 2 iterations at t[s]:   9086.33
	Linear fluid (dielectric constant: 78.4, screening length: 8.12261 Bohr) occupying 0.483349 of unit cell:	Completed after 1 iterations at t[s]:   9115.63
	FillingsUpdate:  mu: -0.188929606  nElectrons: 650.000000  magneticMoment: [ Abs: 0.00001  Tot: +0.00000 ]
	SubspaceRotationAdjust: set factor to 0.111
ElecMinimize: Iter:  22  F: -3580.256016305973390  |grad|_K:  2.143e-08  alpha:  3.053e-01  linmin:  3.363e-05  t[s]:   9156.19
ElecMinimize: Converged (|Delta F|<1.000000e-07 for 2 iters).
Setting wave functions to eigenvectors of Hamiltonian
Converging empty states (this may take a while): |deigs|: 1.032e-04
Single-point solvation energy estimate, DeltaF = -0.011957051929130

Computing DFT-D3 correction:
# coordination-number Pt 8.642 8.554 8.553 8.554 9.301 9.301 9.301 9.301 9.357 9.357 9.357 9.357 7.000 7.000 7.000 7.000 5.347 5.359 6.480 5.360 9.371 9.361 9.361 9.361 9.299 9.299 9.299 9.299 8.550 8.550 8.550 8.550 5.347 5.347 5.347 5.347 7.584 7.007 7.585 7.007
# coordination-number C 3.269
# coordination-number O 1.173
# diagonal-C6 Pt 336.87 336.87 336.87 336.87 336.87 336.87 336.87 336.87 336.87 336.87 336.87 336.87 336.87 336.87 336.87 336.87 336.87 336.87 336.87 336.87 336.87 336.87 336.87 336.87 336.87 336.87 336.87 336.87 336.87 336.87 336.87 336.87 336.87 336.87 336.87 336.87 336.87 336.87 336.87 336.87
# diagonal-C6 C 24.56
# diagonal-C6 O 12.63
EvdW_6 =   -0.305536
EvdW_8 =   -0.520692

# Ionic positions in cartesian coordinates:
ion Pt   3.704685000000000   1.822566000000000  12.573157000000000 0
ion Pt   0.005105000000001  10.095076999999998  12.573157000000000 0
ion Pt  11.103842999999998   1.822566000000000  12.573157000000000 0
ion Pt   7.404264000000001  10.095076999999998  12.573157000000000 0
ion Pt  -0.001050999999999   3.273664000000000   9.137368000000000 0
ion Pt  -3.700629999999999  11.546173999999999   9.137368000000000 0
ion Pt   7.398107999999999   3.273664000000000   9.137368000000000 0
ion Pt   3.698529000000002  11.546173999999999   9.137368000000000 0
ion Pt   3.697034000000000   4.963307999999999   5.876891000000000 0
ion Pt  -0.002545000000000  13.235818000000000   5.876891000000000 0
ion Pt  11.096191999999999   4.963307999999999   5.876891000000000 0
ion Pt   7.396613000000001  13.235818000000000   5.876891000000000 0
ion Pt  -0.005535000000000   6.538525999999999   2.275817000000000 0
ion Pt  -3.705113999999998  14.811036999999999   2.275817000000000 0
ion Pt   7.393623999999998   6.538525999999999   2.275817000000000 0
ion Pt   3.694045000000000  14.811036999999999   2.275817000000000 0
ion Pt  -3.696790000000000   8.273420000000000  15.437099999999996 0
ion Pt   0.002789000000000   0.000910000000000  15.437099999999996 0
ion Pt   3.702368999999999   8.273420000000000  15.437099999999996 0
ion Pt   7.401947999999999   0.000910000000000  15.437099999999996 0
ion Pt   3.702198000000001   6.619000999999999  10.667418999999999 0
ion Pt   0.002612000000002  14.891494999999999  10.667418999999999 0
ion Pt  11.101342000000001   6.619000999999999  10.667418999999999 0
ion Pt   7.401770000000000  14.891494999999999  10.667418999999999 0
ion Pt   3.700711000000000   0.034761000000000   7.409074999999999 0
ion Pt   0.001132000000001   8.307271999999999   7.409074999999999 0
ion Pt  11.099869999999996   0.034761000000000   7.409074999999999 0
ion Pt   7.400290000000000   8.307271999999999   7.409074999999999 0
ion Pt  -0.004987000000000   1.486173000000000   3.972789999999999 0
ion Pt  -3.704565999999998   9.758682999999998   3.972789999999999 0
ion Pt   7.394171000000000   1.486173000000000   3.972789999999999 0
ion Pt   3.694592000000002   9.758682999999998   3.972789999999999 0
ion Pt   3.696723000000000   3.307713999999999   1.109493000000000 0
ion Pt  -0.002870999999999  11.580223999999999   1.109493000000000 0
ion Pt  11.095866999999998   3.307713999999999   1.109493000000000 0
ion Pt   7.396302000000000  11.580223999999999   1.109493000000000 0
ion Pt   0.005350000000000   5.043435000000000  14.266009999999996 0
ion Pt  -3.694243999999999  13.315945999999999  14.266009999999996 0
ion Pt   7.404493000000000   5.043435000000000  14.266009999999996 0
ion Pt   3.704914000000001  13.315945999999999  14.266009999999996 0
ion C   3.704914000000000   5.043435000000000  17.052770999999996 1  Linear 0 0 1
ion O   3.765010000000000   5.043435000000000  19.208123999999998 1  Linear 0 0 1

# Forces in Cartesian coordinates:
force Pt  -0.000432096956814  -0.006203507475220  -0.004999447952635 0
force Pt  -0.003272091110287   0.004985123675938  -0.002205447920483 0
force Pt  -0.000764732175895   0.003067534139656   0.000224094441080 0
force Pt   0.002185998161648   0.004592720257113  -0.002018842669441 0
force Pt   0.001340716237056   0.000323146287986  -0.001974096371802 0
force Pt   0.000472997103679   0.000665367356081  -0.001007062462119 0
force Pt   0.001144293577709   0.000602769185603  -0.002649239190088 0
force Pt   0.000922384019646   0.000509962882358  -0.000486161088204 0
force Pt   0.000374444559965  -0.000822367598553  -0.000708347725583 0
force Pt   0.000465730078393  -0.000551031893972  -0.000601294995351 0
force Pt   0.000465005858385  -0.000478405658425   0.000594074009446 0
force Pt   0.000276974798443  -0.000640571739653  -0.000372333484835 0
force Pt   0.000049216869702   0.000202059416185   0.000724423567002 0
force Pt   0.000183081367150  -0.000827535217246   0.000249661047151 0
force Pt  -0.000178337583560   0.000399744767901   0.000681874170675 0
force Pt  -0.000100649976013  -0.000526286164657   0.000677524341541 0
force Pt   0.000005665062387   0.001721935329800   0.000479424406675 0
force Pt  -0.002769640533179  -0.004903036887466   0.001611960784352 0
force Pt  -0.000324470770299   0.039716060085648  -0.020793364476000 0
force Pt   0.003278531630725  -0.004518588453483   0.001446167833135 0
force Pt  -0.000158088394712   0.000140666919721  -0.007787961126738 0
force Pt   0.000211402099063   0.000031843339044  -0.000140891653610 0
force Pt  -0.000161842303115   0.000546483492311   0.002095845966300 0
force Pt  -0.000455893084419   0.000405052867477  -0.000438274631938 0
force Pt  -0.001309050449629  -0.000593446271932   0.000585157359019 0
force Pt  -0.000761102983290  -0.000274029114492   0.000305236003532 0
force Pt  -0.001336635396131  -0.000064980388613   0.001024673974426 0
force Pt  -0.001663734269489  -0.000067997414107   0.000207803408494 0
force Pt   0.000164727085295   0.000357626921502  -0.000145170766206 0
force Pt   0.000409885596089   0.000092071838139   0.000006695710679 0
force Pt   0.000839219205676  -0.000070267394713  -0.000132236417153 0
force Pt   0.000942800476690  -0.000327080527323  -0.000959308929314 0
force Pt  -0.000214155739066   0.000213698086926   0.000485329799685 0
force Pt  -0.000502722795230   0.000627044737243   0.000172429326120 0
force Pt  -0.000020007551103   0.000352638614972  -0.000642699427065 0
force Pt   0.000228328755056   0.000486658431988   0.000063073957476 0
force Pt  -0.002048535406056  -0.010135860108879   0.005567039503598 0
force Pt   0.000063092012451  -0.000033170120008  -0.000535172947981 0
force Pt   0.002541416915471  -0.009895107059411   0.004765216351330 0
force Pt   0.000180213302725  -0.000179978044702  -0.000891445502830 0
force C  -0.001551998262623   0.013702973270183  -0.072770219122749 1  Linear 0 0 1
force O   0.001311016938343  -0.032541470188948   0.101595181649514 1  Linear 0 0 1

# Energy components:
   A_diel =       -0.0129797806768747
   Eewald =    16484.0485033823606500
       EH =    19735.8789919459522935
     Eloc =   -40426.0980441269348375
      Enl =      -38.8945855639424565
     EvdW =       -0.8262277607867468
      Exc =    -1143.0463224963752964
 Exc_core =      655.7540384231433563
       KE =     1152.9458653657645755
-------------------------------------
     Etot =    -3580.2507606114941154
       TS =        0.0052556944794414
-------------------------------------
        F =    -3580.2560163059733895


Dumping 'jdft.fillings' ... done
Dumping 'jdft.wfns' ... done
Dumping 'jdft.fluidState' ... done
Dumping 'jdft.ionpos' ... done
Dumping 'jdft.lattice' ... done
Dumping 'jdft.eigenvals' ... done
Dumping 'jdft.eigStats' ... 
	eMin: -2.138493 at state 0 ( [ +0.000000 +0.000000 +0.000000 ] spin 1 )
	HOMO: -0.189012 at state 8 ( [ +0.000000 +0.333333 +0.000000 ] spin -1 )
	mu  : -0.188930
	LUMO: -0.188863 at state 5 ( [ +0.500000 +0.000000 +0.000000 ] spin 1 )
	eMax: +0.090570 at state 8 ( [ +0.000000 +0.333333 +0.000000 ] spin -1 )
	HOMO-LUMO gap: +0.000149
	Optical gap  : +0.000499 at state 9 ( [ +0.250000 +0.000000 +0.000000 ] spin -1 )
Dumping 'jdft.Ecomponents' ... done
IonicMinimize: Iter:   0  F: -3580.256016305973390  |grad|_K:  8.837e-02  t[s]:   9777.04

#--- Lowdin population analysis ---
# oxidation-state Pt -0.050 -0.048 -0.041 -0.047 +0.006 +0.008 +0.006 +0.009 -0.002 -0.003 -0.002 -0.003 -0.019 -0.020 -0.020 -0.020 +0.118 +0.098 +0.032 +0.098 +0.000 -0.004 -0.012 -0.004 +0.010 +0.007 +0.010 +0.007 -0.038 -0.039 -0.038 -0.039 +0.118 +0.115 +0.115 +0.115 -0.066 -0.017 -0.066 -0.037
# magnetic-moments Pt +0.000 +0.000 +0.000 +0.000 +0.000 +0.000 +0.000 +0.000 +0.000 +0.000 +0.000 +0.000 +0.000 +0.000 +0.000 +0.000 +0.000 +0.000 +0.000 +0.000 +0.000 +0.000 +0.000 +0.000 +0.000 +0.000 +0.000 +0.000 +0.000 +0.000 +0.000 +0.000 +0.000 +0.000 +0.000 +0.000 +0.000 +0.000 +0.000 +0.000
# oxidation-state C +0.431
# magnetic-moments C -0.000
# oxidation-state O -0.122
# magnetic-moments O +0.000


Computing DFT-D3 correction:
# coordination-number Pt 8.654 8.555 8.553 8.555 9.301 9.301 9.301 9.301 9.357 9.357 9.357 9.357 7.000 7.000 7.000 7.000 5.347 5.360 6.457 5.360 9.373 9.361 9.361 9.361 9.299 9.299 9.299 9.299 8.550 8.550 8.550 8.550 5.347 5.347 5.347 5.347 7.619 7.007 7.621 7.007
# coordination-number C 3.359
# coordination-number O 1.145
# diagonal-C6 Pt 336.87 336.87 336.87 336.87 336.87 336.87 336.87 336.87 336.87 336.87 336.87 336.87 336.87 336.87 336.87 336.87 336.87 336.87 336.87 336.87 336.87 336.87 336.87 336.87 336.87 336.87 336.87 336.87 336.87 336.87 336.87 336.87 336.87 336.87 336.87 336.87 336.87 336.87 336.87 336.87
# diagonal-C6 C 23.64
# diagonal-C6 O 12.67
EvdW_6 =   -0.305444
EvdW_8 =   -0.520539

-------- Electronic minimization -----------
	Linear fluid (dielectric constant: 78.4, screening length: 8.12261 Bohr) occupying 0.483228 of unit cell:	Completed after 21 iterations at t[s]:   9824.31
	FillingsUpdate:  mu: -0.187295084  nElectrons: 650.000000  magneticMoment: [ Abs: 0.00000  Tot: +0.00000 ]
ElecMinimize: Iter:   0  F: -3580.144041890467179  |grad|_K:  3.108e-05  alpha:  1.000e+00
	Linear fluid (dielectric constant: 78.4, screening length: 8.12261 Bohr) occupying 0.483291 of unit cell:	Completed after 23 iterations at t[s]:   9915.87
	Linear fluid (dielectric constant: 78.4, screening length: 8.12261 Bohr) occupying 0.483150 of unit cell:	Completed after 22 iterations at t[s]:   9950.06
	FillingsUpdate:  mu: -0.187871159  nElectrons: 650.000000  magneticMoment: [ Abs: 0.00000  Tot: +0.00000 ]
	SubspaceRotationAdjust: set factor to 0.111
ElecMinimize: Iter:   1  F: -3580.244924211364378  |grad|_K:  9.170e-06  alpha:  3.770e-01  linmin:  7.097e-03  t[s]:   9990.67
	Linear fluid (dielectric constant: 78.4, screening length: 8.12261 Bohr) occupying 0.483087 of unit cell:	Completed after 18 iterations at t[s]:  10034.92
	Linear fluid (dielectric constant: 78.4, screening length: 8.12261 Bohr) occupying 0.483094 of unit cell:	Completed after 11 iterations at t[s]:  10066.74
	FillingsUpdate:  mu: -0.189346348  nElectrons: 650.000000  magneticMoment: [ Abs: 0.00000  Tot: +0.00000 ]
	SubspaceRotationAdjust: set factor to 0.106
ElecMinimize: Iter:   2  F: -3580.252209069644778  |grad|_K:  4.025e-06  alpha:  3.118e-01  linmin: -1.967e-04  t[s]:  10107.27
	Linear fluid (dielectric constant: 78.4, screening length: 8.12261 Bohr) occupying 0.483032 of unit cell:	Completed after 15 iterations at t[s]:  10151.71
	Linear fluid (dielectric constant: 78.4, screening length: 8.12261 Bohr) occupying 0.483016 of unit cell:	Completed after 11 iterations at t[s]:  10183.45
	FillingsUpdate:  mu: -0.190028483  nElectrons: 650.000000  magneticMoment: [ Abs: 0.00000  Tot: +0.00000 ]
	SubspaceRotationAdjust: set factor to 0.0944
ElecMinimize: Iter:   3  F: -3580.254063880787726  |grad|_K:  2.887e-06  alpha:  4.019e-01  linmin:  1.359e-05  t[s]:  10224.18
	Linear fluid (dielectric constant: 78.4, screening length: 8.12261 Bohr) occupying 0.482991 of unit cell:	Completed after 14 iterations at t[s]:  10267.40
	Linear fluid (dielectric constant: 78.4, screening length: 8.12261 Bohr) occupying 0.482992 of unit cell:	Completed after 10 iterations at t[s]:  10299.10
	FillingsUpdate:  mu: -0.190305430  nElectrons: 650.000000  magneticMoment: [ Abs: 0.00000  Tot: +0.00000 ]
	SubspaceRotationAdjust: set factor to 0.084
ElecMinimize: Iter:   4  F: -3580.254889085765171  |grad|_K:  2.050e-06  alpha:  3.482e-01  linmin:  3.138e-06  t[s]:  10339.39
	Linear fluid (dielectric constant: 78.4, screening length: 8.12261 Bohr) occupying 0.482936 of unit cell:	Completed after 13 iterations at t[s]:  10382.27
	Linear fluid (dielectric constant: 78.4, screening length: 8.12261 Bohr) occupying 0.482902 of unit cell:	Completed after 12 iterations at t[s]:  10415.60
	FillingsUpdate:  mu: -0.191466383  nElectrons: 650.000000  magneticMoment: [ Abs: 0.00000  Tot: +0.00000 ]
	SubspaceRotationAdjust: set factor to 0.106
ElecMinimize: Iter:   5  F: -3580.255557310053518  |grad|_K:  1.685e-06  alpha:  5.594e-01  linmin:  3.063e-05  t[s]:  10456.03
	Linear fluid (dielectric constant: 78.4, screening length: 8.12261 Bohr) occupying 0.482867 of unit cell:	Completed after 11 iterations at t[s]:  10498.53
	Linear fluid (dielectric constant: 78.4, screening length: 8.12261 Bohr) occupying 0.482856 of unit cell:	Completed after 7 iterations at t[s]:  10529.31
	FillingsUpdate:  mu: -0.191481405  nElectrons: 650.000000  magneticMoment: [ Abs: 0.00000  Tot: +0.00000 ]
	SubspaceRotationAdjust: set factor to 0.127
ElecMinimize: Iter:   6  F: -3580.256144999205844  |grad|_K:  1.576e-06  alpha:  7.298e-01  linmin:  4.733e-05  t[s]:  10569.79
	Linear fluid (dielectric constant: 78.4, screening length: 8.12261 Bohr) occupying 0.482947 of unit cell:	Completed after 13 iterations at t[s]:  10612.71
	Linear fluid (dielectric constant: 78.4, screening length: 8.12261 Bohr) occupying 0.482922 of unit cell:	Completed after 10 iterations at t[s]:  10644.11
	FillingsUpdate:  mu: -0.192002599  nElectrons: 650.000000  magneticMoment: [ Abs: 0.00000  Tot: +0.00000 ]
	SubspaceRotationAdjust: set factor to 0.117
ElecMinimize: Iter:   7  F: -3580.256531810191518  |grad|_K:  1.814e-06  alpha:  5.490e-01  linmin:  7.265e-06  t[s]:  10684.58
	Linear fluid (dielectric constant: 78.4, screening length: 8.12261 Bohr) occupying 0.482969 of unit cell:	Completed after 15 iterations at t[s]:  10728.23
	Linear fluid (dielectric constant: 78.4, screening length: 8.12261 Bohr) occupying 0.482953 of unit cell:	Completed after 11 iterations at t[s]:  10759.85
	FillingsUpdate:  mu: -0.192332884  nElectrons: 650.000000  magneticMoment: [ Abs: 0.00000  Tot: +0.00000 ]
	SubspaceRotationAdjust: set factor to 0.0934
ElecMinimize: Iter:   8  F: -3580.256859239440018  |grad|_K:  1.335e-06  alpha:  3.489e-01  linmin: -3.118e-06  t[s]:  10800.44
	Linear fluid (dielectric constant: 78.4, screening length: 8.12261 Bohr) occupying 0.483039 of unit cell:	Completed after 12 iterations at t[s]:  10843.30
	Linear fluid (dielectric constant: 78.4, screening length: 8.12261 Bohr) occupying 0.483083 of unit cell:	Completed after 10 iterations at t[s]:  10874.68
	FillingsUpdate:  mu: -0.191522545  nElectrons: 650.000000  magneticMoment: [ Abs: 0.00000  Tot: +0.00000 ]
	SubspaceRotationAdjust: set factor to 0.0992
[...]
ion Pt  11.101342000000001   6.619000999999999  10.667418999999999 0
ion Pt   7.401770000000000  14.891494999999999  10.667418999999999 0
ion Pt   3.700711000000000   0.034761000000000   7.409074999999999 0
ion Pt   0.001132000000001   8.307271999999999   7.409074999999999 0
ion Pt  11.099869999999996   0.034761000000000   7.409074999999999 0
ion Pt   7.400290000000000   8.307271999999999   7.409074999999999 0
ion Pt  -0.004987000000000   1.486173000000000   3.972789999999999 0
ion Pt  -3.704565999999998   9.758682999999998   3.972789999999999 0
ion Pt   7.394171000000000   1.486173000000000   3.972789999999999 0
ion Pt   3.694592000000002   9.758682999999998   3.972789999999999 0
ion Pt   3.696723000000000   3.307713999999999   1.109493000000000 0
ion Pt  -0.002870999999999  11.580223999999999   1.109493000000000 0
ion Pt  11.095866999999998   3.307713999999999   1.109493000000000 0
ion Pt   7.396302000000000  11.580223999999999   1.109493000000000 0
ion Pt   0.005350000000000   5.043435000000000  14.266009999999996 0
ion Pt  -3.694243999999999  13.315945999999999  14.266009999999996 0
ion Pt   7.404493000000000   5.043435000000000  14.266009999999996 0
ion Pt   3.704914000000001  13.315945999999999  14.266009999999996 0
ion C   3.704914000000000   5.043435000000000  17.361451540376031 1  Linear 0 0 1
ion O   3.765010000000000   5.043435000000000  19.594740261691790 1  Linear 0 0 1

# Forces in Cartesian coordinates:
force Pt  -0.000452967623120  -0.005156477523398  -0.005161434448355 0
force Pt  -0.002702488313451   0.004319190510792  -0.001906830758463 0
force Pt  -0.000730476267840   0.002011969278186   0.000481982697870 0
force Pt   0.001589757776199   0.003965109059597  -0.001675461422209 0
force Pt   0.001696158013615   0.000410322396124  -0.001476731500967 0
force Pt   0.000421620078359   0.000664622746503  -0.001190316583483 0
force Pt   0.000799442652779   0.000653234310681  -0.002189252770953 0
force Pt   0.000948541552853   0.000470509118492  -0.000782694423024 0
force Pt   0.000358579224815  -0.000695517683433  -0.000859931281102 0
force Pt   0.000573795240854  -0.000551744981791  -0.000697459151051 0
force Pt   0.000485319673857  -0.000679361569330   0.000537539051294 0
force Pt   0.000173664641544  -0.000649503253870  -0.000405102365071 0
force Pt   0.000067602746570   0.000217970654871   0.000681730624770 0
force Pt   0.000235034698130  -0.000755536570902   0.000256129754661 0
force Pt  -0.000186918601248   0.000417655469785   0.000631466238633 0
force Pt  -0.000107831998510  -0.000459606159540   0.000623400622336 0
force Pt   0.000004054430324   0.001696276178403   0.000712342928707 0
force Pt  -0.001924010285571  -0.003846931760174   0.001945220721248 0
force Pt  -0.000046177602235   0.011273854772322   0.000097554033878 0
force Pt   0.002405864181865  -0.003414298028996   0.001769081731174 0
force Pt  -0.000147286076925  -0.000718610651929  -0.006716372500843 0
force Pt   0.000144381930711   0.000068722838685  -0.000250539334009 0
force Pt  -0.000194774424741   0.000656291042133   0.002014933711441 0
force Pt  -0.000407884933184   0.000382141336473  -0.000577978163654 0
force Pt  -0.001264506217224  -0.000827936580163  -0.000003165266092 0
force Pt  -0.001023069409687  -0.000354543624074   0.000381470267112 0
force Pt  -0.001327129846777  -0.000010442814275   0.000950811646655 0
force Pt  -0.001398161119996  -0.000189709059575   0.000314802747190 0
force Pt   0.000238475245233   0.000292941562879  -0.000056224976596 0
force Pt   0.000434660393498   0.000116617953768   0.000017545830441 0
force Pt   0.000746419459917  -0.000097696445186  -0.000054276153020 0
force Pt   0.000897764360435  -0.000341029070331  -0.000830734240087 0
force Pt  -0.000230873309655   0.000173345585090   0.000430813185458 0
force Pt  -0.000541080264105   0.000621336731686  -0.000012974080454 0
force Pt  -0.000018428765346   0.000437848978687  -0.000697563611066 0
force Pt   0.000214656048314   0.000512897097629  -0.000091251008122 0
force Pt  -0.000706712808964  -0.009363862943070   0.007685734706156 0
force Pt   0.000088972635355  -0.000025793770781  -0.000605553160947 0
force Pt   0.000889208208491  -0.009189839628212   0.007357641347117 0
force Pt   0.000147651212672  -0.001343600413907  -0.000843384409493 0
force C   0.000977196336276   0.032518219323544   0.000390261392160 1  Linear 0 0 1
force O  -0.001111359274115  -0.023242788046570  -0.000425441025260 1  Linear 0 0 1

# Energy components:
   A_diel =       -0.0129283811224281
   Eewald =    16450.6211541931115789
       EH =    19702.0473642387332802
     Eloc =   -40358.6552452302057645
      Enl =      -38.9384894885509141
     EvdW =       -0.8257832101402446
      Exc =    -1142.9564482621904062
 Exc_core =      655.7540180491657793
       KE =     1152.7077115944398429
-------------------------------------
     Etot =    -3580.2586464967575921
       TS =        0.0052509775086969
-------------------------------------
        F =    -3580.2638974742662867


Dumping 'jdft.fillings' ... done
Dumping 'jdft.wfns' ... done
Dumping 'jdft.fluidState' ... done
Dumping 'jdft.ionpos' ... done
Dumping 'jdft.lattice' ... done
Dumping 'jdft.eigenvals' ... done
Dumping 'jdft.eigStats' ... 
	eMin: -2.139163 at state 7 ( [ +0.000000 +0.000000 +0.000000 ] spin -1 )
	HOMO: -0.189792 at state 3 ( [ +0.250000 +0.333333 +0.000000 ] spin 1 )
	mu  : -0.189608
	LUMO: -0.189528 at state 9 ( [ +0.250000 +0.000000 +0.000000 ] spin -1 )
	eMax: +0.090412 at state 8 ( [ +0.000000 +0.333333 +0.000000 ] spin -1 )
	HOMO-LUMO gap: +0.000264
	Optical gap  : +0.000423 at state 2 ( [ +0.250000 +0.000000 +0.000000 ] spin 1 )
Dumping 'jdft.Ecomponents' ... done
IonicMinimize: Iter:   9  F: -3580.263897474266287  |grad|_K:  4.082e-04  alpha:  1.000e+00  linmin:  1.686e-03  t[s]:  34283.17

#--- Lowdin population analysis ---
# oxidation-state Pt -0.046 -0.048 -0.041 -0.047 +0.006 +0.007 +0.006 +0.009 -0.001 -0.003 -0.001 -0.002 -0.018 -0.018 -0.018 -0.018 +0.119 +0.097 +0.017 +0.097 -0.001 -0.005 -0.010 -0.005 +0.010 +0.007 +0.010 +0.007 -0.037 -0.038 -0.037 -0.039 +0.121 +0.117 +0.117 +0.117 -0.065 -0.018 -0.065 -0.031
# magnetic-moments Pt -0.000 -0.000 -0.000 -0.000 -0.000 -0.000 -0.000 -0.000 -0.000 -0.000 -0.000 -0.000 -0.000 -0.000 -0.000 -0.000 -0.000 -0.000 -0.000 -0.000 -0.000 -0.000 -0.000 -0.000 -0.000 -0.000 -0.000 -0.000 -0.000 -0.000 -0.000 -0.000 -0.000 -0.000 -0.000 -0.000 -0.000 -0.000 -0.000 -0.000
# oxidation-state C +0.428
# magnetic-moments C +0.000
# oxidation-state O -0.141
# magnetic-moments O +0.000


Computing DFT-D3 correction:
# coordination-number Pt 8.604 8.554 8.553 8.554 9.301 9.301 9.301 9.301 9.357 9.357 9.357 9.357 7.000 7.000 7.000 7.000 5.347 5.357 6.397 5.357 9.367 9.361 9.361 9.361 9.299 9.299 9.299 9.299 8.550 8.550 8.550 8.550 5.347 5.347 5.347 5.347 7.420 7.007 7.420 7.007
# coordination-number C 2.892
# coordination-number O 1.089
# diagonal-C6 Pt 336.87 336.87 336.87 336.87 336.87 336.87 336.87 336.87 336.87 336.87 336.87 336.87 336.87 336.87 336.87 336.87 336.87 336.87 336.87 336.87 336.87 336.87 336.87 336.87 336.87 336.87 336.87 336.87 336.87 336.87 336.87 336.87 336.87 336.87 336.87 336.87 336.87 336.87 336.87 336.87
# diagonal-C6 C 25.85
# diagonal-C6 O 12.74
EvdW_6 =   -0.305393
EvdW_8 =   -0.520391

-------- Electronic minimization -----------
	Linear fluid (dielectric constant: 78.4, screening length: 8.12261 Bohr) occupying 0.481139 of unit cell:	Completed after 10 iterations at t[s]:  34332.79
	FillingsUpdate:  mu: -0.189392666  nElectrons: 650.000000  magneticMoment: [ Abs: 0.00000  Tot: -0.00000 ]
ElecMinimize: Iter:   0  F: -3580.263870650302124  |grad|_K:  7.466e-07  alpha:  1.000e+00
	Linear fluid (dielectric constant: 78.4, screening length: 8.12261 Bohr) occupying 0.481089 of unit cell:	Completed after 15 iterations at t[s]:  34422.98
	Linear fluid (dielectric constant: 78.4, screening length: 8.12261 Bohr) occupying 0.481128 of unit cell:	Completed after 15 iterations at t[s]:  34455.82
	FillingsUpdate:  mu: -0.189579289  nElectrons: 650.000000  magneticMoment: [ Abs: 0.00000  Tot: -0.00000 ]
	SubspaceRotationAdjust: set factor to 0.237
ElecMinimize: Iter:   1  F: -3580.263896714473049  |grad|_K:  8.489e-08  alpha:  1.651e-01  linmin:  1.169e-03  t[s]:  34496.21
	Linear fluid (dielectric constant: 78.4, screening length: 8.12261 Bohr) occupying 0.481128 of unit cell:	Completed after 2 iterations at t[s]:  34536.57
	Linear fluid (dielectric constant: 78.4, screening length: 8.12261 Bohr) occupying 0.481128 of unit cell:	Completed after 2 iterations at t[s]:  34566.29
	FillingsUpdate:  mu: -0.189570115  nElectrons: 650.000000  magneticMoment: [ Abs: 0.00000  Tot: -0.00000 ]
	SubspaceRotationAdjust: set factor to 0.293
ElecMinimize: Iter:   2  F: -3580.263897440926485  |grad|_K:  4.070e-08  alpha:  3.539e-01  linmin: -1.893e-03  t[s]:  34606.84
	Linear fluid (dielectric constant: 78.4, screening length: 8.12261 Bohr) occupying 0.481126 of unit cell:	Completed after 6 iterations at t[s]:  34648.17
	Linear fluid (dielectric constant: 78.4, screening length: 8.12261 Bohr) occupying 0.481127 of unit cell:	Completed after 3 iterations at t[s]:  34678.19
	FillingsUpdate:  mu: -0.189583283  nElectrons: 650.000000  magneticMoment: [ Abs: 0.00000  Tot: -0.00000 ]
	SubspaceRotationAdjust: set factor to 0.218
ElecMinimize: Iter:   3  F: -3580.263897520980208  |grad|_K:  5.203e-08  alpha:  1.888e-01  linmin:  1.385e-03  t[s]:  34718.63
	Linear fluid (dielectric constant: 78.4, screening length: 8.12261 Bohr) occupying 0.481127 of unit cell:	Completed after 2 iterations at t[s]:  34759.03
	Linear fluid (dielectric constant: 78.4, screening length: 8.12261 Bohr) occupying 0.481127 of unit cell:	Completed after 1 iterations at t[s]:  34788.50
	FillingsUpdate:  mu: -0.189591139  nElectrons: 650.000000  magneticMoment: [ Abs: 0.00000  Tot: -0.00000 ]
	SubspaceRotationAdjust: set factor to 0.354
ElecMinimize: Iter:   4  F: -3580.263897619898216  |grad|_K:  2.375e-08  alpha:  1.428e-01  linmin:  8.460e-05  t[s]:  34829.05
ElecMinimize: Converged (|Delta F|<1.000000e-07 for 2 iters).
Setting wave functions to eigenvectors of Hamiltonian
Converging empty states (this may take a while): |deigs|: 1.506e-09

Computing DFT-D3 correction:
# coordination-number Pt 8.604 8.554 8.553 8.554 9.301 9.301 9.301 9.301 9.357 9.357 9.357 9.357 7.000 7.000 7.000 7.000 5.347 5.357 6.397 5.357 9.367 9.361 9.361 9.361 9.299 9.299 9.299 9.299 8.550 8.550 8.550 8.550 5.347 5.347 5.347 5.347 7.420 7.007 7.420 7.007
# coordination-number C 2.892
# coordination-number O 1.089
# diagonal-C6 Pt 336.87 336.87 336.87 336.87 336.87 336.87 336.87 336.87 336.87 336.87 336.87 336.87 336.87 336.87 336.87 336.87 336.87 336.87 336.87 336.87 336.87 336.87 336.87 336.87 336.87 336.87 336.87 336.87 336.87 336.87 336.87 336.87 336.87 336.87 336.87 336.87 336.87 336.87 336.87 336.87
# diagonal-C6 C 25.85
# diagonal-C6 O 12.74
EvdW_6 =   -0.305393
EvdW_8 =   -0.520391

# Ionic positions in cartesian coordinates:
ion Pt   3.704685000000000   1.822566000000000  12.573157000000000 0
ion Pt   0.005105000000001  10.095076999999998  12.573157000000000 0
ion Pt  11.103842999999998   1.822566000000000  12.573157000000000 0
ion Pt   7.404264000000001  10.095076999999998  12.573157000000000 0
ion Pt  -0.001050999999999   3.273664000000000   9.137368000000000 0
ion Pt  -3.700629999999999  11.546173999999999   9.137368000000000 0
ion Pt   7.398107999999999   3.273664000000000   9.137368000000000 0
ion Pt   3.698529000000002  11.546173999999999   9.137368000000000 0
ion Pt   3.697034000000000   4.963307999999999   5.876891000000000 0
ion Pt  -0.002545000000000  13.235818000000000   5.876891000000000 0
ion Pt  11.096191999999999   4.963307999999999   5.876891000000000 0
ion Pt   7.396613000000001  13.235818000000000   5.876891000000000 0
ion Pt  -0.005535000000000   6.538525999999999   2.275817000000000 0
ion Pt  -3.705113999999998  14.811036999999999   2.275817000000000 0
ion Pt   7.393623999999998   6.538525999999999   2.275817000000000 0
ion Pt   3.694045000000000  14.811036999999999   2.275817000000000 0
ion Pt  -3.696790000000000   8.273420000000000  15.437099999999996 0
ion Pt   0.002789000000000   0.000910000000000  15.437099999999996 0
ion Pt   3.702368999999999   8.273420000000000  15.437099999999996 0
ion Pt   7.401947999999999   0.000910000000000  15.437099999999996 0
ion Pt   3.702198000000001   6.619000999999999  10.667418999999999 0
ion Pt   0.002612000000002  14.891494999999999  10.667418999999999 0
ion Pt  11.101342000000001   6.619000999999999  10.667418999999999 0
ion Pt   7.401770000000000  14.891494999999999  10.667418999999999 0
ion Pt   3.700711000000000   0.034761000000000   7.409074999999999 0
ion Pt   0.001132000000001   8.307271999999999   7.409074999999999 0
ion Pt  11.099869999999996   0.034761000000000   7.409074999999999 0
ion Pt   7.400290000000000   8.307271999999999   7.409074999999999 0
ion Pt  -0.004987000000000   1.486173000000000   3.972789999999999 0
ion Pt  -3.704565999999998   9.758682999999998   3.972789999999999 0
ion Pt   7.394171000000000   1.486173000000000   3.972789999999999 0
ion Pt   3.694592000000002   9.758682999999998   3.972789999999999 0
ion Pt   3.696723000000000   3.307713999999999   1.109493000000000 0
ion Pt  -0.002870999999999  11.580223999999999   1.109493000000000 0
ion Pt  11.095866999999998   3.307713999999999   1.109493000000000 0
ion Pt   7.396302000000000  11.580223999999999   1.109493000000000 0
ion Pt   0.005350000000000   5.043435000000000  14.266009999999996 0
ion Pt  -3.694243999999999  13.315945999999999  14.266009999999996 0
ion Pt   7.404493000000000   5.043435000000000  14.266009999999996 0
ion Pt   3.704914000000001  13.315945999999999  14.266009999999996 0
ion C   3.704914000000000   5.043435000000000  17.360843337193163 1  Linear 0 0 1
ion O   3.765010000000000   5.043435000000000  19.593774435176353 1  Linear 0 0 1

# Forces in Cartesian coordinates:
force Pt  -0.000449419450052  -0.005202848988881  -0.005047650673406 0
force Pt  -0.002719454800416   0.004329248275179  -0.001823827413227 0
force Pt  -0.000733125532227   0.001985656894843   0.000583287183703 0
force Pt   0.001608031176567   0.003972604269497  -0.001593548865176 0
force Pt   0.001690796452050   0.000399453423141  -0.001227935866191 0
force Pt   0.000422361470855   0.000685270822178  -0.000932334662073 0
force Pt   0.000806486752691   0.000642684463565  -0.001940034946158 0
force Pt   0.000949911514283   0.000495767260474  -0.000534008814286 0
force Pt   0.000359710220847  -0.000685582517624  -0.000714415737306 0
force Pt   0.000573487992545  -0.000541409215688  -0.000534322090864 0
force Pt   0.000484557801218  -0.000670080652339   0.000687359795763 0
force Pt   0.000173869660322  -0.000639789338566  -0.000242758885319 0
force Pt   0.000067474477041   0.000231606363684   0.000460689515216 0
force Pt   0.000234411267640  -0.000743978128006   0.000041769082796 0
force Pt  -0.000186205408573   0.000431334945630   0.000412346264717 0
force Pt  -0.000107779281365  -0.000449198713887   0.000407876796810 0
force Pt   0.000003897233003   0.001678947215654   0.000505633955298 0
force Pt  -0.001917640891716  -0.003830071379053   0.001735240679929 0
force Pt  -0.000046589019387   0.011316374013865  -0.000129392973889 0
force Pt   0.002399573441806  -0.003397129471129   0.001560420963352 0
force Pt  -0.000146376687063  -0.000702228360889  -0.006501326561580 0
force Pt   0.000138720682097   0.000070461409069  -0.000012939109721 0
force Pt  -0.000196455957454   0.000673832583913   0.002245655559802 0
force Pt  -0.000402564062776   0.000381438824010  -0.000341486859569 0
force Pt  -0.001262998816238  -0.000838699655340   0.000222952060423 0
force Pt  -0.001026953232859  -0.000334692259110   0.000594202748474 0
force Pt  -0.001327403858991  -0.000016737060465   0.001175794318261 0
force Pt  -0.001393110834205  -0.000171176310845   0.000528016267089 0
force Pt   0.000238042797089   0.000272102754699  -0.000080108075422 0
force Pt   0.000434925183106   0.000104120908384  -0.000002231097819 0
force Pt   0.000748329843240  -0.000118160477834  -0.000076775437517 0
force Pt   0.000899059447394  -0.000351989245322  -0.000853300288316 0
force Pt  -0.000231306501183   0.000169172501219   0.000141369130144 0
force Pt  -0.000541290643776   0.000618681671629  -0.000297527546106 0
force Pt  -0.000018398400909   0.000433085592899  -0.000985085154841 0
force Pt   0.000214799767911   0.000510180373230  -0.000374790339495 0
force Pt  -0.000716899093816  -0.009368557278194   0.007612797863943 0
force Pt   0.000091233689144   0.000002089714345  -0.000749762407662 0
force Pt   0.000901242239905  -0.009195626720186   0.007283060293117 0
force Pt   0.000147606980802  -0.001314221614718  -0.000978717927010 0
force C   0.000968383673165   0.032446804685856  -0.000023926914424 1  Linear 0 0 1
force O  -0.001101173067113  -0.023269201626954  -0.000094599437379 1  Linear 0 0 1

# Energy components:
   A_diel =       -0.0129245501690525
   Eewald =    16450.6982641333306674
       EH =    19702.1350317285068741
     Eloc =   -40358.8206982395204250
      Enl =      -38.9383137274466122
     EvdW =       -0.8257848870377175
      Exc =    -1142.9567265931705151
 Exc_core =      655.7540181053589095
       KE =     1152.7084874201700586
-------------------------------------
     Etot =    -3580.2586466099783138
       TS =        0.0052510099198701
-------------------------------------
        F =    -3580.2638976198982164


Dumping 'jdft.fillings' ... done
Dumping 'jdft.wfns' ... done
Dumping 'jdft.fluidState' ... done
Dumping 'jdft.ionpos' ... done
Dumping 'jdft.lattice' ... done
Dumping 'jdft.eigenvals' ... done
Dumping 'jdft.eigStats' ... 
	eMin: -2.139153 at state 0 ( [ +0.000000 +0.000000 +0.000000 ] spin 1 )
	HOMO: -0.189774 at state 3 ( [ +0.250000 +0.333333 +0.000000 ] spin 1 )
	mu  : -0.189591
	LUMO: -0.189513 at state 2 ( [ +0.250000 +0.000000 +0.000000 ] spin 1 )
	eMax: +0.090415 at state 1 ( [ +0.000000 +0.333333 +0.000000 ] spin 1 )
	HOMO-LUMO gap: +0.000262
	Optical gap  : +0.000423 at state 2 ( [ +0.250000 +0.000000 +0.000000 ] spin 1 )
Dumping 'jdft.Ecomponents' ... done
IonicMinimize: Iter:  10  F: -3580.263897619898216  |grad|_K:  6.900e-05  alpha:  1.000e+00  linmin: -1.958e-03  t[s]:  34944.61
IonicMinimize: Converged (|grad|_K<1.000000e-04).

#--- Lowdin population analysis ---
# oxidation-state Pt -0.046 -0.047 -0.040 -0.046 +0.006 +0.007 +0.006 +0.009 -0.002 -0.003 -0.002 -0.003 -0.018 -0.019 -0.019 -0.019 +0.120 +0.098 +0.018 +0.098 -0.000 -0.004 -0.010 -0.004 +0.009 +0.006 +0.009 +0.007 -0.038 -0.039 -0.038 -0.039 +0.121 +0.116 +0.117 +0.117 -0.065 -0.016 -0.064 -0.030
# magnetic-moments Pt -0.000 -0.000 -0.000 -0.000 -0.000 -0.000 -0.000 -0.000 -0.000 -0.000 -0.000 -0.000 -0.000 -0.000 -0.000 -0.000 -0.000 -0.000 -0.000 -0.000 -0.000 -0.000 -0.000 -0.000 -0.000 -0.000 -0.000 -0.000 -0.000 -0.000 -0.000 -0.000 -0.000 -0.000 -0.000 -0.000 -0.000 -0.000 -0.000 -0.000
# oxidation-state C +0.428
# magnetic-moments C -0.000
# oxidation-state O -0.141
# magnetic-moments O +0.000


Dumping 'jdft.n_up' ... done
Dumping 'jdft.n_dn' ... done
Dumping 'jdft.tau_up' ... done
Dumping 'jdft.tau_dn' ... done
Dumping 'jdft.eigenvals' ... done
Dumping 'jdft.eigStats' ... 
	eMin: -2.139153 at state 0 ( [ +0.000000 +0.000000 +0.000000 ] spin 1 )
	HOMO: -0.189774 at state 3 ( [ +0.250000 +0.333333 +0.000000 ] spin 1 )
	mu  : -0.189591
	LUMO: -0.189513 at state 2 ( [ +0.250000 +0.000000 +0.000000 ] spin 1 )
	eMax: +0.090415 at state 1 ( [ +0.000000 +0.333333 +0.000000 ] spin 1 )
	HOMO-LUMO gap: +0.000262
	Optical gap  : +0.000423 at state 2 ( [ +0.250000 +0.000000 +0.000000 ] spin 1 )
Dumping 'jdft.kPts' ... done
Dumping 'jdft.kMap' ... done
Dumping 'jdft.dosUp' ... done.
Dumping 'jdft.dosDn' ... done.
End date and time: Thu Feb 17 13:33:19 2022  (Duration: 0-9:43:27.41)
Done!
