
*************** JDFTx 1.7.0 (git hash 5f12716a) ***************

Start date and time: Sat Sep 10 11:45:53 2022
Executable /home/nisi6161/jdftx_alpine/build/jdftx with command-line: -i in
Running on hosts (process indices):  c3cpu-a2-u15-2.rc.int.colorado.edu (0-23)
Divided in process groups (process indices):  0 (0)  1 (1)  2 (2)  3 (3)  4 (4)  5 (5)  6 (6)  7 (7)  8 (8)  9 (9)  10 (10)  11 (11)  12 (12)  13 (13)  14 (14)  15 (15)  16 (16)  17 (17)  18 (18)  19 (19)  20 (20)  21 (21)  22 (22)  23 (23)
Resource initialization completed at t[s]:      0.00
Run totals: 24 processes, 64 threads, 0 GPUs


Input parsed successfully to the following command list (including defaults):

basis kpoint-dependent
converge-empty-states yes
coords-type Cartesian
core-overlap-check none
coulomb-interaction Periodic
davidson-band-ratio 1.1
density-of-states Etol 1.000000e-06 Esigma 1.000000e-03 \
		Complete \
	Total \
	OrthoOrbital Pt 1   s \
	OrthoOrbital Pt 1   p \
	OrthoOrbital Pt 1   px \
	OrthoOrbital Pt 1   py \
	OrthoOrbital Pt 1   pz \
	OrthoOrbital Pt 1   d \
	OrthoOrbital Pt 1   dxy \
	OrthoOrbital Pt 1   dyz \
	OrthoOrbital Pt 1   dz2 \
	OrthoOrbital Pt 1   dxz \
	OrthoOrbital Pt 1   dx2-y2 \
	OrthoOrbital Pt 2   s \
	OrthoOrbital Pt 2   p \
	OrthoOrbital Pt 2   px \
	OrthoOrbital Pt 2   py \
	OrthoOrbital Pt 2   pz \
	OrthoOrbital Pt 2   d \
	OrthoOrbital Pt 2   dxy \
	OrthoOrbital Pt 2   dyz \
	OrthoOrbital Pt 2   dz2 \
	OrthoOrbital Pt 2   dxz \
	OrthoOrbital Pt 2   dx2-y2 \
	OrthoOrbital Pt 3   s \
	OrthoOrbital Pt 3   p \
	OrthoOrbital Pt 3   px \
	OrthoOrbital Pt 3   py \
	OrthoOrbital Pt 3   pz \
	OrthoOrbital Pt 3   d \
	OrthoOrbital Pt 3   dxy \
	OrthoOrbital Pt 3   dyz \
	OrthoOrbital Pt 3   dz2 \
	OrthoOrbital Pt 3   dxz \
	OrthoOrbital Pt 3   dx2-y2 \
	OrthoOrbital Pt 4   s \
	OrthoOrbital Pt 4   p \
	OrthoOrbital Pt 4   px \
	OrthoOrbital Pt 4   py \
	OrthoOrbital Pt 4   pz \
	OrthoOrbital Pt 4   d \
	OrthoOrbital Pt 4   dxy \
	OrthoOrbital Pt 4   dyz \
	OrthoOrbital Pt 4   dz2 \
	OrthoOrbital Pt 4   dxz \
	OrthoOrbital Pt 4   dx2-y2 \
	OrthoOrbital Pt 5   s \
	OrthoOrbital Pt 5   p \
	OrthoOrbital Pt 5   px \
	OrthoOrbital Pt 5   py \
	OrthoOrbital Pt 5   pz \
	OrthoOrbital Pt 5   d \
	OrthoOrbital Pt 5   dxy \
	OrthoOrbital Pt 5   dyz \
	OrthoOrbital Pt 5   dz2 \
	OrthoOrbital Pt 5   dxz \
	OrthoOrbital Pt 5   dx2-y2 \
	OrthoOrbital Pt 6   s \
	OrthoOrbital Pt 6   p \
	OrthoOrbital Pt 6   px \
	OrthoOrbital Pt 6   py \
	OrthoOrbital Pt 6   pz \
	OrthoOrbital Pt 6   d \
	OrthoOrbital Pt 6   dxy \
	OrthoOrbital Pt 6   dyz \
	OrthoOrbital Pt 6   dz2 \
	OrthoOrbital Pt 6   dxz \
	OrthoOrbital Pt 6   dx2-y2 \
	OrthoOrbital Pt 7   s \
	OrthoOrbital Pt 7   p \
	OrthoOrbital Pt 7   px \
	OrthoOrbital Pt 7   py \
	OrthoOrbital Pt 7   pz \
	OrthoOrbital Pt 7   d \
	OrthoOrbital Pt 7   dxy \
	OrthoOrbital Pt 7   dyz \
	OrthoOrbital Pt 7   dz2 \
	OrthoOrbital Pt 7   dxz \
	OrthoOrbital Pt 7   dx2-y2 \
	OrthoOrbital Pt 8   s \
	OrthoOrbital Pt 8   p \
	OrthoOrbital Pt 8   px \
	OrthoOrbital Pt 8   py \
	OrthoOrbital Pt 8   pz \
	OrthoOrbital Pt 8   d \
	OrthoOrbital Pt 8   dxy \
	OrthoOrbital Pt 8   dyz \
	OrthoOrbital Pt 8   dz2 \
	OrthoOrbital Pt 8   dxz \
	OrthoOrbital Pt 8   dx2-y2 \
	OrthoOrbital Pt 9   s \
	OrthoOrbital Pt 9   p \
	OrthoOrbital Pt 9   px \
	OrthoOrbital Pt 9   py \
	OrthoOrbital Pt 9   pz \
	OrthoOrbital Pt 9   d \
	OrthoOrbital Pt 9   dxy \
	OrthoOrbital Pt 9   dyz \
	OrthoOrbital Pt 9   dz2 \
	OrthoOrbital Pt 9   dxz \
	OrthoOrbital Pt 9   dx2-y2 \
	OrthoOrbital Pt 10   s \
	OrthoOrbital Pt 10   p \
	OrthoOrbital Pt 10   px \
	OrthoOrbital Pt 10   py \
	OrthoOrbital Pt 10   pz \
	OrthoOrbital Pt 10   d \
	OrthoOrbital Pt 10   dxy \
	OrthoOrbital Pt 10   dyz \
	OrthoOrbital Pt 10   dz2 \
	OrthoOrbital Pt 10   dxz \
	OrthoOrbital Pt 10   dx2-y2
dump End ElecDensity KEdensity BandEigs EigStats RhoAtom DOS Kpoints
dump Ionic State IonicPositions Lattice EigStats Ecomponents
dump 
dump 
dump 
dump 
dump 
dump 
dump 
dump 
dump-name jdft.$VAR
elec-cutoff 20
elec-eigen-algo Davidson
elec-ex-corr gga-PBE
elec-initial-magnetization 0.000000 no
elec-n-bands 96
elec-smearing Fermi 0.001
electronic-minimize  \
	dirUpdateScheme      FletcherReeves \
	linminMethod         DirUpdateRecommended \
	nIterations          100 \
	history              15 \
	knormThreshold       0 \
	energyDiffThreshold  1e-07 \
	nEnergyDiff          2 \
	alphaTstart          1 \
	alphaTmin            1e-10 \
	updateTestStepSize   yes \
	alphaTreduceFactor   0.1 \
	alphaTincreaseFactor 3 \
	nAlphaAdjustMax      3 \
	wolfeEnergy          0.0001 \
	wolfeGradient        0.9 \
	fdTest               no
exchange-regularization WignerSeitzTruncated
fluid LinearPCM 298.000000 1.013250
fluid-anion F- 0.5 MeanFieldLJ \
	epsBulk 1 \
	pMol 0 \
	epsInf 1 \
	Pvap 0 \
	sigmaBulk 0 \
	Rvdw 2.24877 \
	Res 0 \
	tauNuc 343133
fluid-cation Na+ 0.5 MeanFieldLJ \
	epsBulk 1 \
	pMol 0 \
	epsInf 1 \
	Pvap 0 \
	sigmaBulk 0 \
	Rvdw 2.19208 \
	Res 0 \
	tauNuc 343133
fluid-ex-corr lda-TF lda-PZ
fluid-gummel-loop 10 1.000000e-05
fluid-minimize  \
	dirUpdateScheme      PolakRibiere \
	linminMethod         DirUpdateRecommended \
	nIterations          400 \
	history              15 \
	knormThreshold       1e-11 \
	energyDiffThreshold  0 \
	nEnergyDiff          2 \
	alphaTstart          1 \
	alphaTmin            1e-10 \
	updateTestStepSize   yes \
	alphaTreduceFactor   0.1 \
	alphaTincreaseFactor 3 \
	nAlphaAdjustMax      6 \
	wolfeEnergy          0.0001 \
	wolfeGradient        0.9 \
	fdTest               no
fluid-solvent H2O 55.338 ScalarEOS \
	epsBulk 78.4 \
	pMol 0.92466 \
	epsInf 1.77 \
	Pvap 1.06736e-10 \
	sigmaBulk 4.62e-05 \
	Rvdw 2.61727 \
	Res 1.42 \
	tauNuc 343133 \
	poleEl 15 7 1
forces-output-coords Positions
initial-state jdft.$VAR
ion Pt   3.704059000000000   1.815113000000000  12.571568999999998 1
ion Pt  -0.001040000000000   3.270926000000000   9.140345999999999 1
ion Pt   3.697843999999999   4.972532000000000   5.876096999999999 1
ion Pt  -0.004388000000000   6.545111000000000   2.253630000000000 1
ion Pt  -3.697681000000000   8.269474000000001  15.435163999999999 1
ion Pt   3.701373000000000   6.609264000000000  10.669056999999999 1
ion Pt   3.700841000000000   0.038393000000000   7.404359999999999 1
ion Pt  -0.004484000000000   1.493602000000000   3.974031000000000 1
ion Pt   3.697641000000000   3.311767000000000   1.112222000000000 1
ion Pt   0.004151000000000   5.036371000000000  14.288593999999996 1
ion-species /projects/musgravc/apps/jdftx-1.6.0/build/pseudopotentials/GBRV_v1.5/$ID_pbe_v1.uspp
ion-species /projects/musgravc/apps/jdftx-1.6.0/build/pseudopotentials/GBRV_v1.5/$ID_pbe_v1.2.uspp
ion-species /projects/musgravc/apps/jdftx-1.6.0/build/pseudopotentials/GBRV_v1.5/$ID_pbe_v1.4.uspp
ion-species /projects/musgravc/apps/jdftx-1.6.0/build/pseudopotentials/GBRV_v1.5/$ID_pbe_v1.5.uspp
ion-width Ecut
ionic-minimize  \
	dirUpdateScheme      L-BFGS \
	linminMethod         DirUpdateRecommended \
	nIterations          100 \
	history              15 \
	knormThreshold       0.0001 \
	energyDiffThreshold  0.0001 \
	nEnergyDiff          2 \
	alphaTstart          1 \
	alphaTmin            1e-10 \
	updateTestStepSize   yes \
	alphaTreduceFactor   0.1 \
	alphaTincreaseFactor 3 \
	nAlphaAdjustMax      3 \
	wolfeEnergy          0.0001 \
	wolfeGradient        0.9 \
	fdTest               no
kpoint   0.000000000000   0.000000000000   0.000000000000  1.00000000000000
kpoint-folding 9 7 1 
latt-move-scale 0 0 0
latt-scale 1 1 1 
lattice  \
	   7.399158000000000   -3.699579000000000    0.000000000000000  \
	   0.000000000000000    8.272510000000000    0.000000000000000  \
	   0.000000000000000    0.000000000000000   49.635063000000002 
lattice-minimize  \
	dirUpdateScheme      L-BFGS \
	linminMethod         DirUpdateRecommended \
	nIterations          0 \
	history              15 \
	knormThreshold       0 \
	energyDiffThreshold  1e-06 \
	nEnergyDiff          2 \
	alphaTstart          1 \
	alphaTmin            1e-10 \
	updateTestStepSize   yes \
	alphaTreduceFactor   0.1 \
	alphaTincreaseFactor 3 \
	nAlphaAdjustMax      3 \
	wolfeEnergy          0.0001 \
	wolfeGradient        0.9 \
	fdTest               no
lcao-params 30 1e-06 0.001
pcm-variant CANDLE
spintype z-spin
subspace-rotation-factor 1 yes
symmetries automatic
symmetry-threshold 0.0001
target-mu -0.208 no

van-der-waals D3



---------- Setting up symmetries ----------

Found 8 point-group symmetries of the bravais lattice
Found 1 space-group symmetries with basis
Applied RMS atom displacement 0 bohrs to make symmetries exact.

---------- Initializing the Grid ----------
R = 
[      7.39916     -3.69958            0  ]
[            0      8.27251            0  ]
[            0            0      49.6351  ]
unit cell volume = 3038.14
G =
[   0.849176   0.379763         -0  ]
[          0   0.759526          0  ]
[          0         -0   0.126588  ]
Minimum fftbox size, Smin = [  32  40  200  ]
Chosen fftbox size, S = [  32  40  200  ]

---------- Exchange Correlation functional ----------
Initalized PBE GGA exchange.
Initalized PBE GGA correlation.

---------- Setting up pseudopotentials ----------
Width of ionic core gaussian charges (only for fluid interactions / plotting) set to 0.397384

Reading pseudopotential file '/projects/musgravc/apps/jdftx-1.6.0/build/pseudopotentials/GBRV_v1.5/pt_pbe_v1.4.uspp':
  Title: Pt.  Created by USPP 7.3.6 on 31-3-15
  Reference state energy: -105.002503.  16 valence electrons in orbitals:
    |510>  occupation: 6  eigenvalue: -2.158104
    |520>  occupation: 9.5  eigenvalue: -0.335376
    |600>  occupation: 0  eigenvalue: -0.319640
    |610>  occupation: 0  eigenvalue: -0.122947
  lMax: 2  lLocal: 3  QijEcut: 5.5
  6 projectors sampled on a log grid with 745 points:
    l: 0  eig: -0.319640  rCut: 2.45
    l: 0  eig: 1.500000  rCut: 2.45
    l: 1  eig: -2.158104  rCut: 1.6
    l: 1  eig: -0.122947  rCut: 1.6
    l: 2  eig: -0.500000  rCut: 1.6
    l: 2  eig: -0.335375  rCut: 1.6
  Partial core density with radius 1.1
  Transforming core density to a uniform radial grid of dG=0.02 with 1417 points.
  Transforming local potential to a uniform radial grid of dG=0.02 with 1417 points.
  Transforming nonlocal projectors to a uniform radial grid of dG=0.02 with 432 points.
  Transforming density augmentations to a uniform radial grid of dG=0.02 with 1417 points.
  Transforming atomic orbitals to a uniform radial grid of dG=0.02 with 432 points.
  Core radius for overlap checks: 2.45 bohrs.

Initialized 1 species with 10 total atoms.

Folded 1 k-points by 9x7x1 to 63 k-points.

---------- Setting up k-points, bands, fillings ----------
Adding inversion symmetry to k-mesh for non-inversion-symmetric unit cell.
Reduced to 32 k-points under symmetry. 
Computing the number of bands and number of electrons
Reading initial fillings from file jdft.fillings.
nElectrons: 159.588800   nBands: 96   nStates: 64

----- Setting up reduced wavefunction bases (one per k-point) -----
average nbasis = 12976.429 , ideal nbasis = 12979.177

----- Initializing Supercell corresponding to k-point mesh -----
Lattice vector linear combinations in supercell:
[   9   0   0  ]
[   0   7   0  ]
[   0   0   1  ]
Supercell lattice vectors:
[  66.5924  -25.8971  0  ]
[  0  57.9076  0  ]
[  0  0  49.6351  ]

Initializing DFT-D3 calculator:
	Parameters set for gga-PBE functional
	s6:  1.000  s_r6:  1.217
	s8:  0.722  s_r8:  1.000
	Per-atom parameters loaded for:
	Pt:  sqrtQ[a0]:  5.888  Rcov[a0]:  2.116  CN: [ 0.00 1.92 6.67 ]

Initializing DFT-D2 calculator for fluid / solvation:
	Pt:  C6:  815.23 Eh-a0^6  R0: 3.326 a0 (WARNING: beyond Grimme's data set)

---------- Setting up ewald sum ----------
Optimum gaussian width for ewald sums = 3.936523 bohr.
Real space sum over 975 unit cells with max indices [  7  6  2  ]
Reciprocal space sum over 4257 terms with max indices [  4  5  21  ]

Computing DFT-D3 correction:
# coordination-number Pt 8.543 9.283 9.337 6.963 5.354 9.338 9.282 8.543 5.357 6.968
# diagonal-C6 Pt 336.87 336.87 336.87 336.87 336.87 336.87 336.87 336.87 336.87 336.87
EvdW_6 =   -0.074787
EvdW_8 =   -0.128267

---------- Allocating electronic variables ----------
Initializing wave functions:  reading from 'jdft.wfns'
----- createFluidSolver() ----- (Fluid-side solver setup)
   Initializing fluid molecule 'H2O'
     Initializing site 'O'
       Electron density: proportional to exp(-r/0.36935)*erfc((r-0.51523)/0.36823) with norm 6.826
       Charge density: gaussian nuclear width 0.478731 with net site charge 0.826
       Polarizability: cuspless exponential with width 0.32 and norm 3.73
       Hard sphere radius: 2.57003 bohrs
       Positions in reference frame:
         [ +0.000000 +0.000000 +0.000000 ]
     Initializing site 'H'
       Electron density: proportional to exp(-r/0.34641)*erfc((r-0)/0.390882) with norm 0.587
       Charge density: gaussian nuclear width 0.377945 with net site charge -0.413
       Polarizability: cuspless exponential with width 0.39 and norm 3.3
       Positions in reference frame:
         [ +0.000000 -1.441945 +1.122523 ]
         [ +0.000000 +1.441945 +1.122523 ]
     Net charge: 0   dipole magnitude: 0.927204
     Initializing spherical shell mfKernel with radius 2.61727 Bohr
     deltaS corrections:
       site 'O': -7.54299
       site 'H': -6.83917
   Initializing fluid molecule 'Na+'
     Initializing site 'Na'
       Electron density: proportional to exp(-r/0.19682)*erfc((r-0.71491)/0.41314) with norm 8.1383
       Charge density: gaussian nuclear width 0.365347 with net site charge -1
       Hard sphere radius: 1.86327 bohrs
       Positions in reference frame:
         [ +0.000000 +0.000000 +0.000000 ]
     Net charge: -1   dipole magnitude: 0
     Initializing gaussian mfKernel with width: 1.55004 Bohr
     deltaS corrections:
       site 'Na': -22.3555
   Initializing fluid molecule 'F-'
     Initializing site 'F'
       Electron density: proportional to exp(-r/0.38886)*erfc((r-0)/0.438782) with norm 8
       Charge density: gaussian nuclear width 0.374796 with net site charge 1
       Hard sphere radius: 2.39995 bohrs
       Positions in reference frame:
         [ +0.000000 +0.000000 +0.000000 ]
     Net charge: 1   dipole magnitude: 0
     Initializing gaussian mfKernel with width: 1.59012 Bohr
     deltaS corrections:
       site 'F': -9.04335

Correction to mu due to finite nuclear width = -0.052253
   Cavity determined by nc: 0.00142 and sigma: 0.707107
   Nonlocal vdW cavity from gaussian model electron density with norm = 8 and sigma = 0.993594 bohr
   Charge asymmetry in cavity with sensitivity pCavity = 36.5 e-bohr/Eh
   Electrostatic cavity expanded by eta = 1.46 bohrs
   Weighted density cavitation model constrained by Nbulk: 0.0049383 bohr^-3, Pvap: 3.14029 kPa, Rvdw: 2.61727 bohr and sigmaBulk: 4.62e-05 Eh/bohr^2 at T: 298 K.
   Weighted density dispersion model using vdW pair potentials with single solvent site with sqrtC6eff: 0.77 SI.
Reading fluid state from 'jdft.fluidState'


---- Citations for features of the code used in this run ----

   Software package:
      R. Sundararaman, K. Letchworth-Weaver, K.A. Schwarz, D. Gunceler, Y. Ozhabes and T.A. Arias, 'JDFTx: software for joint density-functional theory', SoftwareX 6, 278 (2017)

   gga-PBE exchange-correlation functional:
      J.P. Perdew, K. Burke and M. Ernzerhof, Phys. Rev. Lett. 77, 3865 (1996)

   Pseudopotentials:
      KF Garrity, JW Bennett, KM Rabe and D Vanderbilt, Comput. Mater. Sci. 81, 446 (2014)

   DFT-D3 dispersion correction:
      S. Grimme, J. Antony, S. Ehrlich and H. Krieg, J. Chem. Phys. 132, 154104 (2010)

   DFT-D2 dispersion correction:
      S. Grimme, J. Comput. Chem. 27, 1787 (2006)

   Charge-asymmetric nonlocally-determined local-electric (CANDLE) solvation model:
      R. Sundararaman and W.A. Goddard III, J. Chem. Phys. 142, 064107 (2015)

   Total energy minimization with Auxiliary Hamiltonian:
      C. Freysoldt, S. Boeck, and J. Neugebauer, Phys. Rev. B 79, 241103(R) (2009)

   Grand-canonical (fixed-potential) DFT:
      R. Sundararaman, W. A. Goddard III and T. A. Arias, J. Chem. Phys. 146, 114104 (2017)

   Linear-tetrahedron sampling for density of states:
      G. Lehmann and M. Taut, Phys. status solidi (b) 54, 469 (1972)

This list may not be complete. Please suggest additional citations or
report any other bugs at https://github.com/shankar1729/jdftx/issues

Initialization completed successfully at t[s]:      6.99


Computing DFT-D3 correction:
# coordination-number Pt 8.543 9.283 9.337 6.963 5.354 9.338 9.282 8.543 5.357 6.968
# diagonal-C6 Pt 336.87 336.87 336.87 336.87 336.87 336.87 336.87 336.87 336.87 336.87
EvdW_6 =   -0.074787
EvdW_8 =   -0.128267
Shifting auxilliary hamiltonian by 0.036814 to set nElectrons=159.588800

-------- Electronic minimization -----------
	Linear fluid (dielectric constant: 78.4, screening length: 8.12261 Bohr) occupying 0.507530 of unit cell:	Completed after 19 iterations at t[s]:     14.34
	FillingsUpdate:  mu: -0.208000000  nElectrons: 159.588800  magneticMoment: [ Abs: 0.00007  Tot: +0.00007 ]
ElecMinimize: Iter:   0  G: -855.894750611594645  |grad|_K:  1.518e-04  alpha:  1.000e+00
	Linear fluid (dielectric constant: 78.4, screening length: 8.12261 Bohr) occupying 0.500668 of unit cell:	Completed after 29 iterations at t[s]:     37.21
	Linear fluid (dielectric constant: 78.4, screening length: 8.12261 Bohr) occupying 0.507382 of unit cell:	Completed after 33 iterations at t[s]:     47.08
	FillingsUpdate:  mu: -0.208000000  nElectrons: 159.330269  magneticMoment: [ Abs: 0.00008  Tot: +0.00007 ]
	SubspaceRotationAdjust: set factor to 0.644
ElecMinimize: Iter:   1  G: -855.922761089561618  |grad|_K:  2.387e-04  alpha:  1.487e-02  linmin:  6.791e-04  t[s]:     58.31
	Linear fluid (dielectric constant: 78.4, screening length: 8.12261 Bohr) occupying 0.506945 of unit cell:	Completed after 22 iterations at t[s]:     68.21
ElecMinimize: 	Predicted alpha/alphaT>3.000000, increasing alphaT to 4.461635e-02.
	Linear fluid (dielectric constant: 78.4, screening length: 8.12261 Bohr) occupying 0.506106 of unit cell:	Completed after 24 iterations at t[s]:     77.17
	Linear fluid (dielectric constant: 78.4, screening length: 8.12261 Bohr) occupying 0.505734 of unit cell:	Completed after 22 iterations at t[s]:     86.00
	FillingsUpdate:  mu: -0.208000000  nElectrons: 159.852127  magneticMoment: [ Abs: 0.00007  Tot: +0.00006 ]
	SubspaceRotationAdjust: set factor to 0.349
ElecMinimize: Iter:   2  G: -856.184737113303413  |grad|_K:  1.959e-04  alpha:  5.804e-02  linmin: -1.888e-03  t[s]:     97.35
	Linear fluid (dielectric constant: 78.4, screening length: 8.12261 Bohr) occupying 0.575684 of unit cell:	Completed after 29 iterations at t[s]:    107.87
	Linear fluid (dielectric constant: 78.4, screening length: 8.12261 Bohr) occupying 0.517780 of unit cell:	Completed after 28 iterations at t[s]:    117.27
	FillingsUpdate:  mu: -0.208000000  nElectrons: 160.261273  magneticMoment: [ Abs: 0.00006  Tot: +0.00006 ]
	SubspaceRotationAdjust: set factor to 0.219
ElecMinimize: Iter:   3  G: -856.218831422600942  |grad|_K:  9.775e-05  alpha:  1.268e-02  linmin:  2.219e-03  t[s]:    128.67
	Linear fluid (dielectric constant: 78.4, screening length: 8.12261 Bohr) occupying 0.514495 of unit cell:	Completed after 19 iterations at t[s]:    138.43
ElecMinimize: 	Predicted alpha/alphaT>3.000000, increasing alphaT to 3.805276e-02.
	Linear fluid (dielectric constant: 78.4, screening length: 8.12261 Bohr) occupying 0.509146 of unit cell:	Completed after 21 iterations at t[s]:    147.25
ElecMinimize: 	Predicted alpha/alphaT>3.000000, increasing alphaT to 1.141583e-01.
	Linear fluid (dielectric constant: 78.4, screening length: 8.12261 Bohr) occupying 0.504754 of unit cell:	Completed after 22 iterations at t[s]:    156.14
	Linear fluid (dielectric constant: 78.4, screening length: 8.12261 Bohr) occupying 0.504652 of unit cell:	Completed after 20 iterations at t[s]:    164.79
	FillingsUpdate:  mu: -0.208000000  nElectrons: 159.852479  magneticMoment: [ Abs: 0.00006  Tot: +0.00006 ]
	SubspaceRotationAdjust: set factor to 0.153
ElecMinimize: Iter:   4  G: -856.311676974767011  |grad|_K:  2.979e-05  alpha:  1.295e-01  linmin:  4.296e-03  t[s]:    176.01
	Linear fluid (dielectric constant: 78.4, screening length: 8.12261 Bohr) occupying 0.504380 of unit cell:	Completed after 21 iterations at t[s]:    185.88
	Linear fluid (dielectric constant: 78.4, screening length: 8.12261 Bohr) occupying 0.504257 of unit cell:	Completed after 20 iterations at t[s]:    194.60
	FillingsUpdate:  mu: -0.208000000  nElectrons: 159.917703  magneticMoment: [ Abs: 0.00006  Tot: +0.00006 ]
	SubspaceRotationAdjust: set factor to 0.0922
	SubspaceRotationAdjust: resetting CG because factor has changed by 0.0921892
	Linear fluid (dielectric constant: 78.4, screening length: 8.12261 Bohr) occupying 0.504257 of unit cell:	Completed after 0 iterations at t[s]:    210.60
ElecMinimize: 	State modified externally: resetting search direction.
ElecMinimize: Iter:   5  G: -856.324157088474749  |grad|_K:  3.300e-05  alpha:  1.882e-01
	Linear fluid (dielectric constant: 78.4, screening length: 8.12261 Bohr) occupying 0.503952 of unit cell:	Completed after 23 iterations at t[s]:    231.97
	Linear fluid (dielectric constant: 78.4, screening length: 8.12261 Bohr) occupying 0.504163 of unit cell:	Completed after 22 iterations at t[s]:    240.83
	FillingsUpdate:  mu: -0.208000000  nElectrons: 159.801358  magneticMoment: [ Abs: 0.00006  Tot: +0.00006 ]
	SubspaceRotationAdjust: set factor to 0.12
ElecMinimize: Iter:   6  G: -856.329380926993053  |grad|_K:  1.439e-05  alpha:  5.744e-02  linmin: -7.460e-03  t[s]:    252.11
	Linear fluid (dielectric constant: 78.4, screening length: 8.12261 Bohr) occupying 0.504087 of unit cell:	Completed after 18 iterations at t[s]:    261.64
ElecMinimize: 	Predicted alpha/alphaT>3.000000, increasing alphaT to 1.723096e-01.
	Linear fluid (dielectric constant: 78.4, screening length: 8.12261 Bohr) occupying 0.503935 of unit cell:	Completed after 19 iterations at t[s]:    270.29
	Linear fluid (dielectric constant: 78.4, screening length: 8.12261 Bohr) occupying 0.503790 of unit cell:	Completed after 19 iterations at t[s]:    279.02
	FillingsUpdate:  mu: -0.208000000  nElectrons: 159.822429  magneticMoment: [ Abs: 0.00006  Tot: +0.00006 ]
	SubspaceRotationAdjust: set factor to 0.107
ElecMinimize: Iter:   7  G: -856.334213298888585  |grad|_K:  8.392e-06  alpha:  2.812e-01  linmin: -1.216e-04  t[s]:    290.29
	Linear fluid (dielectric constant: 78.4, screening length: 8.12261 Bohr) occupying 0.503374 of unit cell:	Completed after 21 iterations at t[s]:    300.29
	Linear fluid (dielectric constant: 78.4, screening length: 8.12261 Bohr) occupying 0.503651 of unit cell:	Completed after 20 iterations at t[s]:    309.05
	FillingsUpdate:  mu: -0.208000000  nElectrons: 159.859655  magneticMoment: [ Abs: 0.00006  Tot: +0.00006 ]
	SubspaceRotationAdjust: set factor to 0.0815
ElecMinimize: Iter:   8  G: -856.334737561843099  |grad|_K:  9.166e-06  alpha:  9.399e-02  linmin:  3.718e-04  t[s]:    320.54
	Linear fluid (dielectric constant: 78.4, screening length: 8.12261 Bohr) occupying 0.503377 of unit cell:	Completed after 18 iterations at t[s]:    330.14
	Linear fluid (dielectric constant: 78.4, screening length: 8.12261 Bohr) occupying 0.503023 of unit cell:	Completed after 19 iterations at t[s]:    338.73
	FillingsUpdate:  mu: -0.208000000  nElectrons: 159.837386  magneticMoment: [ Abs: 0.00006  Tot: +0.00006 ]
	SubspaceRotationAdjust: set factor to 0.0825
ElecMinimize: Iter:   9  G: -856.336165524282706  |grad|_K:  6.258e-06  alpha:  2.144e-01  linmin:  9.653e-05  t[s]:    350.14
	Linear fluid (dielectric constant: 78.4, screening length: 8.12261 Bohr) occupying 0.502579 of unit cell:	Completed after 20 iterations at t[s]:    360.07
	Linear fluid (dielectric constant: 78.4, screening length: 8.12261 Bohr) occupying 0.502557 of unit cell:	Completed after 14 iterations at t[s]:    368.31
	FillingsUpdate:  mu: -0.208000000  nElectrons: 159.805220  magneticMoment: [ Abs: 0.00006  Tot: +0.00006 ]
	SubspaceRotationAdjust: set factor to 0.0481
ElecMinimize: Iter:  10  G: -856.336869128255103  |grad|_K:  8.298e-06  alpha:  2.251e-01  linmin:  5.517e-05  t[s]:    379.61
	Linear fluid (dielectric constant: 78.4, screening length: 8.12261 Bohr) occupying 0.501658 of unit cell:	Completed after 21 iterations at t[s]:    389.42
	Linear fluid (dielectric constant: 78.4, screening length: 8.12261 Bohr) occupying 0.502132 of unit cell:	Completed after 20 iterations at t[s]:    398.11
	FillingsUpdate:  mu: -0.208000000  nElectrons: 159.833348  magneticMoment: [ Abs: 0.00006  Tot: +0.00006 ]
	SubspaceRotationAdjust: set factor to 0.054
ElecMinimize: Iter:  11  G: -856.337454007139968  |grad|_K:  3.550e-06  alpha:  1.071e-01  linmin:  1.201e-04  t[s]:    409.54
	Linear fluid (dielectric constant: 78.4, screening length: 8.12261 Bohr) occupying 0.502030 of unit cell:	Completed after 14 iterations at t[s]:    418.76
ElecMinimize: 	Predicted alpha/alphaT>3.000000, increasing alphaT to 3.212686e-01.
	Linear fluid (dielectric constant: 78.4, screening length: 8.12261 Bohr) occupying 0.501824 of unit cell:	Completed after 15 iterations at t[s]:    427.12
	Linear fluid (dielectric constant: 78.4, screening length: 8.12261 Bohr) occupying 0.501745 of unit cell:	Completed after 12 iterations at t[s]:    435.16
	FillingsUpdate:  mu: -0.208000000  nElectrons: 159.855842  magneticMoment: [ Abs: 0.00006  Tot: +0.00005 ]
	SubspaceRotationAdjust: set factor to 0.0375
ElecMinimize: Iter:  12  G: -856.337859154312582  |grad|_K:  4.558e-06  alpha:  4.027e-01  linmin: -7.616e-05  t[s]:    446.47
	Linear fluid (dielectric constant: 78.4, screening length: 8.12261 Bohr) occupying 0.500994 of unit cell:	Completed after 20 iterations at t[s]:    456.35
	Linear fluid (dielectric constant: 78.4, screening length: 8.12261 Bohr) occupying 0.501477 of unit cell:	Completed after 20 iterations at t[s]:    465.16
	FillingsUpdate:  mu: -0.208000000  nElectrons: 159.839895  magneticMoment: [ Abs: 0.00006  Tot: +0.00005 ]
	SubspaceRotationAdjust: set factor to 0.0316
ElecMinimize: Iter:  13  G: -856.338103651245206  |grad|_K:  3.080e-06  alpha:  1.454e-01  linmin: -1.121e-04  t[s]:    476.52
	Linear fluid (dielectric constant: 78.4, screening length: 8.12261 Bohr) occupying 0.501347 of unit cell:	Completed after 16 iterations at t[s]:    485.96
	Linear fluid (dielectric constant: 78.4, screening length: 8.12261 Bohr) occupying 0.501097 of unit cell:	Completed after 18 iterations at t[s]:    494.48
	FillingsUpdate:  mu: -0.208000000  nElectrons: 159.833116  magneticMoment: [ Abs: 0.00005  Tot: +0.00005 ]
	SubspaceRotationAdjust: set factor to 0.0302
ElecMinimize: Iter:  14  G: -856.338422869255965  |grad|_K:  3.402e-06  alpha:  4.193e-01  linmin:  6.795e-05  t[s]:    505.75
	Linear fluid (dielectric constant: 78.4, screening length: 8.12261 Bohr) occupying 0.500665 of unit cell:	Completed after 17 iterations at t[s]:    515.43
	Linear fluid (dielectric constant: 78.4, screening length: 8.12261 Bohr) occupying 0.500864 of unit cell:	Completed after 14 iterations at t[s]:    523.59
	FillingsUpdate:  mu: -0.208000000  nElectrons: 159.851236  magneticMoment: [ Abs: 0.00005  Tot: +0.00005 ]
	SubspaceRotationAdjust: set factor to 0.0266
ElecMinimize: Iter:  15  G: -856.338632145407473  |grad|_K:  2.885e-06  alpha:  2.285e-01  linmin:  4.094e-05  t[s]:    534.93
	Linear fluid (dielectric constant: 78.4, screening length: 8.12261 Bohr) occupying 0.500712 of unit cell:	Completed after 18 iterations at t[s]:    544.59
	Linear fluid (dielectric constant: 78.4, screening length: 8.12261 Bohr) occupying 0.500558 of unit cell:	Completed after 17 iterations at t[s]:    552.98
	FillingsUpdate:  mu: -0.208000000  nElectrons: 159.862166  magneticMoment: [ Abs: 0.00005  Tot: +0.00005 ]
	SubspaceRotationAdjust: set factor to 0.0301
ElecMinimize: Iter:  16  G: -856.338934059521648  |grad|_K:  3.191e-06  alpha:  4.534e-01  linmin: -5.482e-05  t[s]:    564.41
	Linear fluid (dielectric constant: 78.4, screening length: 8.12261 Bohr) occupying 0.500212 of unit cell:	Completed after 19 iterations at t[s]:    574.15
	Linear fluid (dielectric constant: 78.4, screening length: 8.12261 Bohr) occupying 0.500360 of unit cell:	Completed after 18 iterations at t[s]:    582.80
	FillingsUpdate:  mu: -0.208000000  nElectrons: 159.849074  magneticMoment: [ Abs: 0.00005  Tot: +0.00005 ]
	SubspaceRotationAdjust: set factor to 0.0258
ElecMinimize: Iter:  17  G: -856.339151023967361  |grad|_K:  2.761e-06  alpha:  2.633e-01  linmin: -2.502e-05  t[s]:    594.17
	Linear fluid (dielectric constant: 78.4, screening length: 8.12261 Bohr) occupying 0.500258 of unit cell:	Completed after 16 iterations at t[s]:    603.59
	Linear fluid (dielectric constant: 78.4, screening length: 8.12261 Bohr) occupying 0.500199 of unit cell:	Completed after 15 iterations at t[s]:    611.84
	FillingsUpdate:  mu: -0.208000000  nElectrons: 159.847910  magneticMoment: [ Abs: 0.00005  Tot: +0.00004 ]
	SubspaceRotationAdjust: set factor to 0.0315
ElecMinimize: Iter:  18  G: -856.339402406955060  |grad|_K:  2.705e-06  alpha:  4.118e-01  linmin:  2.330e-05  t[s]:    623.20
	Linear fluid (dielectric constant: 78.4, screening length: 8.12261 Bohr) occupying 0.500127 of unit cell:	Completed after 18 iterations at t[s]:    632.87
	Linear fluid (dielectric constant: 78.4, screening length: 8.12261 Bohr) occupying 0.500146 of unit cell:	Completed after 14 iterations at t[s]:    641.04
	FillingsUpdate:  mu: -0.208000000  nElectrons: 159.862551  magneticMoment: [ Abs: 0.00004  Tot: +0.00004 ]
	SubspaceRotationAdjust: set factor to 0.026
ElecMinimize: Iter:  19  G: -856.339582264698720  |grad|_K:  2.688e-06  alpha:  3.088e-01  linmin: -1.783e-05  t[s]:    652.48
	Linear fluid (dielectric constant: 78.4, screening length: 8.12261 Bohr) occupying 0.500136 of unit cell:	Completed after 15 iterations at t[s]:    661.89
	Linear fluid (dielectric constant: 78.4, screening length: 8.12261 Bohr) occupying 0.500131 of unit cell:	Completed after 10 iterations at t[s]:    669.84
	FillingsUpdate:  mu: -0.208000000  nElectrons: 159.857858  magneticMoment: [ Abs: 0.00004  Tot: +0.00004 ]
	SubspaceRotationAdjust: set factor to 0.0328
ElecMinimize: Iter:  20  G: -856.339819522049993  |grad|_K:  2.105e-06  alpha:  4.102e-01  linmin:  3.130e-05  t[s]:    681.16
	Linear fluid (dielectric constant: 78.4, screening length: 8.12261 Bohr) occupying 0.500174 of unit cell:	Completed after 17 iterations at t[s]:    690.65
	Linear fluid (dielectric constant: 78.4, screening length: 8.12261 Bohr) occupying 0.500168 of unit cell:	Completed after 13 iterations at t[s]:    698.78
	FillingsUpdate:  mu: -0.208000000  nElectrons: 159.847278  magneticMoment: [ Abs: 0.00004  Tot: +0.00004 ]
	SubspaceRotationAdjust: set factor to 0.0284
ElecMinimize: Iter:  21  G: -856.339942986495316  |grad|_K:  2.103e-06  alpha:  3.486e-01  linmin:  2.928e-05  t[s]:    710.15
	Linear fluid (dielectric constant: 78.4, screening length: 8.12261 Bohr) occupying 0.500247 of unit cell:	Completed after 14 iterations at t[s]:    719.53
	Linear fluid (dielectric constant: 78.4, screening length: 8.12261 Bohr) occupying 0.500236 of unit cell:	Completed after 10 iterations at t[s]:    727.34
	FillingsUpdate:  mu: -0.208000000  nElectrons: 159.856540  magneticMoment: [ Abs: 0.00004  Tot: +0.00004 ]
	SubspaceRotationAdjust: set factor to 0.0257
ElecMinimize: Iter:  22  G: -856.340048239151656  |grad|_K:  1.557e-06  alpha:  2.984e-01  linmin: -2.675e-05  t[s]:    738.76
	Linear fluid (dielectric constant: 78.4, screening length: 8.12261 Bohr) occupying 0.500282 of unit cell:	Completed after 14 iterations at t[s]:    748.05
	Linear fluid (dielectric constant: 78.4, screening length: 8.12261 Bohr) occupying 0.500307 of unit cell:	Completed after 12 iterations at t[s]:    756.21
	FillingsUpdate:  mu: -0.208000000  nElectrons: 159.860199  magneticMoment: [ Abs: 0.00004  Tot: +0.00004 ]
	SubspaceRotationAdjust: set factor to 0.0295
ElecMinimize: Iter:  23  G: -856.340138511512350  |grad|_K:  1.289e-06  alpha:  4.641e-01  linmin: -3.161e-05  t[s]:    767.48
	Linear fluid (dielectric constant: 78.4, screening length: 8.12261 Bohr) occupying 0.500337 of unit cell:	Completed after 15 iterations at t[s]:    776.82
	Linear fluid (dielectric constant: 78.4, screening length: 8.12261 Bohr) occupying 0.500326 of unit cell:	Completed after 13 iterations at t[s]:    784.89
	FillingsUpdate:  mu: -0.208000000  nElectrons: 159.853653  magneticMoment: [ Abs: 0.00004  Tot: +0.00004 ]
	SubspaceRotationAdjust: set factor to 0.0229
ElecMinimize: Iter:  24  G: -856.340175923340780  |grad|_K:  9.978e-07  alpha:  2.803e-01  linmin: -8.753e-06  t[s]:    796.18
	Linear fluid (dielectric constant: 78.4, screening length: 8.12261 Bohr) occupying 0.500327 of unit cell:	Completed after 12 iterations at t[s]:    805.34
	Linear fluid (dielectric constant: 78.4, screening length: 8.12261 Bohr) occupying 0.500327 of unit cell:	Completed after 11 iterations at t[s]:    813.30
	FillingsUpdate:  mu: -0.208000000  nElectrons: 159.855274  magneticMoment: [ Abs: 0.00004  Tot: +0.00003 ]
	SubspaceRotationAdjust: set factor to 0.0267
ElecMinimize: Iter:  25  G: -856.340208293170008  |grad|_K:  7.376e-07  alpha:  4.061e-01  linmin: -1.404e-05  t[s]:    824.68
	Linear fluid (dielectric constant: 78.4, screening length: 8.12261 Bohr) occupying 0.500311 of unit cell:	Completed after 12 iterations at t[s]:    833.82
	Linear fluid (dielectric constant: 78.4, screening length: 8.12261 Bohr) occupying 0.500308 of unit cell:	Completed after 9 iterations at t[s]:    841.58
	FillingsUpdate:  mu: -0.208000000  nElectrons: 159.857591  magneticMoment: [ Abs: 0.00004  Tot: +0.00003 ]
	SubspaceRotationAdjust: set factor to 0.0267
ElecMinimize: Iter:  26  G: -856.340228941231089  |grad|_K:  6.752e-07  alpha:  4.740e-01  linmin: -1.110e-05  t[s]:    852.97
	Linear fluid (dielectric constant: 78.4, screening length: 8.12261 Bohr) occupying 0.500270 of unit cell:	Completed after 13 iterations at t[s]:    862.26
	Linear fluid (dielectric constant: 78.4, screening length: 8.12261 Bohr) occupying 0.500283 of unit cell:	Completed after 11 iterations at t[s]:    870.28
	FillingsUpdate:  mu: -0.208000000  nElectrons: 159.854620  magneticMoment: [ Abs: 0.00003  Tot: +0.00003 ]
	SubspaceRotationAdjust: set factor to 0.0223
ElecMinimize: Iter:  27  G: -856.340240390351710  |grad|_K:  5.222e-07  alpha:  3.136e-01  linmin: -7.454e-07  t[s]:    881.58
	Linear fluid (dielectric constant: 78.4, screening length: 8.12261 Bohr) occupying 0.500259 of unit cell:	Completed after 11 iterations at t[s]:    890.55
	Linear fluid (dielectric constant: 78.4, screening length: 8.12261 Bohr) occupying 0.500246 of unit cell:	Completed after 10 iterations at t[s]:    898.42
	FillingsUpdate:  mu: -0.208000000  nElectrons: 159.856079  magneticMoment: [ Abs: 0.00003  Tot: +0.00003 ]
	SubspaceRotationAdjust: set factor to 0.0253
ElecMinimize: Iter:  28  G: -856.340250949861684  |grad|_K:  4.714e-07  alpha:  4.840e-01  linmin:  3.453e-06  t[s]:    909.81
	Linear fluid (dielectric constant: 78.4, screening length: 8.12261 Bohr) occupying 0.500204 of unit cell:	Completed after 11 iterations at t[s]:    918.88
	Linear fluid (dielectric constant: 78.4, screening length: 8.12261 Bohr) occupying 0.500198 of unit cell:	Completed after 7 iterations at t[s]:    926.41
	FillingsUpdate:  mu: -0.208000000  nElectrons: 159.857776  magneticMoment: [ Abs: 0.00003  Tot: +0.00003 ]
	SubspaceRotationAdjust: set factor to 0.0267
ElecMinimize: Iter:  29  G: -856.340260659721139  |grad|_K:  4.722e-07  alpha:  5.461e-01  linmin: -8.822e-06  t[s]:    937.86
	Linear fluid (dielectric constant: 78.4, screening length: 8.12261 Bohr) occupying 0.500139 of unit cell:	Completed after 13 iterations at t[s]:    947.08
	Linear fluid (dielectric constant: 78.4, screening length: 8.12261 Bohr) occupying 0.500157 of unit cell:	Completed after 10 iterations at t[s]:    955.03
	FillingsUpdate:  mu: -0.208000000  nElectrons: 159.855625  magneticMoment: [ Abs: 0.00003  Tot: +0.00003 ]
	SubspaceRotationAdjust: set factor to 0.0228
ElecMinimize: Iter:  30  G: -856.340267492720045  |grad|_K:  4.403e-07  alpha:  3.825e-01  linmin:  4.654e-06  t[s]:    966.34
	Linear fluid (dielectric constant: 78.4, screening length: 8.12261 Bohr) occupying 0.500119 of unit cell:	Completed after 10 iterations at t[s]:    975.27
	Linear fluid (dielectric constant: 78.4, screening length: 8.12261 Bohr) occupying 0.500104 of unit cell:	Completed after 10 iterations at t[s]:    983.10
	FillingsUpdate:  mu: -0.208000000  nElectrons: 159.857452  magneticMoment: [ Abs: 0.00003  Tot: +0.00003 ]
	SubspaceRotationAdjust: set factor to 0.024
ElecMinimize: Iter:  31  G: -856.340275822800209  |grad|_K:  4.297e-07  alpha:  5.371e-01  linmin: -7.645e-06  t[s]:    994.44
	Linear fluid (dielectric constant: 78.4, screening length: 8.12261 Bohr) occupying 0.500051 of unit cell:	Completed after 10 iterations at t[s]:   1003.45
	Linear fluid (dielectric constant: 78.4, screening length: 8.12261 Bohr) occupying 0.500044 of unit cell:	Completed after 7 iterations at t[s]:   1011.05
	FillingsUpdate:  mu: -0.208000000  nElectrons: 159.859145  magneticMoment: [ Abs: 0.00003  Tot: +0.00003 ]
	SubspaceRotationAdjust: set factor to 0.0256
ElecMinimize: Iter:  32  G: -856.340284744220867  |grad|_K:  4.271e-07  alpha:  6.035e-01  linmin: -7.734e-06  t[s]:   1022.45
	Linear fluid (dielectric constant: 78.4, screening length: 8.12261 Bohr) occupying 0.499983 of unit cell:	Completed after 12 iterations at t[s]:   1031.54
	Linear fluid (dielectric constant: 78.4, screening length: 8.12261 Bohr) occupying 0.500003 of unit cell:	Completed after 10 iterations at t[s]:   1039.51
	FillingsUpdate:  mu: -0.208000000  nElectrons: 159.857321  magneticMoment: [ Abs: 0.00003  Tot: +0.00003 ]
	SubspaceRotationAdjust: set factor to 0.0213
ElecMinimize: Iter:  33  G: -856.340290768482191  |grad|_K:  4.042e-07  alpha:  4.121e-01  linmin:  2.776e-06  t[s]:   1050.83
	Linear fluid (dielectric constant: 78.4, screening length: 8.12261 Bohr) occupying 0.499968 of unit cell:	Completed after 10 iterations at t[s]:   1059.77
	Linear fluid (dielectric constant: 78.4, screening length: 8.12261 Bohr) occupying 0.499964 of unit cell:	Completed after 7 iterations at t[s]:   1067.28
	FillingsUpdate:  mu: -0.208000000  nElectrons: 159.859090  magneticMoment: [ Abs: 0.00003  Tot: +0.00003 ]
	SubspaceRotationAdjust: set factor to 0.021
ElecMinimize: Iter:  34  G: -856.340296859139698  |grad|_K:  3.406e-07  alpha:  4.660e-01  linmin: -1.022e-05  t[s]:   1078.58
	Linear fluid (dielectric constant: 78.4, screening length: 8.12261 Bohr) occupying 0.499938 of unit cell:	Completed after 10 iterations at t[s]:   1087.66
	Linear fluid (dielectric constant: 78.4, screening length: 8.12261 Bohr) occupying 0.499934 of unit cell:	Completed after 2 iterations at t[s]:   1094.77
	FillingsUpdate:  mu: -0.208000000  nElectrons: 159.859973  magneticMoment: [ Abs: 0.00003  Tot: +0.00003 ]
	SubspaceRotationAdjust: set factor to 0.0228
ElecMinimize: Iter:  35  G: -856.340301962438502  |grad|_K:  2.941e-07  alpha:  5.492e-01  linmin: -1.809e-05  t[s]:   1106.04
	Linear fluid (dielectric constant: 78.4, screening length: 8.12261 Bohr) occupying 0.499911 of unit cell:	Completed after 11 iterations at t[s]:   1115.09
	Linear fluid (dielectric constant: 78.4, screening length: 8.12261 Bohr) occupying 0.499915 of unit cell:	Completed after 10 iterations at t[s]:   1123.05
	FillingsUpdate:  mu: -0.208000000  nElectrons: 159.859033  magneticMoment: [ Abs: 0.00003  Tot: +0.00002 ]
	SubspaceRotationAdjust: set factor to 0.0206
ElecMinimize: Iter:  36  G: -856.340305015583226  |grad|_K:  2.523e-07  alpha:  4.397e-01  linmin:  5.445e-05  t[s]:   1134.43
	Linear fluid (dielectric constant: 78.4, screening length: 8.12261 Bohr) occupying 0.499903 of unit cell:	Completed after 10 iterations at t[s]:   1143.35
	Linear fluid (dielectric constant: 78.4, screening length: 8.12261 Bohr) occupying 0.499903 of unit cell:	Completed after 2 iterations at t[s]:   1150.46
	FillingsUpdate:  mu: -0.208000000  nElectrons: 159.860113  magneticMoment: [ Abs: 0.00003  Tot: +0.00002 ]
	SubspaceRotationAdjust: set factor to 0.0197
ElecMinimize: Iter:  37  G: -856.340307350861281  |grad|_K:  2.107e-07  alpha:  4.599e-01  linmin: -5.676e-05  t[s]:   1161.79
	Linear fluid (dielectric constant: 78.4, screening length: 8.12261 Bohr) occupying 0.499893 of unit cell:	Completed after 3 iterations at t[s]:   1170.20
	Linear fluid (dielectric constant: 78.4, screening length: 8.12261 Bohr) occupying 0.499892 of unit cell:	Completed after 2 iterations at t[s]:   1177.36
	FillingsUpdate:  mu: -0.208000000  nElectrons: 159.860224  magneticMoment: [ Abs: 0.00003  Tot: +0.00002 ]
	SubspaceRotationAdjust: set factor to 0.0224
ElecMinimize: Iter:  38  G: -856.340309139586338  |grad|_K:  1.718e-07  alpha:  5.018e-01  linmin:  1.392e-05  t[s]:   1188.64
	Linear fluid (dielectric constant: 78.4, screening length: 8.12261 Bohr) occupying 0.499882 of unit cell:	Completed after 9 iterations at t[s]:   1197.58
	Linear fluid (dielectric constant: 78.4, screening length: 8.12261 Bohr) occupying 0.499883 of unit cell:	Completed after 0 iterations at t[s]:   1204.50
	FillingsUpdate:  mu: -0.208000000  nElectrons: 159.859816  magneticMoment: [ Abs: 0.00002  Tot: +0.00002 ]
	SubspaceRotationAdjust: set factor to 0.0219
ElecMinimize: Iter:  39  G: -856.340310286772933  |grad|_K:  1.607e-07  alpha:  4.862e-01  linmin:  4.666e-05  t[s]:   1215.91
	Linear fluid (dielectric constant: 78.4, screening length: 8.12261 Bohr) occupying 0.499873 of unit cell:	Completed after 11 iterations at t[s]:   1224.92
	Linear fluid (dielectric constant: 78.4, screening length: 8.12261 Bohr) occupying 0.499874 of unit cell:	Completed after 2 iterations at t[s]:   1232.09
	FillingsUpdate:  mu: -0.208000000  nElectrons: 159.860723  magneticMoment: [ Abs: 0.00002  Tot: +0.00002 ]
	SubspaceRotationAdjust: set factor to 0.0195
ElecMinimize: Iter:  40  G: -856.340311179054652  |grad|_K:  1.470e-07  alpha:  4.336e-01  linmin:  5.393e-05  t[s]:   1243.31
	Linear fluid (dielectric constant: 78.4, screening length: 8.12261 Bohr) occupying 0.499864 of unit cell:	Completed after 8 iterations at t[s]:   1252.02
	Linear fluid (dielectric constant: 78.4, screening length: 8.12261 Bohr) occupying 0.499862 of unit cell:	Completed after 2 iterations at t[s]:   1259.29
	FillingsUpdate:  mu: -0.208000000  nElectrons: 159.860671  magneticMoment: [ Abs: 0.00002  Tot: +0.00002 ]
	SubspaceRotationAdjust: set factor to 0.0215
ElecMinimize: Iter:  41  G: -856.340312037593662  |grad|_K:  1.243e-07  alpha:  4.977e-01  linmin: -1.430e-04  t[s]:   1270.59
	Linear fluid (dielectric constant: 78.4, screening length: 8.12261 Bohr) occupying 0.499850 of unit cell:	Completed after 9 iterations at t[s]:   1279.45
	Linear fluid (dielectric constant: 78.4, screening length: 8.12261 Bohr) occupying 0.499848 of unit cell:	Completed after 2 iterations at t[s]:   1286.64
	FillingsUpdate:  mu: -0.208000000  nElectrons: 159.860581  magneticMoment: [ Abs: 0.00002  Tot: +0.00002 ]
	SubspaceRotationAdjust: set factor to 0.0228
ElecMinimize: Iter:  42  G: -856.340312752941827  |grad|_K:  1.219e-07  alpha:  5.724e-01  linmin: -1.235e-04  t[s]:   1297.92
	Linear fluid (dielectric constant: 78.4, screening length: 8.12261 Bohr) occupying 0.499833 of unit cell:	Completed after 10 iterations at t[s]:   1306.94
	Linear fluid (dielectric constant: 78.4, screening length: 8.12261 Bohr) occupying 0.499835 of unit cell:	Completed after 2 iterations at t[s]:   1314.09
	FillingsUpdate:  mu: -0.208000000  nElectrons: 159.861349  magneticMoment: [ Abs: 0.00002  Tot: +0.00002 ]
	SubspaceRotationAdjust: set factor to 0.0206
ElecMinimize: Iter:  43  G: -856.340313343912271  |grad|_K:  1.234e-07  alpha:  4.910e-01  linmin:  2.370e-04  t[s]:   1325.53
	Linear fluid (dielectric constant: 78.4, screening length: 8.12261 Bohr) occupying 0.499818 of unit cell:	Completed after 9 iterations at t[s]:   1334.37
	Linear fluid (dielectric constant: 78.4, screening length: 8.12261 Bohr) occupying 0.499819 of unit cell:	Completed after 0 iterations at t[s]:   1341.25
	FillingsUpdate:  mu: -0.208000000  nElectrons: 159.861211  magneticMoment: [ Abs: 0.00002  Tot: +0.00002 ]
	SubspaceRotationAdjust: set factor to 0.0198
ElecMinimize: Iter:  44  G: -856.340313913828595  |grad|_K:  1.051e-07  alpha:  4.767e-01  linmin: -6.705e-05  t[s]:   1352.47
	Linear fluid (dielectric constant: 78.4, screening length: 8.12261 Bohr) occupying 0.499805 of unit cell:	Completed after 3 iterations at t[s]:   1360.80
	Linear fluid (dielectric constant: 78.4, screening length: 8.12261 Bohr) occupying 0.499803 of unit cell:	Completed after 2 iterations at t[s]:   1368.01
	FillingsUpdate:  mu: -0.208000000  nElectrons: 159.861498  magneticMoment: [ Abs: 0.00002  Tot: +0.00002 ]
	SubspaceRotationAdjust: set factor to 0.0216
ElecMinimize: Iter:  45  G: -856.340314428736292  |grad|_K:  9.860e-08  alpha:  5.803e-01  linmin:  2.792e-06  t[s]:   1379.30
	Linear fluid (dielectric constant: 78.4, screening length: 8.12261 Bohr) occupying 0.499787 of unit cell:	Completed after 10 iterations at t[s]:   1388.22
	Linear fluid (dielectric constant: 78.4, screening length: 8.12261 Bohr) occupying 0.499789 of unit cell:	Completed after 0 iterations at t[s]:   1395.31
	FillingsUpdate:  mu: -0.208000000  nElectrons: 159.861979  magneticMoment: [ Abs: 0.00002  Tot: +0.00002 ]
	SubspaceRotationAdjust: set factor to 0.021
ElecMinimize: Iter:  46  G: -856.340314837761980  |grad|_K:  9.524e-08  alpha:  5.261e-01  linmin:  6.180e-05  t[s]:   1406.62
	Linear fluid (dielectric constant: 78.4, screening length: 8.12261 Bohr) occupying 0.499775 of unit cell:	Completed after 9 iterations at t[s]:   1415.52
	Linear fluid (dielectric constant: 78.4, screening length: 8.12261 Bohr) occupying 0.499778 of unit cell:	Completed after 6 iterations at t[s]:   1423.02
	FillingsUpdate:  mu: -0.208000000  nElectrons: 159.861677  magneticMoment: [ Abs: 0.00002  Tot: +0.00002 ]
	SubspaceRotationAdjust: set factor to 0.0178
ElecMinimize: Iter:  47  G: -856.340315124214726  |grad|_K:  8.059e-08  alpha:  4.005e-01  linmin: -8.743e-05  t[s]:   1434.28
	Linear fluid (dielectric constant: 78.4, screening length: 8.12261 Bohr) occupying 0.499771 of unit cell:	Completed after 8 iterations at t[s]:   1442.97
	Linear fluid (dielectric constant: 78.4, screening length: 8.12261 Bohr) occupying 0.499769 of unit cell:	Completed after 2 iterations at t[s]:   1450.11
	FillingsUpdate:  mu: -0.208000000  nElectrons: 159.861933  magneticMoment: [ Abs: 0.00002  Tot: +0.00002 ]
	SubspaceRotationAdjust: set factor to 0.0194
ElecMinimize: Iter:  48  G: -856.340315378099262  |grad|_K:  6.671e-08  alpha:  4.843e-01  linmin: -1.153e-04  t[s]:   1461.48
	Linear fluid (dielectric constant: 78.4, screening length: 8.12261 Bohr) occupying 0.499763 of unit cell:	Completed after 7 iterations at t[s]:   1470.12
	Linear fluid (dielectric constant: 78.4, screening length: 8.12261 Bohr) occupying 0.499763 of unit cell:	Completed after 0 iterations at t[s]:   1477.09
	FillingsUpdate:  mu: -0.208000000  nElectrons: 159.862146  magneticMoment: [ Abs: 0.00002  Tot: +0.00002 ]
	SubspaceRotationAdjust: set factor to 0.0198
ElecMinimize: Iter:  49  G: -856.340315555277243  |grad|_K:  5.908e-08  alpha:  4.930e-01  linmin: -1.186e-04  t[s]:   1488.42
	Linear fluid (dielectric constant: 78.4, screening length: 8.12261 Bohr) occupying 0.499758 of unit cell:	Completed after 9 iterations at t[s]:   1497.41
	Linear fluid (dielectric constant: 78.4, screening length: 8.12261 Bohr) occupying 0.499758 of unit cell:	Completed after 2 iterations at t[s]:   1504.57
	FillingsUpdate:  mu: -0.208000000  nElectrons: 159.861919  magneticMoment: [ Abs: 0.00002  Tot: +0.00002 ]
	SubspaceRotationAdjust: set factor to 0.0176
ElecMinimize: Iter:  50  G: -856.340315677631224  |grad|_K:  5.199e-08  alpha:  4.333e-01  linmin:  2.525e-04  t[s]:   1515.85
	Linear fluid (dielectric constant: 78.4, screening length: 8.12261 Bohr) occupying 0.499755 of unit cell:	Completed after 6 iterations at t[s]:   1524.32
	Linear fluid (dielectric constant: 78.4, screening length: 8.12261 Bohr) occupying 0.499755 of unit cell:	Completed after 0 iterations at t[s]:   1531.17
	FillingsUpdate:  mu: -0.208000000  nElectrons: 159.862022  magneticMoment: [ Abs: 0.00002  Tot: +0.00002 ]
	SubspaceRotationAdjust: set factor to 0.0195
ElecMinimize: Iter:  51  G: -856.340315775133945  |grad|_K:  4.148e-08  alpha:  4.597e-01  linmin: -1.939e-04  t[s]:   1542.55
	Linear fluid (dielectric constant: 78.4, screening length: 8.12261 Bohr) occupying 0.499753 of unit cell:	Completed after 6 iterations at t[s]:   1551.15
	Linear fluid (dielectric constant: 78.4, screening length: 8.12261 Bohr) occupying 0.499753 of unit cell:	Completed after 0 iterations at t[s]:   1558.01
	FillingsUpdate:  mu: -0.208000000  nElectrons: 159.862130  magneticMoment: [ Abs: 0.00002  Tot: +0.00002 ]
	SubspaceRotationAdjust: set factor to 0.0203
ElecMinimize: Iter:  52  G: -856.340315847619195  |grad|_K:  3.712e-08  alpha:  5.166e-01  linmin: -2.553e-04  t[s]:   1569.38
ElecMinimize: Converged (|Delta G|<1.000000e-07 for 2 iters).
Setting wave functions to eigenvectors of Hamiltonian
Converging empty states (this may take a while): |deigs|: 5.625e-04

Computing DFT-D3 correction:
# coordination-number Pt 8.543 9.283 9.337 6.963 5.354 9.338 9.282 8.543 5.357 6.968
# diagonal-C6 Pt 336.87 336.87 336.87 336.87 336.87 336.87 336.87 336.87 336.87 336.87
EvdW_6 =   -0.074787
EvdW_8 =   -0.128267

# Ionic positions in cartesian coordinates:
ion Pt   3.704059000000000   1.815113000000000  12.571568999999998 1
ion Pt  -0.001040000000000   3.270926000000000   9.140345999999999 1
ion Pt   3.697843999999999   4.972532000000000   5.876096999999999 1
ion Pt  -0.004388000000000   6.545111000000000   2.253630000000000 1
ion Pt  -3.697681000000000   8.269474000000001  15.435163999999999 1
ion Pt   3.701373000000000   6.609264000000000  10.669056999999999 1
ion Pt   3.700841000000000   0.038393000000000   7.404359999999999 1
ion Pt  -0.004484000000000   1.493602000000000   3.974031000000000 1
ion Pt   3.697641000000000   3.311767000000000   1.112222000000000 1
ion Pt   0.004151000000000   5.036371000000000  14.288593999999996 1

# Forces in Cartesian coordinates:
force Pt  -0.000067279252234  -0.000008129585972  -0.000276925622239 1
force Pt   0.000013904582537   0.000177150561985   0.000020055233276 1
force Pt  -0.000062379323408  -0.001066222488443  -0.000007697899393 1
force Pt  -0.000032545249777   0.000136150011348   0.002330439772706 1
force Pt   0.000011243013418  -0.000235997609083   0.000693698273638 1
force Pt   0.000060743228286   0.001111998604250   0.000130687947040 1
force Pt  -0.000020490134878  -0.000203368334057   0.000104985065189 1
force Pt   0.000066616381317  -0.000037547210251   0.000334915364197 1
force Pt  -0.000013107331142   0.000212608512793  -0.000743395546281 1
force Pt   0.000032715195465  -0.000090431670828  -0.002238827270844 1

# Energy components:
   A_diel =        0.0338967990456183
   Eewald =     4085.3089447937441037
       EH =     4890.1812378662325500
     Eloc =   -10019.4892794364841393
      Enl =      -10.5064708170106886
     EvdW =       -0.2030539436147283
      Exc =     -284.3438370694087212
 Exc_core =      163.9138237787977914
       KE =      285.5072299154371649
  MuShift =        0.0072041378355547
-------------------------------------
     Etot =     -889.5903039754250585
       TS =        0.0013348568348358
-------------------------------------
        F =     -889.5916388322599460
      muN =      -33.2513229846407583
-------------------------------------
        G =     -856.3403158476191948


Dumping 'jdft.fillings' ... done
Dumping 'jdft.wfns' ... done
Dumping 'jdft.fluidState' ... done
Dumping 'jdft.ionpos' ... done
Dumping 'jdft.lattice' ... done
Dumping 'jdft.eigenvals' ... done
Dumping 'jdft.eigStats' ... 
	eMin: -2.157231 at state 27 ( [ +0.444444 +0.285714 +0.000000 ] spin 1 )
	HOMO: -0.208296 at state 58 ( [ +0.444444 +0.142857 +0.000000 ] spin -1 )
	mu  : -0.208000
	LUMO: -0.207758 at state 22 ( [ +0.333333 -0.428571 +0.000000 ] spin 1 )
	eMax: +0.091589 at state 52 ( [ +0.333333 +0.285714 +0.000000 ] spin -1 )
	HOMO-LUMO gap: +0.000538
	Optical gap  : +0.001625 at state 36 ( [ +0.111111 +0.000000 +0.000000 ] spin -1 )
Dumping 'jdft.Ecomponents' ... done
IonicMinimize: Iter:   0  G: -856.340315847619195  |grad|_K:  6.899e-04  t[s]:   1614.77

#--- Lowdin population analysis ---
# oxidation-state Pt -0.034 +0.010 -0.003 -0.001 +0.156 -0.003 +0.010 -0.035 +0.155 -0.001
# magnetic-moments Pt +0.000 +0.000 +0.000 +0.000 +0.000 +0.000 +0.000 +0.000 +0.000 +0.000


Computing DFT-D3 correction:
# coordination-number Pt 8.545 9.285 9.339 6.967 5.352 9.341 9.284 8.545 5.355 6.972
# diagonal-C6 Pt 336.87 336.87 336.87 336.87 336.87 336.87 336.87 336.87 336.87 336.87
EvdW_6 =   -0.074791
EvdW_8 =   -0.128277
Shifting auxilliary hamiltonian by -0.000062 to set nElectrons=159.862130

-------- Electronic minimization -----------
	Linear fluid (dielectric constant: 78.4, screening length: 8.12261 Bohr) occupying 0.499698 of unit cell:	Completed after 13 iterations at t[s]:   1625.05
	FillingsUpdate:  mu: -0.208000000  nElectrons: 159.862130  magneticMoment: [ Abs: 0.00001  Tot: +0.00001 ]
ElecMinimize: Iter:   0  G: -856.340324748452758  |grad|_K:  3.524e-07  alpha:  1.000e+00
	Linear fluid (dielectric constant: 78.4, screening length: 8.12261 Bohr) occupying 0.499691 of unit cell:	Completed after 18 iterations at t[s]:   1647.06
	Linear fluid (dielectric constant: 78.4, screening length: 8.12261 Bohr) occupying 0.499697 of unit cell:	Completed after 16 iterations at t[s]:   1655.51
	FillingsUpdate:  mu: -0.208000000  nElectrons: 159.863705  magneticMoment: [ Abs: 0.00001  Tot: +0.00001 ]
	SubspaceRotationAdjust: set factor to 0.0118
ElecMinimize: Iter:   1  G: -856.340326717274252  |grad|_K:  1.059e-07  alpha:  1.974e-01  linmin: -7.579e-04  t[s]:   1667.06
	Linear fluid (dielectric constant: 78.4, screening length: 8.12261 Bohr) occupying 0.499694 of unit cell:	Completed after 8 iterations at t[s]:   1675.88
	Linear fluid (dielectric constant: 78.4, screening length: 8.12261 Bohr) occupying 0.499691 of unit cell:	Completed after 8 iterations at t[s]:   1683.56
	FillingsUpdate:  mu: -0.208000000  nElectrons: 159.863301  magneticMoment: [ Abs: 0.00001  Tot: +0.00001 ]
	SubspaceRotationAdjust: set factor to 0.0148
ElecMinimize: Iter:   2  G: -856.340327131496565  |grad|_K:  5.274e-08  alpha:  4.507e-01  linmin: -6.594e-03  t[s]:   1694.95
	Linear fluid (dielectric constant: 78.4, screening length: 8.12261 Bohr) occupying 0.499687 of unit cell:	Completed after 7 iterations at t[s]:   1703.67
	Linear fluid (dielectric constant: 78.4, screening length: 8.12261 Bohr) occupying 0.499686 of unit cell:	Completed after 2 iterations at t[s]:   1710.91
	FillingsUpdate:  mu: -0.208000000  nElectrons: 159.863144  magneticMoment: [ Abs: 0.00001  Tot: +0.00001 ]
	SubspaceRotationAdjust: set factor to 0.0173
ElecMinimize: Iter:   3  G: -856.340327258124830  |grad|_K:  3.820e-08  alpha:  5.498e-01  linmin: -1.482e-03  t[s]:   1722.19
	Linear fluid (dielectric constant: 78.4, screening length: 8.12261 Bohr) occupying 0.499681 of unit cell:	Completed after 2 iterations at t[s]:   1730.41
	Linear fluid (dielectric constant: 78.4, screening length: 8.12261 Bohr) occupying 0.499681 of unit cell:	Completed after 0 iterations at t[s]:   1737.22
	FillingsUpdate:  mu: -0.208000000  nElectrons: 159.863144  magneticMoment: [ Abs: 0.00001  Tot: +0.00001 ]
	SubspaceRotationAdjust: set factor to 0.0214
ElecMinimize: Iter:   4  G: -856.340327331490244  |grad|_K:  3.215e-08  alpha:  6.175e-01  linmin: -7.188e-04  t[s]:   1748.44
	Linear fluid (dielectric constant: 78.4, screening length: 8.12261 Bohr) occupying 0.499678 of unit cell:	Completed after 2 iterations at t[s]:   1756.82
	Linear fluid (dielectric constant: 78.4, screening length: 8.12261 Bohr) occupying 0.499677 of unit cell:	Completed after 0 iterations at t[s]:   1763.80
	FillingsUpdate:  mu: -0.208000000  nElectrons: 159.863104  magneticMoment: [ Abs: 0.00001  Tot: +0.00001 ]
	SubspaceRotationAdjust: set factor to 0.0261
ElecMinimize: Iter:   5  G: -856.340327390480638  |grad|_K:  3.077e-08  alpha:  6.989e-01  linmin: -6.743e-04  t[s]:   1775.09
ElecMinimize: Converged (|Delta G|<1.000000e-07 for 2 iters).
Setting wave functions to eigenvectors of Hamiltonian
Converging empty states (this may take a while): |deigs|: 2.085e-08

Computing DFT-D3 correction:
# coordination-number Pt 8.545 9.285 9.339 6.967 5.352 9.341 9.284 8.545 5.355 6.972
# diagonal-C6 Pt 336.87 336.87 336.87 336.87 336.87 336.87 336.87 336.87 336.87 336.87
EvdW_6 =   -0.074791
EvdW_8 =   -0.128277

# Ionic positions in cartesian coordinates:
ion Pt   3.703992778636807   1.815105249334854  12.571257280846030 1
ion Pt  -0.001025037528421   3.271103529482811   9.140331261701546 1
ion Pt   3.697782678565634   4.971466156432382   5.876054508568877 1
ion Pt  -0.004419487360736   6.545247528932174   2.255925646240977 1
ion Pt  -3.697668699097540   8.269238381311744  15.435822904741908 1
ion Pt   3.701434801117327   6.610376377525076  10.669152894415310 1
ion Pt   3.700821567754163   0.038190010586769   7.404430191533460 1
ion Pt  -0.004416325729641   1.493564831710575   3.974331121832468 1
ion Pt   3.697628950557899   3.311979987433619   1.111443810921990 1
ion Pt   0.004184773084507   5.036280947249998  14.286320379197425 1

# Forces in Cartesian coordinates:
force Pt  -0.000046002301994   0.000025290021406   0.000027129885604 1
force Pt   0.000005881386805   0.000153463703205   0.000075018933601 1
force Pt  -0.000050329436242  -0.000852798933861   0.000012001028005 1
force Pt  -0.000025465612881   0.000116072941959   0.001582695926671 1
force Pt   0.000007720664813  -0.000191267980629   0.000868298738765 1
force Pt   0.000048123486751   0.000892450337539   0.000193054218315 1
force Pt  -0.000011586575322  -0.000169097094802   0.000161847914631 1
force Pt   0.000045176587312  -0.000063017557232   0.000012758712609 1
force Pt  -0.000008899054736   0.000173319422096  -0.001043774067372 1
force Pt   0.000024340308391  -0.000080671230856  -0.001606111232596 1

# Energy components:
   A_diel =        0.0336558148271143
   Eewald =     4085.7188626030820160
       EH =     4890.5895882008935587
     Eloc =   -10020.3069635494593967
      Enl =      -10.5064912807563733
     EvdW =       -0.2030677318908021
      Exc =     -284.3440093734620859
 Exc_core =      163.9138239292198307
       KE =      285.5069300351649986
  MuShift =        0.0071532056426682
-------------------------------------
     Etot =     -889.5905181467389866
       TS =        0.0013349706551044
-------------------------------------
        F =     -889.5918531173940664
      muN =      -33.2515257269134636
-------------------------------------
        G =     -856.3403273904806383


Dumping 'jdft.fillings' ... done
Dumping 'jdft.wfns' ... done
Dumping 'jdft.fluidState' ... done
Dumping 'jdft.ionpos' ... done
Dumping 'jdft.lattice' ... done
Dumping 'jdft.eigenvals' ... done
Dumping 'jdft.eigStats' ... 
	eMin: -2.157304 at state 27 ( [ +0.444444 +0.285714 +0.000000 ] spin 1 )
	HOMO: -0.208335 at state 58 ( [ +0.444444 +0.142857 +0.000000 ] spin -1 )
	mu  : -0.208000
	LUMO: -0.207805 at state 22 ( [ +0.333333 -0.428571 +0.000000 ] spin 1 )
	eMax: +0.091523 at state 52 ( [ +0.333333 +0.285714 +0.000000 ] spin -1 )
	HOMO-LUMO gap: +0.000530
	Optical gap  : +0.001624 at state 36 ( [ +0.111111 +0.000000 +0.000000 ] spin -1 )
Dumping 'jdft.Ecomponents' ... done
IonicMinimize: Iter:   1  G: -856.340327390480638  |grad|_K:  5.375e-04  alpha:  1.000e+00  linmin: -9.684e-01  t[s]:   1800.81

#--- Lowdin population analysis ---
# oxidation-state Pt -0.035 +0.010 -0.004 -0.001 +0.157 -0.003 +0.009 -0.036 +0.157 -0.001
# magnetic-moments Pt +0.000 +0.000 +0.000 +0.000 +0.000 +0.000 +0.000 +0.000 +0.000 +0.000


Computing DFT-D3 correction:
# coordination-number Pt 8.550 9.290 9.342 6.979 5.343 9.348 9.287 8.545 5.343 6.988
# diagonal-C6 Pt 336.87 336.87 336.87 336.87 336.87 336.87 336.87 336.87 336.87 336.87
EvdW_6 =   -0.074791
EvdW_8 =   -0.128275
Shifting auxilliary hamiltonian by -0.000025 to set nElectrons=159.863104

-------- Electronic minimization -----------
	Linear fluid (dielectric constant: 78.4, screening length: 8.12261 Bohr) occupying 0.499586 of unit cell:	Completed after 13 iterations at t[s]:   1811.05
	FillingsUpdate:  mu: -0.208000000  nElectrons: 159.863104  magneticMoment: [ Abs: 0.00001  Tot: +0.00001 ]
ElecMinimize: Iter:   0  G: -856.340333207301228  |grad|_K:  7.391e-07  alpha:  1.000e+00
	Linear fluid (dielectric constant: 78.4, screening length: 8.12261 Bohr) occupying 0.499583 of unit cell:	Completed after 18 iterations at t[s]:   1832.99
	Linear fluid (dielectric constant: 78.4, screening length: 8.12261 Bohr) occupying 0.499585 of unit cell:	Completed after 16 iterations at t[s]:   1841.46
	FillingsUpdate:  mu: -0.208000000  nElectrons: 159.859692  magneticMoment: [ Abs: 0.00001  Tot: +0.00001 ]
	SubspaceRotationAdjust: set factor to 0.0182
ElecMinimize: Iter:   1  G: -856.340346798327573  |grad|_K:  4.433e-07  alpha:  3.108e-01  linmin: -1.142e-04  t[s]:   1852.82
	Linear fluid (dielectric constant: 78.4, screening length: 8.12261 Bohr) occupying 0.499589 of unit cell:	Completed after 13 iterations at t[s]:   1862.06
	Linear fluid (dielectric constant: 78.4, screening length: 8.12261 Bohr) occupying 0.499588 of unit cell:	Completed after 9 iterations at t[s]:   1869.83
	FillingsUpdate:  mu: -0.208000000  nElectrons: 159.861761  magneticMoment: [ Abs: 0.00001  Tot: +0.00001 ]
	SubspaceRotationAdjust: set factor to 0.0132
ElecMinimize: Iter:   2  G: -856.340351034595642  |grad|_K:  2.353e-07  alpha:  2.694e-01  linmin: -6.575e-04  t[s]:   1881.32
	Linear fluid (dielectric constant: 78.4, screening length: 8.12261 Bohr) occupying 0.499589 of unit cell:	Completed after 6 iterations at t[s]:   1889.95
	Linear fluid (dielectric constant: 78.4, screening length: 8.12261 Bohr) occupying 0.499590 of unit cell:	Completed after 7 iterations at t[s]:   1897.56
	FillingsUpdate:  mu: -0.208000000  nElectrons: 159.861690  magneticMoment: [ Abs: 0.00001  Tot: +0.00001 ]
	SubspaceRotationAdjust: set factor to 0.0168
ElecMinimize: Iter:   3  G: -856.340353443485810  |grad|_K:  1.730e-07  alpha:  5.428e-01  linmin:  4.620e-05  t[s]:   1908.79
	Linear fluid (dielectric constant: 78.4, screening length: 8.12261 Bohr) occupying 0.499590 of unit cell:	Completed after 10 iterations at t[s]:   1917.67
	Linear fluid (dielectric constant: 78.4, screening length: 8.12261 Bohr) occupying 0.499590 of unit cell:	Completed after 0 iterations at t[s]:   1924.69
	FillingsUpdate:  mu: -0.208000000  nElectrons: 159.861182  magneticMoment: [ Abs: 0.00001  Tot: +0.00001 ]
	SubspaceRotationAdjust: set factor to 0.0182
ElecMinimize: Iter:   4  G: -856.340354695794758  |grad|_K:  1.453e-07  alpha:  5.227e-01  linmin:  1.153e-03  t[s]:   1936.00
	Linear fluid (dielectric constant: 78.4, screening length: 8.12261 Bohr) occupying 0.499588 of unit cell:	Completed after 10 iterations at t[s]:   1944.96
	Linear fluid (dielectric constant: 78.4, screening length: 8.12261 Bohr) occupying 0.499588 of unit cell:	Completed after 2 iterations at t[s]:   1952.17
	FillingsUpdate:  mu: -0.208000000  nElectrons: 159.861694  magneticMoment: [ Abs: 0.00001  Tot: +0.00001 ]
	SubspaceRotationAdjust: set factor to 0.0201
ElecMinimize: Iter:   5  G: -856.340355640696316  |grad|_K:  1.342e-07  alpha:  5.612e-01  linmin: -2.279e-03  t[s]:   1963.59
	Linear fluid (dielectric constant: 78.4, screening length: 8.12261 Bohr) occupying 0.499586 of unit cell:	Completed after 9 iterations at t[s]:   1972.45
	Linear fluid (dielectric constant: 78.4, screening length: 8.12261 Bohr) occupying 0.499585 of unit cell:	Completed after 3 iterations at t[s]:   1979.69
	FillingsUpdate:  mu: -0.208000000  nElectrons: 159.861303  magneticMoment: [ Abs: 0.00001  Tot: +0.00001 ]
	SubspaceRotationAdjust: set factor to 0.0227
ElecMinimize: Iter:   6  G: -856.340356616417239  |grad|_K:  1.516e-07  alpha:  6.679e-01  linmin:  5.099e-05  t[s]:   1990.99
	Linear fluid (dielectric constant: 78.4, screening length: 8.12261 Bohr) occupying 0.499581 of unit cell:	Completed after 2 iterations at t[s]:   1999.22
	Linear fluid (dielectric constant: 78.4, screening length: 8.12261 Bohr) occupying 0.499580 of unit cell:	Completed after 2 iterations at t[s]:   2006.40
	FillingsUpdate:  mu: -0.208000000  nElectrons: 159.861431  magneticMoment: [ Abs: 0.00001  Tot: +0.00001 ]
	SubspaceRotationAdjust: set factor to 0.0261
ElecMinimize: Iter:   7  G: -856.340358105648534  |grad|_K:  1.779e-07  alpha:  8.107e-01  linmin: -9.222e-06  t[s]:   2017.80
	Linear fluid (dielectric constant: 78.4, screening length: 8.12261 Bohr) occupying 0.499576 of unit cell:	Completed after 10 iterations at t[s]:   2026.75
	Linear fluid (dielectric constant: 78.4, screening length: 8.12261 Bohr) occupying 0.499576 of unit cell:	Completed after 0 iterations at t[s]:   2033.81
	FillingsUpdate:  mu: -0.208000000  nElectrons: 159.862438  magneticMoment: [ Abs: 0.00001  Tot: +0.00001 ]
	SubspaceRotationAdjust: set factor to 0.0261
ElecMinimize: Iter:   8  G: -856.340360181766300  |grad|_K:  2.521e-07  alpha:  8.199e-01  linmin: -8.490e-05  t[s]:   2045.12
	Linear fluid (dielectric constant: 78.4, screening length: 8.12261 Bohr) occupying 0.499572 of unit cell:	Completed after 11 iterations at t[s]:   2054.21
	Linear fluid (dielectric constant: 78.4, screening length: 8.12261 Bohr) occupying 0.499574 of unit cell:	Completed after 10 iterations at t[s]:   2062.10
	FillingsUpdate:  mu: -0.208000000  nElectrons: 159.861065  magneticMoment: [ Abs: 0.00001  Tot: +0.00000 ]
	SubspaceRotationAdjust: set factor to 0.0214
ElecMinimize: Iter:   9  G: -856.340362650098200  |grad|_K:  2.658e-07  alpha:  4.830e-01  linmin:  2.130e-06  t[s]:   2073.39
	Linear fluid (dielectric constant: 78.4, screening length: 8.12261 Bohr) occupying 0.499577 of unit cell:	Completed after 10 iterations at t[s]:   2082.27
	Linear fluid (dielectric constant: 78.4, screening length: 8.12261 Bohr) occupying 0.499577 of unit cell:	Completed after 7 iterations at t[s]:   2089.85
	FillingsUpdate:  mu: -0.208000000  nElectrons: 159.861974  magneticMoment: [ Abs: 0.00000  Tot: +0.00000 ]
	SubspaceRotationAdjust: set factor to 0.0211
ElecMinimize: Iter:  10  G: -856.340365770723338  |grad|_K:  2.355e-07  alpha:  5.522e-01  linmin: -7.469e-06  t[s]:   2101.26
	Linear fluid (dielectric constant: 78.4, screening length: 8.12261 Bohr) occupying 0.499582 of unit cell:	Completed after 8 iterations at t[s]:   2110.02
	Linear fluid (dielectric constant: 78.4, screening length: 8.12261 Bohr) occupying 0.499583 of unit cell:	Completed after 2 iterations at t[s]:   2117.24
	FillingsUpdate:  mu: -0.208000000  nElectrons: 159.862253  magneticMoment: [ Abs: 0.00000  Tot: +0.00000 ]
	SubspaceRotationAdjust: set factor to 0.0221
ElecMinimize: Iter:  11  G: -856.340368681463474  |grad|_K:  2.141e-07  alpha:  6.558e-01  linmin: -4.097e-05  t[s]:   2128.57
	Linear fluid (dielectric constant: 78.4, screening length: 8.12261 Bohr) occupying 0.499587 of unit cell:	Completed after 11 iterations at t[s]:   2137.70
	Linear fluid (dielectric constant: 78.4, screening length: 8.12261 Bohr) occupying 0.499586 of unit cell:	Completed after 9 iterations at t[s]:   2145.49
	FillingsUpdate:  mu: -0.208000000  nElectrons: 159.861250  magneticMoment: [ Abs: 0.00000  Tot: +0.00000 ]
	SubspaceRotationAdjust: set factor to 0.0192
ElecMinimize: Iter:  12  G: -856.340370489949464  |grad|_K:  1.781e-07  alpha:  4.911e-01  linmin:  1.300e-04  t[s]:   2156.78
	Linear fluid (dielectric constant: 78.4, screening length: 8.12261 Bohr) occupying 0.499590 of unit cell:	Completed after 10 iterations at t[s]:   2165.66
	Linear fluid (dielectric constant: 78.4, screening length: 8.12261 Bohr) occupying 0.499589 of unit cell:	Completed after 8 iterations at t[s]:   2173.30
	FillingsUpdate:  mu: -0.208000000  nElectrons: 159.861857  magneticMoment: [ Abs: 0.00000  Tot: +0.00000 ]
	SubspaceRotationAdjust: set factor to 0.016
ElecMinimize: Iter:  13  G: -856.340371468359763  |grad|_K:  1.278e-07  alpha:  3.865e-01  linmin:  6.871e-05  t[s]:   2184.76
	Linear fluid (dielectric constant: 78.4, screening length: 8.12261 Bohr) occupying 0.499591 of unit cell:	Completed after 7 iterations at t[s]:   2193.46
	Linear fluid (dielectric constant: 78.4, screening length: 8.12261 Bohr) occupying 0.499591 of unit cell:	Completed after 2 iterations at t[s]:   2200.65
	FillingsUpdate:  mu: -0.208000000  nElectrons: 159.861523  magneticMoment: [ Abs: 0.00000  Tot: +0.00000 ]
	SubspaceRotationAdjust: set factor to 0.018
ElecMinimize: Iter:  14  G: -856.340372120924599  |grad|_K:  8.580e-08  alpha:  4.999e-01  linmin: -3.915e-04  t[s]:   2212.00
	Linear fluid (dielectric constant: 78.4, screening length: 8.12261 Bohr) occupying 0.499593 of unit cell:	Completed after 8 iterations at t[s]:   2220.91
	Linear fluid (dielectric constant: 78.4, screening length: 8.12261 Bohr) occupying 0.499593 of unit cell:	Completed after 0 iterations at t[s]:   2227.78
	FillingsUpdate:  mu: -0.208000000  nElectrons: 159.861211  magneticMoment: [ Abs: 0.00000  Tot: +0.00000 ]
	SubspaceRotationAdjust: set factor to 0.0187
ElecMinimize: Iter:  15  G: -856.340372404835421  |grad|_K:  7.012e-08  alpha:  4.801e-01  linmin: -6.140e-04  t[s]:   2239.05
	Linear fluid (dielectric constant: 78.4, screening length: 8.12261 Bohr) occupying 0.499596 of unit cell:	Completed after 9 iterations at t[s]:   2247.78
	Linear fluid (dielectric constant: 78.4, screening length: 8.12261 Bohr) occupying 0.499595 of unit cell:	Completed after 3 iterations at t[s]:   2254.99
	FillingsUpdate:  mu: -0.208000000  nElectrons: 159.861416  magneticMoment: [ Abs: 0.00000  Tot: +0.00000 ]
	SubspaceRotationAdjust: set factor to 0.0171
ElecMinimize: Iter:  16  G: -856.340372555499130  |grad|_K:  5.367e-08  alpha:  3.815e-01  linmin:  7.934e-04  t[s]:   2266.38
	Linear fluid (dielectric constant: 78.4, screening length: 8.12261 Bohr) occupying 0.499597 of unit cell:	Completed after 5 iterations at t[s]:   2274.89
	Linear fluid (dielectric constant: 78.4, screening length: 8.12261 Bohr) occupying 0.499598 of unit cell:	Completed after 0 iterations at t[s]:   2281.90
	FillingsUpdate:  mu: -0.208000000  nElectrons: 159.861188  magneticMoment: [ Abs: 0.00001  Tot: +0.00000 ]
	SubspaceRotationAdjust: set factor to 0.0215
ElecMinimize: Iter:  17  G: -856.340372667947577  |grad|_K:  4.117e-08  alpha:  4.865e-01  linmin: -4.085e-03  t[s]:   2293.32
	Linear fluid (dielectric constant: 78.4, screening length: 8.12261 Bohr) occupying 0.499601 of unit cell:	Completed after 7 iterations at t[s]:   2302.10
	Linear fluid (dielectric constant: 78.4, screening length: 8.12261 Bohr) occupying 0.499601 of unit cell:	Completed after 0 iterations at t[s]:   2309.05
	FillingsUpdate:  mu: -0.208000000  nElectrons: 159.860986  magneticMoment: [ Abs: 0.00001  Tot: +0.00000 ]
	SubspaceRotationAdjust: set factor to 0.0233
ElecMinimize: Iter:  18  G: -856.340372738314954  |grad|_K:  4.143e-08  alpha:  4.979e-01  linmin: -2.808e-03  t[s]:   2320.34
	Linear fluid (dielectric constant: 78.4, screening length: 8.12261 Bohr) occupying 0.499605 of unit cell:	Completed after 8 iterations at t[s]:   2329.07
	Linear fluid (dielectric constant: 78.4, screening length: 8.12261 Bohr) occupying 0.499605 of unit cell:	Completed after 2 iterations at t[s]:   2336.19
	FillingsUpdate:  mu: -0.208000000  nElectrons: 159.861103  magneticMoment: [ Abs: 0.00001  Tot: +0.00000 ]
	SubspaceRotationAdjust: set factor to 0.0221
ElecMinimize: Iter:  19  G: -856.340372796691781  |grad|_K:  4.082e-08  alpha:  4.092e-01  linmin:  1.487e-03  t[s]:   2347.45
ElecMinimize: Converged (|Delta G|<1.000000e-07 for 2 iters).
Setting wave functions to eigenvectors of Hamiltonian
Converging empty states (this may take a while): |deigs|: 4.847e-08

Computing DFT-D3 correction:
# coordination-number Pt 8.550 9.290 9.342 6.979 5.343 9.348 9.287 8.545 5.343 6.988
# diagonal-C6 Pt 336.87 336.87 336.87 336.87 336.87 336.87 336.87 336.87 336.87 336.87
EvdW_6 =   -0.074791
EvdW_8 =   -0.128275

# Ionic positions in cartesian coordinates:
ion Pt   3.703737777012786   1.815385452463974  12.572216891471228 1
ion Pt  -0.000999885925196   3.272123438208727   9.140857387465953 1
ion Pt   3.697467937181706   4.966020483272009   5.876019529571693 1
ion Pt  -0.004571700836465   6.546010979670050   2.264744530288376 1
ion Pt  -3.697616350656217   8.268003332000953  15.442401601337849 1
ion Pt   3.701748069642092   6.616076799620303  10.670547196358552 1
ion Pt   3.700774409563902   0.037081103200223   7.405583911038315 1
ion Pt  -0.004151646263043   1.493029228147865   3.973236086556795 1
ion Pt   3.697586400305121   3.313093429934127   1.102852133047465 1
ion Pt   0.004340989975314   5.035728753481771  14.276610732863761 1

# Forces in Cartesian coordinates:
force Pt  -0.000010800629418   0.000018313693196  -0.000010827415491 1
force Pt  -0.000014505917713   0.000356065135201  -0.000287292654680 1
force Pt  -0.000031025588132  -0.000539420259760  -0.000098260984621 1
force Pt  -0.000020498997538  -0.000145818147546   0.001661894803813 1
force Pt  -0.000000470372742  -0.000202647335895   0.000152433608936 1
force Pt   0.000026398692994   0.000504353845886  -0.000049721280638 1
force Pt   0.000010994207147  -0.000364251921564   0.000074697199926 1
force Pt   0.000008108677239   0.000031448812754   0.000066219273928 1
force Pt  -0.000001522604177   0.000207651365100   0.000063029956986 1
force Pt   0.000020211560485   0.000116099784041  -0.001442828915100 1

# Energy components:
   A_diel =        0.0341706235687256
   Eewald =     4085.6041626197375081
       EH =     4890.4769666758083986
     Eloc =   -10020.0802540261011018
      Enl =      -10.5091298964259536
     EvdW =       -0.2030660786872516
      Exc =     -284.3426909393600681
 Exc_core =      163.9138242253203828
       KE =      285.5086229144050094
  MuShift =        0.0072577884736238
-------------------------------------
     Etot =     -889.5901360932606394
       TS =        0.0013461246716216
-------------------------------------
        F =     -889.5914822179322528
      muN =      -33.2511094212405212
-------------------------------------
        G =     -856.3403727966917813


Dumping 'jdft.fillings' ... done
Dumping 'jdft.wfns' ... done
Dumping 'jdft.fluidState' ... done
Dumping 'jdft.ionpos' ... done
Dumping 'jdft.lattice' ... done
Dumping 'jdft.eigenvals' ... done
Dumping 'jdft.eigStats' ... 
	eMin: -2.157193 at state 59 ( [ +0.444444 +0.285714 +0.000000 ] spin -1 )
	HOMO: -0.208270 at state 26 ( [ +0.444444 +0.142857 +0.000000 ] spin 1 )
	mu  : -0.208000
	LUMO: -0.207831 at state 22 ( [ +0.333333 -0.428571 +0.000000 ] spin 1 )
	eMax: +0.091430 at state 20 ( [ +0.333333 +0.285714 +0.000000 ] spin 1 )
	HOMO-LUMO gap: +0.000439
	Optical gap  : +0.001612 at state 4 ( [ +0.111111 +0.000000 +0.000000 ] spin 1 )
Dumping 'jdft.Ecomponents' ... done
IonicMinimize: Iter:   2  G: -856.340372796691781  |grad|_K:  4.435e-04  alpha:  1.000e+00  linmin: -7.730e-01  t[s]:   2373.09
IonicMinimize: Converged (|Delta G|<1.000000e-04 for 2 iters).

#--- Lowdin population analysis ---
# oxidation-state Pt -0.036 +0.011 -0.004 -0.003 +0.159 -0.003 +0.010 -0.037 +0.160 -0.003
# magnetic-moments Pt +0.000 +0.000 -0.000 -0.000 +0.000 +0.000 -0.000 -0.000 -0.000 +0.000


Dumping 'jdft.n_up' ... done
Dumping 'jdft.n_dn' ... done
Dumping 'jdft.tau_up' ... done
Dumping 'jdft.tau_dn' ... done
Dumping 'jdft.eigenvals' ... done
Dumping 'jdft.eigStats' ... 
	eMin: -2.157193 at state 59 ( [ +0.444444 +0.285714 +0.000000 ] spin -1 )
	HOMO: -0.208270 at state 26 ( [ +0.444444 +0.142857 +0.000000 ] spin 1 )
	mu  : -0.208000
	LUMO: -0.207831 at state 22 ( [ +0.333333 -0.428571 +0.000000 ] spin 1 )
	eMax: +0.091430 at state 20 ( [ +0.333333 +0.285714 +0.000000 ] spin 1 )
	HOMO-LUMO gap: +0.000439
	Optical gap  : +0.001612 at state 4 ( [ +0.111111 +0.000000 +0.000000 ] spin 1 )
Dumping 'jdft.kPts' ... done
Dumping 'jdft.kMap' ... done
Dumping 'jdft.dosUp' ... done.
Dumping 'jdft.dosDn' ... done.
End date and time: Sat Sep 10 12:25:44 2022  (Duration: 0-0:39:50.95)
Done!

PROFILER:             augmentDensityGrid     1.726790 +/-     0.021458 s,  161 calls,    278.013117 s total
PROFILER:         augmentDensityGridGrad     0.119303 +/-     0.028735 s,   83 calls,      9.902124 s total
PROFILER:        augmentDensitySpherical     0.000899 +/-     0.000055 s,  322 calls,      0.289533 s total
PROFILER:    augmentDensitySphericalGrad     0.000944 +/-     0.000108 s,  187 calls,      0.176603 s total
PROFILER:                 augmentOverlap     0.351244 +/-     0.027338 s,  676 calls,    237.440806 s total
PROFILER:                     diagouterI     1.297339 +/-     0.029891 s,  328 calls,    425.527043 s total
PROFILER:              EdensityAndVscloc     1.801249 +/-     0.642737 s,  161 calls,    290.001064 s total
PROFILER:                     EnlAndGrad     0.001505 +/-     0.000209 s,  349 calls,      0.525137 s total
PROFILER:            ExCorrCommunication     0.014933 +/-     0.031264 s, 1001 calls,     14.947831 s total
PROFILER:               ExCorrFunctional     0.003829 +/-     0.000557 s,  171 calls,      0.654724 s total
PROFILER:                    ExCorrTotal     0.126101 +/-     0.079122 s,  171 calls,     21.563336 s total
PROFILER:                   Idag_DiagV_I     2.477503 +/-     0.489075 s,  181 calls,    448.428084 s total
PROFILER:                    initWeights     1.822496 +/-     0.000000 s,    1 calls,      1.822496 s total
PROFILER:                    inv(matrix)     0.000757 +/-     0.000067 s,  318 calls,      0.240699 s total
PROFILER:            matrix::diagonalize     0.003008 +/-     0.001223 s,  503 calls,      1.512992 s total
PROFILER:                    matrix::set     0.000003 +/-     0.000004 s, 5504 calls,      0.016370 s total
PROFILER:            orthoMatrix(matrix)     0.000438 +/-     0.000260 s,  335 calls,      0.146638 s total
PROFILER:     RadialFunctionR::transform     0.018839 +/-     0.121270 s,   55 calls,      1.036129 s total
PROFILER:                    reduceKmesh     0.001330 +/-     0.000000 s,    1 calls,      0.001330 s total
PROFILER:   VanDerWaalsD3::energyAndGrad     0.004449 +/-     0.000209 s,    7 calls,      0.031143 s total
PROFILER:               WavefunctionDrag     3.202394 +/-     0.723150 s,    3 calls,      9.607181 s total
PROFILER:                            Y*M     0.088408 +/-     0.031262 s, 2200 calls,    194.498132 s total
PROFILER:                          Y1^Y2     0.101258 +/-     0.035022 s, 1416 calls,    143.380783 s total

MEMUSAGE:                   ColumnBundle     0.201632 GB
MEMUSAGE:        complexScalarFieldTilde     0.007629 GB
MEMUSAGE:                    IndexArrays     0.012375 GB
MEMUSAGE:                         matrix     0.012789 GB
MEMUSAGE:                           misc     0.007680 GB
MEMUSAGE:                    ScalarField     0.055313 GB
MEMUSAGE:               ScalarFieldTilde     0.040455 GB
MEMUSAGE:                          Total     0.257267 GB
