
*************** JDFTx 1.7.0 (git hash 5f12716a) ***************

Start date and time: Mon Sep 12 13:33:33 2022
Executable /home/nisi6161/jdftx_alpine/build/jdftx with command-line: -i in
Running on hosts (process indices):  c3cpu-a2-u5-1.rc.int.colorado.edu (0-23)
Divided in process groups (process indices):  0 (0)  1 (1)  2 (2)  3 (3)  4 (4)  5 (5)  6 (6)  7 (7)  8 (8)  9 (9)  10 (10)  11 (11)  12 (12)  13 (13)  14 (14)  15 (15)  16 (16)  17 (17)  18 (18)  19 (19)  20 (20)  21 (21)  22 (22)  23 (23)
Resource initialization completed at t[s]:      0.00
Run totals: 24 processes, 64 threads, 0 GPUs


Input parsed successfully to the following command list (including defaults):

basis kpoint-dependent
converge-empty-states yes
coords-type Cartesian
core-overlap-check none
coulomb-interaction Periodic
davidson-band-ratio 1.1
density-of-states Etol 1.000000e-06 Esigma 1.000000e-03 \
		Complete \
	Total \
	OrthoOrbital Cu 1   s \
	OrthoOrbital Cu 1   p \
	OrthoOrbital Cu 1   px \
	OrthoOrbital Cu 1   py \
	OrthoOrbital Cu 1   pz \
	OrthoOrbital Cu 1   d \
	OrthoOrbital Cu 1   dxy \
	OrthoOrbital Cu 1   dyz \
	OrthoOrbital Cu 1   dz2 \
	OrthoOrbital Cu 1   dxz \
	OrthoOrbital Cu 1   dx2-y2 \
	OrthoOrbital Cu 2   s \
	OrthoOrbital Cu 2   p \
	OrthoOrbital Cu 2   px \
	OrthoOrbital Cu 2   py \
	OrthoOrbital Cu 2   pz \
	OrthoOrbital Cu 2   d \
	OrthoOrbital Cu 2   dxy \
	OrthoOrbital Cu 2   dyz \
	OrthoOrbital Cu 2   dz2 \
	OrthoOrbital Cu 2   dxz \
	OrthoOrbital Cu 2   dx2-y2 \
	OrthoOrbital Cu 3   s \
	OrthoOrbital Cu 3   p \
	OrthoOrbital Cu 3   px \
	OrthoOrbital Cu 3   py \
	OrthoOrbital Cu 3   pz \
	OrthoOrbital Cu 3   d \
	OrthoOrbital Cu 3   dxy \
	OrthoOrbital Cu 3   dyz \
	OrthoOrbital Cu 3   dz2 \
	OrthoOrbital Cu 3   dxz \
	OrthoOrbital Cu 3   dx2-y2 \
	OrthoOrbital Cu 4   s \
	OrthoOrbital Cu 4   p \
	OrthoOrbital Cu 4   px \
	OrthoOrbital Cu 4   py \
	OrthoOrbital Cu 4   pz \
	OrthoOrbital Cu 4   d \
	OrthoOrbital Cu 4   dxy \
	OrthoOrbital Cu 4   dyz \
	OrthoOrbital Cu 4   dz2 \
	OrthoOrbital Cu 4   dxz \
	OrthoOrbital Cu 4   dx2-y2 \
	OrthoOrbital Cu 5   s \
	OrthoOrbital Cu 5   p \
	OrthoOrbital Cu 5   px \
	OrthoOrbital Cu 5   py \
	OrthoOrbital Cu 5   pz \
	OrthoOrbital Cu 5   d \
	OrthoOrbital Cu 5   dxy \
	OrthoOrbital Cu 5   dyz \
	OrthoOrbital Cu 5   dz2 \
	OrthoOrbital Cu 5   dxz \
	OrthoOrbital Cu 5   dx2-y2 \
	OrthoOrbital Cu 6   s \
	OrthoOrbital Cu 6   p \
	OrthoOrbital Cu 6   px \
	OrthoOrbital Cu 6   py \
	OrthoOrbital Cu 6   pz \
	OrthoOrbital Cu 6   d \
	OrthoOrbital Cu 6   dxy \
	OrthoOrbital Cu 6   dyz \
	OrthoOrbital Cu 6   dz2 \
	OrthoOrbital Cu 6   dxz \
	OrthoOrbital Cu 6   dx2-y2 \
	OrthoOrbital Cu 7   s \
	OrthoOrbital Cu 7   p \
	OrthoOrbital Cu 7   px \
	OrthoOrbital Cu 7   py \
	OrthoOrbital Cu 7   pz \
	OrthoOrbital Cu 7   d \
	OrthoOrbital Cu 7   dxy \
	OrthoOrbital Cu 7   dyz \
	OrthoOrbital Cu 7   dz2 \
	OrthoOrbital Cu 7   dxz \
	OrthoOrbital Cu 7   dx2-y2 \
	OrthoOrbital Cu 8   s \
	OrthoOrbital Cu 8   p \
	OrthoOrbital Cu 8   px \
	OrthoOrbital Cu 8   py \
	OrthoOrbital Cu 8   pz \
	OrthoOrbital Cu 8   d \
	OrthoOrbital Cu 8   dxy \
	OrthoOrbital Cu 8   dyz \
	OrthoOrbital Cu 8   dz2 \
	OrthoOrbital Cu 8   dxz \
	OrthoOrbital Cu 8   dx2-y2 \
	OrthoOrbital Cu 9   s \
	OrthoOrbital Cu 9   p \
	OrthoOrbital Cu 9   px \
	OrthoOrbital Cu 9   py \
	OrthoOrbital Cu 9   pz \
	OrthoOrbital Cu 9   d \
	OrthoOrbital Cu 9   dxy \
	OrthoOrbital Cu 9   dyz \
	OrthoOrbital Cu 9   dz2 \
	OrthoOrbital Cu 9   dxz \
	OrthoOrbital Cu 9   dx2-y2 \
	OrthoOrbital Cu 10   s \
	OrthoOrbital Cu 10   p \
	OrthoOrbital Cu 10   px \
	OrthoOrbital Cu 10   py \
	OrthoOrbital Cu 10   pz \
	OrthoOrbital Cu 10   d \
	OrthoOrbital Cu 10   dxy \
	OrthoOrbital Cu 10   dyz \
	OrthoOrbital Cu 10   dz2 \
	OrthoOrbital Cu 10   dxz \
	OrthoOrbital Cu 10   dx2-y2 \
	OrthoOrbital Cu 11   s \
	OrthoOrbital Cu 11   p \
	OrthoOrbital Cu 11   px \
	OrthoOrbital Cu 11   py \
	OrthoOrbital Cu 11   pz \
	OrthoOrbital Cu 11   d \
	OrthoOrbital Cu 11   dxy \
	OrthoOrbital Cu 11   dyz \
	OrthoOrbital Cu 11   dz2 \
	OrthoOrbital Cu 11   dxz \
	OrthoOrbital Cu 11   dx2-y2 \
	OrthoOrbital Cu 12   s \
	OrthoOrbital Cu 12   p \
	OrthoOrbital Cu 12   px \
	OrthoOrbital Cu 12   py \
	OrthoOrbital Cu 12   pz \
	OrthoOrbital Cu 12   d \
	OrthoOrbital Cu 12   dxy \
	OrthoOrbital Cu 12   dyz \
	OrthoOrbital Cu 12   dz2 \
	OrthoOrbital Cu 12   dxz \
	OrthoOrbital Cu 12   dx2-y2 \
	OrthoOrbital Cu 13   s \
	OrthoOrbital Cu 13   p \
	OrthoOrbital Cu 13   px \
	OrthoOrbital Cu 13   py \
	OrthoOrbital Cu 13   pz \
	OrthoOrbital Cu 13   d \
	OrthoOrbital Cu 13   dxy \
	OrthoOrbital Cu 13   dyz \
	OrthoOrbital Cu 13   dz2 \
	OrthoOrbital Cu 13   dxz \
	OrthoOrbital Cu 13   dx2-y2 \
	OrthoOrbital Cu 14   s \
	OrthoOrbital Cu 14   p \
	OrthoOrbital Cu 14   px \
	OrthoOrbital Cu 14   py \
	OrthoOrbital Cu 14   pz \
	OrthoOrbital Cu 14   d \
	OrthoOrbital Cu 14   dxy \
	OrthoOrbital Cu 14   dyz \
	OrthoOrbital Cu 14   dz2 \
	OrthoOrbital Cu 14   dxz \
	OrthoOrbital Cu 14   dx2-y2 \
	OrthoOrbital Cu 15   s \
	OrthoOrbital Cu 15   p \
	OrthoOrbital Cu 15   px \
	OrthoOrbital Cu 15   py \
	OrthoOrbital Cu 15   pz \
	OrthoOrbital Cu 15   d \
	OrthoOrbital Cu 15   dxy \
	OrthoOrbital Cu 15   dyz \
	OrthoOrbital Cu 15   dz2 \
	OrthoOrbital Cu 15   dxz \
	OrthoOrbital Cu 15   dx2-y2 \
	OrthoOrbital Cu 16   s \
	OrthoOrbital Cu 16   p \
	OrthoOrbital Cu 16   px \
	OrthoOrbital Cu 16   py \
	OrthoOrbital Cu 16   pz \
	OrthoOrbital Cu 16   d \
	OrthoOrbital Cu 16   dxy \
	OrthoOrbital Cu 16   dyz \
	OrthoOrbital Cu 16   dz2 \
	OrthoOrbital Cu 16   dxz \
	OrthoOrbital Cu 16   dx2-y2 \
	OrthoOrbital Cu 17   s \
	OrthoOrbital Cu 17   p \
	OrthoOrbital Cu 17   px \
	OrthoOrbital Cu 17   py \
	OrthoOrbital Cu 17   pz \
	OrthoOrbital Cu 17   d \
	OrthoOrbital Cu 17   dxy \
	OrthoOrbital Cu 17   dyz \
	OrthoOrbital Cu 17   dz2 \
	OrthoOrbital Cu 17   dxz \
	OrthoOrbital Cu 17   dx2-y2 \
	OrthoOrbital Cu 18   s \
	OrthoOrbital Cu 18   p \
	OrthoOrbital Cu 18   px \
	OrthoOrbital Cu 18   py \
	OrthoOrbital Cu 18   pz \
	OrthoOrbital Cu 18   d \
	OrthoOrbital Cu 18   dxy \
	OrthoOrbital Cu 18   dyz \
	OrthoOrbital Cu 18   dz2 \
	OrthoOrbital Cu 18   dxz \
	OrthoOrbital Cu 18   dx2-y2 \
	OrthoOrbital Cu 19   s \
	OrthoOrbital Cu 19   p \
	OrthoOrbital Cu 19   px \
	OrthoOrbital Cu 19   py \
	OrthoOrbital Cu 19   pz \
	OrthoOrbital Cu 19   d \
	OrthoOrbital Cu 19   dxy \
	OrthoOrbital Cu 19   dyz \
	OrthoOrbital Cu 19   dz2 \
	OrthoOrbital Cu 19   dxz \
	OrthoOrbital Cu 19   dx2-y2 \
	OrthoOrbital Cu 20   s \
	OrthoOrbital Cu 20   p \
	OrthoOrbital Cu 20   px \
	OrthoOrbital Cu 20   py \
	OrthoOrbital Cu 20   pz \
	OrthoOrbital Cu 20   d \
	OrthoOrbital Cu 20   dxy \
	OrthoOrbital Cu 20   dyz \
	OrthoOrbital Cu 20   dz2 \
	OrthoOrbital Cu 20   dxz \
	OrthoOrbital Cu 20   dx2-y2
dump End ElecDensity KEdensity BandEigs EigStats RhoAtom DOS Kpoints
dump Ionic State IonicPositions Lattice EigStats Ecomponents
dump 
dump 
dump 
dump 
dump 
dump 
dump 
dump 
dump-name jdft.$VAR
elec-cutoff 20
elec-eigen-algo Davidson
elec-ex-corr gga-PBE
elec-initial-magnetization 0.000000 no
elec-n-bands 228
elec-smearing Fermi 0.001
electronic-minimize  \
	dirUpdateScheme      FletcherReeves \
	linminMethod         DirUpdateRecommended \
	nIterations          100 \
	history              15 \
	knormThreshold       0 \
	energyDiffThreshold  1e-07 \
	nEnergyDiff          2 \
	alphaTstart          1 \
	alphaTmin            1e-10 \
	updateTestStepSize   yes \
	alphaTreduceFactor   0.1 \
	alphaTincreaseFactor 3 \
	nAlphaAdjustMax      3 \
	wolfeEnergy          0.0001 \
	wolfeGradient        0.9 \
	fdTest               no
exchange-regularization WignerSeitzTruncated
fluid LinearPCM 298.000000 1.013250
fluid-anion F- 0.5 MeanFieldLJ \
	epsBulk 1 \
	pMol 0 \
	epsInf 1 \
	Pvap 0 \
	sigmaBulk 0 \
	Rvdw 2.24877 \
	Res 0 \
	tauNuc 343133
fluid-cation Na+ 0.5 MeanFieldLJ \
	epsBulk 1 \
	pMol 0 \
	epsInf 1 \
	Pvap 0 \
	sigmaBulk 0 \
	Rvdw 2.19208 \
	Res 0 \
	tauNuc 343133
fluid-ex-corr lda-TF lda-PZ
fluid-gummel-loop 10 1.000000e-05
fluid-minimize  \
	dirUpdateScheme      PolakRibiere \
	linminMethod         DirUpdateRecommended \
	nIterations          400 \
	history              15 \
	knormThreshold       1e-11 \
	energyDiffThreshold  0 \
	nEnergyDiff          2 \
	alphaTstart          1 \
	alphaTmin            1e-10 \
	updateTestStepSize   yes \
	alphaTreduceFactor   0.1 \
	alphaTincreaseFactor 3 \
	nAlphaAdjustMax      6 \
	wolfeEnergy          0.0001 \
	wolfeGradient        0.9 \
	fdTest               no
fluid-solvent H2O 55.338 ScalarEOS \
	epsBulk 78.4 \
	pMol 0.92466 \
	epsInf 1.77 \
	Pvap 1.06736e-10 \
	sigmaBulk 4.62e-05 \
	Rvdw 2.61727 \
	Res 1.42 \
	tauNuc 343133 \
	poleEl 15 7 1
forces-output-coords Positions
initial-state jdft.$VAR
ion Cu   0.000054000000000   4.267906000000000  18.725994000000000 1
ion Cu   0.000020000000000   8.505126000000001  16.540917000000000 1
ion Cu   0.000027000000000   2.120678000000000  14.385257999999997 1
ion Cu  -0.000034000000000   6.402801999999999  12.275516000000000 1
ion Cu   0.000000000000000  10.652076999999998  10.121582999999999 1
ion Cu  -0.000013000000000   4.264154000000000   7.990034000000000 1
ion Cu  -0.000020000000000   8.558066999999999   5.848763000000000 1
ion Cu  -0.000061000000000   2.079398000000000   3.639066000000000 1
ion Cu  -0.000061000000000   6.426560000000000   1.622052000000000 1
ion Cu   0.000074000000000  -0.041088000000000  20.673684000000002 1
ion Cu   3.370613000000000   1.118065000000000  17.677837000000000 1
ion Cu   3.370544999999999   5.297932000000000  15.468140000000000 1
ion Cu   3.370525000000000   9.591961999999999  13.327125000000001 1
ion Cu   3.370498000000000   3.204007000000000  11.195511999999997 1
ion Cu   3.370512000000000   7.453111999999998   9.041771000000001 1
ion Cu   3.370478000000000   1.076785000000000   6.931709000000000 1
ion Cu   3.370478000000000   5.351106999999998   4.776114000000000 1
ion Cu   3.370444000000000   9.588264000000001   2.590654000000000 1
ion Cu   3.370478000000000   3.238594000000000   0.643730000000000 1
ion Cu   3.370572000000000   7.429427999999999  19.694531000000001 1
ion-species /projects/musgravc/apps/jdftx-1.6.0/build/pseudopotentials/GBRV_v1.5/$ID_pbe_v1.uspp
ion-species /projects/musgravc/apps/jdftx-1.6.0/build/pseudopotentials/GBRV_v1.5/$ID_pbe_v1.2.uspp
ion-species /projects/musgravc/apps/jdftx-1.6.0/build/pseudopotentials/GBRV_v1.5/$ID_pbe_v1.4.uspp
ion-species /projects/musgravc/apps/jdftx-1.6.0/build/pseudopotentials/GBRV_v1.5/$ID_pbe_v1.5.uspp
ion-width Ecut
ionic-minimize  \
	dirUpdateScheme      L-BFGS \
	linminMethod         DirUpdateRecommended \
	nIterations          100 \
	history              15 \
	knormThreshold       0.0001 \
	energyDiffThreshold  0.0001 \
	nEnergyDiff          2 \
	alphaTstart          1 \
	alphaTmin            1e-10 \
	updateTestStepSize   yes \
	alphaTreduceFactor   0.1 \
	alphaTincreaseFactor 3 \
	nAlphaAdjustMax      3 \
	wolfeEnergy          0.0001 \
	wolfeGradient        0.9 \
	fdTest               no
kpoint   0.000000000000   0.000000000000   0.000000000000  1.00000000000000
kpoint-folding 9 5 1 
latt-move-scale 0 0 0
latt-scale 1 1 1 
lattice  \
	   6.741023000000000    0.000000000000000    0.000000000000000  \
	   0.000000000000000   10.658493999999999    0.000000000000000  \
	   0.000000000000000    0.000000000000000   63.950963999999999 
lattice-minimize  \
	dirUpdateScheme      L-BFGS \
	linminMethod         DirUpdateRecommended \
	nIterations          0 \
	history              15 \
	knormThreshold       0 \
	energyDiffThreshold  1e-06 \
	nEnergyDiff          2 \
	alphaTstart          1 \
	alphaTmin            1e-10 \
	updateTestStepSize   yes \
	alphaTreduceFactor   0.1 \
	alphaTincreaseFactor 3 \
	nAlphaAdjustMax      3 \
	wolfeEnergy          0.0001 \
	wolfeGradient        0.9 \
	fdTest               no
lcao-params 30 1e-06 0.001
pcm-variant CANDLE
spintype z-spin
subspace-rotation-factor 1 yes
symmetries automatic
symmetry-threshold 0.0001
target-mu -0.208 no

van-der-waals D3



---------- Setting up symmetries ----------

Found 8 point-group symmetries of the bravais lattice
Found 1 space-group symmetries with basis
Applied RMS atom displacement 0 bohrs to make symmetries exact.

---------- Initializing the Grid ----------
R = 
[      6.74102            0            0  ]
[            0      10.6585            0  ]
[            0            0       63.951  ]
unit cell volume = 4594.82
G =
[   0.932082          0          0  ]
[          0     0.5895          0  ]
[          0          0    0.09825  ]
Minimum fftbox size, Smin = [  28  44  260  ]
Chosen fftbox size, S = [  28  48  270  ]

---------- Exchange Correlation functional ----------
Initalized PBE GGA exchange.
Initalized PBE GGA correlation.

---------- Setting up pseudopotentials ----------
Width of ionic core gaussian charges (only for fluid interactions / plotting) set to 0.397384

Reading pseudopotential file '/projects/musgravc/apps/jdftx-1.6.0/build/pseudopotentials/GBRV_v1.5/cu_pbe_v1.2.uspp':
  Title: Cu.  Created by USPP 7.3.6 on 3-2-2014
  Reference state energy: -201.059491.  19 valence electrons in orbitals:
    |300>  occupation: 2  eigenvalue: -5.020764
    |310>  occupation: 6  eigenvalue: -3.445588
    |320>  occupation: 8  eigenvalue: -0.925168
    |400>  occupation: 2  eigenvalue: -0.567638
    |410>  occupation: 0  eigenvalue: -0.326154
  lMax: 2  lLocal: 3  QijEcut: 6
  6 projectors sampled on a log grid with 613 points:
    l: 0  eig: -5.020767  rCut: 1.4
    l: 0  eig: -0.567640  rCut: 1.4
    l: 1  eig: -3.445589  rCut: 1.55
    l: 1  eig: -0.326157  rCut: 1.55
    l: 2  eig: -0.925170  rCut: 1.5
    l: 2  eig: 1.500000  rCut: 1.5
  Partial core density with radius 0.8
  Transforming core density to a uniform radial grid of dG=0.02 with 1174 points.
  Transforming local potential to a uniform radial grid of dG=0.02 with 1174 points.
  Transforming nonlocal projectors to a uniform radial grid of dG=0.02 with 432 points.
  Transforming density augmentations to a uniform radial grid of dG=0.02 with 1174 points.
  Transforming atomic orbitals to a uniform radial grid of dG=0.02 with 432 points.
  Core radius for overlap checks: 1.55 bohrs.

Initialized 1 species with 20 total atoms.

Folded 1 k-points by 9x5x1 to 45 k-points.

---------- Setting up k-points, bands, fillings ----------
Adding inversion symmetry to k-mesh for non-inversion-symmetric unit cell.
Reduced to 23 k-points under symmetry. 
Computing the number of bands and number of electrons
Reading initial fillings from file jdft.fillings.
nElectrons: 378.972155   nBands: 228   nStates: 46

----- Setting up reduced wavefunction bases (one per k-point) -----
average nbasis = 19629.533 , ideal nbasis = 19629.432

----- Initializing Supercell corresponding to k-point mesh -----
Lattice vector linear combinations in supercell:
[   9   0   0  ]
[   0   5   0  ]
[   0   0   1  ]
Supercell lattice vectors:
[  60.6692  0  0  ]
[  0  53.2925  0  ]
[  0  0  63.951  ]

Initializing DFT-D3 calculator:
	Parameters set for gga-PBE functional
	s6:  1.000  s_r6:  1.217
	s8:  0.722  s_r8:  1.000
	Per-atom parameters loaded for:
	Cu:  sqrtQ[a0]:  5.226  Rcov[a0]:  1.909  CN: [ 0.00 0.96 ]

Initializing DFT-D2 calculator for fluid / solvation:
	Cu:  C6:  187.33 Eh-a0^6  R0: 2.952 a0

---------- Setting up ewald sum ----------
Optimum gaussian width for ewald sums = 4.025576 bohr.
Real space sum over 825 unit cells with max indices [  7  5  2  ]
Reciprocal space sum over 5049 terms with max indices [  4  5  25  ]

Computing DFT-D3 correction:
# coordination-number Cu 6.904 9.101 9.040 9.113 9.134 9.039 9.108 8.323 6.239 4.884 8.323 9.109 9.040 9.135 9.113 9.039 9.100 6.904 4.885 6.240
# diagonal-C6 Cu 175.00 175.00 175.00 175.00 175.00 175.00 175.00 175.00 175.00 175.00 175.00 175.00 175.00 175.00 175.00 175.00 175.00 175.00 175.00 175.00
EvdW_6 =   -0.118574
EvdW_8 =   -0.178340

---------- Allocating electronic variables ----------
Initializing wave functions:  reading from 'jdft.wfns'
----- createFluidSolver() ----- (Fluid-side solver setup)
   Initializing fluid molecule 'H2O'
     Initializing site 'O'
       Electron density: proportional to exp(-r/0.36935)*erfc((r-0.51523)/0.36823) with norm 6.826
       Charge density: gaussian nuclear width 0.478731 with net site charge 0.826
       Polarizability: cuspless exponential with width 0.32 and norm 3.73
       Hard sphere radius: 2.57003 bohrs
       Positions in reference frame:
         [ +0.000000 +0.000000 +0.000000 ]
     Initializing site 'H'
       Electron density: proportional to exp(-r/0.34641)*erfc((r-0)/0.390882) with norm 0.587
       Charge density: gaussian nuclear width 0.377945 with net site charge -0.413
       Polarizability: cuspless exponential with width 0.39 and norm 3.3
       Positions in reference frame:
         [ +0.000000 -1.441945 +1.122523 ]
         [ +0.000000 +1.441945 +1.122523 ]
     Net charge: 0   dipole magnitude: 0.927204
     Initializing spherical shell mfKernel with radius 2.61727 Bohr
     deltaS corrections:
       site 'O': -7.54299
       site 'H': -6.83917
   Initializing fluid molecule 'Na+'
     Initializing site 'Na'
       Electron density: proportional to exp(-r/0.19682)*erfc((r-0.71491)/0.41314) with norm 8.1383
       Charge density: gaussian nuclear width 0.365347 with net site charge -1
       Hard sphere radius: 1.86327 bohrs
       Positions in reference frame:
         [ +0.000000 +0.000000 +0.000000 ]
     Net charge: -1   dipole magnitude: 0
     Initializing gaussian mfKernel with width: 1.55004 Bohr
     deltaS corrections:
       site 'Na': -22.3555
   Initializing fluid molecule 'F-'
     Initializing site 'F'
       Electron density: proportional to exp(-r/0.38886)*erfc((r-0)/0.438782) with norm 8
       Charge density: gaussian nuclear width 0.374796 with net site charge 1
       Hard sphere radius: 2.39995 bohrs
       Positions in reference frame:
         [ +0.000000 +0.000000 +0.000000 ]
     Net charge: 1   dipole magnitude: 0
     Initializing gaussian mfKernel with width: 1.59012 Bohr
     deltaS corrections:
       site 'F': -9.04335

Correction to mu due to finite nuclear width = -0.0820568
   Cavity determined by nc: 0.00142 and sigma: 0.707107
   Nonlocal vdW cavity from gaussian model electron density with norm = 8 and sigma = 0.993594 bohr
   Charge asymmetry in cavity with sensitivity pCavity = 36.5 e-bohr/Eh
   Electrostatic cavity expanded by eta = 1.46 bohrs
   Weighted density cavitation model constrained by Nbulk: 0.0049383 bohr^-3, Pvap: 3.14029 kPa, Rvdw: 2.61727 bohr and sigmaBulk: 4.62e-05 Eh/bohr^2 at T: 298 K.
   Weighted density dispersion model using vdW pair potentials with single solvent site with sqrtC6eff: 0.77 SI.
Reading fluid state from 'jdft.fluidState'


---- Citations for features of the code used in this run ----

   Software package:
      R. Sundararaman, K. Letchworth-Weaver, K.A. Schwarz, D. Gunceler, Y. Ozhabes and T.A. Arias, 'JDFTx: software for joint density-functional theory', SoftwareX 6, 278 (2017)

   gga-PBE exchange-correlation functional:
      J.P. Perdew, K. Burke and M. Ernzerhof, Phys. Rev. Lett. 77, 3865 (1996)

   Pseudopotentials:
      KF Garrity, JW Bennett, KM Rabe and D Vanderbilt, Comput. Mater. Sci. 81, 446 (2014)

   DFT-D3 dispersion correction:
      S. Grimme, J. Antony, S. Ehrlich and H. Krieg, J. Chem. Phys. 132, 154104 (2010)

   DFT-D2 dispersion correction:
      S. Grimme, J. Comput. Chem. 27, 1787 (2006)

   Charge-asymmetric nonlocally-determined local-electric (CANDLE) solvation model:
      R. Sundararaman and W.A. Goddard III, J. Chem. Phys. 142, 064107 (2015)

   Total energy minimization with Auxiliary Hamiltonian:
      C. Freysoldt, S. Boeck, and J. Neugebauer, Phys. Rev. B 79, 241103(R) (2009)

   Grand-canonical (fixed-potential) DFT:
      R. Sundararaman, W. A. Goddard III and T. A. Arias, J. Chem. Phys. 146, 114104 (2017)

   Linear-tetrahedron sampling for density of states:
      G. Lehmann and M. Taut, Phys. status solidi (b) 54, 469 (1972)

This list may not be complete. Please suggest additional citations or
report any other bugs at https://github.com/shankar1729/jdftx/issues

Initialization completed successfully at t[s]:     14.16


Computing DFT-D3 correction:
# coordination-number Cu 6.904 9.101 9.040 9.113 9.134 9.039 9.108 8.323 6.239 4.884 8.323 9.109 9.040 9.135 9.113 9.039 9.100 6.904 4.885 6.240
# diagonal-C6 Cu 175.00 175.00 175.00 175.00 175.00 175.00 175.00 175.00 175.00 175.00 175.00 175.00 175.00 175.00 175.00 175.00 175.00 175.00 175.00 175.00
EvdW_6 =   -0.118574
EvdW_8 =   -0.178340
Shifting auxilliary hamiltonian by 0.036738 to set nElectrons=378.972155

-------- Electronic minimization -----------
	Linear fluid (dielectric constant: 78.4, screening length: 8.12261 Bohr) occupying 0.552737 of unit cell:	Completed after 24 iterations at t[s]:     31.62
	FillingsUpdate:  mu: -0.208000000  nElectrons: 378.972155  magneticMoment: [ Abs: 0.00005  Tot: -0.00002 ]
ElecMinimize: Iter:   0  G: -3957.318240702894855  |grad|_K:  1.033e-04  alpha:  1.000e+00
	Linear fluid (dielectric constant: 78.4, screening length: 8.12261 Bohr) occupying 0.599594 of unit cell:	Completed after 37 iterations at t[s]:    103.68
	Linear fluid (dielectric constant: 78.4, screening length: 8.12261 Bohr) occupying 0.551839 of unit cell:	Completed after 27 iterations at t[s]:    130.11
	FillingsUpdate:  mu: -0.208000000  nElectrons: 379.806582  magneticMoment: [ Abs: 0.00004  Tot: +0.00001 ]
	SubspaceRotationAdjust: set factor to 0.646
ElecMinimize: Iter:   1  G: -3957.557913632017517  |grad|_K:  2.017e-04  alpha:  1.624e-01  linmin:  1.411e-03  t[s]:    165.41
	Linear fluid (dielectric constant: 78.4, screening length: 8.12261 Bohr) occupying 0.548570 of unit cell:	Completed after 29 iterations at t[s]:    197.14
	Linear fluid (dielectric constant: 78.4, screening length: 8.12261 Bohr) occupying 0.551711 of unit cell:	Completed after 29 iterations at t[s]:    223.46
	FillingsUpdate:  mu: -0.208000000  nElectrons: 379.396249  magneticMoment: [ Abs: 0.00004  Tot: +0.00000 ]
	SubspaceRotationAdjust: set factor to 0.592
ElecMinimize: Iter:   2  G: -3957.615006549769078  |grad|_K:  1.149e-04  alpha:  1.021e-02  linmin:  4.971e-04  t[s]:    259.73
	Linear fluid (dielectric constant: 78.4, screening length: 8.12261 Bohr) occupying 0.551643 of unit cell:	Completed after 21 iterations at t[s]:    291.62
ElecMinimize: 	Predicted alpha/alphaT>3.000000, increasing alphaT to 3.064016e-02.
	Linear fluid (dielectric constant: 78.4, screening length: 8.12261 Bohr) occupying 0.551515 of unit cell:	Completed after 23 iterations at t[s]:    317.91
	Linear fluid (dielectric constant: 78.4, screening length: 8.12261 Bohr) occupying 0.551462 of unit cell:	Completed after 21 iterations at t[s]:    342.81
	FillingsUpdate:  mu: -0.208000000  nElectrons: 378.952128  magneticMoment: [ Abs: 0.00004  Tot: -0.00000 ]
	SubspaceRotationAdjust: set factor to 0.378
ElecMinimize: Iter:   3  G: -3957.711571065499811  |grad|_K:  1.703e-04  alpha:  3.918e-02  linmin: -3.675e-04  t[s]:    378.28
	Linear fluid (dielectric constant: 78.4, screening length: 8.12261 Bohr) occupying 0.550474 of unit cell:	Completed after 24 iterations at t[s]:    409.29
	Linear fluid (dielectric constant: 78.4, screening length: 8.12261 Bohr) occupying 0.550665 of unit cell:	Completed after 22 iterations at t[s]:    434.11
	FillingsUpdate:  mu: -0.208000000  nElectrons: 379.218489  magneticMoment: [ Abs: 0.00003  Tot: +0.00000 ]
	SubspaceRotationAdjust: set factor to 0.329
ElecMinimize: Iter:   4  G: -3957.915174517057494  |grad|_K:  6.799e-05  alpha:  3.130e-02  linmin:  2.194e-05  t[s]:    469.34
	Linear fluid (dielectric constant: 78.4, screening length: 8.12261 Bohr) occupying 0.550495 of unit cell:	Completed after 19 iterations at t[s]:    499.38
	Linear fluid (dielectric constant: 78.4, screening length: 8.12261 Bohr) occupying 0.550518 of unit cell:	Completed after 16 iterations at t[s]:    523.43
	FillingsUpdate:  mu: -0.208000000  nElectrons: 379.474517  magneticMoment: [ Abs: 0.00003  Tot: -0.00000 ]
	SubspaceRotationAdjust: set factor to 0.228
ElecMinimize: Iter:   5  G: -3957.939794688437814  |grad|_K:  4.047e-05  alpha:  2.617e-02  linmin: -1.524e-04  t[s]:    559.39
	Linear fluid (dielectric constant: 78.4, screening length: 8.12261 Bohr) occupying 0.550458 of unit cell:	Completed after 19 iterations at t[s]:    590.78
	Linear fluid (dielectric constant: 78.4, screening length: 8.12261 Bohr) occupying 0.550374 of unit cell:	Completed after 20 iterations at t[s]:    615.18
	FillingsUpdate:  mu: -0.208000000  nElectrons: 379.530785  magneticMoment: [ Abs: 0.00003  Tot: -0.00001 ]
	SubspaceRotationAdjust: set factor to 0.173
ElecMinimize: Iter:   6  G: -3957.961603330674279  |grad|_K:  3.111e-05  alpha:  6.287e-02  linmin: -6.203e-05  t[s]:    651.06
	Linear fluid (dielectric constant: 78.4, screening length: 8.12261 Bohr) occupying 0.550204 of unit cell:	Completed after 22 iterations at t[s]:    683.30
	Linear fluid (dielectric constant: 78.4, screening length: 8.12261 Bohr) occupying 0.550227 of unit cell:	Completed after 19 iterations at t[s]:    708.89
	FillingsUpdate:  mu: -0.208000000  nElectrons: 379.371090  magneticMoment: [ Abs: 0.00002  Tot: -0.00000 ]
	SubspaceRotationAdjust: set factor to 0.164
ElecMinimize: Iter:   7  G: -3957.972542199591317  |grad|_K:  2.240e-05  alpha:  5.381e-02  linmin:  1.281e-04  t[s]:    745.88
	Linear fluid (dielectric constant: 78.4, screening length: 8.12261 Bohr) occupying 0.550072 of unit cell:	Completed after 20 iterations at t[s]:    775.95
	Linear fluid (dielectric constant: 78.4, screening length: 8.12261 Bohr) occupying 0.549996 of unit cell:	Completed after 19 iterations at t[s]:    800.69
	FillingsUpdate:  mu: -0.208000000  nElectrons: 379.242698  magneticMoment: [ Abs: 0.00002  Tot: +0.00000 ]
	SubspaceRotationAdjust: set factor to 0.113
	SubspaceRotationAdjust: resetting CG because factor has changed by 0.112561
	Linear fluid (dielectric constant: 78.4, screening length: 8.12261 Bohr) occupying 0.549996 of unit cell:	Completed after 0 iterations at t[s]:    848.17
ElecMinimize: 	State modified externally: resetting search direction.
ElecMinimize: Iter:   8  G: -3957.980724043785813  |grad|_K:  1.995e-05  alpha:  8.090e-02
	Linear fluid (dielectric constant: 78.4, screening length: 8.12261 Bohr) occupying 0.549920 of unit cell:	Completed after 18 iterations at t[s]:    912.84
	Linear fluid (dielectric constant: 78.4, screening length: 8.12261 Bohr) occupying 0.549920 of unit cell:	Completed after 9 iterations at t[s]:    935.95
	FillingsUpdate:  mu: -0.208000000  nElectrons: 379.363068  magneticMoment: [ Abs: 0.00002  Tot: -0.00000 ]
	SubspaceRotationAdjust: set factor to 0.133
ElecMinimize: Iter:   9  G: -3957.987416700175800  |grad|_K:  7.048e-06  alpha:  8.124e-02  linmin: -7.323e-04  t[s]:    971.52
	Linear fluid (dielectric constant: 78.4, screening length: 8.12261 Bohr) occupying 0.549840 of unit cell:	Completed after 11 iterations at t[s]:   1001.15
ElecMinimize: 	Predicted alpha/alphaT>3.000000, increasing alphaT to 2.437065e-01.
	Linear fluid (dielectric constant: 78.4, screening length: 8.12261 Bohr) occupying 0.549680 of unit cell:	Completed after 14 iterations at t[s]:   1024.88
	Linear fluid (dielectric constant: 78.4, screening length: 8.12261 Bohr) occupying 0.549609 of unit cell:	Completed after 11 iterations at t[s]:   1048.40
	FillingsUpdate:  mu: -0.208000000  nElectrons: 379.360820  magneticMoment: [ Abs: 0.00002  Tot: -0.00000 ]
	SubspaceRotationAdjust: set factor to 0.152
ElecMinimize: Iter:  10  G: -3957.990693853155790  |grad|_K:  7.602e-06  alpha:  3.147e-01  linmin:  4.031e-06  t[s]:   1084.12
	Linear fluid (dielectric constant: 78.4, screening length: 8.12261 Bohr) occupying 0.548970 of unit cell:	Completed after 20 iterations at t[s]:   1115.57
	Linear fluid (dielectric constant: 78.4, screening length: 8.12261 Bohr) occupying 0.549323 of unit cell:	Completed after 19 iterations at t[s]:   1141.25
	FillingsUpdate:  mu: -0.208000000  nElectrons: 379.332537  magneticMoment: [ Abs: 0.00002  Tot: -0.00000 ]
	SubspaceRotationAdjust: set factor to 0.176
ElecMinimize: Iter:  11  G: -3957.992393916679703  |grad|_K:  4.761e-06  alpha:  1.418e-01  linmin: -1.466e-05  t[s]:   1177.61
	Linear fluid (dielectric constant: 78.4, screening length: 8.12261 Bohr) occupying 0.549108 of unit cell:	Completed after 14 iterations at t[s]:   1207.20
	Linear fluid (dielectric constant: 78.4, screening length: 8.12261 Bohr) occupying 0.548843 of unit cell:	Completed after 15 iterations at t[s]:   1231.33
	FillingsUpdate:  mu: -0.208000000  nElectrons: 379.343760  magneticMoment: [ Abs: 0.00002  Tot: -0.00000 ]
	SubspaceRotationAdjust: set factor to 0.19
ElecMinimize: Iter:  12  G: -3957.993876700189958  |grad|_K:  5.397e-06  alpha:  3.151e-01  linmin: -7.923e-06  t[s]:   1266.50
	Linear fluid (dielectric constant: 78.4, screening length: 8.12261 Bohr) occupying 0.548093 of unit cell:	Completed after 20 iterations at t[s]:   1296.68
	Linear fluid (dielectric constant: 78.4, screening length: 8.12261 Bohr) occupying 0.548458 of unit cell:	Completed after 19 iterations at t[s]:   1320.92
	FillingsUpdate:  mu: -0.208000000  nElectrons: 379.311817  magneticMoment: [ Abs: 0.00002  Tot: -0.00000 ]
	SubspaceRotationAdjust: set factor to 0.175
ElecMinimize: Iter:  13  G: -3957.994876028346425  |grad|_K:  6.036e-06  alpha:  1.635e-01  linmin: -1.540e-05  t[s]:   1356.12
	Linear fluid (dielectric constant: 78.4, screening length: 8.12261 Bohr) occupying 0.547909 of unit cell:	Completed after 15 iterations at t[s]:   1386.53
	Linear fluid (dielectric constant: 78.4, screening length: 8.12261 Bohr) occupying 0.547910 of unit cell:	Completed after 2 iterations at t[s]:   1408.98
	FillingsUpdate:  mu: -0.208000000  nElectrons: 379.347546  magneticMoment: [ Abs: 0.00002  Tot: -0.00000 ]
	SubspaceRotationAdjust: set factor to 0.137
ElecMinimize: Iter:  14  G: -3957.996114916701117  |grad|_K:  5.199e-06  alpha:  1.633e-01  linmin: -1.423e-05  t[s]:   1444.69
	Linear fluid (dielectric constant: 78.4, screening length: 8.12261 Bohr) occupying 0.547474 of unit cell:	Completed after 15 iterations at t[s]:   1474.80
	Linear fluid (dielectric constant: 78.4, screening length: 8.12261 Bohr) occupying 0.547582 of unit cell:	Completed after 13 iterations at t[s]:   1499.33
	FillingsUpdate:  mu: -0.208000000  nElectrons: 379.328433  magneticMoment: [ Abs: 0.00001  Tot: -0.00000 ]
	SubspaceRotationAdjust: set factor to 0.137
ElecMinimize: Iter:  15  G: -3957.996811581926522  |grad|_K:  3.605e-06  alpha:  1.234e-01  linmin:  5.027e-06  t[s]:   1536.14
	Linear fluid (dielectric constant: 78.4, screening length: 8.12261 Bohr) occupying 0.547423 of unit cell:	Completed after 12 iterations at t[s]:   1566.88
ElecMinimize: 	Predicted alpha/alphaT>3.000000, increasing alphaT to 3.702998e-01.
	Linear fluid (dielectric constant: 78.4, screening length: 8.12261 Bohr) occupying 0.547094 of unit cell:	Completed after 14 iterations at t[s]:   1591.35
	Linear fluid (dielectric constant: 78.4, screening length: 8.12261 Bohr) occupying 0.547015 of unit cell:	Completed after 10 iterations at t[s]:   1614.24
	FillingsUpdate:  mu: -0.208000000  nElectrons: 379.344913  magneticMoment: [ Abs: 0.00001  Tot: -0.00000 ]
	SubspaceRotationAdjust: set factor to 0.147
ElecMinimize: Iter:  16  G: -3957.997962158297923  |grad|_K:  5.259e-06  alpha:  4.280e-01  linmin: -1.268e-06  t[s]:   1649.60
	Linear fluid (dielectric constant: 78.4, screening length: 8.12261 Bohr) occupying 0.545674 of unit cell:	Completed after 20 iterations at t[s]:   1679.80
	Linear fluid (dielectric constant: 78.4, screening length: 8.12261 Bohr) occupying 0.546576 of unit cell:	Completed after 19 iterations at t[s]:   1703.99
	FillingsUpdate:  mu: -0.208000000  nElectrons: 379.369185  magneticMoment: [ Abs: 0.00001  Tot: -0.00000 ]
	SubspaceRotationAdjust: set factor to 0.147
ElecMinimize: Iter:  17  G: -3957.998811019680033  |grad|_K:  3.149e-06  alpha:  1.497e-01  linmin:  1.934e-05  t[s]:   1739.09
	Linear fluid (dielectric constant: 78.4, screening length: 8.12261 Bohr) occupying 0.546434 of unit cell:	Completed after 16 iterations at t[s]:   1768.81
	Linear fluid (dielectric constant: 78.4, screening length: 8.12261 Bohr) occupying 0.546423 of unit cell:	Completed after 10 iterations at t[s]:   1791.95
	FillingsUpdate:  mu: -0.208000000  nElectrons: 379.358091  magneticMoment: [ Abs: 0.00001  Tot: -0.00000 ]
	SubspaceRotationAdjust: set factor to 0.129
ElecMinimize: Iter:  18  G: -3957.999138872781259  |grad|_K:  3.151e-06  alpha:  1.609e-01  linmin:  6.577e-06  t[s]:   1827.79
	Linear fluid (dielectric constant: 78.4, screening length: 8.12261 Bohr) occupying 0.546285 of unit cell:	Completed after 18 iterations at t[s]:   1858.78
	Linear fluid (dielectric constant: 78.4, screening length: 8.12261 Bohr) occupying 0.546234 of unit cell:	Completed after 14 iterations at t[s]:   1882.61
	FillingsUpdate:  mu: -0.208000000  nElectrons: 379.383611  magneticMoment: [ Abs: 0.00001  Tot: -0.00000 ]
	SubspaceRotationAdjust: set factor to 0.108
ElecMinimize: Iter:  19  G: -3957.999589530742014  |grad|_K:  2.549e-06  alpha:  2.192e-01  linmin: -1.673e-05  t[s]:   1918.39
	Linear fluid (dielectric constant: 78.4, screening length: 8.12261 Bohr) occupying 0.546122 of unit cell:	Completed after 14 iterations at t[s]:   1949.41
	Linear fluid (dielectric constant: 78.4, screening length: 8.12261 Bohr) occupying 0.546157 of unit cell:	Completed after 12 iterations at t[s]:   1974.07
	FillingsUpdate:  mu: -0.208000000  nElectrons: 379.381586  magneticMoment: [ Abs: 0.00001  Tot: -0.00000 ]
	SubspaceRotationAdjust: set factor to 0.108
ElecMinimize: Iter:  20  G: -3957.999796265517944  |grad|_K:  2.126e-06  alpha:  1.525e-01  linmin:  1.759e-07  t[s]:   2011.19
	Linear fluid (dielectric constant: 78.4, screening length: 8.12261 Bohr) occupying 0.546116 of unit cell:	Completed after 12 iterations at t[s]:   2040.10
	Linear fluid (dielectric constant: 78.4, screening length: 8.12261 Bohr) occupying 0.546102 of unit cell:	Completed after 10 iterations at t[s]:   2063.25
	FillingsUpdate:  mu: -0.208000000  nElectrons: 379.383604  magneticMoment: [ Abs: 0.00001  Tot: -0.00000 ]
	SubspaceRotationAdjust: set factor to 0.116
ElecMinimize: Iter:  21  G: -3957.999986292496487  |grad|_K:  1.731e-06  alpha:  2.031e-01  linmin:  1.098e-06  t[s]:   2098.60
	Linear fluid (dielectric constant: 78.4, screening length: 8.12261 Bohr) occupying 0.546074 of unit cell:	Completed after 15 iterations at t[s]:   2128.05
	Linear fluid (dielectric constant: 78.4, screening length: 8.12261 Bohr) occupying 0.546082 of unit cell:	Completed after 12 iterations at t[s]:   2151.35
	FillingsUpdate:  mu: -0.208000000  nElectrons: 379.390569  magneticMoment: [ Abs: 0.00001  Tot: -0.00000 ]
	SubspaceRotationAdjust: set factor to 0.113
ElecMinimize: Iter:  22  G: -3958.000078062005741  |grad|_K:  1.395e-06  alpha:  1.479e-01  linmin: -3.021e-07  t[s]:   2186.47
	Linear fluid (dielectric constant: 78.4, screening length: 8.12261 Bohr) occupying 0.546071 of unit cell:	Completed after 13 iterations at t[s]:   2215.92
	Linear fluid (dielectric constant: 78.4, screening length: 8.12261 Bohr) occupying 0.546068 of unit cell:	Completed after 10 iterations at t[s]:   2239.57
	FillingsUpdate:  mu: -0.208000000  nElectrons: 379.390001  magneticMoment: [ Abs: 0.00001  Tot: -0.00000 ]
	SubspaceRotationAdjust: set factor to 0.125
ElecMinimize: Iter:  23  G: -3958.000153890960519  |grad|_K:  9.179e-07  alpha:  1.881e-01  linmin:  4.881e-07  t[s]:   2275.77
	Linear fluid (dielectric constant: 78.4, screening length: 8.12261 Bohr) occupying 0.546061 of unit cell:	Completed after 11 iterations at t[s]:   2304.76
	Linear fluid (dielectric constant: 78.4, screening length: 8.12261 Bohr) occupying 0.546063 of unit cell:	Completed after 7 iterations at t[s]:   2327.61
	FillingsUpdate:  mu: -0.208000000  nElectrons: 379.389438  magneticMoment: [ Abs: 0.00000  Tot: -0.00000 ]
	SubspaceRotationAdjust: set factor to 0.136
ElecMinimize: Iter:  24  G: -3958.000179833023140  |grad|_K:  7.781e-07  alpha:  1.487e-01  linmin:  1.693e-06  t[s]:   2364.09
	Linear fluid (dielectric constant: 78.4, screening length: 8.12261 Bohr) occupying 0.546056 of unit cell:	Completed after 9 iterations at t[s]:   2394.06
	Linear fluid (dielectric constant: 78.4, screening length: 8.12261 Bohr) occupying 0.546050 of unit cell:	Completed after 10 iterations at t[s]:   2418.45
	FillingsUpdate:  mu: -0.208000000  nElectrons: 379.392014  magneticMoment: [ Abs: 0.00000  Tot: -0.00000 ]
	SubspaceRotationAdjust: set factor to 0.143
ElecMinimize: Iter:  25  G: -3958.000215333842789  |grad|_K:  8.233e-07  alpha:  2.831e-01  linmin: -5.900e-06  t[s]:   2454.15
	Linear fluid (dielectric constant: 78.4, screening length: 8.12261 Bohr) occupying 0.546020 of unit cell:	Completed after 11 iterations at t[s]:   2483.56
	Linear fluid (dielectric constant: 78.4, screening length: 8.12261 Bohr) occupying 0.546037 of unit cell:	Completed after 10 iterations at t[s]:   2506.73
	FillingsUpdate:  mu: -0.208000000  nElectrons: 379.392338  magneticMoment: [ Abs: 0.00000  Tot: -0.00000 ]
	SubspaceRotationAdjust: set factor to 0.159
ElecMinimize: Iter:  26  G: -3958.000233216428114  |grad|_K:  5.396e-07  alpha:  1.272e-01  linmin: -8.798e-07  t[s]:   2541.98
	Linear fluid (dielectric constant: 78.4, screening length: 8.12261 Bohr) occupying 0.546024 of unit cell:	Completed after 7 iterations at t[s]:   2570.54
	Linear fluid (dielectric constant: 78.4, screening length: 8.12261 Bohr) occupying 0.546012 of unit cell:	Completed after 7 iterations at t[s]:   2593.02
	FillingsUpdate:  mu: -0.208000000  nElectrons: 379.393957  magneticMoment: [ Abs: 0.00000  Tot: -0.00000 ]
	SubspaceRotationAdjust: set factor to 0.174
ElecMinimize: Iter:  27  G: -3958.000247727924943  |grad|_K:  5.276e-07  alpha:  2.406e-01  linmin: -3.915e-06  t[s]:   2628.11
	Linear fluid (dielectric constant: 78.4, screening length: 8.12261 Bohr) occupying 0.545972 of unit cell:	Completed after 11 iterations at t[s]:   2657.97
	Linear fluid (dielectric constant: 78.4, screening length: 8.12261 Bohr) occupying 0.545988 of unit cell:	Completed after 7 iterations at t[s]:   2681.06
	FillingsUpdate:  mu: -0.208000000  nElectrons: 379.394581  magneticMoment: [ Abs: 0.00000  Tot: -0.00000 ]
	SubspaceRotationAdjust: set factor to 0.198
ElecMinimize: Iter:  28  G: -3958.000256053447174  |grad|_K:  3.953e-07  alpha:  1.443e-01  linmin:  3.317e-06  t[s]:   2716.81
	Linear fluid (dielectric constant: 78.4, screening length: 8.12261 Bohr) occupying 0.545964 of unit cell:	Completed after 9 iterations at t[s]:   2745.82
	Linear fluid (dielectric constant: 78.4, screening length: 8.12261 Bohr) occupying 0.545949 of unit cell:	Completed after 9 iterations at t[s]:   2769.74
	FillingsUpdate:  mu: -0.208000000  nElectrons: 379.397220  magneticMoment: [ Abs: 0.00000  Tot: -0.00000 ]
	SubspaceRotationAdjust: set factor to 0.212
ElecMinimize: Iter:  29  G: -3958.000263564922534  |grad|_K:  4.352e-07  alpha:  2.319e-01  linmin: -2.293e-05  t[s]:   2806.72
	Linear fluid (dielectric constant: 78.4, screening length: 8.12261 Bohr) occupying 0.545883 of unit cell:	Completed after 11 iterations at t[s]:   2837.89
	Linear fluid (dielectric constant: 78.4, screening length: 8.12261 Bohr) occupying 0.545903 of unit cell:	Completed after 10 iterations at t[s]:   2861.62
	FillingsUpdate:  mu: -0.208000000  nElectrons: 379.397320  magneticMoment: [ Abs: 0.00000  Tot: -0.00000 ]
	SubspaceRotationAdjust: set factor to 0.206
ElecMinimize: Iter:  30  G: -3958.000269940107501  |grad|_K:  3.758e-07  alpha:  1.620e-01  linmin:  5.508e-07  t[s]:   2896.92
	Linear fluid (dielectric constant: 78.4, screening length: 8.12261 Bohr) occupying 0.545856 of unit cell:	Completed after 11 iterations at t[s]:   2926.62
	Linear fluid (dielectric constant: 78.4, screening length: 8.12261 Bohr) occupying 0.545861 of unit cell:	Completed after 7 iterations at t[s]:   2949.52
	FillingsUpdate:  mu: -0.208000000  nElectrons: 379.400968  magneticMoment: [ Abs: 0.00000  Tot: -0.00000 ]
	SubspaceRotationAdjust: set factor to 0.17
ElecMinimize: Iter:  31  G: -3958.000274139159956  |grad|_K:  4.136e-07  alpha:  1.436e-01  linmin:  9.175e-06  t[s]:   2984.82
	Linear fluid (dielectric constant: 78.4, screening length: 8.12261 Bohr) occupying 0.545800 of unit cell:	Completed after 11 iterations at t[s]:   3013.85
	Linear fluid (dielectric constant: 78.4, screening length: 8.12261 Bohr) occupying 0.545807 of unit cell:	Completed after 6 iterations at t[s]:   3036.47
	FillingsUpdate:  mu: -0.208000000  nElectrons: 379.400714  magneticMoment: [ Abs: 0.00000  Tot: -0.00000 ]
	SubspaceRotationAdjust: set factor to 0.135
ElecMinimize: Iter:  32  G: -3958.000278690375126  |grad|_K:  3.016e-07  alpha:  1.287e-01  linmin:  7.491e-06  t[s]:   3072.10
	Linear fluid (dielectric constant: 78.4, screening length: 8.12261 Bohr) occupying 0.545771 of unit cell:	Completed after 9 iterations at t[s]:   3101.31
	Linear fluid (dielectric constant: 78.4, screening length: 8.12261 Bohr) occupying 0.545768 of unit cell:	Completed after 2 iterations at t[s]:   3123.83
	FillingsUpdate:  mu: -0.208000000  nElectrons: 379.402386  magneticMoment: [ Abs: 0.00000  Tot: -0.00000 ]
	SubspaceRotationAdjust: set factor to 0.15
ElecMinimize: Iter:  33  G: -3958.000281313033611  |grad|_K:  2.465e-07  alpha:  1.395e-01  linmin: -1.879e-05  t[s]:   3159.09
	Linear fluid (dielectric constant: 78.4, screening length: 8.12261 Bohr) occupying 0.545736 of unit cell:	Completed after 9 iterations at t[s]:   3188.91
	Linear fluid (dielectric constant: 78.4, screening length: 8.12261 Bohr) occupying 0.545718 of unit cell:	Completed after 7 iterations at t[s]:   3212.74
	FillingsUpdate:  mu: -0.208000000  nElectrons: 379.404427  magneticMoment: [ Abs: 0.00000  Tot: -0.00000 ]
	SubspaceRotationAdjust: set factor to 0.156
ElecMinimize: Iter:  34  G: -3958.000284088207081  |grad|_K:  2.467e-07  alpha:  2.190e-01  linmin: -2.572e-05  t[s]:   3249.72
	Linear fluid (dielectric constant: 78.4, screening length: 8.12261 Bohr) occupying 0.545660 of unit cell:	Completed after 11 iterations at t[s]:   3280.26
	Linear fluid (dielectric constant: 78.4, screening length: 8.12261 Bohr) occupying 0.545685 of unit cell:	Completed after 10 iterations at t[s]:   3303.32
	FillingsUpdate:  mu: -0.208000000  nElectrons: 379.404129  magneticMoment: [ Abs: 0.00000  Tot: -0.00000 ]
	SubspaceRotationAdjust: set factor to 0.134
ElecMinimize: Iter:  35  G: -3958.000285707418698  |grad|_K:  1.918e-07  alpha:  1.274e-01  linmin:  4.203e-06  t[s]:   3338.65
	Linear fluid (dielectric constant: 78.4, screening length: 8.12261 Bohr) occupying 0.545661 of unit cell:	Completed after 9 iterations at t[s]:   3367.05
	Linear fluid (dielectric constant: 78.4, screening length: 8.12261 Bohr) occupying 0.545645 of unit cell:	Completed after 7 iterations at t[s]:   3389.45
	FillingsUpdate:  mu: -0.208000000  nElectrons: 379.405862  magneticMoment: [ Abs: 0.00000  Tot: -0.00000 ]
	SubspaceRotationAdjust: set factor to 0.131
ElecMinimize: Iter:  36  G: -3958.000287320466668  |grad|_K:  2.070e-07  alpha:  2.119e-01  linmin: -2.377e-06  t[s]:   3424.39
	Linear fluid (dielectric constant: 78.4, screening length: 8.12261 Bohr) occupying 0.545595 of unit cell:	Completed after 4 iterations at t[s]:   3452.26
	Linear fluid (dielectric constant: 78.4, screening length: 8.12261 Bohr) occupying 0.545611 of unit cell:	Completed after 2 iterations at t[s]:   3474.09
	FillingsUpdate:  mu: -0.208000000  nElectrons: 379.406643  magneticMoment: [ Abs: 0.00000  Tot: -0.00000 ]
	SubspaceRotationAdjust: set factor to 0.159
ElecMinimize: Iter:  37  G: -3958.000288594469566  |grad|_K:  1.362e-07  alpha:  1.436e-01  linmin: -2.275e-08  t[s]:   3509.84
	Linear fluid (dielectric constant: 78.4, screening length: 8.12261 Bohr) occupying 0.545595 of unit cell:	Completed after 9 iterations at t[s]:   3539.49
	Linear fluid (dielectric constant: 78.4, screening length: 8.12261 Bohr) occupying 0.545592 of unit cell:	Completed after 2 iterations at t[s]:   3561.14
	FillingsUpdate:  mu: -0.208000000  nElectrons: 379.406431  magneticMoment: [ Abs: 0.00000  Tot: -0.00000 ]
	SubspaceRotationAdjust: set factor to 0.157
ElecMinimize: Iter:  38  G: -3958.000289227214125  |grad|_K:  1.370e-07  alpha:  1.648e-01  linmin: -3.803e-05  t[s]:   3596.84
	Linear fluid (dielectric constant: 78.4, screening length: 8.12261 Bohr) occupying 0.545572 of unit cell:	Completed after 9 iterations at t[s]:   3626.82
	Linear fluid (dielectric constant: 78.4, screening length: 8.12261 Bohr) occupying 0.545568 of unit cell:	Completed after 2 iterations at t[s]:   3649.69
	FillingsUpdate:  mu: -0.208000000  nElectrons: 379.407500  magneticMoment: [ Abs: 0.00000  Tot: -0.00000 ]
	SubspaceRotationAdjust: set factor to 0.155
ElecMinimize: Iter:  39  G: -3958.000289986249300  |grad|_K:  1.156e-07  alpha:  1.936e-01  linmin:  2.587e-06  t[s]:   3686.65
	Linear fluid (dielectric constant: 78.4, screening length: 8.12261 Bohr) occupying 0.545550 of unit cell:	Completed after 2 iterations at t[s]:   3714.36
	Linear fluid (dielectric constant: 78.4, screening length: 8.12261 Bohr) occupying 0.545555 of unit cell:	Completed after 1 iterations at t[s]:   3736.24
	FillingsUpdate:  mu: -0.208000000  nElectrons: 379.407688  magneticMoment: [ Abs: 0.00000  Tot: -0.00000 ]
	SubspaceRotationAdjust: set factor to 0.176
ElecMinimize: Iter:  40  G: -3958.000290379282433  |grad|_K:  9.756e-08  alpha:  1.420e-01  linmin:  2.178e-05  t[s]:   3771.88
	Linear fluid (dielectric constant: 78.4, screening length: 8.12261 Bohr) occupying 0.545546 of unit cell:	Completed after 7 iterations at t[s]:   3800.22
	Linear fluid (dielectric constant: 78.4, screening length: 8.12261 Bohr) occupying 0.545543 of unit cell:	Completed after 2 iterations at t[s]:   3822.08
	FillingsUpdate:  mu: -0.208000000  nElectrons: 379.407593  magneticMoment: [ Abs: 0.00000  Tot: -0.00000 ]
	SubspaceRotationAdjust: set factor to 0.178
ElecMinimize: Iter:  41  G: -3958.000290740544642  |grad|_K:  8.893e-08  alpha:  1.835e-01  linmin: -6.704e-05  t[s]:   3857.11
	Linear fluid (dielectric constant: 78.4, screening length: 8.12261 Bohr) occupying 0.545532 of unit cell:	Completed after 10 iterations at t[s]:   3886.04
	Linear fluid (dielectric constant: 78.4, screening length: 8.12261 Bohr) occupying 0.545535 of unit cell:	Completed after 5 iterations at t[s]:   3909.01
	FillingsUpdate:  mu: -0.208000000  nElectrons: 379.408189  magneticMoment: [ Abs: 0.00000  Tot: -0.00000 ]
	SubspaceRotationAdjust: set factor to 0.152
ElecMinimize: Iter:  42  G: -3958.000290959537779  |grad|_K:  7.726e-08  alpha:  1.291e-01  linmin:  8.049e-05  t[s]:   3944.68
	Linear fluid (dielectric constant: 78.4, screening length: 8.12261 Bohr) occupying 0.545530 of unit cell:	Completed after 7 iterations at t[s]:   3973.30
	Linear fluid (dielectric constant: 78.4, screening length: 8.12261 Bohr) occupying 0.545528 of unit cell:	Completed after 2 iterations at t[s]:   3995.34
	FillingsUpdate:  mu: -0.208000000  nElectrons: 379.408067  magneticMoment: [ Abs: 0.00000  Tot: -0.00000 ]
	SubspaceRotationAdjust: set factor to 0.15
ElecMinimize: Iter:  43  G: -3958.000291173419555  |grad|_K:  6.996e-08  alpha:  1.750e-01  linmin: -1.148e-04  t[s]:   4031.82
	Linear fluid (dielectric constant: 78.4, screening length: 8.12261 Bohr) occupying 0.545522 of unit cell:	Completed after 2 iterations at t[s]:   4060.75
	Linear fluid (dielectric constant: 78.4, screening length: 8.12261 Bohr) occupying 0.545523 of unit cell:	Completed after 0 iterations at t[s]:   4083.46
	FillingsUpdate:  mu: -0.208000000  nElectrons: 379.408182  magneticMoment: [ Abs: 0.00000  Tot: -0.00000 ]
	SubspaceRotationAdjust: set factor to 0.174
ElecMinimize: Iter:  44  G: -3958.000291326765819  |grad|_K:  5.195e-08  alpha:  1.454e-01  linmin:  1.716e-05  t[s]:   4119.81
	Linear fluid (dielectric constant: 78.4, screening length: 8.12261 Bohr) occupying 0.545521 of unit cell:	Completed after 3 iterations at t[s]:   4147.69
	Linear fluid (dielectric constant: 78.4, screening length: 8.12261 Bohr) occupying 0.545520 of unit cell:	Completed after 3 iterations at t[s]:   4170.17
	FillingsUpdate:  mu: -0.208000000  nElectrons: 379.408512  magneticMoment: [ Abs: 0.00000  Tot: -0.00000 ]
	SubspaceRotationAdjust: set factor to 0.168
ElecMinimize: Iter:  45  G: -3958.000291419597943  |grad|_K:  5.504e-08  alpha:  1.738e-01  linmin:  1.837e-04  t[s]:   4205.30
	Linear fluid (dielectric constant: 78.4, screening length: 8.12261 Bohr) occupying 0.545518 of unit cell:	Completed after 6 iterations at t[s]:   4233.54
	Linear fluid (dielectric constant: 78.4, screening length: 8.12261 Bohr) occupying 0.545518 of unit cell:	Completed after 0 iterations at t[s]:   4254.90
	FillingsUpdate:  mu: -0.208000000  nElectrons: 379.408393  magneticMoment: [ Abs: 0.00000  Tot: -0.00000 ]
	SubspaceRotationAdjust: set factor to 0.156
ElecMinimize: Iter:  46  G: -3958.000291511876640  |grad|_K:  4.054e-08  alpha:  1.579e-01  linmin:  3.389e-05  t[s]:   4290.05
ElecMinimize: Converged (|Delta G|<1.000000e-07 for 2 iters).
Setting wave functions to eigenvectors of Hamiltonian
Converging empty states (this may take a while): |deigs|: 9.051e-04

Computing DFT-D3 correction:
# coordination-number Cu 6.904 9.101 9.040 9.113 9.134 9.039 9.108 8.323 6.239 4.884 8.323 9.109 9.040 9.135 9.113 9.039 9.100 6.904 4.885 6.240
# diagonal-C6 Cu 175.00 175.00 175.00 175.00 175.00 175.00 175.00 175.00 175.00 175.00 175.00 175.00 175.00 175.00 175.00 175.00 175.00 175.00 175.00 175.00
EvdW_6 =   -0.118574
EvdW_8 =   -0.178340

# Ionic positions in cartesian coordinates:
ion Cu   0.000054000000000   4.267906000000000  18.725994000000000 1
ion Cu   0.000020000000000   8.505126000000001  16.540917000000000 1
ion Cu   0.000027000000000   2.120678000000000  14.385257999999997 1
ion Cu  -0.000034000000000   6.402801999999999  12.275516000000000 1
ion Cu   0.000000000000000  10.652076999999998  10.121582999999999 1
ion Cu  -0.000013000000000   4.264154000000000   7.990034000000000 1
ion Cu  -0.000020000000000   8.558066999999999   5.848763000000000 1
ion Cu  -0.000061000000000   2.079398000000000   3.639066000000000 1
ion Cu  -0.000061000000000   6.426560000000000   1.622052000000000 1
ion Cu   0.000074000000000  -0.041088000000000  20.673684000000002 1
ion Cu   3.370613000000000   1.118065000000000  17.677837000000000 1
ion Cu   3.370544999999999   5.297932000000000  15.468140000000000 1
ion Cu   3.370525000000000   9.591961999999999  13.327125000000001 1
ion Cu   3.370498000000000   3.204007000000000  11.195511999999997 1
ion Cu   3.370512000000000   7.453111999999998   9.041771000000001 1
ion Cu   3.370478000000000   1.076785000000000   6.931709000000000 1
ion Cu   3.370478000000000   5.351106999999998   4.776114000000000 1
ion Cu   3.370444000000000   9.588264000000001   2.590654000000000 1
ion Cu   3.370478000000000   3.238594000000000   0.643730000000000 1
ion Cu   3.370572000000000   7.429427999999999  19.694531000000001 1

# Forces in Cartesian coordinates:
force Cu   0.000002259025901   0.000021418535916  -0.000891124441345 1
force Cu   0.000002105570907   0.000319101666805   0.000966216778571 1
force Cu   0.000001804748800  -0.000019805428129   0.000121737770503 1
force Cu   0.000002119570013   0.000283377704117  -0.000053918608370 1
force Cu   0.000000261064110   0.000163345521736  -0.000028203084149 1
force Cu  -0.000000514484206   0.000259758349952   0.000379257123157 1
force Cu  -0.000000784127915   0.000197274214206  -0.000295236710259 1
force Cu   0.000000379768969   0.000628088343437   0.000231133018698 1
force Cu  -0.000000083772186   0.000425023247367   0.000715110581910 1
force Cu   0.000002656226122   0.000184719910396   0.001766565424299 1
force Cu  -0.000000245072228  -0.000618876132232  -0.000145770502487 1
force Cu  -0.000001958107467  -0.000199830069282   0.000286652024884 1
force Cu  -0.000001598808022  -0.000261123306229  -0.000479242822531 1
force Cu  -0.000001056606039  -0.000171699910877  -0.000121435891638 1
force Cu   0.000000049587853  -0.000272078244665  -0.000070451669338 1
force Cu   0.000000622169352   0.000017225275029  -0.000172087704532 1
force Cu   0.000000533432710  -0.000314114847245  -0.000930939602222 1
force Cu   0.000000152444213  -0.000024249588871   0.000987754952141 1
force Cu  -0.000001260820053  -0.000180954349802  -0.001716416611928 1
force Cu   0.000000033699439  -0.000423476028475  -0.000622527272044 1

# Energy components:
   A_diel =        0.0671361396416863
   Eewald =    27527.9609876995054947
       EH =    31191.4311518921604147
     Eloc =   -63514.3947159847812145
      Enl =      732.5226447582740548
     EvdW =       -0.2969136592501177
      Exc =     -388.0147682341715267
 Exc_core =        0.9393568260127696
       KE =      412.8200512092756753
  MuShift =        0.0485453537932530
-------------------------------------
     Etot =    -4036.9165239995395495
       TS =        0.0007132781747578
-------------------------------------
        F =    -4036.9172372777143210
      muN =      -78.9169457658374540
-------------------------------------
        G =    -3958.0002915118766396


Dumping 'jdft.fillings' ... done
Dumping 'jdft.wfns' ... done
Dumping 'jdft.fluidState' ... done
Dumping 'jdft.ionpos' ... done
Dumping 'jdft.lattice' ... done
Dumping 'jdft.eigenvals' ... done
Dumping 'jdft.eigStats' ... 
	eMin: -4.349699 at state 0 ( [ +0.000000 +0.000000 +0.000000 ] spin 1 )
	HOMO: -0.209319 at state 26 ( [ +0.111111 +0.000000 +0.000000 ] spin -1 )
	mu  : -0.208000
	LUMO: -0.207961 at state 36 ( [ +0.333333 +0.000000 +0.000000 ] spin -1 )
	eMax: +0.183763 at state 13 ( [ +0.333333 +0.000000 +0.000000 ] spin 1 )
	HOMO-LUMO gap: +0.001358
	Optical gap  : +0.001842 at state 7 ( [ +0.111111 -0.200000 +0.000000 ] spin 1 )
Dumping 'jdft.Ecomponents' ... done
IonicMinimize: Iter:   0  G: -3958.000291511876640  |grad|_K:  4.664e-04  t[s]:   4535.39

#--- Lowdin population analysis ---
# oxidation-state Cu +0.125 +0.037 +0.077 +0.074 +0.077 +0.075 +0.052 +0.030 +0.193 +0.391 +0.030 +0.052 +0.075 +0.077 +0.074 +0.077 +0.037 +0.125 +0.391 +0.193
# magnetic-moments Cu -0.000 -0.000 -0.000 -0.000 -0.000 -0.000 -0.000 +0.000 -0.000 -0.000 -0.000 -0.000 -0.000 -0.000 -0.000 -0.000 -0.000 -0.000 -0.000 -0.000


Computing DFT-D3 correction:
# coordination-number Cu 6.906 9.101 9.040 9.113 9.134 9.039 9.109 8.323 6.240 4.881 8.323 9.109 9.039 9.135 9.113 9.040 9.101 6.906 4.882 6.241
# diagonal-C6 Cu 175.00 175.00 175.00 175.00 175.00 175.00 175.00 175.00 175.00 175.00 175.00 175.00 175.00 175.00 175.00 175.00 175.00 175.00 175.00 175.00
EvdW_6 =   -0.118573
EvdW_8 =   -0.178335
Shifting auxilliary hamiltonian by 0.000031 to set nElectrons=379.408393

-------- Electronic minimization -----------
	Linear fluid (dielectric constant: 78.4, screening length: 8.12261 Bohr) occupying 0.545505 of unit cell:	Completed after 12 iterations at t[s]:   4567.70
	FillingsUpdate:  mu: -0.208000000  nElectrons: 379.408393  magneticMoment: [ Abs: 0.00000  Tot: -0.00000 ]
ElecMinimize: Iter:   0  G: -3958.000302561226363  |grad|_K:  3.279e-07  alpha:  1.000e+00
	Linear fluid (dielectric constant: 78.4, screening length: 8.12261 Bohr) occupying 0.545506 of unit cell:	Completed after 18 iterations at t[s]:   4636.69
	Linear fluid (dielectric constant: 78.4, screening length: 8.12261 Bohr) occupying 0.545505 of unit cell:	Completed after 19 iterations at t[s]:   4660.91
	FillingsUpdate:  mu: -0.208000000  nElectrons: 379.406569  magneticMoment: [ Abs: 0.00000  Tot: -0.00000 ]
	SubspaceRotationAdjust: set factor to 0.0956
ElecMinimize: Iter:   1  G: -3958.000304134358430  |grad|_K:  1.443e-07  alpha:  6.947e-02  linmin: -4.073e-04  t[s]:   4695.89
	Linear fluid (dielectric constant: 78.4, screening length: 8.12261 Bohr) occupying 0.545505 of unit cell:	Completed after 7 iterations at t[s]:   4724.28
ElecMinimize: 	Predicted alpha/alphaT>3.000000, increasing alphaT to 2.084045e-01.
	Linear fluid (dielectric constant: 78.4, screening length: 8.12261 Bohr) occupying 0.545506 of unit cell:	Completed after 9 iterations at t[s]:   4747.60
	Linear fluid (dielectric constant: 78.4, screening length: 8.12261 Bohr) occupying 0.545506 of unit cell:	Completed after 0 iterations at t[s]:   4769.46
	FillingsUpdate:  mu: -0.208000000  nElectrons: 379.407488  magneticMoment: [ Abs: 0.00000  Tot: -0.00000 ]
	SubspaceRotationAdjust: set factor to 0.0928
ElecMinimize: Iter:   2  G: -3958.000305073539039  |grad|_K:  1.217e-07  alpha:  2.152e-01  linmin: -1.125e-04  t[s]:   4805.06
	Linear fluid (dielectric constant: 78.4, screening length: 8.12261 Bohr) occupying 0.545506 of unit cell:	Completed after 10 iterations at t[s]:   4834.31
	Linear fluid (dielectric constant: 78.4, screening length: 8.12261 Bohr) occupying 0.545506 of unit cell:	Completed after 4 iterations at t[s]:   4857.65
	FillingsUpdate:  mu: -0.208000000  nElectrons: 379.407811  magneticMoment: [ Abs: 0.00000  Tot: -0.00000 ]
	SubspaceRotationAdjust: set factor to 0.106
ElecMinimize: Iter:   3  G: -3958.000305509764530  |grad|_K:  7.255e-08  alpha:  1.397e-01  linmin:  3.048e-05  t[s]:   4894.48
	Linear fluid (dielectric constant: 78.4, screening length: 8.12261 Bohr) occupying 0.545505 of unit cell:	Completed after 7 iterations at t[s]:   4924.49
	Linear fluid (dielectric constant: 78.4, screening length: 8.12261 Bohr) occupying 0.545505 of unit cell:	Completed after 2 iterations at t[s]:   4947.38
	FillingsUpdate:  mu: -0.208000000  nElectrons: 379.407552  magneticMoment: [ Abs: 0.00000  Tot: -0.00000 ]
	SubspaceRotationAdjust: set factor to 0.104
ElecMinimize: Iter:   4  G: -3958.000305737293274  |grad|_K:  5.433e-08  alpha:  2.043e-01  linmin: -3.275e-04  t[s]:   4982.52
	Linear fluid (dielectric constant: 78.4, screening length: 8.12261 Bohr) occupying 0.545505 of unit cell:	Completed after 6 iterations at t[s]:   5011.52
	Linear fluid (dielectric constant: 78.4, screening length: 8.12261 Bohr) occupying 0.545505 of unit cell:	Completed after 1 iterations at t[s]:   5033.59
	FillingsUpdate:  mu: -0.208000000  nElectrons: 379.407806  magneticMoment: [ Abs: 0.00000  Tot: -0.00000 ]
	SubspaceRotationAdjust: set factor to 0.115
ElecMinimize: Iter:   5  G: -3958.000305850835048  |grad|_K:  5.110e-08  alpha:  1.752e-01  linmin:  7.121e-05  t[s]:   5069.64
	Linear fluid (dielectric constant: 78.4, screening length: 8.12261 Bohr) occupying 0.545504 of unit cell:	Completed after 7 iterations at t[s]:   5099.58
	Linear fluid (dielectric constant: 78.4, screening length: 8.12261 Bohr) occupying 0.545504 of unit cell:	Completed after 0 iterations at t[s]:   5121.83
	FillingsUpdate:  mu: -0.208000000  nElectrons: 379.408059  magneticMoment: [ Abs: 0.00000  Tot: -0.00000 ]
	SubspaceRotationAdjust: set factor to 0.125
ElecMinimize: Iter:   6  G: -3958.000305946858589  |grad|_K:  3.698e-08  alpha:  1.835e-01  linmin: -5.085e-05  t[s]:   5158.62
	Linear fluid (dielectric constant: 78.4, screening length: 8.12261 Bohr) occupying 0.545504 of unit cell:	Completed after 6 iterations at t[s]:   5188.10
	Linear fluid (dielectric constant: 78.4, screening length: 8.12261 Bohr) occupying 0.545504 of unit cell:	Completed after 0 iterations at t[s]:   5210.32
	FillingsUpdate:  mu: -0.208000000  nElectrons: 379.407871  magneticMoment: [ Abs: 0.00000  Tot: -0.00000 ]
	SubspaceRotationAdjust: set factor to 0.127
ElecMinimize: Iter:   7  G: -3958.000305993754409  |grad|_K:  3.222e-08  alpha:  1.622e-01  linmin:  8.064e-05  t[s]:   5247.02
ElecMinimize: Converged (|Delta G|<1.000000e-07 for 2 iters).
Setting wave functions to eigenvectors of Hamiltonian
Converging empty states (this may take a while): |deigs|: 7.109e-08

Computing DFT-D3 correction:
# coordination-number Cu 6.906 9.101 9.040 9.113 9.134 9.039 9.109 8.323 6.240 4.881 8.323 9.109 9.039 9.135 9.113 9.040 9.101 6.906 4.882 6.241
# diagonal-C6 Cu 175.00 175.00 175.00 175.00 175.00 175.00 175.00 175.00 175.00 175.00 175.00 175.00 175.00 175.00 175.00 175.00 175.00 175.00 175.00 175.00
EvdW_6 =   -0.118573
EvdW_8 =   -0.178335
IonicMinimize: 	Wolfe criterion not satisfied: alpha: 1  (E-E0)/|gdotd0|: -1.10951  gdotd/gdotd0: 1.12028 (taking cubic step)

Computing DFT-D3 correction:
# coordination-number Cu 6.909 9.101 9.040 9.112 9.135 9.038 9.110 8.323 6.242 4.875 8.323 9.109 9.038 9.135 9.112 9.040 9.101 6.909 4.876 6.243
# diagonal-C6 Cu 175.00 175.00 175.00 175.00 175.00 175.00 175.00 175.00 175.00 175.00 175.00 175.00 175.00 175.00 175.00 175.00 175.00 175.00 175.00 175.00
EvdW_6 =   -0.118571
EvdW_8 =   -0.178328
Shifting auxilliary hamiltonian by 0.000034 to set nElectrons=379.407871

-------- Electronic minimization -----------
	Linear fluid (dielectric constant: 78.4, screening length: 8.12261 Bohr) occupying 0.545480 of unit cell:	Completed after 11 iterations at t[s]:   5365.16
	FillingsUpdate:  mu: -0.208000000  nElectrons: 379.407871  magneticMoment: [ Abs: 0.00000  Tot: +0.00000 ]
ElecMinimize: Iter:   0  G: -3958.000319076421874  |grad|_K:  4.297e-07  alpha:  1.000e+00
	Linear fluid (dielectric constant: 78.4, screening length: 8.12261 Bohr) occupying 0.545479 of unit cell:	Completed after 19 iterations at t[s]:   5436.19
	Linear fluid (dielectric constant: 78.4, screening length: 8.12261 Bohr) occupying 0.545480 of unit cell:	Completed after 19 iterations at t[s]:   5460.53
	FillingsUpdate:  mu: -0.208000000  nElectrons: 379.405795  magneticMoment: [ Abs: 0.00001  Tot: -0.00000 ]
	SubspaceRotationAdjust: set factor to 0.119
ElecMinimize: Iter:   1  G: -3958.000323128100717  |grad|_K:  2.589e-07  alpha:  1.047e-01  linmin: -2.877e-04  t[s]:   5495.37
	Linear fluid (dielectric constant: 78.4, screening length: 8.12261 Bohr) occupying 0.545480 of unit cell:	Completed after 10 iterations at t[s]:   5523.93
	Linear fluid (dielectric constant: 78.4, screening length: 8.12261 Bohr) occupying 0.545479 of unit cell:	Completed after 10 iterations at t[s]:   5546.76
	FillingsUpdate:  mu: -0.208000000  nElectrons: 379.407193  magneticMoment: [ Abs: 0.00000  Tot: -0.00000 ]
	SubspaceRotationAdjust: set factor to 0.0979
ElecMinimize: Iter:   2  G: -3958.000326103818225  |grad|_K:  1.628e-07  alpha:  2.118e-01  linmin: -2.470e-04  t[s]:   5581.71
	Linear fluid (dielectric constant: 78.4, screening length: 8.12261 Bohr) occupying 0.545479 of unit cell:	Completed after 9 iterations at t[s]:   5610.27
	Linear fluid (dielectric constant: 78.4, screening length: 8.12261 Bohr) occupying 0.545479 of unit cell:	Completed after 2 iterations at t[s]:   5632.53
	FillingsUpdate:  mu: -0.208000000  nElectrons: 379.407061  magneticMoment: [ Abs: 0.00000  Tot: -0.00000 ]
	SubspaceRotationAdjust: set factor to 0.101
ElecMinimize: Iter:   3  G: -3958.000326902585130  |grad|_K:  1.175e-07  alpha:  1.433e-01  linmin:  3.985e-04  t[s]:   5668.36
	Linear fluid (dielectric constant: 78.4, screening length: 8.12261 Bohr) occupying 0.545479 of unit cell:	Completed after 2 iterations at t[s]:   5696.59
	Linear fluid (dielectric constant: 78.4, screening length: 8.12261 Bohr) occupying 0.545478 of unit cell:	Completed after 2 iterations at t[s]:   5719.02
	FillingsUpdate:  mu: -0.208000000  nElectrons: 379.407272  magneticMoment: [ Abs: 0.00000  Tot: -0.00000 ]
	SubspaceRotationAdjust: set factor to 0.119
ElecMinimize: Iter:   4  G: -3958.000327542169089  |grad|_K:  8.337e-08  alpha:  2.257e-01  linmin: -8.840e-05  t[s]:   5754.52
	Linear fluid (dielectric constant: 78.4, screening length: 8.12261 Bohr) occupying 0.545478 of unit cell:	Completed after 6 iterations at t[s]:   5783.51
	Linear fluid (dielectric constant: 78.4, screening length: 8.12261 Bohr) occupying 0.545478 of unit cell:	Completed after 0 iterations at t[s]:   5805.67
	FillingsUpdate:  mu: -0.208000000  nElectrons: 379.407452  magneticMoment: [ Abs: 0.00000  Tot: -0.00000 ]
	SubspaceRotationAdjust: set factor to 0.127
ElecMinimize: Iter:   5  G: -3958.000327868131080  |grad|_K:  7.639e-08  alpha:  2.263e-01  linmin: -7.695e-04  t[s]:   5842.51
	Linear fluid (dielectric constant: 78.4, screening length: 8.12261 Bohr) occupying 0.545477 of unit cell:	Completed after 6 iterations at t[s]:   5871.71
	Linear fluid (dielectric constant: 78.4, screening length: 8.12261 Bohr) occupying 0.545477 of unit cell:	Completed after 2 iterations at t[s]:   5894.02
	FillingsUpdate:  mu: -0.208000000  nElectrons: 379.407388  magneticMoment: [ Abs: 0.00000  Tot: -0.00000 ]
	SubspaceRotationAdjust: set factor to 0.152
ElecMinimize: Iter:   6  G: -3958.000328058742980  |grad|_K:  4.774e-08  alpha:  1.541e-01  linmin:  3.013e-04  t[s]:   5930.52
	Linear fluid (dielectric constant: 78.4, screening length: 8.12261 Bohr) occupying 0.545477 of unit cell:	Completed after 2 iterations at t[s]:   5959.27
	Linear fluid (dielectric constant: 78.4, screening length: 8.12261 Bohr) occupying 0.545477 of unit cell:	Completed after 2 iterations at t[s]:   5981.62
	FillingsUpdate:  mu: -0.208000000  nElectrons: 379.407449  magneticMoment: [ Abs: 0.00000  Tot: -0.00000 ]
	SubspaceRotationAdjust: set factor to 0.171
ElecMinimize: Iter:   7  G: -3958.000328191007156  |grad|_K:  6.381e-08  alpha:  2.827e-01  linmin: -8.715e-05  t[s]:   6017.10
	Linear fluid (dielectric constant: 78.4, screening length: 8.12261 Bohr) occupying 0.545475 of unit cell:	Completed after 3 iterations at t[s]:   6044.89
	Linear fluid (dielectric constant: 78.4, screening length: 8.12261 Bohr) occupying 0.545476 of unit cell:	Completed after 2 iterations at t[s]:   6067.54
	FillingsUpdate:  mu: -0.208000000  nElectrons: 379.407427  magneticMoment: [ Abs: 0.00000  Tot: -0.00000 ]
	SubspaceRotationAdjust: set factor to 0.213
ElecMinimize: Iter:   8  G: -3958.000328360321873  |grad|_K:  4.369e-08  alpha:  2.004e-01  linmin:  7.700e-06  t[s]:   6103.03
	Linear fluid (dielectric constant: 78.4, screening length: 8.12261 Bohr) occupying 0.545475 of unit cell:	Completed after 2 iterations at t[s]:   6131.75
	Linear fluid (dielectric constant: 78.4, screening length: 8.12261 Bohr) occupying 0.545475 of unit cell:	Completed after 0 iterations at t[s]:   6154.30
	FillingsUpdate:  mu: -0.208000000  nElectrons: 379.407371  magneticMoment: [ Abs: 0.00000  Tot: -0.00000 ]
	SubspaceRotationAdjust: set factor to 0.244
ElecMinimize: Iter:   9  G: -3958.000328433979575  |grad|_K:  5.135e-08  alpha:  1.863e-01  linmin:  1.593e-04  t[s]:   6191.19
	Linear fluid (dielectric constant: 78.4, screening length: 8.12261 Bohr) occupying 0.545475 of unit cell:	Completed after 2 iterations at t[s]:   6219.97
	Linear fluid (dielectric constant: 78.4, screening length: 8.12261 Bohr) occupying 0.545475 of unit cell:	Completed after 1 iterations at t[s]:   6241.46
	FillingsUpdate:  mu: -0.208000000  nElectrons: 379.407382  magneticMoment: [ Abs: 0.00000  Tot: +0.00000 ]
	SubspaceRotationAdjust: set factor to 0.278
ElecMinimize: Iter:  10  G: -3958.000328612619796  |grad|_K:  4.992e-08  alpha:  3.294e-01  linmin: -1.432e-04  t[s]:   6277.33
	Linear fluid (dielectric constant: 78.4, screening length: 8.12261 Bohr) occupying 0.545476 of unit cell:	Completed after 7 iterations at t[s]:   6305.54
	Linear fluid (dielectric constant: 78.4, screening length: 8.12261 Bohr) occupying 0.545475 of unit cell:	Completed after 2 iterations at t[s]:   6327.34
	FillingsUpdate:  mu: -0.208000000  nElectrons: 379.407480  magneticMoment: [ Abs: 0.00000  Tot: +0.00000 ]
	SubspaceRotationAdjust: set factor to 0.283
ElecMinimize: Iter:  11  G: -3958.000328700130467  |grad|_K:  4.896e-08  alpha:  1.629e-01  linmin:  1.439e-04  t[s]:   6362.32
	Linear fluid (dielectric constant: 78.4, screening length: 8.12261 Bohr) occupying 0.545476 of unit cell:	Completed after 9 iterations at t[s]:   6390.80
	Linear fluid (dielectric constant: 78.4, screening length: 8.12261 Bohr) occupying 0.545476 of unit cell:	Completed after 6 iterations at t[s]:   6413.33
	FillingsUpdate:  mu: -0.208000000  nElectrons: 379.407178  magneticMoment: [ Abs: 0.00000  Tot: +0.00000 ]
	SubspaceRotationAdjust: set factor to 0.218
ElecMinimize: Iter:  12  G: -3958.000328741652083  |grad|_K:  6.243e-08  alpha:  9.271e-02  linmin: -8.087e-06  t[s]:   6449.32
ElecMinimize: Converged (|Delta G|<1.000000e-07 for 2 iters).
Setting wave functions to eigenvectors of Hamiltonian
Converging empty states (this may take a while): |deigs|: 7.367e-09

Computing DFT-D3 correction:
# coordination-number Cu 6.909 9.101 9.040 9.112 9.135 9.038 9.110 8.323 6.242 4.875 8.323 9.109 9.038 9.135 9.112 9.040 9.101 6.909 4.876 6.243
# diagonal-C6 Cu 175.00 175.00 175.00 175.00 175.00 175.00 175.00 175.00 175.00 175.00 175.00 175.00 175.00 175.00 175.00 175.00 175.00 175.00 175.00 175.00
EvdW_6 =   -0.118571
EvdW_8 =   -0.178328
IonicMinimize: 	Wolfe criterion not satisfied: alpha: 2.67012  (E-E0)/|gdotd0|: -2.85232  gdotd/gdotd0: 1.02605 (taking cubic step)

Computing DFT-D3 correction:
# coordination-number Cu 6.914 9.100 9.040 9.110 9.135 9.037 9.112 8.324 6.247 4.863 8.322 9.110 9.036 9.134 9.111 9.042 9.102 6.915 4.864 6.246
# diagonal-C6 Cu 175.00 175.00 175.00 175.00 175.00 175.00 175.00 175.00 175.00 175.00 175.00 175.00 175.00 175.00 175.00 175.00 175.00 175.00 175.00 175.00
EvdW_6 =   -0.118568
EvdW_8 =   -0.178313
Shifting auxilliary hamiltonian by 0.000118 to set nElectrons=379.407178

-------- Electronic minimization -----------
	Linear fluid (dielectric constant: 78.4, screening length: 8.12261 Bohr) occupying 0.545439 of unit cell:	Completed after 14 iterations at t[s]:   6565.99
	FillingsUpdate:  mu: -0.208000000  nElectrons: 379.407178  magneticMoment: [ Abs: 0.00003  Tot: +0.00002 ]
ElecMinimize: Iter:   0  G: -3958.000337287498951  |grad|_K:  8.944e-07  alpha:  1.000e+00
	Linear fluid (dielectric constant: 78.4, screening length: 8.12261 Bohr) occupying 0.545445 of unit cell:	Completed after 20 iterations at t[s]:   6636.92
	Linear fluid (dielectric constant: 78.4, screening length: 8.12261 Bohr) occupying 0.545439 of unit cell:	Completed after 19 iterations at t[s]:   6661.34
	FillingsUpdate:  mu: -0.208000000  nElectrons: 379.402667  magneticMoment: [ Abs: 0.00003  Tot: +0.00002 ]
	SubspaceRotationAdjust: set factor to 0.121
ElecMinimize: Iter:   1  G: -3958.000346590285972  |grad|_K:  4.768e-07  alpha:  5.532e-02  linmin: -5.780e-04  t[s]:   6698.34
	Linear fluid (dielectric constant: 78.4, screening length: 8.12261 Bohr) occupying 0.545439 of unit cell:	Completed after 10 iterations at t[s]:   6728.55
	Linear fluid (dielectric constant: 78.4, screening length: 8.12261 Bohr) occupying 0.545439 of unit cell:	Completed after 10 iterations at t[s]:   6752.63
	FillingsUpdate:  mu: -0.208000000  nElectrons: 379.405356  magneticMoment: [ Abs: 0.00003  Tot: +0.00002 ]
	SubspaceRotationAdjust: set factor to 0.11
ElecMinimize: Iter:   2  G: -3958.000353709426690  |grad|_K:  4.102e-07  alpha:  1.486e-01  linmin: -1.305e-04  t[s]:   6788.59
	Linear fluid (dielectric constant: 78.4, screening length: 8.12261 Bohr) occupying 0.545438 of unit cell:	Completed after 10 iterations at t[s]:   6817.49
	Linear fluid (dielectric constant: 78.4, screening length: 8.12261 Bohr) occupying 0.545438 of unit cell:	Completed after 6 iterations at t[s]:   6840.07
	FillingsUpdate:  mu: -0.208000000  nElectrons: 379.406757  magneticMoment: [ Abs: 0.00003  Tot: +0.00001 ]
	SubspaceRotationAdjust: set factor to 0.128
ElecMinimize: Iter:   3  G: -3958.000360170739441  |grad|_K:  2.651e-07  alpha:  1.847e-01  linmin:  6.711e-06  t[s]:   6875.08
	Linear fluid (dielectric constant: 78.4, screening length: 8.12261 Bohr) occupying 0.545436 of unit cell:	Completed after 11 iterations at t[s]:   6903.92
	Linear fluid (dielectric constant: 78.4, screening length: 8.12261 Bohr) occupying 0.545436 of unit cell:	Completed after 6 iterations at t[s]:   6926.18
	FillingsUpdate:  mu: -0.208000000  nElectrons: 379.405368  magneticMoment: [ Abs: 0.00009  Tot: +0.00002 ]
	SubspaceRotationAdjust: set factor to 0.0982
ElecMinimize: Iter:   4  G: -3958.000362447342013  |grad|_K:  1.998e-07  alpha:  1.562e-01  linmin:  3.420e-04  t[s]:   6961.85
	Linear fluid (dielectric constant: 78.4, screening length: 8.12261 Bohr) occupying 0.545435 of unit cell:	Completed after 10 iterations at t[s]:   6991.39
	Linear fluid (dielectric constant: 78.4, screening length: 8.12261 Bohr) occupying 0.545435 of unit cell:	Completed after 2 iterations at t[s]:   7013.16
	FillingsUpdate:  mu: -0.208000000  nElectrons: 379.406290  magneticMoment: [ Abs: 0.00011  Tot: +0.00001 ]
	SubspaceRotationAdjust: set factor to 0.0947
ElecMinimize: Iter:   5  G: -3958.000363608688076  |grad|_K:  1.322e-07  alpha:  1.416e-01  linmin:  1.286e-04  t[s]:   7049.31
	Linear fluid (dielectric constant: 78.4, screening length: 8.12261 Bohr) occupying 0.545434 of unit cell:	Completed after 2 iterations at t[s]:   7077.78
	Linear fluid (dielectric constant: 78.4, screening length: 8.12261 Bohr) occupying 0.545432 of unit cell:	Completed after 2 iterations at t[s]:   7099.80
	FillingsUpdate:  mu: -0.208000000  nElectrons: 379.406385  magneticMoment: [ Abs: 0.00004  Tot: +0.00001 ]
	SubspaceRotationAdjust: set factor to 0.104
ElecMinimize: Iter:   6  G: -3958.000364608691143  |grad|_K:  1.486e-07  alpha:  2.783e-01  linmin:  1.822e-04  t[s]:   7135.63
	Linear fluid (dielectric constant: 78.4, screening length: 8.12261 Bohr) occupying 0.545429 of unit cell:	Completed after 8 iterations at t[s]:   7164.64
	Linear fluid (dielectric constant: 78.4, screening length: 8.12261 Bohr) occupying 0.545430 of unit cell:	Completed after 7 iterations at t[s]:   7188.36
	FillingsUpdate:  mu: -0.208000000  nElectrons: 379.406071  magneticMoment: [ Abs: 0.00008  Tot: +0.00001 ]
	SubspaceRotationAdjust: set factor to 0.128
ElecMinimize: Iter:   7  G: -3958.000365302024420  |grad|_K:  7.688e-08  alpha:  1.537e-01  linmin: -4.787e-06  t[s]:   7225.12
	Linear fluid (dielectric constant: 78.4, screening length: 8.12261 Bohr) occupying 0.545430 of unit cell:	Completed after 2 iterations at t[s]:   7254.44
	Linear fluid (dielectric constant: 78.4, screening length: 8.12261 Bohr) occupying 0.545429 of unit cell:	Completed after 2 iterations at t[s]:   7277.69
	FillingsUpdate:  mu: -0.208000000  nElectrons: 379.405922  magneticMoment: [ Abs: 0.00004  Tot: +0.00001 ]
	SubspaceRotationAdjust: set factor to 0.145
ElecMinimize: Iter:   8  G: -3958.000365603098999  |grad|_K:  1.003e-07  alpha:  2.469e-01  linmin:  7.337e-05  t[s]:   7312.60
	Linear fluid (dielectric constant: 78.4, screening length: 8.12261 Bohr) occupying 0.545427 of unit cell:	Completed after 7 iterations at t[s]:   7341.64
	Linear fluid (dielectric constant: 78.4, screening length: 8.12261 Bohr) occupying 0.545427 of unit cell:	Completed after 0 iterations at t[s]:   7363.12
	FillingsUpdate:  mu: -0.208000000  nElectrons: 379.405868  magneticMoment: [ Abs: 0.00018  Tot: +0.00001 ]
	SubspaceRotationAdjust: set factor to 0.175
ElecMinimize: Iter:   9  G: -3958.000366159168152  |grad|_K:  7.857e-08  alpha:  2.677e-01  linmin: -4.662e-04  t[s]:   7398.45
	Linear fluid (dielectric constant: 78.4, screening length: 8.12261 Bohr) occupying 0.545427 of unit cell:	Completed after 9 iterations at t[s]:   7427.19
	Linear fluid (dielectric constant: 78.4, screening length: 8.12261 Bohr) occupying 0.545427 of unit cell:	Completed after 6 iterations at t[s]:   7449.64
	FillingsUpdate:  mu: -0.208000000  nElectrons: 379.406346  magneticMoment: [ Abs: 0.00006  Tot: +0.00001 ]
	SubspaceRotationAdjust: set factor to 0.175
ElecMinimize: Iter:  10  G: -3958.000366403546195  |grad|_K:  9.983e-08  alpha:  1.857e-01  linmin:  2.129e-04  t[s]:   7485.56
	Linear fluid (dielectric constant: 78.4, screening length: 8.12261 Bohr) occupying 0.545427 of unit cell:	Completed after 10 iterations at t[s]:   7514.39
	Linear fluid (dielectric constant: 78.4, screening length: 8.12261 Bohr) occupying 0.545427 of unit cell:	Completed after 0 iterations at t[s]:   7536.83
	FillingsUpdate:  mu: -0.208000000  nElectrons: 379.405775  magneticMoment: [ Abs: 0.00019  Tot: +0.00001 ]
	SubspaceRotationAdjust: set factor to 0.154
ElecMinimize: Iter:  11  G: -3958.000366787987332  |grad|_K:  9.280e-08  alpha:  1.893e-01  linmin: -1.369e-04  t[s]:   7573.20
	Linear fluid (dielectric constant: 78.4, screening length: 8.12261 Bohr) occupying 0.545427 of unit cell:	Completed after 7 iterations at t[s]:   7601.67
	Linear fluid (dielectric constant: 78.4, screening length: 8.12261 Bohr) occupying 0.545427 of unit cell:	Completed after 0 iterations at t[s]:   7623.90
	FillingsUpdate:  mu: -0.208000000  nElectrons: 379.406026  magneticMoment: [ Abs: 0.00019  Tot: +0.00000 ]
	SubspaceRotationAdjust: set factor to 0.154
ElecMinimize: Iter:  12  G: -3958.000367115713289  |grad|_K:  9.265e-08  alpha:  1.808e-01  linmin:  6.445e-05  t[s]:   7659.69
	Linear fluid (dielectric constant: 78.4, screening length: 8.12261 Bohr) occupying 0.545429 of unit cell:	Completed after 2 iterations at t[s]:   7688.37
	Linear fluid (dielectric constant: 78.4, screening length: 8.12261 Bohr) occupying 0.545429 of unit cell:	Completed after 0 iterations at t[s]:   7710.85
	FillingsUpdate:  mu: -0.208000000  nElectrons: 379.406035  magneticMoment: [ Abs: 0.00010  Tot: +0.00000 ]
	SubspaceRotationAdjust: set factor to 0.171
ElecMinimize: Iter:  13  G: -3958.000367485560673  |grad|_K:  7.741e-08  alpha:  2.088e-01  linmin: -1.816e-04  t[s]:   7747.94
	Linear fluid (dielectric constant: 78.4, screening length: 8.12261 Bohr) occupying 0.545431 of unit cell:	Completed after 7 iterations at t[s]:   7777.29
	Linear fluid (dielectric constant: 78.4, screening length: 8.12261 Bohr) occupying 0.545431 of unit cell:	Completed after 2 iterations at t[s]:   7799.12
	FillingsUpdate:  mu: -0.208000000  nElectrons: 379.405786  magneticMoment: [ Abs: 0.00023  Tot: +0.00001 ]
	SubspaceRotationAdjust: set factor to 0.169
ElecMinimize: Iter:  14  G: -3958.000367680391719  |grad|_K:  6.478e-08  alpha:  1.528e-01  linmin:  1.770e-04  t[s]:   7834.41
	Linear fluid (dielectric constant: 78.4, screening length: 8.12261 Bohr) occupying 0.545432 of unit cell:	Completed after 8 iterations at t[s]:   7862.75
	Linear fluid (dielectric constant: 78.4, screening length: 8.12261 Bohr) occupying 0.545432 of unit cell:	Completed after 0 iterations at t[s]:   7883.93
	FillingsUpdate:  mu: -0.208000000  nElectrons: 379.406045  magneticMoment: [ Abs: 0.00011  Tot: +0.00001 ]
	SubspaceRotationAdjust: set factor to 0.139
ElecMinimize: Iter:  15  G: -3958.000367827341051  |grad|_K:  5.430e-08  alpha:  1.710e-01  linmin: -6.141e-04  t[s]:   7918.97
	Linear fluid (dielectric constant: 78.4, screening length: 8.12261 Bohr) occupying 0.545434 of unit cell:	Completed after 6 iterations at t[s]:   7947.15
	Linear fluid (dielectric constant: 78.4, screening length: 8.12261 Bohr) occupying 0.545433 of unit cell:	Completed after 2 iterations at t[s]:   7969.44
	FillingsUpdate:  mu: -0.208000000  nElectrons: 379.405829  magneticMoment: [ Abs: 0.00004  Tot: +0.00001 ]
	SubspaceRotationAdjust: set factor to 0.125
ElecMinimize: Iter:  16  G: -3958.000367908268800  |grad|_K:  3.606e-08  alpha:  1.239e-01  linmin:  5.180e-04  t[s]:   8004.82
	Linear fluid (dielectric constant: 78.4, screening length: 8.12261 Bohr) occupying 0.545434 of unit cell:	Completed after 2 iterations at t[s]:   8033.26
	Linear fluid (dielectric constant: 78.4, screening length: 8.12261 Bohr) occupying 0.545434 of unit cell:	Completed after 2 iterations at t[s]:   8055.95
	FillingsUpdate:  mu: -0.208000000  nElectrons: 379.405809  magneticMoment: [ Abs: 0.00007  Tot: +0.00001 ]
[...]
Dumping 'jdft.Ecomponents' ... done
IonicMinimize: Iter:   3  G: -3958.000486104518131  |grad|_K:  1.980e-04  alpha:  1.000e+00  linmin:  5.235e-01  t[s]:  15984.39

#--- Lowdin population analysis ---
# oxidation-state Cu +0.121 +0.037 +0.077 +0.075 +0.077 +0.076 +0.052 +0.030 +0.192 +0.402 +0.030 +0.052 +0.076 +0.077 +0.075 +0.077 +0.036 +0.121 +0.402 +0.192
# magnetic-moments Cu -0.000 -0.000 -0.000 -0.000 -0.000 -0.000 -0.000 -0.000 -0.000 -0.000 -0.000 -0.000 -0.000 -0.000 -0.000 -0.000 -0.000 -0.000 -0.000 -0.000


Computing DFT-D3 correction:
# coordination-number Cu 6.944 9.093 9.045 9.099 9.136 9.029 9.114 8.321 6.236 4.799 8.320 9.112 9.027 9.136 9.100 9.047 9.095 6.945 4.801 6.235
# diagonal-C6 Cu 175.00 175.00 175.00 175.00 175.00 175.00 175.00 175.00 175.00 175.00 175.00 175.00 175.00 175.00 175.00 175.00 175.00 175.00 175.00 175.00
EvdW_6 =   -0.118534
EvdW_8 =   -0.178198
Shifting auxilliary hamiltonian by -0.000007 to set nElectrons=379.396205

-------- Electronic minimization -----------
	Linear fluid (dielectric constant: 78.4, screening length: 8.12261 Bohr) occupying 0.545065 of unit cell:	Completed after 8 iterations at t[s]:  16017.26
	FillingsUpdate:  mu: -0.208000000  nElectrons: 379.396205  magneticMoment: [ Abs: 0.00044  Tot: +0.00004 ]
ElecMinimize: Iter:   0  G: -3958.000475263829230  |grad|_K:  4.773e-07  alpha:  1.000e+00
	Linear fluid (dielectric constant: 78.4, screening length: 8.12261 Bohr) occupying 0.545060 of unit cell:	Completed after 14 iterations at t[s]:  16086.33
	Linear fluid (dielectric constant: 78.4, screening length: 8.12261 Bohr) occupying 0.545064 of unit cell:	Completed after 14 iterations at t[s]:  16110.25
	FillingsUpdate:  mu: -0.208000000  nElectrons: 379.396010  magneticMoment: [ Abs: 0.00044  Tot: +0.00004 ]
	SubspaceRotationAdjust: set factor to 0.112
ElecMinimize: Iter:   1  G: -3958.000481518715787  |grad|_K:  3.316e-07  alpha:  1.325e-01  linmin: -2.194e-05  t[s]:  16145.70
	Linear fluid (dielectric constant: 78.4, screening length: 8.12261 Bohr) occupying 0.545064 of unit cell:	Completed after 7 iterations at t[s]:  16174.06
	Linear fluid (dielectric constant: 78.4, screening length: 8.12261 Bohr) occupying 0.545063 of unit cell:	Completed after 7 iterations at t[s]:  16196.65
	FillingsUpdate:  mu: -0.208000000  nElectrons: 379.396432  magneticMoment: [ Abs: 0.00025  Tot: +0.00003 ]
	SubspaceRotationAdjust: set factor to 0.115
ElecMinimize: Iter:   2  G: -3958.000487349081141  |grad|_K:  2.361e-07  alpha:  2.557e-01  linmin: -1.676e-04  t[s]:  16231.99
	Linear fluid (dielectric constant: 78.4, screening length: 8.12261 Bohr) occupying 0.545062 of unit cell:	Completed after 10 iterations at t[s]:  16261.37
	Linear fluid (dielectric constant: 78.4, screening length: 8.12261 Bohr) occupying 0.545062 of unit cell:	Completed after 2 iterations at t[s]:  16283.80
	FillingsUpdate:  mu: -0.208000000  nElectrons: 379.396165  magneticMoment: [ Abs: 0.00012  Tot: +0.00003 ]
	SubspaceRotationAdjust: set factor to 0.118
ElecMinimize: Iter:   3  G: -3958.000489541350362  |grad|_K:  1.745e-07  alpha:  1.893e-01  linmin:  2.383e-04  t[s]:  16319.02
	Linear fluid (dielectric constant: 78.4, screening length: 8.12261 Bohr) occupying 0.545062 of unit cell:	Completed after 9 iterations at t[s]:  16348.36
	Linear fluid (dielectric constant: 78.4, screening length: 8.12261 Bohr) occupying 0.545062 of unit cell:	Completed after 2 iterations at t[s]:  16371.35
	FillingsUpdate:  mu: -0.208000000  nElectrons: 379.396503  magneticMoment: [ Abs: 0.00012  Tot: +0.00003 ]
	SubspaceRotationAdjust: set factor to 0.123
ElecMinimize: Iter:   4  G: -3958.000490358563184  |grad|_K:  1.083e-07  alpha:  1.307e-01  linmin:  1.872e-04  t[s]:  16408.18
	Linear fluid (dielectric constant: 78.4, screening length: 8.12261 Bohr) occupying 0.545062 of unit cell:	Completed after 8 iterations at t[s]:  16438.02
	Linear fluid (dielectric constant: 78.4, screening length: 8.12261 Bohr) occupying 0.545061 of unit cell:	Completed after 7 iterations at t[s]:  16460.13
	FillingsUpdate:  mu: -0.208000000  nElectrons: 379.395870  magneticMoment: [ Abs: 0.00008  Tot: +0.00002 ]
	SubspaceRotationAdjust: set factor to 0.117
ElecMinimize: Iter:   5  G: -3958.000490987651119  |grad|_K:  1.315e-07  alpha:  2.481e-01  linmin: -1.566e-03  t[s]:  16495.45
	Linear fluid (dielectric constant: 78.4, screening length: 8.12261 Bohr) occupying 0.545060 of unit cell:	Completed after 10 iterations at t[s]:  16524.02
	Linear fluid (dielectric constant: 78.4, screening length: 8.12261 Bohr) occupying 0.545060 of unit cell:	Completed after 7 iterations at t[s]:  16546.28
	FillingsUpdate:  mu: -0.208000000  nElectrons: 379.396423  magneticMoment: [ Abs: 0.00006  Tot: +0.00002 ]
	SubspaceRotationAdjust: set factor to 0.111
ElecMinimize: Iter:   6  G: -3958.000491703840908  |grad|_K:  7.984e-08  alpha:  1.867e-01  linmin:  6.069e-05  t[s]:  16581.18
	Linear fluid (dielectric constant: 78.4, screening length: 8.12261 Bohr) occupying 0.545060 of unit cell:	Completed after 7 iterations at t[s]:  16609.33
	Linear fluid (dielectric constant: 78.4, screening length: 8.12261 Bohr) occupying 0.545060 of unit cell:	Completed after 0 iterations at t[s]:  16630.71
	FillingsUpdate:  mu: -0.208000000  nElectrons: 379.396220  magneticMoment: [ Abs: 0.00007  Tot: +0.00002 ]
	SubspaceRotationAdjust: set factor to 0.128
ElecMinimize: Iter:   7  G: -3958.000491937755214  |grad|_K:  8.184e-08  alpha:  1.778e-01  linmin:  1.588e-04  t[s]:  16666.45
	Linear fluid (dielectric constant: 78.4, screening length: 8.12261 Bohr) occupying 0.545059 of unit cell:	Completed after 2 iterations at t[s]:  16694.80
	Linear fluid (dielectric constant: 78.4, screening length: 8.12261 Bohr) occupying 0.545059 of unit cell:	Completed after 2 iterations at t[s]:  16716.64
	FillingsUpdate:  mu: -0.208000000  nElectrons: 379.396105  magneticMoment: [ Abs: 0.00005  Tot: +0.00001 ]
	SubspaceRotationAdjust: set factor to 0.149
ElecMinimize: Iter:   8  G: -3958.000492410747029  |grad|_K:  7.946e-08  alpha:  3.435e-01  linmin: -7.452e-05  t[s]:  16752.70
	Linear fluid (dielectric constant: 78.4, screening length: 8.12261 Bohr) occupying 0.545058 of unit cell:	Completed after 10 iterations at t[s]:  16782.57
	Linear fluid (dielectric constant: 78.4, screening length: 8.12261 Bohr) occupying 0.545058 of unit cell:	Completed after 7 iterations at t[s]:  16806.08
	FillingsUpdate:  mu: -0.208000000  nElectrons: 379.396487  magneticMoment: [ Abs: 0.00038  Tot: -0.00002 ]
	SubspaceRotationAdjust: set factor to 0.152
ElecMinimize: Iter:   9  G: -3958.000492645012400  |grad|_K:  7.667e-08  alpha:  1.773e-01  linmin:  4.159e-05  t[s]:  16843.08
	Linear fluid (dielectric constant: 78.4, screening length: 8.12261 Bohr) occupying 0.545058 of unit cell:	Completed after 7 iterations at t[s]:  16872.12
	Linear fluid (dielectric constant: 78.4, screening length: 8.12261 Bohr) occupying 0.545058 of unit cell:	Completed after 2 iterations at t[s]:  16893.73
	FillingsUpdate:  mu: -0.208000000  nElectrons: 379.396158  magneticMoment: [ Abs: 0.00045  Tot: -0.00005 ]
	SubspaceRotationAdjust: set factor to 0.153
ElecMinimize: Iter:  10  G: -3958.000492973084420  |grad|_K:  7.829e-08  alpha:  2.683e-01  linmin: -1.882e-04  t[s]:  16929.15
	Linear fluid (dielectric constant: 78.4, screening length: 8.12261 Bohr) occupying 0.545057 of unit cell:	Completed after 6 iterations at t[s]:  16957.06
	Linear fluid (dielectric constant: 78.4, screening length: 8.12261 Bohr) occupying 0.545057 of unit cell:	Completed after 2 iterations at t[s]:  16978.78
	FillingsUpdate:  mu: -0.208000000  nElectrons: 379.396428  magneticMoment: [ Abs: 0.00014  Tot: -0.00008 ]
	SubspaceRotationAdjust: set factor to 0.153
ElecMinimize: Iter:  11  G: -3958.000493262985856  |grad|_K:  8.232e-08  alpha:  2.231e-01  linmin:  6.330e-05  t[s]:  17013.61
	Linear fluid (dielectric constant: 78.4, screening length: 8.12261 Bohr) occupying 0.545057 of unit cell:	Completed after 2 iterations at t[s]:  17041.21
	Linear fluid (dielectric constant: 78.4, screening length: 8.12261 Bohr) occupying 0.545057 of unit cell:	Completed after 0 iterations at t[s]:  17062.56
	FillingsUpdate:  mu: -0.208000000  nElectrons: 379.396416  magneticMoment: [ Abs: 0.00038  Tot: -0.00010 ]
	SubspaceRotationAdjust: set factor to 0.163
ElecMinimize: Iter:  12  G: -3958.000493559191909  |grad|_K:  6.210e-08  alpha:  2.134e-01  linmin:  3.150e-05  t[s]:  17098.29
	Linear fluid (dielectric constant: 78.4, screening length: 8.12261 Bohr) occupying 0.545057 of unit cell:	Completed after 3 iterations at t[s]:  17126.97
	Linear fluid (dielectric constant: 78.4, screening length: 8.12261 Bohr) occupying 0.545057 of unit cell:	Completed after 2 iterations at t[s]:  17149.13
	FillingsUpdate:  mu: -0.208000000  nElectrons: 379.396305  magneticMoment: [ Abs: 0.00025  Tot: -0.00011 ]
	SubspaceRotationAdjust: set factor to 0.166
ElecMinimize: Iter:  13  G: -3958.000493691789870  |grad|_K:  6.047e-08  alpha:  1.694e-01  linmin:  1.177e-04  t[s]:  17184.60
	Linear fluid (dielectric constant: 78.4, screening length: 8.12261 Bohr) occupying 0.545057 of unit cell:	Completed after 3 iterations at t[s]:  17213.48
	Linear fluid (dielectric constant: 78.4, screening length: 8.12261 Bohr) occupying 0.545057 of unit cell:	Completed after 0 iterations at t[s]:  17236.37
	FillingsUpdate:  mu: -0.208000000  nElectrons: 379.396483  magneticMoment: [ Abs: 0.00036  Tot: -0.00011 ]
	SubspaceRotationAdjust: set factor to 0.163
ElecMinimize: Iter:  14  G: -3958.000493819722578  |grad|_K:  4.569e-08  alpha:  1.712e-01  linmin: -3.962e-04  t[s]:  17273.23
	Linear fluid (dielectric constant: 78.4, screening length: 8.12261 Bohr) occupying 0.545057 of unit cell:	Completed after 2 iterations at t[s]:  17300.98
	Linear fluid (dielectric constant: 78.4, screening length: 8.12261 Bohr) occupying 0.545057 of unit cell:	Completed after 1 iterations at t[s]:  17322.69
	FillingsUpdate:  mu: -0.208000000  nElectrons: 379.396519  magneticMoment: [ Abs: 0.00036  Tot: -0.00011 ]
	SubspaceRotationAdjust: set factor to 0.169
ElecMinimize: Iter:  15  G: -3958.000493865045883  |grad|_K:  3.327e-08  alpha:  1.101e-01  linmin: -7.924e-04  t[s]:  17358.29
	Linear fluid (dielectric constant: 78.4, screening length: 8.12261 Bohr) occupying 0.545057 of unit cell:	Completed after 2 iterations at t[s]:  17385.82
	Linear fluid (dielectric constant: 78.4, screening length: 8.12261 Bohr) occupying 0.545057 of unit cell:	Completed after 3 iterations at t[s]:  17407.78
	FillingsUpdate:  mu: -0.208000000  nElectrons: 379.396307  magneticMoment: [ Abs: 0.00012  Tot: -0.00011 ]
	SubspaceRotationAdjust: set factor to 0.145
ElecMinimize: Iter:  16  G: -3958.000493905686653  |grad|_K:  3.389e-08  alpha:  1.779e-01  linmin:  9.341e-04  t[s]:  17442.64
ElecMinimize: Converged (|Delta G|<1.000000e-07 for 2 iters).
Setting wave functions to eigenvectors of Hamiltonian
Converging empty states (this may take a while): |deigs|: 4.907e-09

Computing DFT-D3 correction:
# coordination-number Cu 6.944 9.093 9.045 9.099 9.136 9.029 9.114 8.321 6.236 4.799 8.320 9.112 9.027 9.136 9.100 9.047 9.095 6.945 4.801 6.235
# diagonal-C6 Cu 175.00 175.00 175.00 175.00 175.00 175.00 175.00 175.00 175.00 175.00 175.00 175.00 175.00 175.00 175.00 175.00 175.00 175.00 175.00 175.00
EvdW_6 =   -0.118534
EvdW_8 =   -0.178198

# Ionic positions in cartesian coordinates:
ion Cu   0.000093997293106   4.254076537705925  18.693774016026289 1
ion Cu   0.000034930740786   8.514273596752020  16.563948406946828 1
ion Cu   0.000022427081396   2.113455197198618  14.382683669682965 1
ion Cu  -0.000015006521655   6.408006030716373  12.280414007302488 1
ion Cu   0.000004179572230  10.653979069607955  10.118974685247920 1
ion Cu  -0.000006459503919   4.271014270028228   7.995299089890734 1
ion Cu  -0.000024950526833   8.562601097289773   5.849408550822803 1
ion Cu  -0.000015923316411   2.099345844927817   3.633061454488637 1
ion Cu  -0.000059549107056   6.437901950857045   1.631299974212429 1
ion Cu   0.000022679071654  -0.033998124266668  20.723346816979454 1
ion Cu   3.370600624197176   1.098079787371855  17.684324727544350 1
ion Cu   3.370534109952284   5.293278391822747  15.467405772695663 1
ion Cu   3.370503622984852   9.585142403331645  13.321273100758084 1
ion Cu   3.370488055615784   3.202165033852776  11.197131224239296 1
ion Cu   3.370508491254763   7.448155229420661   9.036249426776889 1
ion Cu   3.370492084699254   1.083961547969859   6.933802208682147 1
ion Cu   3.370467420549189   5.342020466939167   4.753382201327456 1
ion Cu   3.370444745321143   9.601952605940603   2.623341261176845 1
ion Cu   3.370476727846681   3.231562642853986   0.594800910231395 1
ion Cu   3.370556792795574   7.417962419679610  19.686068494967316 1

# Forces in Cartesian coordinates:
force Cu  -0.000001116652758  -0.000065125581795   0.000005918275672 1
force Cu  -0.000000145168200  -0.000105139237073   0.000047342084732 1
force Cu   0.000000122815881  -0.000093366004557   0.000124670034489 1
force Cu   0.000000052589150  -0.000057778136176   0.000097750138245 1
force Cu  -0.000000385506018  -0.000018006963126   0.000063078364912 1
force Cu  -0.000000417968243   0.000022013824157  -0.000095989414551 1
force Cu   0.000000046094351   0.000101248033000  -0.000058000908210 1
force Cu  -0.000001925302451   0.000017880748654  -0.000090194491968 1
force Cu   0.000000346076517   0.000221274748689  -0.000303146826619 1
force Cu   0.000000964100723  -0.000097527607174   0.000142777878222 1
force Cu   0.000000310938543  -0.000010569826695   0.000051936369484 1
force Cu   0.000001287396671  -0.000096818639549   0.000103684357022 1
force Cu   0.000000619741903  -0.000019962886647   0.000202057518012 1
force Cu   0.000000719045012   0.000018818497031   0.000093251378072 1
force Cu   0.000000592931949   0.000051448514365   0.000024425511083 1
force Cu  -0.000000242597672   0.000102778237970  -0.000027767128420 1
force Cu   0.000000810824481   0.000103706551526  -0.000061493087175 1
force Cu   0.000001727611536   0.000076116583806  -0.000056338492736 1
force Cu   0.000000398155340   0.000100793691617  -0.000263899069270 1
force Cu   0.000000288370569  -0.000212365337196   0.000217978608394 1

# Energy components:
   A_diel =        0.0677111855228508
   Eewald =    27505.6669957285448618
       EH =    31169.0197637052915525
     Eloc =   -63469.6933066111087101
      Enl =      732.5302030878483492
     EvdW =       -0.2967328213509857
      Exc =     -388.0097773769143714
 Exc_core =        0.9393566064654408
       KE =      412.8120489865844434
  MuShift =        0.0495371408226215
-------------------------------------
     Etot =    -4036.9142003682941322
       TS =        0.0007252914078323
-------------------------------------
        F =    -4036.9149256597020212
      muN =      -78.9144317540152116
-------------------------------------
        G =    -3958.0004939056866533


Dumping 'jdft.fillings' ... done
Dumping 'jdft.wfns' ... done
Dumping 'jdft.fluidState' ... done
Dumping 'jdft.ionpos' ... done
Dumping 'jdft.lattice' ... done
Dumping 'jdft.eigenvals' ... done
Dumping 'jdft.eigStats' ... 
	eMin: -4.349748 at state 23 ( [ +0.000000 +0.000000 +0.000000 ] spin -1 )
	HOMO: -0.209190 at state 21 ( [ +0.444444 -0.400000 +0.000000 ] spin 1 )
	mu  : -0.208000
	LUMO: -0.207987 at state 36 ( [ +0.333333 +0.000000 +0.000000 ] spin -1 )
	eMax: +0.183187 at state 13 ( [ +0.333333 +0.000000 +0.000000 ] spin 1 )
	HOMO-LUMO gap: +0.001203
	Optical gap  : +0.002007 at state 7 ( [ +0.111111 -0.200000 +0.000000 ] spin 1 )
Dumping 'jdft.Ecomponents' ... done
IonicMinimize: Iter:   4  G: -3958.000493905686653  |grad|_K:  9.512e-05  alpha:  1.000e+00  linmin: -3.588e-01  t[s]:  17526.12
IonicMinimize: Converged (|grad|_K<1.000000e-04).

#--- Lowdin population analysis ---
# oxidation-state Cu +0.121 +0.037 +0.077 +0.075 +0.077 +0.075 +0.052 +0.030 +0.193 +0.402 +0.030 +0.052 +0.076 +0.077 +0.074 +0.076 +0.036 +0.121 +0.402 +0.193
# magnetic-moments Cu -0.000 -0.000 -0.000 -0.000 -0.000 -0.000 -0.000 -0.000 -0.000 -0.000 -0.000 -0.000 -0.000 -0.000 -0.000 -0.000 -0.000 -0.000 -0.000 -0.000


Dumping 'jdft.n_up' ... done
Dumping 'jdft.n_dn' ... done
Dumping 'jdft.tau_up' ... done
Dumping 'jdft.tau_dn' ... done
Dumping 'jdft.eigenvals' ... done
Dumping 'jdft.eigStats' ... 
	eMin: -4.349748 at state 23 ( [ +0.000000 +0.000000 +0.000000 ] spin -1 )
	HOMO: -0.209190 at state 21 ( [ +0.444444 -0.400000 +0.000000 ] spin 1 )
	mu  : -0.208000
	LUMO: -0.207987 at state 36 ( [ +0.333333 +0.000000 +0.000000 ] spin -1 )
	eMax: +0.183187 at state 13 ( [ +0.333333 +0.000000 +0.000000 ] spin 1 )
	HOMO-LUMO gap: +0.001203
	Optical gap  : +0.002007 at state 7 ( [ +0.111111 -0.200000 +0.000000 ] spin 1 )
Dumping 'jdft.kPts' ... done
Dumping 'jdft.kMap' ... done
Dumping 'jdft.dosUp' ... done.
Dumping 'jdft.dosDn' ... done.
End date and time: Mon Sep 12 18:26:35 2022  (Duration: 0-4:53:01.97)
Done!

PROFILER:             augmentDensityGrid     6.186511 +/-     0.117547 s,  373 calls,   2307.568698 s total
PROFILER:         augmentDensityGridGrad     0.291053 +/-     0.080545 s,  197 calls,     57.337406 s total
PROFILER:        augmentDensitySpherical     0.002720 +/-     0.000107 s,  373 calls,      1.014721 s total
PROFILER:    augmentDensitySphericalGrad     0.003482 +/-     0.000964 s,  233 calls,      0.811413 s total
PROFILER:                 augmentOverlap     2.032061 +/-     0.256395 s,  814 calls,   1654.097572 s total
PROFILER:                     diagouterI     5.822794 +/-     0.151947 s,  376 calls,   2189.370540 s total
PROFILER:              EdensityAndVscloc     2.971007 +/-     1.016259 s,  373 calls,   1108.185426 s total
PROFILER:                     EnlAndGrad     0.011644 +/-     0.002529 s,  417 calls,      4.855710 s total
PROFILER:            ExCorrCommunication     0.033510 +/-     0.192799 s, 2328 calls,     78.010376 s total
PROFILER:               ExCorrFunctional     0.004724 +/-     0.000746 s,  398 calls,      1.880263 s total
PROFILER:                    ExCorrTotal     0.261096 +/-     0.435822 s,  398 calls,    103.916170 s total
PROFILER:                   Idag_DiagV_I    10.695607 +/-     2.886733 s,  225 calls,   2406.511637 s total
PROFILER:                    initWeights     2.016046 +/-     0.000000 s,    1 calls,      2.016046 s total
PROFILER:                    inv(matrix)     0.007765 +/-     0.000580 s,  370 calls,      2.872983 s total
PROFILER:            matrix::diagonalize     0.024040 +/-     0.012410 s,  595 calls,     14.303970 s total
PROFILER:                    matrix::set     0.000013 +/-     0.000016 s, 13248 calls,      0.176916 s total
PROFILER:            orthoMatrix(matrix)     0.004272 +/-     0.002580 s,  400 calls,      1.708866 s total
PROFILER:     RadialFunctionR::transform     0.076209 +/-     0.557903 s,   57 calls,      4.343908 s total
PROFILER:                    reduceKmesh     0.000546 +/-     0.000000 s,    1 calls,      0.000546 s total
PROFILER:   VanDerWaalsD3::energyAndGrad     0.011857 +/-     0.000579 s,   17 calls,      0.201567 s total
PROFILER:               WavefunctionDrag    13.517639 +/-     2.157768 s,    8 calls,    108.141113 s total
PROFILER:                            Y*M     0.699810 +/-     0.190811 s, 2654 calls,   1857.295477 s total
PROFILER:                          Y1^Y2     0.717324 +/-     0.229646 s, 1726 calls,   1238.101858 s total

MEMUSAGE:                   ColumnBundle     0.439011 GB
MEMUSAGE:        complexScalarFieldTilde     0.010815 GB
MEMUSAGE:                    IndexArrays     0.013455 GB
MEMUSAGE:                         matrix     0.036302 GB
MEMUSAGE:                           misc     0.010881 GB
MEMUSAGE:                    ScalarField     0.078406 GB
MEMUSAGE:               ScalarFieldTilde     0.057198 GB
MEMUSAGE:                          Total     0.521032 GB
