
*************** JDFTx 1.6.0  ***************

Start date and time: Sat Dec 11 13:02:51 2021
Executable /projects/musgravc/apps/jdftx-1.6.1/build/jdftx with command-line: -i in
Running on hosts (process indices):  shas0222.rc.int.colorado.edu (0-23)
Divided in process groups (process indices):  0 (0)  1 (1)  2 (2)  3 (3)  4 (4)  5 (5)  6 (6)  7 (7)  8 (8)  9 (9)  10 (10)  11 (11)  12 (12)  13 (13)  14 (14)  15 (15)  16 (16)  17 (17)  18 (18)  19 (19)  20 (20)  21 (21)  22 (22)  23 (23)
Resource initialization completed at t[s]:      0.00
Run totals: 24 processes, 24 threads, 0 GPUs


Input parsed successfully to the following command list (including defaults):

basis kpoint-dependent
converge-empty-states yes
coords-type Cartesian
core-overlap-check none
coulomb-interaction Periodic
davidson-band-ratio 1.1
density-of-states Etol 1.000000e-06 Esigma 1.000000e-03 \
		Complete \
	Total \
	OrthoOrbital Pt 1   s \
	OrthoOrbital Pt 1   p \
	OrthoOrbital Pt 1   px \
	OrthoOrbital Pt 1   py \
	OrthoOrbital Pt 1   pz \
	OrthoOrbital Pt 1   d \
	OrthoOrbital Pt 1   dxy \
	OrthoOrbital Pt 1   dyz \
	OrthoOrbital Pt 1   dz2 \
	OrthoOrbital Pt 1   dxz \
	OrthoOrbital Pt 1   dx2-y2 \
	OrthoOrbital Pt 2   s \
	OrthoOrbital Pt 2   p \
	OrthoOrbital Pt 2   px \
	OrthoOrbital Pt 2   py \
	OrthoOrbital Pt 2   pz \
	OrthoOrbital Pt 2   d \
	OrthoOrbital Pt 2   dxy \
	OrthoOrbital Pt 2   dyz \
	OrthoOrbital Pt 2   dz2 \
	OrthoOrbital Pt 2   dxz \
	OrthoOrbital Pt 2   dx2-y2 \
	OrthoOrbital Pt 3   s \
	OrthoOrbital Pt 3   p \
	OrthoOrbital Pt 3   px \
	OrthoOrbital Pt 3   py \
	OrthoOrbital Pt 3   pz \
	OrthoOrbital Pt 3   d \
	OrthoOrbital Pt 3   dxy \
	OrthoOrbital Pt 3   dyz \
	OrthoOrbital Pt 3   dz2 \
	OrthoOrbital Pt 3   dxz \
	OrthoOrbital Pt 3   dx2-y2 \
	OrthoOrbital Pt 4   s \
	OrthoOrbital Pt 4   p \
	OrthoOrbital Pt 4   px \
	OrthoOrbital Pt 4   py \
	OrthoOrbital Pt 4   pz \
	OrthoOrbital Pt 4   d \
	OrthoOrbital Pt 4   dxy \
	OrthoOrbital Pt 4   dyz \
	OrthoOrbital Pt 4   dz2 \
	OrthoOrbital Pt 4   dxz \
	OrthoOrbital Pt 4   dx2-y2 \
	OrthoOrbital Pt 5   s \
	OrthoOrbital Pt 5   p \
	OrthoOrbital Pt 5   px \
	OrthoOrbital Pt 5   py \
	OrthoOrbital Pt 5   pz \
	OrthoOrbital Pt 5   d \
	OrthoOrbital Pt 5   dxy \
	OrthoOrbital Pt 5   dyz \
	OrthoOrbital Pt 5   dz2 \
	OrthoOrbital Pt 5   dxz \
	OrthoOrbital Pt 5   dx2-y2 \
	OrthoOrbital Pt 6   s \
	OrthoOrbital Pt 6   p \
	OrthoOrbital Pt 6   px \
	OrthoOrbital Pt 6   py \
	OrthoOrbital Pt 6   pz \
	OrthoOrbital Pt 6   d \
	OrthoOrbital Pt 6   dxy \
	OrthoOrbital Pt 6   dyz \
	OrthoOrbital Pt 6   dz2 \
	OrthoOrbital Pt 6   dxz \
	OrthoOrbital Pt 6   dx2-y2 \
	OrthoOrbital Pt 7   s \
	OrthoOrbital Pt 7   p \
	OrthoOrbital Pt 7   px \
	OrthoOrbital Pt 7   py \
	OrthoOrbital Pt 7   pz \
	OrthoOrbital Pt 7   d \
	OrthoOrbital Pt 7   dxy \
	OrthoOrbital Pt 7   dyz \
	OrthoOrbital Pt 7   dz2 \
	OrthoOrbital Pt 7   dxz \
	OrthoOrbital Pt 7   dx2-y2 \
	OrthoOrbital Pt 8   s \
	OrthoOrbital Pt 8   p \
	OrthoOrbital Pt 8   px \
	OrthoOrbital Pt 8   py \
	OrthoOrbital Pt 8   pz \
	OrthoOrbital Pt 8   d \
	OrthoOrbital Pt 8   dxy \
	OrthoOrbital Pt 8   dyz \
	OrthoOrbital Pt 8   dz2 \
	OrthoOrbital Pt 8   dxz \
	OrthoOrbital Pt 8   dx2-y2 \
	OrthoOrbital Pt 9   s \
	OrthoOrbital Pt 9   p \
	OrthoOrbital Pt 9   px \
	OrthoOrbital Pt 9   py \
	OrthoOrbital Pt 9   pz \
	OrthoOrbital Pt 9   d \
	OrthoOrbital Pt 9   dxy \
	OrthoOrbital Pt 9   dyz \
	OrthoOrbital Pt 9   dz2 \
	OrthoOrbital Pt 9   dxz \
	OrthoOrbital Pt 9   dx2-y2 \
	OrthoOrbital Pt 10   s \
	OrthoOrbital Pt 10   p \
	OrthoOrbital Pt 10   px \
	OrthoOrbital Pt 10   py \
	OrthoOrbital Pt 10   pz \
	OrthoOrbital Pt 10   d \
	OrthoOrbital Pt 10   dxy \
	OrthoOrbital Pt 10   dyz \
	OrthoOrbital Pt 10   dz2 \
	OrthoOrbital Pt 10   dxz \
	OrthoOrbital Pt 10   dx2-y2 \
	OrthoOrbital Pt 11   s \
	OrthoOrbital Pt 11   p \
	OrthoOrbital Pt 11   px \
	OrthoOrbital Pt 11   py \
	OrthoOrbital Pt 11   pz \
	OrthoOrbital Pt 11   d \
	OrthoOrbital Pt 11   dxy \
	OrthoOrbital Pt 11   dyz \
	OrthoOrbital Pt 11   dz2 \
	OrthoOrbital Pt 11   dxz \
	OrthoOrbital Pt 11   dx2-y2 \
	OrthoOrbital Pt 12   s \
	OrthoOrbital Pt 12   p \
	OrthoOrbital Pt 12   px \
	OrthoOrbital Pt 12   py \
	OrthoOrbital Pt 12   pz \
	OrthoOrbital Pt 12   d \
	OrthoOrbital Pt 12   dxy \
	OrthoOrbital Pt 12   dyz \
	OrthoOrbital Pt 12   dz2 \
	OrthoOrbital Pt 12   dxz \
	OrthoOrbital Pt 12   dx2-y2 \
	OrthoOrbital Pt 13   s \
	OrthoOrbital Pt 13   p \
	OrthoOrbital Pt 13   px \
	OrthoOrbital Pt 13   py \
	OrthoOrbital Pt 13   pz \
	OrthoOrbital Pt 13   d \
	OrthoOrbital Pt 13   dxy \
	OrthoOrbital Pt 13   dyz \
	OrthoOrbital Pt 13   dz2 \
	OrthoOrbital Pt 13   dxz \
	OrthoOrbital Pt 13   dx2-y2 \
	OrthoOrbital Pt 14   s \
	OrthoOrbital Pt 14   p \
	OrthoOrbital Pt 14   px \
	OrthoOrbital Pt 14   py \
	OrthoOrbital Pt 14   pz \
	OrthoOrbital Pt 14   d \
	OrthoOrbital Pt 14   dxy \
	OrthoOrbital Pt 14   dyz \
	OrthoOrbital Pt 14   dz2 \
	OrthoOrbital Pt 14   dxz \
	OrthoOrbital Pt 14   dx2-y2 \
	OrthoOrbital Pt 15   s \
	OrthoOrbital Pt 15   p \
	OrthoOrbital Pt 15   px \
	OrthoOrbital Pt 15   py \
	OrthoOrbital Pt 15   pz \
	OrthoOrbital Pt 15   d \
	OrthoOrbital Pt 15   dxy \
	OrthoOrbital Pt 15   dyz \
	OrthoOrbital Pt 15   dz2 \
	OrthoOrbital Pt 15   dxz \
	OrthoOrbital Pt 15   dx2-y2 \
	OrthoOrbital Pt 16   s \
	OrthoOrbital Pt 16   p \
	OrthoOrbital Pt 16   px \
	OrthoOrbital Pt 16   py \
	OrthoOrbital Pt 16   pz \
	OrthoOrbital Pt 16   d \
	OrthoOrbital Pt 16   dxy \
	OrthoOrbital Pt 16   dyz \
	OrthoOrbital Pt 16   dz2 \
	OrthoOrbital Pt 16   dxz \
	OrthoOrbital Pt 16   dx2-y2 \
	OrthoOrbital Pt 17   s \
	OrthoOrbital Pt 17   p \
	OrthoOrbital Pt 17   px \
	OrthoOrbital Pt 17   py \
	OrthoOrbital Pt 17   pz \
	OrthoOrbital Pt 17   d \
	OrthoOrbital Pt 17   dxy \
	OrthoOrbital Pt 17   dyz \
	OrthoOrbital Pt 17   dz2 \
	OrthoOrbital Pt 17   dxz \
	OrthoOrbital Pt 17   dx2-y2 \
	OrthoOrbital Pt 18   s \
	OrthoOrbital Pt 18   p \
	OrthoOrbital Pt 18   px \
	OrthoOrbital Pt 18   py \
	OrthoOrbital Pt 18   pz \
	OrthoOrbital Pt 18   d \
	OrthoOrbital Pt 18   dxy \
	OrthoOrbital Pt 18   dyz \
	OrthoOrbital Pt 18   dz2 \
	OrthoOrbital Pt 18   dxz \
	OrthoOrbital Pt 18   dx2-y2 \
	OrthoOrbital Pt 19   s \
	OrthoOrbital Pt 19   p \
	OrthoOrbital Pt 19   px \
	OrthoOrbital Pt 19   py \
	OrthoOrbital Pt 19   pz \
	OrthoOrbital Pt 19   d \
	OrthoOrbital Pt 19   dxy \
	OrthoOrbital Pt 19   dyz \
	OrthoOrbital Pt 19   dz2 \
	OrthoOrbital Pt 19   dxz \
	OrthoOrbital Pt 19   dx2-y2 \
	OrthoOrbital Pt 20   s \
	OrthoOrbital Pt 20   p \
	OrthoOrbital Pt 20   px \
	OrthoOrbital Pt 20   py \
	OrthoOrbital Pt 20   pz \
	OrthoOrbital Pt 20   d \
	OrthoOrbital Pt 20   dxy \
	OrthoOrbital Pt 20   dyz \
	OrthoOrbital Pt 20   dz2 \
	OrthoOrbital Pt 20   dxz \
	OrthoOrbital Pt 20   dx2-y2 \
	OrthoOrbital Pt 21   s \
	OrthoOrbital Pt 21   p \
	OrthoOrbital Pt 21   px \
	OrthoOrbital Pt 21   py \
	OrthoOrbital Pt 21   pz \
	OrthoOrbital Pt 21   d \
	OrthoOrbital Pt 21   dxy \
	OrthoOrbital Pt 21   dyz \
	OrthoOrbital Pt 21   dz2 \
	OrthoOrbital Pt 21   dxz \
	OrthoOrbital Pt 21   dx2-y2 \
	OrthoOrbital Pt 22   s \
	OrthoOrbital Pt 22   p \
	OrthoOrbital Pt 22   px \
	OrthoOrbital Pt 22   py \
	OrthoOrbital Pt 22   pz \
	OrthoOrbital Pt 22   d \
	OrthoOrbital Pt 22   dxy \
	OrthoOrbital Pt 22   dyz \
	OrthoOrbital Pt 22   dz2 \
	OrthoOrbital Pt 22   dxz \
	OrthoOrbital Pt 22   dx2-y2 \
	OrthoOrbital Pt 23   s \
	OrthoOrbital Pt 23   p \
	OrthoOrbital Pt 23   px \
	OrthoOrbital Pt 23   py \
	OrthoOrbital Pt 23   pz \
	OrthoOrbital Pt 23   d \
	OrthoOrbital Pt 23   dxy \
	OrthoOrbital Pt 23   dyz \
	OrthoOrbital Pt 23   dz2 \
	OrthoOrbital Pt 23   dxz \
	OrthoOrbital Pt 23   dx2-y2 \
	OrthoOrbital Pt 24   s \
	OrthoOrbital Pt 24   p \
	OrthoOrbital Pt 24   px \
	OrthoOrbital Pt 24   py \
	OrthoOrbital Pt 24   pz \
	OrthoOrbital Pt 24   d \
	OrthoOrbital Pt 24   dxy \
	OrthoOrbital Pt 24   dyz \
	OrthoOrbital Pt 24   dz2 \
	OrthoOrbital Pt 24   dxz \
	OrthoOrbital Pt 24   dx2-y2 \
	OrthoOrbital Pt 25   s \
	OrthoOrbital Pt 25   p \
	OrthoOrbital Pt 25   px \
	OrthoOrbital Pt 25   py \
	OrthoOrbital Pt 25   pz \
	OrthoOrbital Pt 25   d \
	OrthoOrbital Pt 25   dxy \
	OrthoOrbital Pt 25   dyz \
	OrthoOrbital Pt 25   dz2 \
	OrthoOrbital Pt 25   dxz \
	OrthoOrbital Pt 25   dx2-y2 \
	OrthoOrbital Pt 26   s \
	OrthoOrbital Pt 26   p \
	OrthoOrbital Pt 26   px \
	OrthoOrbital Pt 26   py \
	OrthoOrbital Pt 26   pz \
	OrthoOrbital Pt 26   d \
	OrthoOrbital Pt 26   dxy \
	OrthoOrbital Pt 26   dyz \
	OrthoOrbital Pt 26   dz2 \
	OrthoOrbital Pt 26   dxz \
	OrthoOrbital Pt 26   dx2-y2 \
	OrthoOrbital Pt 27   s \
	OrthoOrbital Pt 27   p \
	OrthoOrbital Pt 27   px \
	OrthoOrbital Pt 27   py \
	OrthoOrbital Pt 27   pz \
	OrthoOrbital Pt 27   d \
	OrthoOrbital Pt 27   dxy \
	OrthoOrbital Pt 27   dyz \
	OrthoOrbital Pt 27   dz2 \
	OrthoOrbital Pt 27   dxz \
	OrthoOrbital Pt 27   dx2-y2 \
	OrthoOrbital Pt 28   s \
	OrthoOrbital Pt 28   p \
	OrthoOrbital Pt 28   px \
	OrthoOrbital Pt 28   py \
	OrthoOrbital Pt 28   pz \
	OrthoOrbital Pt 28   d \
	OrthoOrbital Pt 28   dxy \
	OrthoOrbital Pt 28   dyz \
	OrthoOrbital Pt 28   dz2 \
	OrthoOrbital Pt 28   dxz \
	OrthoOrbital Pt 28   dx2-y2 \
	OrthoOrbital Pt 29   s \
	OrthoOrbital Pt 29   p \
	OrthoOrbital Pt 29   px \
	OrthoOrbital Pt 29   py \
	OrthoOrbital Pt 29   pz \
	OrthoOrbital Pt 29   d \
	OrthoOrbital Pt 29   dxy \
	OrthoOrbital Pt 29   dyz \
	OrthoOrbital Pt 29   dz2 \
	OrthoOrbital Pt 29   dxz \
	OrthoOrbital Pt 29   dx2-y2 \
	OrthoOrbital Pt 30   s \
	OrthoOrbital Pt 30   p \
	OrthoOrbital Pt 30   px \
	OrthoOrbital Pt 30   py \
	OrthoOrbital Pt 30   pz \
	OrthoOrbital Pt 30   d \
	OrthoOrbital Pt 30   dxy \
	OrthoOrbital Pt 30   dyz \
	OrthoOrbital Pt 30   dz2 \
	OrthoOrbital Pt 30   dxz \
	OrthoOrbital Pt 30   dx2-y2 \
	OrthoOrbital Pt 31   s \
	OrthoOrbital Pt 31   p \
	OrthoOrbital Pt 31   px \
	OrthoOrbital Pt 31   py \
	OrthoOrbital Pt 31   pz \
	OrthoOrbital Pt 31   d \
	OrthoOrbital Pt 31   dxy \
	OrthoOrbital Pt 31   dyz \
	OrthoOrbital Pt 31   dz2 \
	OrthoOrbital Pt 31   dxz \
	OrthoOrbital Pt 31   dx2-y2 \
	OrthoOrbital Pt 32   s \
	OrthoOrbital Pt 32   p \
	OrthoOrbital Pt 32   px \
	OrthoOrbital Pt 32   py \
	OrthoOrbital Pt 32   pz \
	OrthoOrbital Pt 32   d \
	OrthoOrbital Pt 32   dxy \
	OrthoOrbital Pt 32   dyz \
	OrthoOrbital Pt 32   dz2 \
	OrthoOrbital Pt 32   dxz \
	OrthoOrbital Pt 32   dx2-y2 \
	OrthoOrbital Pt 33   s \
	OrthoOrbital Pt 33   p \
	OrthoOrbital Pt 33   px \
	OrthoOrbital Pt 33   py \
	OrthoOrbital Pt 33   pz \
	OrthoOrbital Pt 33   d \
	OrthoOrbital Pt 33   dxy \
	OrthoOrbital Pt 33   dyz \
	OrthoOrbital Pt 33   dz2 \
	OrthoOrbital Pt 33   dxz \
	OrthoOrbital Pt 33   dx2-y2 \
	OrthoOrbital Pt 34   s \
	OrthoOrbital Pt 34   p \
	OrthoOrbital Pt 34   px \
	OrthoOrbital Pt 34   py \
	OrthoOrbital Pt 34   pz \
	OrthoOrbital Pt 34   d \
	OrthoOrbital Pt 34   dxy \
	OrthoOrbital Pt 34   dyz \
	OrthoOrbital Pt 34   dz2 \
	OrthoOrbital Pt 34   dxz \
	OrthoOrbital Pt 34   dx2-y2 \
	OrthoOrbital Pt 35   s \
	OrthoOrbital Pt 35   p \
	OrthoOrbital Pt 35   px \
	OrthoOrbital Pt 35   py \
	OrthoOrbital Pt 35   pz \
	OrthoOrbital Pt 35   d \
	OrthoOrbital Pt 35   dxy \
	OrthoOrbital Pt 35   dyz \
	OrthoOrbital Pt 35   dz2 \
	OrthoOrbital Pt 35   dxz \
	OrthoOrbital Pt 35   dx2-y2 \
	OrthoOrbital Pt 36   s \
	OrthoOrbital Pt 36   p \
	OrthoOrbital Pt 36   px \
	OrthoOrbital Pt 36   py \
	OrthoOrbital Pt 36   pz \
	OrthoOrbital Pt 36   d \
	OrthoOrbital Pt 36   dxy \
	OrthoOrbital Pt 36   dyz \
	OrthoOrbital Pt 36   dz2 \
	OrthoOrbital Pt 36   dxz \
	OrthoOrbital Pt 36   dx2-y2 \
	OrthoOrbital Pt 37   s \
	OrthoOrbital Pt 37   p \
	OrthoOrbital Pt 37   px \
	OrthoOrbital Pt 37   py \
	OrthoOrbital Pt 37   pz \
	OrthoOrbital Pt 37   d \
	OrthoOrbital Pt 37   dxy \
	OrthoOrbital Pt 37   dyz \
	OrthoOrbital Pt 37   dz2 \
	OrthoOrbital Pt 37   dxz \
	OrthoOrbital Pt 37   dx2-y2 \
	OrthoOrbital Pt 38   s \
	OrthoOrbital Pt 38   p \
	OrthoOrbital Pt 38   px \
	OrthoOrbital Pt 38   py \
	OrthoOrbital Pt 38   pz \
	OrthoOrbital Pt 38   d \
	OrthoOrbital Pt 38   dxy \
	OrthoOrbital Pt 38   dyz \
	OrthoOrbital Pt 38   dz2 \
	OrthoOrbital Pt 38   dxz \
	OrthoOrbital Pt 38   dx2-y2 \
	OrthoOrbital Pt 39   s \
	OrthoOrbital Pt 39   p \
	OrthoOrbital Pt 39   px \
	OrthoOrbital Pt 39   py \
	OrthoOrbital Pt 39   pz \
	OrthoOrbital Pt 39   d \
	OrthoOrbital Pt 39   dxy \
	OrthoOrbital Pt 39   dyz \
	OrthoOrbital Pt 39   dz2 \
	OrthoOrbital Pt 39   dxz \
	OrthoOrbital Pt 39   dx2-y2 \
	OrthoOrbital Pt 40   s \
	OrthoOrbital Pt 40   p \
	OrthoOrbital Pt 40   px \
	OrthoOrbital Pt 40   py \
	OrthoOrbital Pt 40   pz \
	OrthoOrbital Pt 40   d \
	OrthoOrbital Pt 40   dxy \
	OrthoOrbital Pt 40   dyz \
	OrthoOrbital Pt 40   dz2 \
	OrthoOrbital Pt 40   dxz \
	OrthoOrbital Pt 40   dx2-y2 \
	OrthoOrbital Pt 41   s \
	OrthoOrbital Pt 41   p \
	OrthoOrbital Pt 41   px \
	OrthoOrbital Pt 41   py \
	OrthoOrbital Pt 41   pz \
	OrthoOrbital Pt 41   d \
	OrthoOrbital Pt 41   dxy \
	OrthoOrbital Pt 41   dyz \
	OrthoOrbital Pt 41   dz2 \
	OrthoOrbital Pt 41   dxz \
	OrthoOrbital Pt 41   dx2-y2 \
	OrthoOrbital Pt 42   s \
	OrthoOrbital Pt 42   p \
	OrthoOrbital Pt 42   px \
	OrthoOrbital Pt 42   py \
	OrthoOrbital Pt 42   pz \
	OrthoOrbital Pt 42   d \
	OrthoOrbital Pt 42   dxy \
	OrthoOrbital Pt 42   dyz \
	OrthoOrbital Pt 42   dz2 \
	OrthoOrbital Pt 42   dxz \
	OrthoOrbital Pt 42   dx2-y2 \
	OrthoOrbital Pt 43   s \
	OrthoOrbital Pt 43   p \
	OrthoOrbital Pt 43   px \
	OrthoOrbital Pt 43   py \
	OrthoOrbital Pt 43   pz \
	OrthoOrbital Pt 43   d \
	OrthoOrbital Pt 43   dxy \
	OrthoOrbital Pt 43   dyz \
	OrthoOrbital Pt 43   dz2 \
	OrthoOrbital Pt 43   dxz \
	OrthoOrbital Pt 43   dx2-y2 \
	OrthoOrbital Pt 44   s \
	OrthoOrbital Pt 44   p \
	OrthoOrbital Pt 44   px \
	OrthoOrbital Pt 44   py \
	OrthoOrbital Pt 44   pz \
	OrthoOrbital Pt 44   d \
	OrthoOrbital Pt 44   dxy \
	OrthoOrbital Pt 44   dyz \
	OrthoOrbital Pt 44   dz2 \
	OrthoOrbital Pt 44   dxz \
	OrthoOrbital Pt 44   dx2-y2
dump End ElecDensity KEdensity BandEigs EigStats RhoAtom DOS Kpoints
dump Ionic State IonicPositions Lattice EigStats Ecomponents
dump 
dump 
dump 
dump 
dump 
dump 
dump 
dump 
dump-name jdft.$VAR
elec-cutoff 20
elec-eigen-algo Davidson
elec-ex-corr gga-PBE
elec-initial-magnetization 0.000000 no
elec-n-bands 423
elec-smearing Fermi 0.001
electronic-minimize  \
	dirUpdateScheme      FletcherReeves \
	linminMethod         DirUpdateRecommended \
	nIterations          100 \
	history              15 \
	knormThreshold       0 \
	energyDiffThreshold  1e-07 \
	nEnergyDiff          2 \
	alphaTstart          1 \
	alphaTmin            1e-10 \
	updateTestStepSize   yes \
	alphaTreduceFactor   0.1 \
	alphaTincreaseFactor 3 \
	nAlphaAdjustMax      3 \
	wolfeEnergy          0.0001 \
	wolfeGradient        0.9 \
	fdTest               no
exchange-regularization WignerSeitzTruncated
fluid LinearPCM 298.000000 1.013250
fluid-anion F- 0.5 MeanFieldLJ \
	epsBulk 1 \
	pMol 0 \
	epsInf 1 \
	Pvap 0 \
	sigmaBulk 0 \
	Rvdw 2.24877 \
	Res 0 \
	tauNuc 343133
fluid-cation Na+ 0.5 MeanFieldLJ \
	epsBulk 1 \
	pMol 0 \
	epsInf 1 \
	Pvap 0 \
	sigmaBulk 0 \
	Rvdw 2.19208 \
	Res 0 \
	tauNuc 343133
fluid-ex-corr lda-TF lda-PZ
fluid-gummel-loop 10 1.000000e-05
fluid-minimize  \
	dirUpdateScheme      PolakRibiere \
	linminMethod         DirUpdateRecommended \
	nIterations          400 \
	history              15 \
	knormThreshold       1e-11 \
	energyDiffThreshold  0 \
	nEnergyDiff          2 \
	alphaTstart          1 \
	alphaTmin            1e-10 \
	updateTestStepSize   yes \
	alphaTreduceFactor   0.1 \
	alphaTincreaseFactor 3 \
	nAlphaAdjustMax      6 \
	wolfeEnergy          0.0001 \
	wolfeGradient        0.9 \
	fdTest               no
fluid-solvent H2O 55.338 ScalarEOS \
	epsBulk 78.4 \
	pMol 0.92466 \
	epsInf 1.77 \
	Pvap 1.06736e-10 \
	sigmaBulk 4.62e-05 \
	Rvdw 2.61727 \
	Res 1.42 \
	tauNuc 343133 \
	poleEl 15 7 1
forces-output-coords Positions
initial-state jdft.$VAR
ion Pt   0.000044103898920  15.381417741651186  68.237726247675639 1
ion Pt   0.000165568870122  22.579469198672211  65.376247358975931 1
ion Pt  -0.000047589973569   6.720952734563594  66.747428203427006 1
ion Pt  -0.000172729795511  13.349651448846858  63.437959787792835 1
ion Pt  -0.000009121476916  20.217010841622955  60.328980523404191 1
ion Pt  -0.000026456405324  17.856837337931537  55.571496698021122 1
ion Pt  -0.000154258820124   0.337367059005126  35.368262143278415 1
ion Pt   5.232078164962808   4.457363956958505  61.923786766952944 1
ion Pt   5.231947687775952  11.170629601370743  58.754919654045295 1
ion Pt   5.232048780225076   2.203935453957554  57.217486012586122 1
ion Pt   5.231983153002735   8.938738372880252  54.029278348017733 1
ion Pt  -0.000085829182696  15.596388757142204  50.865660317575404 1
ion Pt   0.000042034164899  22.313512671537346  47.714918124101857 1
ion Pt  -0.000095388046586  13.400597187518780  46.169065624685537 1
ion Pt  -0.000081637216104  20.039736064542137  42.850652212801926 1
ion Pt   0.000133451315932  24.543681755616515  52.486839702437848 1
ion Pt   0.000052523600593   6.679294850409735  49.265823876895020 1
ion Pt   5.232102489947243   4.384127944709580  44.575280275545744 1
ion Pt   5.232040592915151  11.178065367298766  41.457720286506650 1
ion Pt   5.231869406167833  17.680183507797665  38.001106824336333 1
ion Pt  -0.000008114049742   2.183812848901828  40.004080022937075 1
ion Pt   5.232047496039448   9.012345580019160  36.596811417403927 1
ion Pt   2.616017607017581  17.895198057124777  64.111517158164418 1
ion Pt   2.616071411549436   0.038651461098001  61.264907768729834 1
ion Pt   2.615909425736019   8.899468304461493  62.658338938099959 1
ion Pt   2.615883283617998  15.694372309430834  59.540119667016540 1
ion Pt   2.616006719747950  22.306047125649457  56.400177203369047 1
ion Pt   2.615965820975955  20.075873362909128  51.628196186964260 1
ion Pt   2.616111365030279   2.398284793055752  66.115283673519343 1
ion Pt   2.616078568440779   6.677700770758509  57.946787251844860 1
ion Pt   2.615946409970168  13.398797356669338  54.848852859604534 1
ion Pt   2.616086928116446   4.482010743412634  53.249426622758577 1
ion Pt   2.615932761079316  11.139138046500312  50.085826361924731 1
ion Pt   2.615955241814012  17.875335603234646  46.898312741136841 1
ion Pt   2.616024268382298  -0.139003742930155  43.786108871942993 1
ion Pt   2.615900853249753  15.620465841709125  42.192335727449141 1
ion Pt   2.615867377480366  22.039206063615904  38.739527543289128 1
ion Pt   2.616068346007670   2.222100818304825  48.542977468046843 1
ion Pt   2.615998929865851   8.907156432737565  45.360609253258083 1
ion Pt   2.616129565189054   6.728177679021784  40.677312220753201 1
ion Pt   2.616026422724472  13.357275298119283  37.368899299113785 1
ion Pt   2.616169688914689  19.740306683080693  68.746255382028636 1
ion Pt   2.615957213939338   4.696684331236950  35.876728282360780 1
ion Pt   2.615941463230435  11.066525377845066  67.518499089220697 1
ion-species /projects/musgravc/apps/jdftx-1.6.0/build/pseudopotentials/GBRV_v1.5/$ID_pbe_v1.uspp
ion-species /projects/musgravc/apps/jdftx-1.6.0/build/pseudopotentials/GBRV_v1.5/$ID_pbe_v1.2.uspp
ion-species /projects/musgravc/apps/jdftx-1.6.0/build/pseudopotentials/GBRV_v1.5/$ID_pbe_v1.4.uspp
ion-species /projects/musgravc/apps/jdftx-1.6.0/build/pseudopotentials/GBRV_v1.5/$ID_pbe_v1.5.uspp
ion-width Ecut
ionic-minimize  \
	dirUpdateScheme      L-BFGS \
	linminMethod         DirUpdateRecommended \
	nIterations          100 \
	history              15 \
	knormThreshold       0.0001 \
	energyDiffThreshold  1e-06 \
	nEnergyDiff          2 \
	alphaTstart          1 \
	alphaTmin            1e-10 \
	updateTestStepSize   yes \
	alphaTreduceFactor   0.1 \
	alphaTincreaseFactor 3 \
	nAlphaAdjustMax      3 \
	wolfeEnergy          0.0001 \
	wolfeGradient        0.9 \
	fdTest               no
kpoint   0.000000000000   0.000000000000   0.000000000000  1.00000000000000
kpoint-folding 11 2 1 
latt-move-scale 0 0 0
latt-scale 1 1 1 
lattice  \
	   5.231996000000000    0.000000000000000    0.000000000000000  \
	   0.000000000000000   24.540233000000001    0.000000000000000  \
	   0.000000000000000   -0.000000000000000   69.410258999999996 
lattice-minimize  \
	dirUpdateScheme      L-BFGS \
	linminMethod         DirUpdateRecommended \
	nIterations          0 \
	history              15 \
	knormThreshold       0 \
	energyDiffThreshold  1e-06 \
	nEnergyDiff          2 \
	alphaTstart          1 \
	alphaTmin            1e-10 \
	updateTestStepSize   yes \
	alphaTreduceFactor   0.1 \
	alphaTincreaseFactor 3 \
	nAlphaAdjustMax      3 \
	wolfeEnergy          0.0001 \
	wolfeGradient        0.9 \
	fdTest               no
lcao-params 30 1e-06 0.001
pcm-variant CANDLE
spintype z-spin
subspace-rotation-factor 1 yes
symmetries none
symmetry-threshold 0.0001
target-mu -0.1713 no

van-der-waals D3


Applied RMS atom displacement 0 bohrs to make symmetries exact.

---------- Initializing the Grid ----------
R = 
[        5.232            0            0  ]
[            0      24.5402            0  ]
[            0            0      69.4103  ]
unit cell volume = 8911.89
G =
[    1.20092         -0          0  ]
[          0   0.256036          0  ]
[         -0          0  0.0905224  ]
Minimum fftbox size, Smin = [  24  100  280  ]
Chosen fftbox size, S = [  24  100  280  ]

---------- Exchange Correlation functional ----------
Initalized PBE GGA exchange.
Initalized PBE GGA correlation.

---------- Setting up pseudopotentials ----------
Width of ionic core gaussian charges (only for fluid interactions / plotting) set to 0.397384

Reading pseudopotential file '/projects/musgravc/apps/jdftx-1.6.0/build/pseudopotentials/GBRV_v1.5/pt_pbe_v1.4.uspp':
  Title: Pt.  Created by USPP 7.3.6 on 31-3-15
  Reference state energy: -105.002503.  16 valence electrons in orbitals:
    |510>  occupation: 6  eigenvalue: -2.158104
    |520>  occupation: 9.5  eigenvalue: -0.335376
    |600>  occupation: 0  eigenvalue: -0.319640
    |610>  occupation: 0  eigenvalue: -0.122947
  lMax: 2  lLocal: 3  QijEcut: 5.5
  6 projectors sampled on a log grid with 745 points:
    l: 0  eig: -0.319640  rCut: 2.45
    l: 0  eig: 1.500000  rCut: 2.45
    l: 1  eig: -2.158104  rCut: 1.6
    l: 1  eig: -0.122947  rCut: 1.6
    l: 2  eig: -0.500000  rCut: 1.6
    l: 2  eig: -0.335375  rCut: 1.6
  Partial core density with radius 1.1
  Transforming core density to a uniform radial grid of dG=0.02 with 1159 points.
  Transforming local potential to a uniform radial grid of dG=0.02 with 1159 points.
  Transforming nonlocal projectors to a uniform radial grid of dG=0.02 with 432 points.
  Transforming density augmentations to a uniform radial grid of dG=0.02 with 1159 points.
  Transforming atomic orbitals to a uniform radial grid of dG=0.02 with 432 points.
  Core radius for overlap checks: 2.45 bohrs.

Initialized 1 species with 44 total atoms.

Folded 1 k-points by 11x2x1 to 22 k-points.

---------- Setting up k-points, bands, fillings ----------
No reducable k-points. 
Computing the number of bands and number of electrons
Reading initial fillings from file jdft.fillings.
nElectrons: 704.361006   nBands: 423   nStates: 44

----- Setting up reduced wavefunction bases (one per k-point) -----
average nbasis = 38070.500 , ideal nbasis = 38072.267

----- Initializing Supercell corresponding to k-point mesh -----
Lattice vector linear combinations in supercell:
[  11   0   0  ]
[   0   2   0  ]
[   0   0   1  ]
Supercell lattice vectors:
[  57.552  0  0  ]
[  0  49.0805  0  ]
[  0  0  69.4103  ]

Initializing DFT-D3 calculator:
	Parameters set for gga-PBE functional
	s6:  1.000  s_r6:  1.217
	s8:  0.722  s_r8:  1.000
	Per-atom parameters loaded for:
	Pt:  sqrtQ[a0]:  5.888  Rcov[a0]:  2.116  CN: [ 0.00 1.92 6.67 ]

Initializing DFT-D2 calculator for fluid / solvation:
	Pt:  C6:  815.23 Eh-a0^6  R0: 3.326 a0 (WARNING: beyond Grimme's data set)

---------- Setting up ewald sum ----------
Optimum gaussian width for ewald sums = 4.402079 bohr.
Real space sum over 665 unit cells with max indices [  9  3  2  ]
Reciprocal space sum over 7497 terms with max indices [  3  10  25  ]

Computing DFT-D3 correction:
# coordination-number Pt 7.050 8.272 7.211 9.373 9.437 9.558 5.926 9.417 9.556 9.496 9.567 9.530 9.574 9.551 9.385 9.549 9.571 9.527 9.455 7.135 9.064 7.154 9.065 9.384 9.455 9.525 9.573 9.549 7.134 9.551 9.569 9.530 9.567 9.495 9.438 9.417 8.272 9.560 9.557 9.374 7.212 5.927 7.048 7.155
# diagonal-C6 Pt 336.87 336.87 336.87 336.87 336.87 336.87 336.87 336.87 336.87 336.87 336.87 336.87 336.87 336.87 336.87 336.87 336.87 336.87 336.87 336.87 336.87 336.87 336.87 336.87 336.87 336.87 336.87 336.87 336.87 336.87 336.87 336.87 336.87 336.87 336.87 336.87 336.87 336.87 336.87 336.87 336.87 336.87 336.87 336.87
EvdW_6 =   -0.421025
EvdW_8 =   -0.658477

---------- Allocating electronic variables ----------
Initializing wave functions:  reading from 'jdft.wfns'
----- createFluidSolver() ----- (Fluid-side solver setup)
   Initializing fluid molecule 'H2O'
     Initializing site 'O'
       Electron density: proportional to exp(-r/0.36935)*erfc((r-0.51523)/0.36823) with norm 6.826
       Charge density: gaussian nuclear width 0.478731 with net site charge 0.826
       Polarizability: cuspless exponential with width 0.32 and norm 3.73
       Hard sphere radius: 2.57003 bohrs
       Positions in reference frame:
         [ +0.000000 +0.000000 +0.000000 ]
     Initializing site 'H'
       Electron density: proportional to exp(-r/0.34641)*erfc((r-0)/0.390882) with norm 0.587
       Charge density: gaussian nuclear width 0.377945 with net site charge -0.413
       Polarizability: cuspless exponential with width 0.39 and norm 3.3
       Positions in reference frame:
         [ +0.000000 -1.441945 +1.122523 ]
         [ +0.000000 +1.441945 +1.122523 ]
     Net charge: 0   dipole magnitude: 0.927204
     Initializing spherical shell mfKernel with radius 2.61727 Bohr
     deltaS corrections:
       site 'O': -7.54299
       site 'H': -6.83917
   Initializing fluid molecule 'Na+'
     Initializing site 'Na'
       Electron density: proportional to exp(-r/0.19682)*erfc((r-0.71491)/0.41314) with norm 8.1383
       Charge density: gaussian nuclear width 0.365347 with net site charge -1
       Hard sphere radius: 1.86327 bohrs
       Positions in reference frame:
         [ +0.000000 +0.000000 +0.000000 ]
     Net charge: -1   dipole magnitude: 0
     Initializing gaussian mfKernel with width: 1.55004 Bohr
     deltaS corrections:
       site 'Na': -22.3555
   Initializing fluid molecule 'F-'
     Initializing site 'F'
       Electron density: proportional to exp(-r/0.38886)*erfc((r-0)/0.438782) with norm 8
       Charge density: gaussian nuclear width 0.374796 with net site charge 1
       Hard sphere radius: 2.39995 bohrs
       Positions in reference frame:
         [ +0.000000 +0.000000 +0.000000 ]
     Net charge: 1   dipole magnitude: 0
     Initializing gaussian mfKernel with width: 1.59012 Bohr
     deltaS corrections:
       site 'F': -9.04335

Correction to mu due to finite nuclear width = -0.0783795
   Cavity determined by nc: 0.00142 and sigma: 0.707107
   Nonlocal vdW cavity from gaussian model electron density with norm = 8 and sigma = 0.993594 bohr
   Charge asymmetry in cavity with sensitivity pCavity = 36.5 e-bohr/Eh
   Electrostatic cavity expanded by eta = 1.46 bohrs
   Weighted density cavitation model constrained by Nbulk: 0.0049383 bohr^-3, Pvap: 3.14029 kPa, Rvdw: 2.61727 bohr and sigmaBulk: 4.62e-05 Eh/bohr^2 at T: 298 K.
   Weighted density dispersion model using vdW pair potentials with single solvent site with sqrtC6eff: 0.77 SI.
Reading fluid state from 'jdft.fluidState'


---- Citations for features of the code used in this run ----

   Software package:
      R. Sundararaman, K. Letchworth-Weaver, K.A. Schwarz, D. Gunceler, Y. Ozhabes and T.A. Arias, 'JDFTx: software for joint density-functional theory', SoftwareX 6, 278 (2017)

   gga-PBE exchange-correlation functional:
      J.P. Perdew, K. Burke and M. Ernzerhof, Phys. Rev. Lett. 77, 3865 (1996)

   Pseudopotentials:
      KF Garrity, JW Bennett, KM Rabe and D Vanderbilt, Comput. Mater. Sci. 81, 446 (2014)

   DFT-D3 dispersion correction:
      S. Grimme, J. Antony, S. Ehrlich and H. Krieg, J. Chem. Phys. 132, 154104 (2010)

   DFT-D2 dispersion correction:
      S. Grimme, J. Comput. Chem. 27, 1787 (2006)

   Charge-asymmetric nonlocally-determined local-electric (CANDLE) solvation model:
      R. Sundararaman and W.A. Goddard III, J. Chem. Phys. 142, 064107 (2015)

   Total energy minimization with Auxiliary Hamiltonian:
      C. Freysoldt, S. Boeck, and J. Neugebauer, Phys. Rev. B 79, 241103(R) (2009)

   Grand-canonical (fixed-potential) DFT:
      R. Sundararaman, W. A. Goddard III and T. A. Arias, J. Chem. Phys. 146, 114104 (2017)

   Linear-tetrahedron sampling for density of states:
      G. Lehmann and M. Taut, Phys. status solidi (b) 54, 469 (1972)

This list may not be complete. Please suggest additional citations or
report any other bugs at https://github.com/shankar1729/jdftx/issues

Initialization completed successfully at t[s]:     37.08


Computing DFT-D3 correction:
# coordination-number Pt 7.050 8.272 7.211 9.373 9.437 9.558 5.926 9.417 9.556 9.496 9.567 9.530 9.574 9.551 9.385 9.549 9.571 9.527 9.455 7.135 9.064 7.154 9.065 9.384 9.455 9.525 9.573 9.549 7.134 9.551 9.569 9.530 9.567 9.495 9.438 9.417 8.272 9.560 9.557 9.374 7.212 5.927 7.048 7.155
# diagonal-C6 Pt 336.87 336.87 336.87 336.87 336.87 336.87 336.87 336.87 336.87 336.87 336.87 336.87 336.87 336.87 336.87 336.87 336.87 336.87 336.87 336.87 336.87 336.87 336.87 336.87 336.87 336.87 336.87 336.87 336.87 336.87 336.87 336.87 336.87 336.87 336.87 336.87 336.87 336.87 336.87 336.87 336.87 336.87 336.87 336.87
EvdW_6 =   -0.421025
EvdW_8 =   -0.658477
Shifting auxilliary hamiltonian by -0.000059 to set nElectrons=704.361006

-------- Electronic minimization -----------
	Linear fluid (dielectric constant: 78.4, screening length: 8.12261 Bohr) occupying 0.380788 of unit cell:	Completed after 15 iterations at t[s]:     58.08
	FillingsUpdate:  mu: -0.171300000  nElectrons: 704.361006  magneticMoment: [ Abs: 0.00000  Tot: +0.00000 ]
ElecMinimize: Iter:   0  G: -3794.294071553475533  |grad|_K:  9.743e-07  alpha:  1.000e+00
	Linear fluid (dielectric constant: 78.4, screening length: 8.12261 Bohr) occupying 0.394330 of unit cell:	Completed after 32 iterations at t[s]:    216.97
	Linear fluid (dielectric constant: 78.4, screening length: 8.12261 Bohr) occupying 0.380847 of unit cell:	Completed after 28 iterations at t[s]:    269.97
	FillingsUpdate:  mu: -0.171300000  nElectrons: 704.366078  magneticMoment: [ Abs: 0.00000  Tot: +0.00000 ]
	SubspaceRotationAdjust: set factor to 0.503
ElecMinimize: Iter:   1  G: -3794.294077011158151  |grad|_K:  1.836e-06  alpha:  9.590e-03  linmin:  8.671e-03  t[s]:    343.34
	Linear fluid (dielectric constant: 78.4, screening length: 8.12261 Bohr) occupying 0.380691 of unit cell:	Completed after 23 iterations at t[s]:    416.61
	Linear fluid (dielectric constant: 78.4, screening length: 8.12261 Bohr) occupying 0.380820 of unit cell:	Completed after 21 iterations at t[s]:    467.91
	FillingsUpdate:  mu: -0.171300000  nElectrons: 704.364304  magneticMoment: [ Abs: 0.00000  Tot: +0.00000 ]
	SubspaceRotationAdjust: set factor to 0.259
ElecMinimize: Iter:   2  G: -3794.294080079967898  |grad|_K:  6.610e-07  alpha:  1.536e-03  linmin:  2.879e-05  t[s]:    540.33
	Linear fluid (dielectric constant: 78.4, screening length: 8.12261 Bohr) occupying 0.380814 of unit cell:	Completed after 10 iterations at t[s]:    610.81
ElecMinimize: 	Predicted alpha/alphaT>3.000000, increasing alphaT to 4.607223e-03.
	Linear fluid (dielectric constant: 78.4, screening length: 8.12261 Bohr) occupying 0.380801 of unit cell:	Completed after 11 iterations at t[s]:    660.24
	Linear fluid (dielectric constant: 78.4, screening length: 8.12261 Bohr) occupying 0.380790 of unit cell:	Completed after 11 iterations at t[s]:    709.60
	FillingsUpdate:  mu: -0.171300000  nElectrons: 704.362139  magneticMoment: [ Abs: 0.00000  Tot: +0.00000 ]
	SubspaceRotationAdjust: set factor to 0.132
	SubspaceRotationAdjust: resetting CG because factor has changed by 0.132493
	Linear fluid (dielectric constant: 78.4, screening length: 8.12261 Bohr) occupying 0.380790 of unit cell:	Completed after 0 iterations at t[s]:    799.64
ElecMinimize: 	State modified externally: resetting search direction.
ElecMinimize: Iter:   3  G: -3794.294082264510507  |grad|_K:  4.992e-07  alpha:  7.113e-03
	Linear fluid (dielectric constant: 78.4, screening length: 8.12261 Bohr) occupying 0.380814 of unit cell:	Completed after 11 iterations at t[s]:    942.09
	Linear fluid (dielectric constant: 78.4, screening length: 8.12261 Bohr) occupying 0.380820 of unit cell:	Completed after 7 iterations at t[s]:    991.11
	FillingsUpdate:  mu: -0.171300000  nElectrons: 704.364508  magneticMoment: [ Abs: 0.00000  Tot: +0.00000 ]
	SubspaceRotationAdjust: set factor to 0.0783
ElecMinimize: Iter:   4  G: -3794.294083820759624  |grad|_K:  2.006e-07  alpha:  8.763e-03  linmin: -1.294e-03  t[s]:   1064.18
	Linear fluid (dielectric constant: 78.4, screening length: 8.12261 Bohr) occupying 0.380817 of unit cell:	Completed after 6 iterations at t[s]:   1133.68
ElecMinimize: 	Predicted alpha/alphaT>3.000000, increasing alphaT to 2.628797e-02.
	Linear fluid (dielectric constant: 78.4, screening length: 8.12261 Bohr) occupying 0.380810 of unit cell:	Completed after 9 iterations at t[s]:   1183.25
	Linear fluid (dielectric constant: 78.4, screening length: 8.12261 Bohr) occupying 0.380800 of unit cell:	Completed after 9 iterations at t[s]:   1232.25
	FillingsUpdate:  mu: -0.171300000  nElectrons: 704.362940  magneticMoment: [ Abs: 0.00000  Tot: +0.00000 ]
	SubspaceRotationAdjust: set factor to 0.0512
ElecMinimize: Iter:   5  G: -3794.294085404616453  |grad|_K:  1.226e-07  alpha:  5.589e-02  linmin:  2.659e-03  t[s]:   1305.08
	Linear fluid (dielectric constant: 78.4, screening length: 8.12261 Bohr) occupying 0.380784 of unit cell:	Completed after 10 iterations at t[s]:   1375.13
	Linear fluid (dielectric constant: 78.4, screening length: 8.12261 Bohr) occupying 0.380770 of unit cell:	Completed after 9 iterations at t[s]:   1424.76
	FillingsUpdate:  mu: -0.171300000  nElectrons: 704.360707  magneticMoment: [ Abs: 0.00000  Tot: +0.00000 ]
	SubspaceRotationAdjust: set factor to 0.028
ElecMinimize: Iter:   6  G: -3794.294086600614719  |grad|_K:  1.375e-07  alpha:  1.095e-01  linmin: -4.232e-03  t[s]:   1497.90
	Linear fluid (dielectric constant: 78.4, screening length: 8.12261 Bohr) occupying 0.380805 of unit cell:	Completed after 14 iterations at t[s]:   1569.07
	Linear fluid (dielectric constant: 78.4, screening length: 8.12261 Bohr) occupying 0.380779 of unit cell:	Completed after 14 iterations at t[s]:   1619.11
	FillingsUpdate:  mu: -0.171300000  nElectrons: 704.361491  magneticMoment: [ Abs: 0.00000  Tot: +0.00000 ]
	SubspaceRotationAdjust: set factor to 0.0154
	SubspaceRotationAdjust: resetting CG because factor has changed by 0.116175
	Linear fluid (dielectric constant: 78.4, screening length: 8.12261 Bohr) occupying 0.380779 of unit cell:	Completed after 0 iterations at t[s]:   1708.67
ElecMinimize: 	State modified externally: resetting search direction.
ElecMinimize: Iter:   7  G: -3794.294087034269978  |grad|_K:  4.282e-08  alpha:  2.936e-02
	Linear fluid (dielectric constant: 78.4, screening length: 8.12261 Bohr) occupying 0.380778 of unit cell:	Completed after 1 iterations at t[s]:   1849.92
ElecMinimize: 	Predicted alpha/alphaT>3.000000, increasing alphaT to 8.807191e-02.
	Linear fluid (dielectric constant: 78.4, screening length: 8.12261 Bohr) occupying 0.380777 of unit cell:	Completed after 6 iterations at t[s]:   1898.41
	Linear fluid (dielectric constant: 78.4, screening length: 8.12261 Bohr) occupying 0.380773 of unit cell:	Completed after 7 iterations at t[s]:   1947.36
	FillingsUpdate:  mu: -0.171300000  nElectrons: 704.361048  magneticMoment: [ Abs: 0.00000  Tot: +0.00000 ]
	SubspaceRotationAdjust: set factor to 0.00974
ElecMinimize: Iter:   8  G: -3794.294087299945204  |grad|_K:  4.196e-08  alpha:  1.994e-01  linmin: -5.455e-03  t[s]:   2020.02
	Linear fluid (dielectric constant: 78.4, screening length: 8.12261 Bohr) occupying 0.380787 of unit cell:	Completed after 11 iterations at t[s]:   2090.48
	Linear fluid (dielectric constant: 78.4, screening length: 8.12261 Bohr) occupying 0.380782 of unit cell:	Completed after 8 iterations at t[s]:   2139.58
	FillingsUpdate:  mu: -0.171300000  nElectrons: 704.361767  magneticMoment: [ Abs: 0.00000  Tot: +0.00000 ]
	SubspaceRotationAdjust: set factor to 0.00602
ElecMinimize: Iter:   9  G: -3794.294087458762533  |grad|_K:  1.683e-08  alpha:  1.207e-01  linmin:  7.012e-03  t[s]:   2212.35
	Linear fluid (dielectric constant: 78.4, screening length: 8.12261 Bohr) occupying 0.380781 of unit cell:	Completed after 1 iterations at t[s]:   2281.22
ElecMinimize: 	Predicted alpha/alphaT>3.000000, increasing alphaT to 3.620639e-01.
	Linear fluid (dielectric constant: 78.4, screening length: 8.12261 Bohr) occupying 0.380781 of unit cell:	Completed after 2 iterations at t[s]:   2329.00
	Linear fluid (dielectric constant: 78.4, screening length: 8.12261 Bohr) occupying 0.380780 of unit cell:	Completed after 2 iterations at t[s]:   2378.00
	FillingsUpdate:  mu: -0.171300000  nElectrons: 704.361707  magneticMoment: [ Abs: 0.00000  Tot: +0.00000 ]
	SubspaceRotationAdjust: set factor to 0.00924
ElecMinimize: Iter:  10  G: -3794.294087569515341  |grad|_K:  1.110e-08  alpha:  5.602e-01  linmin: -4.183e-03  t[s]:   2450.47
	Linear fluid (dielectric constant: 78.4, screening length: 8.12261 Bohr) occupying 0.380777 of unit cell:	Completed after 7 iterations at t[s]:   2520.10
	Linear fluid (dielectric constant: 78.4, screening length: 8.12261 Bohr) occupying 0.380778 of unit cell:	Completed after 0 iterations at t[s]:   2567.62
	FillingsUpdate:  mu: -0.171300000  nElectrons: 704.361514  magneticMoment: [ Abs: 0.00000  Tot: +0.00000 ]
	SubspaceRotationAdjust: set factor to 0.00644
ElecMinimize: Iter:  11  G: -3794.294087606055655  |grad|_K:  1.663e-08  alpha:  4.279e-01  linmin:  2.425e-03  t[s]:   2640.26
	Linear fluid (dielectric constant: 78.4, screening length: 8.12261 Bohr) occupying 0.380783 of unit cell:	Completed after 9 iterations at t[s]:   2710.41
	Linear fluid (dielectric constant: 78.4, screening length: 8.12261 Bohr) occupying 0.380779 of unit cell:	Completed after 8 iterations at t[s]:   2759.26
	FillingsUpdate:  mu: -0.171300000  nElectrons: 704.361675  magneticMoment: [ Abs: 0.00000  Tot: +0.00000 ]
	SubspaceRotationAdjust: set factor to 0.00507
ElecMinimize: Iter:  12  G: -3794.294087629788010  |grad|_K:  1.142e-08  alpha:  1.381e-01  linmin:  7.877e-03  t[s]:   2832.01
ElecMinimize: Converged (|Delta G|<1.000000e-07 for 2 iters).
Setting wave functions to eigenvectors of Hamiltonian
Converging empty states (this may take a while): |deigs|: 8.178e-10

Computing DFT-D3 correction:
# coordination-number Pt 7.050 8.272 7.211 9.373 9.437 9.558 5.926 9.417 9.556 9.496 9.567 9.530 9.574 9.551 9.385 9.549 9.571 9.527 9.455 7.135 9.064 7.154 9.065 9.384 9.455 9.525 9.573 9.549 7.134 9.551 9.569 9.530 9.567 9.495 9.438 9.417 8.272 9.560 9.557 9.374 7.212 5.927 7.048 7.155
# diagonal-C6 Pt 336.87 336.87 336.87 336.87 336.87 336.87 336.87 336.87 336.87 336.87 336.87 336.87 336.87 336.87 336.87 336.87 336.87 336.87 336.87 336.87 336.87 336.87 336.87 336.87 336.87 336.87 336.87 336.87 336.87 336.87 336.87 336.87 336.87 336.87 336.87 336.87 336.87 336.87 336.87 336.87 336.87 336.87 336.87 336.87
EvdW_6 =   -0.421025
EvdW_8 =   -0.658477

# Ionic positions in cartesian coordinates:
ion Pt   0.000044103898920  15.381417741651186  68.237726247675639 1
ion Pt   0.000165568870122  22.579469198672211  65.376247358975931 1
ion Pt  -0.000047589973569   6.720952734563594  66.747428203427006 1
ion Pt  -0.000172729795511  13.349651448846858  63.437959787792835 1
ion Pt  -0.000009121476916  20.217010841622955  60.328980523404191 1
ion Pt  -0.000026456405324  17.856837337931537  55.571496698021122 1
ion Pt  -0.000154258820124   0.337367059005126  35.368262143278415 1
ion Pt   5.232078164962808   4.457363956958505  61.923786766952944 1
ion Pt   5.231947687775952  11.170629601370743  58.754919654045295 1
ion Pt   5.232048780225076   2.203935453957554  57.217486012586122 1
ion Pt   5.231983153002735   8.938738372880252  54.029278348017733 1
ion Pt  -0.000085829182696  15.596388757142204  50.865660317575404 1
ion Pt   0.000042034164899  22.313512671537346  47.714918124101857 1
ion Pt  -0.000095388046586  13.400597187518780  46.169065624685537 1
ion Pt  -0.000081637216104  20.039736064542137  42.850652212801926 1
ion Pt   0.000133451315932  24.543681755616515  52.486839702437848 1
ion Pt   0.000052523600593   6.679294850409735  49.265823876895020 1
ion Pt   5.232102489947243   4.384127944709580  44.575280275545744 1
ion Pt   5.232040592915151  11.178065367298766  41.457720286506650 1
ion Pt   5.231869406167833  17.680183507797665  38.001106824336333 1
ion Pt  -0.000008114049742   2.183812848901828  40.004080022937075 1
ion Pt   5.232047496039448   9.012345580019160  36.596811417403927 1
ion Pt   2.616017607017581  17.895198057124777  64.111517158164418 1
ion Pt   2.616071411549436   0.038651461098001  61.264907768729834 1
ion Pt   2.615909425736019   8.899468304461493  62.658338938099959 1
ion Pt   2.615883283617998  15.694372309430834  59.540119667016540 1
ion Pt   2.616006719747950  22.306047125649457  56.400177203369047 1
ion Pt   2.615965820975955  20.075873362909128  51.628196186964260 1
ion Pt   2.616111365030279   2.398284793055752  66.115283673519343 1
ion Pt   2.616078568440779   6.677700770758509  57.946787251844860 1
ion Pt   2.615946409970168  13.398797356669338  54.848852859604534 1
ion Pt   2.616086928116446   4.482010743412634  53.249426622758577 1
ion Pt   2.615932761079316  11.139138046500312  50.085826361924731 1
ion Pt   2.615955241814012  17.875335603234646  46.898312741136841 1
ion Pt   2.616024268382298  -0.139003742930155  43.786108871942993 1
ion Pt   2.615900853249753  15.620465841709125  42.192335727449141 1
ion Pt   2.615867377480366  22.039206063615904  38.739527543289128 1
ion Pt   2.616068346007670   2.222100818304825  48.542977468046843 1
ion Pt   2.615998929865851   8.907156432737565  45.360609253258083 1
ion Pt   2.616129565189054   6.728177679021784  40.677312220753201 1
ion Pt   2.616026422724472  13.357275298119283  37.368899299113785 1
ion Pt   2.616169688914689  19.740306683080693  68.746255382028636 1
ion Pt   2.615957213939338   4.696684331236950  35.876728282360780 1
ion Pt   2.615941463230435  11.066525377845066  67.518499089220697 1

# Forces in Cartesian coordinates:
force Pt   0.000002215238634  -0.000147737139873  -0.000032443269487 1
force Pt   0.000002308966370  -0.000281765783822   0.000258798225766 1
force Pt   0.000001949871637  -0.000256380467210   0.000437888491341 1
force Pt   0.000000038025870   0.000183872174192  -0.000585481618393 1
force Pt  -0.000001463581767  -0.000215545219125   0.000058345786210 1
force Pt   0.000000436213233   0.000061725914044  -0.000354248028567 1
force Pt  -0.000000618759823  -0.000028696451527  -0.000220376821220 1
force Pt  -0.000000999982592   0.000121091947697   0.000055292349253 1
force Pt  -0.000000633959643   0.000215254292426  -0.000220715668165 1
force Pt   0.000000471616815   0.000175992550674  -0.000028571426907 1
force Pt  -0.000000180604888  -0.000039166928183   0.000133098144216 1
force Pt  -0.000000698935046   0.000209853490873  -0.000189541124377 1
force Pt  -0.000001430427795  -0.000295726994274   0.000205868264059 1
force Pt   0.000000045464518  -0.000133411748736  -0.000141619328425 1
force Pt  -0.000001950936179  -0.000010840531803  -0.000279590802068 1
force Pt   0.000000073179416  -0.000006186418677   0.000171139913466 1
force Pt  -0.000000236583940  -0.000187765970738   0.000102150201635 1
force Pt   0.000000152573308   0.000118655412653   0.000158151589254 1
force Pt   0.000000082917683  -0.000322341004879   0.000316482099722 1
force Pt  -0.000002609368717   0.000597688944671  -0.000503854039547 1
force Pt  -0.000000286554069  -0.000139029127692  -0.000468594104186 1
force Pt  -0.000002313160119  -0.000107924630338  -0.000097846905548 1
force Pt   0.000000521586770   0.000090071200633   0.000361386694589 1
force Pt   0.000001520049079  -0.000043954670034   0.000303558485838 1
force Pt   0.000000873904501   0.000319601987003  -0.000322221856593 1
force Pt   0.000000084594296  -0.000120029888061  -0.000181983844727 1
force Pt   0.000000874441336   0.000309534127630  -0.000158315735599 1
force Pt  -0.000000484224826   0.000041742177283  -0.000149491580186 1
force Pt   0.000002943904518  -0.000591366815405   0.000446026013605 1
force Pt  -0.000000278074621   0.000135575126626   0.000152543155178 1
force Pt  -0.000001235352170   0.000193278523090  -0.000001265841871 1
force Pt  -0.000000397419691  -0.000206012406166   0.000208143649336 1
force Pt   0.000000201364311   0.000012704953083  -0.000105032040094 1
force Pt  -0.000000792633123  -0.000199830573874   0.000017926129793 1
force Pt   0.000001043309237   0.000237377944343  -0.000057575356511 1
force Pt   0.000000494450786  -0.000088293238098  -0.000031449325454 1
force Pt  -0.000003381791493   0.000355988819866  -0.000323332581799 1
force Pt   0.000001555195861  -0.000081465793815   0.000441025026800 1
force Pt   0.000000381728582  -0.000188115301479   0.000221156801408 1
force Pt   0.000000235392219  -0.000181449090895   0.000547401497982 1
force Pt  -0.000002504779304   0.000247280232984  -0.000483034478773 1
force Pt  -0.000000501826920  -0.000027931606338   0.000249641882228 1
force Pt  -0.000001922730985   0.000177850624305   0.000053518316716 1
force Pt   0.000000356584375   0.000054498696139   0.000039151378001 1

# Energy components:
   A_diel =       -0.1683804869791882
   Eewald =    31564.6283011280138453
       EH =    35227.0668908634543186
     Eloc =   -71385.1873685898754047
      Enl =      -46.4225054271435127
     EvdW =       -1.0795020600141787
      Exc =    -1252.0926264893269035
 Exc_core =      721.2207815541099762
       KE =     1257.1194982224997148
  MuShift =       -0.0283478742934551
-------------------------------------
     Etot =    -3914.9432591595555095
       TS =        0.0079833267855465
-------------------------------------
        F =    -3914.9512424863410160
      muN =     -120.6571548565527792
-------------------------------------
        G =    -3794.2940876297880095


Dumping 'jdft.fillings' ... done
Dumping 'jdft.wfns' ... done
Dumping 'jdft.fluidState' ... done
Dumping 'jdft.ionpos' ... done
Dumping 'jdft.lattice' ... done
Dumping 'jdft.eigenvals' ... done
Dumping 'jdft.eigStats' ... 
	eMin: -2.121477 at state 1 ( [ +0.000000 +0.500000 +0.000000 ] spin 1 )
	HOMO: -0.171334 at state 33 ( [ +0.454545 +0.500000 +0.000000 ] spin -1 )
	mu  : -0.171300
	LUMO: -0.171256 at state 5 ( [ +0.181818 +0.500000 +0.000000 ] spin 1 )
	eMax: +0.128411 at state 39 ( [ -0.272727 +0.500000 +0.000000 ] spin -1 )
	HOMO-LUMO gap: +0.000078
	Optical gap  : +0.000103 at state 35 ( [ -0.454545 +0.500000 +0.000000 ] spin -1 )
Dumping 'jdft.Ecomponents' ... done
IonicMinimize: Iter:   0  G: -3794.294087629788010  |grad|_K:  2.027e-04  t[s]:   3036.70

#--- Lowdin population analysis ---
# oxidation-state Pt -0.039 -0.049 -0.034 +0.012 +0.014 +0.007 +0.017 +0.016 +0.013 +0.009 +0.008 +0.010 +0.010 +0.015 +0.010 +0.009 +0.006 +0.014 +0.013 -0.003 +0.011 -0.031 +0.011 +0.010 +0.014 +0.014 +0.010 +0.009 -0.003 +0.016 +0.006 +0.010 +0.008 +0.009 +0.014 +0.016 -0.050 +0.007 +0.013 +0.012 -0.034 +0.017 -0.040 -0.031
# magnetic-moments Pt +0.000 +0.000 +0.000 +0.000 +0.000 +0.000 +0.000 +0.000 +0.000 +0.000 +0.000 +0.000 +0.000 +0.000 +0.000 +0.000 +0.000 +0.000 +0.000 +0.000 +0.000 +0.000 +0.000 +0.000 +0.000 +0.000 +0.000 +0.000 +0.000 +0.000 +0.000 +0.000 +0.000 +0.000 +0.000 +0.000 +0.000 +0.000 +0.000 +0.000 +0.000 +0.000 +0.000 +0.000


Computing DFT-D3 correction:
# coordination-number Pt 7.050 8.272 7.210 9.373 9.436 9.558 5.926 9.416 9.557 9.496 9.566 9.530 9.574 9.551 9.383 9.550 9.571 9.527 9.454 7.134 9.065 7.153 9.065 9.383 9.454 9.525 9.573 9.550 7.133 9.551 9.569 9.531 9.567 9.495 9.437 9.416 8.272 9.560 9.558 9.374 7.210 5.927 7.048 7.154
# diagonal-C6 Pt 336.87 336.87 336.87 336.87 336.87 336.87 336.87 336.87 336.87 336.87 336.87 336.87 336.87 336.87 336.87 336.87 336.87 336.87 336.87 336.87 336.87 336.87 336.87 336.87 336.87 336.87 336.87 336.87 336.87 336.87 336.87 336.87 336.87 336.87 336.87 336.87 336.87 336.87 336.87 336.87 336.87 336.87 336.87 336.87
EvdW_6 =   -0.421022
EvdW_8 =   -0.658470
Shifting auxilliary hamiltonian by -0.000035 to set nElectrons=704.361675

-------- Electronic minimization -----------
	Linear fluid (dielectric constant: 78.4, screening length: 8.12261 Bohr) occupying 0.380763 of unit cell:	Completed after 13 iterations at t[s]:   3119.58
	FillingsUpdate:  mu: -0.171300000  nElectrons: 704.361675  magneticMoment: [ Abs: 0.00000  Tot: +0.00000 ]
ElecMinimize: Iter:   0  G: -3794.294075561946556  |grad|_K:  1.865e-07  alpha:  1.000e+00
	Linear fluid (dielectric constant: 78.4, screening length: 8.12261 Bohr) occupying 0.380736 of unit cell:	Completed after 18 iterations at t[s]:   3276.65
	Linear fluid (dielectric constant: 78.4, screening length: 8.12261 Bohr) occupying 0.380753 of unit cell:	Completed after 16 iterations at t[s]:   3327.88
	FillingsUpdate:  mu: -0.171300000  nElectrons: 704.360538  magneticMoment: [ Abs: 0.00000  Tot: +0.00000 ]
	SubspaceRotationAdjust: set factor to 0.00597
ElecMinimize: Iter:   1  G: -3794.294084650609420  |grad|_K:  8.289e-08  alpha:  3.643e-01  linmin: -1.088e-03  t[s]:   3400.30
	Linear fluid (dielectric constant: 78.4, screening length: 8.12261 Bohr) occupying 0.380762 of unit cell:	Completed after 11 iterations at t[s]:   3470.81
	Linear fluid (dielectric constant: 78.4, screening length: 8.12261 Bohr) occupying 0.380763 of unit cell:	Completed after 2 iterations at t[s]:   3519.14
	FillingsUpdate:  mu: -0.171300000  nElectrons: 704.361196  magneticMoment: [ Abs: 0.00000  Tot: +0.00000 ]
	SubspaceRotationAdjust: set factor to 0.00588
ElecMinimize: Iter:   2  G: -3794.294086600701121  |grad|_K:  5.429e-08  alpha:  3.972e-01  linmin: -6.679e-03  t[s]:   3592.05
	Linear fluid (dielectric constant: 78.4, screening length: 8.12261 Bohr) occupying 0.380748 of unit cell:	Completed after 11 iterations at t[s]:   3662.70
	Linear fluid (dielectric constant: 78.4, screening length: 8.12261 Bohr) occupying 0.380751 of unit cell:	Completed after 6 iterations at t[s]:   3711.68
	FillingsUpdate:  mu: -0.171300000  nElectrons: 704.360064  magneticMoment: [ Abs: 0.00000  Tot: +0.00000 ]
	SubspaceRotationAdjust: set factor to 0.00491
ElecMinimize: Iter:   3  G: -3794.294087316533478  |grad|_K:  4.349e-08  alpha:  3.318e-01  linmin:  6.094e-03  t[s]:   3784.02
	Linear fluid (dielectric constant: 78.4, screening length: 8.12261 Bohr) occupying 0.380757 of unit cell:	Completed after 10 iterations at t[s]:   3854.46
	Linear fluid (dielectric constant: 78.4, screening length: 8.12261 Bohr) occupying 0.380758 of unit cell:	Completed after 3 iterations at t[s]:   3903.26
	FillingsUpdate:  mu: -0.171300000  nElectrons: 704.360550  magneticMoment: [ Abs: 0.00000  Tot: +0.00000 ]
	SubspaceRotationAdjust: set factor to 0.00547
ElecMinimize: Iter:   4  G: -3794.294087871696320  |grad|_K:  3.408e-08  alpha:  4.202e-01  linmin: -7.149e-03  t[s]:   3976.13
	Linear fluid (dielectric constant: 78.4, screening length: 8.12261 Bohr) occupying 0.380759 of unit cell:	Completed after 3 iterations at t[s]:   4045.23
	Linear fluid (dielectric constant: 78.4, screening length: 8.12261 Bohr) occupying 0.380759 of unit cell:	Completed after 3 iterations at t[s]:   4093.47
	FillingsUpdate:  mu: -0.171300000  nElectrons: 704.360366  magneticMoment: [ Abs: 0.00000  Tot: +0.00000 ]
	SubspaceRotationAdjust: set factor to 0.0066
ElecMinimize: Iter:   5  G: -3794.294088526381529  |grad|_K:  3.595e-08  alpha:  7.597e-01  linmin: -1.746e-04  t[s]:   4166.14
	Linear fluid (dielectric constant: 78.4, screening length: 8.12261 Bohr) occupying 0.380747 of unit cell:	Completed after 11 iterations at t[s]:   4237.37
	Linear fluid (dielectric constant: 78.4, screening length: 8.12261 Bohr) occupying 0.380749 of unit cell:	Completed after 6 iterations at t[s]:   4286.19
	FillingsUpdate:  mu: -0.171300000  nElectrons: 704.359377  magneticMoment: [ Abs: 0.00000  Tot: +0.00000 ]
	SubspaceRotationAdjust: set factor to 0.00597
ElecMinimize: Iter:   6  G: -3794.294089093780258  |grad|_K:  4.901e-08  alpha:  6.137e-01  linmin:  8.427e-04  t[s]:   4358.75
	Linear fluid (dielectric constant: 78.4, screening length: 8.12261 Bohr) occupying 0.380769 of unit cell:	Completed after 11 iterations at t[s]:   4429.45
	Linear fluid (dielectric constant: 78.4, screening length: 8.12261 Bohr) occupying 0.380759 of unit cell:	Completed after 9 iterations at t[s]:   4479.53
	FillingsUpdate:  mu: -0.171300000  nElectrons: 704.359984  magneticMoment: [ Abs: 0.00000  Tot: +0.00000 ]
	SubspaceRotationAdjust: set factor to 0.00487
ElecMinimize: Iter:   7  G: -3794.294089622429965  |grad|_K:  4.042e-08  alpha:  3.164e-01  linmin:  2.659e-04  t[s]:   4552.05
	Linear fluid (dielectric constant: 78.4, screening length: 8.12261 Bohr) occupying 0.380759 of unit cell:	Completed after 3 iterations at t[s]:   4621.21
	Linear fluid (dielectric constant: 78.4, screening length: 8.12261 Bohr) occupying 0.380758 of unit cell:	Completed after 3 iterations at t[s]:   4669.47
	FillingsUpdate:  mu: -0.171300000  nElectrons: 704.359566  magneticMoment: [ Abs: 0.00000  Tot: +0.00000 ]
	SubspaceRotationAdjust: set factor to 0.00583
ElecMinimize: Iter:   8  G: -3794.294090426841649  |grad|_K:  3.956e-08  alpha:  6.963e-01  linmin:  2.156e-04  t[s]:   4742.14
	Linear fluid (dielectric constant: 78.4, screening length: 8.12261 Bohr) occupying 0.380744 of unit cell:	Completed after 11 iterations at t[s]:   4812.74
	Linear fluid (dielectric constant: 78.4, screening length: 8.12261 Bohr) occupying 0.380749 of unit cell:	Completed after 9 iterations at t[s]:   4862.23
	FillingsUpdate:  mu: -0.171300000  nElectrons: 704.358757  magneticMoment: [ Abs: 0.00000  Tot: +0.00000 ]
	SubspaceRotationAdjust: set factor to 0.00525
ElecMinimize: Iter:   9  G: -3794.294090915055222  |grad|_K:  4.400e-08  alpha:  4.531e-01  linmin: -2.911e-04  t[s]:   4935.21
	Linear fluid (dielectric constant: 78.4, screening length: 8.12261 Bohr) occupying 0.380762 of unit cell:	Completed after 12 iterations at t[s]:   5006.09
	Linear fluid (dielectric constant: 78.4, screening length: 8.12261 Bohr) occupying 0.380757 of unit cell:	Completed after 9 iterations at t[s]:   5055.62
	FillingsUpdate:  mu: -0.171300000  nElectrons: 704.359389  magneticMoment: [ Abs: 0.00000  Tot: +0.00000 ]
	SubspaceRotationAdjust: set factor to 0.00467
ElecMinimize: Iter:  10  G: -3794.294091321081396  |grad|_K:  3.145e-08  alpha:  2.924e-01  linmin:  1.896e-04  t[s]:   5128.48
	Linear fluid (dielectric constant: 78.4, screening length: 8.12261 Bohr) occupying 0.380759 of unit cell:	Completed after 2 iterations at t[s]:   5197.62
	Linear fluid (dielectric constant: 78.4, screening length: 8.12261 Bohr) occupying 0.380760 of unit cell:	Completed after 2 iterations at t[s]:   5245.69
	FillingsUpdate:  mu: -0.171300000  nElectrons: 704.359607  magneticMoment: [ Abs: 0.00000  Tot: +0.00000 ]
	SubspaceRotationAdjust: set factor to 0.00589
ElecMinimize: Iter:  11  G: -3794.294091723562360  |grad|_K:  2.688e-08  alpha:  5.702e-01  linmin: -5.313e-04  t[s]:   5318.29
	Linear fluid (dielectric constant: 78.4, screening length: 8.12261 Bohr) occupying 0.380755 of unit cell:	Completed after 10 iterations at t[s]:   5388.82
	Linear fluid (dielectric constant: 78.4, screening length: 8.12261 Bohr) occupying 0.380756 of unit cell:	Completed after 0 iterations at t[s]:   5436.61
	FillingsUpdate:  mu: -0.171300000  nElectrons: 704.359297  magneticMoment: [ Abs: 0.00000  Tot: +0.00000 ]
	SubspaceRotationAdjust: set factor to 0.00532
ElecMinimize: Iter:  12  G: -3794.294091984603256  |grad|_K:  3.013e-08  alpha:  4.935e-01  linmin:  4.408e-03  t[s]:   5509.17
	Linear fluid (dielectric constant: 78.4, screening length: 8.12261 Bohr) occupying 0.380768 of unit cell:	Completed after 11 iterations at t[s]:   5579.73
	Linear fluid (dielectric constant: 78.4, screening length: 8.12261 Bohr) occupying 0.380763 of unit cell:	Completed after 7 iterations at t[s]:   5629.06
	FillingsUpdate:  mu: -0.171300000  nElectrons: 704.359885  magneticMoment: [ Abs: 0.00000  Tot: +0.00000 ]
	SubspaceRotationAdjust: set factor to 0.00428
ElecMinimize: Iter:  13  G: -3794.294092144824845  |grad|_K:  2.196e-08  alpha:  2.863e-01  linmin:  4.809e-05  t[s]:   5701.88
	Linear fluid (dielectric constant: 78.4, screening length: 8.12261 Bohr) occupying 0.380763 of unit cell:	Completed after 2 iterations at t[s]:   5770.93
	Linear fluid (dielectric constant: 78.4, screening length: 8.12261 Bohr) occupying 0.380763 of unit cell:	Completed after 2 iterations at t[s]:   5819.12
	FillingsUpdate:  mu: -0.171300000  nElectrons: 704.359981  magneticMoment: [ Abs: 0.00000  Tot: +0.00000 ]
	SubspaceRotationAdjust: set factor to 0.00546
ElecMinimize: Iter:  14  G: -3794.294092347266087  |grad|_K:  1.881e-08  alpha:  5.957e-01  linmin:  8.410e-04  t[s]:   5891.60
	Linear fluid (dielectric constant: 78.4, screening length: 8.12261 Bohr) occupying 0.380761 of unit cell:	Completed after 10 iterations at t[s]:   5961.96
	Linear fluid (dielectric constant: 78.4, screening length: 8.12261 Bohr) occupying 0.380761 of unit cell:	Completed after 3 iterations at t[s]:   6010.38
	FillingsUpdate:  mu: -0.171300000  nElectrons: 704.359891  magneticMoment: [ Abs: 0.00000  Tot: +0.00000 ]
	SubspaceRotationAdjust: set factor to 0.00466
ElecMinimize: Iter:  15  G: -3794.294092451062170  |grad|_K:  2.301e-08  alpha:  4.353e-01  linmin: -1.135e-03  t[s]:   6082.97
	Linear fluid (dielectric constant: 78.4, screening length: 8.12261 Bohr) occupying 0.380771 of unit cell:	Completed after 10 iterations at t[s]:   6153.43
	Linear fluid (dielectric constant: 78.4, screening length: 8.12261 Bohr) occupying 0.380767 of unit cell:	Completed after 6 iterations at t[s]:   6202.38
	FillingsUpdate:  mu: -0.171300000  nElectrons: 704.360399  magneticMoment: [ Abs: 0.00000  Tot: +0.00000 ]
	SubspaceRotationAdjust: set factor to 0.00425
ElecMinimize: Iter:  16  G: -3794.294092544912473  |grad|_K:  1.611e-08  alpha:  2.519e-01  linmin:  1.467e-03  t[s]:   6275.98
	Linear fluid (dielectric constant: 78.4, screening length: 8.12261 Bohr) occupying 0.380769 of unit cell:	Completed after 2 iterations at t[s]:   6344.94
	Linear fluid (dielectric constant: 78.4, screening length: 8.12261 Bohr) occupying 0.380771 of unit cell:	Completed after 2 iterations at t[s]:   6393.29
	FillingsUpdate:  mu: -0.171300000  nElectrons: 704.360775  magneticMoment: [ Abs: 0.00000  Tot: +0.00000 ]
	SubspaceRotationAdjust: set factor to 0.00511
ElecMinimize: Iter:  17  G: -3794.294092647504385  |grad|_K:  1.416e-08  alpha:  5.553e-01  linmin: -1.464e-03  t[s]:   6465.97
	Linear fluid (dielectric constant: 78.4, screening length: 8.12261 Bohr) occupying 0.380770 of unit cell:	Completed after 4 iterations at t[s]:   6535.22
	Linear fluid (dielectric constant: 78.4, screening length: 8.12261 Bohr) occupying 0.380770 of unit cell:	Completed after 0 iterations at t[s]:   6582.94
	FillingsUpdate:  mu: -0.171300000  nElectrons: 704.360767  magneticMoment: [ Abs: 0.00000  Tot: +0.00000 ]
	SubspaceRotationAdjust: set factor to 0.00521
ElecMinimize: Iter:  18  G: -3794.294092728756368  |grad|_K:  1.206e-08  alpha:  5.586e-01  linmin:  2.170e-03  t[s]:   6655.51
	Linear fluid (dielectric constant: 78.4, screening length: 8.12261 Bohr) occupying 0.380772 of unit cell:	Completed after 2 iterations at t[s]:   6724.62
	Linear fluid (dielectric constant: 78.4, screening length: 8.12261 Bohr) occupying 0.380772 of unit cell:	Completed after 0 iterations at t[s]:   6772.16
	FillingsUpdate:  mu: -0.171300000  nElectrons: 704.360930  magneticMoment: [ Abs: 0.00000  Tot: +0.00000 ]
	SubspaceRotationAdjust: set factor to 0.00623
ElecMinimize: Iter:  19  G: -3794.294092788193211  |grad|_K:  1.074e-08  alpha:  5.805e-01  linmin: -2.705e-03  t[s]:   6844.97
ElecMinimize: Converged (|Delta G|<1.000000e-07 for 2 iters).
Setting wave functions to eigenvectors of Hamiltonian
Converging empty states (this may take a while): |deigs|: 3.947e-09

Computing DFT-D3 correction:
# coordination-number Pt 7.050 8.272 7.210 9.373 9.436 9.558 5.926 9.416 9.557 9.496 9.566 9.530 9.574 9.551 9.383 9.550 9.571 9.527 9.454 7.134 9.065 7.153 9.065 9.383 9.454 9.525 9.573 9.550 7.133 9.551 9.569 9.531 9.567 9.495 9.437 9.416 8.272 9.560 9.558 9.374 7.210 5.927 7.048 7.154
# diagonal-C6 Pt 336.87 336.87 336.87 336.87 336.87 336.87 336.87 336.87 336.87 336.87 336.87 336.87 336.87 336.87 336.87 336.87 336.87 336.87 336.87 336.87 336.87 336.87 336.87 336.87 336.87 336.87 336.87 336.87 336.87 336.87 336.87 336.87 336.87 336.87 336.87 336.87 336.87 336.87 336.87 336.87 336.87 336.87 336.87 336.87
EvdW_6 =   -0.421022
EvdW_8 =   -0.658470
IonicMinimize: 	Wolfe criterion not satisfied: alpha: 1  (E-E0)/|gdotd0|: -0.951471  gdotd/gdotd0: 0.9649 (taking cubic step)

Computing DFT-D3 correction:
# coordination-number Pt 7.050 8.274 7.206 9.373 9.434 9.558 5.926 9.414 9.558 9.496 9.566 9.530 9.573 9.552 9.381 9.552 9.571 9.528 9.452 7.132 9.066 7.152 9.066 9.381 9.453 9.526 9.572 9.551 7.132 9.552 9.569 9.532 9.566 9.496 9.435 9.414 8.274 9.560 9.560 9.373 7.206 5.927 7.049 7.153
# diagonal-C6 Pt 336.87 336.87 336.87 336.87 336.87 336.87 336.87 336.87 336.87 336.87 336.87 336.87 336.87 336.87 336.87 336.87 336.87 336.87 336.87 336.87 336.87 336.87 336.87 336.87 336.87 336.87 336.87 336.87 336.87 336.87 336.87 336.87 336.87 336.87 336.87 336.87 336.87 336.87 336.87 336.87 336.87 336.87 336.87 336.87
EvdW_6 =   -0.421018
EvdW_8 =   -0.658457
Shifting auxilliary hamiltonian by 0.000027 to set nElectrons=704.360930

-------- Electronic minimization -----------
	Linear fluid (dielectric constant: 78.4, screening length: 8.12261 Bohr) occupying 0.380745 of unit cell:	Completed after 22 iterations at t[s]:   7132.00
	FillingsUpdate:  mu: -0.171300000  nElectrons: 704.360930  magneticMoment: [ Abs: 0.00000  Tot: +0.00000 ]
ElecMinimize: Iter:   0  G: -3794.293991743914376  |grad|_K:  7.210e-07  alpha:  1.000e+00
	Linear fluid (dielectric constant: 78.4, screening length: 8.12261 Bohr) occupying 0.380062 of unit cell:	Completed after 24 iterations at t[s]:   7290.10
	Linear fluid (dielectric constant: 78.4, screening length: 8.12261 Bohr) occupying 0.380611 of unit cell:	Completed after 24 iterations at t[s]:   7341.87
	FillingsUpdate:  mu: -0.171300000  nElectrons: 704.350199  magneticMoment: [ Abs: 0.00000  Tot: +0.00000 ]
	SubspaceRotationAdjust: set factor to 0.00498
ElecMinimize: Iter:   1  G: -3794.294056951966013  |grad|_K:  3.205e-07  alpha:  1.752e-01  linmin: -1.852e-03  t[s]:   7414.94
	Linear fluid (dielectric constant: 78.4, screening length: 8.12261 Bohr) occupying 0.380644 of unit cell:	Completed after 17 iterations at t[s]:   7486.71
	Linear fluid (dielectric constant: 78.4, screening length: 8.12261 Bohr) occupying 0.380664 of unit cell:	Completed after 14 iterations at t[s]:   7537.10
	FillingsUpdate:  mu: -0.171300000  nElectrons: 704.354435  magneticMoment: [ Abs: 0.00000  Tot: +0.00000 ]
	SubspaceRotationAdjust: set factor to 0.00611
ElecMinimize: Iter:   2  G: -3794.294077661658775  |grad|_K:  1.431e-07  alpha:  2.818e-01  linmin: -2.789e-04  t[s]:   7609.54
	Linear fluid (dielectric constant: 78.4, screening length: 8.12261 Bohr) occupying 0.380672 of unit cell:	Completed after 9 iterations at t[s]:   7679.71
	Linear fluid (dielectric constant: 78.4, screening length: 8.12261 Bohr) occupying 0.380680 of unit cell:	Completed after 9 iterations at t[s]:   7729.13
	FillingsUpdate:  mu: -0.171300000  nElectrons: 704.355351  magneticMoment: [ Abs: 0.00000  Tot: +0.00000 ]
	SubspaceRotationAdjust: set factor to 0.00788
ElecMinimize: Iter:   3  G: -3794.294085255460232  |grad|_K:  9.533e-08  alpha:  5.209e-01  linmin:  8.726e-04  t[s]:   7801.98
	Linear fluid (dielectric constant: 78.4, screening length: 8.12261 Bohr) occupying 0.380683 of unit cell:	Completed after 13 iterations at t[s]:   7873.03
	Linear fluid (dielectric constant: 78.4, screening length: 8.12261 Bohr) occupying 0.380683 of unit cell:	Completed after 2 iterations at t[s]:   7921.13
	FillingsUpdate:  mu: -0.171300000  nElectrons: 704.355185  magneticMoment: [ Abs: 0.00000  Tot: +0.00000 ]
	SubspaceRotationAdjust: set factor to 0.00842
ElecMinimize: Iter:   4  G: -3794.294088908372942  |grad|_K:  9.545e-08  alpha:  5.656e-01  linmin: -3.923e-04  t[s]:   7993.67
	Linear fluid (dielectric constant: 78.4, screening length: 8.12261 Bohr) occupying 0.380751 of unit cell:	Completed after 14 iterations at t[s]:   8064.71
	Linear fluid (dielectric constant: 78.4, screening length: 8.12261 Bohr) occupying 0.380720 of unit cell:	Completed after 13 iterations at t[s]:   8115.09
	FillingsUpdate:  mu: -0.171300000  nElectrons: 704.357918  magneticMoment: [ Abs: 0.00000  Tot: +0.00000 ]
	SubspaceRotationAdjust: set factor to 0.0066
ElecMinimize: Iter:   5  G: -3794.294090975363360  |grad|_K:  9.584e-08  alpha:  3.114e-01  linmin:  3.882e-04  t[s]:   8188.20
	Linear fluid (dielectric constant: 78.4, screening length: 8.12261 Bohr) occupying 0.380721 of unit cell:	Completed after 11 iterations at t[s]:   8258.96
	Linear fluid (dielectric constant: 78.4, screening length: 8.12261 Bohr) occupying 0.380721 of unit cell:	Completed after 3 iterations at t[s]:   8307.18
	FillingsUpdate:  mu: -0.171300000  nElectrons: 704.357566  magneticMoment: [ Abs: 0.00000  Tot: +0.00000 ]
	SubspaceRotationAdjust: set factor to 0.00601
ElecMinimize: Iter:   6  G: -3794.294093250998230  |grad|_K:  6.553e-08  alpha:  3.488e-01  linmin: -1.863e-03  t[s]:   8380.67
	Linear fluid (dielectric constant: 78.4, screening length: 8.12261 Bohr) occupying 0.380730 of unit cell:	Completed after 3 iterations at t[s]:   8449.98
	Linear fluid (dielectric constant: 78.4, screening length: 8.12261 Bohr) occupying 0.380739 of unit cell:	Completed after 8 iterations at t[s]:   8499.52
	FillingsUpdate:  mu: -0.171300000  nElectrons: 704.358882  magneticMoment: [ Abs: 0.00000  Tot: +0.00000 ]
	SubspaceRotationAdjust: set factor to 0.00676
ElecMinimize: Iter:   7  G: -3794.294095310011926  |grad|_K:  5.469e-08  alpha:  6.748e-01  linmin:  2.927e-03  t[s]:   8572.28
	Linear fluid (dielectric constant: 78.4, screening length: 8.12261 Bohr) occupying 0.380749 of unit cell:	Completed after 8 iterations at t[s]:   8642.50
	Linear fluid (dielectric constant: 78.4, screening length: 8.12261 Bohr) occupying 0.380749 of unit cell:	Completed after 0 iterations at t[s]:   8690.23
	FillingsUpdate:  mu: -0.171300000  nElectrons: 704.359822  magneticMoment: [ Abs: 0.00000  Tot: +0.00000 ]
	SubspaceRotationAdjust: set factor to 0.00772
ElecMinimize: Iter:   8  G: -3794.294096721048845  |grad|_K:  4.655e-08  alpha:  6.762e-01  linmin: -3.736e-04  t[s]:   8762.87
	Linear fluid (dielectric constant: 78.4, screening length: 8.12261 Bohr) occupying 0.380749 of unit cell:	Completed after 7 iterations at t[s]:   8832.83
	Linear fluid (dielectric constant: 78.4, screening length: 8.12261 Bohr) occupying 0.380749 of unit cell:	Completed after 0 iterations at t[s]:   8880.52
	FillingsUpdate:  mu: -0.171300000  nElectrons: 704.360210  magneticMoment: [ Abs: 0.00000  Tot: +0.00000 ]
	SubspaceRotationAdjust: set factor to 0.00883
ElecMinimize: Iter:   9  G: -3794.294097801838689  |grad|_K:  4.242e-08  alpha:  6.981e-01  linmin: -3.390e-04  t[s]:   8953.34
	Linear fluid (dielectric constant: 78.4, screening length: 8.12261 Bohr) occupying 0.380766 of unit cell:	Completed after 12 iterations at t[s]:   9024.27
	Linear fluid (dielectric constant: 78.4, screening length: 8.12261 Bohr) occupying 0.380761 of unit cell:	Completed after 7 iterations at t[s]:   9073.45
	FillingsUpdate:  mu: -0.171300000  nElectrons: 704.361467  magneticMoment: [ Abs: 0.00000  Tot: +0.00000 ]
	SubspaceRotationAdjust: set factor to 0.00735
ElecMinimize: Iter:  10  G: -3794.294098446031512  |grad|_K:  5.262e-08  alpha:  4.956e-01  linmin:  1.043e-03  t[s]:   9146.26
	Linear fluid (dielectric constant: 78.4, screening length: 8.12261 Bohr) occupying 0.380738 of unit cell:	Completed after 12 iterations at t[s]:   9217.04
	Linear fluid (dielectric constant: 78.4, screening length: 8.12261 Bohr) occupying 0.380751 of unit cell:	Completed after 11 iterations at t[s]:   9266.66
	FillingsUpdate:  mu: -0.171300000  nElectrons: 704.360839  magneticMoment: [ Abs: 0.00000  Tot: +0.00000 ]
	SubspaceRotationAdjust: set factor to 0.00509
ElecMinimize: Iter:  11  G: -3794.294098885777203  |grad|_K:  3.671e-08  alpha:  2.295e-01  linmin:  1.573e-04  t[s]:   9339.46
	Linear fluid (dielectric constant: 78.4, screening length: 8.12261 Bohr) occupying 0.380753 of unit cell:	Completed after 3 iterations at t[s]:   9408.99
	Linear fluid (dielectric constant: 78.4, screening length: 8.12261 Bohr) occupying 0.380756 of unit cell:	Completed after 7 iterations at t[s]:   9457.85
	FillingsUpdate:  mu: -0.171300000  nElectrons: 704.361457  magneticMoment: [ Abs: 0.00000  Tot: +0.00000 ]
	SubspaceRotationAdjust: set factor to 0.00563
ElecMinimize: Iter:  12  G: -3794.294099445383381  |grad|_K:  3.049e-08  alpha:  6.031e-01  linmin:  2.900e-03  t[s]:   9530.62
	Linear fluid (dielectric constant: 78.4, screening length: 8.12261 Bohr) occupying 0.380759 of unit cell:	Completed after 6 iterations at t[s]:   9600.63
	Linear fluid (dielectric constant: 78.4, screening length: 8.12261 Bohr) occupying 0.380759 of unit cell:	Completed after 0 iterations at t[s]:   9648.28
	FillingsUpdate:  mu: -0.171300000  nElectrons: 704.361782  magneticMoment: [ Abs: 0.00000  Tot: +0.00000 ]
	SubspaceRotationAdjust: set factor to 0.00623
ElecMinimize: Iter:  13  G: -3794.294099842910327  |grad|_K:  2.492e-08  alpha:  6.203e-01  linmin: -9.013e-04  t[s]:   9721.36
	Linear fluid (dielectric constant: 78.4, screening length: 8.12261 Bohr) occupying 0.380759 of unit cell:	Completed after 4 iterations at t[s]:   9790.76
	Linear fluid (dielectric constant: 78.4, screening length: 8.12261 Bohr) occupying 0.380759 of unit cell:	Completed after 0 iterations at t[s]:   9838.61
	FillingsUpdate:  mu: -0.171300000  nElectrons: 704.361643  magneticMoment: [ Abs: 0.00000  Tot: +0.00000 ]
	SubspaceRotationAdjust: set factor to 0.00708
ElecMinimize: Iter:  14  G: -3794.294100139668444  |grad|_K:  2.178e-08  alpha:  6.665e-01  linmin: -5.002e-05  t[s]:   9911.50
	Linear fluid (dielectric constant: 78.4, screening length: 8.12261 Bohr) occupying 0.380759 of unit cell:	Completed after 3 iterations at t[s]:   9980.70
	Linear fluid (dielectric constant: 78.4, screening length: 8.12261 Bohr) occupying 0.380759 of unit cell:	Completed after 0 iterations at t[s]:  10028.38
	FillingsUpdate:  mu: -0.171300000  nElectrons: 704.361497  magneticMoment: [ Abs: 0.00000  Tot: +0.00000 ]
	SubspaceRotationAdjust: set factor to 0.00833
ElecMinimize: Iter:  15  G: -3794.294100369369971  |grad|_K:  1.918e-08  alpha:  6.801e-01  linmin: -4.381e-04  t[s]:  10101.63
	Linear fluid (dielectric constant: 78.4, screening length: 8.12261 Bohr) occupying 0.380761 of unit cell:	Completed after 3 iterations at t[s]:  10170.89
	Linear fluid (dielectric constant: 78.4, screening length: 8.12261 Bohr) occupying 0.380761 of unit cell:	Completed after 0 iterations at t[s]:  10218.97
	FillingsUpdate:  mu: -0.171300000  nElectrons: 704.361478  magneticMoment: [ Abs: 0.00000  Tot: +0.00000 ]
	SubspaceRotationAdjust: set factor to 0.00949
ElecMinimize: Iter:  16  G: -3794.294100550728672  |grad|_K:  1.728e-08  alpha:  6.874e-01  linmin: -6.333e-04  t[s]:  10291.70
	Linear fluid (dielectric constant: 78.4, screening length: 8.12261 Bohr) occupying 0.380757 of unit cell:	Completed after 6 iterations at t[s]:  10361.60
	Linear fluid (dielectric constant: 78.4, screening length: 8.12261 Bohr) occupying 0.380757 of unit cell:	Completed after 0 iterations at t[s]:  10409.29
	FillingsUpdate:  mu: -0.171300000  nElectrons: 704.361019  magneticMoment: [ Abs: 0.00000  Tot: +0.00000 ]
	SubspaceRotationAdjust: set factor to 0.00985
ElecMinimize: Iter:  17  G: -3794.294100699206410  |grad|_K:  1.887e-08  alpha:  6.915e-01  linmin:  1.453e-03  t[s]:  10482.30
	Linear fluid (dielectric constant: 78.4, screening length: 8.12261 Bohr) occupying 0.380766 of unit cell:	Completed after 9 iterations at t[s]:  10552.72
	Linear fluid (dielectric constant: 78.4, screening length: 8.12261 Bohr) occupying 0.380762 of unit cell:	Completed after 8 iterations at t[s]:  10601.93
	FillingsUpdate:  mu: -0.171300000  nElectrons: 704.361264  magneticMoment: [ Abs: 0.00000  Tot: +0.00000 ]
	SubspaceRotationAdjust: set factor to 0.00797
ElecMinimize: Iter:  18  G: -3794.294100786283252  |grad|_K:  2.294e-08  alpha:  3.442e-01  linmin:  9.169e-04  t[s]:  10674.64
	Linear fluid (dielectric constant: 78.4, screening length: 8.12261 Bohr) occupying 0.380754 of unit cell:	Completed after 8 iterations at t[s]:  10744.62
	Linear fluid (dielectric constant: 78.4, screening length: 8.12261 Bohr) occupying 0.380756 of unit cell:	Completed after 2 iterations at t[s]:  10792.77
	FillingsUpdate:  mu: -0.171300000  nElectrons: 704.360753  magneticMoment: [ Abs: 0.00000  Tot: +0.00000 ]
	SubspaceRotationAdjust: set factor to 0.00532
ElecMinimize: Iter:  19  G: -3794.294100880042151  |grad|_K:  1.757e-08  alpha:  2.611e-01  linmin:  1.806e-03  t[s]:  10865.39
ElecMinimize: Converged (|Delta G|<1.000000e-07 for 2 iters).
Setting wave functions to eigenvectors of Hamiltonian
Converging empty states (this may take a while): |deigs|: 4.983e-09

Computing DFT-D3 correction:
# coordination-number Pt 7.050 8.274 7.206 9.373 9.434 9.558 5.926 9.414 9.558 9.496 9.566 9.530 9.573 9.552 9.381 9.552 9.571 9.528 9.452 7.132 9.066 7.152 9.066 9.381 9.453 9.526 9.572 9.551 7.132 9.552 9.569 9.532 9.566 9.496 9.435 9.414 8.274 9.560 9.560 9.373 7.206 5.927 7.049 7.153
# diagonal-C6 Pt 336.87 336.87 336.87 336.87 336.87 336.87 336.87 336.87 336.87 336.87 336.87 336.87 336.87 336.87 336.87 336.87 336.87 336.87 336.87 336.87 336.87 336.87 336.87 336.87 336.87 336.87 336.87 336.87 336.87 336.87 336.87 336.87 336.87 336.87 336.87 336.87 336.87 336.87 336.87 336.87 336.87 336.87 336.87 336.87
EvdW_6 =   -0.421018
EvdW_8 =   -0.658457
IonicMinimize: 	Wolfe criterion not satisfied: alpha: 3  (E-E0)/|gdotd0|: -2.44402  gdotd/gdotd0: 0.909875 (taking cubic step)

Computing DFT-D3 correction:
# coordination-number Pt 7.051 8.276 7.200 9.372 9.431 9.557 5.927 9.410 9.562 9.496 9.564 9.532 9.571 9.553 9.377 9.555 9.571 9.529 9.449 7.128 9.068 7.148 9.068 9.377 9.449 9.529 9.570 9.554 7.129 9.553 9.570 9.533 9.564 9.496 9.430 9.409 8.277 9.559 9.563 9.373 7.199 5.928 7.049 7.149
# diagonal-C6 Pt 336.87 336.87 336.87 336.87 336.87 336.87 336.87 336.87 336.87 336.87 336.87 336.87 336.87 336.87 336.87 336.87 336.87 336.87 336.87 336.87 336.87 336.87 336.87 336.87 336.87 336.87 336.87 336.87 336.87 336.87 336.87 336.87 336.87 336.87 336.87 336.87 336.87 336.87 336.87 336.87 336.87 336.87 336.87 336.87
EvdW_6 =   -0.421008
EvdW_8 =   -0.658429
Shifting auxilliary hamiltonian by 0.000078 to set nElectrons=704.360753

-------- Electronic minimization -----------
	Linear fluid (dielectric constant: 78.4, screening length: 8.12261 Bohr) occupying 0.380728 of unit cell:	Completed after 20 iterations at t[s]:  11151.98
	FillingsUpdate:  mu: -0.171300000  nElectrons: 704.360753  magneticMoment: [ Abs: 0.00000  Tot: +0.00000 ]
ElecMinimize: Iter:   0  G: -3794.294028881549821  |grad|_K:  6.249e-07  alpha:  1.000e+00
	Linear fluid (dielectric constant: 78.4, screening length: 8.12261 Bohr) occupying 0.380103 of unit cell:	Completed after 23 iterations at t[s]:  11309.82
	Linear fluid (dielectric constant: 78.4, screening length: 8.12261 Bohr) occupying 0.380611 of unit cell:	Completed after 23 iterations at t[s]:  11361.74
	FillingsUpdate:  mu: -0.171300000  nElectrons: 704.351086  magneticMoment: [ Abs: 0.00000  Tot: +0.00000 ]
	SubspaceRotationAdjust: set factor to 0.00364
ElecMinimize: Iter:   1  G: -3794.294076924261390  |grad|_K:  2.204e-07  alpha:  1.719e-01  linmin: -2.361e-03  t[s]:  11434.33
	Linear fluid (dielectric constant: 78.4, screening length: 8.12261 Bohr) occupying 0.380625 of unit cell:	Completed after 14 iterations at t[s]:  11505.43
	Linear fluid (dielectric constant: 78.4, screening length: 8.12261 Bohr) occupying 0.380641 of unit cell:	Completed after 14 iterations at t[s]:  11555.83
	FillingsUpdate:  mu: -0.171300000  nElectrons: 704.353217  magneticMoment: [ Abs: 0.00000  Tot: +0.00000 ]
	SubspaceRotationAdjust: set factor to 0.00463
ElecMinimize: Iter:   2  G: -3794.294089441314100  |grad|_K:  1.048e-07  alpha:  3.600e-01  linmin: -5.389e-04  t[s]:  11628.54
	Linear fluid (dielectric constant: 78.4, screening length: 8.12261 Bohr) occupying 0.380651 of unit cell:	Completed after 6 iterations at t[s]:  11698.71
	Linear fluid (dielectric constant: 78.4, screening length: 8.12261 Bohr) occupying 0.380655 of unit cell:	Completed after 6 iterations at t[s]:  11747.73
	FillingsUpdate:  mu: -0.171300000  nElectrons: 704.353885  magneticMoment: [ Abs: 0.00000  Tot: +0.00000 ]
	SubspaceRotationAdjust: set factor to 0.00582
ElecMinimize: Iter:   3  G: -3794.294093505081491  |grad|_K:  7.096e-08  alpha:  5.197e-01  linmin:  5.112e-04  t[s]:  11820.30
	Linear fluid (dielectric constant: 78.4, screening length: 8.12261 Bohr) occupying 0.380663 of unit cell:	Completed after 9 iterations at t[s]:  11890.77
	Linear fluid (dielectric constant: 78.4, screening length: 8.12261 Bohr) occupying 0.380665 of unit cell:	Completed after 4 iterations at t[s]:  11939.37
	FillingsUpdate:  mu: -0.171300000  nElectrons: 704.354097  magneticMoment: [ Abs: 0.00000  Tot: +0.00000 ]
	SubspaceRotationAdjust: set factor to 0.00693
ElecMinimize: Iter:   4  G: -3794.294095775345340  |grad|_K:  6.779e-08  alpha:  6.339e-01  linmin: -3.147e-04  t[s]:  12012.24
	Linear fluid (dielectric constant: 78.4, screening length: 8.12261 Bohr) occupying 0.380701 of unit cell:	Completed after 13 iterations at t[s]:  12083.19
	Linear fluid (dielectric constant: 78.4, screening length: 8.12261 Bohr) occupying 0.380699 of unit cell:	Completed after 0 iterations at t[s]:  12130.88
	FillingsUpdate:  mu: -0.171300000  nElectrons: 704.356242  magneticMoment: [ Abs: 0.00000  Tot: +0.00000 ]
	SubspaceRotationAdjust: set factor to 0.0065
ElecMinimize: Iter:   5  G: -3794.294097751439949  |grad|_K:  7.899e-08  alpha:  6.008e-01  linmin:  3.484e-03  t[s]:  12203.65
	Linear fluid (dielectric constant: 78.4, screening length: 8.12261 Bohr) occupying 0.380694 of unit cell:	Completed after 12 iterations at t[s]:  12275.73
	Linear fluid (dielectric constant: 78.4, screening length: 8.12261 Bohr) occupying 0.380696 of unit cell:	Completed after 11 iterations at t[s]:  12325.56
	FillingsUpdate:  mu: -0.171300000  nElectrons: 704.355587  magneticMoment: [ Abs: 0.00000  Tot: +0.00000 ]
	SubspaceRotationAdjust: set factor to 0.00513
ElecMinimize: Iter:   6  G: -3794.294099089184328  |grad|_K:  7.124e-08  alpha:  3.165e-01  linmin: -9.908e-06  t[s]:  12398.28
[...]
	FillingsUpdate:  mu: -0.171300000  nElectrons: 704.360785  magneticMoment: [ Abs: 0.00000  Tot: +0.00000 ]
	SubspaceRotationAdjust: set factor to 0.0054
ElecMinimize: Iter:  24  G: -3794.294205812415839  |grad|_K:  4.074e-08  alpha:  5.228e-01  linmin:  4.200e-04  t[s]:  77038.28
	Linear fluid (dielectric constant: 78.4, screening length: 8.12261 Bohr) occupying 0.380452 of unit cell:	Completed after 11 iterations at t[s]:  77109.59
	Linear fluid (dielectric constant: 78.4, screening length: 8.12261 Bohr) occupying 0.380448 of unit cell:	Completed after 6 iterations at t[s]:  77158.57
	FillingsUpdate:  mu: -0.171300000  nElectrons: 704.361567  magneticMoment: [ Abs: 0.00000  Tot: +0.00000 ]
	SubspaceRotationAdjust: set factor to 0.00484
ElecMinimize: Iter:  25  G: -3794.294206227057202  |grad|_K:  3.509e-08  alpha:  3.650e-01  linmin: -2.133e-05  t[s]:  77231.20
	Linear fluid (dielectric constant: 78.4, screening length: 8.12261 Bohr) occupying 0.380450 of unit cell:	Completed after 2 iterations at t[s]:  77300.36
	Linear fluid (dielectric constant: 78.4, screening length: 8.12261 Bohr) occupying 0.380451 of unit cell:	Completed after 2 iterations at t[s]:  77348.55
	FillingsUpdate:  mu: -0.171300000  nElectrons: 704.361958  magneticMoment: [ Abs: 0.00000  Tot: +0.00000 ]
	SubspaceRotationAdjust: set factor to 0.00538
ElecMinimize: Iter:  26  G: -3794.294206783904428  |grad|_K:  3.491e-08  alpha:  6.349e-01  linmin: -3.012e-06  t[s]:  77421.49
	Linear fluid (dielectric constant: 78.4, screening length: 8.12261 Bohr) occupying 0.380446 of unit cell:	Completed after 10 iterations at t[s]:  77492.00
	Linear fluid (dielectric constant: 78.4, screening length: 8.12261 Bohr) occupying 0.380447 of unit cell:	Completed after 2 iterations at t[s]:  77540.46
	FillingsUpdate:  mu: -0.171300000  nElectrons: 704.361799  magneticMoment: [ Abs: 0.00000  Tot: +0.00000 ]
	SubspaceRotationAdjust: set factor to 0.00511
ElecMinimize: Iter:  27  G: -3794.294207222318619  |grad|_K:  3.546e-08  alpha:  5.031e-01  linmin:  4.548e-04  t[s]:  77613.31
	Linear fluid (dielectric constant: 78.4, screening length: 8.12261 Bohr) occupying 0.380458 of unit cell:	Completed after 11 iterations at t[s]:  77684.21
	Linear fluid (dielectric constant: 78.4, screening length: 8.12261 Bohr) occupying 0.380454 of unit cell:	Completed after 6 iterations at t[s]:  77733.27
	FillingsUpdate:  mu: -0.171300000  nElectrons: 704.362492  magneticMoment: [ Abs: 0.00000  Tot: +0.00000 ]
	SubspaceRotationAdjust: set factor to 0.00434
ElecMinimize: Iter:  28  G: -3794.294207503328835  |grad|_K:  3.111e-08  alpha:  3.293e-01  linmin:  1.144e-04  t[s]:  77806.24
	Linear fluid (dielectric constant: 78.4, screening length: 8.12261 Bohr) occupying 0.380452 of unit cell:	Completed after 7 iterations at t[s]:  77876.30
	Linear fluid (dielectric constant: 78.4, screening length: 8.12261 Bohr) occupying 0.380451 of unit cell:	Completed after 2 iterations at t[s]:  77924.68
	FillingsUpdate:  mu: -0.171300000  nElectrons: 704.362371  magneticMoment: [ Abs: 0.00000  Tot: +0.00000 ]
	SubspaceRotationAdjust: set factor to 0.00542
ElecMinimize: Iter:  29  G: -3794.294207837013346  |grad|_K:  2.452e-08  alpha:  4.791e-01  linmin: -1.175e-03  t[s]:  77997.99
	Linear fluid (dielectric constant: 78.4, screening length: 8.12261 Bohr) occupying 0.380448 of unit cell:	Completed after 7 iterations at t[s]:  78068.05
	Linear fluid (dielectric constant: 78.4, screening length: 8.12261 Bohr) occupying 0.380447 of unit cell:	Completed after 0 iterations at t[s]:  78115.82
	FillingsUpdate:  mu: -0.171300000  nElectrons: 704.362109  magneticMoment: [ Abs: 0.00000  Tot: +0.00000 ]
	SubspaceRotationAdjust: set factor to 0.00575
ElecMinimize: Iter:  30  G: -3794.294208055834588  |grad|_K:  2.685e-08  alpha:  4.911e-01  linmin: -1.022e-03  t[s]:  78188.61
	Linear fluid (dielectric constant: 78.4, screening length: 8.12261 Bohr) occupying 0.380455 of unit cell:	Completed after 11 iterations at t[s]:  78259.41
	Linear fluid (dielectric constant: 78.4, screening length: 8.12261 Bohr) occupying 0.380453 of unit cell:	Completed after 4 iterations at t[s]:  78307.95
	FillingsUpdate:  mu: -0.171300000  nElectrons: 704.362540  magneticMoment: [ Abs: 0.00000  Tot: +0.00000 ]
	SubspaceRotationAdjust: set factor to 0.00519
ElecMinimize: Iter:  31  G: -3794.294208243491539  |grad|_K:  2.582e-08  alpha:  3.452e-01  linmin:  9.301e-04  t[s]:  78381.15
	Linear fluid (dielectric constant: 78.4, screening length: 8.12261 Bohr) occupying 0.380451 of unit cell:	Completed after 4 iterations at t[s]:  78450.93
	Linear fluid (dielectric constant: 78.4, screening length: 8.12261 Bohr) occupying 0.380450 of unit cell:	Completed after 4 iterations at t[s]:  78499.47
	FillingsUpdate:  mu: -0.171300000  nElectrons: 704.362336  magneticMoment: [ Abs: 0.00000  Tot: +0.00000 ]
	SubspaceRotationAdjust: set factor to 0.00606
ElecMinimize: Iter:  32  G: -3794.294208479173449  |grad|_K:  2.351e-08  alpha:  5.224e-01  linmin: -1.593e-04  t[s]:  78572.73
	Linear fluid (dielectric constant: 78.4, screening length: 8.12261 Bohr) occupying 0.380448 of unit cell:	Completed after 6 iterations at t[s]:  78642.74
	Linear fluid (dielectric constant: 78.4, screening length: 8.12261 Bohr) occupying 0.380448 of unit cell:	Completed after 0 iterations at t[s]:  78690.43
	FillingsUpdate:  mu: -0.171300000  nElectrons: 704.362047  magneticMoment: [ Abs: 0.00000  Tot: +0.00000 ]
	SubspaceRotationAdjust: set factor to 0.00654
ElecMinimize: Iter:  33  G: -3794.294208715069544  |grad|_K:  2.603e-08  alpha:  5.942e-01  linmin: -3.977e-04  t[s]:  78763.21
	Linear fluid (dielectric constant: 78.4, screening length: 8.12261 Bohr) occupying 0.380457 of unit cell:	Completed after 10 iterations at t[s]:  78833.64
	Linear fluid (dielectric constant: 78.4, screening length: 8.12261 Bohr) occupying 0.380454 of unit cell:	Completed after 3 iterations at t[s]:  78882.38
	FillingsUpdate:  mu: -0.171300000  nElectrons: 704.362469  magneticMoment: [ Abs: 0.00000  Tot: +0.00000 ]
	SubspaceRotationAdjust: set factor to 0.00559
ElecMinimize: Iter:  34  G: -3794.294208931797584  |grad|_K:  2.891e-08  alpha:  4.300e-01  linmin:  9.656e-04  t[s]:  78955.20
	Linear fluid (dielectric constant: 78.4, screening length: 8.12261 Bohr) occupying 0.380449 of unit cell:	Completed after 8 iterations at t[s]:  79025.49
	Linear fluid (dielectric constant: 78.4, screening length: 8.12261 Bohr) occupying 0.380450 of unit cell:	Completed after 0 iterations at t[s]:  79073.33
	FillingsUpdate:  mu: -0.171300000  nElectrons: 704.362010  magneticMoment: [ Abs: 0.00000  Tot: +0.00000 ]
	SubspaceRotationAdjust: set factor to 0.00465
ElecMinimize: Iter:  35  G: -3794.294209142006366  |grad|_K:  2.520e-08  alpha:  3.737e-01  linmin:  8.864e-05  t[s]:  79146.13
	Linear fluid (dielectric constant: 78.4, screening length: 8.12261 Bohr) occupying 0.380452 of unit cell:	Completed after 6 iterations at t[s]:  79216.76
	Linear fluid (dielectric constant: 78.4, screening length: 8.12261 Bohr) occupying 0.380453 of unit cell:	Completed after 0 iterations at t[s]:  79264.40
	FillingsUpdate:  mu: -0.171300000  nElectrons: 704.362140  magneticMoment: [ Abs: 0.00000  Tot: +0.00000 ]
	SubspaceRotationAdjust: set factor to 0.00474
ElecMinimize: Iter:  36  G: -3794.294209347125161  |grad|_K:  1.987e-08  alpha:  4.452e-01  linmin: -2.516e-03  t[s]:  79337.40
	Linear fluid (dielectric constant: 78.4, screening length: 8.12261 Bohr) occupying 0.380453 of unit cell:	Completed after 2 iterations at t[s]:  79406.41
	Linear fluid (dielectric constant: 78.4, screening length: 8.12261 Bohr) occupying 0.380453 of unit cell:	Completed after 0 iterations at t[s]:  79454.29
	FillingsUpdate:  mu: -0.171300000  nElectrons: 704.362115  magneticMoment: [ Abs: 0.00000  Tot: +0.00000 ]
	SubspaceRotationAdjust: set factor to 0.00523
ElecMinimize: Iter:  37  G: -3794.294209522491656  |grad|_K:  1.870e-08  alpha:  5.683e-01  linmin: -1.271e-03  t[s]:  79527.26
	Linear fluid (dielectric constant: 78.4, screening length: 8.12261 Bohr) occupying 0.380451 of unit cell:	Completed after 5 iterations at t[s]:  79596.80
	Linear fluid (dielectric constant: 78.4, screening length: 8.12261 Bohr) occupying 0.380451 of unit cell:	Completed after 0 iterations at t[s]:  79644.48
	FillingsUpdate:  mu: -0.171300000  nElectrons: 704.361948  magneticMoment: [ Abs: 0.00000  Tot: +0.00000 ]
	SubspaceRotationAdjust: set factor to 0.00547
ElecMinimize: Iter:  38  G: -3794.294209653744474  |grad|_K:  1.679e-08  alpha:  5.030e-01  linmin:  3.398e-04  t[s]:  79716.86
	Linear fluid (dielectric constant: 78.4, screening length: 8.12261 Bohr) occupying 0.380454 of unit cell:	Completed after 4 iterations at t[s]:  79786.38
	Linear fluid (dielectric constant: 78.4, screening length: 8.12261 Bohr) occupying 0.380454 of unit cell:	Completed after 0 iterations at t[s]:  79834.13
	FillingsUpdate:  mu: -0.171300000  nElectrons: 704.362141  magneticMoment: [ Abs: 0.00000  Tot: +0.00000 ]
	SubspaceRotationAdjust: set factor to 0.0059
ElecMinimize: Iter:  39  G: -3794.294209741623945  |grad|_K:  1.475e-08  alpha:  4.445e-01  linmin:  2.198e-04  t[s]:  79907.02
	Linear fluid (dielectric constant: 78.4, screening length: 8.12261 Bohr) occupying 0.380454 of unit cell:	Completed after 2 iterations at t[s]:  79976.11
	Linear fluid (dielectric constant: 78.4, screening length: 8.12261 Bohr) occupying 0.380454 of unit cell:	Completed after 0 iterations at t[s]:  80023.88
	FillingsUpdate:  mu: -0.171300000  nElectrons: 704.362199  magneticMoment: [ Abs: 0.00000  Tot: +0.00000 ]
	SubspaceRotationAdjust: set factor to 0.00725
ElecMinimize: Iter:  40  G: -3794.294209814620899  |grad|_K:  1.292e-08  alpha:  4.709e-01  linmin: -1.506e-03  t[s]:  80097.07
ElecMinimize: Converged (|Delta G|<1.000000e-07 for 2 iters).
Setting wave functions to eigenvectors of Hamiltonian
Converging empty states (this may take a while): |deigs|: 4.076e-08

Computing DFT-D3 correction:
# coordination-number Pt 7.053 8.279 7.193 9.369 9.427 9.549 5.926 9.398 9.551 9.484 9.552 9.520 9.559 9.538 9.365 9.542 9.560 9.526 9.437 7.118 9.078 7.156 9.076 9.366 9.437 9.526 9.561 9.542 7.119 9.540 9.560 9.521 9.552 9.482 9.425 9.396 8.280 9.549 9.551 9.370 7.193 5.926 7.053 7.156
# diagonal-C6 Pt 336.87 336.87 336.87 336.87 336.87 336.87 336.87 336.87 336.87 336.87 336.87 336.87 336.87 336.87 336.87 336.87 336.87 336.87 336.87 336.87 336.87 336.87 336.87 336.87 336.87 336.87 336.87 336.87 336.87 336.87 336.87 336.87 336.87 336.87 336.87 336.87 336.87 336.87 336.87 336.87 336.87 336.87 336.87 336.87
EvdW_6 =   -0.420770
EvdW_8 =   -0.657890

# Ionic positions in cartesian coordinates:
ion Pt   0.000253534629637  15.366838052880309  68.237437631254309 1
ion Pt   0.000339499150841  22.560879583393309  65.398269010326814 1
ion Pt   0.000152206321678   6.705719199519529  66.760570657027131 1
ion Pt  -0.000073313765073  13.357910375695251  63.424457969307916 1
ion Pt   0.000043592147105  20.217844520434276  60.333878515683033 1
ion Pt  -0.000043132027650  17.868472937593637  55.558928498879453 1
ion Pt  -0.000353906291347   0.354553964521313  35.346210405222017 1
ion Pt   5.232085587925543   4.458632362233478  61.946876885148548 1
ion Pt   5.231943575771620  11.183463841676838  58.745662165258615 1
ion Pt   5.232108619301343   2.209657780664826  57.240845972178661 1
ion Pt   5.231973767444057   8.941288913965565  54.034589176617757 1
ion Pt  -0.000142356134580  15.600683373849151  50.846489906268651 1
ion Pt   0.000006853783848  22.305825502765384  47.706816641146695 1
ion Pt  -0.000102125898049  13.392813109975311  46.153646978311862 1
ion Pt  -0.000193098652252  20.042071114655464  42.826701517433307 1
ion Pt   0.000143838301171  24.541546802076006  52.498563536590176 1
ion Pt   0.000098145881502   6.668669841893888  49.280593628533971 1
ion Pt   5.232125806140500   4.374295817040156  44.586172066653546 1
ion Pt   5.232019383851730  11.171183362979418  41.456148138971685 1
ion Pt   5.231643982423391  17.700396069687564  37.973391573192139 1
ion Pt  -0.000070011013450   2.183793563591415  39.993422980904917 1
ion Pt   5.231872999224308   9.019917122124347  36.607560531488950 1
ion Pt   2.616092654900699  17.894734719370152  64.120501848594230 1
ion Pt   2.616172296575639   0.036285136001176  61.288889167752785 1
ion Pt   2.615967610365212   8.906432627920495  62.659274025611175 1
ion Pt   2.615907912173139  15.704831878982626  59.528766675893323 1
ion Pt   2.616056352992160  22.314344048554922  56.408729553708987 1
ion Pt   2.615934277553456  20.078798812218540  51.617602452465455 1
ion Pt   2.616271199416655   2.377603241882367  66.142459428098363 1
ion Pt   2.616069621315986   6.685614898996845  57.962489125922033 1
ion Pt   2.615905334964020  13.410258950615496  54.835000260051473 1
ion Pt   2.616108607152896   4.478131088108024  53.269521193568259 1
ion Pt   2.615926391245752  11.137163760971884  50.081660547989877 1
ion Pt   2.615891199800690  17.869653920284392  46.875188764003134 1
ion Pt   2.616001402052272  -0.139477718854576  43.781304827337607 1
ion Pt   2.615866464966564  15.619206302832916  42.168953664107242 1
ion Pt   2.615625759987254  22.057981491328995  38.717294519736797 1
ion Pt   2.616117466291962   2.211599572539873  48.556262284244312 1
ion Pt   2.616033145667195   8.894688736782561  45.369712150967580 1
ion Pt   2.616086484902665   6.719810064814697  40.689917348577339 1
ion Pt   2.615821671658032  13.371637566072982  37.355131913050847 1
ion Pt   2.616328555633488  19.721604622394068  68.768564873410980 1
ion Pt   2.615761562184728   4.710026972235076  35.876699006572260 1
ion Pt   2.616144579683672  11.057505092730244  67.507371981936600 1

# Forces in Cartesian coordinates:
force Pt   0.000001701838001  -0.000101785330387   0.000078276404971 1
force Pt   0.000000797541404   0.000021571198319   0.000075362212603 1
force Pt   0.000000694597512  -0.000110938323097   0.000049075875141 1
force Pt   0.000000914315741   0.000029937023579  -0.000040170161363 1
force Pt   0.000000077274566  -0.000017768810125  -0.000016277658801 1
force Pt   0.000000162124298   0.000004053431952  -0.000143178148496 1
force Pt  -0.000001075618613   0.000108648684202  -0.000030519404162 1
force Pt  -0.000000394668428  -0.000045724121114  -0.000070167687913 1
force Pt   0.000000180379937   0.000015071343585  -0.000097962129254 1
force Pt   0.000000393563389  -0.000023519418209  -0.000083299061299 1
force Pt   0.000000323004214  -0.000010028536925  -0.000128497671286 1
force Pt  -0.000000214422360   0.000015496208546  -0.000040255012934 1
force Pt  -0.000000328667780  -0.000021703035717   0.000131285432809 1
force Pt  -0.000000544028796   0.000025002290832   0.000085204711612 1
force Pt  -0.000000751105807  -0.000024752529243  -0.000000521081092 1
force Pt   0.000000189014957   0.000006350453142   0.000008642531961 1
force Pt  -0.000000252483625   0.000038942285946   0.000151765634798 1
force Pt  -0.000000507313597  -0.000061199307382  -0.000023853583082 1
force Pt  -0.000000931399999   0.000006420099977   0.000048566158517 1
force Pt  -0.000000727376355   0.000071043905128  -0.000114075996931 1
force Pt  -0.000000899700456  -0.000011735387345   0.000188136416557 1
force Pt  -0.000001303267539   0.000083941771157   0.000026435628302 1
force Pt   0.000000977014834   0.000029406325972  -0.000090679977092 1
force Pt   0.000000538249214   0.000006440698608  -0.000017652737876 1
force Pt   0.000000306703134  -0.000017262109277  -0.000042439560045 1
force Pt   0.000000317574948   0.000019876053142  -0.000051355929673 1
force Pt   0.000000169565804   0.000018677912202  -0.000096557500714 1
force Pt  -0.000000215697423   0.000002697974250  -0.000095347057489 1
force Pt  -0.000000072490240  -0.000073671633608   0.000109971055756 1
force Pt   0.000000225474968  -0.000033846513066  -0.000120186265491 1
force Pt  -0.000000062328025  -0.000016548637128  -0.000136530796981 1
force Pt   0.000000155802500   0.000013562844825   0.000008891512592 1
force Pt  -0.000000381483524  -0.000011849113540   0.000092314676834 1
force Pt  -0.000000367079025   0.000032127679997   0.000079164873735 1
force Pt  -0.000000114063966   0.000059258245847  -0.000039145676323 1
force Pt  -0.000000410943038   0.000057174546674   0.000072219817579 1
force Pt  -0.000001260864675  -0.000056396744913  -0.000047459445375 1
force Pt  -0.000000226520483  -0.000046196099653   0.000143643316479 1
force Pt  -0.000000438972472   0.000018474760151   0.000073580193894 1
force Pt  -0.000000597731216  -0.000036682647716   0.000047937517616 1
force Pt  -0.000000496418511   0.000114440631325  -0.000060132104073 1
force Pt   0.000001231597373  -0.000102633301130  -0.000008732222393 1
force Pt  -0.000001437618519   0.000109619242503  -0.000111442062334 1
force Pt   0.000002065100591  -0.000095508576216  -0.000029462924820 1

# Energy components:
   A_diel =       -0.1685920651592380
   Eewald =    31513.9448329862352693
       EH =    35176.4052002610624186
     Eloc =   -71283.8218930095317774
      Enl =      -46.4309107228288553
     EvdW =       -1.0786601031578811
      Exc =    -1252.0757010871329840
 Exc_core =      721.2207696232576382
       KE =     1257.0898819625620035
  MuShift =       -0.0283890014570437
-------------------------------------
     Etot =    -3914.9434611561491693
       TS =        0.0079933992776682
-------------------------------------
        F =    -3914.9514545554270626
      muN =     -120.6572447408063198
-------------------------------------
        G =    -3794.2942098146208991


Dumping 'jdft.fillings' ... done
Dumping 'jdft.wfns' ... done
Dumping 'jdft.fluidState' ... done
Dumping 'jdft.ionpos' ... done
Dumping 'jdft.lattice' ... done
Dumping 'jdft.eigenvals' ... done
Dumping 'jdft.eigStats' ... 
	eMin: -2.121341 at state 13 ( [ -0.454545 +0.500000 +0.000000 ] spin 1 )
	HOMO: -0.171321 at state 35 ( [ -0.454545 +0.500000 +0.000000 ] spin -1 )
	mu  : -0.171300
	LUMO: -0.171217 at state 9 ( [ +0.363636 +0.500000 +0.000000 ] spin 1 )
	eMax: +0.128331 at state 29 ( [ +0.272727 +0.500000 +0.000000 ] spin -1 )
	HOMO-LUMO gap: +0.000104
	Optical gap  : +0.000188 at state 35 ( [ -0.454545 +0.500000 +0.000000 ] spin -1 )
Dumping 'jdft.Ecomponents' ... done
IonicMinimize: Iter:   7  G: -3794.294209814620899  |grad|_K:  5.828e-05  alpha:  1.000e+00  linmin: -2.171e-01  t[s]:  80418.38
IonicMinimize: Converged (|grad|_K<1.000000e-04).

#--- Lowdin population analysis ---
# oxidation-state Pt -0.039 -0.047 -0.037 +0.010 +0.013 +0.008 +0.017 +0.015 +0.012 +0.011 +0.010 +0.013 +0.012 +0.014 +0.008 +0.013 +0.007 +0.015 +0.014 -0.004 +0.009 -0.038 +0.008 +0.008 +0.013 +0.015 +0.012 +0.013 -0.005 +0.014 +0.007 +0.013 +0.010 +0.011 +0.013 +0.016 -0.046 +0.008 +0.012 +0.012 -0.036 +0.016 -0.037 -0.039
# magnetic-moments Pt +0.000 +0.000 +0.000 +0.000 +0.000 +0.000 +0.000 +0.000 +0.000 +0.000 +0.000 +0.000 +0.000 +0.000 +0.000 +0.000 +0.000 +0.000 +0.000 +0.000 +0.000 +0.000 +0.000 +0.000 +0.000 +0.000 +0.000 +0.000 +0.000 +0.000 +0.000 +0.000 +0.000 +0.000 +0.000 +0.000 +0.000 +0.000 +0.000 +0.000 +0.000 +0.000 +0.000 +0.000


Dumping 'jdft.n_up' ... done
Dumping 'jdft.n_dn' ... done
Dumping 'jdft.tau_up' ... done
Dumping 'jdft.tau_dn' ... done
Dumping 'jdft.eigenvals' ... done
Dumping 'jdft.eigStats' ... 
	eMin: -2.121341 at state 13 ( [ -0.454545 +0.500000 +0.000000 ] spin 1 )
	HOMO: -0.171321 at state 35 ( [ -0.454545 +0.500000 +0.000000 ] spin -1 )
	mu  : -0.171300
	LUMO: -0.171217 at state 9 ( [ +0.363636 +0.500000 +0.000000 ] spin 1 )
	eMax: +0.128331 at state 29 ( [ +0.272727 +0.500000 +0.000000 ] spin -1 )
	HOMO-LUMO gap: +0.000104
	Optical gap  : +0.000188 at state 35 ( [ -0.454545 +0.500000 +0.000000 ] spin -1 )
Dumping 'jdft.kPts' ... done
Dumping 'jdft.dosUp' ... done.
Dumping 'jdft.dosDn' ... done.
End date and time: Sun Dec 12 11:25:03 2021  (Duration: 0-22:22:11.47)
Done!
