
*************** JDFTx 1.7.0 (git hash 5f12716a) ***************

Start date and time: Sat Sep 10 11:45:53 2022
Executable /home/nisi6161/jdftx_alpine/build/jdftx with command-line: -i in
Running on hosts (process indices):  c3cpu-a2-u13-4.rc.int.colorado.edu (0-23)
Divided in process groups (process indices):  0 (0)  1 (1)  2 (2)  3 (3)  4 (4)  5 (5)  6 (6)  7 (7)  8 (8)  9 (9)  10 (10)  11 (11)  12 (12)  13 (13)  14 (14)  15 (15)  16 (16)  17 (17)  18 (18)  19 (19)  20 (20)  21 (21)  22 (22)  23 (23)
Resource initialization completed at t[s]:      0.00
Run totals: 24 processes, 64 threads, 0 GPUs


Input parsed successfully to the following command list (including defaults):

basis kpoint-dependent
converge-empty-states yes
coords-type Cartesian
core-overlap-check none
coulomb-interaction Periodic
davidson-band-ratio 1.1
density-of-states Etol 1.000000e-06 Esigma 1.000000e-03 \
		Complete \
	Total \
	OrthoOrbital Pt 1   s \
	OrthoOrbital Pt 1   p \
	OrthoOrbital Pt 1   px \
	OrthoOrbital Pt 1   py \
	OrthoOrbital Pt 1   pz \
	OrthoOrbital Pt 1   d \
	OrthoOrbital Pt 1   dxy \
	OrthoOrbital Pt 1   dyz \
	OrthoOrbital Pt 1   dz2 \
	OrthoOrbital Pt 1   dxz \
	OrthoOrbital Pt 1   dx2-y2 \
	OrthoOrbital Pt 2   s \
	OrthoOrbital Pt 2   p \
	OrthoOrbital Pt 2   px \
	OrthoOrbital Pt 2   py \
	OrthoOrbital Pt 2   pz \
	OrthoOrbital Pt 2   d \
	OrthoOrbital Pt 2   dxy \
	OrthoOrbital Pt 2   dyz \
	OrthoOrbital Pt 2   dz2 \
	OrthoOrbital Pt 2   dxz \
	OrthoOrbital Pt 2   dx2-y2 \
	OrthoOrbital Pt 3   s \
	OrthoOrbital Pt 3   p \
	OrthoOrbital Pt 3   px \
	OrthoOrbital Pt 3   py \
	OrthoOrbital Pt 3   pz \
	OrthoOrbital Pt 3   d \
	OrthoOrbital Pt 3   dxy \
	OrthoOrbital Pt 3   dyz \
	OrthoOrbital Pt 3   dz2 \
	OrthoOrbital Pt 3   dxz \
	OrthoOrbital Pt 3   dx2-y2 \
	OrthoOrbital Pt 4   s \
	OrthoOrbital Pt 4   p \
	OrthoOrbital Pt 4   px \
	OrthoOrbital Pt 4   py \
	OrthoOrbital Pt 4   pz \
	OrthoOrbital Pt 4   d \
	OrthoOrbital Pt 4   dxy \
	OrthoOrbital Pt 4   dyz \
	OrthoOrbital Pt 4   dz2 \
	OrthoOrbital Pt 4   dxz \
	OrthoOrbital Pt 4   dx2-y2 \
	OrthoOrbital Pt 5   s \
	OrthoOrbital Pt 5   p \
	OrthoOrbital Pt 5   px \
	OrthoOrbital Pt 5   py \
	OrthoOrbital Pt 5   pz \
	OrthoOrbital Pt 5   d \
	OrthoOrbital Pt 5   dxy \
	OrthoOrbital Pt 5   dyz \
	OrthoOrbital Pt 5   dz2 \
	OrthoOrbital Pt 5   dxz \
	OrthoOrbital Pt 5   dx2-y2 \
	OrthoOrbital Pt 6   s \
	OrthoOrbital Pt 6   p \
	OrthoOrbital Pt 6   px \
	OrthoOrbital Pt 6   py \
	OrthoOrbital Pt 6   pz \
	OrthoOrbital Pt 6   d \
	OrthoOrbital Pt 6   dxy \
	OrthoOrbital Pt 6   dyz \
	OrthoOrbital Pt 6   dz2 \
	OrthoOrbital Pt 6   dxz \
	OrthoOrbital Pt 6   dx2-y2 \
	OrthoOrbital Pt 7   s \
	OrthoOrbital Pt 7   p \
	OrthoOrbital Pt 7   px \
	OrthoOrbital Pt 7   py \
	OrthoOrbital Pt 7   pz \
	OrthoOrbital Pt 7   d \
	OrthoOrbital Pt 7   dxy \
	OrthoOrbital Pt 7   dyz \
	OrthoOrbital Pt 7   dz2 \
	OrthoOrbital Pt 7   dxz \
	OrthoOrbital Pt 7   dx2-y2 \
	OrthoOrbital Pt 8   s \
	OrthoOrbital Pt 8   p \
	OrthoOrbital Pt 8   px \
	OrthoOrbital Pt 8   py \
	OrthoOrbital Pt 8   pz \
	OrthoOrbital Pt 8   d \
	OrthoOrbital Pt 8   dxy \
	OrthoOrbital Pt 8   dyz \
	OrthoOrbital Pt 8   dz2 \
	OrthoOrbital Pt 8   dxz \
	OrthoOrbital Pt 8   dx2-y2 \
	OrthoOrbital Pt 9   s \
	OrthoOrbital Pt 9   p \
	OrthoOrbital Pt 9   px \
	OrthoOrbital Pt 9   py \
	OrthoOrbital Pt 9   pz \
	OrthoOrbital Pt 9   d \
	OrthoOrbital Pt 9   dxy \
	OrthoOrbital Pt 9   dyz \
	OrthoOrbital Pt 9   dz2 \
	OrthoOrbital Pt 9   dxz \
	OrthoOrbital Pt 9   dx2-y2 \
	OrthoOrbital Pt 10   s \
	OrthoOrbital Pt 10   p \
	OrthoOrbital Pt 10   px \
	OrthoOrbital Pt 10   py \
	OrthoOrbital Pt 10   pz \
	OrthoOrbital Pt 10   d \
	OrthoOrbital Pt 10   dxy \
	OrthoOrbital Pt 10   dyz \
	OrthoOrbital Pt 10   dz2 \
	OrthoOrbital Pt 10   dxz \
	OrthoOrbital Pt 10   dx2-y2 \
	OrthoOrbital Pt 11   s \
	OrthoOrbital Pt 11   p \
	OrthoOrbital Pt 11   px \
	OrthoOrbital Pt 11   py \
	OrthoOrbital Pt 11   pz \
	OrthoOrbital Pt 11   d \
	OrthoOrbital Pt 11   dxy \
	OrthoOrbital Pt 11   dyz \
	OrthoOrbital Pt 11   dz2 \
	OrthoOrbital Pt 11   dxz \
	OrthoOrbital Pt 11   dx2-y2 \
	OrthoOrbital Pt 12   s \
	OrthoOrbital Pt 12   p \
	OrthoOrbital Pt 12   px \
	OrthoOrbital Pt 12   py \
	OrthoOrbital Pt 12   pz \
	OrthoOrbital Pt 12   d \
	OrthoOrbital Pt 12   dxy \
	OrthoOrbital Pt 12   dyz \
	OrthoOrbital Pt 12   dz2 \
	OrthoOrbital Pt 12   dxz \
	OrthoOrbital Pt 12   dx2-y2 \
	OrthoOrbital Pt 13   s \
	OrthoOrbital Pt 13   p \
	OrthoOrbital Pt 13   px \
	OrthoOrbital Pt 13   py \
	OrthoOrbital Pt 13   pz \
	OrthoOrbital Pt 13   d \
	OrthoOrbital Pt 13   dxy \
	OrthoOrbital Pt 13   dyz \
	OrthoOrbital Pt 13   dz2 \
	OrthoOrbital Pt 13   dxz \
	OrthoOrbital Pt 13   dx2-y2 \
	OrthoOrbital Pt 14   s \
	OrthoOrbital Pt 14   p \
	OrthoOrbital Pt 14   px \
	OrthoOrbital Pt 14   py \
	OrthoOrbital Pt 14   pz \
	OrthoOrbital Pt 14   d \
	OrthoOrbital Pt 14   dxy \
	OrthoOrbital Pt 14   dyz \
	OrthoOrbital Pt 14   dz2 \
	OrthoOrbital Pt 14   dxz \
	OrthoOrbital Pt 14   dx2-y2 \
	OrthoOrbital Pt 15   s \
	OrthoOrbital Pt 15   p \
	OrthoOrbital Pt 15   px \
	OrthoOrbital Pt 15   py \
	OrthoOrbital Pt 15   pz \
	OrthoOrbital Pt 15   d \
	OrthoOrbital Pt 15   dxy \
	OrthoOrbital Pt 15   dyz \
	OrthoOrbital Pt 15   dz2 \
	OrthoOrbital Pt 15   dxz \
	OrthoOrbital Pt 15   dx2-y2 \
	OrthoOrbital Pt 16   s \
	OrthoOrbital Pt 16   p \
	OrthoOrbital Pt 16   px \
	OrthoOrbital Pt 16   py \
	OrthoOrbital Pt 16   pz \
	OrthoOrbital Pt 16   d \
	OrthoOrbital Pt 16   dxy \
	OrthoOrbital Pt 16   dyz \
	OrthoOrbital Pt 16   dz2 \
	OrthoOrbital Pt 16   dxz \
	OrthoOrbital Pt 16   dx2-y2 \
	OrthoOrbital Pt 17   s \
	OrthoOrbital Pt 17   p \
	OrthoOrbital Pt 17   px \
	OrthoOrbital Pt 17   py \
	OrthoOrbital Pt 17   pz \
	OrthoOrbital Pt 17   d \
	OrthoOrbital Pt 17   dxy \
	OrthoOrbital Pt 17   dyz \
	OrthoOrbital Pt 17   dz2 \
	OrthoOrbital Pt 17   dxz \
	OrthoOrbital Pt 17   dx2-y2 \
	OrthoOrbital Pt 18   s \
	OrthoOrbital Pt 18   p \
	OrthoOrbital Pt 18   px \
	OrthoOrbital Pt 18   py \
	OrthoOrbital Pt 18   pz \
	OrthoOrbital Pt 18   d \
	OrthoOrbital Pt 18   dxy \
	OrthoOrbital Pt 18   dyz \
	OrthoOrbital Pt 18   dz2 \
	OrthoOrbital Pt 18   dxz \
	OrthoOrbital Pt 18   dx2-y2 \
	OrthoOrbital Pt 19   s \
	OrthoOrbital Pt 19   p \
	OrthoOrbital Pt 19   px \
	OrthoOrbital Pt 19   py \
	OrthoOrbital Pt 19   pz \
	OrthoOrbital Pt 19   d \
	OrthoOrbital Pt 19   dxy \
	OrthoOrbital Pt 19   dyz \
	OrthoOrbital Pt 19   dz2 \
	OrthoOrbital Pt 19   dxz \
	OrthoOrbital Pt 19   dx2-y2 \
	OrthoOrbital Pt 20   s \
	OrthoOrbital Pt 20   p \
	OrthoOrbital Pt 20   px \
	OrthoOrbital Pt 20   py \
	OrthoOrbital Pt 20   pz \
	OrthoOrbital Pt 20   d \
	OrthoOrbital Pt 20   dxy \
	OrthoOrbital Pt 20   dyz \
	OrthoOrbital Pt 20   dz2 \
	OrthoOrbital Pt 20   dxz \
	OrthoOrbital Pt 20   dx2-y2 \
	OrthoOrbital Pt 21   s \
	OrthoOrbital Pt 21   p \
	OrthoOrbital Pt 21   px \
	OrthoOrbital Pt 21   py \
	OrthoOrbital Pt 21   pz \
	OrthoOrbital Pt 21   d \
	OrthoOrbital Pt 21   dxy \
	OrthoOrbital Pt 21   dyz \
	OrthoOrbital Pt 21   dz2 \
	OrthoOrbital Pt 21   dxz \
	OrthoOrbital Pt 21   dx2-y2 \
	OrthoOrbital Pt 22   s \
	OrthoOrbital Pt 22   p \
	OrthoOrbital Pt 22   px \
	OrthoOrbital Pt 22   py \
	OrthoOrbital Pt 22   pz \
	OrthoOrbital Pt 22   d \
	OrthoOrbital Pt 22   dxy \
	OrthoOrbital Pt 22   dyz \
	OrthoOrbital Pt 22   dz2 \
	OrthoOrbital Pt 22   dxz \
	OrthoOrbital Pt 22   dx2-y2 \
	OrthoOrbital Pt 23   s \
	OrthoOrbital Pt 23   p \
	OrthoOrbital Pt 23   px \
	OrthoOrbital Pt 23   py \
	OrthoOrbital Pt 23   pz \
	OrthoOrbital Pt 23   d \
	OrthoOrbital Pt 23   dxy \
	OrthoOrbital Pt 23   dyz \
	OrthoOrbital Pt 23   dz2 \
	OrthoOrbital Pt 23   dxz \
	OrthoOrbital Pt 23   dx2-y2 \
	OrthoOrbital Pt 24   s \
	OrthoOrbital Pt 24   p \
	OrthoOrbital Pt 24   px \
	OrthoOrbital Pt 24   py \
	OrthoOrbital Pt 24   pz \
	OrthoOrbital Pt 24   d \
	OrthoOrbital Pt 24   dxy \
	OrthoOrbital Pt 24   dyz \
	OrthoOrbital Pt 24   dz2 \
	OrthoOrbital Pt 24   dxz \
	OrthoOrbital Pt 24   dx2-y2 \
	OrthoOrbital Pt 25   s \
	OrthoOrbital Pt 25   p \
	OrthoOrbital Pt 25   px \
	OrthoOrbital Pt 25   py \
	OrthoOrbital Pt 25   pz \
	OrthoOrbital Pt 25   d \
	OrthoOrbital Pt 25   dxy \
	OrthoOrbital Pt 25   dyz \
	OrthoOrbital Pt 25   dz2 \
	OrthoOrbital Pt 25   dxz \
	OrthoOrbital Pt 25   dx2-y2 \
	OrthoOrbital Pt 26   s \
	OrthoOrbital Pt 26   p \
	OrthoOrbital Pt 26   px \
	OrthoOrbital Pt 26   py \
	OrthoOrbital Pt 26   pz \
	OrthoOrbital Pt 26   d \
	OrthoOrbital Pt 26   dxy \
	OrthoOrbital Pt 26   dyz \
	OrthoOrbital Pt 26   dz2 \
	OrthoOrbital Pt 26   dxz \
	OrthoOrbital Pt 26   dx2-y2 \
	OrthoOrbital Pt 27   s \
	OrthoOrbital Pt 27   p \
	OrthoOrbital Pt 27   px \
	OrthoOrbital Pt 27   py \
	OrthoOrbital Pt 27   pz \
	OrthoOrbital Pt 27   d \
	OrthoOrbital Pt 27   dxy \
	OrthoOrbital Pt 27   dyz \
	OrthoOrbital Pt 27   dz2 \
	OrthoOrbital Pt 27   dxz \
	OrthoOrbital Pt 27   dx2-y2 \
	OrthoOrbital Pt 28   s \
	OrthoOrbital Pt 28   p \
	OrthoOrbital Pt 28   px \
	OrthoOrbital Pt 28   py \
	OrthoOrbital Pt 28   pz \
	OrthoOrbital Pt 28   d \
	OrthoOrbital Pt 28   dxy \
	OrthoOrbital Pt 28   dyz \
	OrthoOrbital Pt 28   dz2 \
	OrthoOrbital Pt 28   dxz \
	OrthoOrbital Pt 28   dx2-y2 \
	OrthoOrbital Pt 29   s \
	OrthoOrbital Pt 29   p \
	OrthoOrbital Pt 29   px \
	OrthoOrbital Pt 29   py \
	OrthoOrbital Pt 29   pz \
	OrthoOrbital Pt 29   d \
	OrthoOrbital Pt 29   dxy \
	OrthoOrbital Pt 29   dyz \
	OrthoOrbital Pt 29   dz2 \
	OrthoOrbital Pt 29   dxz \
	OrthoOrbital Pt 29   dx2-y2 \
	OrthoOrbital Pt 30   s \
	OrthoOrbital Pt 30   p \
	OrthoOrbital Pt 30   px \
	OrthoOrbital Pt 30   py \
	OrthoOrbital Pt 30   pz \
	OrthoOrbital Pt 30   d \
	OrthoOrbital Pt 30   dxy \
	OrthoOrbital Pt 30   dyz \
	OrthoOrbital Pt 30   dz2 \
	OrthoOrbital Pt 30   dxz \
	OrthoOrbital Pt 30   dx2-y2 \
	OrthoOrbital Pt 31   s \
	OrthoOrbital Pt 31   p \
	OrthoOrbital Pt 31   px \
	OrthoOrbital Pt 31   py \
	OrthoOrbital Pt 31   pz \
	OrthoOrbital Pt 31   d \
	OrthoOrbital Pt 31   dxy \
	OrthoOrbital Pt 31   dyz \
	OrthoOrbital Pt 31   dz2 \
	OrthoOrbital Pt 31   dxz \
	OrthoOrbital Pt 31   dx2-y2 \
	OrthoOrbital Pt 32   s \
	OrthoOrbital Pt 32   p \
	OrthoOrbital Pt 32   px \
	OrthoOrbital Pt 32   py \
	OrthoOrbital Pt 32   pz \
	OrthoOrbital Pt 32   d \
	OrthoOrbital Pt 32   dxy \
	OrthoOrbital Pt 32   dyz \
	OrthoOrbital Pt 32   dz2 \
	OrthoOrbital Pt 32   dxz \
	OrthoOrbital Pt 32   dx2-y2 \
	OrthoOrbital Pt 33   s \
	OrthoOrbital Pt 33   p \
	OrthoOrbital Pt 33   px \
	OrthoOrbital Pt 33   py \
	OrthoOrbital Pt 33   pz \
	OrthoOrbital Pt 33   d \
	OrthoOrbital Pt 33   dxy \
	OrthoOrbital Pt 33   dyz \
	OrthoOrbital Pt 33   dz2 \
	OrthoOrbital Pt 33   dxz \
	OrthoOrbital Pt 33   dx2-y2 \
	OrthoOrbital Pt 34   s \
	OrthoOrbital Pt 34   p \
	OrthoOrbital Pt 34   px \
	OrthoOrbital Pt 34   py \
	OrthoOrbital Pt 34   pz \
	OrthoOrbital Pt 34   d \
	OrthoOrbital Pt 34   dxy \
	OrthoOrbital Pt 34   dyz \
	OrthoOrbital Pt 34   dz2 \
	OrthoOrbital Pt 34   dxz \
	OrthoOrbital Pt 34   dx2-y2
dump End ElecDensity KEdensity BandEigs EigStats RhoAtom DOS Kpoints
dump Ionic State IonicPositions Lattice EigStats Ecomponents
dump 
dump 
dump 
dump 
dump 
dump 
dump 
dump 
dump-name jdft.$VAR
elec-cutoff 20
elec-eigen-algo Davidson
elec-ex-corr gga-PBE
elec-initial-magnetization 0.000000 no
elec-n-bands 327
elec-smearing Fermi 0.001
electronic-minimize  \
	dirUpdateScheme      FletcherReeves \
	linminMethod         DirUpdateRecommended \
	nIterations          100 \
	history              15 \
	knormThreshold       0 \
	energyDiffThreshold  1e-07 \
	nEnergyDiff          2 \
	alphaTstart          1 \
	alphaTmin            1e-10 \
	updateTestStepSize   yes \
	alphaTreduceFactor   0.1 \
	alphaTincreaseFactor 3 \
	nAlphaAdjustMax      3 \
	wolfeEnergy          0.0001 \
	wolfeGradient        0.9 \
	fdTest               no
exchange-regularization WignerSeitzTruncated
fluid LinearPCM 298.000000 1.013250
fluid-anion F- 0.5 MeanFieldLJ \
	epsBulk 1 \
	pMol 0 \
	epsInf 1 \
	Pvap 0 \
	sigmaBulk 0 \
	Rvdw 2.24877 \
	Res 0 \
	tauNuc 343133
fluid-cation Na+ 0.5 MeanFieldLJ \
	epsBulk 1 \
	pMol 0 \
	epsInf 1 \
	Pvap 0 \
	sigmaBulk 0 \
	Rvdw 2.19208 \
	Res 0 \
	tauNuc 343133
fluid-ex-corr lda-TF lda-PZ
fluid-gummel-loop 10 1.000000e-05
fluid-minimize  \
	dirUpdateScheme      PolakRibiere \
	linminMethod         DirUpdateRecommended \
	nIterations          400 \
	history              15 \
	knormThreshold       1e-11 \
	energyDiffThreshold  0 \
	nEnergyDiff          2 \
	alphaTstart          1 \
	alphaTmin            1e-10 \
	updateTestStepSize   yes \
	alphaTreduceFactor   0.1 \
	alphaTincreaseFactor 3 \
	nAlphaAdjustMax      6 \
	wolfeEnergy          0.0001 \
	wolfeGradient        0.9 \
	fdTest               no
fluid-solvent H2O 55.338 ScalarEOS \
	epsBulk 78.4 \
	pMol 0.92466 \
	epsInf 1.77 \
	Pvap 1.06736e-10 \
	sigmaBulk 4.62e-05 \
	Rvdw 2.61727 \
	Res 1.42 \
	tauNuc 343133 \
	poleEl 15 7 1
forces-output-coords Positions
initial-state jdft.$VAR
ion Pt  -0.000999000000000  12.444862000000004   1.388580000000000 1
ion Pt   5.231101000000000  16.562279000000004   5.112693000000000 1
ion Pt   5.232932000000001  21.903696000000004  29.779174999999999 1
ion Pt   5.230813000000000   3.756258000000001   2.906024000000000 1
ion Pt   5.231279000000001   7.571774000000001   6.749421000000000 1
ion Pt   5.231535000000000  11.435095000000004  10.396471999999999 1
ion Pt   0.000277000000000  18.996277000000003  17.491360000000000 1
ion Pt   5.231201000000000  20.404157000000005   8.470594000000000 1
ion Pt   5.231849000000001   2.544404000000001  12.041925000000001 1
ion Pt   5.232169000000000   6.333732000000002  15.659872000000000 1
ion Pt   0.000303000000000  10.171295000000002  19.299112999999998 1
ion Pt   0.000816000000000  13.982540000000002  23.028961000000002 1
ion Pt   5.231698000000000  15.252919000000004  13.946936000000001 1
ion Pt   5.232692000000000   1.193151000000000  21.007228999999999 1
ion Pt   0.000816000000000   5.101665000000001  24.551774000000005 1
ion Pt   0.001025000000000   9.010006000000002  28.337329000000000 1
ion Pt   5.233021000000000  17.732456000000003  26.873518000000001 1
ion Pt   2.615234000000000  12.027420000000003   5.955921000000000 1
ion Pt   2.615323000000000  15.939235000000004   9.500588000000000 1
ion Pt   2.614826000000000  20.967964000000002   3.633079000000000 1
ion Pt   2.615234000000000   3.147300000000000   7.478062000000001 1
ion Pt   2.615731000000000   6.961738000000002  11.207972000000000 1
ion Pt   2.615872000000000  10.800336000000003  14.847334999999999 1
ion Pt   2.616757000000000  18.298291000000003  22.036429999999999 1
ion Pt   2.615742000000000  19.709687000000002  13.016457000000001 1
ion Pt   2.616348000000000   1.881947000000000  16.560880999999998 1
ion Pt   2.616542000000000   5.698715000000002  20.111284000000005 1
ion Pt   2.616793000000000   9.558713000000001  23.758334999999999 1
ion Pt   2.617044000000000  13.372525000000001  27.601427000000001 1
ion Pt   2.616212000000000  14.589104000000004  18.465038000000003 1
ion Pt   2.616872000000000   0.565965000000000  25.395123999999999 1
ion Pt   2.616955000000000   4.682670000000001  29.119054000000002 1
ion Pt   2.614925000000000   8.118066000000002   2.170609000000000 1
ion Pt   2.614967000000000  16.795020000000005   0.729069000000000 1
ion-species /projects/musgravc/apps/jdftx-1.6.0/build/pseudopotentials/GBRV_v1.5/$ID_pbe_v1.uspp
ion-species /projects/musgravc/apps/jdftx-1.6.0/build/pseudopotentials/GBRV_v1.5/$ID_pbe_v1.2.uspp
ion-species /projects/musgravc/apps/jdftx-1.6.0/build/pseudopotentials/GBRV_v1.5/$ID_pbe_v1.4.uspp
ion-species /projects/musgravc/apps/jdftx-1.6.0/build/pseudopotentials/GBRV_v1.5/$ID_pbe_v1.5.uspp
ion-width Ecut
ionic-minimize  \
	dirUpdateScheme      L-BFGS \
	linminMethod         DirUpdateRecommended \
	nIterations          100 \
	history              15 \
	knormThreshold       0.0001 \
	energyDiffThreshold  0.0001 \
	nEnergyDiff          2 \
	alphaTstart          1 \
	alphaTmin            1e-10 \
	updateTestStepSize   yes \
	alphaTreduceFactor   0.1 \
	alphaTincreaseFactor 3 \
	nAlphaAdjustMax      3 \
	wolfeEnergy          0.0001 \
	wolfeGradient        0.9 \
	fdTest               no
kpoint   0.000000000000   0.000000000000   0.000000000000  1.00000000000000
kpoint-folding 11 2 1 
latt-move-scale 0 0 0
latt-scale 1 1 1 
lattice  \
	   5.231996000000000   -0.000000000000000    0.000000000000000  \
	   0.000000000000000   21.572068000000002    0.000000000000000  \
	   0.000000000000000    0.000000000000000   61.015023999999997 
lattice-minimize  \
	dirUpdateScheme      L-BFGS \
	linminMethod         DirUpdateRecommended \
	nIterations          0 \
	history              15 \
	knormThreshold       0 \
	energyDiffThreshold  1e-06 \
	nEnergyDiff          2 \
	alphaTstart          1 \
	alphaTmin            1e-10 \
	updateTestStepSize   yes \
	alphaTreduceFactor   0.1 \
	alphaTincreaseFactor 3 \
	nAlphaAdjustMax      3 \
	wolfeEnergy          0.0001 \
	wolfeGradient        0.9 \
	fdTest               no
lcao-params 30 1e-06 0.001
pcm-variant CANDLE
spintype z-spin
subspace-rotation-factor 1 yes
symmetries automatic
symmetry-threshold 0.0001
target-mu -0.208 no

van-der-waals D3



---------- Setting up symmetries ----------

Found 8 point-group symmetries of the bravais lattice
Found 1 space-group symmetries with basis
Applied RMS atom displacement 0 bohrs to make symmetries exact.

---------- Initializing the Grid ----------
R = 
[        5.232            0            0  ]
[            0      21.5721            0  ]
[            0            0       61.015  ]
unit cell volume = 6886.46
G =
[    1.20092          0         -0  ]
[          0   0.291265          0  ]
[          0         -0   0.102978  ]
Minimum fftbox size, Smin = [  24  88  248  ]
Chosen fftbox size, S = [  24  90  250  ]

---------- Exchange Correlation functional ----------
Initalized PBE GGA exchange.
Initalized PBE GGA correlation.

---------- Setting up pseudopotentials ----------
Width of ionic core gaussian charges (only for fluid interactions / plotting) set to 0.397384

Reading pseudopotential file '/projects/musgravc/apps/jdftx-1.6.0/build/pseudopotentials/GBRV_v1.5/pt_pbe_v1.4.uspp':
  Title: Pt.  Created by USPP 7.3.6 on 31-3-15
  Reference state energy: -105.002503.  16 valence electrons in orbitals:
    |510>  occupation: 6  eigenvalue: -2.158104
    |520>  occupation: 9.5  eigenvalue: -0.335376
    |600>  occupation: 0  eigenvalue: -0.319640
    |610>  occupation: 0  eigenvalue: -0.122947
  lMax: 2  lLocal: 3  QijEcut: 5.5
  6 projectors sampled on a log grid with 745 points:
    l: 0  eig: -0.319640  rCut: 2.45
    l: 0  eig: 1.500000  rCut: 2.45
    l: 1  eig: -2.158104  rCut: 1.6
    l: 1  eig: -0.122947  rCut: 1.6
    l: 2  eig: -0.500000  rCut: 1.6
    l: 2  eig: -0.335375  rCut: 1.6
  Partial core density with radius 1.1
  Transforming core density to a uniform radial grid of dG=0.02 with 1173 points.
  Transforming local potential to a uniform radial grid of dG=0.02 with 1173 points.
  Transforming nonlocal projectors to a uniform radial grid of dG=0.02 with 432 points.
  Transforming density augmentations to a uniform radial grid of dG=0.02 with 1173 points.
  Transforming atomic orbitals to a uniform radial grid of dG=0.02 with 432 points.
  Core radius for overlap checks: 2.45 bohrs.

Initialized 1 species with 34 total atoms.

Folded 1 k-points by 11x2x1 to 22 k-points.

---------- Setting up k-points, bands, fillings ----------
Adding inversion symmetry to k-mesh for non-inversion-symmetric unit cell.
Reduced to 12 k-points under symmetry. 
Computing the number of bands and number of electrons
Reading initial fillings from file jdft.fillings.
nElectrons: 543.369229   nBands: 327   nStates: 24

----- Setting up reduced wavefunction bases (one per k-point) -----
average nbasis = 29423.773 , ideal nbasis = 29419.478

----- Initializing Supercell corresponding to k-point mesh -----
Lattice vector linear combinations in supercell:
[  11   0   0  ]
[   0   2   0  ]
[   0   0   1  ]
Supercell lattice vectors:
[  57.552  0  0  ]
[  0  43.1441  0  ]
[  0  0  61.015  ]

Initializing DFT-D3 calculator:
	Parameters set for gga-PBE functional
	s6:  1.000  s_r6:  1.217
	s8:  0.722  s_r8:  1.000
	Per-atom parameters loaded for:
	Pt:  sqrtQ[a0]:  5.888  Rcov[a0]:  2.116  CN: [ 0.00 1.92 6.67 ]

Initializing DFT-D2 calculator for fluid / solvation:
	Pt:  C6:  815.23 Eh-a0^6  R0: 3.326 a0 (WARNING: beyond Grimme's data set)

---------- Setting up ewald sum ----------
Optimum gaussian width for ewald sums = 4.216922 bohr.
Real space sum over 665 unit cells with max indices [  9  3  2  ]
Reciprocal space sum over 6251 terms with max indices [  3  9  23  ]

Computing DFT-D3 correction:
# coordination-number Pt 7.089 9.382 5.909 7.123 9.382 9.529 9.574 9.254 9.546 9.572 9.546 9.376 9.578 9.572 9.310 7.126 7.522 9.311 9.574 7.520 9.375 9.545 9.572 9.254 9.574 9.577 9.529 9.382 7.123 9.547 9.382 7.088 7.128 5.910
# diagonal-C6 Pt 336.87 336.87 336.87 336.87 336.87 336.87 336.87 336.87 336.87 336.87 336.87 336.87 336.87 336.87 336.87 336.87 336.87 336.87 336.87 336.87 336.87 336.87 336.87 336.87 336.87 336.87 336.87 336.87 336.87 336.87 336.87 336.87 336.87 336.87
EvdW_6 =   -0.316099
EvdW_8 =   -0.498881

---------- Allocating electronic variables ----------
Initializing wave functions:  reading from 'jdft.wfns'
----- createFluidSolver() ----- (Fluid-side solver setup)
   Initializing fluid molecule 'H2O'
     Initializing site 'O'
       Electron density: proportional to exp(-r/0.36935)*erfc((r-0.51523)/0.36823) with norm 6.826
       Charge density: gaussian nuclear width 0.478731 with net site charge 0.826
       Polarizability: cuspless exponential with width 0.32 and norm 3.73
       Hard sphere radius: 2.57003 bohrs
       Positions in reference frame:
         [ +0.000000 +0.000000 +0.000000 ]
     Initializing site 'H'
       Electron density: proportional to exp(-r/0.34641)*erfc((r-0)/0.390882) with norm 0.587
       Charge density: gaussian nuclear width 0.377945 with net site charge -0.413
       Polarizability: cuspless exponential with width 0.39 and norm 3.3
       Positions in reference frame:
         [ +0.000000 -1.441945 +1.122523 ]
         [ +0.000000 +1.441945 +1.122523 ]
     Net charge: 0   dipole magnitude: 0.927204
     Initializing spherical shell mfKernel with radius 2.61727 Bohr
     deltaS corrections:
       site 'O': -7.54299
       site 'H': -6.83917
   Initializing fluid molecule 'Na+'
     Initializing site 'Na'
       Electron density: proportional to exp(-r/0.19682)*erfc((r-0.71491)/0.41314) with norm 8.1383
       Charge density: gaussian nuclear width 0.365347 with net site charge -1
       Hard sphere radius: 1.86327 bohrs
       Positions in reference frame:
         [ +0.000000 +0.000000 +0.000000 ]
     Net charge: -1   dipole magnitude: 0
     Initializing gaussian mfKernel with width: 1.55004 Bohr
     deltaS corrections:
       site 'Na': -22.3555
   Initializing fluid molecule 'F-'
     Initializing site 'F'
       Electron density: proportional to exp(-r/0.38886)*erfc((r-0)/0.438782) with norm 8
       Charge density: gaussian nuclear width 0.374796 with net site charge 1
       Hard sphere radius: 2.39995 bohrs
       Positions in reference frame:
         [ +0.000000 +0.000000 +0.000000 ]
     Net charge: 1   dipole magnitude: 0
     Initializing gaussian mfKernel with width: 1.59012 Bohr
     deltaS corrections:
       site 'F': -9.04335

Correction to mu due to finite nuclear width = -0.0783795
   Cavity determined by nc: 0.00142 and sigma: 0.707107
   Nonlocal vdW cavity from gaussian model electron density with norm = 8 and sigma = 0.993594 bohr
   Charge asymmetry in cavity with sensitivity pCavity = 36.5 e-bohr/Eh
   Electrostatic cavity expanded by eta = 1.46 bohrs
   Weighted density cavitation model constrained by Nbulk: 0.0049383 bohr^-3, Pvap: 3.14029 kPa, Rvdw: 2.61727 bohr and sigmaBulk: 4.62e-05 Eh/bohr^2 at T: 298 K.
   Weighted density dispersion model using vdW pair potentials with single solvent site with sqrtC6eff: 0.77 SI.
Reading fluid state from 'jdft.fluidState'


---- Citations for features of the code used in this run ----

   Software package:
      R. Sundararaman, K. Letchworth-Weaver, K.A. Schwarz, D. Gunceler, Y. Ozhabes and T.A. Arias, 'JDFTx: software for joint density-functional theory', SoftwareX 6, 278 (2017)

   gga-PBE exchange-correlation functional:
      J.P. Perdew, K. Burke and M. Ernzerhof, Phys. Rev. Lett. 77, 3865 (1996)

   Pseudopotentials:
      KF Garrity, JW Bennett, KM Rabe and D Vanderbilt, Comput. Mater. Sci. 81, 446 (2014)

   DFT-D3 dispersion correction:
      S. Grimme, J. Antony, S. Ehrlich and H. Krieg, J. Chem. Phys. 132, 154104 (2010)

   DFT-D2 dispersion correction:
      S. Grimme, J. Comput. Chem. 27, 1787 (2006)

   Charge-asymmetric nonlocally-determined local-electric (CANDLE) solvation model:
      R. Sundararaman and W.A. Goddard III, J. Chem. Phys. 142, 064107 (2015)

   Total energy minimization with Auxiliary Hamiltonian:
      C. Freysoldt, S. Boeck, and J. Neugebauer, Phys. Rev. B 79, 241103(R) (2009)

   Grand-canonical (fixed-potential) DFT:
      R. Sundararaman, W. A. Goddard III and T. A. Arias, J. Chem. Phys. 146, 114104 (2017)

   Linear-tetrahedron sampling for density of states:
      G. Lehmann and M. Taut, Phys. status solidi (b) 54, 469 (1972)

This list may not be complete. Please suggest additional citations or
report any other bugs at https://github.com/shankar1729/jdftx/issues

Initialization completed successfully at t[s]:     24.73


Computing DFT-D3 correction:
# coordination-number Pt 7.089 9.382 5.909 7.123 9.382 9.529 9.574 9.254 9.546 9.572 9.546 9.376 9.578 9.572 9.310 7.126 7.522 9.311 9.574 7.520 9.375 9.545 9.572 9.254 9.574 9.577 9.529 9.382 7.123 9.547 9.382 7.088 7.128 5.910
# diagonal-C6 Pt 336.87 336.87 336.87 336.87 336.87 336.87 336.87 336.87 336.87 336.87 336.87 336.87 336.87 336.87 336.87 336.87 336.87 336.87 336.87 336.87 336.87 336.87 336.87 336.87 336.87 336.87 336.87 336.87 336.87 336.87 336.87 336.87 336.87 336.87
EvdW_6 =   -0.316099
EvdW_8 =   -0.498881
Shifting auxilliary hamiltonian by 0.036724 to set nElectrons=543.369229

-------- Electronic minimization -----------
	Linear fluid (dielectric constant: 78.4, screening length: 8.12261 Bohr) occupying 0.373868 of unit cell:	Completed after 21 iterations at t[s]:     46.43
	FillingsUpdate:  mu: -0.208000000  nElectrons: 543.369229  magneticMoment: [ Abs: 0.00171  Tot: -0.00166 ]
ElecMinimize: Iter:   0  G: -2911.881938349136362  |grad|_K:  7.166e-05  alpha:  1.000e+00
	Linear fluid (dielectric constant: 78.4, screening length: 8.12261 Bohr) occupying 0.428490 of unit cell:	Completed after 33 iterations at t[s]:    148.11
	Linear fluid (dielectric constant: 78.4, screening length: 8.12261 Bohr) occupying 0.374502 of unit cell:	Completed after 33 iterations at t[s]:    185.98
ElecMinimize: 	Step increased G by 8.466771e-02, reducing alpha to 1.265077e-03.
	Linear fluid (dielectric constant: 78.4, screening length: 8.12261 Bohr) occupying 0.373861 of unit cell:	Completed after 24 iterations at t[s]:    268.07
	FillingsUpdate:  mu: -0.208000000  nElectrons: 543.436780  magneticMoment: [ Abs: 0.00170  Tot: -0.00166 ]
	SubspaceRotationAdjust: set factor to 1
ElecMinimize: Iter:   1  G: -2911.883781161918705  |grad|_K:  3.364e-05  alpha:  1.265e-03  linmin: -1.106e-02  t[s]:    315.94
	Linear fluid (dielectric constant: 78.4, screening length: 8.12261 Bohr) occupying 0.373853 of unit cell:	Completed after 16 iterations at t[s]:    361.05
ElecMinimize: 	Predicted alpha/alphaT>3.000000, increasing alphaT to 3.795230e-03.
	Linear fluid (dielectric constant: 78.4, screening length: 8.12261 Bohr) occupying 0.373837 of unit cell:	Completed after 18 iterations at t[s]:    395.36
	Linear fluid (dielectric constant: 78.4, screening length: 8.12261 Bohr) occupying 0.373813 of unit cell:	Completed after 18 iterations at t[s]:    430.11
	FillingsUpdate:  mu: -0.208000000  nElectrons: 543.518215  magneticMoment: [ Abs: 0.00170  Tot: -0.00165 ]
	SubspaceRotationAdjust: set factor to 0.54
ElecMinimize: Iter:   2  G: -2911.886215686126434  |grad|_K:  8.604e-05  alpha:  7.541e-03  linmin: -1.124e-04  t[s]:    477.76
	Linear fluid (dielectric constant: 78.4, screening length: 8.12261 Bohr) occupying 0.373473 of unit cell:	Completed after 25 iterations at t[s]:    524.83
	Linear fluid (dielectric constant: 78.4, screening length: 8.12261 Bohr) occupying 0.373622 of unit cell:	Completed after 23 iterations at t[s]:    561.00
	FillingsUpdate:  mu: -0.208000000  nElectrons: 543.518561  magneticMoment: [ Abs: 0.00167  Tot: -0.00162 ]
	SubspaceRotationAdjust: set factor to 0.286
ElecMinimize: Iter:   3  G: -2911.893448626115060  |grad|_K:  8.039e-05  alpha:  4.235e-03  linmin:  8.472e-05  t[s]:    608.74
	Linear fluid (dielectric constant: 78.4, screening length: 8.12261 Bohr) occupying 0.373445 of unit cell:	Completed after 23 iterations at t[s]:    655.53
	Linear fluid (dielectric constant: 78.4, screening length: 8.12261 Bohr) occupying 0.373537 of unit cell:	Completed after 20 iterations at t[s]:    691.27
	FillingsUpdate:  mu: -0.208000000  nElectrons: 543.428893  magneticMoment: [ Abs: 0.00166  Tot: -0.00161 ]
	SubspaceRotationAdjust: set factor to 0.2
ElecMinimize: Iter:   4  G: -2911.896511156629913  |grad|_K:  3.183e-05  alpha:  2.041e-03  linmin: -5.950e-05  t[s]:    738.15
	Linear fluid (dielectric constant: 78.4, screening length: 8.12261 Bohr) occupying 0.373520 of unit cell:	Completed after 16 iterations at t[s]:    782.67
ElecMinimize: 	Predicted alpha/alphaT>3.000000, increasing alphaT to 6.122071e-03.
	Linear fluid (dielectric constant: 78.4, screening length: 8.12261 Bohr) occupying 0.373487 of unit cell:	Completed after 18 iterations at t[s]:    817.90
	Linear fluid (dielectric constant: 78.4, screening length: 8.12261 Bohr) occupying 0.373487 of unit cell:	Completed after 0 iterations at t[s]:    848.35
	FillingsUpdate:  mu: -0.208000000  nElectrons: 543.373812  magneticMoment: [ Abs: 0.00166  Tot: -0.00161 ]
	SubspaceRotationAdjust: set factor to 0.128
	SubspaceRotationAdjust: resetting CG because factor has changed by 0.128268
	Linear fluid (dielectric constant: 78.4, screening length: 8.12261 Bohr) occupying 0.373487 of unit cell:	Completed after 0 iterations at t[s]:    911.50
ElecMinimize: 	State modified externally: resetting search direction.
ElecMinimize: Iter:   5  G: -2911.897957709194088  |grad|_K:  2.842e-05  alpha:  6.130e-03
	Linear fluid (dielectric constant: 78.4, screening length: 8.12261 Bohr) occupying 0.373483 of unit cell:	Completed after 17 iterations at t[s]:   1003.54
ElecMinimize: 	Predicted alpha/alphaT>3.000000, increasing alphaT to 1.838859e-02.
	Linear fluid (dielectric constant: 78.4, screening length: 8.12261 Bohr) occupying 0.373473 of unit cell:	Completed after 20 iterations at t[s]:   1039.36
	Linear fluid (dielectric constant: 78.4, screening length: 8.12261 Bohr) occupying 0.373467 of unit cell:	Completed after 18 iterations at t[s]:   1074.24
	FillingsUpdate:  mu: -0.208000000  nElectrons: 543.544511  magneticMoment: [ Abs: 0.00165  Tot: -0.00161 ]
	SubspaceRotationAdjust: set factor to 0.0813
ElecMinimize: Iter:   6  G: -2911.902981900464965  |grad|_K:  3.411e-05  alpha:  2.677e-02  linmin: -2.236e-04  t[s]:   1121.26
	Linear fluid (dielectric constant: 78.4, screening length: 8.12261 Bohr) occupying 0.373412 of unit cell:	Completed after 23 iterations at t[s]:   1167.59
	Linear fluid (dielectric constant: 78.4, screening length: 8.12261 Bohr) occupying 0.373331 of unit cell:	Completed after 24 iterations at t[s]:   1203.96
	FillingsUpdate:  mu: -0.208000000  nElectrons: 543.645080  magneticMoment: [ Abs: 0.00167  Tot: -0.00162 ]
	SubspaceRotationAdjust: set factor to 0.0366
ElecMinimize: Iter:   7  G: -2911.920638903627150  |grad|_K:  1.373e-05  alpha:  6.641e-02  linmin:  3.628e-03  t[s]:   1251.74
	Linear fluid (dielectric constant: 78.4, screening length: 8.12261 Bohr) occupying 0.373242 of unit cell:	Completed after 23 iterations at t[s]:   1298.48
	Linear fluid (dielectric constant: 78.4, screening length: 8.12261 Bohr) occupying 0.373164 of unit cell:	Completed after 23 iterations at t[s]:   1335.04
	FillingsUpdate:  mu: -0.208000000  nElectrons: 543.753861  magneticMoment: [ Abs: 0.00167  Tot: -0.00161 ]
	SubspaceRotationAdjust: set factor to 0.0223
ElecMinimize: Iter:   8  G: -2911.925876112963579  |grad|_K:  1.676e-05  alpha:  1.237e-01  linmin: -6.285e-05  t[s]:   1381.90
	Linear fluid (dielectric constant: 78.4, screening length: 8.12261 Bohr) occupying 0.372781 of unit cell:	Completed after 25 iterations at t[s]:   1429.00
	Linear fluid (dielectric constant: 78.4, screening length: 8.12261 Bohr) occupying 0.372964 of unit cell:	Completed after 24 iterations at t[s]:   1465.39
	FillingsUpdate:  mu: -0.208000000  nElectrons: 543.672321  magneticMoment: [ Abs: 0.00167  Tot: -0.00161 ]
	SubspaceRotationAdjust: set factor to 0.0252
ElecMinimize: Iter:   9  G: -2911.930096023792885  |grad|_K:  4.964e-06  alpha:  6.454e-02  linmin: -1.473e-04  t[s]:   1512.15
	Linear fluid (dielectric constant: 78.4, screening length: 8.12261 Bohr) occupying 0.372891 of unit cell:	Completed after 19 iterations at t[s]:   1557.66
ElecMinimize: 	Predicted alpha/alphaT>3.000000, increasing alphaT to 1.936094e-01.
	Linear fluid (dielectric constant: 78.4, screening length: 8.12261 Bohr) occupying 0.372747 of unit cell:	Completed after 20 iterations at t[s]:   1593.09
	Linear fluid (dielectric constant: 78.4, screening length: 8.12261 Bohr) occupying 0.372671 of unit cell:	Completed after 18 iterations at t[s]:   1628.32
	FillingsUpdate:  mu: -0.208000000  nElectrons: 543.644069  magneticMoment: [ Abs: 0.00167  Tot: -0.00161 ]
	SubspaceRotationAdjust: set factor to 0.0199
ElecMinimize: Iter:  10  G: -2911.931592486996578  |grad|_K:  4.371e-06  alpha:  2.614e-01  linmin:  1.904e-04  t[s]:   1676.04
	Linear fluid (dielectric constant: 78.4, screening length: 8.12261 Bohr) occupying 0.372268 of unit cell:	Completed after 25 iterations at t[s]:   1723.04
	Linear fluid (dielectric constant: 78.4, screening length: 8.12261 Bohr) occupying 0.372550 of unit cell:	Completed after 23 iterations at t[s]:   1759.35
	FillingsUpdate:  mu: -0.208000000  nElectrons: 543.674929  magneticMoment: [ Abs: 0.00167  Tot: -0.00160 ]
	SubspaceRotationAdjust: set factor to 0.0132
	SubspaceRotationAdjust: resetting CG because factor has changed by 0.102912
	Linear fluid (dielectric constant: 78.4, screening length: 8.12261 Bohr) occupying 0.372550 of unit cell:	Completed after 0 iterations at t[s]:   1821.79
ElecMinimize: 	State modified externally: resetting search direction.
ElecMinimize: Iter:  11  G: -2911.931937536576697  |grad|_K:  2.705e-06  alpha:  7.804e-02
	Linear fluid (dielectric constant: 78.4, screening length: 8.12261 Bohr) occupying 0.372500 of unit cell:	Completed after 19 iterations at t[s]:   1914.71
	Linear fluid (dielectric constant: 78.4, screening length: 8.12261 Bohr) occupying 0.372408 of unit cell:	Completed after 21 iterations at t[s]:   1950.20
	FillingsUpdate:  mu: -0.208000000  nElectrons: 543.656001  magneticMoment: [ Abs: 0.00167  Tot: -0.00160 ]
	SubspaceRotationAdjust: set factor to 0.0093
ElecMinimize: Iter:  12  G: -2911.932311389969982  |grad|_K:  2.271e-06  alpha:  2.201e-01  linmin:  2.187e-04  t[s]:   1998.23
	Linear fluid (dielectric constant: 78.4, screening length: 8.12261 Bohr) occupying 0.372188 of unit cell:	Completed after 21 iterations at t[s]:   2043.82
	Linear fluid (dielectric constant: 78.4, screening length: 8.12261 Bohr) occupying 0.372221 of unit cell:	Completed after 14 iterations at t[s]:   2077.58
	FillingsUpdate:  mu: -0.208000000  nElectrons: 543.680216  magneticMoment: [ Abs: 0.00167  Tot: -0.00160 ]
	SubspaceRotationAdjust: set factor to 0.00744
ElecMinimize: Iter:  13  G: -2911.932535008987543  |grad|_K:  1.351e-06  alpha:  1.868e-01  linmin:  1.481e-04  t[s]:   2125.14
	Linear fluid (dielectric constant: 78.4, screening length: 8.12261 Bohr) occupying 0.372065 of unit cell:	Completed after 13 iterations at t[s]:   2169.42
ElecMinimize: 	Predicted alpha/alphaT>3.000000, increasing alphaT to 5.604684e-01.
	Linear fluid (dielectric constant: 78.4, screening length: 8.12261 Bohr) occupying 0.371752 of unit cell:	Completed after 15 iterations at t[s]:   2203.82
	Linear fluid (dielectric constant: 78.4, screening length: 8.12261 Bohr) occupying 0.371533 of unit cell:	Completed after 13 iterations at t[s]:   2237.72
	FillingsUpdate:  mu: -0.208000000  nElectrons: 543.699360  magneticMoment: [ Abs: 0.00167  Tot: -0.00160 ]
	SubspaceRotationAdjust: set factor to 0.00855
ElecMinimize: Iter:  14  G: -2911.932882298850473  |grad|_K:  1.337e-06  alpha:  8.201e-01  linmin:  6.816e-04  t[s]:   2285.68
	Linear fluid (dielectric constant: 78.4, screening length: 8.12261 Bohr) occupying 0.370698 of unit cell:	Completed after 18 iterations at t[s]:   2330.47
	Linear fluid (dielectric constant: 78.4, screening length: 8.12261 Bohr) occupying 0.371156 of unit cell:	Completed after 16 iterations at t[s]:   2364.69
	FillingsUpdate:  mu: -0.208000000  nElectrons: 543.699262  magneticMoment: [ Abs: 0.00167  Tot: -0.00159 ]
	SubspaceRotationAdjust: set factor to 0.00713
ElecMinimize: Iter:  15  G: -2911.933035440994445  |grad|_K:  1.157e-06  alpha:  3.719e-01  linmin:  2.260e-04  t[s]:   2412.28
	Linear fluid (dielectric constant: 78.4, screening length: 8.12261 Bohr) occupying 0.370865 of unit cell:	Completed after 18 iterations at t[s]:   2457.73
	Linear fluid (dielectric constant: 78.4, screening length: 8.12261 Bohr) occupying 0.370938 of unit cell:	Completed after 14 iterations at t[s]:   2492.05
	FillingsUpdate:  mu: -0.208000000  nElectrons: 543.718329  magneticMoment: [ Abs: 0.00167  Tot: -0.00159 ]
	SubspaceRotationAdjust: set factor to 0.00627
ElecMinimize: Iter:  16  G: -2911.933121768447563  |grad|_K:  8.490e-07  alpha:  2.789e-01  linmin:  2.507e-04  t[s]:   2539.48
	Linear fluid (dielectric constant: 78.4, screening length: 8.12261 Bohr) occupying 0.370833 of unit cell:	Completed after 14 iterations at t[s]:   2583.61
	Linear fluid (dielectric constant: 78.4, screening length: 8.12261 Bohr) occupying 0.370702 of unit cell:	Completed after 15 iterations at t[s]:   2617.92
	FillingsUpdate:  mu: -0.208000000  nElectrons: 543.729487  magneticMoment: [ Abs: 0.00166  Tot: -0.00159 ]
	SubspaceRotationAdjust: set factor to 0.00826
ElecMinimize: Iter:  17  G: -2911.933225429721915  |grad|_K:  8.094e-07  alpha:  6.221e-01  linmin:  2.906e-04  t[s]:   2665.71
	Linear fluid (dielectric constant: 78.4, screening length: 8.12261 Bohr) occupying 0.370558 of unit cell:	Completed after 16 iterations at t[s]:   2710.73
	Linear fluid (dielectric constant: 78.4, screening length: 8.12261 Bohr) occupying 0.370546 of unit cell:	Completed after 10 iterations at t[s]:   2744.35
	FillingsUpdate:  mu: -0.208000000  nElectrons: 543.731618  magneticMoment: [ Abs: 0.00165  Tot: -0.00158 ]
	SubspaceRotationAdjust: set factor to 0.00809
ElecMinimize: Iter:  18  G: -2911.933327229049610  |grad|_K:  1.046e-06  alpha:  6.741e-01  linmin:  1.174e-04  t[s]:   2792.71
	Linear fluid (dielectric constant: 78.4, screening length: 8.12261 Bohr) occupying 0.370376 of unit cell:	Completed after 15 iterations at t[s]:   2836.83
	Linear fluid (dielectric constant: 78.4, screening length: 8.12261 Bohr) occupying 0.370455 of unit cell:	Completed after 15 iterations at t[s]:   2870.92
	FillingsUpdate:  mu: -0.208000000  nElectrons: 543.749405  magneticMoment: [ Abs: 0.00165  Tot: -0.00158 ]
	SubspaceRotationAdjust: set factor to 0.00677
ElecMinimize: Iter:  19  G: -2911.933419863082690  |grad|_K:  1.078e-06  alpha:  3.670e-01  linmin:  3.737e-05  t[s]:   2918.50
	Linear fluid (dielectric constant: 78.4, screening length: 8.12261 Bohr) occupying 0.370402 of unit cell:	Completed after 16 iterations at t[s]:   2963.58
	Linear fluid (dielectric constant: 78.4, screening length: 8.12261 Bohr) occupying 0.370355 of unit cell:	Completed after 14 iterations at t[s]:   2998.01
	FillingsUpdate:  mu: -0.208000000  nElectrons: 543.751169  magneticMoment: [ Abs: 0.00163  Tot: -0.00157 ]
	SubspaceRotationAdjust: set factor to 0.00735
ElecMinimize: Iter:  20  G: -2911.933600690855656  |grad|_K:  1.099e-06  alpha:  6.724e-01  linmin: -3.267e-05  t[s]:   3045.09
	Linear fluid (dielectric constant: 78.4, screening length: 8.12261 Bohr) occupying 0.370308 of unit cell:	Completed after 15 iterations at t[s]:   3089.57
	Linear fluid (dielectric constant: 78.4, screening length: 8.12261 Bohr) occupying 0.370289 of unit cell:	Completed after 12 iterations at t[s]:   3123.30
	FillingsUpdate:  mu: -0.208000000  nElectrons: 543.753670  magneticMoment: [ Abs: 0.00161  Tot: -0.00155 ]
	SubspaceRotationAdjust: set factor to 0.00788
ElecMinimize: Iter:  21  G: -2911.933857540446752  |grad|_K:  1.416e-06  alpha:  9.145e-01  linmin: -1.138e-04  t[s]:   3171.19
	Linear fluid (dielectric constant: 78.4, screening length: 8.12261 Bohr) occupying 0.370169 of unit cell:	Completed after 18 iterations at t[s]:   3216.94
	Linear fluid (dielectric constant: 78.4, screening length: 8.12261 Bohr) occupying 0.370231 of unit cell:	Completed after 16 iterations at t[s]:   3251.04
	FillingsUpdate:  mu: -0.208000000  nElectrons: 543.779429  magneticMoment: [ Abs: 0.00159  Tot: -0.00153 ]
	SubspaceRotationAdjust: set factor to 0.00652
ElecMinimize: Iter:  22  G: -2911.934084423201966  |grad|_K:  1.718e-06  alpha:  4.858e-01  linmin: -7.911e-05  t[s]:   3298.29
	Linear fluid (dielectric constant: 78.4, screening length: 8.12261 Bohr) occupying 0.370106 of unit cell:	Completed after 16 iterations at t[s]:   3343.38
	Linear fluid (dielectric constant: 78.4, screening length: 8.12261 Bohr) occupying 0.370119 of unit cell:	Completed after 11 iterations at t[s]:   3376.61
	FillingsUpdate:  mu: -0.208000000  nElectrons: 543.777598  magneticMoment: [ Abs: 0.00157  Tot: -0.00150 ]
	SubspaceRotationAdjust: set factor to 0.00555
ElecMinimize: Iter:  23  G: -2911.934387030621565  |grad|_K:  1.460e-06  alpha:  4.376e-01  linmin: -1.101e-04  t[s]:   3424.50
	Linear fluid (dielectric constant: 78.4, screening length: 8.12261 Bohr) occupying 0.369993 of unit cell:	Completed after 14 iterations at t[s]:   3468.64
	Linear fluid (dielectric constant: 78.4, screening length: 8.12261 Bohr) occupying 0.369882 of unit cell:	Completed after 14 iterations at t[s]:   3502.48
	FillingsUpdate:  mu: -0.208000000  nElectrons: 543.795870  magneticMoment: [ Abs: 0.00154  Tot: -0.00147 ]
	SubspaceRotationAdjust: set factor to 0.00653
ElecMinimize: Iter:  24  G: -2911.934789319253468  |grad|_K:  1.484e-06  alpha:  8.031e-01  linmin: -1.412e-04  t[s]:   3549.92
	Linear fluid (dielectric constant: 78.4, screening length: 8.12261 Bohr) occupying 0.369533 of unit cell:	Completed after 18 iterations at t[s]:   3595.15
	Linear fluid (dielectric constant: 78.4, screening length: 8.12261 Bohr) occupying 0.369618 of unit cell:	Completed after 13 iterations at t[s]:   3629.06
	FillingsUpdate:  mu: -0.208000000  nElectrons: 543.822340  magneticMoment: [ Abs: 0.00151  Tot: -0.00144 ]
	SubspaceRotationAdjust: set factor to 0.00625
ElecMinimize: Iter:  25  G: -2911.935105762943294  |grad|_K:  1.556e-06  alpha:  6.112e-01  linmin: -6.381e-05  t[s]:   3676.62
	Linear fluid (dielectric constant: 78.4, screening length: 8.12261 Bohr) occupying 0.369257 of unit cell:	Completed after 18 iterations at t[s]:   3721.60
	Linear fluid (dielectric constant: 78.4, screening length: 8.12261 Bohr) occupying 0.369368 of unit cell:	Completed after 14 iterations at t[s]:   3755.14
	FillingsUpdate:  mu: -0.208000000  nElectrons: 543.815703  magneticMoment: [ Abs: 0.00149  Tot: -0.00142 ]
	SubspaceRotationAdjust: set factor to 0.00527
ElecMinimize: Iter:  26  G: -2911.935347388434820  |grad|_K:  1.472e-06  alpha:  4.258e-01  linmin: -2.109e-05  t[s]:   3802.72
	Linear fluid (dielectric constant: 78.4, screening length: 8.12261 Bohr) occupying 0.369103 of unit cell:	Completed after 16 iterations at t[s]:   3847.83
	Linear fluid (dielectric constant: 78.4, screening length: 8.12261 Bohr) occupying 0.369022 of unit cell:	Completed after 13 iterations at t[s]:   3882.01
	FillingsUpdate:  mu: -0.208000000  nElectrons: 543.831833  magneticMoment: [ Abs: 0.00146  Tot: -0.00139 ]
	SubspaceRotationAdjust: set factor to 0.00542
ElecMinimize: Iter:  27  G: -2911.935626837049313  |grad|_K:  1.214e-06  alpha:  5.539e-01  linmin: -3.222e-05  t[s]:   3928.72
	Linear fluid (dielectric constant: 78.4, screening length: 8.12261 Bohr) occupying 0.368745 of unit cell:	Completed after 14 iterations at t[s]:   3972.74
	Linear fluid (dielectric constant: 78.4, screening length: 8.12261 Bohr) occupying 0.368720 of unit cell:	Completed after 5 iterations at t[s]:   4004.96
	FillingsUpdate:  mu: -0.208000000  nElectrons: 543.838092  magneticMoment: [ Abs: 0.00144  Tot: -0.00136 ]
	SubspaceRotationAdjust: set factor to 0.00585
ElecMinimize: Iter:  28  G: -2911.935834105811409  |grad|_K:  1.035e-06  alpha:  6.044e-01  linmin: -1.836e-05  t[s]:   4052.37
	Linear fluid (dielectric constant: 78.4, screening length: 8.12261 Bohr) occupying 0.368473 of unit cell:	Completed after 15 iterations at t[s]:   4097.56
	Linear fluid (dielectric constant: 78.4, screening length: 8.12261 Bohr) occupying 0.368515 of unit cell:	Completed after 12 iterations at t[s]:   4130.55
	FillingsUpdate:  mu: -0.208000000  nElectrons: 543.831572  magneticMoment: [ Abs: 0.00142  Tot: -0.00135 ]
	SubspaceRotationAdjust: set factor to 0.00531
ElecMinimize: Iter:  29  G: -2911.935958771460264  |grad|_K:  9.124e-07  alpha:  5.000e-01  linmin: -3.846e-06  t[s]:   4178.49
	Linear fluid (dielectric constant: 78.4, screening length: 8.12261 Bohr) occupying 0.368347 of unit cell:	Completed after 16 iterations at t[s]:   4223.41
	Linear fluid (dielectric constant: 78.4, screening length: 8.12261 Bohr) occupying 0.368374 of unit cell:	Completed after 11 iterations at t[s]:   4256.34
	FillingsUpdate:  mu: -0.208000000  nElectrons: 543.839216  magneticMoment: [ Abs: 0.00141  Tot: -0.00134 ]
	SubspaceRotationAdjust: set factor to 0.00439
ElecMinimize: Iter:  30  G: -2911.936040189210416  |grad|_K:  7.180e-07  alpha:  4.211e-01  linmin: -3.902e-05  t[s]:   4303.79
	Linear fluid (dielectric constant: 78.4, screening length: 8.12261 Bohr) occupying 0.368285 of unit cell:	Completed after 13 iterations at t[s]:   4348.29
	Linear fluid (dielectric constant: 78.4, screening length: 8.12261 Bohr) occupying 0.368275 of unit cell:	Completed after 8 iterations at t[s]:   4381.04
	FillingsUpdate:  mu: -0.208000000  nElectrons: 543.836028  magneticMoment: [ Abs: 0.00140  Tot: -0.00133 ]
	SubspaceRotationAdjust: set factor to 0.00481
ElecMinimize: Iter:  31  G: -2911.936096384193661  |grad|_K:  5.118e-07  alpha:  4.683e-01  linmin: -5.823e-05  t[s]:   4429.24
	Linear fluid (dielectric constant: 78.4, screening length: 8.12261 Bohr) occupying 0.368227 of unit cell:	Completed after 12 iterations at t[s]:   4472.68
	Linear fluid (dielectric constant: 78.4, screening length: 8.12261 Bohr) occupying 0.368219 of unit cell:	Completed after 7 iterations at t[s]:   4504.92
	FillingsUpdate:  mu: -0.208000000  nElectrons: 543.834327  magneticMoment: [ Abs: 0.00140  Tot: -0.00132 ]
	SubspaceRotationAdjust: set factor to 0.00533
ElecMinimize: Iter:  32  G: -2911.936129967473335  |grad|_K:  4.251e-07  alpha:  5.507e-01  linmin: -7.657e-05  t[s]:   4552.40
	Linear fluid (dielectric constant: 78.4, screening length: 8.12261 Bohr) occupying 0.368185 of unit cell:	Completed after 13 iterations at t[s]:   4596.76
	Linear fluid (dielectric constant: 78.4, screening length: 8.12261 Bohr) occupying 0.368188 of unit cell:	Completed after 9 iterations at t[s]:   4629.49
	FillingsUpdate:  mu: -0.208000000  nElectrons: 543.837320  magneticMoment: [ Abs: 0.00139  Tot: -0.00132 ]
	SubspaceRotationAdjust: set factor to 0.00528
ElecMinimize: Iter:  33  G: -2911.936151280991453  |grad|_K:  3.732e-07  alpha:  5.064e-01  linmin: -8.015e-05  t[s]:   4677.54
	Linear fluid (dielectric constant: 78.4, screening length: 8.12261 Bohr) occupying 0.368165 of unit cell:	Completed after 13 iterations at t[s]:   4721.48
	Linear fluid (dielectric constant: 78.4, screening length: 8.12261 Bohr) occupying 0.368166 of unit cell:	Completed after 6 iterations at t[s]:   4753.59
	FillingsUpdate:  mu: -0.208000000  nElectrons: 543.834765  magneticMoment: [ Abs: 0.00139  Tot: -0.00132 ]
	SubspaceRotationAdjust: set factor to 0.00531
ElecMinimize: Iter:  34  G: -2911.936166949048129  |grad|_K:  3.415e-07  alpha:  4.827e-01  linmin: -5.041e-05  t[s]:   4800.94
	Linear fluid (dielectric constant: 78.4, screening length: 8.12261 Bohr) occupying 0.368149 of unit cell:	Completed after 11 iterations at t[s]:   4844.59
	Linear fluid (dielectric constant: 78.4, screening length: 8.12261 Bohr) occupying 0.368142 of unit cell:	Completed after 10 iterations at t[s]:   4877.93
	FillingsUpdate:  mu: -0.208000000  nElectrons: 543.837028  magneticMoment: [ Abs: 0.00139  Tot: -0.00131 ]
	SubspaceRotationAdjust: set factor to 0.00603
ElecMinimize: Iter:  35  G: -2911.936185190105334  |grad|_K:  3.435e-07  alpha:  6.714e-01  linmin: -1.119e-04  t[s]:   4925.63
	Linear fluid (dielectric constant: 78.4, screening length: 8.12261 Bohr) occupying 0.368112 of unit cell:	Completed after 12 iterations at t[s]:   4969.33
	Linear fluid (dielectric constant: 78.4, screening length: 8.12261 Bohr) occupying 0.368108 of unit cell:	Completed after 7 iterations at t[s]:   5001.47
	FillingsUpdate:  mu: -0.208000000  nElectrons: 543.839547  magneticMoment: [ Abs: 0.00138  Tot: -0.00130 ]
	SubspaceRotationAdjust: set factor to 0.00674
ElecMinimize: Iter:  36  G: -2911.936206602012589  |grad|_K:  3.884e-07  alpha:  7.763e-01  linmin: -9.647e-05  t[s]:   5049.14
	Linear fluid (dielectric constant: 78.4, screening length: 8.12261 Bohr) occupying 0.368056 of unit cell:	Completed after 14 iterations at t[s]:   5093.75
	Linear fluid (dielectric constant: 78.4, screening length: 8.12261 Bohr) occupying 0.368067 of unit cell:	Completed after 10 iterations at t[s]:   5127.18
	FillingsUpdate:  mu: -0.208000000  nElectrons: 543.838079  magneticMoment: [ Abs: 0.00137  Tot: -0.00130 ]
	SubspaceRotationAdjust: set factor to 0.0063
ElecMinimize: Iter:  37  G: -2911.936228530288190  |grad|_K:  4.628e-07  alpha:  6.214e-01  linmin: -5.457e-05  t[s]:   5173.95
	Linear fluid (dielectric constant: 78.4, screening length: 8.12261 Bohr) occupying 0.368002 of unit cell:	Completed after 15 iterations at t[s]:   5218.30
	Linear fluid (dielectric constant: 78.4, screening length: 8.12261 Bohr) occupying 0.368017 of unit cell:	Completed after 12 iterations at t[s]:   5252.07
	FillingsUpdate:  mu: -0.208000000  nElectrons: 543.845389  magneticMoment: [ Abs: 0.00136  Tot: -0.00129 ]
	SubspaceRotationAdjust: set factor to 0.00522
ElecMinimize: Iter:  38  G: -2911.936252135895302  |grad|_K:  4.524e-07  alpha:  4.722e-01  linmin: -6.056e-05  t[s]:   5299.64
	Linear fluid (dielectric constant: 78.4, screening length: 8.12261 Bohr) occupying 0.367962 of unit cell:	Completed after 13 iterations at t[s]:   5344.31
	Linear fluid (dielectric constant: 78.4, screening length: 8.12261 Bohr) occupying 0.367949 of unit cell:	Completed after 11 iterations at t[s]:   5377.22
	FillingsUpdate:  mu: -0.208000000  nElectrons: 543.846911  magneticMoment: [ Abs: 0.00135  Tot: -0.00128 ]
	SubspaceRotationAdjust: set factor to 0.00529
ElecMinimize: Iter:  39  G: -2911.936279720677248  |grad|_K:  3.786e-07  alpha:  5.771e-01  linmin: -4.780e-05  t[s]:   5424.30
	Linear fluid (dielectric constant: 78.4, screening length: 8.12261 Bohr) occupying 0.367894 of unit cell:	Completed after 12 iterations at t[s]:   5468.50
	Linear fluid (dielectric constant: 78.4, screening length: 8.12261 Bohr) occupying 0.367892 of unit cell:	Completed after 0 iterations at t[s]:   5499.23
	FillingsUpdate:  mu: -0.208000000  nElectrons: 543.849027  magneticMoment: [ Abs: 0.00134  Tot: -0.00127 ]
	SubspaceRotationAdjust: set factor to 0.0056
ElecMinimize: Iter:  40  G: -2911.936299385388793  |grad|_K:  3.219e-07  alpha:  5.886e-01  linmin: -5.404e-05  t[s]:   5547.17
	Linear fluid (dielectric constant: 78.4, screening length: 8.12261 Bohr) occupying 0.367844 of unit cell:	Completed after 13 iterations at t[s]:   5590.95
	Linear fluid (dielectric constant: 78.4, screening length: 8.12261 Bohr) occupying 0.367852 of unit cell:	Completed after 10 iterations at t[s]:   5624.01
	FillingsUpdate:  mu: -0.208000000  nElectrons: 543.853332  magneticMoment: [ Abs: 0.00133  Tot: -0.00126 ]
	SubspaceRotationAdjust: set factor to 0.00503
ElecMinimize: Iter:  41  G: -2911.936311356090300  |grad|_K:  2.668e-07  alpha:  4.953e-01  linmin:  3.344e-06  t[s]:   5671.48
	Linear fluid (dielectric constant: 78.4, screening length: 8.12261 Bohr) occupying 0.367819 of unit cell:	Completed after 11 iterations at t[s]:   5715.13
	Linear fluid (dielectric constant: 78.4, screening length: 8.12261 Bohr) occupying 0.367825 of unit cell:	Completed after 9 iterations at t[s]:   5748.08
	FillingsUpdate:  mu: -0.208000000  nElectrons: 543.852519  magneticMoment: [ Abs: 0.00133  Tot: -0.00126 ]
	SubspaceRotationAdjust: set factor to 0.00432
ElecMinimize: Iter:  42  G: -2911.936318032103372  |grad|_K:  1.973e-07  alpha:  4.037e-01  linmin:  3.509e-05  t[s]:   5795.69
	Linear fluid (dielectric constant: 78.4, screening length: 8.12261 Bohr) occupying 0.367808 of unit cell:	Completed after 11 iterations at t[s]:   5839.17
	Linear fluid (dielectric constant: 78.4, screening length: 8.12261 Bohr) occupying 0.367803 of unit cell:	Completed after 7 iterations at t[s]:   5871.17
	FillingsUpdate:  mu: -0.208000000  nElectrons: 543.854330  magneticMoment: [ Abs: 0.00133  Tot: -0.00125 ]
	SubspaceRotationAdjust: set factor to 0.00502
ElecMinimize: Iter:  43  G: -2911.936322698547883  |grad|_K:  1.516e-07  alpha:  5.168e-01  linmin: -1.118e-05  t[s]:   5918.91
	Linear fluid (dielectric constant: 78.4, screening length: 8.12261 Bohr) occupying 0.367788 of unit cell:	Completed after 10 iterations at t[s]:   5962.59
	Linear fluid (dielectric constant: 78.4, screening length: 8.12261 Bohr) occupying 0.367786 of unit cell:	Completed after 2 iterations at t[s]:   5994.17
	FillingsUpdate:  mu: -0.208000000  nElectrons: 543.855550  magneticMoment: [ Abs: 0.00132  Tot: -0.00125 ]
	SubspaceRotationAdjust: set factor to 0.00585
ElecMinimize: Iter:  44  G: -2911.936325948704507  |grad|_K:  1.377e-07  alpha:  6.080e-01  linmin: -5.288e-05  t[s]:   6041.01
	Linear fluid (dielectric constant: 78.4, screening length: 8.12261 Bohr) occupying 0.367771 of unit cell:	Completed after 10 iterations at t[s]:   6084.22
	Linear fluid (dielectric constant: 78.4, screening length: 8.12261 Bohr) occupying 0.367771 of unit cell:	Completed after 0 iterations at t[s]:   6115.00
	FillingsUpdate:  mu: -0.208000000  nElectrons: 543.855082  magneticMoment: [ Abs: 0.00132  Tot: -0.00125 ]
	SubspaceRotationAdjust: set factor to 0.00609
ElecMinimize: Iter:  45  G: -2911.936328571285685  |grad|_K:  1.473e-07  alpha:  5.942e-01  linmin:  1.857e-04  t[s]:   6162.55
	Linear fluid (dielectric constant: 78.4, screening length: 8.12261 Bohr) occupying 0.367756 of unit cell:	Completed after 12 iterations at t[s]:   6206.82
	Linear fluid (dielectric constant: 78.4, screening length: 8.12261 Bohr) occupying 0.367756 of unit cell:	Completed after 0 iterations at t[s]:   6236.98
	FillingsUpdate:  mu: -0.208000000  nElectrons: 543.857012  magneticMoment: [ Abs: 0.00132  Tot: -0.00124 ]
	SubspaceRotationAdjust: set factor to 0.00576
ElecMinimize: Iter:  46  G: -2911.936331401725511  |grad|_K:  1.669e-07  alpha:  5.695e-01  linmin:  8.037e-05  t[s]:   6283.97
	Linear fluid (dielectric constant: 78.4, screening length: 8.12261 Bohr) occupying 0.367739 of unit cell:	Completed after 11 iterations at t[s]:   6327.85
	Linear fluid (dielectric constant: 78.4, screening length: 8.12261 Bohr) occupying 0.367735 of unit cell:	Completed after 6 iterations at t[s]:   6359.84
	FillingsUpdate:  mu: -0.208000000  nElectrons: 543.856382  magneticMoment: [ Abs: 0.00131  Tot: -0.00124 ]
	SubspaceRotationAdjust: set factor to 0.00575
ElecMinimize: Iter:  47  G: -2911.936335743715972  |grad|_K:  1.763e-07  alpha:  6.750e-01  linmin: -1.171e-04  t[s]:   6408.07
	Linear fluid (dielectric constant: 78.4, screening length: 8.12261 Bohr) occupying 0.367716 of unit cell:	Completed after 11 iterations at t[s]:   6451.45
	Linear fluid (dielectric constant: 78.4, screening length: 8.12261 Bohr) occupying 0.367712 of unit cell:	Completed after 3 iterations at t[s]:   6482.76
	FillingsUpdate:  mu: -0.208000000  nElectrons: 543.857406  magneticMoment: [ Abs: 0.00130  Tot: -0.00123 ]
	SubspaceRotationAdjust: set factor to 0.00595
ElecMinimize: Iter:  48  G: -2911.936341744278252  |grad|_K:  1.965e-07  alpha:  8.196e-01  linmin: -6.956e-05  t[s]:   6530.17
	Linear fluid (dielectric constant: 78.4, screening length: 8.12261 Bohr) occupying 0.367691 of unit cell:	Completed after 7 iterations at t[s]:   6572.91
	Linear fluid (dielectric constant: 78.4, screening length: 8.12261 Bohr) occupying 0.367692 of unit cell:	Completed after 0 iterations at t[s]:   6603.67
	FillingsUpdate:  mu: -0.208000000  nElectrons: 543.857341  magneticMoment: [ Abs: 0.00128  Tot: -0.00121 ]
	SubspaceRotationAdjust: set factor to 0.00623
ElecMinimize: Iter:  49  G: -2911.936348901074325  |grad|_K:  1.994e-07  alpha:  7.902e-01  linmin: -5.130e-05  t[s]:   6651.37
	Linear fluid (dielectric constant: 78.4, screening length: 8.12261 Bohr) occupying 0.367680 of unit cell:	Completed after 11 iterations at t[s]:   6694.68
	Linear fluid (dielectric constant: 78.4, screening length: 8.12261 Bohr) occupying 0.367682 of unit cell:	Completed after 3 iterations at t[s]:   6726.04
	FillingsUpdate:  mu: -0.208000000  nElectrons: 543.856581  magneticMoment: [ Abs: 0.00127  Tot: -0.00120 ]
	SubspaceRotationAdjust: set factor to 0.00647
ElecMinimize: Iter:  50  G: -2911.936354932325230  |grad|_K:  1.768e-07  alpha:  6.485e-01  linmin: -5.045e-05  t[s]:   6773.69
	Linear fluid (dielectric constant: 78.4, screening length: 8.12261 Bohr) occupying 0.367681 of unit cell:	Completed after 11 iterations at t[s]:   6817.63
	Linear fluid (dielectric constant: 78.4, screening length: 8.12261 Bohr) occupying 0.367681 of unit cell:	Completed after 10 iterations at t[s]:   6851.19
	FillingsUpdate:  mu: -0.208000000  nElectrons: 543.857581  magneticMoment: [ Abs: 0.00126  Tot: -0.00119 ]
	SubspaceRotationAdjust: set factor to 0.00595
ElecMinimize: Iter:  51  G: -2911.936358674814528  |grad|_K:  1.657e-07  alpha:  5.149e-01  linmin: -9.097e-05  t[s]:   6898.11
	Linear fluid (dielectric constant: 78.4, screening length: 8.12261 Bohr) occupying 0.367683 of unit cell:	Completed after 12 iterations at t[s]:   6941.91
	Linear fluid (dielectric constant: 78.4, screening length: 8.12261 Bohr) occupying 0.367683 of unit cell:	Completed after 9 iterations at t[s]:   6974.97
	FillingsUpdate:  mu: -0.208000000  nElectrons: 543.855759  magneticMoment: [ Abs: 0.00125  Tot: -0.00118 ]
	SubspaceRotationAdjust: set factor to 0.00497
ElecMinimize: Iter:  52  G: -2911.936361137762105  |grad|_K:  1.342e-07  alpha:  3.825e-01  linmin: -4.337e-06  t[s]:   7022.54
	Linear fluid (dielectric constant: 78.4, screening length: 8.12261 Bohr) occupying 0.367685 of unit cell:	Completed after 11 iterations at t[s]:   7066.75
	Linear fluid (dielectric constant: 78.4, screening length: 8.12261 Bohr) occupying 0.367686 of unit cell:	Completed after 6 iterations at t[s]:   7098.61
	FillingsUpdate:  mu: -0.208000000  nElectrons: 543.855955  magneticMoment: [ Abs: 0.00125  Tot: -0.00118 ]
	SubspaceRotationAdjust: set factor to 0.00592
ElecMinimize: Iter:  53  G: -2911.936363235930003  |grad|_K:  1.044e-07  alpha:  5.014e-01  linmin: -2.921e-05  t[s]:   7145.67
	Linear fluid (dielectric constant: 78.4, screening length: 8.12261 Bohr) occupying 0.367688 of unit cell:	Completed after 10 iterations at t[s]:   7189.29
	Linear fluid (dielectric constant: 78.4, screening length: 8.12261 Bohr) occupying 0.367688 of unit cell:	Completed after 2 iterations at t[s]:   7220.45
	FillingsUpdate:  mu: -0.208000000  nElectrons: 543.856010  magneticMoment: [ Abs: 0.00124  Tot: -0.00117 ]
	SubspaceRotationAdjust: set factor to 0.00683
ElecMinimize: Iter:  54  G: -2911.936364800855699  |grad|_K:  1.001e-07  alpha:  6.165e-01  linmin: -7.893e-05  t[s]:   7268.77
	Linear fluid (dielectric constant: 78.4, screening length: 8.12261 Bohr) occupying 0.367688 of unit cell:	Completed after 11 iterations at t[s]:   7312.23
	Linear fluid (dielectric constant: 78.4, screening length: 8.12261 Bohr) occupying 0.367688 of unit cell:	Completed after 2 iterations at t[s]:   7343.26
	FillingsUpdate:  mu: -0.208000000  nElectrons: 543.854740  magneticMoment: [ Abs: 0.00124  Tot: -0.00117 ]
	SubspaceRotationAdjust: set factor to 0.00676
ElecMinimize: Iter:  55  G: -2911.936366127261408  |grad|_K:  1.131e-07  alpha:  5.655e-01  linmin:  1.651e-04  t[s]:   7391.06
	Linear fluid (dielectric constant: 78.4, screening length: 8.12261 Bohr) occupying 0.367685 of unit cell:	Completed after 11 iterations at t[s]:   7434.63
	Linear fluid (dielectric constant: 78.4, screening length: 8.12261 Bohr) occupying 0.367686 of unit cell:	Completed after 6 iterations at t[s]:   7467.11
	FillingsUpdate:  mu: -0.208000000  nElectrons: 543.855286  magneticMoment: [ Abs: 0.00123  Tot: -0.00116 ]
	SubspaceRotationAdjust: set factor to 0.00624
ElecMinimize: Iter:  56  G: -2911.936367419786620  |grad|_K:  1.115e-07  alpha:  4.468e-01  linmin: -4.639e-05  t[s]:   7515.25
	Linear fluid (dielectric constant: 78.4, screening length: 8.12261 Bohr) occupying 0.367680 of unit cell:	Completed after 9 iterations at t[s]:   7558.19
	Linear fluid (dielectric constant: 78.4, screening length: 8.12261 Bohr) occupying 0.367677 of unit cell:	Completed after 6 iterations at t[s]:   7590.42
	FillingsUpdate:  mu: -0.208000000  nElectrons: 543.853983  magneticMoment: [ Abs: 0.00122  Tot: -0.00115 ]
	SubspaceRotationAdjust: set factor to 0.00654
ElecMinimize: Iter:  57  G: -2911.936369321998882  |grad|_K:  1.133e-07  alpha:  6.520e-01  linmin: -8.572e-05  t[s]:   7638.34
	Linear fluid (dielectric constant: 78.4, screening length: 8.12261 Bohr) occupying 0.367665 of unit cell:	Completed after 6 iterations at t[s]:   7681.28
	Linear fluid (dielectric constant: 78.4, screening length: 8.12261 Bohr) occupying 0.367663 of unit cell:	Completed after 2 iterations at t[s]:   7712.84
	FillingsUpdate:  mu: -0.208000000  nElectrons: 543.853286  magneticMoment: [ Abs: 0.00121  Tot: -0.00113 ]
	SubspaceRotationAdjust: set factor to 0.00715
ElecMinimize: Iter:  58  G: -2911.936371611041068  |grad|_K:  1.160e-07  alpha:  7.567e-01  linmin: -4.873e-05  t[s]:   7759.74
	Linear fluid (dielectric constant: 78.4, screening length: 8.12261 Bohr) occupying 0.367644 of unit cell:	Completed after 9 iterations at t[s]:   7802.75
	Linear fluid (dielectric constant: 78.4, screening length: 8.12261 Bohr) occupying 0.367645 of unit cell:	Completed after 2 iterations at t[s]:   7834.34
	FillingsUpdate:  mu: -0.208000000  nElectrons: 543.853244  magneticMoment: [ Abs: 0.00118  Tot: -0.00110 ]
	SubspaceRotationAdjust: set factor to 0.00759
ElecMinimize: Iter:  59  G: -2911.936373822925816  |grad|_K:  1.207e-07  alpha:  7.014e-01  linmin: -1.519e-05  t[s]:   7881.93
	Linear fluid (dielectric constant: 78.4, screening length: 8.12261 Bohr) occupying 0.367625 of unit cell:	Completed after 12 iterations at t[s]:   7926.24
	Linear fluid (dielectric constant: 78.4, screening length: 8.12261 Bohr) occupying 0.367630 of unit cell:	Completed after 9 iterations at t[s]:   7958.69
	FillingsUpdate:  mu: -0.208000000  nElectrons: 543.851951  magneticMoment: [ Abs: 0.00115  Tot: -0.00108 ]
	SubspaceRotationAdjust: set factor to 0.00699
ElecMinimize: Iter:  60  G: -2911.936375571252938  |grad|_K:  1.300e-07  alpha:  5.163e-01  linmin: -1.868e-05  t[s]:   8006.07
	Linear fluid (dielectric constant: 78.4, screening length: 8.12261 Bohr) occupying 0.367613 of unit cell:	Completed after 12 iterations at t[s]:   8050.41
	Linear fluid (dielectric constant: 78.4, screening length: 8.12261 Bohr) occupying 0.367617 of unit cell:	Completed after 9 iterations at t[s]:   8083.09
	FillingsUpdate:  mu: -0.208000000  nElectrons: 543.853195  magneticMoment: [ Abs: 0.00113  Tot: -0.00106 ]
	SubspaceRotationAdjust: set factor to 0.00599
ElecMinimize: Iter:  61  G: -2911.936377073796393  |grad|_K:  1.124e-07  alpha:  3.809e-01  linmin: -7.376e-07  t[s]:   8131.29
	Linear fluid (dielectric constant: 78.4, screening length: 8.12261 Bohr) occupying 0.367607 of unit cell:	Completed after 10 iterations at t[s]:   8174.44
	Linear fluid (dielectric constant: 78.4, screening length: 8.12261 Bohr) occupying 0.367601 of unit cell:	Completed after 6 iterations at t[s]:   8206.44
	FillingsUpdate:  mu: -0.208000000  nElectrons: 543.852904  magneticMoment: [ Abs: 0.00111  Tot: -0.00104 ]
	SubspaceRotationAdjust: set factor to 0.00682
ElecMinimize: Iter:  62  G: -2911.936378834401694  |grad|_K:  1.018e-07  alpha:  6.002e-01  linmin: -8.534e-06  t[s]:   8253.96
	Linear fluid (dielectric constant: 78.4, screening length: 8.12261 Bohr) occupying 0.367586 of unit cell:	Completed after 7 iterations at t[s]:   8296.73
	Linear fluid (dielectric constant: 78.4, screening length: 8.12261 Bohr) occupying 0.367584 of unit cell:	Completed after 2 iterations at t[s]:   8328.20
	FillingsUpdate:  mu: -0.208000000  nElectrons: 543.853124  magneticMoment: [ Abs: 0.00108  Tot: -0.00101 ]
	SubspaceRotationAdjust: set factor to 0.00776
ElecMinimize: Iter:  63  G: -2911.936380553089748  |grad|_K:  1.039e-07  alpha:  7.132e-01  linmin: -6.939e-06  t[s]:   8376.08
	Linear fluid (dielectric constant: 78.4, screening length: 8.12261 Bohr) occupying 0.367565 of unit cell:	Completed after 11 iterations at t[s]:   8419.37
	Linear fluid (dielectric constant: 78.4, screening length: 8.12261 Bohr) occupying 0.367567 of unit cell:	Completed after 2 iterations at t[s]:   8450.47
	FillingsUpdate:  mu: -0.208000000  nElectrons: 543.854415  magneticMoment: [ Abs: 0.00106  Tot: -0.00099 ]
	SubspaceRotationAdjust: set factor to 0.00796
ElecMinimize: Iter:  64  G: -2911.936382166797557  |grad|_K:  1.171e-07  alpha:  6.420e-01  linmin:  1.019e-04  t[s]:   8498.14
	Linear fluid (dielectric constant: 78.4, screening length: 8.12261 Bohr) occupying 0.367544 of unit cell:	Completed after 11 iterations at t[s]:   8542.08
	Linear fluid (dielectric constant: 78.4, screening length: 8.12261 Bohr) occupying 0.367553 of unit cell:	Completed after 10 iterations at t[s]:   8575.51
	FillingsUpdate:  mu: -0.208000000  nElectrons: 543.853733  magneticMoment: [ Abs: 0.00104  Tot: -0.00097 ]
	SubspaceRotationAdjust: set factor to 0.0066
ElecMinimize: Iter:  65  G: -2911.936383385930185  |grad|_K:  1.214e-07  alpha:  3.934e-01  linmin: -2.731e-05  t[s]:   8622.80
	Linear fluid (dielectric constant: 78.4, screening length: 8.12261 Bohr) occupying 0.367538 of unit cell:	Completed after 11 iterations at t[s]:   8666.36
	Linear fluid (dielectric constant: 78.4, screening length: 8.12261 Bohr) occupying 0.367536 of unit cell:	Completed after 4 iterations at t[s]:   8698.54
	FillingsUpdate:  mu: -0.208000000  nElectrons: 543.855331  magneticMoment: [ Abs: 0.00102  Tot: -0.00095 ]
	SubspaceRotationAdjust: set factor to 0.00639
ElecMinimize: Iter:  66  G: -2911.936384956778511  |grad|_K:  9.847e-08  alpha:  4.566e-01  linmin: -7.991e-05  t[s]:   8746.03
	Linear fluid (dielectric constant: 78.4, screening length: 8.12261 Bohr) occupying 0.367525 of unit cell:	Completed after 7 iterations at t[s]:   8789.20
	Linear fluid (dielectric constant: 78.4, screening length: 8.12261 Bohr) occupying 0.367521 of unit cell:	Completed after 2 iterations at t[s]:   8820.13
	FillingsUpdate:  mu: -0.208000000  nElectrons: 543.856091  magneticMoment: [ Abs: 0.00099  Tot: -0.00093 ]
	SubspaceRotationAdjust: set factor to 0.00714
ElecMinimize: Iter:  67  G: -2911.936386324761770  |grad|_K:  8.697e-08  alpha:  6.014e-01  linmin: -2.186e-05  t[s]:   8867.07
	Linear fluid (dielectric constant: 78.4, screening length: 8.12261 Bohr) occupying 0.367510 of unit cell:	Completed after 10 iterations at t[s]:   8910.74
	Linear fluid (dielectric constant: 78.4, screening length: 8.12261 Bohr) occupying 0.367512 of unit cell:	Completed after 3 iterations at t[s]:   8942.09
	FillingsUpdate:  mu: -0.208000000  nElectrons: 543.855792  magneticMoment: [ Abs: 0.00098  Tot: -0.00092 ]
	SubspaceRotationAdjust: set factor to 0.00658
ElecMinimize: Iter:  68  G: -2911.936387223056954  |grad|_K:  8.445e-08  alpha:  5.076e-01  linmin:  1.039e-04  t[s]:   8990.10
	Linear fluid (dielectric constant: 78.4, screening length: 8.12261 Bohr) occupying 0.367504 of unit cell:	Completed after 11 iterations at t[s]:   9033.52
	Linear fluid (dielectric constant: 78.4, screening length: 8.12261 Bohr) occupying 0.367507 of unit cell:	Completed after 9 iterations at t[s]:   9066.10
	FillingsUpdate:  mu: -0.208000000  nElectrons: 543.856678  magneticMoment: [ Abs: 0.00097  Tot: -0.00091 ]
	SubspaceRotationAdjust: set factor to 0.00536
ElecMinimize: Iter:  69  G: -2911.936387734963319  |grad|_K:  6.531e-08  alpha:  3.203e-01  linmin: -2.913e-05  t[s]:   9113.75
	Linear fluid (dielectric constant: 78.4, screening length: 8.12261 Bohr) occupying 0.367504 of unit cell:	Completed after 7 iterations at t[s]:   9156.41
	Linear fluid (dielectric constant: 78.4, screening length: 8.12261 Bohr) occupying 0.367503 of unit cell:	Completed after 2 iterations at t[s]:   9187.88
	FillingsUpdate:  mu: -0.208000000  nElectrons: 543.856491  magneticMoment: [ Abs: 0.00096  Tot: -0.00090 ]
	SubspaceRotationAdjust: set factor to 0.00649
ElecMinimize: Iter:  70  G: -2911.936388206783704  |grad|_K:  4.934e-08  alpha:  4.737e-01  linmin: -2.550e-05  t[s]:   9236.32
	Linear fluid (dielectric constant: 78.4, screening length: 8.12261 Bohr) occupying 0.367501 of unit cell:	Completed after 8 iterations at t[s]:   9279.13
	Linear fluid (dielectric constant: 78.4, screening length: 8.12261 Bohr) occupying 0.367501 of unit cell:	Completed after 0 iterations at t[s]:   9309.73
	FillingsUpdate:  mu: -0.208000000  nElectrons: 543.856175  magneticMoment: [ Abs: 0.00096  Tot: -0.00089 ]
	SubspaceRotationAdjust: set factor to 0.00697
ElecMinimize: Iter:  71  G: -2911.936388482433358  |grad|_K:  4.787e-08  alpha:  4.854e-01  linmin: -1.669e-04  t[s]:   9357.41
	Linear fluid (dielectric constant: 78.4, screening length: 8.12261 Bohr) occupying 0.367499 of unit cell:	Completed after 10 iterations at t[s]:   9401.25
	Linear fluid (dielectric constant: 78.4, screening length: 8.12261 Bohr) occupying 0.367500 of unit cell:	Completed after 5 iterations at t[s]:   9433.66
	FillingsUpdate:  mu: -0.208000000  nElectrons: 543.856540  magneticMoment: [ Abs: 0.00095  Tot: -0.00089 ]
	SubspaceRotationAdjust: set factor to 0.00627
ElecMinimize: Iter:  72  G: -2911.936388674006594  |grad|_K:  4.378e-08  alpha:  3.483e-01  linmin:  8.039e-05  t[s]:   9480.41
	Linear fluid (dielectric constant: 78.4, screening length: 8.12261 Bohr) occupying 0.367499 of unit cell:	Completed after 7 iterations at t[s]:   9522.95
	Linear fluid (dielectric constant: 78.4, screening length: 8.12261 Bohr) occupying 0.367499 of unit cell:	Completed after 0 iterations at t[s]:   9553.75
	FillingsUpdate:  mu: -0.208000000  nElectrons: 543.856227  magneticMoment: [ Abs: 0.00094  Tot: -0.00088 ]
	SubspaceRotationAdjust: set factor to 0.00796
ElecMinimize: Iter:  73  G: -2911.936388885723773  |grad|_K:  3.673e-08  alpha:  4.751e-01  linmin: -2.797e-04  t[s]:   9601.52
	Linear fluid (dielectric constant: 78.4, screening length: 8.12261 Bohr) occupying 0.367498 of unit cell:	Completed after 9 iterations at t[s]:   9645.11
	Linear fluid (dielectric constant: 78.4, screening length: 8.12261 Bohr) occupying 0.367498 of unit cell:	Completed after 0 iterations at t[s]:   9675.25
	FillingsUpdate:  mu: -0.208000000  nElectrons: 543.855814  magneticMoment: [ Abs: 0.00094  Tot: -0.00088 ]
	SubspaceRotationAdjust: set factor to 0.00694
ElecMinimize: Iter:  74  G: -2911.936389043392865  |grad|_K:  4.640e-08  alpha:  4.772e-01  linmin: -1.830e-04  t[s]:   9722.60
	Linear fluid (dielectric constant: 78.4, screening length: 8.12261 Bohr) occupying 0.367498 of unit cell:	Completed after 10 iterations at t[s]:   9766.21
	Linear fluid (dielectric constant: 78.4, screening length: 8.12261 Bohr) occupying 0.367498 of unit cell:	Completed after 7 iterations at t[s]:   9798.43
	FillingsUpdate:  mu: -0.208000000  nElectrons: 543.856092  magneticMoment: [ Abs: 0.00094  Tot: -0.00088 ]
	SubspaceRotationAdjust: set factor to 0.00623
ElecMinimize: Iter:  75  G: -2911.936389199027417  |grad|_K:  3.895e-08  alpha:  2.936e-01  linmin:  2.825e-05  t[s]:   9846.62
	Linear fluid (dielectric constant: 78.4, screening length: 8.12261 Bohr) occupying 0.367498 of unit cell:	Completed after 2 iterations at t[s]:   9887.97
	Linear fluid (dielectric constant: 78.4, screening length: 8.12261 Bohr) occupying 0.367498 of unit cell:	Completed after 2 iterations at t[s]:   9919.19
	FillingsUpdate:  mu: -0.208000000  nElectrons: 543.856017  magneticMoment: [ Abs: 0.00093  Tot: -0.00088 ]
	SubspaceRotationAdjust: set factor to 0.00765
ElecMinimize: Iter:  76  G: -2911.936389388993575  |grad|_K:  3.797e-08  alpha:  5.385e-01  linmin: -7.081e-05  t[s]:   9966.57
	Linear fluid (dielectric constant: 78.4, screening length: 8.12261 Bohr) occupying 0.367497 of unit cell:	Completed after 10 iterations at t[s]:  10010.22
	Linear fluid (dielectric constant: 78.4, screening length: 8.12261 Bohr) occupying 0.367497 of unit cell:	Completed after 2 iterations at t[s]:  10041.72
	FillingsUpdate:  mu: -0.208000000  nElectrons: 543.855519  magneticMoment: [ Abs: 0.00093  Tot: -0.00087 ]
	SubspaceRotationAdjust: set factor to 0.0067
ElecMinimize: Iter:  77  G: -2911.936389537022933  |grad|_K:  4.292e-08  alpha:  4.256e-01  linmin:  1.511e-04  t[s]:  10090.07
	Linear fluid (dielectric constant: 78.4, screening length: 8.12261 Bohr) occupying 0.367497 of unit cell:	Completed after 10 iterations at t[s]:  10133.32
	Linear fluid (dielectric constant: 78.4, screening length: 8.12261 Bohr) occupying 0.367497 of unit cell:	Completed after 2 iterations at t[s]:  10164.21
	FillingsUpdate:  mu: -0.208000000  nElectrons: 543.855677  magneticMoment: [ Abs: 0.00093  Tot: -0.00087 ]
	SubspaceRotationAdjust: set factor to 0.0059
ElecMinimize: Iter:  78  G: -2911.936389672447149  |grad|_K:  3.350e-08  alpha:  3.393e-01  linmin:  8.872e-06  t[s]:  10212.15
	Linear fluid (dielectric constant: 78.4, screening length: 8.12261 Bohr) occupying 0.367496 of unit cell:	Completed after 2 iterations at t[s]:  10254.05
	Linear fluid (dielectric constant: 78.4, screening length: 8.12261 Bohr) occupying 0.367496 of unit cell:	Completed after 2 iterations at t[s]:  10285.60
	FillingsUpdate:  mu: -0.208000000  nElectrons: 543.855489  magneticMoment: [ Abs: 0.00092  Tot: -0.00088 ]
	SubspaceRotationAdjust: set factor to 0.00709
ElecMinimize: Iter:  79  G: -2911.936389817403324  |grad|_K:  2.923e-08  alpha:  5.512e-01  linmin: -1.303e-04  t[s]:  10332.43
	Linear fluid (dielectric constant: 78.4, screening length: 8.12261 Bohr) occupying 0.367494 of unit cell:	Completed after 7 iterations at t[s]:  10374.95
	Linear fluid (dielectric constant: 78.4, screening length: 8.12261 Bohr) occupying 0.367494 of unit cell:	Completed after 0 iterations at t[s]:  10405.75
	FillingsUpdate:  mu: -0.208000000  nElectrons: 543.855250  magneticMoment: [ Abs: 0.00093  Tot: -0.00089 ]
	SubspaceRotationAdjust: set factor to 0.00727
ElecMinimize: Iter:  80  G: -2911.936389923771003  |grad|_K:  3.284e-08  alpha:  5.216e-01  linmin: -1.504e-04  t[s]:  10453.35
	Linear fluid (dielectric constant: 78.4, screening length: 8.12261 Bohr) occupying 0.367492 of unit cell:	Completed after 9 iterations at t[s]:  10496.92
	Linear fluid (dielectric constant: 78.4, screening length: 8.12261 Bohr) occupying 0.367493 of unit cell:	Completed after 7 iterations at t[s]:  10529.15
	FillingsUpdate:  mu: -0.208000000  nElectrons: 543.855534  magneticMoment: [ Abs: 0.00095  Tot: -0.00089 ]
	SubspaceRotationAdjust: set factor to 0.00635
ElecMinimize: Iter:  81  G: -2911.936390001671953  |grad|_K:  3.016e-08  alpha:  3.045e-01  linmin:  8.371e-05  t[s]:  10576.12
	Linear fluid (dielectric constant: 78.4, screening length: 8.12261 Bohr) occupying 0.367491 of unit cell:	Completed after 2 iterations at t[s]:  10617.97
	Linear fluid (dielectric constant: 78.4, screening length: 8.12261 Bohr) occupying 0.367490 of unit cell:	Completed after 2 iterations at t[s]:  10649.08
	FillingsUpdate:  mu: -0.208000000  nElectrons: 543.855508  magneticMoment: [ Abs: 0.00096  Tot: -0.00090 ]
	SubspaceRotationAdjust: set factor to 0.00833
ElecMinimize: Iter:  82  G: -2911.936390106092404  |grad|_K:  2.805e-08  alpha:  5.025e-01  linmin: -2.470e-05  t[s]:  10697.10
	Linear fluid (dielectric constant: 78.4, screening length: 8.12261 Bohr) occupying 0.367488 of unit cell:	Completed after 9 iterations at t[s]:  10740.03
	Linear fluid (dielectric constant: 78.4, screening length: 8.12261 Bohr) occupying 0.367489 of unit cell:	Completed after 3 iterations at t[s]:  10771.56
	FillingsUpdate:  mu: -0.208000000  nElectrons: 543.855352  magneticMoment: [ Abs: 0.00096  Tot: -0.00090 ]
	SubspaceRotationAdjust: set factor to 0.00731
ElecMinimize: Iter:  83  G: -2911.936390167088121  |grad|_K:  3.537e-08  alpha:  3.482e-01  linmin:  1.690e-05  t[s]:  10818.94
	Linear fluid (dielectric constant: 78.4, screening length: 8.12261 Bohr) occupying 0.367486 of unit cell:	Completed after 7 iterations at t[s]:  10861.58
	Linear fluid (dielectric constant: 78.4, screening length: 8.12261 Bohr) occupying 0.367487 of unit cell:	Completed after 3 iterations at t[s]:  10893.40
	FillingsUpdate:  mu: -0.208000000  nElectrons: 543.855696  magneticMoment: [ Abs: 0.00096  Tot: -0.00091 ]
	SubspaceRotationAdjust: set factor to 0.00701
ElecMinimize: Iter:  84  G: -2911.936390234699957  |grad|_K:  2.554e-08  alpha:  2.419e-01  linmin:  1.548e-04  t[s]:  10940.95
ElecMinimize: Converged (|Delta G|<1.000000e-07 for 2 iters).
Setting wave functions to eigenvectors of Hamiltonian
Converging empty states (this may take a while): |deigs|: 3.862e-04

Computing DFT-D3 correction:
# coordination-number Pt 7.089 9.382 5.909 7.123 9.382 9.529 9.574 9.254 9.546 9.572 9.546 9.376 9.578 9.572 9.310 7.126 7.522 9.311 9.574 7.520 9.375 9.545 9.572 9.254 9.574 9.577 9.529 9.382 7.123 9.547 9.382 7.088 7.128 5.910
# diagonal-C6 Pt 336.87 336.87 336.87 336.87 336.87 336.87 336.87 336.87 336.87 336.87 336.87 336.87 336.87 336.87 336.87 336.87 336.87 336.87 336.87 336.87 336.87 336.87 336.87 336.87 336.87 336.87 336.87 336.87 336.87 336.87 336.87 336.87 336.87 336.87
EvdW_6 =   -0.316099
EvdW_8 =   -0.498881

# Ionic positions in cartesian coordinates:
ion Pt  -0.000999000000000  12.444862000000004   1.388580000000000 1
ion Pt   5.231101000000000  16.562279000000004   5.112693000000000 1
ion Pt   5.232932000000001  21.903696000000004  29.779174999999999 1
ion Pt   5.230813000000000   3.756258000000001   2.906024000000000 1
ion Pt   5.231279000000001   7.571774000000001   6.749421000000000 1
ion Pt   5.231535000000000  11.435095000000004  10.396471999999999 1
ion Pt   0.000277000000000  18.996277000000003  17.491360000000000 1
ion Pt   5.231201000000000  20.404157000000005   8.470594000000000 1
[...]
	SubspaceRotationAdjust: set factor to 0.0079
ElecMinimize: Iter:  24  G: -2911.936406796417032  |grad|_K:  1.080e-07  alpha:  4.672e-01  linmin: -2.593e-04  t[s]:  29107.09
	Linear fluid (dielectric constant: 78.4, screening length: 8.12261 Bohr) occupying 0.367525 of unit cell:	Completed after 8 iterations at t[s]:  29149.50
	Linear fluid (dielectric constant: 78.4, screening length: 8.12261 Bohr) occupying 0.367528 of unit cell:	Completed after 2 iterations at t[s]:  29180.41
	FillingsUpdate:  mu: -0.208000000  nElectrons: 543.852851  magneticMoment: [ Abs: 0.00125  Tot: -0.00117 ]
	SubspaceRotationAdjust: set factor to 0.00869
ElecMinimize: Iter:  25  G: -2911.936408690369717  |grad|_K:  1.101e-07  alpha:  6.906e-01  linmin: -1.257e-04  t[s]:  29228.25
	Linear fluid (dielectric constant: 78.4, screening length: 8.12261 Bohr) occupying 0.367540 of unit cell:	Completed after 11 iterations at t[s]:  29272.14
	Linear fluid (dielectric constant: 78.4, screening length: 8.12261 Bohr) occupying 0.367538 of unit cell:	Completed after 5 iterations at t[s]:  29303.48
	FillingsUpdate:  mu: -0.208000000  nElectrons: 543.853206  magneticMoment: [ Abs: 0.00121  Tot: -0.00116 ]
	SubspaceRotationAdjust: set factor to 0.00826
ElecMinimize: Iter:  26  G: -2911.936410345404511  |grad|_K:  1.228e-07  alpha:  5.837e-01  linmin:  1.853e-04  t[s]:  29350.40
	Linear fluid (dielectric constant: 78.4, screening length: 8.12261 Bohr) occupying 0.367552 of unit cell:	Completed after 12 iterations at t[s]:  29393.96
	Linear fluid (dielectric constant: 78.4, screening length: 8.12261 Bohr) occupying 0.367545 of unit cell:	Completed after 11 iterations at t[s]:  29427.26
	FillingsUpdate:  mu: -0.208000000  nElectrons: 543.851858  magneticMoment: [ Abs: 0.00120  Tot: -0.00115 ]
	SubspaceRotationAdjust: set factor to 0.00642
ElecMinimize: Iter:  27  G: -2911.936411300957388  |grad|_K:  1.018e-07  alpha:  2.801e-01  linmin:  1.672e-05  t[s]:  29474.81
	Linear fluid (dielectric constant: 78.4, screening length: 8.12261 Bohr) occupying 0.367550 of unit cell:	Completed after 9 iterations at t[s]:  29518.30
	Linear fluid (dielectric constant: 78.4, screening length: 8.12261 Bohr) occupying 0.367554 of unit cell:	Completed after 7 iterations at t[s]:  29549.90
	FillingsUpdate:  mu: -0.208000000  nElectrons: 543.852247  magneticMoment: [ Abs: 0.00121  Tot: -0.00114 ]
	SubspaceRotationAdjust: set factor to 0.00711
ElecMinimize: Iter:  28  G: -2911.936412455460413  |grad|_K:  7.931e-08  alpha:  4.801e-01  linmin:  4.261e-05  t[s]:  29596.94
	Linear fluid (dielectric constant: 78.4, screening length: 8.12261 Bohr) occupying 0.367558 of unit cell:	Completed after 7 iterations at t[s]:  29639.88
	Linear fluid (dielectric constant: 78.4, screening length: 8.12261 Bohr) occupying 0.367558 of unit cell:	Completed after 0 iterations at t[s]:  29670.61
	FillingsUpdate:  mu: -0.208000000  nElectrons: 543.852625  magneticMoment: [ Abs: 0.00121  Tot: -0.00113 ]
	SubspaceRotationAdjust: set factor to 0.00825
ElecMinimize: Iter:  29  G: -2911.936413262851147  |grad|_K:  7.112e-08  alpha:  5.527e-01  linmin: -2.974e-04  t[s]:  29718.93
	Linear fluid (dielectric constant: 78.4, screening length: 8.12261 Bohr) occupying 0.367559 of unit cell:	Completed after 10 iterations at t[s]:  29761.89
	Linear fluid (dielectric constant: 78.4, screening length: 8.12261 Bohr) occupying 0.367559 of unit cell:	Completed after 6 iterations at t[s]:  29793.99
	FillingsUpdate:  mu: -0.208000000  nElectrons: 543.852119  magneticMoment: [ Abs: 0.00120  Tot: -0.00113 ]
	SubspaceRotationAdjust: set factor to 0.00755
ElecMinimize: Iter:  30  G: -2911.936413781786086  |grad|_K:  7.440e-08  alpha:  4.342e-01  linmin:  4.778e-04  t[s]:  29841.35
	Linear fluid (dielectric constant: 78.4, screening length: 8.12261 Bohr) occupying 0.367557 of unit cell:	Completed after 11 iterations at t[s]:  29884.75
	Linear fluid (dielectric constant: 78.4, screening length: 8.12261 Bohr) occupying 0.367558 of unit cell:	Completed after 2 iterations at t[s]:  29915.83
	FillingsUpdate:  mu: -0.208000000  nElectrons: 543.853061  magneticMoment: [ Abs: 0.00119  Tot: -0.00112 ]
	SubspaceRotationAdjust: set factor to 0.00667
ElecMinimize: Iter:  31  G: -2911.936414245092692  |grad|_K:  6.141e-08  alpha:  3.673e-01  linmin:  3.737e-04  t[s]:  29963.51
	Linear fluid (dielectric constant: 78.4, screening length: 8.12261 Bohr) occupying 0.367554 of unit cell:	Completed after 7 iterations at t[s]:  30005.85
	Linear fluid (dielectric constant: 78.4, screening length: 8.12261 Bohr) occupying 0.367553 of unit cell:	Completed after 6 iterations at t[s]:  30037.82
	FillingsUpdate:  mu: -0.208000000  nElectrons: 543.853185  magneticMoment: [ Abs: 0.00118  Tot: -0.00112 ]
	SubspaceRotationAdjust: set factor to 0.00697
ElecMinimize: Iter:  32  G: -2911.936414718154992  |grad|_K:  5.303e-08  alpha:  5.394e-01  linmin: -1.172e-03  t[s]:  30085.37
	Linear fluid (dielectric constant: 78.4, screening length: 8.12261 Bohr) occupying 0.367546 of unit cell:	Completed after 7 iterations at t[s]:  30128.25
	Linear fluid (dielectric constant: 78.4, screening length: 8.12261 Bohr) occupying 0.367545 of unit cell:	Completed after 2 iterations at t[s]:  30159.63
	FillingsUpdate:  mu: -0.208000000  nElectrons: 543.853988  magneticMoment: [ Abs: 0.00120  Tot: -0.00109 ]
	SubspaceRotationAdjust: set factor to 0.00744
ElecMinimize: Iter:  33  G: -2911.936415159923854  |grad|_K:  5.093e-08  alpha:  6.560e-01  linmin: -3.249e-05  t[s]:  30206.30
	Linear fluid (dielectric constant: 78.4, screening length: 8.12261 Bohr) occupying 0.367535 of unit cell:	Completed after 5 iterations at t[s]:  30248.41
	Linear fluid (dielectric constant: 78.4, screening length: 8.12261 Bohr) occupying 0.367536 of unit cell:	Completed after 0 iterations at t[s]:  30279.27
	FillingsUpdate:  mu: -0.208000000  nElectrons: 543.854465  magneticMoment: [ Abs: 0.00116  Tot: -0.00106 ]
	SubspaceRotationAdjust: set factor to 0.00775
ElecMinimize: Iter:  34  G: -2911.936415521735398  |grad|_K:  4.453e-08  alpha:  5.997e-01  linmin:  3.291e-04  t[s]:  30326.79
	Linear fluid (dielectric constant: 78.4, screening length: 8.12261 Bohr) occupying 0.367529 of unit cell:	Completed after 7 iterations at t[s]:  30369.75
	Linear fluid (dielectric constant: 78.4, screening length: 8.12261 Bohr) occupying 0.367530 of unit cell:	Completed after 0 iterations at t[s]:  30399.73
	FillingsUpdate:  mu: -0.208000000  nElectrons: 543.855099  magneticMoment: [ Abs: 0.00112  Tot: -0.00105 ]
	SubspaceRotationAdjust: set factor to 0.00775
ElecMinimize: Iter:  35  G: -2911.936415768176175  |grad|_K:  3.862e-08  alpha:  5.368e-01  linmin:  5.579e-04  t[s]:  30446.76
	Linear fluid (dielectric constant: 78.4, screening length: 8.12261 Bohr) occupying 0.367525 of unit cell:	Completed after 9 iterations at t[s]:  30490.45
	Linear fluid (dielectric constant: 78.4, screening length: 8.12261 Bohr) occupying 0.367526 of unit cell:	Completed after 3 iterations at t[s]:  30521.84
	FillingsUpdate:  mu: -0.208000000  nElectrons: 543.855085  magneticMoment: [ Abs: 0.00110  Tot: -0.00104 ]
	SubspaceRotationAdjust: set factor to 0.0067
ElecMinimize: Iter:  36  G: -2911.936415915321959  |grad|_K:  3.814e-08  alpha:  4.327e-01  linmin:  5.180e-04  t[s]:  30569.61
	Linear fluid (dielectric constant: 78.4, screening length: 8.12261 Bohr) occupying 0.367523 of unit cell:	Completed after 10 iterations at t[s]:  30612.63
	Linear fluid (dielectric constant: 78.4, screening length: 8.12261 Bohr) occupying 0.367524 of unit cell:	Completed after 6 iterations at t[s]:  30644.54
	FillingsUpdate:  mu: -0.208000000  nElectrons: 543.855564  magneticMoment: [ Abs: 0.00109  Tot: -0.00103 ]
	SubspaceRotationAdjust: set factor to 0.00528
ElecMinimize: Iter:  37  G: -2911.936416005977208  |grad|_K:  2.720e-08  alpha:  2.773e-01  linmin:  6.173e-04  t[s]:  30691.76
	Linear fluid (dielectric constant: 78.4, screening length: 8.12261 Bohr) occupying 0.367523 of unit cell:	Completed after 2 iterations at t[s]:  30733.11
	Linear fluid (dielectric constant: 78.4, screening length: 8.12261 Bohr) occupying 0.367522 of unit cell:	Completed after 0 iterations at t[s]:  30763.62
	FillingsUpdate:  mu: -0.208000000  nElectrons: 543.855597  magneticMoment: [ Abs: 0.00109  Tot: -0.00103 ]
	SubspaceRotationAdjust: set factor to 0.00709
ElecMinimize: Iter:  38  G: -2911.936416085627116  |grad|_K:  2.166e-08  alpha:  4.543e-01  linmin: -2.894e-03  t[s]:  30811.99
ElecMinimize: Converged (|Delta G|<1.000000e-07 for 2 iters).
Setting wave functions to eigenvectors of Hamiltonian
Converging empty states (this may take a while): |deigs|: 1.109e-07

Computing DFT-D3 correction:
# coordination-number Pt 7.103 9.391 5.903 7.127 9.384 9.525 9.569 9.260 9.545 9.566 9.541 9.381 9.570 9.567 9.328 7.135 7.530 9.331 9.570 7.528 9.381 9.541 9.566 9.258 9.569 9.569 9.524 9.383 7.127 9.546 9.389 7.101 7.137 5.905
# diagonal-C6 Pt 336.87 336.87 336.87 336.87 336.87 336.87 336.87 336.87 336.87 336.87 336.87 336.87 336.87 336.87 336.87 336.87 336.87 336.87 336.87 336.87 336.87 336.87 336.87 336.87 336.87 336.87 336.87 336.87 336.87 336.87 336.87 336.87 336.87 336.87
EvdW_6 =   -0.316094
EvdW_8 =   -0.498895

# Ionic positions in cartesian coordinates:
ion Pt  -0.001014253507123  12.439591791306730   1.395705441091106 1
ion Pt   5.231088711957176  16.557840139039822   5.109567961535124 1
ion Pt   5.232938478310083  21.900097525310446  29.779467764846444 1
ion Pt   5.230789208745948   3.753488218945780   2.907202434317668 1
ion Pt   5.231283315089069   7.572609296129258   6.747136383767907 1
ion Pt   5.231533449875311  11.433316304426182  10.393557424185619 1
ion Pt   0.000280389022687  18.996872751588107  17.493172228591693 1
ion Pt   5.231214569400429  20.404120551970141   8.469695184386847 1
ion Pt   5.231847913734959   2.543188519436507  12.039951675511173 1
ion Pt   5.232170946256829   6.332816632293853  15.661277189585769 1
ion Pt   0.000313096522305  10.173124834191995  19.299498709374518 1
ion Pt   0.000808980202052  13.984086531824040  23.030951980908394 1
ion Pt   5.231693251264399  15.252472832096213  13.946971491409631 1
ion Pt   5.232699569998497   1.193737251445820  21.012532226035166 1
ion Pt   0.000808553469470   5.101496755765209  24.555489271735915 1
ion Pt   0.001032577363072   9.010485594205383  28.336181697914835 1
ion Pt   5.233025340774908  17.731401883555542  26.871072709397207 1
ion Pt   2.615234102558418  12.027552095736567   5.952290644955944 1
ion Pt   2.615317105437962  15.938388104918305   9.495105419719582 1
ion Pt   2.614815661995845  20.968956059156596   3.636028822508480 1
ion Pt   2.615225145370931   3.145807916208616   7.476172771232491 1
ion Pt   2.615737311038990   6.959945396964642  11.207338571301500 1
ion Pt   2.615869488866026  10.801058627844981  14.845458534578919 1
ion Pt   2.616765067939790  18.298285017557426  22.037411171231927 1
ion Pt   2.615740850235310  19.708840468844670  13.014159616751801 1
ion Pt   2.616356657624598   1.882170869361770  16.560336856638568 1
ion Pt   2.616541340591746   5.700228044631618  20.113971241218685 1
ion Pt   2.616787516702456   9.557911853859528  23.760708341588831 1
ion Pt   2.617066093104923  13.375600616301080  27.600698814519831 1
ion Pt   2.616219322219875  14.590170645329479  18.466694563469886 1
ion Pt   2.616870087222746   0.570428973266112  25.398472234915456 1
ion Pt   2.616962932476636   4.688340075439818  29.112319217153107 1
ion Pt   2.614903994037715   8.118203284288658   2.172090871884774 1
ion Pt   2.614978224095965  16.798626536759198   0.728951531735216 1

# Forces in Cartesian coordinates:
force Pt  -0.000000692970238   0.000262765317971  -0.000020852970157 1
force Pt  -0.000000854881121   0.000053312047766  -0.000178721283715 1
force Pt   0.000000384373683   0.000141195692952  -0.000006839255789 1
force Pt  -0.000001914147144   0.000078726186419   0.000032747861367 1
force Pt  -0.000000205069425  -0.000177533968820   0.000170297896364 1
force Pt  -0.000000579871736  -0.000048336230817  -0.000177745570039 1
force Pt   0.000000565134050   0.000175204649354   0.000002273557102 1
force Pt   0.000000095303155  -0.000295809713031  -0.000155850485661 1
force Pt   0.000000179194785  -0.000015743583246  -0.000017238162485 1
force Pt   0.000000123681171   0.000065339609259   0.000107408032332 1
force Pt  -0.000000152257145   0.000087951373404   0.000080499885662 1
force Pt  -0.000000029658854  -0.000149509479598  -0.000132476365079 1
force Pt  -0.000000208441209   0.000032140899096  -0.000245048649379 1
force Pt   0.000000369110184   0.000100326554786   0.000023461745434 1
force Pt  -0.000000511889999   0.000160368209150  -0.000442501061384 1
force Pt   0.000000893600577   0.000578061819558  -0.000149041082634 1
force Pt   0.000000512556147   0.000271311625287  -0.000414492301820 1
force Pt  -0.000000291272996  -0.000153358294093   0.000404179815877 1
force Pt  -0.000000810120089  -0.000103560570865  -0.000044132896441 1
force Pt  -0.000000664765247  -0.000247643827818   0.000380279054856 1
force Pt  -0.000000452341757   0.000142202046428   0.000107546234231 1
force Pt   0.000000609700095  -0.000124931907461  -0.000049416858229 1
force Pt   0.000000108247615  -0.000092785414097  -0.000028626073732 1
force Pt   0.000000482758553   0.000305010392376   0.000122982319105 1
force Pt  -0.000000122651412  -0.000177729318927   0.000035796695370 1
force Pt   0.000000154779842  -0.000050260403208   0.000296456929700 1
force Pt  -0.000000585566379   0.000036435704430   0.000181890731026 1
force Pt   0.000000073394884   0.000160898892886  -0.000209913872030 1
force Pt   0.000001138103760  -0.000067058185734  -0.000076297019507 1
force Pt   0.000000297571870   0.000009434677274   0.000051881742986 1
force Pt   0.000000643676362  -0.000029271838177   0.000121332307554 1
force Pt  -0.000000046544891  -0.000210332512694  -0.000020272056693 1
force Pt  -0.000001510178163  -0.000571391005719   0.000101144541527 1
force Pt   0.000000054366345  -0.000109839045931  -0.000054191235738 1

# Energy components:
   A_diel =        0.0542888041824562
   Eewald =    18275.7053788281009474
       EH =    21111.2724256967048859
     Eloc =   -42936.6154329209020943
      Enl =      -35.8775190178457137
     EvdW =       -0.8149889832408652
      Exc =     -967.3244127409440125
 Exc_core =      557.3069508945933421
       KE =      971.2295016916398254
  MuShift =        0.0113182538286222
-------------------------------------
     Etot =    -3025.0524894938794205
       TS =        0.0058907201819827
-------------------------------------
        F =    -3025.0583802140613443
      muN =     -113.1219641284343567
-------------------------------------
        G =    -2911.9364160856271155


Dumping 'jdft.fillings' ... done
Dumping 'jdft.wfns' ... done
Dumping 'jdft.fluidState' ... done
Dumping 'jdft.ionpos' ... done
Dumping 'jdft.lattice' ... done
Dumping 'jdft.eigenvals' ... done
Dumping 'jdft.eigStats' ... 
	eMin: -2.158988 at state 13 ( [ +0.000000 +0.500000 +0.000000 ] spin -1 )
	HOMO: -0.208258 at state 10 ( [ +0.454545 +0.000000 +0.000000 ] spin 1 )
	mu  : -0.208000
	LUMO: -0.207780 at state 15 ( [ +0.090909 +0.500000 +0.000000 ] spin -1 )
	eMax: +0.104637 at state 8 ( [ +0.363636 +0.000000 +0.000000 ] spin 1 )
	HOMO-LUMO gap: +0.000479
	Optical gap  : +0.000632 at state 20 ( [ +0.363636 +0.000000 +0.000000 ] spin -1 )
Dumping 'jdft.Ecomponents' ... done
IonicMinimize: Iter:   2  G: -2911.936416085627116  |grad|_K:  1.584e-04  alpha:  3.643e-01  linmin:  8.009e-02  t[s]:  30971.55
IonicMinimize: Converged (|Delta G|<1.000000e-04 for 2 iters).

#--- Lowdin population analysis ---
# oxidation-state Pt +0.014 -0.007 +0.078 +0.030 +0.016 +0.012 +0.014 +0.015 +0.014 +0.005 +0.010 +0.012 +0.004 +0.012 +0.010 +0.016 -0.008 +0.010 +0.011 -0.006 +0.012 +0.009 +0.004 +0.015 +0.013 +0.006 +0.014 +0.017 +0.028 +0.015 -0.008 +0.012 +0.018 +0.081
# magnetic-moments Pt -0.000 -0.000 -0.000 -0.000 -0.000 -0.000 -0.000 -0.000 -0.000 -0.000 -0.000 -0.000 -0.000 -0.000 -0.000 -0.000 -0.000 -0.000 -0.000 -0.000 -0.000 -0.000 -0.000 -0.000 -0.000 -0.000 -0.000 -0.000 -0.000 -0.000 -0.000 -0.000 -0.000 -0.000


Dumping 'jdft.n_up' ... done
Dumping 'jdft.n_dn' ... done
Dumping 'jdft.tau_up' ... done
Dumping 'jdft.tau_dn' ... done
Dumping 'jdft.eigenvals' ... done
Dumping 'jdft.eigStats' ... 
	eMin: -2.158988 at state 13 ( [ +0.000000 +0.500000 +0.000000 ] spin -1 )
	HOMO: -0.208258 at state 10 ( [ +0.454545 +0.000000 +0.000000 ] spin 1 )
	mu  : -0.208000
	LUMO: -0.207780 at state 15 ( [ +0.090909 +0.500000 +0.000000 ] spin -1 )
	eMax: +0.104637 at state 8 ( [ +0.363636 +0.000000 +0.000000 ] spin 1 )
	HOMO-LUMO gap: +0.000479
	Optical gap  : +0.000632 at state 20 ( [ +0.363636 +0.000000 +0.000000 ] spin -1 )
Dumping 'jdft.kPts' ... done
Dumping 'jdft.kMap' ... done
Dumping 'jdft.dosUp' ... done.
Dumping 'jdft.dosDn' ... done.
End date and time: Sat Sep 10 20:23:16 2022  (Duration: 0-8:37:23.47)
Done!

PROFILER:             augmentDensityGrid     1.293671 +/-     0.123201 s,  479 calls,    619.668185 s total
PROFILER:         augmentDensityGridGrad     0.685178 +/-     0.168593 s,  249 calls,    170.609369 s total
PROFILER:        augmentDensitySpherical     0.005732 +/-     0.000186 s,  479 calls,      2.745861 s total
PROFILER:    augmentDensitySphericalGrad     0.005563 +/-     0.000776 s,  274 calls,      1.524154 s total
PROFILER:                 augmentOverlap     7.515953 +/-     0.634230 s, 1002 calls,   7530.985209 s total
PROFILER:                     diagouterI    12.595922 +/-     0.162487 s,  482 calls,   6071.234206 s total
PROFILER:              EdensityAndVscloc     4.674393 +/-     1.393103 s,  479 calls,   2239.034465 s total
PROFILER:                     EnlAndGrad     0.036699 +/-     0.005201 s,  511 calls,     18.753186 s total
PROFILER:            ExCorrCommunication     0.036425 +/-     0.075343 s, 2953 calls,    107.563235 s total
PROFILER:               ExCorrFunctional     0.006919 +/-     0.000805 s,  501 calls,      3.466230 s total
PROFILER:                    ExCorrTotal     0.312003 +/-     0.140767 s,  501 calls,    156.313614 s total
PROFILER:                   Idag_DiagV_I    24.183945 +/-     4.235233 s,  267 calls,   6457.113297 s total
PROFILER:                    initWeights     1.872596 +/-     0.000000 s,    1 calls,      1.872596 s total
PROFILER:                    inv(matrix)     0.020284 +/-     0.012487 s,  476 calls,      9.655316 s total
PROFILER:            matrix::diagonalize     0.058980 +/-     0.029266 s,  741 calls,     43.703835 s total
PROFILER:                    matrix::set     0.000015 +/-     0.000010 s, 26858 calls,      0.407204 s total
PROFILER:            orthoMatrix(matrix)     0.010325 +/-     0.006401 s,  495 calls,      5.110964 s total
PROFILER:     RadialFunctionR::transform     0.005722 +/-     0.023730 s,   55 calls,      0.314713 s total
PROFILER:                    reduceKmesh     0.001850 +/-     0.000000 s,    1 calls,      0.001850 s total
PROFILER:   VanDerWaalsD3::energyAndGrad     0.026334 +/-     0.001678 s,   15 calls,      0.395011 s total
PROFILER:               WavefunctionDrag    29.428815 +/-     5.716455 s,    7 calls,    206.001703 s total
PROFILER:                            Y*M     2.493768 +/-     0.777966 s, 3265 calls,   8142.152871 s total
PROFILER:                          Y1^Y2     2.624750 +/-     0.884717 s, 2077 calls,   5451.606717 s total

MEMUSAGE:                   ColumnBundle     0.987578 GB
MEMUSAGE:        complexScalarFieldTilde     0.016093 GB
MEMUSAGE:                    IndexArrays     0.010525 GB
MEMUSAGE:                         matrix     0.074713 GB
MEMUSAGE:                           misc     0.016187 GB
MEMUSAGE:                    ScalarField     0.116676 GB
MEMUSAGE:               ScalarFieldTilde     0.085166 GB
MEMUSAGE:                          Total     1.108986 GB
