
*************** JDFTx 1.6.0  ***************

Start date and time: Mon Dec  6 16:44:47 2021
Executable /projects/musgravc/apps/jdftx-1.6.1/build/jdftx with command-line: -i in
Running on hosts (process indices):  shas0548.rc.int.colorado.edu (0-23)
Divided in process groups (process indices):  0 (0)  1 (1)  2 (2)  3 (3)  4 (4)  5 (5)  6 (6)  7 (7)  8 (8)  9 (9)  10 (10)  11 (11)  12 (12)  13 (13)  14 (14)  15 (15)  16 (16)  17 (17)  18 (18)  19 (19)  20 (20)  21 (21)  22 (22)  23 (23)
Resource initialization completed at t[s]:      0.00
Run totals: 24 processes, 24 threads, 0 GPUs


Input parsed successfully to the following command list (including defaults):

basis kpoint-dependent
converge-empty-states yes
coords-type Cartesian
core-overlap-check none
coulomb-interaction Periodic
davidson-band-ratio 1.1
density-of-states Etol 1.000000e-06 Esigma 1.000000e-03 \
		Complete \
	Total \
	OrthoOrbital Pt 1   s \
	OrthoOrbital Pt 1   p \
	OrthoOrbital Pt 1   px \
	OrthoOrbital Pt 1   py \
	OrthoOrbital Pt 1   pz \
	OrthoOrbital Pt 1   d \
	OrthoOrbital Pt 1   dxy \
	OrthoOrbital Pt 1   dyz \
	OrthoOrbital Pt 1   dz2 \
	OrthoOrbital Pt 1   dxz \
	OrthoOrbital Pt 1   dx2-y2 \
	OrthoOrbital Pt 2   s \
	OrthoOrbital Pt 2   p \
	OrthoOrbital Pt 2   px \
	OrthoOrbital Pt 2   py \
	OrthoOrbital Pt 2   pz \
	OrthoOrbital Pt 2   d \
	OrthoOrbital Pt 2   dxy \
	OrthoOrbital Pt 2   dyz \
	OrthoOrbital Pt 2   dz2 \
	OrthoOrbital Pt 2   dxz \
	OrthoOrbital Pt 2   dx2-y2 \
	OrthoOrbital Pt 3   s \
	OrthoOrbital Pt 3   p \
	OrthoOrbital Pt 3   px \
	OrthoOrbital Pt 3   py \
	OrthoOrbital Pt 3   pz \
	OrthoOrbital Pt 3   d \
	OrthoOrbital Pt 3   dxy \
	OrthoOrbital Pt 3   dyz \
	OrthoOrbital Pt 3   dz2 \
	OrthoOrbital Pt 3   dxz \
	OrthoOrbital Pt 3   dx2-y2 \
	OrthoOrbital Pt 4   s \
	OrthoOrbital Pt 4   p \
	OrthoOrbital Pt 4   px \
	OrthoOrbital Pt 4   py \
	OrthoOrbital Pt 4   pz \
	OrthoOrbital Pt 4   d \
	OrthoOrbital Pt 4   dxy \
	OrthoOrbital Pt 4   dyz \
	OrthoOrbital Pt 4   dz2 \
	OrthoOrbital Pt 4   dxz \
	OrthoOrbital Pt 4   dx2-y2 \
	OrthoOrbital Pt 5   s \
	OrthoOrbital Pt 5   p \
	OrthoOrbital Pt 5   px \
	OrthoOrbital Pt 5   py \
	OrthoOrbital Pt 5   pz \
	OrthoOrbital Pt 5   d \
	OrthoOrbital Pt 5   dxy \
	OrthoOrbital Pt 5   dyz \
	OrthoOrbital Pt 5   dz2 \
	OrthoOrbital Pt 5   dxz \
	OrthoOrbital Pt 5   dx2-y2 \
	OrthoOrbital Pt 6   s \
	OrthoOrbital Pt 6   p \
	OrthoOrbital Pt 6   px \
	OrthoOrbital Pt 6   py \
	OrthoOrbital Pt 6   pz \
	OrthoOrbital Pt 6   d \
	OrthoOrbital Pt 6   dxy \
	OrthoOrbital Pt 6   dyz \
	OrthoOrbital Pt 6   dz2 \
	OrthoOrbital Pt 6   dxz \
	OrthoOrbital Pt 6   dx2-y2 \
	OrthoOrbital Pt 7   s \
	OrthoOrbital Pt 7   p \
	OrthoOrbital Pt 7   px \
	OrthoOrbital Pt 7   py \
	OrthoOrbital Pt 7   pz \
	OrthoOrbital Pt 7   d \
	OrthoOrbital Pt 7   dxy \
	OrthoOrbital Pt 7   dyz \
	OrthoOrbital Pt 7   dz2 \
	OrthoOrbital Pt 7   dxz \
	OrthoOrbital Pt 7   dx2-y2 \
	OrthoOrbital Pt 8   s \
	OrthoOrbital Pt 8   p \
	OrthoOrbital Pt 8   px \
	OrthoOrbital Pt 8   py \
	OrthoOrbital Pt 8   pz \
	OrthoOrbital Pt 8   d \
	OrthoOrbital Pt 8   dxy \
	OrthoOrbital Pt 8   dyz \
	OrthoOrbital Pt 8   dz2 \
	OrthoOrbital Pt 8   dxz \
	OrthoOrbital Pt 8   dx2-y2 \
	OrthoOrbital Pt 9   s \
	OrthoOrbital Pt 9   p \
	OrthoOrbital Pt 9   px \
	OrthoOrbital Pt 9   py \
	OrthoOrbital Pt 9   pz \
	OrthoOrbital Pt 9   d \
	OrthoOrbital Pt 9   dxy \
	OrthoOrbital Pt 9   dyz \
	OrthoOrbital Pt 9   dz2 \
	OrthoOrbital Pt 9   dxz \
	OrthoOrbital Pt 9   dx2-y2 \
	OrthoOrbital Pt 10   s \
	OrthoOrbital Pt 10   p \
	OrthoOrbital Pt 10   px \
	OrthoOrbital Pt 10   py \
	OrthoOrbital Pt 10   pz \
	OrthoOrbital Pt 10   d \
	OrthoOrbital Pt 10   dxy \
	OrthoOrbital Pt 10   dyz \
	OrthoOrbital Pt 10   dz2 \
	OrthoOrbital Pt 10   dxz \
	OrthoOrbital Pt 10   dx2-y2
dump End ElecDensity KEdensity BandEigs EigStats RhoAtom DOS Kpoints
dump Ionic State IonicPositions Lattice EigStats Ecomponents
dump 
dump 
dump 
dump 
dump 
dump 
dump 
dump 
dump-name jdft.$VAR
elec-cutoff 20
elec-eigen-algo Davidson
elec-ex-corr gga-PBE
elec-initial-magnetization 0.000000 no
elec-n-bands 96
elec-smearing Fermi 0.001
electronic-minimize  \
	dirUpdateScheme      FletcherReeves \
	linminMethod         DirUpdateRecommended \
	nIterations          100 \
	history              15 \
	knormThreshold       0 \
	energyDiffThreshold  1e-07 \
	nEnergyDiff          2 \
	alphaTstart          1 \
	alphaTmin            1e-10 \
	updateTestStepSize   yes \
	alphaTreduceFactor   0.1 \
	alphaTincreaseFactor 3 \
	nAlphaAdjustMax      3 \
	wolfeEnergy          0.0001 \
	wolfeGradient        0.9 \
	fdTest               no
exchange-regularization WignerSeitzTruncated
fluid LinearPCM 298.000000 1.013250
fluid-anion F- 0.5 MeanFieldLJ \
	epsBulk 1 \
	pMol 0 \
	epsInf 1 \
	Pvap 0 \
	sigmaBulk 0 \
	Rvdw 2.24877 \
	Res 0 \
	tauNuc 343133
fluid-cation Na+ 0.5 MeanFieldLJ \
	epsBulk 1 \
	pMol 0 \
	epsInf 1 \
	Pvap 0 \
	sigmaBulk 0 \
	Rvdw 2.19208 \
	Res 0 \
	tauNuc 343133
fluid-ex-corr lda-TF lda-PZ
fluid-gummel-loop 10 1.000000e-05
fluid-minimize  \
	dirUpdateScheme      PolakRibiere \
	linminMethod         DirUpdateRecommended \
	nIterations          400 \
	history              15 \
	knormThreshold       1e-11 \
	energyDiffThreshold  0 \
	nEnergyDiff          2 \
	alphaTstart          1 \
	alphaTmin            1e-10 \
	updateTestStepSize   yes \
	alphaTreduceFactor   0.1 \
	alphaTincreaseFactor 3 \
	nAlphaAdjustMax      6 \
	wolfeEnergy          0.0001 \
	wolfeGradient        0.9 \
	fdTest               no
fluid-solvent H2O 55.338 ScalarEOS \
	epsBulk 78.4 \
	pMol 0.92466 \
	epsInf 1.77 \
	Pvap 1.06736e-10 \
	sigmaBulk 4.62e-05 \
	Rvdw 2.61727 \
	Res 1.42 \
	tauNuc 343133 \
	poleEl 15 7 1
forces-output-coords Positions
ion Pt   3.699579000000000   1.654502000000000  12.408765999999998 1
ion Pt   0.000000000000000   3.309004000000000   9.099744999999999 1
ion Pt   3.699579000000000   4.963506000000000   5.790773999999999 1
ion Pt   0.000000000000000   6.618008000000000   2.481752999999999 1
ion Pt  -3.699579000000000   8.272510000000000  15.717785999999997 1
ion Pt   3.699579000000000   6.618008000000000  10.754280000000000 1
ion Pt   3.699579000000000   0.000000000000000   7.445258999999999 1
ion Pt   0.000000000000000   1.654502000000000   4.136238999999999 1
ion Pt   3.699579000000000   3.309004000000000   0.827268000000000 1
ion Pt   0.000000000000000   4.963506000000000  14.063250999999998 1
ion-species /projects/musgravc/apps/jdftx-1.6.0/build/pseudopotentials/GBRV_v1.5/$ID_pbe_v1.uspp
ion-species /projects/musgravc/apps/jdftx-1.6.0/build/pseudopotentials/GBRV_v1.5/$ID_pbe_v1.2.uspp
ion-species /projects/musgravc/apps/jdftx-1.6.0/build/pseudopotentials/GBRV_v1.5/$ID_pbe_v1.4.uspp
ion-species /projects/musgravc/apps/jdftx-1.6.0/build/pseudopotentials/GBRV_v1.5/$ID_pbe_v1.5.uspp
ion-width Ecut
ionic-minimize  \
	dirUpdateScheme      L-BFGS \
	linminMethod         DirUpdateRecommended \
	nIterations          100 \
	history              15 \
	knormThreshold       0.0001 \
	energyDiffThreshold  1e-06 \
	nEnergyDiff          2 \
	alphaTstart          1 \
	alphaTmin            1e-10 \
	updateTestStepSize   yes \
	alphaTreduceFactor   0.1 \
	alphaTincreaseFactor 3 \
	nAlphaAdjustMax      3 \
	wolfeEnergy          0.0001 \
	wolfeGradient        0.9 \
	fdTest               no
kpoint   0.000000000000   0.000000000000   0.000000000000  1.00000000000000
kpoint-folding 9 7 1 
latt-move-scale 0 0 0
latt-scale 1 1 1 
lattice  \
	   7.399158000000000   -3.699579000000000    0.000000000000000  \
	   0.000000000000000    8.272510000000000    0.000000000000000  \
	   0.000000000000000    0.000000000000000   49.635063000000002 
lattice-minimize  \
	dirUpdateScheme      L-BFGS \
	linminMethod         DirUpdateRecommended \
	nIterations          0 \
	history              15 \
	knormThreshold       0 \
	energyDiffThreshold  1e-06 \
	nEnergyDiff          2 \
	alphaTstart          1 \
	alphaTmin            1e-10 \
	updateTestStepSize   yes \
	alphaTreduceFactor   0.1 \
	alphaTincreaseFactor 3 \
	nAlphaAdjustMax      3 \
	wolfeEnergy          0.0001 \
	wolfeGradient        0.9 \
	fdTest               no
lcao-params 30 1e-06 0.001
pcm-variant CANDLE
spintype z-spin
subspace-rotation-factor 1 yes
symmetries none
symmetry-threshold 0.0001
target-mu -0.0978 no

van-der-waals D3


Applied RMS atom displacement 0 bohrs to make symmetries exact.

---------- Initializing the Grid ----------
R = 
[      7.39916     -3.69958            0  ]
[            0      8.27251            0  ]
[            0            0      49.6351  ]
unit cell volume = 3038.14
G =
[   0.849176   0.379763         -0  ]
[          0   0.759526          0  ]
[          0         -0   0.126588  ]
Minimum fftbox size, Smin = [  32  40  200  ]
Chosen fftbox size, S = [  32  40  200  ]

---------- Exchange Correlation functional ----------
Initalized PBE GGA exchange.
Initalized PBE GGA correlation.

---------- Setting up pseudopotentials ----------
Width of ionic core gaussian charges (only for fluid interactions / plotting) set to 0.397384

Reading pseudopotential file '/projects/musgravc/apps/jdftx-1.6.0/build/pseudopotentials/GBRV_v1.5/pt_pbe_v1.4.uspp':
  Title: Pt.  Created by USPP 7.3.6 on 31-3-15
  Reference state energy: -105.002503.  16 valence electrons in orbitals:
    |510>  occupation: 6  eigenvalue: -2.158104
    |520>  occupation: 9.5  eigenvalue: -0.335376
    |600>  occupation: 0  eigenvalue: -0.319640
    |610>  occupation: 0  eigenvalue: -0.122947
  lMax: 2  lLocal: 3  QijEcut: 5.5
  6 projectors sampled on a log grid with 745 points:
    l: 0  eig: -0.319640  rCut: 2.45
    l: 0  eig: 1.500000  rCut: 2.45
    l: 1  eig: -2.158104  rCut: 1.6
    l: 1  eig: -0.122947  rCut: 1.6
    l: 2  eig: -0.500000  rCut: 1.6
    l: 2  eig: -0.335375  rCut: 1.6
  Partial core density with radius 1.1
  Transforming core density to a uniform radial grid of dG=0.02 with 1417 points.
  Transforming local potential to a uniform radial grid of dG=0.02 with 1417 points.
  Transforming nonlocal projectors to a uniform radial grid of dG=0.02 with 432 points.
  Transforming density augmentations to a uniform radial grid of dG=0.02 with 1417 points.
  Transforming atomic orbitals to a uniform radial grid of dG=0.02 with 432 points.
  Core radius for overlap checks: 2.45 bohrs.

Initialized 1 species with 10 total atoms.

Folded 1 k-points by 9x7x1 to 63 k-points.

---------- Setting up k-points, bands, fillings ----------
No reducable k-points. 
Computing the number of bands and number of electrons
Calculating initial fillings.
nElectrons: 160.000000   nBands: 96   nStates: 126

----- Setting up reduced wavefunction bases (one per k-point) -----
average nbasis = 12976.429 , ideal nbasis = 12979.177

----- Initializing Supercell corresponding to k-point mesh -----
Lattice vector linear combinations in supercell:
[   9   0   0  ]
[   0   7   0  ]
[   0   0   1  ]
Supercell lattice vectors:
[  66.5924  -25.8971  0  ]
[  0  57.9076  0  ]
[  0  0  49.6351  ]

Initializing DFT-D3 calculator:
	Parameters set for gga-PBE functional
	s6:  1.000  s_r6:  1.217
	s8:  0.722  s_r8:  1.000
	Per-atom parameters loaded for:
	Pt:  sqrtQ[a0]:  5.888  Rcov[a0]:  2.116  CN: [ 0.00 1.92 6.67 ]

Initializing DFT-D2 calculator for fluid / solvation:
	Pt:  C6:  815.23 Eh-a0^6  R0: 3.326 a0 (WARNING: beyond Grimme's data set)

---------- Setting up ewald sum ----------
Optimum gaussian width for ewald sums = 3.936523 bohr.
Real space sum over 975 unit cells with max indices [  7  6  2  ]
Reciprocal space sum over 4257 terms with max indices [  4  5  21  ]

Computing DFT-D3 correction:
# coordination-number Pt 8.734 9.550 9.523 7.152 4.809 9.523 9.550 8.734 4.809 7.152
# diagonal-C6 Pt 336.87 336.87 336.87 336.87 336.87 336.87 336.87 336.87 336.87 336.87
EvdW_6 =   -0.074874
EvdW_8 =   -0.128585

---------- Allocating electronic variables ----------
Initializing wave functions:  linear combination of atomic orbitals
Pt pseudo-atom occupations:   s ( 0 )  p ( 6 0 )  d ( 10 )
	FillingsUpdate:  mu: -0.097800000  nElectrons: 160.000000  magneticMoment: [ Abs: 0.00170  Tot: -0.00016 ]
LCAOMinimize: Iter:   0  G: -868.6002961284883668  |grad|_K:  1.047e-02  alpha:  1.000e+00
LCAOMinimize: 	Step increased G by 5.658796e+01, reducing alpha to 2.396307e-02.
	FillingsUpdate:  mu: -0.097800000  nElectrons: 160.000000  magneticMoment: [ Abs: 0.00139  Tot: -0.00009 ]
LCAOMinimize: Iter:   1  G: -872.3301456700368135  |grad|_K:  4.306e-03  alpha:  2.396e-02  linmin: -2.254e-01  cgtest:  7.601e-01  t[s]:     60.18
LCAOMinimize: Encountered beta<0, resetting CG.
	FillingsUpdate:  mu: -0.097800000  nElectrons: 160.000000  magneticMoment: [ Abs: 0.00123  Tot: +0.00001 ]
LCAOMinimize: Iter:   2  G: -872.9185213815466113  |grad|_K:  2.920e-03  alpha:  3.928e-02  linmin:  8.090e-02  cgtest: -2.994e-01  t[s]:     78.69
	FillingsUpdate:  mu: -0.097800000  nElectrons: 160.000000  magneticMoment: [ Abs: 0.00101  Tot: -0.00003 ]
LCAOMinimize: Iter:   3  G: -873.4233780622672612  |grad|_K:  2.589e-03  alpha:  8.889e-02  linmin: -2.912e-02  cgtest:  8.075e-01  t[s]:     97.34
	FillingsUpdate:  mu: -0.097800000  nElectrons: 160.000000  magneticMoment: [ Abs: 0.00098  Tot: +0.00000 ]
LCAOMinimize: Iter:   4  G: -873.5766755666036261  |grad|_K:  1.274e-03  alpha:  3.455e-02  linmin:  8.355e-02  cgtest: -4.860e-01  t[s]:    116.11
LCAOMinimize: 	Predicted alpha/alphaT>3.000000, increasing alphaT to 1.036361e-01.
	FillingsUpdate:  mu: -0.097800000  nElectrons: 160.000000  magneticMoment: [ Abs: 0.00084  Tot: -0.00009 ]
LCAOMinimize: Iter:   5  G: -873.7007872839608353  |grad|_K:  8.989e-04  alpha:  1.398e-01  linmin:  5.683e-03  cgtest:  6.143e-01  t[s]:    139.53
	FillingsUpdate:  mu: -0.097800000  nElectrons: 160.000000  magneticMoment: [ Abs: 0.00082  Tot: -0.00011 ]
LCAOMinimize: Iter:   6  G: -873.7383042050555559  |grad|_K:  6.058e-04  alpha:  4.321e-02  linmin: -3.558e-02  cgtest:  2.211e-01  t[s]:    158.27
	FillingsUpdate:  mu: -0.097800000  nElectrons: 160.000000  magneticMoment: [ Abs: 0.00080  Tot: -0.00009 ]
LCAOMinimize: Iter:   7  G: -873.7557518502089806  |grad|_K:  9.985e-04  alpha:  4.724e-02  linmin:  8.329e-04  cgtest: -6.587e-02  t[s]:    177.03
	FillingsUpdate:  mu: -0.097800000  nElectrons: 160.000000  magneticMoment: [ Abs: 0.00077  Tot: -0.00005 ]
LCAOMinimize: Iter:   8  G: -873.7754175933381475  |grad|_K:  3.489e-04  alpha:  2.202e-02  linmin:  2.259e-03  cgtest:  2.541e-01  t[s]:    195.67
	FillingsUpdate:  mu: -0.097800000  nElectrons: 160.000000  magneticMoment: [ Abs: 0.00076  Tot: -0.00007 ]
LCAOMinimize: Iter:   9  G: -873.7815193696217193  |grad|_K:  6.068e-04  alpha:  5.442e-02  linmin: -7.475e-05  cgtest:  9.012e-03  t[s]:    214.43
	FillingsUpdate:  mu: -0.097800000  nElectrons: 160.000000  magneticMoment: [ Abs: 0.00074  Tot: -0.00009 ]
LCAOMinimize: Iter:  10  G: -873.7893740991463574  |grad|_K:  4.650e-04  alpha:  2.318e-02  linmin:  1.887e-04  cgtest: -9.167e-03  t[s]:    233.03
	FillingsUpdate:  mu: -0.097800000  nElectrons: 160.000000  magneticMoment: [ Abs: 0.00071  Tot: -0.00008 ]
LCAOMinimize: Iter:  11  G: -873.8008275077331746  |grad|_K:  2.011e-04  alpha:  5.616e-02  linmin: -9.195e-03  cgtest:  1.007e-01  t[s]:    251.76
	FillingsUpdate:  mu: -0.097800000  nElectrons: 160.000000  magneticMoment: [ Abs: 0.00069  Tot: -0.00007 ]
LCAOMinimize: Iter:  12  G: -873.8049891002633558  |grad|_K:  4.655e-04  alpha:  1.079e-01  linmin:  1.241e-04  cgtest: -8.536e-03  t[s]:    270.35
	FillingsUpdate:  mu: -0.097800000  nElectrons: 160.000000  magneticMoment: [ Abs: 0.00068  Tot: -0.00006 ]
LCAOMinimize: Iter:  13  G: -873.8079716786778590  |grad|_K:  8.369e-05  alpha:  1.398e-02  linmin: -1.556e-02  cgtest:  4.664e-01  t[s]:    288.81
LCAOMinimize: Encountered beta<0, resetting CG.
	FillingsUpdate:  mu: -0.097800000  nElectrons: 160.000000  magneticMoment: [ Abs: 0.00068  Tot: -0.00006 ]
LCAOMinimize: Iter:  14  G: -873.8081424412420120  |grad|_K:  8.856e-05  alpha:  2.599e-02  linmin: -5.154e-03  cgtest:  3.505e-02  t[s]:    307.48
	FillingsUpdate:  mu: -0.097800000  nElectrons: 160.000000  magneticMoment: [ Abs: 0.00068  Tot: -0.00006 ]
LCAOMinimize: Iter:  15  G: -873.8083067398516732  |grad|_K:  6.126e-05  alpha:  2.202e-02  linmin: -2.530e-03  cgtest: -7.988e-02  t[s]:    326.14
LCAOMinimize: 	Predicted alpha/alphaT>3.000000, increasing alphaT to 6.605136e-02.
	FillingsUpdate:  mu: -0.097800000  nElectrons: 160.000000  magneticMoment: [ Abs: 0.00068  Tot: -0.00006 ]
LCAOMinimize: Iter:  16  G: -873.8085580707390818  |grad|_K:  4.153e-05  alpha:  7.146e-02  linmin:  9.858e-04  cgtest:  2.233e-02  t[s]:    349.67
	FillingsUpdate:  mu: -0.097800000  nElectrons: 160.000000  magneticMoment: [ Abs: 0.00068  Tot: -0.00006 ]
LCAOMinimize: Iter:  17  G: -873.8085977452024053  |grad|_K:  5.257e-05  alpha:  2.534e-02  linmin: -2.562e-04  cgtest:  1.141e-02  t[s]:    368.37
	FillingsUpdate:  mu: -0.097800000  nElectrons: 160.000000  magneticMoment: [ Abs: 0.00068  Tot: -0.00006 ]
LCAOMinimize: Iter:  18  G: -873.8087583734177315  |grad|_K:  5.381e-05  alpha:  5.984e-02  linmin: -4.567e-03  cgtest:  4.121e-02  t[s]:    387.00
	FillingsUpdate:  mu: -0.097800000  nElectrons: 160.000000  magneticMoment: [ Abs: 0.00068  Tot: -0.00005 ]
LCAOMinimize: Iter:  19  G: -873.8088817542521838  |grad|_K:  2.818e-05  alpha:  4.363e-02  linmin: -5.268e-03  cgtest: -1.420e-01  t[s]:    405.57
	FillingsUpdate:  mu: -0.097800000  nElectrons: 160.000000  magneticMoment: [ Abs: 0.00068  Tot: -0.00005 ]
LCAOMinimize: Iter:  20  G: -873.8088886602602088  |grad|_K:  4.099e-06  alpha:  9.659e-03  linmin: -2.019e-02  cgtest: -3.170e-01  t[s]:    424.18
	FillingsUpdate:  mu: -0.097800000  nElectrons: 160.000000  magneticMoment: [ Abs: 0.00068  Tot: -0.00005 ]
LCAOMinimize: Iter:  21  G: -873.8088888991089789  |grad|_K:  3.925e-06  alpha:  1.183e-02  linmin: -1.144e-01  cgtest:  9.992e-01  t[s]:    443.49
LCAOMinimize: Encountered beta<0, resetting CG.
	FillingsUpdate:  mu: -0.097800000  nElectrons: 160.000000  magneticMoment: [ Abs: 0.00068  Tot: -0.00005 ]
LCAOMinimize: Iter:  22  G: -873.8088891596717076  |grad|_K:  3.644e-06  alpha:  1.595e-02  linmin: -1.085e-01  cgtest:  6.257e-01  t[s]:    462.12
LCAOMinimize: Converged (|Delta G|<1.000000e-06 for 2 iters).
----- createFluidSolver() ----- (Fluid-side solver setup)
   Initializing fluid molecule 'H2O'
     Initializing site 'O'
       Electron density: proportional to exp(-r/0.36935)*erfc((r-0.51523)/0.36823) with norm 6.826
       Charge density: gaussian nuclear width 0.478731 with net site charge 0.826
       Polarizability: cuspless exponential with width 0.32 and norm 3.73
       Hard sphere radius: 2.57003 bohrs
       Positions in reference frame:
         [ +0.000000 +0.000000 +0.000000 ]
     Initializing site 'H'
       Electron density: proportional to exp(-r/0.34641)*erfc((r-0)/0.390882) with norm 0.587
       Charge density: gaussian nuclear width 0.377945 with net site charge -0.413
       Polarizability: cuspless exponential with width 0.39 and norm 3.3
       Positions in reference frame:
         [ +0.000000 -1.441945 +1.122523 ]
         [ +0.000000 +1.441945 +1.122523 ]
     Net charge: 0   dipole magnitude: 0.927204
     Initializing spherical shell mfKernel with radius 2.61727 Bohr
     deltaS corrections:
       site 'O': -7.54299
       site 'H': -6.83917
   Initializing fluid molecule 'Na+'
     Initializing site 'Na'
       Electron density: proportional to exp(-r/0.19682)*erfc((r-0.71491)/0.41314) with norm 8.1383
       Charge density: gaussian nuclear width 0.365347 with net site charge -1
       Hard sphere radius: 1.86327 bohrs
       Positions in reference frame:
         [ +0.000000 +0.000000 +0.000000 ]
     Net charge: -1   dipole magnitude: 0
     Initializing gaussian mfKernel with width: 1.55004 Bohr
     deltaS corrections:
       site 'Na': -22.3555
   Initializing fluid molecule 'F-'
     Initializing site 'F'
       Electron density: proportional to exp(-r/0.38886)*erfc((r-0)/0.438782) with norm 8
       Charge density: gaussian nuclear width 0.374796 with net site charge 1
       Hard sphere radius: 2.39995 bohrs
       Positions in reference frame:
         [ +0.000000 +0.000000 +0.000000 ]
     Net charge: 1   dipole magnitude: 0
     Initializing gaussian mfKernel with width: 1.59012 Bohr
     deltaS corrections:
       site 'F': -9.04335

Correction to mu due to finite nuclear width = -0.052253
   Cavity determined by nc: 0.00142 and sigma: 0.707107
   Nonlocal vdW cavity from gaussian model electron density with norm = 8 and sigma = 0.993594 bohr
   Charge asymmetry in cavity with sensitivity pCavity = 36.5 e-bohr/Eh
   Electrostatic cavity expanded by eta = 1.46 bohrs
   Weighted density cavitation model constrained by Nbulk: 0.0049383 bohr^-3, Pvap: 3.14029 kPa, Rvdw: 2.61727 bohr and sigmaBulk: 4.62e-05 Eh/bohr^2 at T: 298 K.
   Weighted density dispersion model using vdW pair potentials with single solvent site with sqrtC6eff: 0.77 SI.


---- Citations for features of the code used in this run ----

   Software package:
      R. Sundararaman, K. Letchworth-Weaver, K.A. Schwarz, D. Gunceler, Y. Ozhabes and T.A. Arias, 'JDFTx: software for joint density-functional theory', SoftwareX 6, 278 (2017)

   gga-PBE exchange-correlation functional:
      J.P. Perdew, K. Burke and M. Ernzerhof, Phys. Rev. Lett. 77, 3865 (1996)

   Pseudopotentials:
      KF Garrity, JW Bennett, KM Rabe and D Vanderbilt, Comput. Mater. Sci. 81, 446 (2014)

   DFT-D3 dispersion correction:
      S. Grimme, J. Antony, S. Ehrlich and H. Krieg, J. Chem. Phys. 132, 154104 (2010)

   DFT-D2 dispersion correction:
      S. Grimme, J. Comput. Chem. 27, 1787 (2006)

   Charge-asymmetric nonlocally-determined local-electric (CANDLE) solvation model:
      R. Sundararaman and W.A. Goddard III, J. Chem. Phys. 142, 064107 (2015)

   Total energy minimization with Auxiliary Hamiltonian:
      C. Freysoldt, S. Boeck, and J. Neugebauer, Phys. Rev. B 79, 241103(R) (2009)

   Grand-canonical (fixed-potential) DFT:
      R. Sundararaman, W. A. Goddard III and T. A. Arias, J. Chem. Phys. 146, 114104 (2017)

   Linear-tetrahedron sampling for density of states:
      G. Lehmann and M. Taut, Phys. status solidi (b) 54, 469 (1972)

This list may not be complete. Please suggest additional citations or
report any other bugs at https://github.com/shankar1729/jdftx/issues

Initialization completed successfully at t[s]:    467.09


Computing DFT-D3 correction:
# coordination-number Pt 8.734 9.550 9.523 7.152 4.809 9.523 9.550 8.734 4.809 7.152
# diagonal-C6 Pt 336.87 336.87 336.87 336.87 336.87 336.87 336.87 336.87 336.87 336.87
EvdW_6 =   -0.074874
EvdW_8 =   -0.128585
Fluid solver invoked on fresh (random / LCAO) wavefunctions
Running a vacuum solve first:

-------- Initial electronic minimization -----------
	FillingsUpdate:  mu: +0.135974076  nElectrons: 160.000000  magneticMoment: [ Abs: 0.00068  Tot: -0.00005 ]
ElecMinimize: Iter:   0  G: -873.810798807495871  |grad|_K:  3.925e-05  alpha:  1.000e+00
	FillingsUpdate:  mu: +0.168757594  nElectrons: 160.000000  magneticMoment: [ Abs: 0.00055  Tot: -0.00005 ]
	SubspaceRotationAdjust: set factor to 0.997
ElecMinimize: Iter:   1  G: -873.915857317543100  |grad|_K:  2.310e-05  alpha:  4.345e-01  linmin:  2.086e-05  t[s]:    504.06
	FillingsUpdate:  mu: +0.169767733  nElectrons: 160.000000  magneticMoment: [ Abs: 0.00053  Tot: -0.00004 ]
	SubspaceRotationAdjust: set factor to 0.552
ElecMinimize: Iter:   2  G: -873.921401733924085  |grad|_K:  5.509e-05  alpha:  7.500e-02  linmin:  4.293e-04  t[s]:    526.63
	FillingsUpdate:  mu: +0.134617293  nElectrons: 160.000000  magneticMoment: [ Abs: 0.00047  Tot: -0.00004 ]
	SubspaceRotationAdjust: set factor to 0.334
ElecMinimize: Iter:   3  G: -873.932232953707626  |grad|_K:  3.210e-05  alpha:  2.579e-02  linmin:  5.896e-05  t[s]:    549.25
	FillingsUpdate:  mu: +0.149106434  nElectrons: 160.000000  magneticMoment: [ Abs: 0.00042  Tot: -0.00004 ]
	SubspaceRotationAdjust: set factor to 0.193
ElecMinimize: Iter:   4  G: -873.941022021932895  |grad|_K:  2.795e-05  alpha:  5.503e-02  linmin:  4.572e-05  t[s]:    571.71
	FillingsUpdate:  mu: +0.143261765  nElectrons: 160.000000  magneticMoment: [ Abs: 0.00039  Tot: -0.00004 ]
	SubspaceRotationAdjust: set factor to 0.278
ElecMinimize: Iter:   5  G: -873.945312320559538  |grad|_K:  9.961e-06  alpha:  3.495e-02  linmin: -4.063e-06  t[s]:    594.22
ElecMinimize: 	Predicted alpha/alphaT>3.000000, increasing alphaT to 1.048491e-01.
	FillingsUpdate:  mu: +0.155010237  nElectrons: 160.000000  magneticMoment: [ Abs: 0.00036  Tot: -0.00004 ]
	SubspaceRotationAdjust: set factor to 0.168
ElecMinimize: Iter:   6  G: -873.947383440389672  |grad|_K:  1.668e-05  alpha:  1.325e-01  linmin:  1.701e-05  t[s]:    622.53
	FillingsUpdate:  mu: +0.152202455  nElectrons: 160.000000  magneticMoment: [ Abs: 0.00030  Tot: -0.00003 ]
	SubspaceRotationAdjust: set factor to 0.215
ElecMinimize: Iter:   7  G: -873.950573534450427  |grad|_K:  6.271e-06  alpha:  7.294e-02  linmin: -3.729e-06  t[s]:    644.98
	FillingsUpdate:  mu: +0.148133905  nElectrons: 160.000000  magneticMoment: [ Abs: 0.00027  Tot: -0.00003 ]
	SubspaceRotationAdjust: set factor to 0.172
ElecMinimize: Iter:   8  G: -873.951225043710565  |grad|_K:  6.967e-06  alpha:  1.050e-01  linmin: -1.887e-05  t[s]:    667.32
	FillingsUpdate:  mu: +0.141236024  nElectrons: 160.000000  magneticMoment: [ Abs: 0.00024  Tot: -0.00003 ]
	SubspaceRotationAdjust: set factor to 0.158
ElecMinimize: Iter:   9  G: -873.952007959652065  |grad|_K:  4.295e-06  alpha:  1.021e-01  linmin: -9.600e-06  t[s]:    689.76
	FillingsUpdate:  mu: +0.144648276  nElectrons: 160.000000  magneticMoment: [ Abs: 0.00021  Tot: -0.00002 ]
	SubspaceRotationAdjust: set factor to 0.112
	SubspaceRotationAdjust: resetting CG because factor has changed by 0.112159
ElecMinimize: 	State modified externally: resetting search direction.
ElecMinimize: Iter:  10  G: -873.952558117863077  |grad|_K:  3.768e-06  alpha:  1.892e-01
	FillingsUpdate:  mu: +0.145524402  nElectrons: 160.000000  magneticMoment: [ Abs: 0.00021  Tot: -0.00002 ]
	SubspaceRotationAdjust: set factor to 0.148
ElecMinimize: Iter:  11  G: -873.952774312092515  |grad|_K:  2.106e-06  alpha:  9.654e-02  linmin: -4.145e-05  t[s]:    747.66
ElecMinimize: 	Predicted alpha/alphaT>3.000000, increasing alphaT to 2.896284e-01.
	FillingsUpdate:  mu: +0.148299422  nElectrons: 160.000000  magneticMoment: [ Abs: 0.00019  Tot: -0.00002 ]
	SubspaceRotationAdjust: set factor to 0.131
ElecMinimize: Iter:  12  G: -873.952983096701701  |grad|_K:  1.512e-06  alpha:  2.986e-01  linmin:  1.284e-06  t[s]:    775.96
	FillingsUpdate:  mu: +0.145327143  nElectrons: 160.000000  magneticMoment: [ Abs: 0.00017  Tot: -0.00002 ]
	SubspaceRotationAdjust: set factor to 0.103
ElecMinimize: Iter:  13  G: -873.953140319922682  |grad|_K:  1.262e-06  alpha:  4.370e-01  linmin:  1.935e-05  t[s]:    798.43
	FillingsUpdate:  mu: +0.147544942  nElectrons: 160.000000  magneticMoment: [ Abs: 0.00015  Tot: -0.00002 ]
	SubspaceRotationAdjust: set factor to 0.0922
ElecMinimize: Iter:  14  G: -873.953237477593461  |grad|_K:  1.219e-06  alpha:  3.877e-01  linmin: -1.744e-06  t[s]:    820.98
	FillingsUpdate:  mu: +0.148281146  nElectrons: 160.000000  magneticMoment: [ Abs: 0.00014  Tot: -0.00002 ]
	SubspaceRotationAdjust: set factor to 0.0628
ElecMinimize: Iter:  15  G: -873.953277106747692  |grad|_K:  1.026e-06  alpha:  1.691e-01  linmin: -3.047e-06  t[s]:    843.48
	FillingsUpdate:  mu: +0.148191810  nElectrons: 160.000000  magneticMoment: [ Abs: 0.00013  Tot: -0.00001 ]
	SubspaceRotationAdjust: set factor to 0.0799
ElecMinimize: Iter:  16  G: -873.953327634774837  |grad|_K:  5.704e-07  alpha:  3.049e-01  linmin:  1.280e-05  t[s]:    865.99
	FillingsUpdate:  mu: +0.147801703  nElectrons: 160.000000  magneticMoment: [ Abs: 0.00012  Tot: -0.00001 ]
	SubspaceRotationAdjust: set factor to 0.0632
ElecMinimize: Iter:  17  G: -873.953352536615625  |grad|_K:  6.233e-07  alpha:  4.865e-01  linmin:  1.291e-05  t[s]:    888.48
	FillingsUpdate:  mu: +0.147922344  nElectrons: 160.000000  magneticMoment: [ Abs: 0.00012  Tot: -0.00001 ]
	SubspaceRotationAdjust: set factor to 0.0462
ElecMinimize: Iter:  18  G: -873.953364045174226  |grad|_K:  4.510e-07  alpha:  1.881e-01  linmin: -3.753e-06  t[s]:    910.91
	FillingsUpdate:  mu: +0.148501579  nElectrons: 160.000000  magneticMoment: [ Abs: 0.00011  Tot: -0.00001 ]
	SubspaceRotationAdjust: set factor to 0.0656
ElecMinimize: Iter:  19  G: -873.953377544743603  |grad|_K:  3.465e-07  alpha:  4.211e-01  linmin:  1.026e-07  t[s]:    933.47
	FillingsUpdate:  mu: +0.148277019  nElectrons: 160.000000  magneticMoment: [ Abs: 0.00010  Tot: -0.00001 ]
	SubspaceRotationAdjust: set factor to 0.0538
ElecMinimize: Iter:  20  G: -873.953386698130089  |grad|_K:  4.821e-07  alpha:  4.839e-01  linmin:  2.635e-06  t[s]:    956.00
	FillingsUpdate:  mu: +0.147878422  nElectrons: 160.000000  magneticMoment: [ Abs: 0.00010  Tot: -0.00001 ]
	SubspaceRotationAdjust: set factor to 0.0462
ElecMinimize: Iter:  21  G: -873.953398579047985  |grad|_K:  3.474e-07  alpha:  3.244e-01  linmin:  2.455e-07  t[s]:    978.52
	FillingsUpdate:  mu: +0.148271511  nElectrons: 160.000000  magneticMoment: [ Abs: 0.00009  Tot: -0.00000 ]
	SubspaceRotationAdjust: set factor to 0.0532
ElecMinimize: Iter:  22  G: -873.953408088269043  |grad|_K:  2.807e-07  alpha:  5.000e-01  linmin: -5.944e-06  t[s]:   1001.05
	FillingsUpdate:  mu: +0.148338118  nElectrons: 160.000000  magneticMoment: [ Abs: 0.00008  Tot: -0.00000 ]
	SubspaceRotationAdjust: set factor to 0.0451
ElecMinimize: Iter:  23  G: -873.953413296505005  |grad|_K:  2.912e-07  alpha:  4.192e-01  linmin: -1.232e-06  t[s]:   1023.58
	FillingsUpdate:  mu: +0.148246279  nElectrons: 160.000000  magneticMoment: [ Abs: 0.00008  Tot: -0.00000 ]
	SubspaceRotationAdjust: set factor to 0.037
ElecMinimize: Iter:  24  G: -873.953418162584626  |grad|_K:  2.321e-07  alpha:  3.642e-01  linmin: -1.399e-06  t[s]:   1046.31
	FillingsUpdate:  mu: +0.148342021  nElectrons: 160.000000  magneticMoment: [ Abs: 0.00007  Tot: -0.00000 ]
	SubspaceRotationAdjust: set factor to 0.0421
ElecMinimize: Iter:  25  G: -873.953422903494925  |grad|_K:  1.935e-07  alpha:  5.582e-01  linmin: -7.849e-06  t[s]:   1068.77
	FillingsUpdate:  mu: +0.148440284  nElectrons: 160.000000  magneticMoment: [ Abs: 0.00007  Tot: +0.00000 ]
	SubspaceRotationAdjust: set factor to 0.0361
ElecMinimize: Iter:  26  G: -873.953425399420553  |grad|_K:  1.500e-07  alpha:  4.225e-01  linmin: -1.697e-06  t[s]:   1091.23
	FillingsUpdate:  mu: +0.148414896  nElectrons: 160.000000  magneticMoment: [ Abs: 0.00006  Tot: +0.00000 ]
	SubspaceRotationAdjust: set factor to 0.0284
ElecMinimize: Iter:  27  G: -873.953426675811897  |grad|_K:  1.122e-07  alpha:  3.600e-01  linmin: -6.294e-07  t[s]:   1113.54
	FillingsUpdate:  mu: +0.148350871  nElectrons: 160.000000  magneticMoment: [ Abs: 0.00006  Tot: +0.00000 ]
	SubspaceRotationAdjust: set factor to 0.0336
ElecMinimize: Iter:  28  G: -873.953427584696669  |grad|_K:  7.411e-08  alpha:  4.579e-01  linmin: -1.880e-06  t[s]:   1135.92
	FillingsUpdate:  mu: +0.148352325  nElectrons: 160.000000  magneticMoment: [ Abs: 0.00006  Tot: +0.00000 ]
	SubspaceRotationAdjust: set factor to 0.0317
ElecMinimize: Iter:  29  G: -873.953427998172515  |grad|_K:  6.110e-08  alpha:  4.777e-01  linmin:  4.041e-07  t[s]:   1158.37
	FillingsUpdate:  mu: +0.148352177  nElectrons: 160.000000  magneticMoment: [ Abs: 0.00006  Tot: +0.00000 ]
	SubspaceRotationAdjust: set factor to 0.0279
ElecMinimize: Iter:  30  G: -873.953428258137706  |grad|_K:  4.811e-08  alpha:  4.421e-01  linmin:  8.274e-07  t[s]:   1180.89
	FillingsUpdate:  mu: +0.148345952  nElectrons: 160.000000  magneticMoment: [ Abs: 0.00006  Tot: +0.00000 ]
	SubspaceRotationAdjust: set factor to 0.0321
ElecMinimize: Iter:  31  G: -873.953428439311551  |grad|_K:  3.672e-08  alpha:  4.969e-01  linmin: -1.684e-07  t[s]:   1203.45
	FillingsUpdate:  mu: +0.148348282  nElectrons: 160.000000  magneticMoment: [ Abs: 0.00006  Tot: +0.00000 ]
	SubspaceRotationAdjust: set factor to 0.0352
ElecMinimize: Iter:  32  G: -873.953428548913507  |grad|_K:  3.028e-08  alpha:  5.155e-01  linmin: -1.851e-06  t[s]:   1225.93
	FillingsUpdate:  mu: +0.148343796  nElectrons: 160.000000  magneticMoment: [ Abs: 0.00005  Tot: +0.00000 ]
	SubspaceRotationAdjust: set factor to 0.0338
ElecMinimize: Iter:  33  G: -873.953428622962747  |grad|_K:  3.004e-08  alpha:  5.123e-01  linmin: -1.546e-06  t[s]:   1248.53
	FillingsUpdate:  mu: +0.148339140  nElectrons: 160.000000  magneticMoment: [ Abs: 0.00005  Tot: +0.00000 ]
	SubspaceRotationAdjust: set factor to 0.036
ElecMinimize: Iter:  34  G: -873.953428710816638  |grad|_K:  2.958e-08  alpha:  6.173e-01  linmin:  7.482e-07  t[s]:   1270.94
ElecMinimize: Converged (|Delta G|<1.000000e-07 for 2 iters).
Setting wave functions to eigenvectors of Hamiltonian
Converging empty states (this may take a while): |deigs|: 3.509e-03
Vacuum energy after initial minimize, F = -873.953428710816638

Shifting auxilliary hamiltonian by -0.246139 to set nElectrons=160.000000

-------- Electronic minimization -----------
	Linear fluid (dielectric constant: 78.4, screening length: 8.12261 Bohr) occupying 0.484494 of unit cell:	Completed after 23 iterations at t[s]:   1348.92
	FillingsUpdate:  mu: -0.097800000  nElectrons: 160.000000  magneticMoment: [ Abs: 0.00003  Tot: +0.00000 ]
ElecMinimize: Iter:   0  G: -873.956256901318739  |grad|_K:  2.328e-05  alpha:  1.000e+00
	Linear fluid (dielectric constant: 78.4, screening length: 8.12261 Bohr) occupying 0.566864 of unit cell:	Completed after 29 iterations at t[s]:   1369.14
	Linear fluid (dielectric constant: 78.4, screening length: 8.12261 Bohr) occupying 0.497227 of unit cell:	Completed after 27 iterations at t[s]:   1376.93
	FillingsUpdate:  mu: -0.097800000  nElectrons: 160.263200  magneticMoment: [ Abs: 0.00003  Tot: +0.00001 ]
	SubspaceRotationAdjust: set factor to 0.0198
ElecMinimize: Iter:   1  G: -873.963916410736147  |grad|_K:  1.346e-05  alpha:  1.393e-01  linmin:  7.236e-02  t[s]:   1386.64
	Linear fluid (dielectric constant: 78.4, screening length: 8.12261 Bohr) occupying 0.499455 of unit cell:	Completed after 16 iterations at t[s]:   1395.14
ElecMinimize: 	Predicted alpha/alphaT>3.000000, increasing alphaT to 4.179553e-01.
	Linear fluid (dielectric constant: 78.4, screening length: 8.12261 Bohr) occupying 0.504035 of unit cell:	Completed after 20 iterations at t[s]:   1402.58
	Linear fluid (dielectric constant: 78.4, screening length: 8.12261 Bohr) occupying 0.504345 of unit cell:	Completed after 13 iterations at t[s]:   1409.58
	FillingsUpdate:  mu: -0.097800000  nElectrons: 160.333567  magneticMoment: [ Abs: 0.00003  Tot: +0.00001 ]
	SubspaceRotationAdjust: set factor to 0.0121
ElecMinimize: Iter:   2  G: -873.973237154856406  |grad|_K:  8.470e-06  alpha:  4.367e-01  linmin:  1.143e-03  t[s]:   1419.36
	Linear fluid (dielectric constant: 78.4, screening length: 8.12261 Bohr) occupying 0.524009 of unit cell:	Completed after 22 iterations at t[s]:   1428.14
	Linear fluid (dielectric constant: 78.4, screening length: 8.12261 Bohr) occupying 0.530277 of unit cell:	Completed after 22 iterations at t[s]:   1435.62
	FillingsUpdate:  mu: -0.097800000  nElectrons: 160.580228  magneticMoment: [ Abs: 0.00003  Tot: +0.00001 ]
	SubspaceRotationAdjust: set factor to 0.00883
ElecMinimize: Iter:   3  G: -873.979730432824454  |grad|_K:  8.200e-06  alpha:  6.001e-01  linmin:  1.741e-02  t[s]:   1445.30
	Linear fluid (dielectric constant: 78.4, screening length: 8.12261 Bohr) occupying 0.539240 of unit cell:	Completed after 25 iterations at t[s]:   1454.34
	Linear fluid (dielectric constant: 78.4, screening length: 8.12261 Bohr) occupying 0.540496 of unit cell:	Completed after 20 iterations at t[s]:   1461.67
	FillingsUpdate:  mu: -0.097800000  nElectrons: 160.735475  magneticMoment: [ Abs: 0.00003  Tot: +0.00001 ]
	SubspaceRotationAdjust: set factor to 0.00958
ElecMinimize: Iter:   4  G: -873.986328442060653  |grad|_K:  4.909e-06  alpha:  7.053e-01  linmin:  5.451e-04  t[s]:   1471.37
	Linear fluid (dielectric constant: 78.4, screening length: 8.12261 Bohr) occupying 0.543991 of unit cell:	Completed after 24 iterations at t[s]:   1480.17
	Linear fluid (dielectric constant: 78.4, screening length: 8.12261 Bohr) occupying 0.543286 of unit cell:	Completed after 19 iterations at t[s]:   1487.48
	FillingsUpdate:  mu: -0.097800000  nElectrons: 160.793046  magneticMoment: [ Abs: 0.00003  Tot: +0.00001 ]
	SubspaceRotationAdjust: set factor to 0.0105
ElecMinimize: Iter:   5  G: -873.988415088525016  |grad|_K:  4.209e-06  alpha:  5.505e-01  linmin:  4.492e-05  t[s]:   1497.18
	Linear fluid (dielectric constant: 78.4, screening length: 8.12261 Bohr) occupying 0.543917 of unit cell:	Completed after 19 iterations at t[s]:   1505.77
	Linear fluid (dielectric constant: 78.4, screening length: 8.12261 Bohr) occupying 0.544150 of unit cell:	Completed after 15 iterations at t[s]:   1512.99
	FillingsUpdate:  mu: -0.097800000  nElectrons: 160.826005  magneticMoment: [ Abs: 0.00003  Tot: +0.00001 ]
	SubspaceRotationAdjust: set factor to 0.013
ElecMinimize: Iter:   6  G: -873.990578065029695  |grad|_K:  3.784e-06  alpha:  7.755e-01  linmin:  1.680e-04  t[s]:   1522.50
	Linear fluid (dielectric constant: 78.4, screening length: 8.12261 Bohr) occupying 0.543523 of unit cell:	Completed after 20 iterations at t[s]:   1531.11
	Linear fluid (dielectric constant: 78.4, screening length: 8.12261 Bohr) occupying 0.543522 of unit cell:	Completed after 1 iterations at t[s]:   1537.43
	FillingsUpdate:  mu: -0.097800000  nElectrons: 160.829834  magneticMoment: [ Abs: 0.00003  Tot: +0.00001 ]
	SubspaceRotationAdjust: set factor to 0.0142
ElecMinimize: Iter:   7  G: -873.992327883229905  |grad|_K:  3.787e-06  alpha:  7.764e-01  linmin:  1.479e-04  t[s]:   1547.26
	Linear fluid (dielectric constant: 78.4, screening length: 8.12261 Bohr) occupying 0.544947 of unit cell:	Completed after 22 iterations at t[s]:   1555.99
	Linear fluid (dielectric constant: 78.4, screening length: 8.12261 Bohr) occupying 0.545183 of unit cell:	Completed after 16 iterations at t[s]:   1563.10
	FillingsUpdate:  mu: -0.097800000  nElectrons: 160.879568  magneticMoment: [ Abs: 0.00003  Tot: +0.00001 ]
	SubspaceRotationAdjust: set factor to 0.0156
ElecMinimize: Iter:   8  G: -873.994397984972011  |grad|_K:  4.290e-06  alpha:  9.193e-01  linmin:  7.112e-04  t[s]:   1572.89
	Linear fluid (dielectric constant: 78.4, screening length: 8.12261 Bohr) occupying 0.546584 of unit cell:	Completed after 25 iterations at t[s]:   1581.80
	Linear fluid (dielectric constant: 78.4, screening length: 8.12261 Bohr) occupying 0.546490 of unit cell:	Completed after 14 iterations at t[s]:   1588.89
	FillingsUpdate:  mu: -0.097800000  nElectrons: 160.930191  magneticMoment: [ Abs: 0.00003  Tot: +0.00001 ]
	SubspaceRotationAdjust: set factor to 0.0168
ElecMinimize: Iter:   9  G: -873.996829870645001  |grad|_K:  4.127e-06  alpha:  8.449e-01  linmin:  2.931e-04  t[s]:   1598.56
	Linear fluid (dielectric constant: 78.4, screening length: 8.12261 Bohr) occupying 0.548336 of unit cell:	Completed after 26 iterations at t[s]:   1607.60
	Linear fluid (dielectric constant: 78.4, screening length: 8.12261 Bohr) occupying 0.548176 of unit cell:	Completed after 16 iterations at t[s]:   1614.71
	FillingsUpdate:  mu: -0.097800000  nElectrons: 160.994269  magneticMoment: [ Abs: 0.00003  Tot: +0.00001 ]
	SubspaceRotationAdjust: set factor to 0.0173
ElecMinimize: Iter:  10  G: -873.998842153629198  |grad|_K:  4.154e-06  alpha:  7.570e-01  linmin: -1.140e-03  t[s]:   1624.40
	Linear fluid (dielectric constant: 78.4, screening length: 8.12261 Bohr) occupying 0.546630 of unit cell:	Completed after 25 iterations at t[s]:   1633.88
	Linear fluid (dielectric constant: 78.4, screening length: 8.12261 Bohr) occupying 0.546972 of unit cell:	Completed after 20 iterations at t[s]:   1641.51
	FillingsUpdate:  mu: -0.097800000  nElectrons: 160.985708  magneticMoment: [ Abs: 0.00003  Tot: +0.00001 ]
	SubspaceRotationAdjust: set factor to 0.0149
ElecMinimize: Iter:  11  G: -874.000507391776068  |grad|_K:  4.133e-06  alpha:  5.992e-01  linmin:  1.997e-04  t[s]:   1651.19
	Linear fluid (dielectric constant: 78.4, screening length: 8.12261 Bohr) occupying 0.548607 of unit cell:	Completed after 25 iterations at t[s]:   1660.07
	Linear fluid (dielectric constant: 78.4, screening length: 8.12261 Bohr) occupying 0.548578 of unit cell:	Completed after 12 iterations at t[s]:   1667.06
	FillingsUpdate:  mu: -0.097800000  nElectrons: 161.053013  magneticMoment: [ Abs: 0.00003  Tot: +0.00001 ]
	SubspaceRotationAdjust: set factor to 0.0147
ElecMinimize: Iter:  12  G: -874.002078867224441  |grad|_K:  3.904e-06  alpha:  5.866e-01  linmin: -1.136e-03  t[s]:   1676.77
	Linear fluid (dielectric constant: 78.4, screening length: 8.12261 Bohr) occupying 0.548956 of unit cell:	Completed after 23 iterations at t[s]:   1685.56
	Linear fluid (dielectric constant: 78.4, screening length: 8.12261 Bohr) occupying 0.549021 of unit cell:	Completed after 19 iterations at t[s]:   1693.03
	FillingsUpdate:  mu: -0.097800000  nElectrons: 161.097270  magneticMoment: [ Abs: 0.00002  Tot: +0.00001 ]
	SubspaceRotationAdjust: set factor to 0.0156
ElecMinimize: Iter:  13  G: -874.003848320240991  |grad|_K:  3.925e-06  alpha:  7.273e-01  linmin:  1.070e-03  t[s]:   1702.68
	Linear fluid (dielectric constant: 78.4, screening length: 8.12261 Bohr) occupying 0.549753 of unit cell:	Completed after 23 iterations at t[s]:   1711.42
	Linear fluid (dielectric constant: 78.4, screening length: 8.12261 Bohr) occupying 0.549728 of unit cell:	Completed after 12 iterations at t[s]:   1718.34
	FillingsUpdate:  mu: -0.097800000  nElectrons: 161.155266  magneticMoment: [ Abs: 0.00002  Tot: +0.00001 ]
	SubspaceRotationAdjust: set factor to 0.0174
ElecMinimize: Iter:  14  G: -874.005505243202947  |grad|_K:  3.765e-06  alpha:  6.963e-01  linmin:  5.107e-05  t[s]:   1728.02
	Linear fluid (dielectric constant: 78.4, screening length: 8.12261 Bohr) occupying 0.550652 of unit cell:	Completed after 26 iterations at t[s]:   1736.97
	Linear fluid (dielectric constant: 78.4, screening length: 8.12261 Bohr) occupying 0.550687 of unit cell:	Completed after 13 iterations at t[s]:   1744.00
	FillingsUpdate:  mu: -0.097800000  nElectrons: 161.233299  magneticMoment: [ Abs: 0.00002  Tot: +0.00001 ]
	SubspaceRotationAdjust: set factor to 0.0173
ElecMinimize: Iter:  15  G: -874.007128099603165  |grad|_K:  4.215e-06  alpha:  7.288e-01  linmin:  7.977e-04  t[s]:   1753.79
	Linear fluid (dielectric constant: 78.4, screening length: 8.12261 Bohr) occupying 0.549794 of unit cell:	Completed after 24 iterations at t[s]:   1762.63
	Linear fluid (dielectric constant: 78.4, screening length: 8.12261 Bohr) occupying 0.549982 of unit cell:	Completed after 20 iterations at t[s]:   1770.03
	FillingsUpdate:  mu: -0.097800000  nElectrons: 161.252227  magneticMoment: [ Abs: 0.00002  Tot: +0.00001 ]
	SubspaceRotationAdjust: set factor to 0.0156
ElecMinimize: Iter:  16  G: -874.008681552413123  |grad|_K:  3.980e-06  alpha:  5.690e-01  linmin: -7.550e-05  t[s]:   1779.79
	Linear fluid (dielectric constant: 78.4, screening length: 8.12261 Bohr) occupying 0.550140 of unit cell:	Completed after 23 iterations at t[s]:   1788.49
	Linear fluid (dielectric constant: 78.4, screening length: 8.12261 Bohr) occupying 0.550142 of unit cell:	Completed after 10 iterations at t[s]:   1795.32
	FillingsUpdate:  mu: -0.097800000  nElectrons: 161.318026  magneticMoment: [ Abs: 0.00002  Tot: +0.00001 ]
	SubspaceRotationAdjust: set factor to 0.015
ElecMinimize: Iter:  17  G: -874.010125045795348  |grad|_K:  3.665e-06  alpha:  5.777e-01  linmin:  7.914e-04  t[s]:   1804.93
	Linear fluid (dielectric constant: 78.4, screening length: 8.12261 Bohr) occupying 0.549628 of unit cell:	Completed after 20 iterations at t[s]:   1813.75
	Linear fluid (dielectric constant: 78.4, screening length: 8.12261 Bohr) occupying 0.549589 of unit cell:	Completed after 11 iterations at t[s]:   1820.59
	FillingsUpdate:  mu: -0.097800000  nElectrons: 161.361288  magneticMoment: [ Abs: 0.00002  Tot: +0.00001 ]
	SubspaceRotationAdjust: set factor to 0.0172
ElecMinimize: Iter:  18  G: -874.011428771510168  |grad|_K:  3.200e-06  alpha:  6.279e-01  linmin:  1.916e-04  t[s]:   1830.24
	Linear fluid (dielectric constant: 78.4, screening length: 8.12261 Bohr) occupying 0.548629 of unit cell:	Completed after 22 iterations at t[s]:   1838.90
	Linear fluid (dielectric constant: 78.4, screening length: 8.12261 Bohr) occupying 0.548737 of unit cell:	Completed after 15 iterations at t[s]:   1846.00
	FillingsUpdate:  mu: -0.097800000  nElectrons: 161.373814  magneticMoment: [ Abs: 0.00002  Tot: +0.00001 ]
	SubspaceRotationAdjust: set factor to 0.0164
ElecMinimize: Iter:  19  G: -874.012318084302819  |grad|_K:  2.617e-06  alpha:  5.553e-01  linmin: -5.115e-04  t[s]:   1855.79
	Linear fluid (dielectric constant: 78.4, screening length: 8.12261 Bohr) occupying 0.548542 of unit cell:	Completed after 21 iterations at t[s]:   1864.52
	Linear fluid (dielectric constant: 78.4, screening length: 8.12261 Bohr) occupying 0.548561 of unit cell:	Completed after 12 iterations at t[s]:   1871.40
	FillingsUpdate:  mu: -0.097800000  nElectrons: 161.405086  magneticMoment: [ Abs: 0.00002  Tot: +0.00001 ]
	SubspaceRotationAdjust: set factor to 0.0154
ElecMinimize: Iter:  20  G: -874.012868819785581  |grad|_K:  2.267e-06  alpha:  5.058e-01  linmin:  8.435e-05  t[s]:   1880.83
	Linear fluid (dielectric constant: 78.4, screening length: 8.12261 Bohr) occupying 0.548013 of unit cell:	Completed after 21 iterations at t[s]:   1889.47
	Linear fluid (dielectric constant: 78.4, screening length: 8.12261 Bohr) occupying 0.548003 of unit cell:	Completed after 9 iterations at t[s]:   1896.28
	FillingsUpdate:  mu: -0.097800000  nElectrons: 161.406793  magneticMoment: [ Abs: 0.00002  Tot: +0.00001 ]
	SubspaceRotationAdjust: set factor to 0.0161
ElecMinimize: Iter:  21  G: -874.013284912840732  |grad|_K:  1.706e-06  alpha:  5.147e-01  linmin:  9.745e-05  t[s]:   1905.92
	Linear fluid (dielectric constant: 78.4, screening length: 8.12261 Bohr) occupying 0.547776 of unit cell:	Completed after 15 iterations at t[s]:   1914.30
	Linear fluid (dielectric constant: 78.4, screening length: 8.12261 Bohr) occupying 0.547743 of unit cell:	Completed after 6 iterations at t[s]:   1920.93
	FillingsUpdate:  mu: -0.097800000  nElectrons: 161.413873  magneticMoment: [ Abs: 0.00002  Tot: +0.00001 ]
	SubspaceRotationAdjust: set factor to 0.0186
ElecMinimize: Iter:  22  G: -874.013554002252363  |grad|_K:  1.465e-06  alpha:  5.873e-01  linmin:  1.100e-06  t[s]:   1930.74
	Linear fluid (dielectric constant: 78.4, screening length: 8.12261 Bohr) occupying 0.547585 of unit cell:	Completed after 15 iterations at t[s]:   1939.35
	Linear fluid (dielectric constant: 78.4, screening length: 8.12261 Bohr) occupying 0.547580 of unit cell:	Completed after 6 iterations at t[s]:   1945.98
	FillingsUpdate:  mu: -0.097800000  nElectrons: 161.420667  magneticMoment: [ Abs: 0.00002  Tot: +0.00001 ]
	SubspaceRotationAdjust: set factor to 0.0212
ElecMinimize: Iter:  23  G: -874.013758244504174  |grad|_K:  1.342e-06  alpha:  6.039e-01  linmin: -7.274e-05  t[s]:   1955.54
	Linear fluid (dielectric constant: 78.4, screening length: 8.12261 Bohr) occupying 0.547185 of unit cell:	Completed after 21 iterations at t[s]:   1964.37
	Linear fluid (dielectric constant: 78.4, screening length: 8.12261 Bohr) occupying 0.547225 of unit cell:	Completed after 12 iterations at t[s]:   1971.43
	FillingsUpdate:  mu: -0.097800000  nElectrons: 161.411452  magneticMoment: [ Abs: 0.00002  Tot: +0.00001 ]
	SubspaceRotationAdjust: set factor to 0.0212
ElecMinimize: Iter:  24  G: -874.013913009855628  |grad|_K:  1.373e-06  alpha:  5.443e-01  linmin:  1.500e-04  t[s]:   1981.14
	Linear fluid (dielectric constant: 78.4, screening length: 8.12261 Bohr) occupying 0.547209 of unit cell:	Completed after 15 iterations at t[s]:   1989.54
	Linear fluid (dielectric constant: 78.4, screening length: 8.12261 Bohr) occupying 0.547209 of unit cell:	Completed after 2 iterations at t[s]:   1995.99
	FillingsUpdate:  mu: -0.097800000  nElectrons: 161.420978  magneticMoment: [ Abs: 0.00002  Tot: +0.00001 ]
	SubspaceRotationAdjust: set factor to 0.0211
ElecMinimize: Iter:  25  G: -874.014073213725510  |grad|_K:  1.312e-06  alpha:  5.410e-01  linmin: -1.290e-04  t[s]:   2005.70
	Linear fluid (dielectric constant: 78.4, screening length: 8.12261 Bohr) occupying 0.546981 of unit cell:	Completed after 18 iterations at t[s]:   2014.21
	Linear fluid (dielectric constant: 78.4, screening length: 8.12261 Bohr) occupying 0.546917 of unit cell:	Completed after 12 iterations at t[s]:   2021.08
	FillingsUpdate:  mu: -0.097800000  nElectrons: 161.414705  magneticMoment: [ Abs: 0.00002  Tot: +0.00001 ]
	SubspaceRotationAdjust: set factor to 0.0226
ElecMinimize: Iter:  26  G: -874.014259485688513  |grad|_K:  1.280e-06  alpha:  6.862e-01  linmin:  2.468e-04  t[s]:   2030.81
	Linear fluid (dielectric constant: 78.4, screening length: 8.12261 Bohr) occupying 0.546775 of unit cell:	Completed after 14 iterations at t[s]:   2039.14
	Linear fluid (dielectric constant: 78.4, screening length: 8.12261 Bohr) occupying 0.546772 of unit cell:	Completed after 2 iterations at t[s]:   2045.53
	FillingsUpdate:  mu: -0.097800000  nElectrons: 161.415187  magneticMoment: [ Abs: 0.00001  Tot: +0.00001 ]
	SubspaceRotationAdjust: set factor to 0.0248
ElecMinimize: Iter:  27  G: -874.014438508707030  |grad|_K:  1.234e-06  alpha:  6.968e-01  linmin:  2.046e-05  t[s]:   2055.33
	Linear fluid (dielectric constant: 78.4, screening length: 8.12261 Bohr) occupying 0.546732 of unit cell:	Completed after 15 iterations at t[s]:   2063.76
	Linear fluid (dielectric constant: 78.4, screening length: 8.12261 Bohr) occupying 0.546733 of unit cell:	Completed after 4 iterations at t[s]:   2070.26
	FillingsUpdate:  mu: -0.097800000  nElectrons: 161.419973  magneticMoment: [ Abs: 0.00001  Tot: +0.00001 ]
	SubspaceRotationAdjust: set factor to 0.0255
ElecMinimize: Iter:  28  G: -874.014600304349415  |grad|_K:  1.156e-06  alpha:  6.750e-01  linmin: -8.001e-05  t[s]:   2079.99
	Linear fluid (dielectric constant: 78.4, screening length: 8.12261 Bohr) occupying 0.546424 of unit cell:	Completed after 20 iterations at t[s]:   2088.55
	Linear fluid (dielectric constant: 78.4, screening length: 8.12261 Bohr) occupying 0.546526 of unit cell:	Completed after 15 iterations at t[s]:   2095.71
	FillingsUpdate:  mu: -0.097800000  nElectrons: 161.412494  magneticMoment: [ Abs: 0.00001  Tot: +0.00001 ]
	SubspaceRotationAdjust: set factor to 0.0222
ElecMinimize: Iter:  29  G: -874.014697524704616  |grad|_K:  1.131e-06  alpha:  4.589e-01  linmin: -3.144e-06  t[s]:   2105.46
	Linear fluid (dielectric constant: 78.4, screening length: 8.12261 Bohr) occupying 0.546688 of unit cell:	Completed after 19 iterations at t[s]:   2114.14
	Linear fluid (dielectric constant: 78.4, screening length: 8.12261 Bohr) occupying 0.546660 of unit cell:	Completed after 13 iterations at t[s]:   2121.08
	FillingsUpdate:  mu: -0.097800000  nElectrons: 161.423156  magneticMoment: [ Abs: 0.00001  Tot: +0.00001 ]
	SubspaceRotationAdjust: set factor to 0.0177
ElecMinimize: Iter:  30  G: -874.014773252910800  |grad|_K:  8.426e-07  alpha:  3.767e-01  linmin: -1.135e-04  t[s]:   2130.89
	Linear fluid (dielectric constant: 78.4, screening length: 8.12261 Bohr) occupying 0.546617 of unit cell:	Completed after 13 iterations at t[s]:   2139.15
	Linear fluid (dielectric constant: 78.4, screening length: 8.12261 Bohr) occupying 0.546602 of unit cell:	Completed after 12 iterations at t[s]:   2146.08
	FillingsUpdate:  mu: -0.097800000  nElectrons: 161.422665  magneticMoment: [ Abs: 0.00001  Tot: +0.00001 ]
	SubspaceRotationAdjust: set factor to 0.02
ElecMinimize: Iter:  31  G: -874.014829984759558  |grad|_K:  6.351e-07  alpha:  5.062e-01  linmin:  7.081e-05  t[s]:   2155.84
	Linear fluid (dielectric constant: 78.4, screening length: 8.12261 Bohr) occupying 0.546543 of unit cell:	Completed after 13 iterations at t[s]:   2164.14
	Linear fluid (dielectric constant: 78.4, screening length: 8.12261 Bohr) occupying 0.546538 of unit cell:	Completed after 8 iterations at t[s]:   2170.85
	FillingsUpdate:  mu: -0.097800000  nElectrons: 161.421331  magneticMoment: [ Abs: 0.00001  Tot: +0.00001 ]
	SubspaceRotationAdjust: set factor to 0.0218
ElecMinimize: Iter:  32  G: -874.014864686483179  |grad|_K:  5.147e-07  alpha:  5.468e-01  linmin:  3.672e-05  t[s]:   2180.53
	Linear fluid (dielectric constant: 78.4, screening length: 8.12261 Bohr) occupying 0.546580 of unit cell:	Completed after 15 iterations at t[s]:   2188.88
	Linear fluid (dielectric constant: 78.4, screening length: 8.12261 Bohr) occupying 0.546576 of unit cell:	Completed after 9 iterations at t[s]:   2195.66
	FillingsUpdate:  mu: -0.097800000  nElectrons: 161.425267  magneticMoment: [ Abs: 0.00001  Tot: +0.00001 ]
	SubspaceRotationAdjust: set factor to 0.0216
ElecMinimize: Iter:  33  G: -874.014885502469610  |grad|_K:  4.741e-07  alpha:  4.990e-01  linmin: -4.790e-07  t[s]:   2205.37
	Linear fluid (dielectric constant: 78.4, screening length: 8.12261 Bohr) occupying 0.546486 of unit cell:	Completed after 15 iterations at t[s]:   2213.75
	Linear fluid (dielectric constant: 78.4, screening length: 8.12261 Bohr) occupying 0.546495 of unit cell:	Completed after 9 iterations at t[s]:   2220.53
	FillingsUpdate:  mu: -0.097800000  nElectrons: 161.422397  magneticMoment: [ Abs: 0.00001  Tot: +0.00001 ]
	SubspaceRotationAdjust: set factor to 0.0218
ElecMinimize: Iter:  34  G: -874.014901427528116  |grad|_K:  4.161e-07  alpha:  4.497e-01  linmin:  2.600e-05  t[s]:   2230.58
	Linear fluid (dielectric constant: 78.4, screening length: 8.12261 Bohr) occupying 0.546496 of unit cell:	Completed after 12 iterations at t[s]:   2239.04
	Linear fluid (dielectric constant: 78.4, screening length: 8.12261 Bohr) occupying 0.546496 of unit cell:	Completed after 10 iterations at t[s]:   2245.90
	FillingsUpdate:  mu: -0.097800000  nElectrons: 161.424546  magneticMoment: [ Abs: 0.00001  Tot: +0.00001 ]
	SubspaceRotationAdjust: set factor to 0.0261
ElecMinimize: Iter:  35  G: -874.014917796000418  |grad|_K:  3.912e-07  alpha:  6.002e-01  linmin: -3.041e-05  t[s]:   2255.59
	Linear fluid (dielectric constant: 78.4, screening length: 8.12261 Bohr) occupying 0.546472 of unit cell:	Completed after 10 iterations at t[s]:   2263.78
	Linear fluid (dielectric constant: 78.4, screening length: 8.12261 Bohr) occupying 0.546466 of unit cell:	Completed after 3 iterations at t[s]:   2270.17
	FillingsUpdate:  mu: -0.097800000  nElectrons: 161.425572  magneticMoment: [ Abs: 0.00001  Tot: +0.00001 ]
	SubspaceRotationAdjust: set factor to 0.0309
ElecMinimize: Iter:  36  G: -874.014935946081664  |grad|_K:  4.240e-07  alpha:  7.521e-01  linmin: -1.652e-05  t[s]:   2279.94
	Linear fluid (dielectric constant: 78.4, screening length: 8.12261 Bohr) occupying 0.546363 of unit cell:	Completed after 15 iterations at t[s]:   2288.32
	Linear fluid (dielectric constant: 78.4, screening length: 8.12261 Bohr) occupying 0.546364 of unit cell:	Completed after 0 iterations at t[s]:   2294.55
	FillingsUpdate:  mu: -0.097800000  nElectrons: 161.423316  magneticMoment: [ Abs: 0.00001  Tot: +0.00001 ]
	SubspaceRotationAdjust: set factor to 0.0321
ElecMinimize: Iter:  37  G: -874.014957061505129  |grad|_K:  5.344e-07  alpha:  7.450e-01  linmin:  9.444e-05  t[s]:   2304.28
	Linear fluid (dielectric constant: 78.4, screening length: 8.12261 Bohr) occupying 0.546436 of unit cell:	Completed after 17 iterations at t[s]:   2312.77
	Linear fluid (dielectric constant: 78.4, screening length: 8.12261 Bohr) occupying 0.546403 of unit cell:	Completed after 15 iterations at t[s]:   2319.84
	FillingsUpdate:  mu: -0.097800000  nElectrons: 161.428463  magneticMoment: [ Abs: 0.00001  Tot: +0.00001 ]
	SubspaceRotationAdjust: set factor to 0.027
ElecMinimize: Iter:  38  G: -874.014974627138258  |grad|_K:  5.933e-07  alpha:  3.938e-01  linmin:  1.906e-05  t[s]:   2329.49
	Linear fluid (dielectric constant: 78.4, screening length: 8.12261 Bohr) occupying 0.546275 of unit cell:	Completed after 15 iterations at t[s]:   2337.83
	Linear fluid (dielectric constant: 78.4, screening length: 8.12261 Bohr) occupying 0.546257 of unit cell:	Completed after 10 iterations at t[s]:   2344.69
	FillingsUpdate:  mu: -0.097800000  nElectrons: 161.424488  magneticMoment: [ Abs: 0.00001  Tot: +0.00001 ]
	SubspaceRotationAdjust: set factor to 0.0237
ElecMinimize: Iter:  39  G: -874.014999602945409  |grad|_K:  5.187e-07  alpha:  4.511e-01  linmin:  6.786e-05  t[s]:   2354.54
	Linear fluid (dielectric constant: 78.4, screening length: 8.12261 Bohr) occupying 0.546216 of unit cell:	Completed after 12 iterations at t[s]:   2362.78
	Linear fluid (dielectric constant: 78.4, screening length: 8.12261 Bohr) occupying 0.546199 of unit cell:	Completed after 10 iterations at t[s]:   2369.57
	FillingsUpdate:  mu: -0.097800000  nElectrons: 161.425599  magneticMoment: [ Abs: 0.00001  Tot: +0.00001 ]
	SubspaceRotationAdjust: set factor to 0.0251
ElecMinimize: Iter:  40  G: -874.015026777923822  |grad|_K:  4.711e-07  alpha:  6.429e-01  linmin: -2.486e-05  t[s]:   2379.25
	Linear fluid (dielectric constant: 78.4, screening length: 8.12261 Bohr) occupying 0.546153 of unit cell:	Completed after 13 iterations at t[s]:   2387.55
	Linear fluid (dielectric constant: 78.4, screening length: 8.12261 Bohr) occupying 0.546156 of unit cell:	Completed after 2 iterations at t[s]:   2393.93
	FillingsUpdate:  mu: -0.097800000  nElectrons: 161.426249  magneticMoment: [ Abs: 0.00001  Tot: +0.00001 ]
	SubspaceRotationAdjust: set factor to 0.0261
ElecMinimize: Iter:  41  G: -874.015047888664640  |grad|_K:  4.135e-07  alpha:  6.031e-01  linmin:  2.636e-06  t[s]:   2403.59
	Linear fluid (dielectric constant: 78.4, screening length: 8.12261 Bohr) occupying 0.546033 of unit cell:	Completed after 15 iterations at t[s]:   2411.94
	Linear fluid (dielectric constant: 78.4, screening length: 8.12261 Bohr) occupying 0.546059 of unit cell:	Completed after 12 iterations at t[s]:   2419.03
	FillingsUpdate:  mu: -0.097800000  nElectrons: 161.422523  magneticMoment: [ Abs: 0.00001  Tot: +0.00001 ]
	SubspaceRotationAdjust: set factor to 0.0233
ElecMinimize: Iter:  42  G: -874.015060745933624  |grad|_K:  3.927e-07  alpha:  4.774e-01  linmin: -4.815e-06  t[s]:   2428.69
	Linear fluid (dielectric constant: 78.4, screening length: 8.12261 Bohr) occupying 0.546092 of unit cell:	Completed after 14 iterations at t[s]:   2437.00
	Linear fluid (dielectric constant: 78.4, screening length: 8.12261 Bohr) occupying 0.546082 of unit cell:	Completed after 12 iterations at t[s]:   2444.00
	FillingsUpdate:  mu: -0.097800000  nElectrons: 161.424531  magneticMoment: [ Abs: 0.00001  Tot: +0.00001 ]
	SubspaceRotationAdjust: set factor to 0.0189
ElecMinimize: Iter:  43  G: -874.015068935371346  |grad|_K:  2.951e-07  alpha:  3.371e-01  linmin:  1.745e-06  t[s]:   2453.81
	Linear fluid (dielectric constant: 78.4, screening length: 8.12261 Bohr) occupying 0.546050 of unit cell:	Completed after 12 iterations at t[s]:   2461.98
	Linear fluid (dielectric constant: 78.4, screening length: 8.12261 Bohr) occupying 0.546036 of unit cell:	Completed after 10 iterations at t[s]:   2468.79
	FillingsUpdate:  mu: -0.097800000  nElectrons: 161.422338  magneticMoment: [ Abs: 0.00001  Tot: +0.00001 ]
	SubspaceRotationAdjust: set factor to 0.021
ElecMinimize: Iter:  44  G: -874.015075609579526  |grad|_K:  2.184e-07  alpha:  4.866e-01  linmin:  3.473e-05  t[s]:   2478.45
	Linear fluid (dielectric constant: 78.4, screening length: 8.12261 Bohr) occupying 0.546010 of unit cell:	Completed after 11 iterations at t[s]:   2486.70
	Linear fluid (dielectric constant: 78.4, screening length: 8.12261 Bohr) occupying 0.546008 of unit cell:	Completed after 2 iterations at t[s]:   2493.10
	FillingsUpdate:  mu: -0.097800000  nElectrons: 161.420762  magneticMoment: [ Abs: 0.00001  Tot: +0.00001 ]
	SubspaceRotationAdjust: set factor to 0.024
ElecMinimize: Iter:  45  G: -874.015079533037010  |grad|_K:  1.801e-07  alpha:  5.224e-01  linmin: -4.086e-05  t[s]:   2502.82
	Linear fluid (dielectric constant: 78.4, screening length: 8.12261 Bohr) occupying 0.546022 of unit cell:	Completed after 12 iterations at t[s]:   2510.98
	Linear fluid (dielectric constant: 78.4, screening length: 8.12261 Bohr) occupying 0.546021 of unit cell:	Completed after 6 iterations at t[s]:   2517.65
	FillingsUpdate:  mu: -0.097800000  nElectrons: 161.421182  magneticMoment: [ Abs: 0.00001  Tot: +0.00001 ]
	SubspaceRotationAdjust: set factor to 0.023
ElecMinimize: Iter:  46  G: -874.015081915464066  |grad|_K:  1.667e-07  alpha:  4.654e-01  linmin:  1.729e-04  t[s]:   2527.33
	Linear fluid (dielectric constant: 78.4, screening length: 8.12261 Bohr) occupying 0.545983 of unit cell:	Completed after 12 iterations at t[s]:   2536.19
	Linear fluid (dielectric constant: 78.4, screening length: 8.12261 Bohr) occupying 0.545989 of unit cell:	Completed after 9 iterations at t[s]:   2542.98
	FillingsUpdate:  mu: -0.097800000  nElectrons: 161.419146  magneticMoment: [ Abs: 0.00001  Tot: +0.00001 ]
	SubspaceRotationAdjust: set factor to 0.0225
ElecMinimize: Iter:  47  G: -874.015083628803268  |grad|_K:  1.371e-07  alpha:  3.940e-01  linmin: -9.774e-05  t[s]:   2552.69
	Linear fluid (dielectric constant: 78.4, screening length: 8.12261 Bohr) occupying 0.545987 of unit cell:	Completed after 10 iterations at t[s]:   2560.80
	Linear fluid (dielectric constant: 78.4, screening length: 8.12261 Bohr) occupying 0.545986 of unit cell:	Completed after 6 iterations at t[s]:   2567.42
	FillingsUpdate:  mu: -0.097800000  nElectrons: 161.418466  magneticMoment: [ Abs: 0.00001  Tot: +0.00001 ]
	SubspaceRotationAdjust: set factor to 0.0273
ElecMinimize: Iter:  48  G: -874.015085292915728  |grad|_K:  1.159e-07  alpha:  5.604e-01  linmin: -1.556e-05  t[s]:   2577.15
	Linear fluid (dielectric constant: 78.4, screening length: 8.12261 Bohr) occupying 0.545982 of unit cell:	Completed after 7 iterations at t[s]:   2585.12
	Linear fluid (dielectric constant: 78.4, screening length: 8.12261 Bohr) occupying 0.545982 of unit cell:	Completed after 2 iterations at t[s]:   2591.51
	FillingsUpdate:  mu: -0.097800000  nElectrons: 161.417606  magneticMoment: [ Abs: 0.00001  Tot: +0.00001 ]
	SubspaceRotationAdjust: set factor to 0.0322
ElecMinimize: Iter:  49  G: -874.015086624825358  |grad|_K:  1.095e-07  alpha:  6.296e-01  linmin: -4.401e-05  t[s]:   2601.19
	Linear fluid (dielectric constant: 78.4, screening length: 8.12261 Bohr) occupying 0.545957 of unit cell:	Completed after 12 iterations at t[s]:   2609.38
	Linear fluid (dielectric constant: 78.4, screening length: 8.12261 Bohr) occupying 0.545960 of unit cell:	Completed after 5 iterations at t[s]:   2615.94
	FillingsUpdate:  mu: -0.097800000  nElectrons: 161.415859  magneticMoment: [ Abs: 0.00001  Tot: +0.00001 ]
	SubspaceRotationAdjust: set factor to 0.0327
ElecMinimize: Iter:  50  G: -874.015087680578176  |grad|_K:  1.216e-07  alpha:  5.573e-01  linmin:  1.972e-04  t[s]:   2625.71
	Linear fluid (dielectric constant: 78.4, screening length: 8.12261 Bohr) occupying 0.545985 of unit cell:	Completed after 13 iterations at t[s]:   2633.96
	Linear fluid (dielectric constant: 78.4, screening length: 8.12261 Bohr) occupying 0.545974 of unit cell:	Completed after 10 iterations at t[s]:   2640.81
	FillingsUpdate:  mu: -0.097800000  nElectrons: 161.416145  magneticMoment: [ Abs: 0.00001  Tot: +0.00001 ]
	SubspaceRotationAdjust: set factor to 0.027
ElecMinimize: Iter:  51  G: -874.015088376120389  |grad|_K:  1.095e-07  alpha:  3.026e-01  linmin:  1.552e-05  t[s]:   2650.45
	Linear fluid (dielectric constant: 78.4, screening length: 8.12261 Bohr) occupying 0.545962 of unit cell:	Completed after 10 iterations at t[s]:   2658.54
	Linear fluid (dielectric constant: 78.4, screening length: 8.12261 Bohr) occupying 0.545956 of unit cell:	Completed after 9 iterations at t[s]:   2665.35
	FillingsUpdate:  mu: -0.097800000  nElectrons: 161.414550  magneticMoment: [ Abs: 0.00001  Tot: +0.00001 ]
	SubspaceRotationAdjust: set factor to 0.0279
ElecMinimize: Iter:  52  G: -874.015089279038762  |grad|_K:  9.134e-08  alpha:  4.782e-01  linmin:  1.469e-05  t[s]:   2675.05
	Linear fluid (dielectric constant: 78.4, screening length: 8.12261 Bohr) occupying 0.545954 of unit cell:	Completed after 6 iterations at t[s]:   2683.07
	Linear fluid (dielectric constant: 78.4, screening length: 8.12261 Bohr) occupying 0.545954 of unit cell:	Completed after 3 iterations at t[s]:   2689.47
	FillingsUpdate:  mu: -0.097800000  nElectrons: 161.413861  magneticMoment: [ Abs: 0.00001  Tot: +0.00001 ]
	SubspaceRotationAdjust: set factor to 0.0319
ElecMinimize: Iter:  53  G: -874.015090066273615  |grad|_K:  8.144e-08  alpha:  5.992e-01  linmin: -3.080e-05  t[s]:   2699.18
	Linear fluid (dielectric constant: 78.4, screening length: 8.12261 Bohr) occupying 0.545954 of unit cell:	Completed after 3 iterations at t[s]:   2706.92
	Linear fluid (dielectric constant: 78.4, screening length: 8.12261 Bohr) occupying 0.545954 of unit cell:	Completed after 2 iterations at t[s]:   2713.38
	FillingsUpdate:  mu: -0.097800000  nElectrons: 161.413333  magneticMoment: [ Abs: 0.00001  Tot: +0.00001 ]
	SubspaceRotationAdjust: set factor to 0.0376
ElecMinimize: Iter:  54  G: -874.015090736621005  |grad|_K:  7.527e-08  alpha:  6.419e-01  linmin:  2.437e-05  t[s]:   2723.09
	Linear fluid (dielectric constant: 78.4, screening length: 8.12261 Bohr) occupying 0.545947 of unit cell:	Completed after 9 iterations at t[s]:   2731.18
	Linear fluid (dielectric constant: 78.4, screening length: 8.12261 Bohr) occupying 0.545948 of unit cell:	Completed after 2 iterations at t[s]:   2737.55
	FillingsUpdate:  mu: -0.097800000  nElectrons: 161.412551  magneticMoment: [ Abs: 0.00001  Tot: +0.00000 ]
	SubspaceRotationAdjust: set factor to 0.0394
ElecMinimize: Iter:  55  G: -874.015091253017658  |grad|_K:  8.630e-08  alpha:  5.788e-01  linmin:  1.857e-04  t[s]:   2747.33
	Linear fluid (dielectric constant: 78.4, screening length: 8.12261 Bohr) occupying 0.545985 of unit cell:	Completed after 13 iterations at t[s]:   2755.56
	Linear fluid (dielectric constant: 78.4, screening length: 8.12261 Bohr) occupying 0.545965 of unit cell:	Completed after 12 iterations at t[s]:   2762.50
	FillingsUpdate:  mu: -0.097800000  nElectrons: 161.413170  magneticMoment: [ Abs: 0.00001  Tot: +0.00000 ]
	SubspaceRotationAdjust: set factor to 0.0325
ElecMinimize: Iter:  56  G: -874.015091557447363  |grad|_K:  8.277e-08  alpha:  2.645e-01  linmin:  4.824e-05  t[s]:   2772.21
	Linear fluid (dielectric constant: 78.4, screening length: 8.12261 Bohr) occupying 0.545963 of unit cell:	Completed after 9 iterations at t[s]:   2780.23
	Linear fluid (dielectric constant: 78.4, screening length: 8.12261 Bohr) occupying 0.545962 of unit cell:	Completed after 6 iterations at t[s]:   2786.87
	FillingsUpdate:  mu: -0.097800000  nElectrons: 161.412610  magneticMoment: [ Abs: 0.00001  Tot: +0.00000 ]
	SubspaceRotationAdjust: set factor to 0.0347
ElecMinimize: Iter:  57  G: -874.015091988055929  |grad|_K:  6.522e-08  alpha:  3.997e-01  linmin: -4.240e-05  t[s]:   2796.61
	Linear fluid (dielectric constant: 78.4, screening length: 8.12261 Bohr) occupying 0.545967 of unit cell:	Completed after 3 iterations at t[s]:   2804.41
	Linear fluid (dielectric constant: 78.4, screening length: 8.12261 Bohr) occupying 0.545971 of unit cell:	Completed after 2 iterations at t[s]:   2810.88
	FillingsUpdate:  mu: -0.097800000  nElectrons: 161.412686  magneticMoment: [ Abs: 0.00001  Tot: +0.00000 ]
	SubspaceRotationAdjust: set factor to 0.0413
ElecMinimize: Iter:  58  G: -874.015092406070039  |grad|_K:  6.008e-08  alpha:  6.235e-01  linmin:  5.362e-05  t[s]:   2820.58
	Linear fluid (dielectric constant: 78.4, screening length: 8.12261 Bohr) occupying 0.545984 of unit cell:	Completed after 9 iterations at t[s]:   2828.62
	Linear fluid (dielectric constant: 78.4, screening length: 8.12261 Bohr) occupying 0.545984 of unit cell:	Completed after 0 iterations at t[s]:   2835.93
	FillingsUpdate:  mu: -0.097800000  nElectrons: 161.413055  magneticMoment: [ Abs: 0.00001  Tot: +0.00000 ]
	SubspaceRotationAdjust: set factor to 0.0461
ElecMinimize: Iter:  59  G: -874.015092749001610  |grad|_K:  6.310e-08  alpha:  6.044e-01  linmin:  8.713e-07  t[s]:   2845.86
	Linear fluid (dielectric constant: 78.4, screening length: 8.12261 Bohr) occupying 0.545974 of unit cell:	Completed after 12 iterations at t[s]:   2854.06
	Linear fluid (dielectric constant: 78.4, screening length: 8.12261 Bohr) occupying 0.545979 of unit cell:	Completed after 9 iterations at t[s]:   2860.79
	FillingsUpdate:  mu: -0.097800000  nElectrons: 161.412577  magneticMoment: [ Abs: 0.00001  Tot: +0.00000 ]
	SubspaceRotationAdjust: set factor to 0.0394
ElecMinimize: Iter:  60  G: -874.015092938690032  |grad|_K:  7.599e-08  alpha:  3.032e-01  linmin:  3.349e-05  t[s]:   2870.39
	Linear fluid (dielectric constant: 78.4, screening length: 8.12261 Bohr) occupying 0.545998 of unit cell:	Completed after 10 iterations at t[s]:   2878.52
	Linear fluid (dielectric constant: 78.4, screening length: 8.12261 Bohr) occupying 0.545997 of unit cell:	Completed after 2 iterations at t[s]:   2884.95
	FillingsUpdate:  mu: -0.097800000  nElectrons: 161.413209  magneticMoment: [ Abs: 0.00001  Tot: +0.00000 ]
	SubspaceRotationAdjust: set factor to 0.0357
ElecMinimize: Iter:  61  G: -874.015093189366098  |grad|_K:  5.392e-08  alpha:  2.762e-01  linmin:  1.580e-04  t[s]:   2894.62
	Linear fluid (dielectric constant: 78.4, screening length: 8.12261 Bohr) occupying 0.546000 of unit cell:	Completed after 3 iterations at t[s]:   2902.37
	Linear fluid (dielectric constant: 78.4, screening length: 8.12261 Bohr) occupying 0.546003 of unit cell:	Completed after 4 iterations at t[s]:   2908.91
	FillingsUpdate:  mu: -0.097800000  nElectrons: 161.413167  magneticMoment: [ Abs: 0.00000  Tot: +0.00000 ]
	SubspaceRotationAdjust: set factor to 0.0409
ElecMinimize: Iter:  62  G: -874.015093459744435  |grad|_K:  4.894e-08  alpha:  5.923e-01  linmin: -1.298e-04  t[s]:   2918.65
	Linear fluid (dielectric constant: 78.4, screening length: 8.12261 Bohr) occupying 0.546013 of unit cell:	Completed after 4 iterations at t[s]:   2926.38
	Linear fluid (dielectric constant: 78.4, screening length: 8.12261 Bohr) occupying 0.546014 of unit cell:	Completed after 0 iterations at t[s]:   2932.64
	FillingsUpdate:  mu: -0.097800000  nElectrons: 161.413334  magneticMoment: [ Abs: 0.00000  Tot: +0.00000 ]
	SubspaceRotationAdjust: set factor to 0.0475
ElecMinimize: Iter:  63  G: -874.015093692032792  |grad|_K:  4.564e-08  alpha:  6.119e-01  linmin: -2.033e-05  t[s]:   2942.38
	Linear fluid (dielectric constant: 78.4, screening length: 8.12261 Bohr) occupying 0.546018 of unit cell:	Completed after 4 iterations at t[s]:   2950.22
	Linear fluid (dielectric constant: 78.4, screening length: 8.12261 Bohr) occupying 0.546018 of unit cell:	Completed after 0 iterations at t[s]:   2956.55
	FillingsUpdate:  mu: -0.097800000  nElectrons: 161.413113  magneticMoment: [ Abs: 0.00000  Tot: +0.00000 ]
	SubspaceRotationAdjust: set factor to 0.0543
ElecMinimize: Iter:  64  G: -874.015093902040462  |grad|_K:  4.422e-08  alpha:  6.390e-01  linmin: -8.689e-05  t[s]:   2966.24
	Linear fluid (dielectric constant: 78.4, screening length: 8.12261 Bohr) occupying 0.546033 of unit cell:	Completed after 9 iterations at t[s]:   2974.26
	Linear fluid (dielectric constant: 78.4, screening length: 8.12261 Bohr) occupying 0.546030 of unit cell:	Completed after 2 iterations at t[s]:   2980.63
	FillingsUpdate:  mu: -0.097800000  nElectrons: 161.413345  magneticMoment: [ Abs: 0.00000  Tot: +0.00000 ]
	SubspaceRotationAdjust: set factor to 0.0475
ElecMinimize: Iter:  65  G: -874.015094058925342  |grad|_K:  5.810e-08  alpha:  5.033e-01  linmin:  3.607e-04  t[s]:   2990.24
	Linear fluid (dielectric constant: 78.4, screening length: 8.12261 Bohr) occupying 0.546014 of unit cell:	Completed after 12 iterations at t[s]:   2998.40
	Linear fluid (dielectric constant: 78.4, screening length: 8.12261 Bohr) occupying 0.546025 of unit cell:	Completed after 10 iterations at t[s]:   3005.21
	FillingsUpdate:  mu: -0.097800000  nElectrons: 161.412839  magneticMoment: [ Abs: 0.00000  Tot: +0.00000 ]
	SubspaceRotationAdjust: set factor to 0.033
ElecMinimize: Iter:  66  G: -874.015094134622359  |grad|_K:  4.408e-08  alpha:  1.547e-01  linmin:  2.927e-04  t[s]:   3015.07
	Linear fluid (dielectric constant: 78.4, screening length: 8.12261 Bohr) occupying 0.546028 of unit cell:	Completed after 2 iterations at t[s]:   3022.79
	Linear fluid (dielectric constant: 78.4, screening length: 8.12261 Bohr) occupying 0.546033 of unit cell:	Completed after 3 iterations at t[s]:   3029.22
	FillingsUpdate:  mu: -0.097800000  nElectrons: 161.412773  magneticMoment: [ Abs: 0.00000  Tot: +0.00000 ]
	SubspaceRotationAdjust: set factor to 0.042
ElecMinimize: Iter:  67  G: -874.015094263582455  |grad|_K:  3.307e-08  alpha:  4.287e-01  linmin:  3.234e-05  t[s]:   3038.77
	Linear fluid (dielectric constant: 78.4, screening length: 8.12261 Bohr) occupying 0.546040 of unit cell:	Completed after 9 iterations at t[s]:   3046.90
	Linear fluid (dielectric constant: 78.4, screening length: 8.12261 Bohr) occupying 0.546040 of unit cell:	Completed after 0 iterations at t[s]:   3053.16
	FillingsUpdate:  mu: -0.097800000  nElectrons: 161.412851  magneticMoment: [ Abs: 0.00000  Tot: +0.00000 ]
	SubspaceRotationAdjust: set factor to 0.0383
ElecMinimize: Iter:  68  G: -874.015094335584536  |grad|_K:  3.899e-08  alpha:  4.193e-01  linmin: -5.342e-04  t[s]:   3062.86
	Linear fluid (dielectric constant: 78.4, screening length: 8.12261 Bohr) occupying 0.546032 of unit cell:	Completed after 10 iterations at t[s]:   3070.97
	Linear fluid (dielectric constant: 78.4, screening length: 8.12261 Bohr) occupying 0.546037 of unit cell:	Completed after 9 iterations at t[s]:   3077.85
	FillingsUpdate:  mu: -0.097800000  nElectrons: 161.412478  magneticMoment: [ Abs: 0.00000  Tot: +0.00000 ]
	SubspaceRotationAdjust: set factor to 0.0283
ElecMinimize: Iter:  69  G: -874.015094378583285  |grad|_K:  2.690e-08  alpha:  1.751e-01  linmin:  1.720e-04  t[s]:   3087.57
ElecMinimize: Converged (|Delta G|<1.000000e-07 for 2 iters).
Setting wave functions to eigenvectors of Hamiltonian
Converging empty states (this may take a while): |deigs|: 5.015e-04
Single-point solvation energy estimate, DeltaG = -0.061665667766647

Computing DFT-D3 correction:
# coordination-number Pt 8.734 9.550 9.523 7.152 4.809 9.523 9.550 8.734 4.809 7.152
# diagonal-C6 Pt 336.87 336.87 336.87 336.87 336.87 336.87 336.87 336.87 336.87 336.87
EvdW_6 =   -0.074874
EvdW_8 =   -0.128585

# Ionic positions in cartesian coordinates:
ion Pt   3.699579000000000   1.654502000000000  12.408765999999998 1
ion Pt   0.000000000000000   3.309004000000000   9.099744999999999 1
ion Pt   3.699579000000000   4.963506000000000   5.790773999999999 1
ion Pt   0.000000000000000   6.618008000000000   2.481752999999999 1
ion Pt  -3.699579000000000   8.272510000000000  15.717785999999997 1
ion Pt   3.699579000000000   6.618008000000000  10.754280000000000 1
ion Pt   3.699579000000000   0.000000000000000   7.445258999999999 1
ion Pt   0.000000000000000   1.654502000000000   4.136238999999999 1
ion Pt   3.699579000000000   3.309004000000000   0.827268000000000 1
ion Pt   0.000000000000000   4.963506000000000  14.063250999999998 1

# Forces in Cartesian coordinates:
force Pt   0.000399036393694   0.004486629138290   0.018396888950745 1
force Pt  -0.000544973429059   0.000012807388317   0.000340931942815 1
force Pt  -0.000354192670011   0.000266452874677   0.004330108356537 1
force Pt   0.000279466678976  -0.002876755768478  -0.016515067933364 1
force Pt   0.000157183807868  -0.002110729397515  -0.020638975329214 1
force Pt   0.000340493350150  -0.000207357851826  -0.004276871258254 1
force Pt   0.000553240088852  -0.000062914670324  -0.000241958645287 1
force Pt  -0.000394132162046  -0.004476432477080  -0.018415564700302 1
force Pt  -0.000150189547489   0.002117158538538   0.024098964441024 1
force Pt  -0.000288417013800   0.002856112677611   0.017433656005586 1

# Energy components:
   A_diel =       -0.5464099094639741
   Eewald =     4081.2529439614022522
       EH =     4915.1953347850239879
     Eloc =   -10039.8652192239296710
      Enl =      -10.5463607633130323
     EvdW =       -0.2034584113802622
      Exc =     -284.6990316500230733
 Exc_core =      163.9138150486513155
       KE =      285.7727535683267206
  MuShift =       -0.0738062317394333
-------------------------------------
     Etot =     -889.7994388264460213
       TS =        0.0017958816913592
-------------------------------------
        F =     -889.8012347081373719
      muN =      -15.7861403295540459
-------------------------------------
        G =     -874.0150943785832851


Dumping 'jdft.fillings' ... done
Dumping 'jdft.wfns' ... done
Dumping 'jdft.fluidState' ... done
Dumping 'jdft.ionpos' ... done
Dumping 'jdft.lattice' ... done
Dumping 'jdft.eigenvals' ... done
Dumping 'jdft.eigStats' ... 
	eMin: -2.045902 at state 35 ( [ -0.444444 +0.000000 +0.000000 ] spin 1 )
	HOMO: -0.097968 at state 74 ( [ +0.111111 -0.428571 +0.000000 ] spin -1 )
	mu  : -0.097800
	LUMO: -0.097827 at state 15 ( [ +0.222222 +0.142857 +0.000000 ] spin 1 )
	eMax: +0.133902 at state 6 ( [ +0.000000 -0.142857 +0.000000 ] spin 1 )
	HOMO-LUMO gap: +0.000141
	Optical gap  : +0.001433 at state 56 ( [ -0.111111 +0.000000 +0.000000 ] spin 1 )
Dumping 'jdft.Ecomponents' ... done
IonicMinimize: Iter:   0  G: -874.015094378583285  |grad|_K:  8.875e-03  t[s]:   3140.67

#--- Lowdin population analysis ---
# oxidation-state Pt -0.061 +0.007 -0.014 -0.230 -0.355 -0.014 +0.007 -0.061 -0.369 -0.228
# magnetic-moments Pt +0.000 +0.000 +0.000 +0.000 +0.000 +0.000 +0.000 +0.000 +0.000 +0.000


Computing DFT-D3 correction:
# coordination-number Pt 8.724 9.522 9.516 7.151 4.866 9.514 9.523 8.727 4.872 7.148
# diagonal-C6 Pt 336.87 336.87 336.87 336.87 336.87 336.87 336.87 336.87 336.87 336.87
EvdW_6 =   -0.074859
EvdW_8 =   -0.128509
Shifting auxilliary hamiltonian by 0.000033 to set nElectrons=161.412478

-------- Electronic minimization -----------
	Linear fluid (dielectric constant: 78.4, screening length: 8.12261 Bohr) occupying 0.545864 of unit cell:	Completed after 26 iterations at t[s]:   3150.05
	FillingsUpdate:  mu: -0.097800000  nElectrons: 161.412478  magneticMoment: [ Abs: 0.00000  Tot: +0.00000 ]
ElecMinimize: Iter:   0  G: -873.930394509700250  |grad|_K:  3.947e-05  alpha:  1.000e+00
	Linear fluid (dielectric constant: 78.4, screening length: 8.12261 Bohr) occupying 0.539211 of unit cell:	Completed after 30 iterations at t[s]:   3170.32
	Linear fluid (dielectric constant: 78.4, screening length: 8.12261 Bohr) occupying 0.544350 of unit cell:	Completed after 32 iterations at t[s]:   3178.27
	FillingsUpdate:  mu: -0.097800000  nElectrons: 161.329265  magneticMoment: [ Abs: 0.00000  Tot: +0.00000 ]
	SubspaceRotationAdjust: set factor to 0.0231
ElecMinimize: Iter:   1  G: -874.005077507353349  |grad|_K:  1.499e-05  alpha:  3.049e-01  linmin:  2.893e-03  t[s]:   3187.95
	Linear fluid (dielectric constant: 78.4, screening length: 8.12261 Bohr) occupying 0.548139 of unit cell:	Completed after 28 iterations at t[s]:   3196.98
[...]
	Linear fluid (dielectric constant: 78.4, screening length: 8.12261 Bohr) occupying 0.552483 of unit cell:	Completed after 0 iterations at t[s]:  16625.51
	FillingsUpdate:  mu: -0.097800000  nElectrons: 161.353137  magneticMoment: [ Abs: 0.00000  Tot: -0.00000 ]
	SubspaceRotationAdjust: set factor to 0.0145
ElecMinimize: Iter:  21  G: -874.031502334441711  |grad|_K:  2.369e-08  alpha:  3.929e-01  linmin:  4.706e-04  t[s]:  16635.12
	Linear fluid (dielectric constant: 78.4, screening length: 8.12261 Bohr) occupying 0.552483 of unit cell:	Completed after 2 iterations at t[s]:  16642.97
	Linear fluid (dielectric constant: 78.4, screening length: 8.12261 Bohr) occupying 0.552482 of unit cell:	Completed after 0 iterations at t[s]:  16649.14
	FillingsUpdate:  mu: -0.097800000  nElectrons: 161.353010  magneticMoment: [ Abs: 0.00000  Tot: -0.00000 ]
	SubspaceRotationAdjust: set factor to 0.0168
ElecMinimize: Iter:  22  G: -874.031502378844834  |grad|_K:  1.659e-08  alpha:  5.003e-01  linmin: -3.677e-03  t[s]:  16658.73
ElecMinimize: Converged (|Delta G|<1.000000e-07 for 2 iters).
Setting wave functions to eigenvectors of Hamiltonian
Converging empty states (this may take a while): |deigs|: 7.513e-09

Computing DFT-D3 correction:
# coordination-number Pt 8.479 9.189 9.273 6.870 5.352 9.237 9.216 8.501 5.381 6.797
# diagonal-C6 Pt 336.87 336.87 336.87 336.87 336.87 336.87 336.87 336.87 336.87 336.87
EvdW_6 =   -0.074571
EvdW_8 =   -0.127725

# Ionic positions in cartesian coordinates:
ion Pt   3.710016011454695   1.836237373053612  12.564532243814350 1
ion Pt  -0.001745750937601   3.277061909636224   9.135577776202831 1
ion Pt   3.694298359404121   4.983039951230475   5.866099234699194 1
ion Pt  -0.006856484534608   6.492792498371981   2.188541691002670 1
ion Pt  -3.691676003803833   8.338894972376075  15.457603099287024 1
ion Pt   3.704904966696131   6.605604245793743  10.676477743731935 1
ion Pt   3.701435184070378   0.041314591632948   7.391006788673862 1
ion Pt  -0.010102847353413   1.465869412109738   3.961085195733910 1
ion Pt   3.691393016806198   3.240397844015724   1.108364546062098 1
ion Pt   0.006649548197932   5.081337201779482  14.375832680792119 1

# Forces in Cartesian coordinates:
force Pt  -0.000013223153835   0.000025600417362   0.000359404225764 1
force Pt   0.000022517367835  -0.000375378589616   0.000809989250825 1
force Pt  -0.000004393351240  -0.000162979252107   0.000365692734716 1
force Pt   0.000027256251153   0.000005825342332   0.000934755071220 1
force Pt  -0.000019680057191  -0.000232445190073   0.000169657157868 1
force Pt  -0.000005919281114   0.000204764486056   0.000921636264612 1
force Pt  -0.000013527162262   0.000195924422624   0.000669214518521 1
force Pt  -0.000008048346052  -0.000045347440145   0.000891123893302 1
force Pt   0.000015300864147   0.000142287233263   0.000997147094625 1
force Pt  -0.000006258229704   0.000211537098779   0.000191994091054 1

# Energy components:
   A_diel =       -0.5245559349546258
   Eewald =     4061.2002251343860735
       EH =     4895.9279813630801073
     Eloc =   -10000.5533698957824527
      Enl =      -10.4758938470322676
     EvdW =       -0.2022956920623291
      Exc =     -284.7103122883613651
 Exc_core =      163.9138222025692926
       KE =      285.6847593466873150
  MuShift =       -0.0706988605004871
-------------------------------------
     Etot =     -889.8103384719697715
       TS =        0.0014882873299275
-------------------------------------
        F =     -889.8118267592997199
      muN =      -15.7803243804549211
-------------------------------------
        G =     -874.0315023788448343


Dumping 'jdft.fillings' ... done
Dumping 'jdft.wfns' ... done
Dumping 'jdft.fluidState' ... done
Dumping 'jdft.ionpos' ... done
Dumping 'jdft.lattice' ... done
Dumping 'jdft.eigenvals' ... done
Dumping 'jdft.eigStats' ... 
	eMin: -2.044548 at state 101 ( [ -0.444444 +0.428571 +0.000000 ] spin -1 )
	HOMO: -0.097801 at state 91 ( [ +0.444444 +0.000000 +0.000000 ] spin -1 )
	mu  : -0.097800
	LUMO: -0.097691 at state 22 ( [ +0.333333 +0.142857 +0.000000 ] spin 1 )
	eMax: +0.137578 at state 69 ( [ +0.000000 -0.142857 +0.000000 ] spin -1 )
	HOMO-LUMO gap: +0.000110
	Optical gap  : +0.001061 at state 87 ( [ +0.333333 +0.428571 +0.000000 ] spin -1 )
Dumping 'jdft.Ecomponents' ... done
IonicMinimize: Iter:  12  G: -874.031502378844834  |grad|_K:  2.108e-04  alpha:  1.000e+00  linmin:  2.490e-01  t[s]:  16681.36

#--- Lowdin population analysis ---
# oxidation-state Pt -0.074 +0.007 -0.014 -0.249 -0.294 -0.014 +0.006 -0.075 -0.305 -0.241
# magnetic-moments Pt -0.000 -0.000 -0.000 +0.000 +0.000 -0.000 -0.000 +0.000 -0.000 +0.000


Computing DFT-D3 correction:
# coordination-number Pt 8.489 9.199 9.279 6.877 5.353 9.246 9.225 8.508 5.382 6.806
# diagonal-C6 Pt 336.87 336.87 336.87 336.87 336.87 336.87 336.87 336.87 336.87 336.87
EvdW_6 =   -0.074597
EvdW_8 =   -0.127787
Shifting auxilliary hamiltonian by -0.000017 to set nElectrons=161.353010

-------- Electronic minimization -----------
	Linear fluid (dielectric constant: 78.4, screening length: 8.12261 Bohr) occupying 0.552654 of unit cell:	Completed after 19 iterations at t[s]:  16691.30
	FillingsUpdate:  mu: -0.097800000  nElectrons: 161.353010  magneticMoment: [ Abs: 0.00000  Tot: -0.00000 ]
ElecMinimize: Iter:   0  G: -874.031482825057651  |grad|_K:  4.325e-07  alpha:  1.000e+00
	Linear fluid (dielectric constant: 78.4, screening length: 8.12261 Bohr) occupying 0.552558 of unit cell:	Completed after 15 iterations at t[s]:  16710.68
	Linear fluid (dielectric constant: 78.4, screening length: 8.12261 Bohr) occupying 0.552617 of unit cell:	Completed after 14 iterations at t[s]:  16717.78
	FillingsUpdate:  mu: -0.097800000  nElectrons: 161.351109  magneticMoment: [ Abs: 0.00000  Tot: +0.00000 ]
	SubspaceRotationAdjust: set factor to 0.0177
ElecMinimize: Iter:   1  G: -874.031494375651050  |grad|_K:  1.677e-07  alpha:  3.919e-01  linmin:  3.303e-06  t[s]:  16727.41
	Linear fluid (dielectric constant: 78.4, screening length: 8.12261 Bohr) occupying 0.552612 of unit cell:	Completed after 9 iterations at t[s]:  16735.47
	Linear fluid (dielectric constant: 78.4, screening length: 8.12261 Bohr) occupying 0.552611 of unit cell:	Completed after 2 iterations at t[s]:  16741.87
	FillingsUpdate:  mu: -0.097800000  nElectrons: 161.350824  magneticMoment: [ Abs: 0.00000  Tot: -0.00000 ]
	SubspaceRotationAdjust: set factor to 0.0203
ElecMinimize: Iter:   2  G: -874.031496318777272  |grad|_K:  1.006e-07  alpha:  4.388e-01  linmin: -8.713e-04  t[s]:  16751.51
	Linear fluid (dielectric constant: 78.4, screening length: 8.12261 Bohr) occupying 0.552602 of unit cell:	Completed after 7 iterations at t[s]:  16759.61
	Linear fluid (dielectric constant: 78.4, screening length: 8.12261 Bohr) occupying 0.552599 of unit cell:	Completed after 2 iterations at t[s]:  16765.96
	FillingsUpdate:  mu: -0.097800000  nElectrons: 161.350146  magneticMoment: [ Abs: 0.00000  Tot: -0.00000 ]
	SubspaceRotationAdjust: set factor to 0.0251
ElecMinimize: Iter:   3  G: -874.031497245732680  |grad|_K:  7.835e-08  alpha:  5.800e-01  linmin: -3.345e-04  t[s]:  16775.60
	Linear fluid (dielectric constant: 78.4, screening length: 8.12261 Bohr) occupying 0.552596 of unit cell:	Completed after 6 iterations at t[s]:  16783.51
	Linear fluid (dielectric constant: 78.4, screening length: 8.12261 Bohr) occupying 0.552595 of unit cell:	Completed after 3 iterations at t[s]:  16789.94
	FillingsUpdate:  mu: -0.097800000  nElectrons: 161.349754  magneticMoment: [ Abs: 0.00000  Tot: -0.00000 ]
	SubspaceRotationAdjust: set factor to 0.0315
ElecMinimize: Iter:   4  G: -874.031498004077434  |grad|_K:  7.880e-08  alpha:  7.833e-01  linmin:  1.316e-06  t[s]:  16799.63
	Linear fluid (dielectric constant: 78.4, screening length: 8.12261 Bohr) occupying 0.552589 of unit cell:	Completed after 7 iterations at t[s]:  16807.58
	Linear fluid (dielectric constant: 78.4, screening length: 8.12261 Bohr) occupying 0.552588 of unit cell:	Completed after 2 iterations at t[s]:  16813.99
	FillingsUpdate:  mu: -0.097800000  nElectrons: 161.348989  magneticMoment: [ Abs: 0.00000  Tot: -0.00000 ]
	SubspaceRotationAdjust: set factor to 0.0366
ElecMinimize: Iter:   5  G: -874.031498909578659  |grad|_K:  9.870e-08  alpha:  9.260e-01  linmin: -3.861e-05  t[s]:  16823.89
	Linear fluid (dielectric constant: 78.4, screening length: 8.12261 Bohr) occupying 0.552604 of unit cell:	Completed after 12 iterations at t[s]:  16832.07
	Linear fluid (dielectric constant: 78.4, screening length: 8.12261 Bohr) occupying 0.552602 of unit cell:	Completed after 2 iterations at t[s]:  16838.51
	FillingsUpdate:  mu: -0.097800000  nElectrons: 161.349128  magneticMoment: [ Abs: 0.00000  Tot: -0.00000 ]
	SubspaceRotationAdjust: set factor to 0.0369
ElecMinimize: Iter:   6  G: -874.031500178857414  |grad|_K:  1.296e-07  alpha:  8.255e-01  linmin:  2.476e-04  t[s]:  16848.15
	Linear fluid (dielectric constant: 78.4, screening length: 8.12261 Bohr) occupying 0.552553 of unit cell:	Completed after 14 iterations at t[s]:  16856.47
	Linear fluid (dielectric constant: 78.4, screening length: 8.12261 Bohr) occupying 0.552582 of unit cell:	Completed after 13 iterations at t[s]:  16863.45
	FillingsUpdate:  mu: -0.097800000  nElectrons: 161.347605  magneticMoment: [ Abs: 0.00000  Tot: -0.00000 ]
	SubspaceRotationAdjust: set factor to 0.0294
ElecMinimize: Iter:   7  G: -874.031501079690429  |grad|_K:  1.459e-07  alpha:  3.478e-01  linmin:  6.225e-05  t[s]:  16873.24
	Linear fluid (dielectric constant: 78.4, screening length: 8.12261 Bohr) occupying 0.552599 of unit cell:	Completed after 10 iterations at t[s]:  16881.33
	Linear fluid (dielectric constant: 78.4, screening length: 8.12261 Bohr) occupying 0.552607 of unit cell:	Completed after 9 iterations at t[s]:  16888.08
	FillingsUpdate:  mu: -0.097800000  nElectrons: 161.348215  magneticMoment: [ Abs: 0.00000  Tot: -0.00000 ]
	SubspaceRotationAdjust: set factor to 0.026
ElecMinimize: Iter:   8  G: -874.031502769637882  |grad|_K:  1.240e-07  alpha:  5.050e-01  linmin:  9.873e-06  t[s]:  16897.71
	Linear fluid (dielectric constant: 78.4, screening length: 8.12261 Bohr) occupying 0.552608 of unit cell:	Completed after 9 iterations at t[s]:  16905.87
	Linear fluid (dielectric constant: 78.4, screening length: 8.12261 Bohr) occupying 0.552608 of unit cell:	Completed after 2 iterations at t[s]:  16912.28
	FillingsUpdate:  mu: -0.097800000  nElectrons: 161.347705  magneticMoment: [ Abs: 0.00000  Tot: -0.00000 ]
	SubspaceRotationAdjust: set factor to 0.027
ElecMinimize: Iter:   9  G: -874.031504452310969  |grad|_K:  1.096e-07  alpha:  6.940e-01  linmin: -6.248e-05  t[s]:  16921.94
	Linear fluid (dielectric constant: 78.4, screening length: 8.12261 Bohr) occupying 0.552607 of unit cell:	Completed after 8 iterations at t[s]:  16930.00
	Linear fluid (dielectric constant: 78.4, screening length: 8.12261 Bohr) occupying 0.552608 of unit cell:	Completed after 0 iterations at t[s]:  16937.01
	FillingsUpdate:  mu: -0.097800000  nElectrons: 161.347473  magneticMoment: [ Abs: 0.00000  Tot: -0.00000 ]
	SubspaceRotationAdjust: set factor to 0.0282
ElecMinimize: Iter:  10  G: -874.031505702629602  |grad|_K:  9.663e-08  alpha:  6.599e-01  linmin:  5.571e-06  t[s]:  16946.68
	Linear fluid (dielectric constant: 78.4, screening length: 8.12261 Bohr) occupying 0.552617 of unit cell:	Completed after 10 iterations at t[s]:  16954.78
	Linear fluid (dielectric constant: 78.4, screening length: 8.12261 Bohr) occupying 0.552615 of unit cell:	Completed after 2 iterations at t[s]:  16961.16
	FillingsUpdate:  mu: -0.097800000  nElectrons: 161.347847  magneticMoment: [ Abs: 0.00000  Tot: -0.00000 ]
	SubspaceRotationAdjust: set factor to 0.0281
ElecMinimize: Iter:  11  G: -874.031506531238392  |grad|_K:  7.843e-08  alpha:  5.630e-01  linmin:  1.549e-04  t[s]:  16970.68
	Linear fluid (dielectric constant: 78.4, screening length: 8.12261 Bohr) occupying 0.552598 of unit cell:	Completed after 12 iterations at t[s]:  16978.92
	Linear fluid (dielectric constant: 78.4, screening length: 8.12261 Bohr) occupying 0.552603 of unit cell:	Completed after 9 iterations at t[s]:  16985.70
	FillingsUpdate:  mu: -0.097800000  nElectrons: 161.347263  magneticMoment: [ Abs: 0.00000  Tot: -0.00000 ]
	SubspaceRotationAdjust: set factor to 0.0232
ElecMinimize: Iter:  12  G: -874.031506907390053  |grad|_K:  7.331e-08  alpha:  3.928e-01  linmin: -1.456e-04  t[s]:  16995.28
	Linear fluid (dielectric constant: 78.4, screening length: 8.12261 Bohr) occupying 0.552613 of unit cell:	Completed after 9 iterations at t[s]:  17003.35
	Linear fluid (dielectric constant: 78.4, screening length: 8.12261 Bohr) occupying 0.552613 of unit cell:	Completed after 2 iterations at t[s]:  17009.75
	FillingsUpdate:  mu: -0.097800000  nElectrons: 161.347796  magneticMoment: [ Abs: 0.00000  Tot: -0.00000 ]
	SubspaceRotationAdjust: set factor to 0.0205
ElecMinimize: Iter:  13  G: -874.031507212429915  |grad|_K:  4.929e-08  alpha:  3.592e-01  linmin:  4.389e-04  t[s]:  17019.40
	Linear fluid (dielectric constant: 78.4, screening length: 8.12261 Bohr) occupying 0.552612 of unit cell:	Completed after 2 iterations at t[s]:  17027.20
	Linear fluid (dielectric constant: 78.4, screening length: 8.12261 Bohr) occupying 0.552611 of unit cell:	Completed after 2 iterations at t[s]:  17033.61
	FillingsUpdate:  mu: -0.097800000  nElectrons: 161.347800  magneticMoment: [ Abs: 0.00000  Tot: -0.00000 ]
	SubspaceRotationAdjust: set factor to 0.0256
ElecMinimize: Iter:  14  G: -874.031507430850866  |grad|_K:  3.824e-08  alpha:  5.752e-01  linmin: -1.348e-04  t[s]:  17043.33
	Linear fluid (dielectric constant: 78.4, screening length: 8.12261 Bohr) occupying 0.552608 of unit cell:	Completed after 8 iterations at t[s]:  17051.31
	Linear fluid (dielectric constant: 78.4, screening length: 8.12261 Bohr) occupying 0.552607 of unit cell:	Completed after 0 iterations at t[s]:  17057.53
	FillingsUpdate:  mu: -0.097800000  nElectrons: 161.347705  magneticMoment: [ Abs: 0.00000  Tot: -0.00000 ]
	SubspaceRotationAdjust: set factor to 0.0285
ElecMinimize: Iter:  15  G: -874.031507568944448  |grad|_K:  3.586e-08  alpha:  5.974e-01  linmin: -1.035e-03  t[s]:  17067.19
	Linear fluid (dielectric constant: 78.4, screening length: 8.12261 Bohr) occupying 0.552615 of unit cell:	Completed after 9 iterations at t[s]:  17075.20
	Linear fluid (dielectric constant: 78.4, screening length: 8.12261 Bohr) occupying 0.552613 of unit cell:	Completed after 2 iterations at t[s]:  17081.60
	FillingsUpdate:  mu: -0.097800000  nElectrons: 161.348078  magneticMoment: [ Abs: 0.00000  Tot: -0.00000 ]
	SubspaceRotationAdjust: set factor to 0.0263
ElecMinimize: Iter:  16  G: -874.031507666451262  |grad|_K:  3.943e-08  alpha:  4.686e-01  linmin:  1.828e-03  t[s]:  17091.13
	Linear fluid (dielectric constant: 78.4, screening length: 8.12261 Bohr) occupying 0.552607 of unit cell:	Completed after 9 iterations at t[s]:  17099.20
	Linear fluid (dielectric constant: 78.4, screening length: 8.12261 Bohr) occupying 0.552608 of unit cell:	Completed after 2 iterations at t[s]:  17105.63
	FillingsUpdate:  mu: -0.097800000  nElectrons: 161.347910  magneticMoment: [ Abs: 0.00000  Tot: -0.00000 ]
	SubspaceRotationAdjust: set factor to 0.0249
ElecMinimize: Iter:  17  G: -874.031507752069274  |grad|_K:  3.061e-08  alpha:  3.672e-01  linmin: -8.174e-05  t[s]:  17115.36
ElecMinimize: Converged (|Delta G|<1.000000e-07 for 2 iters).
Setting wave functions to eigenvectors of Hamiltonian
Converging empty states (this may take a while): |deigs|: 2.027e-08

Computing DFT-D3 correction:
# coordination-number Pt 8.489 9.199 9.279 6.877 5.353 9.246 9.225 8.508 5.382 6.806
# diagonal-C6 Pt 336.87 336.87 336.87 336.87 336.87 336.87 336.87 336.87 336.87 336.87
EvdW_6 =   -0.074597
EvdW_8 =   -0.127787

# Ionic positions in cartesian coordinates:
ion Pt   3.709475818433237   1.831575070731253  12.561457193801852 1
ion Pt  -0.001699282186772   3.273557436128460   9.136300641076293 1
ion Pt   3.694501649212943   4.985333488561325   5.867003154442490 1
ion Pt  -0.006028711103150   6.500064926421379   2.193095897866259 1
ion Pt  -3.692391138905961   8.330353283365712  15.454080389935010 1
ion Pt   3.704686904344382   6.603345007961035  10.675451902741930 1
ion Pt   3.701445585950224   0.043499561186095   7.391879429038111 1
ion Pt  -0.009676604755460   1.470704392139914   3.963756279166534 1
ion Pt   3.692032964658657   3.248442759055422   1.111600617882352 1
ion Pt   0.005968814351899   5.075674074449407  14.370495494049162 1

# Forces in Cartesian coordinates:
force Pt  -0.000013395112372   0.000038393270463   0.000766965407052 1
force Pt  -0.000001261226262   0.000026860681151   0.000698592755846 1
force Pt  -0.000001418848908  -0.000061845695019   0.000375593700887 1
force Pt   0.000010316026104  -0.000088636840868   0.000542231489622 1
force Pt  -0.000001093674164  -0.000043645535084   0.000548857822189 1
force Pt  -0.000004090349949   0.000001210212386   0.000923375889415 1
force Pt   0.000003564997688  -0.000085092713743   0.000529250058185 1
force Pt   0.000006678177386  -0.000012298647889   0.000637695311228 1
force Pt   0.000010722303830   0.000123278215281   0.000774620088336 1
force Pt  -0.000011406190837   0.000090807902591   0.000592253883014 1

# Energy components:
   A_diel =       -0.5221951674548884
   Eewald =     4063.9916510815924084
       EH =     4898.6569681363471318
     Eloc =   -10006.0791836135867925
      Enl =      -10.4756598340472031
     EvdW =       -0.2023841906715869
      Exc =     -284.7112782184402135
 Exc_core =      163.9138222233143836
       KE =      285.6888381346745973
  MuShift =       -0.0704323516052370
-------------------------------------
     Etot =     -889.8098537998779420
       TS =        0.0014795180374555
-------------------------------------
        F =     -889.8113333179153415
      muN =      -15.7798255658460285
-------------------------------------
        G =     -874.0315077520692739


Dumping 'jdft.fillings' ... done
Dumping 'jdft.wfns' ... done
Dumping 'jdft.fluidState' ... done
Dumping 'jdft.ionpos' ... done
Dumping 'jdft.lattice' ... done
Dumping 'jdft.eigenvals' ... done
Dumping 'jdft.eigStats' ... 
	eMin: -2.044771 at state 102 ( [ -0.444444 -0.428571 +0.000000 ] spin -1 )
	HOMO: -0.097891 at state 35 ( [ -0.444444 +0.000000 +0.000000 ] spin 1 )
	mu  : -0.097800
	LUMO: -0.097785 at state 48 ( [ -0.333333 -0.142857 +0.000000 ] spin 1 )
	eMax: +0.137378 at state 64 ( [ +0.000000 +0.142857 +0.000000 ] spin -1 )
	HOMO-LUMO gap: +0.000105
	Optical gap  : +0.001094 at state 87 ( [ +0.333333 +0.428571 +0.000000 ] spin -1 )
Dumping 'jdft.Ecomponents' ... done
IonicMinimize: Iter:  13  G: -874.031507752069274  |grad|_K:  9.443e-05  alpha:  1.000e+00  linmin:  2.033e-02  t[s]:  17138.46
IonicMinimize: Converged (|grad|_K<1.000000e-04).

#--- Lowdin population analysis ---
# oxidation-state Pt -0.073 +0.007 -0.015 -0.249 -0.292 -0.015 +0.006 -0.074 -0.304 -0.240
# magnetic-moments Pt +0.000 -0.000 +0.000 +0.000 +0.000 +0.000 +0.000 -0.000 +0.000 +0.000


Dumping 'jdft.n_up' ... done
Dumping 'jdft.n_dn' ... done
Dumping 'jdft.tau_up' ... done
Dumping 'jdft.tau_dn' ... done
Dumping 'jdft.eigenvals' ... done
Dumping 'jdft.eigStats' ... 
	eMin: -2.044771 at state 102 ( [ -0.444444 -0.428571 +0.000000 ] spin -1 )
	HOMO: -0.097891 at state 35 ( [ -0.444444 +0.000000 +0.000000 ] spin 1 )
	mu  : -0.097800
	LUMO: -0.097785 at state 48 ( [ -0.333333 -0.142857 +0.000000 ] spin 1 )
	eMax: +0.137378 at state 64 ( [ +0.000000 +0.142857 +0.000000 ] spin -1 )
	HOMO-LUMO gap: +0.000105
	Optical gap  : +0.001094 at state 87 ( [ +0.333333 +0.428571 +0.000000 ] spin -1 )
Dumping 'jdft.kPts' ... done
Dumping 'jdft.dosUp' ... done.
Dumping 'jdft.dosDn' ... done.
End date and time: Mon Dec  6 21:30:43 2021  (Duration: 0-4:45:55.36)
Done!
