
*************** JDFTx 1.6.0  ***************

Start date and time: Mon Dec  6 17:19:56 2021
Executable /projects/musgravc/apps/jdftx-1.6.1/build/jdftx with command-line: -i in
Running on hosts (process indices):  shas0814.rc.int.colorado.edu (0-23)
Divided in process groups (process indices):  0 (0)  1 (1)  2 (2)  3 (3)  4 (4)  5 (5)  6 (6)  7 (7)  8 (8)  9 (9)  10 (10)  11 (11)  12 (12)  13 (13)  14 (14)  15 (15)  16 (16)  17 (17)  18 (18)  19 (19)  20 (20)  21 (21)  22 (22)  23 (23)
Resource initialization completed at t[s]:      0.00
Run totals: 24 processes, 24 threads, 0 GPUs


Input parsed successfully to the following command list (including defaults):

basis kpoint-dependent
converge-empty-states yes
coords-type Cartesian
core-overlap-check none
coulomb-interaction Periodic
davidson-band-ratio 1.1
density-of-states Etol 1.000000e-06 Esigma 1.000000e-03 \
		Complete \
	Total \
	OrthoOrbital Ag 1   s \
	OrthoOrbital Ag 1   p \
	OrthoOrbital Ag 1   px \
	OrthoOrbital Ag 1   py \
	OrthoOrbital Ag 1   pz \
	OrthoOrbital Ag 1   d \
	OrthoOrbital Ag 1   dxy \
	OrthoOrbital Ag 1   dyz \
	OrthoOrbital Ag 1   dz2 \
	OrthoOrbital Ag 1   dxz \
	OrthoOrbital Ag 1   dx2-y2 \
	OrthoOrbital Ag 2   s \
	OrthoOrbital Ag 2   p \
	OrthoOrbital Ag 2   px \
	OrthoOrbital Ag 2   py \
	OrthoOrbital Ag 2   pz \
	OrthoOrbital Ag 2   d \
	OrthoOrbital Ag 2   dxy \
	OrthoOrbital Ag 2   dyz \
	OrthoOrbital Ag 2   dz2 \
	OrthoOrbital Ag 2   dxz \
	OrthoOrbital Ag 2   dx2-y2 \
	OrthoOrbital Ag 3   s \
	OrthoOrbital Ag 3   p \
	OrthoOrbital Ag 3   px \
	OrthoOrbital Ag 3   py \
	OrthoOrbital Ag 3   pz \
	OrthoOrbital Ag 3   d \
	OrthoOrbital Ag 3   dxy \
	OrthoOrbital Ag 3   dyz \
	OrthoOrbital Ag 3   dz2 \
	OrthoOrbital Ag 3   dxz \
	OrthoOrbital Ag 3   dx2-y2 \
	OrthoOrbital Ag 4   s \
	OrthoOrbital Ag 4   p \
	OrthoOrbital Ag 4   px \
	OrthoOrbital Ag 4   py \
	OrthoOrbital Ag 4   pz \
	OrthoOrbital Ag 4   d \
	OrthoOrbital Ag 4   dxy \
	OrthoOrbital Ag 4   dyz \
	OrthoOrbital Ag 4   dz2 \
	OrthoOrbital Ag 4   dxz \
	OrthoOrbital Ag 4   dx2-y2 \
	OrthoOrbital Ag 5   s \
	OrthoOrbital Ag 5   p \
	OrthoOrbital Ag 5   px \
	OrthoOrbital Ag 5   py \
	OrthoOrbital Ag 5   pz \
	OrthoOrbital Ag 5   d \
	OrthoOrbital Ag 5   dxy \
	OrthoOrbital Ag 5   dyz \
	OrthoOrbital Ag 5   dz2 \
	OrthoOrbital Ag 5   dxz \
	OrthoOrbital Ag 5   dx2-y2 \
	OrthoOrbital Ag 6   s \
	OrthoOrbital Ag 6   p \
	OrthoOrbital Ag 6   px \
	OrthoOrbital Ag 6   py \
	OrthoOrbital Ag 6   pz \
	OrthoOrbital Ag 6   d \
	OrthoOrbital Ag 6   dxy \
	OrthoOrbital Ag 6   dyz \
	OrthoOrbital Ag 6   dz2 \
	OrthoOrbital Ag 6   dxz \
	OrthoOrbital Ag 6   dx2-y2 \
	OrthoOrbital Ag 7   s \
	OrthoOrbital Ag 7   p \
	OrthoOrbital Ag 7   px \
	OrthoOrbital Ag 7   py \
	OrthoOrbital Ag 7   pz \
	OrthoOrbital Ag 7   d \
	OrthoOrbital Ag 7   dxy \
	OrthoOrbital Ag 7   dyz \
	OrthoOrbital Ag 7   dz2 \
	OrthoOrbital Ag 7   dxz \
	OrthoOrbital Ag 7   dx2-y2 \
	OrthoOrbital Ag 8   s \
	OrthoOrbital Ag 8   p \
	OrthoOrbital Ag 8   px \
	OrthoOrbital Ag 8   py \
	OrthoOrbital Ag 8   pz \
	OrthoOrbital Ag 8   d \
	OrthoOrbital Ag 8   dxy \
	OrthoOrbital Ag 8   dyz \
	OrthoOrbital Ag 8   dz2 \
	OrthoOrbital Ag 8   dxz \
	OrthoOrbital Ag 8   dx2-y2 \
	OrthoOrbital Ag 9   s \
	OrthoOrbital Ag 9   p \
	OrthoOrbital Ag 9   px \
	OrthoOrbital Ag 9   py \
	OrthoOrbital Ag 9   pz \
	OrthoOrbital Ag 9   d \
	OrthoOrbital Ag 9   dxy \
	OrthoOrbital Ag 9   dyz \
	OrthoOrbital Ag 9   dz2 \
	OrthoOrbital Ag 9   dxz \
	OrthoOrbital Ag 9   dx2-y2 \
	OrthoOrbital Ag 10   s \
	OrthoOrbital Ag 10   p \
	OrthoOrbital Ag 10   px \
	OrthoOrbital Ag 10   py \
	OrthoOrbital Ag 10   pz \
	OrthoOrbital Ag 10   d \
	OrthoOrbital Ag 10   dxy \
	OrthoOrbital Ag 10   dyz \
	OrthoOrbital Ag 10   dz2 \
	OrthoOrbital Ag 10   dxz \
	OrthoOrbital Ag 10   dx2-y2 \
	OrthoOrbital Ag 11   s \
	OrthoOrbital Ag 11   p \
	OrthoOrbital Ag 11   px \
	OrthoOrbital Ag 11   py \
	OrthoOrbital Ag 11   pz \
	OrthoOrbital Ag 11   d \
	OrthoOrbital Ag 11   dxy \
	OrthoOrbital Ag 11   dyz \
	OrthoOrbital Ag 11   dz2 \
	OrthoOrbital Ag 11   dxz \
	OrthoOrbital Ag 11   dx2-y2 \
	OrthoOrbital Ag 12   s \
	OrthoOrbital Ag 12   p \
	OrthoOrbital Ag 12   px \
	OrthoOrbital Ag 12   py \
	OrthoOrbital Ag 12   pz \
	OrthoOrbital Ag 12   d \
	OrthoOrbital Ag 12   dxy \
	OrthoOrbital Ag 12   dyz \
	OrthoOrbital Ag 12   dz2 \
	OrthoOrbital Ag 12   dxz \
	OrthoOrbital Ag 12   dx2-y2 \
	OrthoOrbital Ag 13   s \
	OrthoOrbital Ag 13   p \
	OrthoOrbital Ag 13   px \
	OrthoOrbital Ag 13   py \
	OrthoOrbital Ag 13   pz \
	OrthoOrbital Ag 13   d \
	OrthoOrbital Ag 13   dxy \
	OrthoOrbital Ag 13   dyz \
	OrthoOrbital Ag 13   dz2 \
	OrthoOrbital Ag 13   dxz \
	OrthoOrbital Ag 13   dx2-y2 \
	OrthoOrbital Ag 14   s \
	OrthoOrbital Ag 14   p \
	OrthoOrbital Ag 14   px \
	OrthoOrbital Ag 14   py \
	OrthoOrbital Ag 14   pz \
	OrthoOrbital Ag 14   d \
	OrthoOrbital Ag 14   dxy \
	OrthoOrbital Ag 14   dyz \
	OrthoOrbital Ag 14   dz2 \
	OrthoOrbital Ag 14   dxz \
	OrthoOrbital Ag 14   dx2-y2 \
	OrthoOrbital Ag 15   s \
	OrthoOrbital Ag 15   p \
	OrthoOrbital Ag 15   px \
	OrthoOrbital Ag 15   py \
	OrthoOrbital Ag 15   pz \
	OrthoOrbital Ag 15   d \
	OrthoOrbital Ag 15   dxy \
	OrthoOrbital Ag 15   dyz \
	OrthoOrbital Ag 15   dz2 \
	OrthoOrbital Ag 15   dxz \
	OrthoOrbital Ag 15   dx2-y2 \
	OrthoOrbital Ag 16   s \
	OrthoOrbital Ag 16   p \
	OrthoOrbital Ag 16   px \
	OrthoOrbital Ag 16   py \
	OrthoOrbital Ag 16   pz \
	OrthoOrbital Ag 16   d \
	OrthoOrbital Ag 16   dxy \
	OrthoOrbital Ag 16   dyz \
	OrthoOrbital Ag 16   dz2 \
	OrthoOrbital Ag 16   dxz \
	OrthoOrbital Ag 16   dx2-y2 \
	OrthoOrbital Ag 17   s \
	OrthoOrbital Ag 17   p \
	OrthoOrbital Ag 17   px \
	OrthoOrbital Ag 17   py \
	OrthoOrbital Ag 17   pz \
	OrthoOrbital Ag 17   d \
	OrthoOrbital Ag 17   dxy \
	OrthoOrbital Ag 17   dyz \
	OrthoOrbital Ag 17   dz2 \
	OrthoOrbital Ag 17   dxz \
	OrthoOrbital Ag 17   dx2-y2 \
	OrthoOrbital Ag 18   s \
	OrthoOrbital Ag 18   p \
	OrthoOrbital Ag 18   px \
	OrthoOrbital Ag 18   py \
	OrthoOrbital Ag 18   pz \
	OrthoOrbital Ag 18   d \
	OrthoOrbital Ag 18   dxy \
	OrthoOrbital Ag 18   dyz \
	OrthoOrbital Ag 18   dz2 \
	OrthoOrbital Ag 18   dxz \
	OrthoOrbital Ag 18   dx2-y2 \
	OrthoOrbital Ag 19   s \
	OrthoOrbital Ag 19   p \
	OrthoOrbital Ag 19   px \
	OrthoOrbital Ag 19   py \
	OrthoOrbital Ag 19   pz \
	OrthoOrbital Ag 19   d \
	OrthoOrbital Ag 19   dxy \
	OrthoOrbital Ag 19   dyz \
	OrthoOrbital Ag 19   dz2 \
	OrthoOrbital Ag 19   dxz \
	OrthoOrbital Ag 19   dx2-y2 \
	OrthoOrbital Ag 20   s \
	OrthoOrbital Ag 20   p \
	OrthoOrbital Ag 20   px \
	OrthoOrbital Ag 20   py \
	OrthoOrbital Ag 20   pz \
	OrthoOrbital Ag 20   d \
	OrthoOrbital Ag 20   dxy \
	OrthoOrbital Ag 20   dyz \
	OrthoOrbital Ag 20   dz2 \
	OrthoOrbital Ag 20   dxz \
	OrthoOrbital Ag 20   dx2-y2 \
	OrthoOrbital Ag 21   s \
	OrthoOrbital Ag 21   p \
	OrthoOrbital Ag 21   px \
	OrthoOrbital Ag 21   py \
	OrthoOrbital Ag 21   pz \
	OrthoOrbital Ag 21   d \
	OrthoOrbital Ag 21   dxy \
	OrthoOrbital Ag 21   dyz \
	OrthoOrbital Ag 21   dz2 \
	OrthoOrbital Ag 21   dxz \
	OrthoOrbital Ag 21   dx2-y2 \
	OrthoOrbital Ag 22   s \
	OrthoOrbital Ag 22   p \
	OrthoOrbital Ag 22   px \
	OrthoOrbital Ag 22   py \
	OrthoOrbital Ag 22   pz \
	OrthoOrbital Ag 22   d \
	OrthoOrbital Ag 22   dxy \
	OrthoOrbital Ag 22   dyz \
	OrthoOrbital Ag 22   dz2 \
	OrthoOrbital Ag 22   dxz \
	OrthoOrbital Ag 22   dx2-y2 \
	OrthoOrbital Ag 23   s \
	OrthoOrbital Ag 23   p \
	OrthoOrbital Ag 23   px \
	OrthoOrbital Ag 23   py \
	OrthoOrbital Ag 23   pz \
	OrthoOrbital Ag 23   d \
	OrthoOrbital Ag 23   dxy \
	OrthoOrbital Ag 23   dyz \
	OrthoOrbital Ag 23   dz2 \
	OrthoOrbital Ag 23   dxz \
	OrthoOrbital Ag 23   dx2-y2 \
	OrthoOrbital Ag 24   s \
	OrthoOrbital Ag 24   p \
	OrthoOrbital Ag 24   px \
	OrthoOrbital Ag 24   py \
	OrthoOrbital Ag 24   pz \
	OrthoOrbital Ag 24   d \
	OrthoOrbital Ag 24   dxy \
	OrthoOrbital Ag 24   dyz \
	OrthoOrbital Ag 24   dz2 \
	OrthoOrbital Ag 24   dxz \
	OrthoOrbital Ag 24   dx2-y2 \
	OrthoOrbital Ag 25   s \
	OrthoOrbital Ag 25   p \
	OrthoOrbital Ag 25   px \
	OrthoOrbital Ag 25   py \
	OrthoOrbital Ag 25   pz \
	OrthoOrbital Ag 25   d \
	OrthoOrbital Ag 25   dxy \
	OrthoOrbital Ag 25   dyz \
	OrthoOrbital Ag 25   dz2 \
	OrthoOrbital Ag 25   dxz \
	OrthoOrbital Ag 25   dx2-y2 \
	OrthoOrbital Ag 26   s \
	OrthoOrbital Ag 26   p \
	OrthoOrbital Ag 26   px \
	OrthoOrbital Ag 26   py \
	OrthoOrbital Ag 26   pz \
	OrthoOrbital Ag 26   d \
	OrthoOrbital Ag 26   dxy \
	OrthoOrbital Ag 26   dyz \
	OrthoOrbital Ag 26   dz2 \
	OrthoOrbital Ag 26   dxz \
	OrthoOrbital Ag 26   dx2-y2 \
	OrthoOrbital Ag 27   s \
	OrthoOrbital Ag 27   p \
	OrthoOrbital Ag 27   px \
	OrthoOrbital Ag 27   py \
	OrthoOrbital Ag 27   pz \
	OrthoOrbital Ag 27   d \
	OrthoOrbital Ag 27   dxy \
	OrthoOrbital Ag 27   dyz \
	OrthoOrbital Ag 27   dz2 \
	OrthoOrbital Ag 27   dxz \
	OrthoOrbital Ag 27   dx2-y2 \
	OrthoOrbital Ag 28   s \
	OrthoOrbital Ag 28   p \
	OrthoOrbital Ag 28   px \
	OrthoOrbital Ag 28   py \
	OrthoOrbital Ag 28   pz \
	OrthoOrbital Ag 28   d \
	OrthoOrbital Ag 28   dxy \
	OrthoOrbital Ag 28   dyz \
	OrthoOrbital Ag 28   dz2 \
	OrthoOrbital Ag 28   dxz \
	OrthoOrbital Ag 28   dx2-y2 \
	OrthoOrbital Ag 29   s \
	OrthoOrbital Ag 29   p \
	OrthoOrbital Ag 29   px \
	OrthoOrbital Ag 29   py \
	OrthoOrbital Ag 29   pz \
	OrthoOrbital Ag 29   d \
	OrthoOrbital Ag 29   dxy \
	OrthoOrbital Ag 29   dyz \
	OrthoOrbital Ag 29   dz2 \
	OrthoOrbital Ag 29   dxz \
	OrthoOrbital Ag 29   dx2-y2 \
	OrthoOrbital Ag 30   s \
	OrthoOrbital Ag 30   p \
	OrthoOrbital Ag 30   px \
	OrthoOrbital Ag 30   py \
	OrthoOrbital Ag 30   pz \
	OrthoOrbital Ag 30   d \
	OrthoOrbital Ag 30   dxy \
	OrthoOrbital Ag 30   dyz \
	OrthoOrbital Ag 30   dz2 \
	OrthoOrbital Ag 30   dxz \
	OrthoOrbital Ag 30   dx2-y2 \
	OrthoOrbital Ag 31   s \
	OrthoOrbital Ag 31   p \
	OrthoOrbital Ag 31   px \
	OrthoOrbital Ag 31   py \
	OrthoOrbital Ag 31   pz \
	OrthoOrbital Ag 31   d \
	OrthoOrbital Ag 31   dxy \
	OrthoOrbital Ag 31   dyz \
	OrthoOrbital Ag 31   dz2 \
	OrthoOrbital Ag 31   dxz \
	OrthoOrbital Ag 31   dx2-y2 \
	OrthoOrbital Ag 32   s \
	OrthoOrbital Ag 32   p \
	OrthoOrbital Ag 32   px \
	OrthoOrbital Ag 32   py \
	OrthoOrbital Ag 32   pz \
	OrthoOrbital Ag 32   d \
	OrthoOrbital Ag 32   dxy \
	OrthoOrbital Ag 32   dyz \
	OrthoOrbital Ag 32   dz2 \
	OrthoOrbital Ag 32   dxz \
	OrthoOrbital Ag 32   dx2-y2 \
	OrthoOrbital Ag 33   s \
	OrthoOrbital Ag 33   p \
	OrthoOrbital Ag 33   px \
	OrthoOrbital Ag 33   py \
	OrthoOrbital Ag 33   pz \
	OrthoOrbital Ag 33   d \
	OrthoOrbital Ag 33   dxy \
	OrthoOrbital Ag 33   dyz \
	OrthoOrbital Ag 33   dz2 \
	OrthoOrbital Ag 33   dxz \
	OrthoOrbital Ag 33   dx2-y2 \
	OrthoOrbital Ag 34   s \
	OrthoOrbital Ag 34   p \
	OrthoOrbital Ag 34   px \
	OrthoOrbital Ag 34   py \
	OrthoOrbital Ag 34   pz \
	OrthoOrbital Ag 34   d \
	OrthoOrbital Ag 34   dxy \
	OrthoOrbital Ag 34   dyz \
	OrthoOrbital Ag 34   dz2 \
	OrthoOrbital Ag 34   dxz \
	OrthoOrbital Ag 34   dx2-y2
dump End ElecDensity KEdensity BandEigs EigStats RhoAtom DOS Kpoints
dump Ionic State IonicPositions Lattice EigStats Ecomponents
dump 
dump 
dump 
dump 
dump 
dump 
dump 
dump 
dump-name jdft.$VAR
elec-cutoff 20
elec-eigen-algo Davidson
elec-ex-corr gga-PBE
elec-initial-magnetization 0.000000 no
elec-n-bands 388
elec-smearing Fermi 0.001
electronic-minimize  \
	dirUpdateScheme      FletcherReeves \
	linminMethod         DirUpdateRecommended \
	nIterations          100 \
	history              15 \
	knormThreshold       0 \
	energyDiffThreshold  1e-07 \
	nEnergyDiff          2 \
	alphaTstart          1 \
	alphaTmin            1e-10 \
	updateTestStepSize   yes \
	alphaTreduceFactor   0.1 \
	alphaTincreaseFactor 3 \
	nAlphaAdjustMax      3 \
	wolfeEnergy          0.0001 \
	wolfeGradient        0.9 \
	fdTest               no
exchange-regularization WignerSeitzTruncated
fluid LinearPCM 298.000000 1.013250
fluid-anion F- 0.5 MeanFieldLJ \
	epsBulk 1 \
	pMol 0 \
	epsInf 1 \
	Pvap 0 \
	sigmaBulk 0 \
	Rvdw 2.24877 \
	Res 0 \
	tauNuc 343133
fluid-cation Na+ 0.5 MeanFieldLJ \
	epsBulk 1 \
	pMol 0 \
	epsInf 1 \
	Pvap 0 \
	sigmaBulk 0 \
	Rvdw 2.19208 \
	Res 0 \
	tauNuc 343133
fluid-ex-corr lda-TF lda-PZ
fluid-gummel-loop 10 1.000000e-05
fluid-minimize  \
	dirUpdateScheme      PolakRibiere \
	linminMethod         DirUpdateRecommended \
	nIterations          400 \
	history              15 \
	knormThreshold       1e-11 \
	energyDiffThreshold  0 \
	nEnergyDiff          2 \
	alphaTstart          1 \
	alphaTmin            1e-10 \
	updateTestStepSize   yes \
	alphaTreduceFactor   0.1 \
	alphaTincreaseFactor 3 \
	nAlphaAdjustMax      6 \
	wolfeEnergy          0.0001 \
	wolfeGradient        0.9 \
	fdTest               no
fluid-solvent H2O 55.338 ScalarEOS \
	epsBulk 78.4 \
	pMol 0.92466 \
	epsInf 1.77 \
	Pvap 1.06736e-10 \
	sigmaBulk 4.62e-05 \
	Rvdw 2.61727 \
	Res 1.42 \
	tauNuc 343133 \
	poleEl 15 7 1
forces-output-coords Positions
ion Ag   0.000000000000000  13.146506000000000   1.394409000000000 1
ion Ag   0.000000000000000  17.090468999999999   5.112771000000000 1
ion Ag   0.000000000000000   0.000000000000000  31.141556999999999 1
ion Ag   0.000000000000000   3.943963000000000   3.253622000000000 1
ion Ag   0.000000000000000   7.887903000000000   6.971984000000000 1
ion Ag   0.000000000000000  11.831866000000002  10.690409000000001 1
ion Ag   0.000000000000000  19.719770000000000  18.127196000000001 1
ion Ag   0.000000000000000  21.034409000000000   8.831196000000000 1
ion Ag   0.000000000000000   2.629301000000000  12.549557999999999 1
ion Ag   0.000000000000000   6.573264000000000  16.267983000000001 1
ion Ag   0.000000000000000  10.517205000000001  19.986345000000000 1
ion Ag   0.000000000000000  14.461167000000001  23.704770000000000 1
ion Ag   0.000000000000000  15.775807000000000  14.408771000000000 1
ion Ag   0.000000000000000   1.314662000000000  21.845558000000000 1
ion Ag   0.000000000000000   5.258602000000000  25.563983000000000 1
ion Ag   0.000000000000000   9.202565000000000  29.282343999999998 1
ion Ag   0.000000000000000  18.405107999999998  27.423194999999996 1
ion Ag   2.710223000000000  12.489197000000003   6.042378000000000 1
ion Ag   2.710223000000000  16.433138000000000   9.760802999999999 1
ion Ag   2.710223000000000  21.691739999999999   4.183165000000000 1
ion Ag   2.710223000000000   3.286632000000000   7.901590000000000 1
ion Ag   2.710223000000000   7.230573000000001  11.620015000000000 1
ion Ag   2.710223000000000  11.174535000000001  15.338376999999999 1
ion Ag   2.710223000000000  19.062439000000001  22.775163999999997 1
ion Ag   2.710223000000000  20.377101000000000  13.479164000000001 1
ion Ag   2.710223000000000   1.971970000000000  17.197589000000001 1
ion Ag   2.710223000000000   5.915933000000001  20.915951000000000 1
ion Ag   2.710223000000000   9.859874000000000  24.634376000000000 1
ion Ag   2.710223000000000  13.803837000000000  28.352737999999995 1
ion Ag   2.710223000000000  15.118498000000002  19.056802000000001 1
ion Ag   2.710223000000000   0.657331000000000  26.493589000000000 1
ion Ag   2.710223000000000   4.601271000000000  30.211950999999999 1
ion Ag   2.710223000000000   8.545234000000001   2.324016000000000 1
ion Ag   2.710223000000000  17.747799000000001   0.464803000000000 1
ion-species /projects/musgravc/apps/jdftx-1.6.0/build/pseudopotentials/GBRV_v1.5/$ID_pbe_v1.uspp
ion-species /projects/musgravc/apps/jdftx-1.6.0/build/pseudopotentials/GBRV_v1.5/$ID_pbe_v1.2.uspp
ion-species /projects/musgravc/apps/jdftx-1.6.0/build/pseudopotentials/GBRV_v1.5/$ID_pbe_v1.4.uspp
ion-species /projects/musgravc/apps/jdftx-1.6.0/build/pseudopotentials/GBRV_v1.5/$ID_pbe_v1.5.uspp
ion-width Ecut
ionic-minimize  \
	dirUpdateScheme      L-BFGS \
	linminMethod         DirUpdateRecommended \
	nIterations          100 \
	history              15 \
	knormThreshold       0.0001 \
	energyDiffThreshold  1e-06 \
	nEnergyDiff          2 \
	alphaTstart          1 \
	alphaTmin            1e-10 \
	updateTestStepSize   yes \
	alphaTreduceFactor   0.1 \
	alphaTincreaseFactor 3 \
	nAlphaAdjustMax      3 \
	wolfeEnergy          0.0001 \
	wolfeGradient        0.9 \
	fdTest               no
kpoint   0.000000000000   0.000000000000   0.000000000000  1.00000000000000
kpoint-folding 11 2 1 
latt-move-scale 0 0 0
latt-scale 1 1 1 
lattice  \
	   5.420447000000000   -0.000000000000000    0.000000000000000  \
	   0.000000000000000   22.349070999999999    0.000000000000000  \
	   0.000000000000000    0.000000000000000   63.212719999999997 
lattice-minimize  \
	dirUpdateScheme      L-BFGS \
	linminMethod         DirUpdateRecommended \
	nIterations          0 \
	history              15 \
	knormThreshold       0 \
	energyDiffThreshold  1e-06 \
	nEnergyDiff          2 \
	alphaTstart          1 \
	alphaTmin            1e-10 \
	updateTestStepSize   yes \
	alphaTreduceFactor   0.1 \
	alphaTincreaseFactor 3 \
	nAlphaAdjustMax      3 \
	wolfeEnergy          0.0001 \
	wolfeGradient        0.9 \
	fdTest               no
lcao-params 30 1e-06 0.001
pcm-variant CANDLE
spintype z-spin
subspace-rotation-factor 1 yes
symmetries none
symmetry-threshold 0.0001
target-mu -0.1713 no

van-der-waals D3


Applied RMS atom displacement 0 bohrs to make symmetries exact.

---------- Initializing the Grid ----------
R = 
[      5.42045            0            0  ]
[            0      22.3491            0  ]
[            0            0      63.2127  ]
unit cell volume = 7657.71
G =
[    1.15916          0         -0  ]
[          0   0.281139          0  ]
[          0         -0  0.0993975  ]
Minimum fftbox size, Smin = [  24  92  256  ]
Chosen fftbox size, S = [  24  96  256  ]

---------- Exchange Correlation functional ----------
Initalized PBE GGA exchange.
Initalized PBE GGA correlation.

---------- Setting up pseudopotentials ----------
Width of ionic core gaussian charges (only for fluid interactions / plotting) set to 0.397384

Reading pseudopotential file '/projects/musgravc/apps/jdftx-1.6.0/build/pseudopotentials/GBRV_v1.5/ag_pbe_v1.4.uspp':
  Title: Ag.  Created by USPP 7.3.6 on 1-4-15
  Reference state energy: -147.606242.  19 valence electrons in orbitals:
    |400>  occupation: 2  eigenvalue: -3.637437
    |410>  occupation: 6  eigenvalue: -2.297267
    |420>  occupation: 10  eigenvalue: -0.417763
    |500>  occupation: 0.5  eigenvalue: -0.283525
    |510>  occupation: 0  eigenvalue: -0.122889
  lMax: 2  lLocal: 0  QijEcut: 5.5
  6 projectors sampled on a log grid with 717 points:
    l: 0  eig: -0.283528  rCut: 1.5
    l: 0  eig: -3.637440  rCut: 1.5
    l: 1  eig: -0.122892  rCut: 1.5
    l: 1  eig: -2.297267  rCut: 1.5
    l: 2  eig: -0.417762  rCut: 1.7
    l: 2  eig: -1.000000  rCut: 1.7
  Partial core density with radius 1.2
  Transforming core density to a uniform radial grid of dG=0.02 with 1165 points.
  Transforming local potential to a uniform radial grid of dG=0.02 with 1165 points.
  Transforming nonlocal projectors to a uniform radial grid of dG=0.02 with 432 points.
  Transforming density augmentations to a uniform radial grid of dG=0.02 with 1165 points.
  Transforming atomic orbitals to a uniform radial grid of dG=0.02 with 432 points.
  Core radius for overlap checks: 1.70 bohrs.

Initialized 1 species with 34 total atoms.

Folded 1 k-points by 11x2x1 to 22 k-points.

---------- Setting up k-points, bands, fillings ----------
No reducable k-points. 
Computing the number of bands and number of electrons
Calculating initial fillings.
nElectrons: 646.000000   nBands: 388   nStates: 44

----- Setting up reduced wavefunction bases (one per k-point) -----
average nbasis = 32705.227 , ideal nbasis = 32714.331

----- Initializing Supercell corresponding to k-point mesh -----
Lattice vector linear combinations in supercell:
[  11   0   0  ]
[   0   2   0  ]
[   0   0   1  ]
Supercell lattice vectors:
[  59.6249  0  0  ]
[  0  44.6981  0  ]
[  0  0  63.2127  ]

Initializing DFT-D3 calculator:
	Parameters set for gga-PBE functional
	s6:  1.000  s_r6:  1.217
	s8:  0.722  s_r8:  1.000
	Per-atom parameters loaded for:
	Ag:  sqrtQ[a0]:  5.443  Rcov[a0]:  2.173  CN: [ 0.00 0.97 ]

Initializing DFT-D2 calculator for fluid / solvation:
	Ag:  C6:  427.91 Eh-a0^6  R0: 3.097 a0

---------- Setting up ewald sum ----------
Optimum gaussian width for ewald sums = 4.368811 bohr.
Real space sum over 665 unit cells with max indices [  9  3  2  ]
Reciprocal space sum over 6251 terms with max indices [  3  9  23  ]

Computing DFT-D3 correction:
# coordination-number Ag 6.868 9.175 5.360 6.877 9.201 9.211 9.212 9.207 9.212 9.212 9.211 9.202 9.212 9.210 9.200 6.871 7.668 9.200 9.211 7.668 9.202 9.211 9.212 9.207 9.212 9.212 9.211 9.201 6.877 9.212 9.175 6.868 6.871 5.360
# diagonal-C6 Ag 268.61 268.61 268.61 268.61 268.61 268.61 268.61 268.61 268.61 268.61 268.61 268.61 268.61 268.61 268.61 268.61 268.61 268.61 268.61 268.61 268.61 268.61 268.61 268.61 268.61 268.61 268.61 268.61 268.61 268.61 268.61 268.61 268.61 268.61
EvdW_6 =   -0.230517
EvdW_8 =   -0.305750

---------- Allocating electronic variables ----------
Initializing wave functions:  linear combination of atomic orbitals
Ag pseudo-atom occupations:   s ( 2 1 )  p ( 6 0 )  d ( 10 )
	FillingsUpdate:  mu: -0.171300000  nElectrons: 646.000000  magneticMoment: [ Abs: 0.00231  Tot: +0.00002 ]
LCAOMinimize: Iter:   0  G: -4907.5048909010001807  |grad|_K:  8.971e-04  alpha:  1.000e+00
	FillingsUpdate:  mu: -0.171300000  nElectrons: 646.000000  magneticMoment: [ Abs: 0.00220  Tot: +0.00004 ]
LCAOMinimize: Iter:   1  G: -4907.6682557393050956  |grad|_K:  4.214e-04  alpha:  4.074e-02  linmin: -5.923e-02  cgtest:  3.579e-01  t[s]:    201.43
LCAOMinimize: 	Predicted alpha/alphaT>3.000000, increasing alphaT to 1.222226e-01.
	FillingsUpdate:  mu: -0.171300000  nElectrons: 646.000000  magneticMoment: [ Abs: 0.00172  Tot: +0.00013 ]
LCAOMinimize: Iter:   2  G: -4907.9066730569029460  |grad|_K:  3.442e-04  alpha:  2.815e-01  linmin: -1.961e-02  cgtest:  8.706e-02  t[s]:    296.77
	FillingsUpdate:  mu: -0.171300000  nElectrons: 646.000000  magneticMoment: [ Abs: 0.00157  Tot: +0.00012 ]
LCAOMinimize: Iter:   3  G: -4907.9542689324589446  |grad|_K:  3.204e-04  alpha:  1.050e-01  linmin:  1.425e-02  cgtest: -3.654e-01  t[s]:    373.25
	FillingsUpdate:  mu: -0.171300000  nElectrons: 646.000000  magneticMoment: [ Abs: 0.00146  Tot: +0.00012 ]
LCAOMinimize: Iter:   4  G: -4907.9863543656092588  |grad|_K:  1.840e-04  alpha:  9.084e-02  linmin: -6.727e-04  cgtest:  8.052e-01  t[s]:    448.97
LCAOMinimize: Encountered beta<0, resetting CG.
	FillingsUpdate:  mu: -0.171300000  nElectrons: 646.000000  magneticMoment: [ Abs: 0.00147  Tot: +0.00012 ]
LCAOMinimize: Iter:   5  G: -4907.9932802933335552  |grad|_K:  5.566e-05  alpha:  4.613e-02  linmin: -5.464e-03  cgtest:  4.269e-02  t[s]:    524.83
	FillingsUpdate:  mu: -0.171300000  nElectrons: 646.000000  magneticMoment: [ Abs: 0.00147  Tot: +0.00012 ]
LCAOMinimize: Iter:   6  G: -4907.9940415524670243  |grad|_K:  5.995e-05  alpha:  5.607e-02  linmin: -1.274e-03  cgtest:  3.418e-03  t[s]:    601.06
	FillingsUpdate:  mu: -0.171300000  nElectrons: 646.000000  magneticMoment: [ Abs: 0.00147  Tot: +0.00012 ]
LCAOMinimize: Iter:   7  G: -4907.9951075049211795  |grad|_K:  1.784e-05  alpha:  6.755e-02  linmin: -3.510e-03  cgtest:  4.483e-03  t[s]:    677.60
	FillingsUpdate:  mu: -0.171300000  nElectrons: 646.000000  magneticMoment: [ Abs: 0.00147  Tot: +0.00012 ]
LCAOMinimize: Iter:   8  G: -4907.9954035718692467  |grad|_K:  9.840e-06  alpha:  1.991e-01  linmin: -1.946e-02  cgtest:  1.426e-01  t[s]:    753.72
	FillingsUpdate:  mu: -0.171300000  nElectrons: 646.000000  magneticMoment: [ Abs: 0.00147  Tot: +0.00012 ]
LCAOMinimize: Iter:   9  G: -4907.9954202707258446  |grad|_K:  7.005e-06  alpha:  3.954e-02  linmin: -3.202e-03  cgtest: -7.094e-02  t[s]:    829.85
	FillingsUpdate:  mu: -0.171300000  nElectrons: 646.000000  magneticMoment: [ Abs: 0.00147  Tot: +0.00012 ]
LCAOMinimize: Iter:  10  G: -4907.9954314070273540  |grad|_K:  4.648e-06  alpha:  4.914e-02  linmin: -3.734e-02  cgtest:  3.747e-01  t[s]:    906.10
	FillingsUpdate:  mu: -0.171300000  nElectrons: 646.000000  magneticMoment: [ Abs: 0.00147  Tot: +0.00012 ]
LCAOMinimize: Iter:  11  G: -4907.9954384888678760  |grad|_K:  3.122e-06  alpha:  6.466e-02  linmin: -4.374e-02  cgtest:  2.658e-01  t[s]:    981.97
	FillingsUpdate:  mu: -0.171300000  nElectrons: 646.000000  magneticMoment: [ Abs: 0.00147  Tot: +0.00012 ]
LCAOMinimize: Iter:  12  G: -4907.9954409405681872  |grad|_K:  3.244e-06  alpha:  5.173e-02  linmin: -1.802e-02  cgtest:  1.783e-02  t[s]:   1059.45
	FillingsUpdate:  mu: -0.171300000  nElectrons: 646.000000  magneticMoment: [ Abs: 0.00148  Tot: +0.00012 ]
LCAOMinimize: Iter:  13  G: -4907.9954451544426774  |grad|_K:  1.276e-06  alpha:  6.869e-02  linmin: -1.113e-01  cgtest:  5.600e-01  t[s]:   1135.59
LCAOMinimize: Encountered beta<0, resetting CG.
	FillingsUpdate:  mu: -0.171300000  nElectrons: 646.000000  magneticMoment: [ Abs: 0.00148  Tot: +0.00012 ]
LCAOMinimize: Iter:  14  G: -4907.9954456955365458  |grad|_K:  1.277e-06  alpha:  7.413e-02  linmin: -6.443e-02  cgtest:  5.295e-01  t[s]:   1211.43
	FillingsUpdate:  mu: -0.171300000  nElectrons: 646.000000  magneticMoment: [ Abs: 0.00148  Tot: +0.00012 ]
LCAOMinimize: Iter:  15  G: -4907.9954461599863862  |grad|_K:  1.320e-06  alpha:  5.896e-02  linmin: -4.230e-02  cgtest:  1.662e-01  t[s]:   1287.16
LCAOMinimize: Converged (|Delta G|<1.000000e-06 for 2 iters).
----- createFluidSolver() ----- (Fluid-side solver setup)
   Initializing fluid molecule 'H2O'
     Initializing site 'O'
       Electron density: proportional to exp(-r/0.36935)*erfc((r-0.51523)/0.36823) with norm 6.826
       Charge density: gaussian nuclear width 0.478731 with net site charge 0.826
       Polarizability: cuspless exponential with width 0.32 and norm 3.73
       Hard sphere radius: 2.57003 bohrs
       Positions in reference frame:
         [ +0.000000 +0.000000 +0.000000 ]
     Initializing site 'H'
       Electron density: proportional to exp(-r/0.34641)*erfc((r-0)/0.390882) with norm 0.587
       Charge density: gaussian nuclear width 0.377945 with net site charge -0.413
       Polarizability: cuspless exponential with width 0.39 and norm 3.3
       Positions in reference frame:
         [ +0.000000 -1.441945 +1.122523 ]
         [ +0.000000 +1.441945 +1.122523 ]
     Net charge: 0   dipole magnitude: 0.927204
     Initializing spherical shell mfKernel with radius 2.61727 Bohr
     deltaS corrections:
       site 'O': -7.54299
       site 'H': -6.83917
   Initializing fluid molecule 'Na+'
     Initializing site 'Na'
       Electron density: proportional to exp(-r/0.19682)*erfc((r-0.71491)/0.41314) with norm 8.1383
       Charge density: gaussian nuclear width 0.365347 with net site charge -1
       Hard sphere radius: 1.86327 bohrs
       Positions in reference frame:
         [ +0.000000 +0.000000 +0.000000 ]
     Net charge: -1   dipole magnitude: 0
     Initializing gaussian mfKernel with width: 1.55004 Bohr
     deltaS corrections:
       site 'Na': -22.3555
   Initializing fluid molecule 'F-'
     Initializing site 'F'
       Electron density: proportional to exp(-r/0.38886)*erfc((r-0)/0.438782) with norm 8
       Charge density: gaussian nuclear width 0.374796 with net site charge 1
       Hard sphere radius: 2.39995 bohrs
       Positions in reference frame:
         [ +0.000000 +0.000000 +0.000000 ]
     Net charge: 1   dipole magnitude: 0
     Initializing gaussian mfKernel with width: 1.59012 Bohr
     deltaS corrections:
       site 'F': -9.04335

Correction to mu due to finite nuclear width = -0.0837015
   Cavity determined by nc: 0.00142 and sigma: 0.707107
   Nonlocal vdW cavity from gaussian model electron density with norm = 8 and sigma = 0.993594 bohr
   Charge asymmetry in cavity with sensitivity pCavity = 36.5 e-bohr/Eh
   Electrostatic cavity expanded by eta = 1.46 bohrs
   Weighted density cavitation model constrained by Nbulk: 0.0049383 bohr^-3, Pvap: 3.14029 kPa, Rvdw: 2.61727 bohr and sigmaBulk: 4.62e-05 Eh/bohr^2 at T: 298 K.
   Weighted density dispersion model using vdW pair potentials with single solvent site with sqrtC6eff: 0.77 SI.


---- Citations for features of the code used in this run ----

   Software package:
      R. Sundararaman, K. Letchworth-Weaver, K.A. Schwarz, D. Gunceler, Y. Ozhabes and T.A. Arias, 'JDFTx: software for joint density-functional theory', SoftwareX 6, 278 (2017)

   gga-PBE exchange-correlation functional:
      J.P. Perdew, K. Burke and M. Ernzerhof, Phys. Rev. Lett. 77, 3865 (1996)

   Pseudopotentials:
      KF Garrity, JW Bennett, KM Rabe and D Vanderbilt, Comput. Mater. Sci. 81, 446 (2014)

   DFT-D3 dispersion correction:
      S. Grimme, J. Antony, S. Ehrlich and H. Krieg, J. Chem. Phys. 132, 154104 (2010)

   DFT-D2 dispersion correction:
      S. Grimme, J. Comput. Chem. 27, 1787 (2006)

   Charge-asymmetric nonlocally-determined local-electric (CANDLE) solvation model:
      R. Sundararaman and W.A. Goddard III, J. Chem. Phys. 142, 064107 (2015)

   Total energy minimization with Auxiliary Hamiltonian:
      C. Freysoldt, S. Boeck, and J. Neugebauer, Phys. Rev. B 79, 241103(R) (2009)

   Grand-canonical (fixed-potential) DFT:
      R. Sundararaman, W. A. Goddard III and T. A. Arias, J. Chem. Phys. 146, 114104 (2017)

   Linear-tetrahedron sampling for density of states:
      G. Lehmann and M. Taut, Phys. status solidi (b) 54, 469 (1972)

This list may not be complete. Please suggest additional citations or
report any other bugs at https://github.com/shankar1729/jdftx/issues

Initialization completed successfully at t[s]:   1310.74


Computing DFT-D3 correction:
# coordination-number Ag 6.868 9.175 5.360 6.877 9.201 9.211 9.212 9.207 9.212 9.212 9.211 9.202 9.212 9.210 9.200 6.871 7.668 9.200 9.211 7.668 9.202 9.211 9.212 9.207 9.212 9.212 9.211 9.201 6.877 9.212 9.175 6.868 6.871 5.360
# diagonal-C6 Ag 268.61 268.61 268.61 268.61 268.61 268.61 268.61 268.61 268.61 268.61 268.61 268.61 268.61 268.61 268.61 268.61 268.61 268.61 268.61 268.61 268.61 268.61 268.61 268.61 268.61 268.61 268.61 268.61 268.61 268.61 268.61 268.61 268.61 268.61
EvdW_6 =   -0.230517
EvdW_8 =   -0.305750
Fluid solver invoked on fresh (random / LCAO) wavefunctions
Running a vacuum solve first:

-------- Initial electronic minimization -----------
	FillingsUpdate:  mu: +0.245423998  nElectrons: 646.000000  magneticMoment: [ Abs: 0.00148  Tot: +0.00012 ]
ElecMinimize: Iter:   0  G: -4907.996640442332136  |grad|_K:  2.450e-05  alpha:  1.000e+00
	FillingsUpdate:  mu: +0.252528383  nElectrons: 646.000000  magneticMoment: [ Abs: 0.00115  Tot: +0.00012 ]
	SubspaceRotationAdjust: set factor to 0.999
ElecMinimize: Iter:   1  G: -4908.140926590285744  |grad|_K:  1.683e-05  alpha:  4.290e-01  linmin:  1.905e-05  t[s]:   1526.20
	FillingsUpdate:  mu: +0.235757089  nElectrons: 646.000000  magneticMoment: [ Abs: 0.00092  Tot: +0.00013 ]
	SubspaceRotationAdjust: set factor to 0.567
ElecMinimize: Iter:   2  G: -4908.179537341341529  |grad|_K:  2.105e-05  alpha:  2.414e-01  linmin: -4.200e-05  t[s]:   1664.68
	FillingsUpdate:  mu: +0.243184157  nElectrons: 646.000000  magneticMoment: [ Abs: 0.00087  Tot: +0.00013 ]
	SubspaceRotationAdjust: set factor to 0.318
ElecMinimize: Iter:   3  G: -4908.186146551503953  |grad|_K:  7.718e-06  alpha:  2.615e-02  linmin: -9.877e-05  t[s]:   1802.65
ElecMinimize: 	Predicted alpha/alphaT>3.000000, increasing alphaT to 7.845907e-02.
	FillingsUpdate:  mu: +0.258738554  nElectrons: 646.000000  magneticMoment: [ Abs: 0.00071  Tot: +0.00012 ]
	SubspaceRotationAdjust: set factor to 0.211
ElecMinimize: Iter:   4  G: -4908.193979117912022  |grad|_K:  8.281e-06  alpha:  2.313e-01  linmin: -1.861e-05  t[s]:   1975.92
	FillingsUpdate:  mu: +0.256701534  nElectrons: 646.000000  magneticMoment: [ Abs: 0.00059  Tot: +0.00012 ]
	SubspaceRotationAdjust: set factor to 0.202
ElecMinimize: Iter:   5  G: -4908.198201898457228  |grad|_K:  4.964e-06  alpha:  1.091e-01  linmin: -1.599e-05  t[s]:   2114.20
	FillingsUpdate:  mu: +0.246633672  nElectrons: 646.000000  magneticMoment: [ Abs: 0.00049  Tot: +0.00012 ]
	SubspaceRotationAdjust: set factor to 0.22
ElecMinimize: Iter:   6  G: -4908.200944187416098  |grad|_K:  3.520e-06  alpha:  1.979e-01  linmin:  1.463e-05  t[s]:   2251.77
	FillingsUpdate:  mu: +0.245027521  nElectrons: 646.000000  magneticMoment: [ Abs: 0.00043  Tot: +0.00012 ]
	SubspaceRotationAdjust: set factor to 0.188
ElecMinimize: Iter:   7  G: -4908.202153836704383  |grad|_K:  3.166e-06  alpha:  1.740e-01  linmin:  1.168e-05  t[s]:   2390.00
	FillingsUpdate:  mu: +0.248868093  nElectrons: 646.000000  magneticMoment: [ Abs: 0.00038  Tot: +0.00011 ]
	SubspaceRotationAdjust: set factor to 0.281
ElecMinimize: Iter:   8  G: -4908.203310903679267  |grad|_K:  2.070e-06  alpha:  2.058e-01  linmin: -1.455e-06  t[s]:   2527.98
	FillingsUpdate:  mu: +0.250799514  nElectrons: 646.000000  magneticMoment: [ Abs: 0.00037  Tot: +0.00010 ]
	SubspaceRotationAdjust: set factor to 0.227
ElecMinimize: Iter:   9  G: -4908.203769580985863  |grad|_K:  2.057e-06  alpha:  1.906e-01  linmin: -4.194e-07  t[s]:   2665.84
	FillingsUpdate:  mu: +0.250363019  nElectrons: 646.000000  magneticMoment: [ Abs: 0.00036  Tot: +0.00010 ]
	SubspaceRotationAdjust: set factor to 0.278
ElecMinimize: Iter:  10  G: -4908.204199514771062  |grad|_K:  1.272e-06  alpha:  1.809e-01  linmin:  7.073e-06  t[s]:   2803.57
	FillingsUpdate:  mu: +0.248539400  nElectrons: 646.000000  magneticMoment: [ Abs: 0.00037  Tot: +0.00009 ]
	SubspaceRotationAdjust: set factor to 0.231
ElecMinimize: Iter:  11  G: -4908.204479679629003  |grad|_K:  1.295e-06  alpha:  3.091e-01  linmin:  2.876e-05  t[s]:   2941.35
	FillingsUpdate:  mu: +0.249253722  nElectrons: 646.000000  magneticMoment: [ Abs: 0.00036  Tot: +0.00008 ]
	SubspaceRotationAdjust: set factor to 0.211
ElecMinimize: Iter:  12  G: -4908.204645529455775  |grad|_K:  1.153e-06  alpha:  1.765e-01  linmin: -2.378e-06  t[s]:   3079.21
	FillingsUpdate:  mu: +0.251147747  nElectrons: 646.000000  magneticMoment: [ Abs: 0.00036  Tot: +0.00007 ]
	SubspaceRotationAdjust: set factor to 0.218
ElecMinimize: Iter:  13  G: -4908.204812202618086  |grad|_K:  8.150e-07  alpha:  2.231e-01  linmin: -9.955e-07  t[s]:   3217.07
	FillingsUpdate:  mu: +0.250872223  nElectrons: 646.000000  magneticMoment: [ Abs: 0.00034  Tot: +0.00006 ]
	SubspaceRotationAdjust: set factor to 0.222
ElecMinimize: Iter:  14  G: -4908.204915725562387  |grad|_K:  8.104e-07  alpha:  2.776e-01  linmin:  1.147e-05  t[s]:   3354.64
	FillingsUpdate:  mu: +0.250169980  nElectrons: 646.000000  magneticMoment: [ Abs: 0.00032  Tot: +0.00005 ]
	SubspaceRotationAdjust: set factor to 0.171
ElecMinimize: Iter:  15  G: -4908.204980785167209  |grad|_K:  6.175e-07  alpha:  1.765e-01  linmin: -8.757e-07  t[s]:   3492.36
	FillingsUpdate:  mu: +0.250104559  nElectrons: 646.000000  magneticMoment: [ Abs: 0.00028  Tot: +0.00004 ]
	SubspaceRotationAdjust: set factor to 0.238
ElecMinimize: Iter:  16  G: -4908.205038032278935  |grad|_K:  4.646e-07  alpha:  2.676e-01  linmin:  9.655e-06  t[s]:   3630.41
	FillingsUpdate:  mu: +0.250658357  nElectrons: 646.000000  magneticMoment: [ Abs: 0.00025  Tot: +0.00004 ]
	SubspaceRotationAdjust: set factor to 0.195
ElecMinimize: Iter:  17  G: -4908.205068326770743  |grad|_K:  4.446e-07  alpha:  2.508e-01  linmin: -3.818e-07  t[s]:   3767.97
	FillingsUpdate:  mu: +0.250972548  nElectrons: 646.000000  magneticMoment: [ Abs: 0.00021  Tot: +0.00003 ]
	SubspaceRotationAdjust: set factor to 0.162
ElecMinimize: Iter:  18  G: -4908.205089742527889  |grad|_K:  2.803e-07  alpha:  1.928e-01  linmin: -2.097e-07  t[s]:   3906.08
	FillingsUpdate:  mu: +0.250609722  nElectrons: 646.000000  magneticMoment: [ Abs: 0.00017  Tot: +0.00003 ]
	SubspaceRotationAdjust: set factor to 0.163
ElecMinimize: Iter:  19  G: -4908.205103767996661  |grad|_K:  2.213e-07  alpha:  3.179e-01  linmin:  1.866e-06  t[s]:   4043.97
	FillingsUpdate:  mu: +0.250544061  nElectrons: 646.000000  magneticMoment: [ Abs: 0.00013  Tot: +0.00002 ]
	SubspaceRotationAdjust: set factor to 0.166
ElecMinimize: Iter:  20  G: -4908.205111513427255  |grad|_K:  1.690e-07  alpha:  2.819e-01  linmin: -1.882e-07  t[s]:   4181.74
	FillingsUpdate:  mu: +0.250726778  nElectrons: 646.000000  magneticMoment: [ Abs: 0.00011  Tot: +0.00002 ]
	SubspaceRotationAdjust: set factor to 0.143
ElecMinimize: Iter:  21  G: -4908.205115513663259  |grad|_K:  1.239e-07  alpha:  2.495e-01  linmin: -3.691e-07  t[s]:   4319.59
	FillingsUpdate:  mu: +0.250819313  nElectrons: 646.000000  magneticMoment: [ Abs: 0.00008  Tot: +0.00002 ]
	SubspaceRotationAdjust: set factor to 0.171
ElecMinimize: Iter:  22  G: -4908.205118092485463  |grad|_K:  9.135e-08  alpha:  2.988e-01  linmin: -1.147e-07  t[s]:   4457.85
	FillingsUpdate:  mu: +0.250703139  nElectrons: 646.000000  magneticMoment: [ Abs: 0.00006  Tot: +0.00002 ]
	SubspaceRotationAdjust: set factor to 0.179
ElecMinimize: Iter:  23  G: -4908.205119693163397  |grad|_K:  7.628e-08  alpha:  3.415e-01  linmin:  8.456e-08  t[s]:   4595.82
	FillingsUpdate:  mu: +0.250657627  nElectrons: 646.000000  magneticMoment: [ Abs: 0.00005  Tot: +0.00002 ]
	SubspaceRotationAdjust: set factor to 0.174
ElecMinimize: Iter:  24  G: -4908.205120538226765  |grad|_K:  6.484e-08  alpha:  2.585e-01  linmin: -2.413e-07  t[s]:   4733.45
	FillingsUpdate:  mu: +0.250709729  nElectrons: 646.000000  magneticMoment: [ Abs: 0.00004  Tot: +0.00001 ]
	SubspaceRotationAdjust: set factor to 0.188
ElecMinimize: Iter:  25  G: -4908.205121318349484  |grad|_K:  5.257e-08  alpha:  3.302e-01  linmin:  8.289e-09  t[s]:   4871.45
	FillingsUpdate:  mu: +0.250723836  nElectrons: 646.000000  magneticMoment: [ Abs: 0.00004  Tot: +0.00001 ]
	SubspaceRotationAdjust: set factor to 0.231
ElecMinimize: Iter:  26  G: -4908.205121831241740  |grad|_K:  4.495e-08  alpha:  3.306e-01  linmin: -4.548e-08  t[s]:   5010.75
	FillingsUpdate:  mu: +0.250675100  nElectrons: 646.000000  magneticMoment: [ Abs: 0.00003  Tot: +0.00001 ]
	SubspaceRotationAdjust: set factor to 0.221
ElecMinimize: Iter:  27  G: -4908.205122202220991  |grad|_K:  4.385e-08  alpha:  3.272e-01  linmin:  3.279e-07  t[s]:   5148.54
	FillingsUpdate:  mu: +0.250662568  nElectrons: 646.000000  magneticMoment: [ Abs: 0.00003  Tot: +0.00001 ]
	SubspaceRotationAdjust: set factor to 0.187
ElecMinimize: Iter:  28  G: -4908.205122427856622  |grad|_K:  3.582e-08  alpha:  2.092e-01  linmin: -2.720e-07  t[s]:   5286.28
	FillingsUpdate:  mu: +0.250686747  nElectrons: 646.000000  magneticMoment: [ Abs: 0.00003  Tot: +0.00001 ]
	SubspaceRotationAdjust: set factor to 0.178
ElecMinimize: Iter:  29  G: -4908.205122638831199  |grad|_K:  2.866e-08  alpha:  2.917e-01  linmin: -6.158e-07  t[s]:   5423.83
	FillingsUpdate:  mu: +0.250681869  nElectrons: 646.000000  magneticMoment: [ Abs: 0.00002  Tot: +0.00000 ]
	SubspaceRotationAdjust: set factor to 0.206
ElecMinimize: Iter:  30  G: -4908.205122782534090  |grad|_K:  2.167e-08  alpha:  3.101e-01  linmin:  1.773e-07  t[s]:   5561.74
	FillingsUpdate:  mu: +0.250658812  nElectrons: 646.000000  magneticMoment: [ Abs: 0.00002  Tot: +0.00000 ]
	SubspaceRotationAdjust: set factor to 0.189
ElecMinimize: Iter:  31  G: -4908.205122864460463  |grad|_K:  1.889e-08  alpha:  3.120e-01  linmin:  8.931e-07  t[s]:   5699.63
	FillingsUpdate:  mu: +0.250658512  nElectrons: 646.000000  magneticMoment: [ Abs: 0.00002  Tot: +0.00000 ]
	SubspaceRotationAdjust: set factor to 0.162
ElecMinimize: Iter:  32  G: -4908.205122909357669  |grad|_K:  1.477e-08  alpha:  2.252e-01  linmin: -4.283e-07  t[s]:   5837.82
ElecMinimize: Converged (|Delta G|<1.000000e-07 for 2 iters).
Setting wave functions to eigenvectors of Hamiltonian
Converging empty states (this may take a while): |deigs|: 9.904e-03
Vacuum energy after initial minimize, F = -4908.205122909357669

Shifting auxilliary hamiltonian by -0.421959 to set nElectrons=646.000000

-------- Electronic minimization -----------
	Linear fluid (dielectric constant: 78.4, screening length: 8.12261 Bohr) occupying 0.370068 of unit cell:	Completed after 25 iterations at t[s]:   6395.73
	FillingsUpdate:  mu: -0.171300000  nElectrons: 646.000000  magneticMoment: [ Abs: 0.00000  Tot: +0.00000 ]
ElecMinimize: Iter:   0  G: -4908.206528171571335  |grad|_K:  4.334e-06  alpha:  1.000e+00
	Linear fluid (dielectric constant: 78.4, screening length: 8.12261 Bohr) occupying 0.372420 of unit cell:	Completed after 25 iterations at t[s]:   6511.76
	Linear fluid (dielectric constant: 78.4, screening length: 8.12261 Bohr) occupying 0.370301 of unit cell:	Completed after 25 iterations at t[s]:   6551.81
	FillingsUpdate:  mu: -0.171300000  nElectrons: 645.898209  magneticMoment: [ Abs: 0.00000  Tot: +0.00000 ]
	SubspaceRotationAdjust: set factor to 0.091
ElecMinimize: Iter:   1  G: -4908.206935408767094  |grad|_K:  3.892e-06  alpha:  9.282e-02  linmin:  2.580e-02  t[s]:   6606.77
	Linear fluid (dielectric constant: 78.4, screening length: 8.12261 Bohr) occupying 0.370600 of unit cell:	Completed after 16 iterations at t[s]:   6659.17
ElecMinimize: 	Predicted alpha/alphaT>3.000000, increasing alphaT to 2.784748e-01.
	Linear fluid (dielectric constant: 78.4, screening length: 8.12261 Bohr) occupying 0.371195 of unit cell:	Completed after 18 iterations at t[s]:   6697.98
	Linear fluid (dielectric constant: 78.4, screening length: 8.12261 Bohr) occupying 0.371566 of unit cell:	Completed after 16 iterations at t[s]:   6736.80
	FillingsUpdate:  mu: -0.171300000  nElectrons: 645.814538  magneticMoment: [ Abs: 0.00000  Tot: +0.00000 ]
	SubspaceRotationAdjust: set factor to 0.135
ElecMinimize: Iter:   2  G: -4908.208414586125400  |grad|_K:  1.396e-06  alpha:  3.951e-01  linmin: -3.112e-04  t[s]:   6791.61
	Linear fluid (dielectric constant: 78.4, screening length: 8.12261 Bohr) occupying 0.372023 of unit cell:	Completed after 20 iterations at t[s]:   6844.58
	Linear fluid (dielectric constant: 78.4, screening length: 8.12261 Bohr) occupying 0.372186 of unit cell:	Completed after 16 iterations at t[s]:   6883.04
	FillingsUpdate:  mu: -0.171300000  nElectrons: 645.821602  magneticMoment: [ Abs: 0.00000  Tot: +0.00000 ]
	SubspaceRotationAdjust: set factor to 0.116
ElecMinimize: Iter:   3  G: -4908.209004576166080  |grad|_K:  1.400e-06  alpha:  5.371e-01  linmin:  5.555e-05  t[s]:   6937.95
	Linear fluid (dielectric constant: 78.4, screening length: 8.12261 Bohr) occupying 0.373423 of unit cell:	Completed after 18 iterations at t[s]:   6990.57
	Linear fluid (dielectric constant: 78.4, screening length: 8.12261 Bohr) occupying 0.372634 of unit cell:	Completed after 18 iterations at t[s]:   7030.04
	FillingsUpdate:  mu: -0.171300000  nElectrons: 645.784372  magneticMoment: [ Abs: 0.00000  Tot: +0.00000 ]
	SubspaceRotationAdjust: set factor to 0.0849
ElecMinimize: Iter:   4  G: -4908.209210709760555  |grad|_K:  1.718e-06  alpha:  1.915e-01  linmin:  2.629e-04  t[s]:   7084.66
	Linear fluid (dielectric constant: 78.4, screening length: 8.12261 Bohr) occupying 0.373425 of unit cell:	Completed after 16 iterations at t[s]:   7137.00
	Linear fluid (dielectric constant: 78.4, screening length: 8.12261 Bohr) occupying 0.374019 of unit cell:	Completed after 16 iterations at t[s]:   7175.71
	FillingsUpdate:  mu: -0.171300000  nElectrons: 645.764169  magneticMoment: [ Abs: 0.00000  Tot: +0.00000 ]
	SubspaceRotationAdjust: set factor to 0.0899
ElecMinimize: Iter:   5  G: -4908.209762103859248  |grad|_K:  1.505e-06  alpha:  3.399e-01  linmin:  1.039e-04  t[s]:   7230.70
	Linear fluid (dielectric constant: 78.4, screening length: 8.12261 Bohr) occupying 0.375199 of unit cell:	Completed after 15 iterations at t[s]:   7282.88
	Linear fluid (dielectric constant: 78.4, screening length: 8.12261 Bohr) occupying 0.375481 of unit cell:	Completed after 13 iterations at t[s]:   7320.92
	FillingsUpdate:  mu: -0.171300000  nElectrons: 645.732160  magneticMoment: [ Abs: 0.00000  Tot: +0.00000 ]
	SubspaceRotationAdjust: set factor to 0.0709
ElecMinimize: Iter:   6  G: -4908.210293202889261  |grad|_K:  1.623e-06  alpha:  4.248e-01  linmin:  1.743e-04  t[s]:   7376.58
	Linear fluid (dielectric constant: 78.4, screening length: 8.12261 Bohr) occupying 0.377195 of unit cell:	Completed after 20 iterations at t[s]:   7429.56
	Linear fluid (dielectric constant: 78.4, screening length: 8.12261 Bohr) occupying 0.376315 of unit cell:	Completed after 17 iterations at t[s]:   7468.19
	FillingsUpdate:  mu: -0.171300000  nElectrons: 645.672876  magneticMoment: [ Abs: 0.00000  Tot: +0.00000 ]
	SubspaceRotationAdjust: set factor to 0.0462
ElecMinimize: Iter:   7  G: -4908.210556436350089  |grad|_K:  1.319e-06  alpha:  1.992e-01  linmin:  4.255e-04  t[s]:   7522.90
	Linear fluid (dielectric constant: 78.4, screening length: 8.12261 Bohr) occupying 0.376859 of unit cell:	Completed after 16 iterations at t[s]:   7575.20
	Linear fluid (dielectric constant: 78.4, screening length: 8.12261 Bohr) occupying 0.377252 of unit cell:	Completed after 15 iterations at t[s]:   7613.37
	FillingsUpdate:  mu: -0.171300000  nElectrons: 645.644934  magneticMoment: [ Abs: 0.00000  Tot: +0.00000 ]
	SubspaceRotationAdjust: set factor to 0.0652
ElecMinimize: Iter:   8  G: -4908.210880302396617  |grad|_K:  8.431e-07  alpha:  3.494e-01  linmin:  6.644e-05  t[s]:   7668.19
	Linear fluid (dielectric constant: 78.4, screening length: 8.12261 Bohr) occupying 0.377607 of unit cell:	Completed after 15 iterations at t[s]:   7720.39
	Linear fluid (dielectric constant: 78.4, screening length: 8.12261 Bohr) occupying 0.377633 of unit cell:	Completed after 10 iterations at t[s]:   7757.86
	FillingsUpdate:  mu: -0.171300000  nElectrons: 645.645924  magneticMoment: [ Abs: 0.00000  Tot: +0.00000 ]
	SubspaceRotationAdjust: set factor to 0.0587
ElecMinimize: Iter:   9  G: -4908.211029076327577  |grad|_K:  7.395e-07  alpha:  3.750e-01  linmin:  7.243e-05  t[s]:   7812.78
	Linear fluid (dielectric constant: 78.4, screening length: 8.12261 Bohr) occupying 0.377926 of unit cell:	Completed after 16 iterations at t[s]:   7865.23
	Linear fluid (dielectric constant: 78.4, screening length: 8.12261 Bohr) occupying 0.377866 of unit cell:	Completed after 13 iterations at t[s]:   7903.37
	FillingsUpdate:  mu: -0.171300000  nElectrons: 645.628191  magneticMoment: [ Abs: 0.00000  Tot: +0.00000 ]
	SubspaceRotationAdjust: set factor to 0.0455
ElecMinimize: Iter:  10  G: -4908.211119148036232  |grad|_K:  5.846e-07  alpha:  2.958e-01  linmin: -4.868e-05  t[s]:   7958.24
	Linear fluid (dielectric constant: 78.4, screening length: 8.12261 Bohr) occupying 0.378008 of unit cell:	Completed after 13 iterations at t[s]:   8009.90
	Linear fluid (dielectric constant: 78.4, screening length: 8.12261 Bohr) occupying 0.378065 of unit cell:	Completed after 11 iterations at t[s]:   8047.67
	FillingsUpdate:  mu: -0.171300000  nElectrons: 645.630621  magneticMoment: [ Abs: 0.00000  Tot: +0.00000 ]
	SubspaceRotationAdjust: set factor to 0.0552
ElecMinimize: Iter:  11  G: -4908.211199614924226  |grad|_K:  4.813e-07  alpha:  4.180e-01  linmin:  2.070e-05  t[s]:   8102.39
	Linear fluid (dielectric constant: 78.4, screening length: 8.12261 Bohr) occupying 0.378204 of unit cell:	Completed after 14 iterations at t[s]:   8154.30
	Linear fluid (dielectric constant: 78.4, screening length: 8.12261 Bohr) occupying 0.378227 of unit cell:	Completed after 10 iterations at t[s]:   8191.75
	FillingsUpdate:  mu: -0.171300000  nElectrons: 645.635815  magneticMoment: [ Abs: 0.00000  Tot: +0.00000 ]
	SubspaceRotationAdjust: set factor to 0.0529
ElecMinimize: Iter:  12  G: -4908.211262973602061  |grad|_K:  4.429e-07  alpha:  4.880e-01  linmin:  3.500e-05  t[s]:   8246.39
	Linear fluid (dielectric constant: 78.4, screening length: 8.12261 Bohr) occupying 0.378396 of unit cell:	Completed after 15 iterations at t[s]:   8298.35
	Linear fluid (dielectric constant: 78.4, screening length: 8.12261 Bohr) occupying 0.378349 of unit cell:	Completed after 12 iterations at t[s]:   8336.19
	FillingsUpdate:  mu: -0.171300000  nElectrons: 645.626729  magneticMoment: [ Abs: 0.00000  Tot: +0.00000 ]
	SubspaceRotationAdjust: set factor to 0.0398
ElecMinimize: Iter:  13  G: -4908.211301218575500  |grad|_K:  3.877e-07  alpha:  3.491e-01  linmin: -1.570e-05  t[s]:   8390.77
	Linear fluid (dielectric constant: 78.4, screening length: 8.12261 Bohr) occupying 0.378466 of unit cell:	Completed after 13 iterations at t[s]:   8442.67
	Linear fluid (dielectric constant: 78.4, screening length: 8.12261 Bohr) occupying 0.378494 of unit cell:	Completed after 10 iterations at t[s]:   8479.97
	FillingsUpdate:  mu: -0.171300000  nElectrons: 645.630601  magneticMoment: [ Abs: 0.00000  Tot: +0.00000 ]
	SubspaceRotationAdjust: set factor to 0.0444
ElecMinimize: Iter:  14  G: -4908.211337962084144  |grad|_K:  3.142e-07  alpha:  4.350e-01  linmin:  1.802e-05  t[s]:   8535.46
	Linear fluid (dielectric constant: 78.4, screening length: 8.12261 Bohr) occupying 0.378618 of unit cell:	Completed after 12 iterations at t[s]:   8587.13
	Linear fluid (dielectric constant: 78.4, screening length: 8.12261 Bohr) occupying 0.378627 of unit cell:	Completed after 7 iterations at t[s]:   8624.23
	FillingsUpdate:  mu: -0.171300000  nElectrons: 645.633281  magneticMoment: [ Abs: 0.00000  Tot: +0.00000 ]
	SubspaceRotationAdjust: set factor to 0.0481
ElecMinimize: Iter:  15  G: -4908.211363895830800  |grad|_K:  2.876e-07  alpha:  4.684e-01  linmin:  1.263e-05  t[s]:   8679.37
	Linear fluid (dielectric constant: 78.4, screening length: 8.12261 Bohr) occupying 0.378768 of unit cell:	Completed after 13 iterations at t[s]:   8730.88
	Linear fluid (dielectric constant: 78.4, screening length: 8.12261 Bohr) occupying 0.378762 of unit cell:	Completed after 6 iterations at t[s]:   8767.84
	FillingsUpdate:  mu: -0.171300000  nElectrons: 645.626810  magneticMoment: [ Abs: 0.00000  Tot: +0.00000 ]
	SubspaceRotationAdjust: set factor to 0.0391
ElecMinimize: Iter:  16  G: -4908.211384645362159  |grad|_K:  2.470e-07  alpha:  4.472e-01  linmin: -1.041e-05  t[s]:   8823.98
	Linear fluid (dielectric constant: 78.4, screening length: 8.12261 Bohr) occupying 0.378882 of unit cell:	Completed after 13 iterations at t[s]:   8875.71
	Linear fluid (dielectric constant: 78.4, screening length: 8.12261 Bohr) occupying 0.378881 of unit cell:	Completed after 0 iterations at t[s]:   8911.41
	FillingsUpdate:  mu: -0.171300000  nElectrons: 645.628034  magneticMoment: [ Abs: 0.00000  Tot: +0.00000 ]
	SubspaceRotationAdjust: set factor to 0.0375
ElecMinimize: Iter:  17  G: -4908.211399863382212  |grad|_K:  2.134e-07  alpha:  4.438e-01  linmin:  1.445e-05  t[s]:   8966.11
	Linear fluid (dielectric constant: 78.4, screening length: 8.12261 Bohr) occupying 0.378985 of unit cell:	Completed after 7 iterations at t[s]:   9016.92
	Linear fluid (dielectric constant: 78.4, screening length: 8.12261 Bohr) occupying 0.378983 of unit cell:	Completed after 1 iterations at t[s]:   9052.94
	FillingsUpdate:  mu: -0.171300000  nElectrons: 645.626019  magneticMoment: [ Abs: 0.00000  Tot: +0.00000 ]
	SubspaceRotationAdjust: set factor to 0.0447
ElecMinimize: Iter:  18  G: -4908.211410985620205  |grad|_K:  1.739e-07  alpha:  4.354e-01  linmin:  8.908e-07  t[s]:   9107.88
	Linear fluid (dielectric constant: 78.4, screening length: 8.12261 Bohr) occupying 0.379060 of unit cell:	Completed after 13 iterations at t[s]:   9160.42
	Linear fluid (dielectric constant: 78.4, screening length: 8.12261 Bohr) occupying 0.379067 of unit cell:	Completed after 6 iterations at t[s]:   9197.58
	FillingsUpdate:  mu: -0.171300000  nElectrons: 645.621504  magneticMoment: [ Abs: 0.00000  Tot: +0.00000 ]
	SubspaceRotationAdjust: set factor to 0.0426
ElecMinimize: Iter:  19  G: -4908.211419142626255  |grad|_K:  1.428e-07  alpha:  4.803e-01  linmin:  1.639e-05  t[s]:   9252.86
	Linear fluid (dielectric constant: 78.4, screening length: 8.12261 Bohr) occupying 0.379132 of unit cell:	Completed after 11 iterations at t[s]:   9304.49
	Linear fluid (dielectric constant: 78.4, screening length: 8.12261 Bohr) occupying 0.379136 of unit cell:	Completed after 2 iterations at t[s]:   9340.89
	FillingsUpdate:  mu: -0.171300000  nElectrons: 645.622264  magneticMoment: [ Abs: 0.00000  Tot: +0.00000 ]
	SubspaceRotationAdjust: set factor to 0.0383
ElecMinimize: Iter:  20  G: -4908.211424995689413  |grad|_K:  1.319e-07  alpha:  5.115e-01  linmin: -6.954e-05  t[s]:   9395.61
	Linear fluid (dielectric constant: 78.4, screening length: 8.12261 Bohr) occupying 0.379201 of unit cell:	Completed after 11 iterations at t[s]:   9447.22
	Linear fluid (dielectric constant: 78.4, screening length: 8.12261 Bohr) occupying 0.379195 of unit cell:	Completed after 2 iterations at t[s]:   9483.55
	FillingsUpdate:  mu: -0.171300000  nElectrons: 645.619816  magneticMoment: [ Abs: 0.00000  Tot: +0.00000 ]
	SubspaceRotationAdjust: set factor to 0.0418
ElecMinimize: Iter:  21  G: -4908.211429575327202  |grad|_K:  1.172e-07  alpha:  4.662e-01  linmin:  6.247e-05  t[s]:   9538.26
	Linear fluid (dielectric constant: 78.4, screening length: 8.12261 Bohr) occupying 0.379246 of unit cell:	Completed after 11 iterations at t[s]:   9590.03
	Linear fluid (dielectric constant: 78.4, screening length: 8.12261 Bohr) occupying 0.379251 of unit cell:	Completed after 2 iterations at t[s]:   9626.18
	FillingsUpdate:  mu: -0.171300000  nElectrons: 645.617530  magneticMoment: [ Abs: 0.00000  Tot: +0.00000 ]
	SubspaceRotationAdjust: set factor to 0.0463
ElecMinimize: Iter:  22  G: -4908.211433517500154  |grad|_K:  1.019e-07  alpha:  5.142e-01  linmin:  1.035e-05  t[s]:   9681.10
	Linear fluid (dielectric constant: 78.4, screening length: 8.12261 Bohr) occupying 0.379297 of unit cell:	Completed after 10 iterations at t[s]:   9732.97
	Linear fluid (dielectric constant: 78.4, screening length: 8.12261 Bohr) occupying 0.379299 of unit cell:	Completed after 0 iterations at t[s]:   9768.78
	FillingsUpdate:  mu: -0.171300000  nElectrons: 645.617820  magneticMoment: [ Abs: 0.00000  Tot: +0.00000 ]
	SubspaceRotationAdjust: set factor to 0.0422
ElecMinimize: Iter:  23  G: -4908.211436661107655  |grad|_K:  9.037e-08  alpha:  5.400e-01  linmin: -1.043e-04  t[s]:   9823.83
	Linear fluid (dielectric constant: 78.4, screening length: 8.12261 Bohr) occupying 0.379344 of unit cell:	Completed after 11 iterations at t[s]:   9875.61
	Linear fluid (dielectric constant: 78.4, screening length: 8.12261 Bohr) occupying 0.379342 of unit cell:	Completed after 2 iterations at t[s]:   9911.73
	FillingsUpdate:  mu: -0.171300000  nElectrons: 645.615189  magneticMoment: [ Abs: 0.00000  Tot: +0.00000 ]
	SubspaceRotationAdjust: set factor to 0.0392
ElecMinimize: Iter:  24  G: -4908.211439023927596  |grad|_K:  8.351e-08  alpha:  5.103e-01  linmin:  2.012e-04  t[s]:   9966.85
	Linear fluid (dielectric constant: 78.4, screening length: 8.12261 Bohr) occupying 0.379384 of unit cell:	Completed after 10 iterations at t[s]:  10018.38
	Linear fluid (dielectric constant: 78.4, screening length: 8.12261 Bohr) occupying 0.379383 of unit cell:	Completed after 0 iterations at t[s]:  10054.28
	FillingsUpdate:  mu: -0.171300000  nElectrons: 645.614530  magneticMoment: [ Abs: 0.00000  Tot: +0.00000 ]
	SubspaceRotationAdjust: set factor to 0.0436
ElecMinimize: Iter:  25  G: -4908.211440947118717  |grad|_K:  7.452e-08  alpha:  5.001e-01  linmin:  7.712e-06  t[s]:  10109.19
	Linear fluid (dielectric constant: 78.4, screening length: 8.12261 Bohr) occupying 0.379420 of unit cell:	Completed after 10 iterations at t[s]:  10160.48
	Linear fluid (dielectric constant: 78.4, screening length: 8.12261 Bohr) occupying 0.379423 of unit cell:	Completed after 1 iterations at t[s]:  10196.65
	FillingsUpdate:  mu: -0.171300000  nElectrons: 645.613972  magneticMoment: [ Abs: 0.00000  Tot: +0.00000 ]
	SubspaceRotationAdjust: set factor to 0.0482
ElecMinimize: Iter:  26  G: -4908.211442624985466  |grad|_K:  6.592e-08  alpha:  5.379e-01  linmin: -1.008e-04  t[s]:  10251.73
	Linear fluid (dielectric constant: 78.4, screening length: 8.12261 Bohr) occupying 0.379460 of unit cell:	Completed after 11 iterations at t[s]:  10303.18
	Linear fluid (dielectric constant: 78.4, screening length: 8.12261 Bohr) occupying 0.379461 of unit cell:	Completed after 0 iterations at t[s]:  10339.69
	FillingsUpdate:  mu: -0.171300000  nElectrons: 645.612170  magneticMoment: [ Abs: 0.00000  Tot: +0.00000 ]
	SubspaceRotationAdjust: set factor to 0.0475
ElecMinimize: Iter:  27  G: -4908.211444010976265  |grad|_K:  6.119e-08  alpha:  5.626e-01  linmin: -4.346e-05  t[s]:  10394.72
	Linear fluid (dielectric constant: 78.4, screening length: 8.12261 Bohr) occupying 0.379499 of unit cell:	Completed after 10 iterations at t[s]:  10446.39
	Linear fluid (dielectric constant: 78.4, screening length: 8.12261 Bohr) occupying 0.379497 of unit cell:	Completed after 0 iterations at t[s]:  10482.22
	FillingsUpdate:  mu: -0.171300000  nElectrons: 645.612075  magneticMoment: [ Abs: 0.00000  Tot: +0.00000 ]
	SubspaceRotationAdjust: set factor to 0.0448
ElecMinimize: Iter:  28  G: -4908.211445135098074  |grad|_K:  5.713e-08  alpha:  5.321e-01  linmin:  1.756e-04  t[s]:  10537.02
	Linear fluid (dielectric constant: 78.4, screening length: 8.12261 Bohr) occupying 0.379531 of unit cell:	Completed after 10 iterations at t[s]:  10588.10
	Linear fluid (dielectric constant: 78.4, screening length: 8.12261 Bohr) occupying 0.379525 of unit cell:	Completed after 2 iterations at t[s]:  10624.78
	FillingsUpdate:  mu: -0.171300000  nElectrons: 645.610880  magneticMoment: [ Abs: 0.00000  Tot: +0.00000 ]
	SubspaceRotationAdjust: set factor to 0.0416
ElecMinimize: Iter:  29  G: -4908.211445921622726  |grad|_K:  4.623e-08  alpha:  4.388e-01  linmin:  2.759e-05  t[s]:  10679.60
	Linear fluid (dielectric constant: 78.4, screening length: 8.12261 Bohr) occupying 0.379546 of unit cell:	Completed after 7 iterations at t[s]:  10730.57
	Linear fluid (dielectric constant: 78.4, screening length: 8.12261 Bohr) occupying 0.379546 of unit cell:	Completed after 0 iterations at t[s]:  10766.50
	FillingsUpdate:  mu: -0.171300000  nElectrons: 645.610825  magneticMoment: [ Abs: 0.00000  Tot: +0.00000 ]
	SubspaceRotationAdjust: set factor to 0.041
ElecMinimize: Iter:  30  G: -4908.211446452398377  |grad|_K:  3.413e-08  alpha:  4.431e-01  linmin: -1.938e-04  t[s]:  10821.60
	Linear fluid (dielectric constant: 78.4, screening length: 8.12261 Bohr) occupying 0.379559 of unit cell:	Completed after 5 iterations at t[s]:  10872.28
	Linear fluid (dielectric constant: 78.4, screening length: 8.12261 Bohr) occupying 0.379560 of unit cell:	Completed after 0 iterations at t[s]:  10908.00
	FillingsUpdate:  mu: -0.171300000  nElectrons: 645.610384  magneticMoment: [ Abs: 0.00000  Tot: +0.00000 ]
	SubspaceRotationAdjust: set factor to 0.0448
ElecMinimize: Iter:  31  G: -4908.211446763212734  |grad|_K:  2.550e-08  alpha:  4.670e-01  linmin: -1.920e-04  t[s]:  10962.94
	Linear fluid (dielectric constant: 78.4, screening length: 8.12261 Bohr) occupying 0.379569 of unit cell:	Completed after 2 iterations at t[s]:  11013.09
	Linear fluid (dielectric constant: 78.4, screening length: 8.12261 Bohr) occupying 0.379569 of unit cell:	Completed after 0 iterations at t[s]:  11048.96
	FillingsUpdate:  mu: -0.171300000  nElectrons: 645.610149  magneticMoment: [ Abs: 0.00000  Tot: +0.00000 ]
	SubspaceRotationAdjust: set factor to 0.0507
ElecMinimize: Iter:  32  G: -4908.211446928763507  |grad|_K:  2.119e-08  alpha:  4.478e-01  linmin: -4.123e-05  t[s]:  11103.81
	Linear fluid (dielectric constant: 78.4, screening length: 8.12261 Bohr) occupying 0.379576 of unit cell:	Completed after 2 iterations at t[s]:  11153.84
	Linear fluid (dielectric constant: 78.4, screening length: 8.12261 Bohr) occupying 0.379577 of unit cell:	Completed after 0 iterations at t[s]:  11189.59
	FillingsUpdate:  mu: -0.171300000  nElectrons: 645.610130  magneticMoment: [ Abs: 0.00000  Tot: +0.00000 ]
	SubspaceRotationAdjust: set factor to 0.0597
ElecMinimize: Iter:  33  G: -4908.211447054331984  |grad|_K:  1.841e-08  alpha:  4.947e-01  linmin: -1.860e-04  t[s]:  11244.37
	Linear fluid (dielectric constant: 78.4, screening length: 8.12261 Bohr) occupying 0.379585 of unit cell:	Completed after 6 iterations at t[s]:  11294.93
	Linear fluid (dielectric constant: 78.4, screening length: 8.12261 Bohr) occupying 0.379585 of unit cell:	Completed after 0 iterations at t[s]:  11330.61
	FillingsUpdate:  mu: -0.171300000  nElectrons: 645.610170  magneticMoment: [ Abs: 0.00000  Tot: +0.00000 ]
	SubspaceRotationAdjust: set factor to 0.0632
ElecMinimize: Iter:  34  G: -4908.211447148662046  |grad|_K:  2.081e-08  alpha:  4.877e-01  linmin: -2.966e-04  t[s]:  11385.48
	Linear fluid (dielectric constant: 78.4, screening length: 8.12261 Bohr) occupying 0.379597 of unit cell:	Completed after 10 iterations at t[s]:  11436.94
	Linear fluid (dielectric constant: 78.4, screening length: 8.12261 Bohr) occupying 0.379593 of unit cell:	Completed after 4 iterations at t[s]:  11473.56
	FillingsUpdate:  mu: -0.171300000  nElectrons: 645.609630  magneticMoment: [ Abs: 0.00000  Tot: +0.00000 ]
	SubspaceRotationAdjust: set factor to 0.051
ElecMinimize: Iter:  35  G: -4908.211447230656631  |grad|_K:  2.165e-08  alpha:  3.214e-01  linmin:  2.611e-04  t[s]:  11529.08
ElecMinimize: Converged (|Delta G|<1.000000e-07 for 2 iters).
Setting wave functions to eigenvectors of Hamiltonian
Converging empty states (this may take a while): |deigs|: 2.539e-04
Single-point solvation energy estimate, DeltaG = -0.006324321298962

Computing DFT-D3 correction:
# coordination-number Ag 6.868 9.175 5.360 6.877 9.201 9.211 9.212 9.207 9.212 9.212 9.211 9.202 9.212 9.210 9.200 6.871 7.668 9.200 9.211 7.668 9.202 9.211 9.212 9.207 9.212 9.212 9.211 9.201 6.877 9.212 9.175 6.868 6.871 5.360
# diagonal-C6 Ag 268.61 268.61 268.61 268.61 268.61 268.61 268.61 268.61 268.61 268.61 268.61 268.61 268.61 268.61 268.61 268.61 268.61 268.61 268.61 268.61 268.61 268.61 268.61 268.61 268.61 268.61 268.61 268.61 268.61 268.61 268.61 268.61 268.61 268.61
EvdW_6 =   -0.230517
EvdW_8 =   -0.305750

# Ionic positions in cartesian coordinates:
ion Ag   0.000000000000000  13.146506000000000   1.394409000000000 1
ion Ag   0.000000000000000  17.090468999999999   5.112771000000000 1
ion Ag   0.000000000000000   0.000000000000000  31.141556999999999 1
ion Ag   0.000000000000000   3.943963000000000   3.253622000000000 1
ion Ag   0.000000000000000   7.887903000000000   6.971984000000000 1
ion Ag   0.000000000000000  11.831866000000002  10.690409000000001 1
ion Ag   0.000000000000000  19.719770000000000  18.127196000000001 1
ion Ag   0.000000000000000  21.034409000000000   8.831196000000000 1
ion Ag   0.000000000000000   2.629301000000000  12.549557999999999 1
ion Ag   0.000000000000000   6.573264000000000  16.267983000000001 1
ion Ag   0.000000000000000  10.517205000000001  19.986345000000000 1
ion Ag   0.000000000000000  14.461167000000001  23.704770000000000 1
ion Ag   0.000000000000000  15.775807000000000  14.408771000000000 1
ion Ag   0.000000000000000   1.314662000000000  21.845558000000000 1
ion Ag   0.000000000000000   5.258602000000000  25.563983000000000 1
ion Ag   0.000000000000000   9.202565000000000  29.282343999999998 1
ion Ag   0.000000000000000  18.405107999999998  27.423194999999996 1
ion Ag   2.710223000000000  12.489197000000003   6.042378000000000 1
ion Ag   2.710223000000000  16.433138000000000   9.760802999999999 1
ion Ag   2.710223000000000  21.691739999999999   4.183165000000000 1
ion Ag   2.710223000000000   3.286632000000000   7.901590000000000 1
ion Ag   2.710223000000000   7.230573000000001  11.620015000000000 1
ion Ag   2.710223000000000  11.174535000000001  15.338376999999999 1
ion Ag   2.710223000000000  19.062439000000001  22.775163999999997 1
ion Ag   2.710223000000000  20.377101000000000  13.479164000000001 1
ion Ag   2.710223000000000   1.971970000000000  17.197589000000001 1
ion Ag   2.710223000000000   5.915933000000001  20.915951000000000 1
ion Ag   2.710223000000000   9.859874000000000  24.634376000000000 1
ion Ag   2.710223000000000  13.803837000000000  28.352737999999995 1
ion Ag   2.710223000000000  15.118498000000002  19.056802000000001 1
ion Ag   2.710223000000000   0.657331000000000  26.493589000000000 1
ion Ag   2.710223000000000   4.601271000000000  30.211950999999999 1
ion Ag   2.710223000000000   8.545234000000001   2.324016000000000 1
ion Ag   2.710223000000000  17.747799000000001   0.464803000000000 1

# Forces in Cartesian coordinates:
force Ag  -0.000010363261761  -0.001196766325601  -0.002954443185452 1
force Ag   0.000001541667158   0.001700887080959  -0.000535152640845 1
force Ag   0.000015060016633  -0.001436764405429  -0.001555445369233 1
force Ag  -0.000011378172116  -0.000909330674400  -0.002823739807868 1
force Ag   0.000001601541008  -0.000161893423670   0.001566492162997 1
force Ag   0.000000270739132  -0.000248642086719  -0.000694210078166 1
force Ag   0.000000177416717   0.000283764703923  -0.000459635739173 1
force Ag  -0.000000869692250  -0.000552228752157   0.001073617446945 1
force Ag  -0.000002920683626  -0.000424533505945  -0.000126705967631 1
force Ag  -0.000000973784437   0.000028411037797  -0.000264187737090 1
force Ag   0.000000643205149  -0.000243382718342   0.000756099135152 1
force Ag   0.000000644706877   0.000708293210735  -0.000831875310377 1
force Ag   0.000000154340661   0.000198803926228   0.000109450591732 1
force Ag  -0.000000698025517   0.000178535806509   0.000986188837507 1
force Ag  -0.000002954296707   0.000087828103215  -0.001905769352829 1
force Ag   0.000002560091125   0.000529176401337   0.002818904639199 1
force Ag   0.000015548313284  -0.001235410862231   0.005044086189904 1
force Ag   0.000003489104826  -0.000004478348314   0.001905906138257 1
force Ag   0.000000544722409  -0.000090464196953  -0.000969767893048 1
force Ag  -0.000016507325096   0.001126007136367  -0.005044349789552 1
force Ag  -0.000001057203685  -0.000821389574477   0.000838876601441 1
force Ag  -0.000000325592097   0.000137466257659  -0.000743364018560 1
force Ag   0.000000239073084  -0.000108076309041   0.000277309651904 1
force Ag   0.000000721646185   0.000545667914508  -0.001075882437108 1
force Ag  -0.000000272035988  -0.000213631932329   0.000480711135134 1
force Ag  -0.000000723273097  -0.000140571064574  -0.000091333804316 1
force Ag  -0.000000742013098   0.000268892285425   0.000700586790161 1
force Ag  -0.000002613596457   0.000157025664395  -0.001579586346422 1
force Ag   0.000010808834733   0.000860594367969   0.002783760197290 1
force Ag   0.000001910188021   0.000375993978030   0.000132302454402 1
force Ag  -0.000002879380533  -0.001671917476930   0.000519009278539 1
force Ag   0.000008589046560   0.001268346426070   0.002925619321465 1
force Ag  -0.000003528241105  -0.000442540476620  -0.002834029661029 1
force Ag  -0.000016092632950   0.001188678524102   0.001537742328714 1

# Energy components:
   A_diel =        0.1142717666799205
   Eewald =    24965.2677996166312369
       EH =    29586.5289288179046707
     Eloc =   -60359.1541498323131236
      Enl =      134.0866740343366814
     EvdW =       -0.5362672209783923
      Exc =     -492.7734160403242640
 Exc_core =        7.0778066794394601
       KE =     1140.5523179344963864
  MuShift =        0.0326745243502088
-------------------------------------
     Etot =    -5018.8033597197772906
       TS =        0.0010171636328968
-------------------------------------
        F =    -5018.8043768834104412
      muN =     -110.5929296527536394
-------------------------------------
        G =    -4908.2114472306566313


Dumping 'jdft.fillings' ... done
Dumping 'jdft.wfns' ... done
Dumping 'jdft.fluidState' ... done
Dumping 'jdft.ionpos' ... done
Dumping 'jdft.lattice' ... done
Dumping 'jdft.eigenvals' ... done
Dumping 'jdft.eigStats' ... 
	eMin: -3.557602 at state 0 ( [ +0.000000 +0.000000 +0.000000 ] spin 1 )
	HOMO: -0.171531 at state 39 ( [ -0.272727 +0.500000 +0.000000 ] spin -1 )
	mu  : -0.171300
	LUMO: -0.170995 at state 18 ( [ -0.181818 +0.000000 +0.000000 ] spin 1 )
	eMax: +0.186357 at state 2 ( [ +0.090909 +0.000000 +0.000000 ] spin 1 )
	HOMO-LUMO gap: +0.000536
	Optical gap  : +0.000693 at state 29 ( [ +0.272727 +0.500000 +0.000000 ] spin -1 )
Dumping 'jdft.Ecomponents' ... done
IonicMinimize: Iter:   0  G: -4908.211447230656631  |grad|_K:  1.194e-03  t[s]:  12153.42

#--- Lowdin population analysis ---
# oxidation-state Ag +0.044 -0.039 +0.173 +0.063 -0.006 +0.005 +0.003 +0.000 +0.004 +0.001 +0.004 -0.007 -0.000 +0.001 -0.004 +0.055 -0.011 -0.004 +0.001 -0.011 -0.007 +0.004 +0.001 +0.000 +0.003 -0.000 +0.005 -0.006 +0.063 +0.004 -0.039 +0.044 +0.055 +0.173
# magnetic-moments Ag -0.000 +0.000 +0.000 +0.000 +0.000 +0.000 +0.000 +0.000 +0.000 +0.000 +0.000 +0.000 +0.000 +0.000 +0.000 +0.000 +0.000 +0.000 +0.000 +0.000 +0.000 +0.000 +0.000 +0.000 +0.000 +0.000 +0.000 +0.000 +0.000 +0.000 +0.000 +0.000 +0.000 +0.000


Computing DFT-D3 correction:
# coordination-number Ag 6.860 9.173 5.363 6.873 9.197 9.213 9.214 9.203 9.212 9.210 9.213 9.198 9.211 9.211 9.195 6.865 7.665 9.194 9.211 7.665 9.198 9.213 9.210 9.203 9.214 9.211 9.214 9.197 6.873 9.212 9.173 6.859 6.865 5.364
# diagonal-C6 Ag 268.61 268.61 268.61 268.61 268.61 268.61 268.61 268.61 268.61 268.61 268.61 268.61 268.61 268.61 268.61 268.61 268.61 268.61 268.61 268.61 268.61 268.61 268.61 268.61 268.61 268.61 268.61 268.61 268.61 268.61 268.61 268.61 268.61 268.61
EvdW_6 =   -0.230501
EvdW_8 =   -0.305719
Shifting auxilliary hamiltonian by 0.000077 to set nElectrons=645.609630

-------- Electronic minimization -----------
	Linear fluid (dielectric constant: 78.4, screening length: 8.12261 Bohr) occupying 0.379541 of unit cell:	Completed after 16 iterations at t[s]:  12211.80
	FillingsUpdate:  mu: -0.171300000  nElectrons: 645.609630  magneticMoment: [ Abs: 0.00000  Tot: +0.00000 ]
ElecMinimize: Iter:   0  G: -4908.211531937633481  |grad|_K:  3.191e-07  alpha:  1.000e+00
	Linear fluid (dielectric constant: 78.4, screening length: 8.12261 Bohr) occupying 0.379553 of unit cell:	Completed after 17 iterations at t[s]:  12326.84
	Linear fluid (dielectric constant: 78.4, screening length: 8.12261 Bohr) occupying 0.379543 of unit cell:	Completed after 15 iterations at t[s]:  12365.26
	FillingsUpdate:  mu: -0.171300000  nElectrons: 645.604511  magneticMoment: [ Abs: 0.00000  Tot: +0.00000 ]
	SubspaceRotationAdjust: set factor to 0.0377
ElecMinimize: Iter:   1  G: -4908.211541622486948  |grad|_K:  1.084e-07  alpha:  1.708e-01  linmin:  9.753e-04  t[s]:  12420.24
	Linear fluid (dielectric constant: 78.4, screening length: 8.12261 Bohr) occupying 0.379545 of unit cell:	Completed after 9 iterations at t[s]:  12471.32
ElecMinimize: 	Predicted alpha/alphaT>3.000000, increasing alphaT to 5.123856e-01.
	Linear fluid (dielectric constant: 78.4, screening length: 8.12261 Bohr) occupying 0.379548 of unit cell:	Completed after 11 iterations at t[s]:  12508.77
	Linear fluid (dielectric constant: 78.4, screening length: 8.12261 Bohr) occupying 0.379550 of unit cell:	Completed after 11 iterations at t[s]:  12546.65
	FillingsUpdate:  mu: -0.171300000  nElectrons: 645.607126  magneticMoment: [ Abs: 0.00000  Tot: +0.00000 ]
	SubspaceRotationAdjust: set factor to 0.0517
ElecMinimize: Iter:   2  G: -4908.211546874264968  |grad|_K:  1.011e-07  alpha:  8.023e-01  linmin:  9.235e-06  t[s]:  12601.53
	Linear fluid (dielectric constant: 78.4, screening length: 8.12261 Bohr) occupying 0.379561 of unit cell:	Completed after 7 iterations at t[s]:  12652.41
	Linear fluid (dielectric constant: 78.4, screening length: 8.12261 Bohr) occupying 0.379561 of unit cell:	Completed after 2 iterations at t[s]:  12688.70
	FillingsUpdate:  mu: -0.171300000  nElectrons: 645.608853  magneticMoment: [ Abs: 0.00000  Tot: +0.00000 ]
	SubspaceRotationAdjust: set factor to 0.0588
ElecMinimize: Iter:   3  G: -4908.211551688264990  |grad|_K:  1.315e-07  alpha:  8.393e-01  linmin:  3.859e-05  t[s]:  12743.49
	Linear fluid (dielectric constant: 78.4, screening length: 8.12261 Bohr) occupying 0.379579 of unit cell:	Completed after 12 iterations at t[s]:  12795.39
	Linear fluid (dielectric constant: 78.4, screening length: 8.12261 Bohr) occupying 0.379574 of unit cell:	Completed after 6 iterations at t[s]:  12832.15
	FillingsUpdate:  mu: -0.171300000  nElectrons: 645.610924  magneticMoment: [ Abs: 0.00000  Tot: +0.00000 ]
	SubspaceRotationAdjust: set factor to 0.0663
ElecMinimize: Iter:   4  G: -4908.211557415799689  |grad|_K:  1.435e-07  alpha:  5.916e-01  linmin: -6.728e-07  t[s]:  12887.25
	Linear fluid (dielectric constant: 78.4, screening length: 8.12261 Bohr) occupying 0.379583 of unit cell:	Completed after 11 iterations at t[s]:  12938.73
	Linear fluid (dielectric constant: 78.4, screening length: 8.12261 Bohr) occupying 0.379585 of unit cell:	Completed after 5 iterations at t[s]:  12975.42
	FillingsUpdate:  mu: -0.171300000  nElectrons: 645.611330  magneticMoment: [ Abs: 0.00000  Tot: +0.00000 ]
	SubspaceRotationAdjust: set factor to 0.0705
ElecMinimize: Iter:   5  G: -4908.211565717176200  |grad|_K:  1.506e-07  alpha:  7.168e-01  linmin: -5.225e-05  t[s]:  13030.53
	Linear fluid (dielectric constant: 78.4, screening length: 8.12261 Bohr) occupying 0.379586 of unit cell:	Completed after 13 iterations at t[s]:  13082.22
	Linear fluid (dielectric constant: 78.4, screening length: 8.12261 Bohr) occupying 0.379586 of unit cell:	Completed after 11 iterations at t[s]:  13119.95
	FillingsUpdate:  mu: -0.171300000  nElectrons: 645.614609  magneticMoment: [ Abs: 0.00000  Tot: +0.00000 ]
	SubspaceRotationAdjust: set factor to 0.0618
ElecMinimize: Iter:   6  G: -4908.211571582974102  |grad|_K:  1.636e-07  alpha:  4.563e-01  linmin:  1.933e-05  t[s]:  13174.89
	Linear fluid (dielectric constant: 78.4, screening length: 8.12261 Bohr) occupying 0.379582 of unit cell:	Completed after 13 iterations at t[s]:  13226.84
	Linear fluid (dielectric constant: 78.4, screening length: 8.12261 Bohr) occupying 0.379583 of unit cell:	Completed after 11 iterations at t[s]:  13264.69
	FillingsUpdate:  mu: -0.171300000  nElectrons: 645.611514  magneticMoment: [ Abs: 0.00000  Tot: +0.00000 ]
	SubspaceRotationAdjust: set factor to 0.0465
ElecMinimize: Iter:   7  G: -4908.211576268545286  |grad|_K:  1.227e-07  alpha:  3.124e-01  linmin:  4.689e-06  t[s]:  13319.28
	Linear fluid (dielectric constant: 78.4, screening length: 8.12261 Bohr) occupying 0.379580 of unit cell:	Completed after 9 iterations at t[s]:  13370.41
	Linear fluid (dielectric constant: 78.4, screening length: 8.12261 Bohr) occupying 0.379578 of unit cell:	Completed after 6 iterations at t[s]:  13407.63
	FillingsUpdate:  mu: -0.171300000  nElectrons: 645.611803  magneticMoment: [ Abs: 0.00000  Tot: +0.00000 ]
	SubspaceRotationAdjust: set factor to 0.0539
ElecMinimize: Iter:   8  G: -4908.211580123947897  |grad|_K:  9.348e-08  alpha:  4.561e-01  linmin: -6.612e-06  t[s]:  13462.73
	Linear fluid (dielectric constant: 78.4, screening length: 8.12261 Bohr) occupying 0.379575 of unit cell:	Completed after 9 iterations at t[s]:  13513.93
	Linear fluid (dielectric constant: 78.4, screening length: 8.12261 Bohr) occupying 0.379575 of unit cell:	Completed after 0 iterations at t[s]:  13549.88
	FillingsUpdate:  mu: -0.171300000  nElectrons: 645.611784  magneticMoment: [ Abs: 0.00000  Tot: +0.00000 ]
	SubspaceRotationAdjust: set factor to 0.0588
ElecMinimize: Iter:   9  G: -4908.211582502634883  |grad|_K:  6.960e-08  alpha:  4.843e-01  linmin: -7.749e-05  t[s]:  13604.59
	Linear fluid (dielectric constant: 78.4, screening length: 8.12261 Bohr) occupying 0.379577 of unit cell:	Completed after 11 iterations at t[s]:  13656.07
	Linear fluid (dielectric constant: 78.4, screening length: 8.12261 Bohr) occupying 0.379577 of unit cell:	Completed after 0 iterations at t[s]:  13691.95
	FillingsUpdate:  mu: -0.171300000  nElectrons: 645.610264  magneticMoment: [ Abs: 0.00000  Tot: +0.00000 ]
	SubspaceRotationAdjust: set factor to 0.0541
ElecMinimize: Iter:  10  G: -4908.211583733895168  |grad|_K:  6.438e-08  alpha:  4.492e-01  linmin:  5.094e-04  t[s]:  13746.62
	Linear fluid (dielectric constant: 78.4, screening length: 8.12261 Bohr) occupying 0.379582 of unit cell:	Completed after 10 iterations at t[s]:  13797.89
	Linear fluid (dielectric constant: 78.4, screening length: 8.12261 Bohr) occupying 0.379580 of unit cell:	Completed after 9 iterations at t[s]:  13835.48
	FillingsUpdate:  mu: -0.171300000  nElectrons: 645.610803  magneticMoment: [ Abs: 0.00000  Tot: +0.00000 ]
	SubspaceRotationAdjust: set factor to 0.0411
ElecMinimize: Iter:  11  G: -4908.211584364400551  |grad|_K:  4.481e-08  alpha:  2.860e-01  linmin: -1.740e-04  t[s]:  13890.29
	Linear fluid (dielectric constant: 78.4, screening length: 8.12261 Bohr) occupying 0.379583 of unit cell:	Completed after 7 iterations at t[s]:  13941.96
	Linear fluid (dielectric constant: 78.4, screening length: 8.12261 Bohr) occupying 0.379585 of unit cell:	Completed after 2 iterations at t[s]:  13978.34
	FillingsUpdate:  mu: -0.171300000  nElectrons: 645.609970  magneticMoment: [ Abs: 0.00000  Tot: +0.00000 ]
	SubspaceRotationAdjust: set factor to 0.0494
ElecMinimize: Iter:  12  G: -4908.211584821426186  |grad|_K:  3.095e-08  alpha:  3.993e-01  linmin: -4.457e-04  t[s]:  14033.36
	Linear fluid (dielectric constant: 78.4, screening length: 8.12261 Bohr) occupying 0.379588 of unit cell:	Completed after 7 iterations at t[s]:  14084.10
	Linear fluid (dielectric constant: 78.4, screening length: 8.12261 Bohr) occupying 0.379588 of unit cell:	Completed after 0 iterations at t[s]:  14119.90
	FillingsUpdate:  mu: -0.171300000  nElectrons: 645.609384  magneticMoment: [ Abs: 0.00000  Tot: +0.00000 ]
	SubspaceRotationAdjust: set factor to 0.0485
ElecMinimize: Iter:  13  G: -4908.211585013826152  |grad|_K:  2.603e-08  alpha:  3.537e-01  linmin: -1.844e-04  t[s]:  14174.97
	Linear fluid (dielectric constant: 78.4, screening length: 8.12261 Bohr) occupying 0.379591 of unit cell:	Completed after 9 iterations at t[s]:  14226.86
	Linear fluid (dielectric constant: 78.4, screening length: 8.12261 Bohr) occupying 0.379590 of unit cell:	Completed after 3 iterations at t[s]:  14263.34
	FillingsUpdate:  mu: -0.171300000  nElectrons: 645.609543  magneticMoment: [ Abs: 0.00000  Tot: +0.00000 ]
	SubspaceRotationAdjust: set factor to 0.0368
ElecMinimize: Iter:  14  G: -4908.211585111741442  |grad|_K:  1.841e-08  alpha:  2.617e-01  linmin:  1.597e-04  t[s]:  14318.41
	Linear fluid (dielectric constant: 78.4, screening length: 8.12261 Bohr) occupying 0.379592 of unit cell:	Completed after 2 iterations at t[s]:  14368.49
	Linear fluid (dielectric constant: 78.4, screening length: 8.12261 Bohr) occupying 0.379592 of unit cell:	Completed after 0 iterations at t[s]:  14404.46
	FillingsUpdate:  mu: -0.171300000  nElectrons: 645.609278  magneticMoment: [ Abs: 0.00000  Tot: +0.00000 ]
	SubspaceRotationAdjust: set factor to 0.0513
ElecMinimize: Iter:  15  G: -4908.211585176940389  |grad|_K:  1.326e-08  alpha:  3.363e-01  linmin: -1.456e-03  t[s]:  14459.67
ElecMinimize: Converged (|Delta G|<1.000000e-07 for 2 iters).
Setting wave functions to eigenvectors of Hamiltonian
Converging empty states (this may take a while): |deigs|: 8.947e-09

Computing DFT-D3 correction:
# coordination-number Ag 6.860 9.173 5.363 6.873 9.197 9.213 9.214 9.203 9.212 9.210 9.213 9.198 9.211 9.211 9.195 6.865 7.665 9.194 9.211 7.665 9.198 9.213 9.210 9.203 9.214 9.211 9.214 9.197 6.873 9.212 9.173 6.859 6.865 5.364
# diagonal-C6 Ag 268.61 268.61 268.61 268.61 268.61 268.61 268.61 268.61 268.61 268.61 268.61 268.61 268.61 268.61 268.61 268.61 268.61 268.61 268.61 268.61 268.61 268.61 268.61 268.61 268.61 268.61 268.61 268.61 268.61 268.61 268.61 268.61 268.61 268.61
[...]
	Linear fluid (dielectric constant: 78.4, screening length: 8.12261 Bohr) occupying 0.375681 of unit cell:	Completed after 11 iterations at t[s]:  76714.42
	FillingsUpdate:  mu: -0.171300000  nElectrons: 645.634588  magneticMoment: [ Abs: 0.00000  Tot: -0.00000 ]
	SubspaceRotationAdjust: set factor to 0.0492
ElecMinimize: Iter:   5  G: -4908.213765400145348  |grad|_K:  3.967e-07  alpha:  3.246e-01  linmin:  6.292e-06  t[s]:  76769.16
	Linear fluid (dielectric constant: 78.4, screening length: 8.12261 Bohr) occupying 0.375678 of unit cell:	Completed after 11 iterations at t[s]:  76820.54
	Linear fluid (dielectric constant: 78.4, screening length: 8.12261 Bohr) occupying 0.375677 of unit cell:	Completed after 7 iterations at t[s]:  76857.59
	FillingsUpdate:  mu: -0.171300000  nElectrons: 645.632706  magneticMoment: [ Abs: 0.00000  Tot: -0.00000 ]
	SubspaceRotationAdjust: set factor to 0.0569
ElecMinimize: Iter:   6  G: -4908.213803239955269  |grad|_K:  2.847e-07  alpha:  4.282e-01  linmin: -5.916e-06  t[s]:  76912.24
	Linear fluid (dielectric constant: 78.4, screening length: 8.12261 Bohr) occupying 0.375677 of unit cell:	Completed after 13 iterations at t[s]:  76964.25
	Linear fluid (dielectric constant: 78.4, screening length: 8.12261 Bohr) occupying 0.375677 of unit cell:	Completed after 6 iterations at t[s]:  77001.40
	FillingsUpdate:  mu: -0.171300000  nElectrons: 645.628863  magneticMoment: [ Abs: 0.00000  Tot: -0.00000 ]
	SubspaceRotationAdjust: set factor to 0.052
ElecMinimize: Iter:   7  G: -4908.213821655261199  |grad|_K:  2.241e-07  alpha:  4.043e-01  linmin: -6.435e-07  t[s]:  77056.37
	Linear fluid (dielectric constant: 78.4, screening length: 8.12261 Bohr) occupying 0.375673 of unit cell:	Completed after 13 iterations at t[s]:  77108.09
	Linear fluid (dielectric constant: 78.4, screening length: 8.12261 Bohr) occupying 0.375674 of unit cell:	Completed after 11 iterations at t[s]:  77145.85
	FillingsUpdate:  mu: -0.171300000  nElectrons: 645.632070  magneticMoment: [ Abs: 0.00000  Tot: -0.00000 ]
	SubspaceRotationAdjust: set factor to 0.0357
ElecMinimize: Iter:   8  G: -4908.213830029391829  |grad|_K:  1.437e-07  alpha:  2.973e-01  linmin: -1.792e-05  t[s]:  77200.75
	Linear fluid (dielectric constant: 78.4, screening length: 8.12261 Bohr) occupying 0.375673 of unit cell:	Completed after 11 iterations at t[s]:  77253.07
	Linear fluid (dielectric constant: 78.4, screening length: 8.12261 Bohr) occupying 0.375673 of unit cell:	Completed after 7 iterations at t[s]:  77290.36
	FillingsUpdate:  mu: -0.171300000  nElectrons: 645.630390  magneticMoment: [ Abs: 0.00000  Tot: -0.00000 ]
	SubspaceRotationAdjust: set factor to 0.0352
ElecMinimize: Iter:   9  G: -4908.213834104109083  |grad|_K:  9.785e-08  alpha:  3.509e-01  linmin: -8.355e-06  t[s]:  77345.47
	Linear fluid (dielectric constant: 78.4, screening length: 8.12261 Bohr) occupying 0.375671 of unit cell:	Completed after 7 iterations at t[s]:  77396.32
	Linear fluid (dielectric constant: 78.4, screening length: 8.12261 Bohr) occupying 0.375671 of unit cell:	Completed after 0 iterations at t[s]:  77432.36
	FillingsUpdate:  mu: -0.171300000  nElectrons: 645.629824  magneticMoment: [ Abs: 0.00000  Tot: -0.00000 ]
	SubspaceRotationAdjust: set factor to 0.0395
ElecMinimize: Iter:  10  G: -4908.213835959327298  |grad|_K:  6.096e-08  alpha:  3.450e-01  linmin:  1.174e-04  t[s]:  77487.12
	Linear fluid (dielectric constant: 78.4, screening length: 8.12261 Bohr) occupying 0.375669 of unit cell:	Completed after 10 iterations at t[s]:  77539.14
	Linear fluid (dielectric constant: 78.4, screening length: 8.12261 Bohr) occupying 0.375669 of unit cell:	Completed after 2 iterations at t[s]:  77575.48
	FillingsUpdate:  mu: -0.171300000  nElectrons: 645.630558  magneticMoment: [ Abs: 0.00000  Tot: -0.00000 ]
	SubspaceRotationAdjust: set factor to 0.0366
ElecMinimize: Iter:  11  G: -4908.213836802400692  |grad|_K:  4.149e-08  alpha:  4.040e-01  linmin: -1.008e-03  t[s]:  77630.39
	Linear fluid (dielectric constant: 78.4, screening length: 8.12261 Bohr) occupying 0.375668 of unit cell:	Completed after 6 iterations at t[s]:  77681.21
	Linear fluid (dielectric constant: 78.4, screening length: 8.12261 Bohr) occupying 0.375668 of unit cell:	Completed after 0 iterations at t[s]:  77717.12
	FillingsUpdate:  mu: -0.171300000  nElectrons: 645.630179  magneticMoment: [ Abs: 0.00000  Tot: -0.00000 ]
	SubspaceRotationAdjust: set factor to 0.0444
ElecMinimize: Iter:  12  G: -4908.213837238495216  |grad|_K:  3.341e-08  alpha:  4.403e-01  linmin: -1.819e-04  t[s]:  77771.74
	Linear fluid (dielectric constant: 78.4, screening length: 8.12261 Bohr) occupying 0.375668 of unit cell:	Completed after 7 iterations at t[s]:  77822.71
	Linear fluid (dielectric constant: 78.4, screening length: 8.12261 Bohr) occupying 0.375668 of unit cell:	Completed after 0 iterations at t[s]:  77858.73
	FillingsUpdate:  mu: -0.171300000  nElectrons: 645.629797  magneticMoment: [ Abs: 0.00000  Tot: -0.00000 ]
	SubspaceRotationAdjust: set factor to 0.0496
ElecMinimize: Iter:  13  G: -4908.213837504025832  |grad|_K:  3.307e-08  alpha:  4.213e-01  linmin: -1.704e-04  t[s]:  77913.62
	Linear fluid (dielectric constant: 78.4, screening length: 8.12261 Bohr) occupying 0.375667 of unit cell:	Completed after 10 iterations at t[s]:  77964.87
	Linear fluid (dielectric constant: 78.4, screening length: 8.12261 Bohr) occupying 0.375667 of unit cell:	Completed after 0 iterations at t[s]:  78000.82
	FillingsUpdate:  mu: -0.171300000  nElectrons: 645.630213  magneticMoment: [ Abs: 0.00000  Tot: -0.00000 ]
	SubspaceRotationAdjust: set factor to 0.046
ElecMinimize: Iter:  14  G: -4908.213837749784034  |grad|_K:  3.336e-08  alpha:  3.980e-01  linmin:  3.411e-05  t[s]:  78055.66
	Linear fluid (dielectric constant: 78.4, screening length: 8.12261 Bohr) occupying 0.375667 of unit cell:	Completed after 3 iterations at t[s]:  78105.97
	Linear fluid (dielectric constant: 78.4, screening length: 8.12261 Bohr) occupying 0.375667 of unit cell:	Completed after 3 iterations at t[s]:  78142.71
	FillingsUpdate:  mu: -0.171300000  nElectrons: 645.629873  magneticMoment: [ Abs: 0.00000  Tot: -0.00000 ]
	SubspaceRotationAdjust: set factor to 0.0551
ElecMinimize: Iter:  15  G: -4908.213838037836467  |grad|_K:  3.428e-08  alpha:  4.658e-01  linmin:  2.392e-04  t[s]:  78197.80
	Linear fluid (dielectric constant: 78.4, screening length: 8.12261 Bohr) occupying 0.375668 of unit cell:	Completed after 9 iterations at t[s]:  78249.27
	Linear fluid (dielectric constant: 78.4, screening length: 8.12261 Bohr) occupying 0.375667 of unit cell:	Completed after 1 iterations at t[s]:  78285.33
	FillingsUpdate:  mu: -0.171300000  nElectrons: 645.629269  magneticMoment: [ Abs: 0.00000  Tot: -0.00000 ]
	SubspaceRotationAdjust: set factor to 0.0527
ElecMinimize: Iter:  16  G: -4908.213838295699134  |grad|_K:  3.753e-08  alpha:  4.024e-01  linmin:  4.218e-05  t[s]:  78340.44
	Linear fluid (dielectric constant: 78.4, screening length: 8.12261 Bohr) occupying 0.375667 of unit cell:	Completed after 10 iterations at t[s]:  78391.87
	Linear fluid (dielectric constant: 78.4, screening length: 8.12261 Bohr) occupying 0.375667 of unit cell:	Completed after 5 iterations at t[s]:  78428.93
	FillingsUpdate:  mu: -0.171300000  nElectrons: 645.629758  magneticMoment: [ Abs: 0.00000  Tot: -0.00000 ]
	SubspaceRotationAdjust: set factor to 0.0436
ElecMinimize: Iter:  17  G: -4908.213838527380176  |grad|_K:  3.113e-08  alpha:  2.984e-01  linmin: -1.165e-05  t[s]:  78483.93
	Linear fluid (dielectric constant: 78.4, screening length: 8.12261 Bohr) occupying 0.375667 of unit cell:	Completed after 2 iterations at t[s]:  78534.03
	Linear fluid (dielectric constant: 78.4, screening length: 8.12261 Bohr) occupying 0.375667 of unit cell:	Completed after 2 iterations at t[s]:  78570.28
	FillingsUpdate:  mu: -0.171300000  nElectrons: 645.629731  magneticMoment: [ Abs: 0.00000  Tot: -0.00000 ]
	SubspaceRotationAdjust: set factor to 0.0544
ElecMinimize: Iter:  18  G: -4908.213838761152147  |grad|_K:  2.691e-08  alpha:  4.308e-01  linmin:  7.383e-05  t[s]:  78624.99
	Linear fluid (dielectric constant: 78.4, screening length: 8.12261 Bohr) occupying 0.375667 of unit cell:	Completed after 9 iterations at t[s]:  78676.43
	Linear fluid (dielectric constant: 78.4, screening length: 8.12261 Bohr) occupying 0.375667 of unit cell:	Completed after 0 iterations at t[s]:  78712.49
	FillingsUpdate:  mu: -0.171300000  nElectrons: 645.629385  magneticMoment: [ Abs: 0.00000  Tot: -0.00000 ]
	SubspaceRotationAdjust: set factor to 0.0487
ElecMinimize: Iter:  19  G: -4908.213838913994550  |grad|_K:  2.478e-08  alpha:  3.775e-01  linmin:  2.815e-04  t[s]:  78767.49
	Linear fluid (dielectric constant: 78.4, screening length: 8.12261 Bohr) occupying 0.375667 of unit cell:	Completed after 10 iterations at t[s]:  78818.95
	Linear fluid (dielectric constant: 78.4, screening length: 8.12261 Bohr) occupying 0.375667 of unit cell:	Completed after 2 iterations at t[s]:  78855.30
	FillingsUpdate:  mu: -0.171300000  nElectrons: 645.629796  magneticMoment: [ Abs: 0.00000  Tot: -0.00000 ]
	SubspaceRotationAdjust: set factor to 0.0399
ElecMinimize: Iter:  20  G: -4908.213839011926211  |grad|_K:  2.065e-08  alpha:  2.940e-01  linmin:  1.750e-04  t[s]:  78910.09
	Linear fluid (dielectric constant: 78.4, screening length: 8.12261 Bohr) occupying 0.375666 of unit cell:	Completed after 2 iterations at t[s]:  78960.12
	Linear fluid (dielectric constant: 78.4, screening length: 8.12261 Bohr) occupying 0.375666 of unit cell:	Completed after 2 iterations at t[s]:  78996.46
	FillingsUpdate:  mu: -0.171300000  nElectrons: 645.629802  magneticMoment: [ Abs: 0.00000  Tot: -0.00000 ]
	SubspaceRotationAdjust: set factor to 0.0537
ElecMinimize: Iter:  21  G: -4908.213839114686380  |grad|_K:  1.559e-08  alpha:  4.343e-01  linmin: -4.709e-04  t[s]:  79051.38
	Linear fluid (dielectric constant: 78.4, screening length: 8.12261 Bohr) occupying 0.375665 of unit cell:	Completed after 7 iterations at t[s]:  79102.31
	Linear fluid (dielectric constant: 78.4, screening length: 8.12261 Bohr) occupying 0.375665 of unit cell:	Completed after 0 iterations at t[s]:  79138.09
	FillingsUpdate:  mu: -0.171300000  nElectrons: 645.629694  magneticMoment: [ Abs: 0.00000  Tot: -0.00000 ]
	SubspaceRotationAdjust: set factor to 0.0477
ElecMinimize: Iter:  22  G: -4908.213839167377046  |grad|_K:  1.666e-08  alpha:  3.841e-01  linmin: -6.876e-04  t[s]:  79192.96
	Linear fluid (dielectric constant: 78.4, screening length: 8.12261 Bohr) occupying 0.375664 of unit cell:	Completed after 7 iterations at t[s]:  79243.81
	Linear fluid (dielectric constant: 78.4, screening length: 8.12261 Bohr) occupying 0.375664 of unit cell:	Completed after 0 iterations at t[s]:  79279.77
	FillingsUpdate:  mu: -0.171300000  nElectrons: 645.630059  magneticMoment: [ Abs: 0.00000  Tot: -0.00000 ]
	SubspaceRotationAdjust: set factor to 0.0368
ElecMinimize: Iter:  23  G: -4908.213839214318796  |grad|_K:  1.463e-08  alpha:  2.865e-01  linmin:  1.604e-03  t[s]:  79334.66
ElecMinimize: Converged (|Delta G|<1.000000e-07 for 2 iters).
Setting wave functions to eigenvectors of Hamiltonian
Converging empty states (this may take a while): |deigs|: 6.762e-09

Computing DFT-D3 correction:
# coordination-number Ag 6.751 9.047 5.437 6.802 8.993 9.094 9.104 8.999 9.083 9.084 9.092 9.008 9.092 9.107 8.980 6.760 7.514 8.980 9.110 7.511 9.007 9.089 9.082 8.998 9.106 9.093 9.096 8.997 6.800 9.083 9.042 6.741 6.764 5.442
# diagonal-C6 Ag 268.61 268.61 268.61 268.61 268.61 268.61 268.61 268.61 268.61 268.61 268.61 268.61 268.61 268.61 268.61 268.61 268.61 268.61 268.61 268.61 268.61 268.61 268.61 268.61 268.61 268.61 268.61 268.61 268.61 268.61 268.61 268.61 268.61 268.61
EvdW_6 =   -0.228515
EvdW_8 =   -0.302735

# Ionic positions in cartesian coordinates:
ion Ag  -0.001527969344548  13.125732398604852   1.268263221394100 1
ion Ag  -0.000557024130587  17.140859505211392   5.053987271341295 1
ion Ag   0.001535701706240  -0.016653718535819  31.168929340837270 1
ion Ag  -0.001419831460319   3.966975921972014   3.066642959460919 1
ion Ag  -0.000603923735765   7.868389684968768   6.895265132596815 1
ion Ag  -0.000141131080906  11.807623661588533  10.660441382003901 1
ion Ag   0.000035536463141  19.739500632608312  18.142376539793446 1
ion Ag  -0.000350672982539  21.020598878708181   8.765073119343324 1
ion Ag  -0.000136697098753   2.603078500005099  12.507065980102412 1
ion Ag  -0.000048172113966   6.578312574262121  16.254832276170585 1
ion Ag   0.000199723792987  10.539846716398602  20.040008339072156 1
ion Ag   0.000367642574138  14.494041910038904  23.793894107693355 1
ion Ag  -0.000006618234502  15.765649414298549  14.408612441375668 1
ion Ag   0.000126320397899   1.332259925645516  21.889291151029830 1
ion Ag   0.000410986526567   5.261395271082907  25.616376253110591 1
ion Ag   0.001860385687656   9.197767935091408  29.456630836248898 1
ion Ag   0.001478560759680  18.338755636495851  27.640880699622535 1
ion Ag   2.709872091762471  12.492540438803804   5.991668028726749 1
ion Ag   2.710020279143110  16.419524642628758   9.717891746960992 1
ion Ag   2.708696748597021  21.758285897373337   3.960193467390535 1
ion Ag   2.709860392789036   3.253839467017729   7.810715816849114 1
ion Ag   2.710003294941381   7.206481573205696  11.565425845032497 1
ion Ag   2.710258088725979  11.166005592747698  15.350511274032792 1
ion Ag   2.710515514029742  19.077523488306678  22.840075237588547 1
ion Ag   2.710127367413170  20.357447998683838  13.464655816056037 1
ion Ag   2.710182694758768   1.982413610325541  17.198674769971721 1
ion Ag   2.710361455755635   5.942775908198166  20.946426094060339 1
ion Ag   2.710825234566347   9.882484706395783  24.712169053839105 1
ion Ag   2.711706496354477  13.780001577500055  28.539667463298326 1
ion Ag   2.710343067712445  15.142122436425495  19.098363014744457 1
ion Ag   2.710754633634144   0.611870428785342  26.552905023576834 1
ion Ag   2.711867062057149   4.618291612024021  30.340591281581929 1
ion Ag   2.708505949880498   8.550077858810415   2.152478277967479 1
ion Ag   2.708667810152205  17.753846914322473   0.437138737125456 1

# Forces in Cartesian coordinates:
force Ag  -0.000003731643846   0.000161280731663  -0.000022609958514 1
force Ag  -0.000003321867105   0.000047796887165  -0.000032680545089 1
force Ag   0.000004413955541   0.000068345132261  -0.000167217893153 1
force Ag   0.000000701584639   0.000142203088556   0.000059627102378 1
force Ag  -0.000000378354278   0.000100194006121   0.000065510126882 1
force Ag  -0.000001701633032   0.000056440995488  -0.000214530866079 1
force Ag   0.000000353662703  -0.000077421126248  -0.000120019414751 1
force Ag  -0.000000130236730   0.000045205060523  -0.000120526347935 1
force Ag  -0.000000609205735   0.000045785446964   0.000178276460906 1
force Ag   0.000000423557693  -0.000176122309113  -0.000042769694945 1
force Ag   0.000001585933850  -0.000005778026987   0.000018405272225 1
force Ag   0.000002824546209   0.000045245827104   0.000008027148959 1
force Ag  -0.000000440581449   0.000000902852901   0.000107380516185 1
force Ag   0.000001209880768   0.000116480611963   0.000257621221888 1
force Ag   0.000003428328396   0.000001288914808  -0.000181660697698 1
force Ag   0.000001902629752   0.000034500280267  -0.000081864093420 1
force Ag  -0.000000827235037   0.000097318400024  -0.000103628424164 1
force Ag  -0.000003515998228  -0.000039743372426   0.000186203497706 1
force Ag  -0.000001057055277  -0.000135245382129  -0.000227265270560 1
force Ag   0.000000820041957  -0.000071795562942   0.000091243392586 1
force Ag  -0.000002886802533  -0.000048845656294  -0.000001202090425 1
force Ag  -0.000001416252596   0.000000421124692  -0.000002089084972 1
force Ag  -0.000000237521505   0.000203769279332   0.000052335419629 1
force Ag   0.000000703129507  -0.000024799933307   0.000120354286578 1
force Ag  -0.000000225067560   0.000101316480595   0.000140267380358 1
force Ag   0.000000465172962  -0.000000474413010  -0.000113693210937 1
force Ag   0.000001609583929  -0.000036094341346   0.000222646814904 1
force Ag   0.000001049900441  -0.000062506452975  -0.000079534492722 1
force Ag   0.000000460379096  -0.000139409306849  -0.000073629919941 1
force Ag   0.000000804101501  -0.000031334921755  -0.000173434348284 1
force Ag   0.000003229441539  -0.000063139766701  -0.000004745978210 1
force Ag   0.000003537200030  -0.000150532139812   0.000019757042426 1
force Ag  -0.000003313719178  -0.000014080826090   0.000084940792353 1
force Ag  -0.000004412025843  -0.000018566834326   0.000160157859012 1

# Energy components:
   A_diel =        0.1084206465734134
   Eewald =    24430.6917739092532429
       EH =    29052.2565437795492471
     Eloc =   -59290.2352117453847313
      Enl =      134.1168039250419213
     EvdW =       -0.5312497146589658
      Exc =     -492.7006311245593224
 Exc_core =        7.0778061639611032
       KE =     1140.3755578130785580
  MuShift =        0.0309646173778467
-------------------------------------
     Etot =    -5018.8092217297662501
       TS =        0.0010465630905855
-------------------------------------
        F =    -5018.8102682928565628
      muN =     -110.5964290785379376
-------------------------------------
        G =    -4908.2138392143187957


Dumping 'jdft.fillings' ... done
Dumping 'jdft.wfns' ... done
Dumping 'jdft.fluidState' ... done
Dumping 'jdft.ionpos' ... done
Dumping 'jdft.lattice' ... done
Dumping 'jdft.eigenvals' ... done
Dumping 'jdft.eigStats' ... 
	eMin: -3.556040 at state 0 ( [ +0.000000 +0.000000 +0.000000 ] spin 1 )
	HOMO: -0.171872 at state 29 ( [ +0.272727 +0.500000 +0.000000 ] spin -1 )
	mu  : -0.171300
	LUMO: -0.171249 at state 29 ( [ +0.272727 +0.500000 +0.000000 ] spin -1 )
	eMax: +0.185870 at state 2 ( [ +0.090909 +0.000000 +0.000000 ] spin 1 )
	HOMO-LUMO gap: +0.000623
	Optical gap  : +0.000623 at state 29 ( [ +0.272727 +0.500000 +0.000000 ] spin -1 )
Dumping 'jdft.Ecomponents' ... done
IonicMinimize: Iter:  10  G: -4908.213839214318796  |grad|_K:  8.909e-05  alpha:  3.414e-01  linmin:  4.602e-02  t[s]:  79484.74
IonicMinimize: Converged (|grad|_K<1.000000e-04).

#--- Lowdin population analysis ---
# oxidation-state Ag +0.043 -0.038 +0.163 +0.057 -0.003 +0.005 +0.003 +0.003 +0.005 +0.001 +0.004 -0.005 +0.000 -0.000 -0.001 +0.049 -0.010 -0.001 -0.000 -0.010 -0.005 +0.004 +0.002 +0.003 +0.003 +0.000 +0.005 -0.003 +0.057 +0.005 -0.038 +0.043 +0.049 +0.162
# magnetic-moments Ag -0.000 -0.000 -0.000 +0.000 -0.000 -0.000 -0.000 +0.000 -0.000 +0.000 -0.000 +0.000 +0.000 +0.000 -0.000 +0.000 -0.000 +0.000 -0.000 -0.000 -0.000 +0.000 -0.000 -0.000 -0.000 -0.000 -0.000 +0.000 -0.000 -0.000 -0.000 -0.000 -0.000 -0.000


Dumping 'jdft.n_up' ... done
Dumping 'jdft.n_dn' ... done
Dumping 'jdft.tau_up' ... done
Dumping 'jdft.tau_dn' ... done
Dumping 'jdft.eigenvals' ... done
Dumping 'jdft.eigStats' ... 
	eMin: -3.556040 at state 0 ( [ +0.000000 +0.000000 +0.000000 ] spin 1 )
	HOMO: -0.171872 at state 29 ( [ +0.272727 +0.500000 +0.000000 ] spin -1 )
	mu  : -0.171300
	LUMO: -0.171249 at state 29 ( [ +0.272727 +0.500000 +0.000000 ] spin -1 )
	eMax: +0.185870 at state 2 ( [ +0.090909 +0.000000 +0.000000 ] spin 1 )
	HOMO-LUMO gap: +0.000623
	Optical gap  : +0.000623 at state 29 ( [ +0.272727 +0.500000 +0.000000 ] spin -1 )
Dumping 'jdft.kPts' ... done
Dumping 'jdft.dosUp' ... done.
Dumping 'jdft.dosDn' ... done.
End date and time: Tue Dec  7 15:26:03 2021  (Duration: 0-22:06:06.60)
Done!
e 20 ( [ -0.090909 +0.000000 +0.000000 ] spin 1 )
	HOMO-LUMO gap: +0.000666
	Optical gap  : +0.000666 at state 29 ( [ +0.272727 +0.500000 +0.000000 ] spin -1 )
Dumping 'jdft.kPts' ... done
Dumping 'jdft.dosUp' ... done.
Dumping 'jdft.dosDn' ... done.
End date and time: Mon Dec  6 18:02:14 2021  (Duration: 0-23:39:09.75)
Done!
