
*************** JDFTx 1.6.0  ***************

Start date and time: Mon Dec  6 16:04:57 2021
Executable /projects/musgravc/apps/jdftx-1.6.1/build/jdftx with command-line: -i in
Running on hosts (process indices):  shas0213.rc.int.colorado.edu (0-23)
Divided in process groups (process indices):  0 (0)  1 (1)  2 (2)  3 (3)  4 (4)  5 (5)  6 (6)  7 (7)  8 (8)  9 (9)  10 (10)  11 (11)  12 (12)  13 (13)  14 (14)  15 (15)  16 (16)  17 (17)  18 (18)  19 (19)  20 (20)  21 (21)  22 (22)  23 (23)
Resource initialization completed at t[s]:      0.00
Run totals: 24 processes, 24 threads, 0 GPUs


Input parsed successfully to the following command list (including defaults):

basis kpoint-dependent
converge-empty-states yes
coords-type Cartesian
core-overlap-check none
coulomb-interaction Periodic
davidson-band-ratio 1.1
density-of-states Etol 1.000000e-06 Esigma 1.000000e-03 \
		Complete \
	Total \
	OrthoOrbital Cu 1   s \
	OrthoOrbital Cu 1   p \
	OrthoOrbital Cu 1   px \
	OrthoOrbital Cu 1   py \
	OrthoOrbital Cu 1   pz \
	OrthoOrbital Cu 1   d \
	OrthoOrbital Cu 1   dxy \
	OrthoOrbital Cu 1   dyz \
	OrthoOrbital Cu 1   dz2 \
	OrthoOrbital Cu 1   dxz \
	OrthoOrbital Cu 1   dx2-y2 \
	OrthoOrbital Cu 2   s \
	OrthoOrbital Cu 2   p \
	OrthoOrbital Cu 2   px \
	OrthoOrbital Cu 2   py \
	OrthoOrbital Cu 2   pz \
	OrthoOrbital Cu 2   d \
	OrthoOrbital Cu 2   dxy \
	OrthoOrbital Cu 2   dyz \
	OrthoOrbital Cu 2   dz2 \
	OrthoOrbital Cu 2   dxz \
	OrthoOrbital Cu 2   dx2-y2 \
	OrthoOrbital Cu 3   s \
	OrthoOrbital Cu 3   p \
	OrthoOrbital Cu 3   px \
	OrthoOrbital Cu 3   py \
	OrthoOrbital Cu 3   pz \
	OrthoOrbital Cu 3   d \
	OrthoOrbital Cu 3   dxy \
	OrthoOrbital Cu 3   dyz \
	OrthoOrbital Cu 3   dz2 \
	OrthoOrbital Cu 3   dxz \
	OrthoOrbital Cu 3   dx2-y2 \
	OrthoOrbital Cu 4   s \
	OrthoOrbital Cu 4   p \
	OrthoOrbital Cu 4   px \
	OrthoOrbital Cu 4   py \
	OrthoOrbital Cu 4   pz \
	OrthoOrbital Cu 4   d \
	OrthoOrbital Cu 4   dxy \
	OrthoOrbital Cu 4   dyz \
	OrthoOrbital Cu 4   dz2 \
	OrthoOrbital Cu 4   dxz \
	OrthoOrbital Cu 4   dx2-y2 \
	OrthoOrbital Cu 5   s \
	OrthoOrbital Cu 5   p \
	OrthoOrbital Cu 5   px \
	OrthoOrbital Cu 5   py \
	OrthoOrbital Cu 5   pz \
	OrthoOrbital Cu 5   d \
	OrthoOrbital Cu 5   dxy \
	OrthoOrbital Cu 5   dyz \
	OrthoOrbital Cu 5   dz2 \
	OrthoOrbital Cu 5   dxz \
	OrthoOrbital Cu 5   dx2-y2 \
	OrthoOrbital Cu 6   s \
	OrthoOrbital Cu 6   p \
	OrthoOrbital Cu 6   px \
	OrthoOrbital Cu 6   py \
	OrthoOrbital Cu 6   pz \
	OrthoOrbital Cu 6   d \
	OrthoOrbital Cu 6   dxy \
	OrthoOrbital Cu 6   dyz \
	OrthoOrbital Cu 6   dz2 \
	OrthoOrbital Cu 6   dxz \
	OrthoOrbital Cu 6   dx2-y2 \
	OrthoOrbital Cu 7   s \
	OrthoOrbital Cu 7   p \
	OrthoOrbital Cu 7   px \
	OrthoOrbital Cu 7   py \
	OrthoOrbital Cu 7   pz \
	OrthoOrbital Cu 7   d \
	OrthoOrbital Cu 7   dxy \
	OrthoOrbital Cu 7   dyz \
	OrthoOrbital Cu 7   dz2 \
	OrthoOrbital Cu 7   dxz \
	OrthoOrbital Cu 7   dx2-y2 \
	OrthoOrbital Cu 8   s \
	OrthoOrbital Cu 8   p \
	OrthoOrbital Cu 8   px \
	OrthoOrbital Cu 8   py \
	OrthoOrbital Cu 8   pz \
	OrthoOrbital Cu 8   d \
	OrthoOrbital Cu 8   dxy \
	OrthoOrbital Cu 8   dyz \
	OrthoOrbital Cu 8   dz2 \
	OrthoOrbital Cu 8   dxz \
	OrthoOrbital Cu 8   dx2-y2 \
	OrthoOrbital Cu 9   s \
	OrthoOrbital Cu 9   p \
	OrthoOrbital Cu 9   px \
	OrthoOrbital Cu 9   py \
	OrthoOrbital Cu 9   pz \
	OrthoOrbital Cu 9   d \
	OrthoOrbital Cu 9   dxy \
	OrthoOrbital Cu 9   dyz \
	OrthoOrbital Cu 9   dz2 \
	OrthoOrbital Cu 9   dxz \
	OrthoOrbital Cu 9   dx2-y2 \
	OrthoOrbital Cu 10   s \
	OrthoOrbital Cu 10   p \
	OrthoOrbital Cu 10   px \
	OrthoOrbital Cu 10   py \
	OrthoOrbital Cu 10   pz \
	OrthoOrbital Cu 10   d \
	OrthoOrbital Cu 10   dxy \
	OrthoOrbital Cu 10   dyz \
	OrthoOrbital Cu 10   dz2 \
	OrthoOrbital Cu 10   dxz \
	OrthoOrbital Cu 10   dx2-y2
dump End ElecDensity KEdensity BandEigs EigStats RhoAtom DOS Kpoints
dump Ionic State IonicPositions Lattice EigStats Ecomponents
dump 
dump 
dump 
dump 
dump 
dump 
dump 
dump 
dump-name jdft.$VAR
elec-cutoff 20
elec-eigen-algo Davidson
elec-ex-corr gga-PBE
elec-initial-magnetization 0.000000 no
elec-n-bands 114
elec-smearing Fermi 0.001
electronic-minimize  \
	dirUpdateScheme      FletcherReeves \
	linminMethod         DirUpdateRecommended \
	nIterations          100 \
	history              15 \
	knormThreshold       0 \
	energyDiffThreshold  1e-07 \
	nEnergyDiff          2 \
	alphaTstart          1 \
	alphaTmin            1e-10 \
	updateTestStepSize   yes \
	alphaTreduceFactor   0.1 \
	alphaTincreaseFactor 3 \
	nAlphaAdjustMax      3 \
	wolfeEnergy          0.0001 \
	wolfeGradient        0.9 \
	fdTest               no
exchange-regularization WignerSeitzTruncated
fluid LinearPCM 298.000000 1.013250
fluid-anion F- 0.5 MeanFieldLJ \
	epsBulk 1 \
	pMol 0 \
	epsInf 1 \
	Pvap 0 \
	sigmaBulk 0 \
	Rvdw 2.24877 \
	Res 0 \
	tauNuc 343133
fluid-cation Na+ 0.5 MeanFieldLJ \
	epsBulk 1 \
	pMol 0 \
	epsInf 1 \
	Pvap 0 \
	sigmaBulk 0 \
	Rvdw 2.19208 \
	Res 0 \
	tauNuc 343133
fluid-ex-corr lda-TF lda-PZ
fluid-gummel-loop 10 1.000000e-05
fluid-minimize  \
	dirUpdateScheme      PolakRibiere \
	linminMethod         DirUpdateRecommended \
	nIterations          400 \
	history              15 \
	knormThreshold       1e-11 \
	energyDiffThreshold  0 \
	nEnergyDiff          2 \
	alphaTstart          1 \
	alphaTmin            1e-10 \
	updateTestStepSize   yes \
	alphaTreduceFactor   0.1 \
	alphaTincreaseFactor 3 \
	nAlphaAdjustMax      6 \
	wolfeEnergy          0.0001 \
	wolfeGradient        0.9 \
	fdTest               no
fluid-solvent H2O 55.338 ScalarEOS \
	epsBulk 78.4 \
	pMol 0.92466 \
	epsInf 1.77 \
	Pvap 1.06736e-10 \
	sigmaBulk 4.62e-05 \
	Rvdw 2.61727 \
	Res 1.42 \
	tauNuc 343133 \
	poleEl 15 7 1
forces-output-coords Positions
ion Cu   3.370512000000000   1.507339000000000  11.305040000000000 1
ion Cu   0.000000000000000   3.014677000000000   8.290348000000002 1
ion Cu   3.370512000000000   4.522016000000000   5.275700000000001 1
ion Cu   0.000000000000000   6.029354000000000   2.261008000000000 1
ion Cu   0.000000000000000   0.000000000000000  14.319732000000000 1
ion Cu   3.370512000000000   6.029354000000000   9.797715999999999 1
ion Cu   3.370512000000000   0.000000000000000   6.783024000000001 1
ion Cu   0.000000000000000   1.507339000000000   3.768332000000000 1
ion Cu   3.370512000000000   3.014677000000000   0.753684000000000 1
ion Cu   0.000000000000000   4.522016000000000  12.812364000000001 1
ion-species /projects/musgravc/apps/jdftx-1.6.0/build/pseudopotentials/GBRV_v1.5/$ID_pbe_v1.uspp
ion-species /projects/musgravc/apps/jdftx-1.6.0/build/pseudopotentials/GBRV_v1.5/$ID_pbe_v1.2.uspp
ion-species /projects/musgravc/apps/jdftx-1.6.0/build/pseudopotentials/GBRV_v1.5/$ID_pbe_v1.4.uspp
ion-species /projects/musgravc/apps/jdftx-1.6.0/build/pseudopotentials/GBRV_v1.5/$ID_pbe_v1.5.uspp
ion-width Ecut
ionic-minimize  \
	dirUpdateScheme      L-BFGS \
	linminMethod         DirUpdateRecommended \
	nIterations          100 \
	history              15 \
	knormThreshold       0.0001 \
	energyDiffThreshold  1e-06 \
	nEnergyDiff          2 \
	alphaTstart          1 \
	alphaTmin            1e-10 \
	updateTestStepSize   yes \
	alphaTreduceFactor   0.1 \
	alphaTincreaseFactor 3 \
	nAlphaAdjustMax      3 \
	wolfeEnergy          0.0001 \
	wolfeGradient        0.9 \
	fdTest               no
kpoint   0.000000000000   0.000000000000   0.000000000000  1.00000000000000
kpoint-folding 9 7 1 
latt-move-scale 0 0 0
latt-scale 1 1 1 
lattice  \
	   6.741023000000000   -3.370512000000000    0.000000000000000  \
	   0.000000000000000    7.536693000000000    0.000000000000000  \
	   0.000000000000000    0.000000000000000   45.220160000000000 
lattice-minimize  \
	dirUpdateScheme      L-BFGS \
	linminMethod         DirUpdateRecommended \
	nIterations          0 \
	history              15 \
	knormThreshold       0 \
	energyDiffThreshold  1e-06 \
	nEnergyDiff          2 \
	alphaTstart          1 \
	alphaTmin            1e-10 \
	updateTestStepSize   yes \
	alphaTreduceFactor   0.1 \
	alphaTincreaseFactor 3 \
	nAlphaAdjustMax      3 \
	wolfeEnergy          0.0001 \
	wolfeGradient        0.9 \
	fdTest               no
lcao-params 30 1e-06 0.001
pcm-variant CANDLE
spintype z-spin
subspace-rotation-factor 1 yes
symmetries none
symmetry-threshold 0.0001
target-mu -0.1713 no

van-der-waals D3


Applied RMS atom displacement 0 bohrs to make symmetries exact.

---------- Initializing the Grid ----------
R = 
[      6.74102     -3.37051            0  ]
[            0      7.53669            0  ]
[            0            0      45.2202  ]
unit cell volume = 2297.41
G =
[   0.932082    0.41684         -0  ]
[          0   0.833679          0  ]
[          0         -0   0.138947  ]
Minimum fftbox size, Smin = [  28  36  184  ]
Chosen fftbox size, S = [  28  36  192  ]

---------- Exchange Correlation functional ----------
Initalized PBE GGA exchange.
Initalized PBE GGA correlation.

---------- Setting up pseudopotentials ----------
Width of ionic core gaussian charges (only for fluid interactions / plotting) set to 0.397384

Reading pseudopotential file '/projects/musgravc/apps/jdftx-1.6.0/build/pseudopotentials/GBRV_v1.5/cu_pbe_v1.2.uspp':
  Title: Cu.  Created by USPP 7.3.6 on 3-2-2014
  Reference state energy: -201.059491.  19 valence electrons in orbitals:
    |300>  occupation: 2  eigenvalue: -5.020764
    |310>  occupation: 6  eigenvalue: -3.445588
    |320>  occupation: 8  eigenvalue: -0.925168
    |400>  occupation: 2  eigenvalue: -0.567638
    |410>  occupation: 0  eigenvalue: -0.326154
  lMax: 2  lLocal: 3  QijEcut: 6
  6 projectors sampled on a log grid with 613 points:
    l: 0  eig: -5.020767  rCut: 1.4
    l: 0  eig: -0.567640  rCut: 1.4
    l: 1  eig: -3.445589  rCut: 1.55
    l: 1  eig: -0.326157  rCut: 1.55
    l: 2  eig: -0.925170  rCut: 1.5
    l: 2  eig: 1.500000  rCut: 1.5
  Partial core density with radius 0.8
  Transforming core density to a uniform radial grid of dG=0.02 with 1404 points.
  Transforming local potential to a uniform radial grid of dG=0.02 with 1404 points.
  Transforming nonlocal projectors to a uniform radial grid of dG=0.02 with 432 points.
  Transforming density augmentations to a uniform radial grid of dG=0.02 with 1404 points.
  Transforming atomic orbitals to a uniform radial grid of dG=0.02 with 432 points.
  Core radius for overlap checks: 1.55 bohrs.

Initialized 1 species with 10 total atoms.

Folded 1 k-points by 9x7x1 to 63 k-points.

---------- Setting up k-points, bands, fillings ----------
No reducable k-points. 
Computing the number of bands and number of electrons
Calculating initial fillings.
nElectrons: 190.000000   nBands: 114   nStates: 126

----- Setting up reduced wavefunction bases (one per k-point) -----
average nbasis = 9814.460 , ideal nbasis = 9814.716

----- Initializing Supercell corresponding to k-point mesh -----
Lattice vector linear combinations in supercell:
[   9   0   0  ]
[   0   7   0  ]
[   0   0   1  ]
Supercell lattice vectors:
[  60.6692  -23.5936  0  ]
[  0  52.7569  0  ]
[  0  0  45.2202  ]

Initializing DFT-D3 calculator:
	Parameters set for gga-PBE functional
	s6:  1.000  s_r6:  1.217
	s8:  0.722  s_r8:  1.000
	Per-atom parameters loaded for:
	Cu:  sqrtQ[a0]:  5.226  Rcov[a0]:  1.909  CN: [ 0.00 0.96 ]

Initializing DFT-D2 calculator for fluid / solvation:
	Cu:  C6:  187.33 Eh-a0^6  R0: 2.952 a0

---------- Setting up ewald sum ----------
Optimum gaussian width for ewald sums = 3.586380 bohr.
Real space sum over 975 unit cells with max indices [  7  6  2  ]
Reciprocal space sum over 4257 terms with max indices [  4  5  21  ]

Computing DFT-D3 correction:
# coordination-number Cu 8.369 9.149 9.125 6.852 4.605 9.125 9.149 8.369 4.605 6.852
# diagonal-C6 Cu 175.00 175.00 175.00 175.00 175.00 175.00 175.00 175.00 175.00 175.00
EvdW_6 =   -0.050851
EvdW_8 =   -0.080807

---------- Allocating electronic variables ----------
Initializing wave functions:  linear combination of atomic orbitals
Cu pseudo-atom occupations:   s ( 2 1 )  p ( 6 0 )  d ( 10 )
	FillingsUpdate:  mu: -0.171300000  nElectrons: 190.000000  magneticMoment: [ Abs: 0.17168  Tot: -0.00628 ]
LCAOMinimize: Iter:   0  G: -1929.9535925722475440  |grad|_K:  2.764e-02  alpha:  1.000e+00
LCAOMinimize: 	Step increased G by 1.562422e+02, reducing alpha to 4.522425e-02.
LCAOMinimize: 	Step increased G by 1.161693e+01, reducing alpha to 4.522425e-03.
	FillingsUpdate:  mu: -0.171300000  nElectrons: 190.000000  magneticMoment: [ Abs: 0.17418  Tot: -0.00476 ]
LCAOMinimize: Iter:   1  G: -1936.2676051880621344  |grad|_K:  1.923e-02  alpha:  4.522e-03  linmin: -1.923e-01  cgtest:  9.761e-01  t[s]:     51.25
LCAOMinimize: Encountered beta<0, resetting CG.
LCAOMinimize: 	Predicted alpha/alphaT>3.000000, increasing alphaT to 1.356727e-02.
	FillingsUpdate:  mu: -0.171300000  nElectrons: 190.000000  magneticMoment: [ Abs: 0.18990  Tot: -0.01893 ]
LCAOMinimize: Iter:   2  G: -1943.7917049535162732  |grad|_K:  1.285e-02  alpha:  1.822e-02  linmin: -3.635e-02  cgtest: -1.956e-02  t[s]:     68.31
LCAOMinimize: 	Wrong curvature in test step, increasing alphaT to 5.466059e-02.
	FillingsUpdate:  mu: -0.171300000  nElectrons: 190.000000  magneticMoment: [ Abs: 0.13947  Tot: -0.02742 ]
LCAOMinimize: Iter:   3  G: -1953.2598418440870773  |grad|_K:  1.580e-02  alpha: -2.880e-02  linmin: -1.683e-01  cgtest:  8.003e-01  t[s]:     81.49
	FillingsUpdate:  mu: -0.171300000  nElectrons: 190.000000  magneticMoment: [ Abs: 0.00167  Tot: -0.00063 ]
LCAOMinimize: Iter:   4  G: -1972.9664663012811161  |grad|_K:  2.202e-03  alpha:  5.083e-01  linmin:  7.970e-02  cgtest: -5.560e+00  t[s]:     94.96
LCAOMinimize: 	Bad step direction: g.d > 0.
LCAOMinimize: 	Undoing step.
LCAOMinimize: 	Step failed: resetting search direction.
	FillingsUpdate:  mu: -0.171300000  nElectrons: 190.000000  magneticMoment: [ Abs: 0.00167  Tot: -0.00063 ]
LCAOMinimize: Iter:   5  G: -1972.9664663012811161  |grad|_K:  2.202e-03  alpha:  0.000e+00
	FillingsUpdate:  mu: -0.171300000  nElectrons: 190.000000  magneticMoment: [ Abs: 0.00124  Tot: -0.00014 ]
LCAOMinimize: Iter:   6  G: -1974.7845298430136154  |grad|_K:  2.175e-03  alpha:  1.633e-01  linmin: -7.904e-02  cgtest:  7.219e-01  t[s]:    117.92
LCAOMinimize: 	Wrong curvature in test step, increasing alphaT to 4.897502e-01.
	FillingsUpdate:  mu: -0.171300000  nElectrons: 190.000000  magneticMoment: [ Abs: 0.00116  Tot: +0.00021 ]
LCAOMinimize: Iter:   7  G: -1977.3983831204418493  |grad|_K:  2.220e-03  alpha: -4.218e-01  linmin: -1.124e-01  cgtest:  6.305e-01  t[s]:    131.53
	FillingsUpdate:  mu: -0.171300000  nElectrons: 190.000000  magneticMoment: [ Abs: 0.00117  Tot: -0.00000 ]
LCAOMinimize: Iter:   8  G: -1978.4875394437012801  |grad|_K:  2.201e-03  alpha:  5.403e-02  linmin: -1.590e-01  cgtest:  8.447e-01  t[s]:    144.96
LCAOMinimize: 	Wrong curvature in test step, increasing alphaT to 1.620888e-01.
	FillingsUpdate:  mu: -0.171300000  nElectrons: 190.000000  magneticMoment: [ Abs: 0.00131  Tot: -0.00050 ]
LCAOMinimize: Iter:   9  G: -1979.2616404661027900  |grad|_K:  2.150e-03  alpha: -5.418e-01  linmin: -1.540e-01  cgtest:  8.831e-01  t[s]:    158.16
	FillingsUpdate:  mu: -0.171300000  nElectrons: 190.000000  magneticMoment: [ Abs: 0.00160  Tot: -0.00102 ]
LCAOMinimize: Iter:  10  G: -1979.6976298762460829  |grad|_K:  2.108e-03  alpha:  3.742e-02  linmin: -1.532e-01  cgtest:  9.329e-01  t[s]:    171.48
LCAOMinimize: 	Wrong curvature in test step, increasing alphaT to 1.122465e-01.
	FillingsUpdate:  mu: -0.171300000  nElectrons: 190.000000  magneticMoment: [ Abs: 0.00184  Tot: -0.00140 ]
LCAOMinimize: Iter:  11  G: -1980.0870957463869217  |grad|_K:  2.076e-03  alpha: -7.779e-01  linmin: -1.212e-01  cgtest:  9.322e-01  t[s]:    184.44
	FillingsUpdate:  mu: -0.171300000  nElectrons: 190.000000  magneticMoment: [ Abs: 0.00159  Tot: -0.00096 ]
LCAOMinimize: Iter:  12  G: -1980.4478457072141282  |grad|_K:  2.030e-03  alpha:  3.564e-02  linmin: -1.095e-01  cgtest:  9.397e-01  t[s]:    197.94
LCAOMinimize: 	Wrong curvature in test step, increasing alphaT to 1.069104e-01.
	FillingsUpdate:  mu: -0.171300000  nElectrons: 190.000000  magneticMoment: [ Abs: 0.00150  Tot: -0.00050 ]
LCAOMinimize: Iter:  13  G: -1980.7810642024476238  |grad|_K:  1.961e-03  alpha: -2.791e+00  linmin: -1.660e-01  cgtest:  9.510e-01  t[s]:    211.00
	FillingsUpdate:  mu: -0.171300000  nElectrons: 190.000000  magneticMoment: [ Abs: 0.00161  Tot: -0.00065 ]
LCAOMinimize: Iter:  14  G: -1981.0586096914335030  |grad|_K:  1.916e-03  alpha:  3.241e-02  linmin: -1.690e-01  cgtest:  9.494e-01  t[s]:    224.49
LCAOMinimize: 	Wrong curvature in test step, increasing alphaT to 9.723704e-02.
	FillingsUpdate:  mu: -0.171300000  nElectrons: 190.000000  magneticMoment: [ Abs: 0.00178  Tot: -0.00097 ]
LCAOMinimize: Iter:  15  G: -1981.3275808732528276  |grad|_K:  1.874e-03  alpha: -1.031e+00  linmin: -1.588e-01  cgtest:  9.458e-01  t[s]:    237.66
	FillingsUpdate:  mu: -0.171300000  nElectrons: 190.000000  magneticMoment: [ Abs: 0.00195  Tot: -0.00125 ]
LCAOMinimize: Iter:  16  G: -1981.5563414487942282  |grad|_K:  1.836e-03  alpha:  2.870e-02  linmin: -1.461e-01  cgtest:  9.506e-01  t[s]:    251.18
LCAOMinimize: 	Wrong curvature in test step, increasing alphaT to 8.611287e-02.
	FillingsUpdate:  mu: -0.171300000  nElectrons: 190.000000  magneticMoment: [ Abs: 0.00203  Tot: -0.00138 ]
LCAOMinimize: Iter:  17  G: -1981.7751339517074030  |grad|_K:  1.795e-03  alpha: -1.051e+00  linmin: -1.393e-01  cgtest:  9.508e-01  t[s]:    264.35
	FillingsUpdate:  mu: -0.171300000  nElectrons: 190.000000  magneticMoment: [ Abs: 0.00202  Tot: -0.00131 ]
LCAOMinimize: Iter:  18  G: -1981.9628378025656730  |grad|_K:  1.753e-03  alpha:  2.593e-02  linmin: -1.528e-01  cgtest:  9.571e-01  t[s]:    277.77
LCAOMinimize: 	Wrong curvature in test step, increasing alphaT to 7.777644e-02.
	FillingsUpdate:  mu: -0.171300000  nElectrons: 190.000000  magneticMoment: [ Abs: 0.00200  Tot: -0.00121 ]
LCAOMinimize: Iter:  19  G: -1982.1404580836560854  |grad|_K:  1.711e-03  alpha: -1.422e+00  linmin: -1.706e-01  cgtest:  9.574e-01  t[s]:    291.00
	FillingsUpdate:  mu: -0.171300000  nElectrons: 190.000000  magneticMoment: [ Abs: 0.00203  Tot: -0.00117 ]
LCAOMinimize: Iter:  20  G: -1982.2958092613555436  |grad|_K:  1.674e-03  alpha:  2.384e-02  linmin: -1.782e-01  cgtest:  9.598e-01  t[s]:    304.48
LCAOMinimize: 	Wrong curvature in test step, increasing alphaT to 7.153139e-02.
	FillingsUpdate:  mu: -0.171300000  nElectrons: 190.000000  magneticMoment: [ Abs: 0.00207  Tot: -0.00118 ]
LCAOMinimize: Iter:  21  G: -1982.4446592480780964  |grad|_K:  1.639e-03  alpha: -1.203e+00  linmin: -1.830e-01  cgtest:  9.586e-01  t[s]:    317.67
	FillingsUpdate:  mu: -0.171300000  nElectrons: 190.000000  magneticMoment: [ Abs: 0.00212  Tot: -0.00121 ]
LCAOMinimize: Iter:  22  G: -1982.5816895438733809  |grad|_K:  1.607e-03  alpha:  2.285e-02  linmin: -1.863e-01  cgtest:  9.593e-01  t[s]:    331.24
LCAOMinimize: 	Wrong curvature in test step, increasing alphaT to 6.854034e-02.
	FillingsUpdate:  mu: -0.171300000  nElectrons: 190.000000  magneticMoment: [ Abs: 0.00217  Tot: -0.00124 ]
LCAOMinimize: Iter:  23  G: -1982.7135966942539653  |grad|_K:  1.576e-03  alpha: -1.040e+00  linmin: -1.870e-01  cgtest:  9.582e-01  t[s]:    344.31
	FillingsUpdate:  mu: -0.171300000  nElectrons: 190.000000  magneticMoment: [ Abs: 0.00222  Tot: -0.00126 ]
LCAOMinimize: Iter:  24  G: -1982.8421476443168103  |grad|_K:  1.545e-03  alpha:  2.311e-02  linmin: -1.860e-01  cgtest:  9.568e-01  t[s]:    357.69
LCAOMinimize: 	Wrong curvature in test step, increasing alphaT to 6.933440e-02.
	FillingsUpdate:  mu: -0.171300000  nElectrons: 190.000000  magneticMoment: [ Abs: 0.00226  Tot: -0.00127 ]
LCAOMinimize: Iter:  25  G: -1982.9657300093576850  |grad|_K:  1.512e-03  alpha: -1.008e+00  linmin: -1.863e-01  cgtest:  9.562e-01  t[s]:    370.72
	FillingsUpdate:  mu: -0.171300000  nElectrons: 190.000000  magneticMoment: [ Abs: 0.00231  Tot: -0.00125 ]
LCAOMinimize: Iter:  26  G: -1983.0932351702499545  |grad|_K:  1.475e-03  alpha:  2.488e-02  linmin: -1.877e-01  cgtest:  9.526e-01  t[s]:    384.12
LCAOMinimize: 	Wrong curvature in test step, increasing alphaT to 7.463942e-02.
	FillingsUpdate:  mu: -0.171300000  nElectrons: 190.000000  magneticMoment: [ Abs: 0.00234  Tot: -0.00120 ]
LCAOMinimize: Iter:  27  G: -1983.2144741880454148  |grad|_K:  1.436e-03  alpha: -1.182e+00  linmin: -1.901e-01  cgtest:  9.527e-01  t[s]:    397.44
	FillingsUpdate:  mu: -0.171300000  nElectrons: 190.000000  magneticMoment: [ Abs: 0.00236  Tot: -0.00111 ]
LCAOMinimize: Iter:  28  G: -1983.3407287404670569  |grad|_K:  1.389e-03  alpha:  2.744e-02  linmin: -1.959e-01  cgtest:  9.479e-01  t[s]:    410.92
LCAOMinimize: 	Wrong curvature in test step, increasing alphaT to 8.232695e-02.
	FillingsUpdate:  mu: -0.171300000  nElectrons: 190.000000  magneticMoment: [ Abs: 0.00238  Tot: -0.00100 ]
LCAOMinimize: Iter:  29  G: -1983.4587362238094101  |grad|_K:  1.342e-03  alpha: -1.540e+00  linmin: -2.028e-01  cgtest:  9.477e-01  t[s]:    424.60
	FillingsUpdate:  mu: -0.171300000  nElectrons: 190.000000  magneticMoment: [ Abs: 0.00241  Tot: -0.00091 ]
LCAOMinimize: Iter:  30  G: -1983.5668545907913085  |grad|_K:  1.296e-03  alpha:  2.701e-02  linmin: -2.089e-01  cgtest:  9.479e-01  t[s]:    438.08
LCAOMinimize: None of the convergence criteria satisfied after 30 iterations.
----- createFluidSolver() ----- (Fluid-side solver setup)
   Initializing fluid molecule 'H2O'
     Initializing site 'O'
       Electron density: proportional to exp(-r/0.36935)*erfc((r-0.51523)/0.36823) with norm 6.826
       Charge density: gaussian nuclear width 0.478731 with net site charge 0.826
       Polarizability: cuspless exponential with width 0.32 and norm 3.73
       Hard sphere radius: 2.57003 bohrs
       Positions in reference frame:
         [ +0.000000 +0.000000 +0.000000 ]
     Initializing site 'H'
       Electron density: proportional to exp(-r/0.34641)*erfc((r-0)/0.390882) with norm 0.587
       Charge density: gaussian nuclear width 0.377945 with net site charge -0.413
       Polarizability: cuspless exponential with width 0.39 and norm 3.3
       Positions in reference frame:
         [ +0.000000 -1.441945 +1.122523 ]
         [ +0.000000 +1.441945 +1.122523 ]
     Net charge: 0   dipole magnitude: 0.927204
     Initializing spherical shell mfKernel with radius 2.61727 Bohr
     deltaS corrections:
       site 'O': -7.54299
       site 'H': -6.83917
   Initializing fluid molecule 'Na+'
     Initializing site 'Na'
       Electron density: proportional to exp(-r/0.19682)*erfc((r-0.71491)/0.41314) with norm 8.1383
       Charge density: gaussian nuclear width 0.365347 with net site charge -1
       Hard sphere radius: 1.86327 bohrs
       Positions in reference frame:
         [ +0.000000 +0.000000 +0.000000 ]
     Net charge: -1   dipole magnitude: 0
     Initializing gaussian mfKernel with width: 1.55004 Bohr
     deltaS corrections:
       site 'Na': -22.3555
   Initializing fluid molecule 'F-'
     Initializing site 'F'
       Electron density: proportional to exp(-r/0.38886)*erfc((r-0)/0.438782) with norm 8
       Charge density: gaussian nuclear width 0.374796 with net site charge 1
       Hard sphere radius: 2.39995 bohrs
       Positions in reference frame:
         [ +0.000000 +0.000000 +0.000000 ]
     Net charge: 1   dipole magnitude: 0
     Initializing gaussian mfKernel with width: 1.59012 Bohr
     deltaS corrections:
       site 'F': -9.04335

Correction to mu due to finite nuclear width = -0.0820568
   Cavity determined by nc: 0.00142 and sigma: 0.707107
   Nonlocal vdW cavity from gaussian model electron density with norm = 8 and sigma = 0.993594 bohr
   Charge asymmetry in cavity with sensitivity pCavity = 36.5 e-bohr/Eh
   Electrostatic cavity expanded by eta = 1.46 bohrs
   Weighted density cavitation model constrained by Nbulk: 0.0049383 bohr^-3, Pvap: 3.14029 kPa, Rvdw: 2.61727 bohr and sigmaBulk: 4.62e-05 Eh/bohr^2 at T: 298 K.
   Weighted density dispersion model using vdW pair potentials with single solvent site with sqrtC6eff: 0.77 SI.


---- Citations for features of the code used in this run ----

   Software package:
      R. Sundararaman, K. Letchworth-Weaver, K.A. Schwarz, D. Gunceler, Y. Ozhabes and T.A. Arias, 'JDFTx: software for joint density-functional theory', SoftwareX 6, 278 (2017)

   gga-PBE exchange-correlation functional:
      J.P. Perdew, K. Burke and M. Ernzerhof, Phys. Rev. Lett. 77, 3865 (1996)

   Pseudopotentials:
      KF Garrity, JW Bennett, KM Rabe and D Vanderbilt, Comput. Mater. Sci. 81, 446 (2014)

   DFT-D3 dispersion correction:
      S. Grimme, J. Antony, S. Ehrlich and H. Krieg, J. Chem. Phys. 132, 154104 (2010)

   DFT-D2 dispersion correction:
      S. Grimme, J. Comput. Chem. 27, 1787 (2006)

   Charge-asymmetric nonlocally-determined local-electric (CANDLE) solvation model:
      R. Sundararaman and W.A. Goddard III, J. Chem. Phys. 142, 064107 (2015)

   Total energy minimization with Auxiliary Hamiltonian:
      C. Freysoldt, S. Boeck, and J. Neugebauer, Phys. Rev. B 79, 241103(R) (2009)

   Grand-canonical (fixed-potential) DFT:
      R. Sundararaman, W. A. Goddard III and T. A. Arias, J. Chem. Phys. 146, 114104 (2017)

   Linear-tetrahedron sampling for density of states:
      G. Lehmann and M. Taut, Phys. status solidi (b) 54, 469 (1972)

This list may not be complete. Please suggest additional citations or
report any other bugs at https://github.com/shankar1729/jdftx/issues

Initialization completed successfully at t[s]:    442.70


Computing DFT-D3 correction:
# coordination-number Cu 8.369 9.149 9.125 6.852 4.605 9.125 9.149 8.369 4.605 6.852
# diagonal-C6 Cu 175.00 175.00 175.00 175.00 175.00 175.00 175.00 175.00 175.00 175.00
EvdW_6 =   -0.050851
EvdW_8 =   -0.080807
Fluid solver invoked on fresh (random / LCAO) wavefunctions
Running a vacuum solve first:

-------- Initial electronic minimization -----------
	FillingsUpdate:  mu: +0.551307773  nElectrons: 190.000000  magneticMoment: [ Abs: 0.00241  Tot: -0.00091 ]
ElecMinimize: Iter:   0  G: -1983.567189370733786  |grad|_K:  3.722e-04  alpha:  1.000e+00
	FillingsUpdate:  mu: +0.173315045  nElectrons: 190.000000  magneticMoment: [ Abs: 0.00249  Tot: -0.00065 ]
	SubspaceRotationAdjust: set factor to 0.846
ElecMinimize: Iter:   1  G: -1985.084326878158436  |grad|_K:  1.509e-04  alpha:  9.900e-02  linmin:  1.754e-03  t[s]:    473.05
	FillingsUpdate:  mu: +0.210349120  nElectrons: 190.000000  magneticMoment: [ Abs: 0.00205  Tot: -0.00040 ]
	SubspaceRotationAdjust: set factor to 0.851
ElecMinimize: Iter:   2  G: -1985.468605830481010  |grad|_K:  9.533e-05  alpha:  1.560e-01  linmin: -4.304e-05  t[s]:    491.80
	FillingsUpdate:  mu: +0.223425460  nElectrons: 190.000000  magneticMoment: [ Abs: 0.00182  Tot: -0.00041 ]
	SubspaceRotationAdjust: set factor to 0.653
ElecMinimize: Iter:   3  G: -1985.651431588569949  |grad|_K:  8.213e-05  alpha:  1.386e-01  linmin:  4.009e-06  t[s]:    510.59
	FillingsUpdate:  mu: +0.063515469  nElectrons: 190.000000  magneticMoment: [ Abs: 0.00145  Tot: -0.00040 ]
	SubspaceRotationAdjust: set factor to 0.473
ElecMinimize: Iter:   4  G: -1985.795635496402610  |grad|_K:  5.419e-05  alpha:  1.517e-01  linmin:  8.341e-06  t[s]:    529.36
	FillingsUpdate:  mu: +0.090126093  nElectrons: 190.000000  magneticMoment: [ Abs: 0.00113  Tot: -0.00023 ]
	SubspaceRotationAdjust: set factor to 0.618
ElecMinimize: Iter:   5  G: -1985.853590055159884  |grad|_K:  3.328e-05  alpha:  1.409e-01  linmin: -5.082e-06  t[s]:    548.13
	FillingsUpdate:  mu: +0.100411030  nElectrons: 190.000000  magneticMoment: [ Abs: 0.00090  Tot: -0.00015 ]
	SubspaceRotationAdjust: set factor to 0.658
ElecMinimize: Iter:   6  G: -1985.882517011488289  |grad|_K:  2.642e-05  alpha:  1.826e-01  linmin: -3.144e-06  t[s]:    566.76
	FillingsUpdate:  mu: +0.103574787  nElectrons: 190.000000  magneticMoment: [ Abs: 0.00070  Tot: -0.00012 ]
	SubspaceRotationAdjust: set factor to 0.707
ElecMinimize: Iter:   7  G: -1985.899136402827708  |grad|_K:  1.949e-05  alpha:  1.676e-01  linmin: -7.255e-06  t[s]:    585.52
	FillingsUpdate:  mu: +0.107586566  nElectrons: 190.000000  magneticMoment: [ Abs: 0.00057  Tot: -0.00011 ]
	SubspaceRotationAdjust: set factor to 0.56
ElecMinimize: Iter:   8  G: -1985.906070637962557  |grad|_K:  1.349e-05  alpha:  1.282e-01  linmin: -3.961e-06  t[s]:    604.18
	FillingsUpdate:  mu: +0.104366465  nElectrons: 190.000000  magneticMoment: [ Abs: 0.00050  Tot: -0.00010 ]
	SubspaceRotationAdjust: set factor to 0.369
ElecMinimize: Iter:   9  G: -1985.908850157907409  |grad|_K:  9.051e-06  alpha:  1.077e-01  linmin: -6.663e-06  t[s]:    622.87
	FillingsUpdate:  mu: +0.102933926  nElectrons: 190.000000  magneticMoment: [ Abs: 0.00041  Tot: -0.00008 ]
	SubspaceRotationAdjust: set factor to 0.378
ElecMinimize: Iter:  10  G: -1985.910749243508690  |grad|_K:  7.343e-06  alpha:  1.613e-01  linmin: -4.443e-06  t[s]:    641.65
	FillingsUpdate:  mu: +0.107128369  nElectrons: 190.000000  magneticMoment: [ Abs: 0.00033  Tot: -0.00007 ]
	SubspaceRotationAdjust: set factor to 0.407
ElecMinimize: Iter:  11  G: -1985.912057993182771  |grad|_K:  5.426e-06  alpha:  1.696e-01  linmin: -6.660e-07  t[s]:    660.42
	FillingsUpdate:  mu: +0.107164508  nElectrons: 190.000000  magneticMoment: [ Abs: 0.00027  Tot: -0.00006 ]
	SubspaceRotationAdjust: set factor to 0.38
ElecMinimize: Iter:  12  G: -1985.912787268858892  |grad|_K:  4.197e-06  alpha:  1.745e-01  linmin: -6.258e-07  t[s]:    679.31
	FillingsUpdate:  mu: +0.105997654  nElectrons: 190.000000  magneticMoment: [ Abs: 0.00023  Tot: -0.00005 ]
	SubspaceRotationAdjust: set factor to 0.425
ElecMinimize: Iter:  13  G: -1985.913191394957039  |grad|_K:  3.259e-06  alpha:  1.617e-01  linmin:  1.007e-07  t[s]:    698.00
	FillingsUpdate:  mu: +0.105514365  nElectrons: 190.000000  magneticMoment: [ Abs: 0.00019  Tot: -0.00004 ]
	SubspaceRotationAdjust: set factor to 0.462
ElecMinimize: Iter:  14  G: -1985.913476445523429  |grad|_K:  2.613e-06  alpha:  1.893e-01  linmin:  4.935e-07  t[s]:    716.60
	FillingsUpdate:  mu: +0.103646319  nElectrons: 190.000000  magneticMoment: [ Abs: 0.00016  Tot: -0.00003 ]
	SubspaceRotationAdjust: set factor to 0.51
ElecMinimize: Iter:  15  G: -1985.913641998141202  |grad|_K:  2.017e-06  alpha:  1.710e-01  linmin:  6.220e-07  t[s]:    736.19
	FillingsUpdate:  mu: +0.103340098  nElectrons: 190.000000  magneticMoment: [ Abs: 0.00013  Tot: -0.00002 ]
	SubspaceRotationAdjust: set factor to 0.547
ElecMinimize: Iter:  16  G: -1985.913740149062050  |grad|_K:  1.569e-06  alpha:  1.703e-01  linmin:  6.397e-07  t[s]:    754.94
	FillingsUpdate:  mu: +0.103677048  nElectrons: 190.000000  magneticMoment: [ Abs: 0.00010  Tot: -0.00002 ]
	SubspaceRotationAdjust: set factor to 0.582
ElecMinimize: Iter:  17  G: -1985.913803298135917  |grad|_K:  1.342e-06  alpha:  1.811e-01  linmin:  6.909e-07  t[s]:    773.62
	FillingsUpdate:  mu: +0.103287615  nElectrons: 190.000000  magneticMoment: [ Abs: 0.00008  Tot: -0.00001 ]
	SubspaceRotationAdjust: set factor to 0.545
ElecMinimize: Iter:  18  G: -1985.913844057330380  |grad|_K:  9.851e-07  alpha:  1.596e-01  linmin:  1.189e-06  t[s]:    792.28
	FillingsUpdate:  mu: +0.103322927  nElectrons: 190.000000  magneticMoment: [ Abs: 0.00006  Tot: -0.00001 ]
	SubspaceRotationAdjust: set factor to 0.458
ElecMinimize: Iter:  19  G: -1985.913867016282211  |grad|_K:  7.616e-07  alpha:  1.670e-01  linmin:  2.267e-06  t[s]:    811.06
	FillingsUpdate:  mu: +0.103276847  nElectrons: 190.000000  magneticMoment: [ Abs: 0.00005  Tot: -0.00001 ]
	SubspaceRotationAdjust: set factor to 0.472
ElecMinimize: Iter:  20  G: -1985.913882682132453  |grad|_K:  6.540e-07  alpha:  1.906e-01  linmin:  1.903e-06  t[s]:    829.63
	FillingsUpdate:  mu: +0.103009824  nElectrons: 190.000000  magneticMoment: [ Abs: 0.00003  Tot: -0.00000 ]
	SubspaceRotationAdjust: set factor to 0.485
ElecMinimize: Iter:  21  G: -1985.913892180113862  |grad|_K:  4.675e-07  alpha:  1.567e-01  linmin:  7.770e-07  t[s]:    848.37
	FillingsUpdate:  mu: +0.102999606  nElectrons: 190.000000  magneticMoment: [ Abs: 0.00003  Tot: -0.00000 ]
	SubspaceRotationAdjust: set factor to 0.461
ElecMinimize: Iter:  22  G: -1985.913898091267356  |grad|_K:  3.948e-07  alpha:  1.909e-01  linmin:  1.089e-06  t[s]:    867.14
	FillingsUpdate:  mu: +0.102943748  nElectrons: 190.000000  magneticMoment: [ Abs: 0.00002  Tot: -0.00000 ]
	SubspaceRotationAdjust: set factor to 0.496
ElecMinimize: Iter:  23  G: -1985.913902043394501  |grad|_K:  3.209e-07  alpha:  1.789e-01  linmin:  3.415e-07  t[s]:    885.71
	FillingsUpdate:  mu: +0.102884341  nElectrons: 190.000000  magneticMoment: [ Abs: 0.00001  Tot: -0.00000 ]
	SubspaceRotationAdjust: set factor to 0.507
ElecMinimize: Iter:  24  G: -1985.913904500529270  |grad|_K:  2.540e-07  alpha:  1.683e-01  linmin:  3.614e-07  t[s]:    904.53
	FillingsUpdate:  mu: +0.102915372  nElectrons: 190.000000  magneticMoment: [ Abs: 0.00001  Tot: -0.00000 ]
	SubspaceRotationAdjust: set factor to 0.525
ElecMinimize: Iter:  25  G: -1985.913906458709562  |grad|_K:  2.308e-07  alpha:  2.142e-01  linmin:  6.847e-07  t[s]:    923.16
	FillingsUpdate:  mu: +0.102855776  nElectrons: 190.000000  magneticMoment: [ Abs: 0.00001  Tot: -0.00000 ]
	SubspaceRotationAdjust: set factor to 0.583
ElecMinimize: Iter:  26  G: -1985.913907730875508  |grad|_K:  1.791e-07  alpha:  1.685e-01  linmin:  1.234e-07  t[s]:    941.80
	FillingsUpdate:  mu: +0.102837298  nElectrons: 190.000000  magneticMoment: [ Abs: 0.00001  Tot: -0.00000 ]
	SubspaceRotationAdjust: set factor to 0.6
ElecMinimize: Iter:  27  G: -1985.913908562021106  |grad|_K:  1.572e-07  alpha:  1.828e-01  linmin:  4.561e-07  t[s]:    960.47
	FillingsUpdate:  mu: +0.102860519  nElectrons: 190.000000  magneticMoment: [ Abs: 0.00001  Tot: -0.00000 ]
	SubspaceRotationAdjust: set factor to 0.621
ElecMinimize: Iter:  28  G: -1985.913909264889071  |grad|_K:  1.334e-07  alpha:  2.007e-01  linmin:  6.005e-07  t[s]:    979.12
	FillingsUpdate:  mu: +0.102846170  nElectrons: 190.000000  magneticMoment: [ Abs: 0.00001  Tot: +0.00000 ]
	SubspaceRotationAdjust: set factor to 0.665
ElecMinimize: Iter:  29  G: -1985.913909660328727  |grad|_K:  9.900e-08  alpha:  1.568e-01  linmin:  1.420e-07  t[s]:    997.78
	FillingsUpdate:  mu: +0.102857636  nElectrons: 190.000000  magneticMoment: [ Abs: 0.00001  Tot: +0.00000 ]
	SubspaceRotationAdjust: set factor to 0.684
ElecMinimize: Iter:  30  G: -1985.913909922166567  |grad|_K:  8.711e-08  alpha:  1.886e-01  linmin:  2.714e-07  t[s]:   1016.39
	FillingsUpdate:  mu: +0.102834878  nElectrons: 190.000000  magneticMoment: [ Abs: 0.00001  Tot: +0.00000 ]
	SubspaceRotationAdjust: set factor to 0.706
ElecMinimize: Iter:  31  G: -1985.913910120688797  |grad|_K:  7.011e-08  alpha:  1.846e-01  linmin:  3.823e-07  t[s]:   1035.71
	FillingsUpdate:  mu: +0.102811968  nElectrons: 190.000000  magneticMoment: [ Abs: 0.00000  Tot: +0.00000 ]
	SubspaceRotationAdjust: set factor to 0.736
ElecMinimize: Iter:  32  G: -1985.913910228867735  |grad|_K:  5.291e-08  alpha:  1.554e-01  linmin: -3.210e-08  t[s]:   1054.34
	FillingsUpdate:  mu: +0.102826674  nElectrons: 190.000000  magneticMoment: [ Abs: 0.00000  Tot: +0.00000 ]
	SubspaceRotationAdjust: set factor to 0.739
ElecMinimize: Iter:  33  G: -1985.913910303394232  |grad|_K:  4.636e-08  alpha:  1.880e-01  linmin:  2.788e-07  t[s]:   1073.12
	FillingsUpdate:  mu: +0.102827890  nElectrons: 190.000000  magneticMoment: [ Abs: 0.00000  Tot: +0.00000 ]
	SubspaceRotationAdjust: set factor to 0.701
ElecMinimize: Iter:  34  G: -1985.913910356463703  |grad|_K:  3.854e-08  alpha:  1.745e-01  linmin:  3.852e-07  t[s]:   1091.85
ElecMinimize: Converged (|Delta G|<1.000000e-07 for 2 iters).
Setting wave functions to eigenvectors of Hamiltonian
Converging empty states (this may take a while): |deigs|: 1.481e-02
Vacuum energy after initial minimize, F = -1985.913910356463703

Shifting auxilliary hamiltonian by -0.274128 to set nElectrons=190.000000

-------- Electronic minimization -----------
	Linear fluid (dielectric constant: 78.4, screening length: 8.12261 Bohr) occupying 0.464892 of unit cell:	Completed after 19 iterations at t[s]:   1155.19
	FillingsUpdate:  mu: -0.171300000  nElectrons: 190.000000  magneticMoment: [ Abs: 0.00000  Tot: +0.00000 ]
ElecMinimize: Iter:   0  G: -1985.914021222217798  |grad|_K:  9.330e-06  alpha:  1.000e+00
	Linear fluid (dielectric constant: 78.4, screening length: 8.12261 Bohr) occupying 0.472170 of unit cell:	Completed after 23 iterations at t[s]:   1171.48
	Linear fluid (dielectric constant: 78.4, screening length: 8.12261 Bohr) occupying 0.465305 of unit cell:	Completed after 22 iterations at t[s]:   1177.84
	FillingsUpdate:  mu: -0.171300000  nElectrons: 189.950583  magneticMoment: [ Abs: 0.00000  Tot: +0.00000 ]
	SubspaceRotationAdjust: set factor to 0.379
ElecMinimize: Iter:   1  G: -1985.914329595830623  |grad|_K:  6.400e-06  alpha:  3.866e-02  linmin:  1.704e-02  t[s]:   1185.40
	Linear fluid (dielectric constant: 78.4, screening length: 8.12261 Bohr) occupying 0.465806 of unit cell:	Completed after 13 iterations at t[s]:   1192.53
ElecMinimize: 	Predicted alpha/alphaT>3.000000, increasing alphaT to 1.159843e-01.
	Linear fluid (dielectric constant: 78.4, screening length: 8.12261 Bohr) occupying 0.466795 of unit cell:	Completed after 15 iterations at t[s]:   1198.58
	Linear fluid (dielectric constant: 78.4, screening length: 8.12261 Bohr) occupying 0.467346 of unit cell:	Completed after 13 iterations at t[s]:   1204.53
	FillingsUpdate:  mu: -0.171300000  nElectrons: 189.934637  magneticMoment: [ Abs: 0.00000  Tot: +0.00000 ]
	SubspaceRotationAdjust: set factor to 0.196
ElecMinimize: Iter:   2  G: -1985.914932276893751  |grad|_K:  3.921e-06  alpha:  1.598e-01  linmin: -3.530e-04  t[s]:   1212.06
	Linear fluid (dielectric constant: 78.4, screening length: 8.12261 Bohr) occupying 0.468773 of unit cell:	Completed after 15 iterations at t[s]:   1219.29
	Linear fluid (dielectric constant: 78.4, screening length: 8.12261 Bohr) occupying 0.468167 of unit cell:	Completed after 14 iterations at t[s]:   1225.28
	FillingsUpdate:  mu: -0.171300000  nElectrons: 189.906677  magneticMoment: [ Abs: 0.00000  Tot: +0.00000 ]
	SubspaceRotationAdjust: set factor to 0.116
ElecMinimize: Iter:   3  G: -1985.915135794511116  |grad|_K:  2.097e-06  alpha:  9.132e-02  linmin: -5.057e-05  t[s]:   1232.87
	Linear fluid (dielectric constant: 78.4, screening length: 8.12261 Bohr) occupying 0.468569 of unit cell:	Completed after 13 iterations at t[s]:   1240.13
ElecMinimize: 	Predicted alpha/alphaT>3.000000, increasing alphaT to 2.739515e-01.
	Linear fluid (dielectric constant: 78.4, screening length: 8.12261 Bohr) occupying 0.469362 of unit cell:	Completed after 14 iterations at t[s]:   1246.13
	Linear fluid (dielectric constant: 78.4, screening length: 8.12261 Bohr) occupying 0.470421 of unit cell:	Completed after 15 iterations at t[s]:   1252.16
	FillingsUpdate:  mu: -0.171300000  nElectrons: 189.907121  magneticMoment: [ Abs: 0.00000  Tot: +0.00000 ]
	SubspaceRotationAdjust: set factor to 0.0767
	SubspaceRotationAdjust: resetting CG because factor has changed by 0.109369
	Linear fluid (dielectric constant: 78.4, screening length: 8.12261 Bohr) occupying 0.470421 of unit cell:	Completed after 0 iterations at t[s]:   1262.70
ElecMinimize: 	State modified externally: resetting search direction.
ElecMinimize: Iter:   4  G: -1985.915464817529937  |grad|_K:  2.187e-06  alpha:  5.247e-01
	Linear fluid (dielectric constant: 78.4, screening length: 8.12261 Bohr) occupying 0.470971 of unit cell:	Completed after 18 iterations at t[s]:   1277.41
	Linear fluid (dielectric constant: 78.4, screening length: 8.12261 Bohr) occupying 0.470575 of unit cell:	Completed after 15 iterations at t[s]:   1283.45
	FillingsUpdate:  mu: -0.171300000  nElectrons: 189.896729  magneticMoment: [ Abs: 0.00000  Tot: +0.00000 ]
	SubspaceRotationAdjust: set factor to 0.076
ElecMinimize: Iter:   5  G: -1985.915564248691680  |grad|_K:  1.522e-06  alpha:  1.461e-01  linmin: -1.092e-04  t[s]:   1291.00
	Linear fluid (dielectric constant: 78.4, screening length: 8.12261 Bohr) occupying 0.470777 of unit cell:	Completed after 13 iterations at t[s]:   1298.10
	Linear fluid (dielectric constant: 78.4, screening length: 8.12261 Bohr) occupying 0.470756 of unit cell:	Completed after 10 iterations at t[s]:   1303.99
	FillingsUpdate:  mu: -0.171300000  nElectrons: 189.889842  magneticMoment: [ Abs: 0.00000  Tot: +0.00000 ]
	SubspaceRotationAdjust: set factor to 0.0801
ElecMinimize: Iter:   6  G: -1985.915607432950537  |grad|_K:  7.926e-07  alpha:  1.312e-01  linmin:  1.473e-05  t[s]:   1311.52
	Linear fluid (dielectric constant: 78.4, screening length: 8.12261 Bohr) occupying 0.470910 of unit cell:	Completed after 10 iterations at t[s]:   1318.44
ElecMinimize: 	Predicted alpha/alphaT>3.000000, increasing alphaT to 3.934743e-01.
	Linear fluid (dielectric constant: 78.4, screening length: 8.12261 Bohr) occupying 0.471215 of unit cell:	Completed after 10 iterations at t[s]:   1324.88
	Linear fluid (dielectric constant: 78.4, screening length: 8.12261 Bohr) occupying 0.471604 of unit cell:	Completed after 11 iterations at t[s]:   1331.42
	FillingsUpdate:  mu: -0.171300000  nElectrons: 189.885924  magneticMoment: [ Abs: 0.00000  Tot: +0.00000 ]
	SubspaceRotationAdjust: set factor to 0.0868
ElecMinimize: Iter:   7  G: -1985.915672521528450  |grad|_K:  1.899e-06  alpha:  7.302e-01  linmin: -1.451e-05  t[s]:   1339.02
	Linear fluid (dielectric constant: 78.4, screening length: 8.12261 Bohr) occupying 0.476646 of unit cell:	Completed after 18 iterations at t[s]:   1346.41
	Linear fluid (dielectric constant: 78.4, screening length: 8.12261 Bohr) occupying 0.472904 of unit cell:	Completed after 17 iterations at t[s]:   1352.50
	FillingsUpdate:  mu: -0.171300000  nElectrons: 189.882299  magneticMoment: [ Abs: 0.00000  Tot: +0.00000 ]
	SubspaceRotationAdjust: set factor to 0.098
ElecMinimize: Iter:   8  G: -1985.915764527708006  |grad|_K:  1.333e-06  alpha:  1.808e-01  linmin:  5.787e-05  t[s]:   1360.10
	Linear fluid (dielectric constant: 78.4, screening length: 8.12261 Bohr) occupying 0.473612 of unit cell:	Completed after 12 iterations at t[s]:   1367.09
	Linear fluid (dielectric constant: 78.4, screening length: 8.12261 Bohr) occupying 0.473581 of unit cell:	Completed after 7 iterations at t[s]:   1372.76
	FillingsUpdate:  mu: -0.171300000  nElectrons: 189.880060  magneticMoment: [ Abs: 0.00000  Tot: +0.00000 ]
	SubspaceRotationAdjust: set factor to 0.113
ElecMinimize: Iter:   9  G: -1985.915807785317611  |grad|_K:  1.207e-06  alpha:  1.727e-01  linmin: -5.555e-07  t[s]:   1380.28
	Linear fluid (dielectric constant: 78.4, screening length: 8.12261 Bohr) occupying 0.474189 of unit cell:	Completed after 9 iterations at t[s]:   1387.18
	Linear fluid (dielectric constant: 78.4, screening length: 8.12261 Bohr) occupying 0.474548 of unit cell:	Completed after 8 iterations at t[s]:   1392.90
	FillingsUpdate:  mu: -0.171300000  nElectrons: 189.872871  magneticMoment: [ Abs: 0.00000  Tot: +0.00000 ]
	SubspaceRotationAdjust: set factor to 0.131
ElecMinimize: Iter:  10  G: -1985.915865017027500  |grad|_K:  1.302e-06  alpha:  2.764e-01  linmin: -2.504e-05  t[s]:   1400.45
	Linear fluid (dielectric constant: 78.4, screening length: 8.12261 Bohr) occupying 0.475685 of unit cell:	Completed after 15 iterations at t[s]:   1407.54
	Linear fluid (dielectric constant: 78.4, screening length: 8.12261 Bohr) occupying 0.475705 of unit cell:	Completed after 2 iterations at t[s]:   1413.13
	FillingsUpdate:  mu: -0.171300000  nElectrons: 189.860762  magneticMoment: [ Abs: 0.00000  Tot: +0.00000 ]
	SubspaceRotationAdjust: set factor to 0.14
ElecMinimize: Iter:  11  G: -1985.915932929980954  |grad|_K:  1.591e-06  alpha:  2.814e-01  linmin: -3.946e-05  t[s]:   1420.60
	Linear fluid (dielectric constant: 78.4, screening length: 8.12261 Bohr) occupying 0.477317 of unit cell:	Completed after 12 iterations at t[s]:   1427.62
	Linear fluid (dielectric constant: 78.4, screening length: 8.12261 Bohr) occupying 0.476661 of unit cell:	Completed after 12 iterations at t[s]:   1433.54
	FillingsUpdate:  mu: -0.171300000  nElectrons: 189.851156  magneticMoment: [ Abs: 0.00000  Tot: +0.00000 ]
	SubspaceRotationAdjust: set factor to 0.158
ElecMinimize: Iter:  12  G: -1985.915991693437945  |grad|_K:  1.115e-06  alpha:  1.631e-01  linmin:  4.847e-06  t[s]:   1441.08
	Linear fluid (dielectric constant: 78.4, screening length: 8.12261 Bohr) occupying 0.477111 of unit cell:	Completed after 11 iterations at t[s]:   1448.01
	Linear fluid (dielectric constant: 78.4, screening length: 8.12261 Bohr) occupying 0.477447 of unit cell:	Completed after 10 iterations at t[s]:   1453.83
	FillingsUpdate:  mu: -0.171300000  nElectrons: 189.843327  magneticMoment: [ Abs: 0.00000  Tot: +0.00000 ]
	SubspaceRotationAdjust: set factor to 0.165
ElecMinimize: Iter:  13  G: -1985.916042787623837  |grad|_K:  1.461e-06  alpha:  2.896e-01  linmin: -1.286e-05  t[s]:   1461.45
	Linear fluid (dielectric constant: 78.4, screening length: 8.12261 Bohr) occupying 0.478652 of unit cell:	Completed after 13 iterations at t[s]:   1468.54
	Linear fluid (dielectric constant: 78.4, screening length: 8.12261 Bohr) occupying 0.478236 of unit cell:	Completed after 12 iterations at t[s]:   1474.49
	FillingsUpdate:  mu: -0.171300000  nElectrons: 189.835023  magneticMoment: [ Abs: 0.00000  Tot: +0.00000 ]
	SubspaceRotationAdjust: set factor to 0.174
ElecMinimize: Iter:  14  G: -1985.916098720465243  |grad|_K:  9.299e-07  alpha:  1.848e-01  linmin: -1.252e-06  t[s]:   1482.13
	Linear fluid (dielectric constant: 78.4, screening length: 8.12261 Bohr) occupying 0.478520 of unit cell:	Completed after 12 iterations at t[s]:   1489.18
	Linear fluid (dielectric constant: 78.4, screening length: 8.12261 Bohr) occupying 0.478507 of unit cell:	Completed after 7 iterations at t[s]:   1494.85
	FillingsUpdate:  mu: -0.171300000  nElectrons: 189.830917  magneticMoment: [ Abs: 0.00000  Tot: +0.00000 ]
	SubspaceRotationAdjust: set factor to 0.18
ElecMinimize: Iter:  15  G: -1985.916120324459598  |grad|_K:  9.054e-07  alpha:  1.763e-01  linmin: -2.591e-05  t[s]:   1502.42
	Linear fluid (dielectric constant: 78.4, screening length: 8.12261 Bohr) occupying 0.478743 of unit cell:	Completed after 12 iterations at t[s]:   1509.39
	Linear fluid (dielectric constant: 78.4, screening length: 8.12261 Bohr) occupying 0.478822 of unit cell:	Completed after 10 iterations at t[s]:   1515.18
	FillingsUpdate:  mu: -0.171300000  nElectrons: 189.827964  magneticMoment: [ Abs: 0.00000  Tot: +0.00000 ]
	SubspaceRotationAdjust: set factor to 0.203
ElecMinimize: Iter:  16  G: -1985.916148000865633  |grad|_K:  7.155e-07  alpha:  2.369e-01  linmin: -4.008e-05  t[s]:   1522.79
	Linear fluid (dielectric constant: 78.4, screening length: 8.12261 Bohr) occupying 0.479007 of unit cell:	Completed after 13 iterations at t[s]:   1529.88
	Linear fluid (dielectric constant: 78.4, screening length: 8.12261 Bohr) occupying 0.478935 of unit cell:	Completed after 10 iterations at t[s]:   1535.72
	FillingsUpdate:  mu: -0.171300000  nElectrons: 189.829733  magneticMoment: [ Abs: 0.00000  Tot: +0.00000 ]
	SubspaceRotationAdjust: set factor to 0.21
ElecMinimize: Iter:  17  G: -1985.916158500226857  |grad|_K:  5.077e-07  alpha:  1.440e-01  linmin:  1.102e-06  t[s]:   1543.36
	Linear fluid (dielectric constant: 78.4, screening length: 8.12261 Bohr) occupying 0.478990 of unit cell:	Completed after 10 iterations at t[s]:   1550.37
	Linear fluid (dielectric constant: 78.4, screening length: 8.12261 Bohr) occupying 0.479005 of unit cell:	Completed after 8 iterations at t[s]:   1556.16
	FillingsUpdate:  mu: -0.171300000  nElectrons: 189.830933  magneticMoment: [ Abs: 0.00000  Tot: +0.00000 ]
	SubspaceRotationAdjust: set factor to 0.221
ElecMinimize: Iter:  18  G: -1985.916165263463654  |grad|_K:  4.197e-07  alpha:  1.851e-01  linmin: -6.517e-06  t[s]:   1563.78
	Linear fluid (dielectric constant: 78.4, screening length: 8.12261 Bohr) occupying 0.479049 of unit cell:	Completed after 11 iterations at t[s]:   1570.72
	Linear fluid (dielectric constant: 78.4, screening length: 8.12261 Bohr) occupying 0.479046 of unit cell:	Completed after 6 iterations at t[s]:   1576.46
	FillingsUpdate:  mu: -0.171300000  nElectrons: 189.829541  magneticMoment: [ Abs: 0.00000  Tot: +0.00000 ]
	SubspaceRotationAdjust: set factor to 0.207
ElecMinimize: Iter:  19  G: -1985.916169587573904  |grad|_K:  3.102e-07  alpha:  1.731e-01  linmin:  5.905e-06  t[s]:   1584.04
	Linear fluid (dielectric constant: 78.4, screening length: 8.12261 Bohr) occupying 0.479068 of unit cell:	Completed after 7 iterations at t[s]:   1590.91
	Linear fluid (dielectric constant: 78.4, screening length: 8.12261 Bohr) occupying 0.479070 of unit cell:	Completed after 2 iterations at t[s]:   1596.52
	FillingsUpdate:  mu: -0.171300000  nElectrons: 189.829282  magneticMoment: [ Abs: 0.00000  Tot: +0.00000 ]
	SubspaceRotationAdjust: set factor to 0.227
ElecMinimize: Iter:  20  G: -1985.916172252841079  |grad|_K:  2.669e-07  alpha:  1.954e-01  linmin: -4.878e-06  t[s]:   1604.18
	Linear fluid (dielectric constant: 78.4, screening length: 8.12261 Bohr) occupying 0.479087 of unit cell:	Completed after 10 iterations at t[s]:   1611.09
	Linear fluid (dielectric constant: 78.4, screening length: 8.12261 Bohr) occupying 0.479084 of unit cell:	Completed after 8 iterations at t[s]:   1616.82
	FillingsUpdate:  mu: -0.171300000  nElectrons: 189.829768  magneticMoment: [ Abs: 0.00000  Tot: +0.00000 ]
	SubspaceRotationAdjust: set factor to 0.229
ElecMinimize: Iter:  21  G: -1985.916173875231152  |grad|_K:  1.895e-07  alpha:  1.604e-01  linmin:  2.607e-05  t[s]:   1624.48
	Linear fluid (dielectric constant: 78.4, screening length: 8.12261 Bohr) occupying 0.479091 of unit cell:	Completed after 6 iterations at t[s]:   1631.86
	Linear fluid (dielectric constant: 78.4, screening length: 8.12261 Bohr) occupying 0.479092 of unit cell:	Completed after 2 iterations at t[s]:   1637.35
	FillingsUpdate:  mu: -0.171300000  nElectrons: 189.829636  magneticMoment: [ Abs: 0.00000  Tot: +0.00000 ]
	SubspaceRotationAdjust: set factor to 0.258
ElecMinimize: Iter:  22  G: -1985.916174853158964  |grad|_K:  1.610e-07  alpha:  1.924e-01  linmin: -1.571e-05  t[s]:   1644.91
	Linear fluid (dielectric constant: 78.4, screening length: 8.12261 Bohr) occupying 0.479097 of unit cell:	Completed after 9 iterations at t[s]:   1651.86
	Linear fluid (dielectric constant: 78.4, screening length: 8.12261 Bohr) occupying 0.479096 of unit cell:	Completed after 2 iterations at t[s]:   1657.35
	FillingsUpdate:  mu: -0.171300000  nElectrons: 189.829272  magneticMoment: [ Abs: 0.00000  Tot: +0.00000 ]
	SubspaceRotationAdjust: set factor to 0.266
ElecMinimize: Iter:  23  G: -1985.916175441491532  |grad|_K:  1.152e-07  alpha:  1.600e-01  linmin:  5.662e-05  t[s]:   1664.95
	Linear fluid (dielectric constant: 78.4, screening length: 8.12261 Bohr) occupying 0.479096 of unit cell:	Completed after 8 iterations at t[s]:   1671.81
	Linear fluid (dielectric constant: 78.4, screening length: 8.12261 Bohr) occupying 0.479096 of unit cell:	Completed after 2 iterations at t[s]:   1677.27
	FillingsUpdate:  mu: -0.171300000  nElectrons: 189.829609  magneticMoment: [ Abs: 0.00000  Tot: +0.00000 ]
	SubspaceRotationAdjust: set factor to 0.28
ElecMinimize: Iter:  24  G: -1985.916175816376835  |grad|_K:  1.062e-07  alpha:  1.987e-01  linmin: -1.947e-04  t[s]:   1684.82
	Linear fluid (dielectric constant: 78.4, screening length: 8.12261 Bohr) occupying 0.479094 of unit cell:	Completed after 6 iterations at t[s]:   1691.58
	Linear fluid (dielectric constant: 78.4, screening length: 8.12261 Bohr) occupying 0.479095 of unit cell:	Completed after 0 iterations at t[s]:   1696.92
	FillingsUpdate:  mu: -0.171300000  nElectrons: 189.829778  magneticMoment: [ Abs: 0.00000  Tot: +0.00000 ]
	SubspaceRotationAdjust: set factor to 0.328
ElecMinimize: Iter:  25  G: -1985.916176116137876  |grad|_K:  7.745e-08  alpha:  1.840e-01  linmin:  3.586e-05  t[s]:   1704.50
	Linear fluid (dielectric constant: 78.4, screening length: 8.12261 Bohr) occupying 0.479092 of unit cell:	Completed after 8 iterations at t[s]:   1711.35
	Linear fluid (dielectric constant: 78.4, screening length: 8.12261 Bohr) occupying 0.479092 of unit cell:	Completed after 0 iterations at t[s]:   1716.81
	FillingsUpdate:  mu: -0.171300000  nElectrons: 189.829757  magneticMoment: [ Abs: 0.00000  Tot: +0.00000 ]
	SubspaceRotationAdjust: set factor to 0.348
ElecMinimize: Iter:  26  G: -1985.916176261738428  |grad|_K:  6.956e-08  alpha:  1.715e-01  linmin:  1.238e-04  t[s]:   1724.35
	Linear fluid (dielectric constant: 78.4, screening length: 8.12261 Bohr) occupying 0.479088 of unit cell:	Completed after 7 iterations at t[s]:   1731.22
	Linear fluid (dielectric constant: 78.4, screening length: 8.12261 Bohr) occupying 0.479087 of unit cell:	Completed after 0 iterations at t[s]:   1736.60
	FillingsUpdate:  mu: -0.171300000  nElectrons: 189.830124  magneticMoment: [ Abs: 0.00000  Tot: +0.00000 ]
	SubspaceRotationAdjust: set factor to 0.387
ElecMinimize: Iter:  27  G: -1985.916176401848816  |grad|_K:  4.973e-08  alpha:  2.067e-01  linmin: -1.363e-04  t[s]:   1744.18
	Linear fluid (dielectric constant: 78.4, screening length: 8.12261 Bohr) occupying 0.479083 of unit cell:	Completed after 2 iterations at t[s]:   1750.92
	Linear fluid (dielectric constant: 78.4, screening length: 8.12261 Bohr) occupying 0.479084 of unit cell:	Completed after 2 iterations at t[s]:   1756.45
	FillingsUpdate:  mu: -0.171300000  nElectrons: 189.830246  magneticMoment: [ Abs: 0.00000  Tot: +0.00000 ]
	SubspaceRotationAdjust: set factor to 0.439
ElecMinimize: Iter:  28  G: -1985.916176456462381  |grad|_K:  4.207e-08  alpha:  1.546e-01  linmin: -3.430e-05  t[s]:   1764.00
	Linear fluid (dielectric constant: 78.4, screening length: 8.12261 Bohr) occupying 0.479080 of unit cell:	Completed after 2 iterations at t[s]:   1770.65
	Linear fluid (dielectric constant: 78.4, screening length: 8.12261 Bohr) occupying 0.479078 of unit cell:	Completed after 1 iterations at t[s]:   1776.14
	FillingsUpdate:  mu: -0.171300000  nElectrons: 189.830335  magneticMoment: [ Abs: 0.00000  Tot: +0.00000 ]
	SubspaceRotationAdjust: set factor to 0.483
ElecMinimize: Iter:  29  G: -1985.916176513920846  |grad|_K:  3.800e-08  alpha:  2.281e-01  linmin:  1.503e-06  t[s]:   1783.66
ElecMinimize: Converged (|Delta G|<1.000000e-07 for 2 iters).
Setting wave functions to eigenvectors of Hamiltonian
Converging empty states (this may take a while): |deigs|: 3.732e-04
Single-point solvation energy estimate, DeltaG = -0.002266157457143

Computing DFT-D3 correction:
# coordination-number Cu 8.369 9.149 9.125 6.852 4.605 9.125 9.149 8.369 4.605 6.852
# diagonal-C6 Cu 175.00 175.00 175.00 175.00 175.00 175.00 175.00 175.00 175.00 175.00
EvdW_6 =   -0.050851
EvdW_8 =   -0.080807

# Ionic positions in cartesian coordinates:
ion Cu   3.370512000000000   1.507339000000000  11.305040000000000 1
ion Cu   0.000000000000000   3.014677000000000   8.290348000000002 1
ion Cu   3.370512000000000   4.522016000000000   5.275700000000001 1
ion Cu   0.000000000000000   6.029354000000000   2.261008000000000 1
ion Cu   0.000000000000000   0.000000000000000  14.319732000000000 1
ion Cu   3.370512000000000   6.029354000000000   9.797715999999999 1
ion Cu   3.370512000000000   0.000000000000000   6.783024000000001 1
ion Cu   0.000000000000000   1.507339000000000   3.768332000000000 1
ion Cu   3.370512000000000   3.014677000000000   0.753684000000000 1
ion Cu   0.000000000000000   4.522016000000000  12.812364000000001 1

# Forces in Cartesian coordinates:
force Cu   0.000125826895311   0.000361978543193   0.008704256586425 1
force Cu  -0.000013189207532  -0.000497805589310  -0.001334524636918 1
force Cu  -0.000169522897794   0.000940690245423  -0.001768997736443 1
force Cu   0.000065754575668  -0.000066674756924  -0.002849142740163 1
force Cu   0.000038622492665   0.000089835370261  -0.007352174215764 1
force Cu   0.000191871881461  -0.000964419087403   0.001707267538737 1
force Cu   0.000026845892532   0.000494466426960   0.001245749278362 1
force Cu  -0.000200376350036  -0.000298511455937  -0.008723592370287 1
force Cu  -0.000020682474091  -0.000090819128301   0.007396788454955 1
force Cu  -0.000042204151437   0.000038829493329   0.002870772998415 1

# Energy components:
   A_diel =        0.0261295047512177
   Eewald =     6317.0921860341568390
       EH =     8162.4445481241073139
     Eloc =   -16877.0730358543660259
      Enl =      366.2653305080010568
     EvdW =       -0.1316587634301847
      Exc =     -193.9800152707486234
 Exc_core =        0.4697118537490236
       KE =      206.4390239573015720
  MuShift =        0.0139221743149607
-------------------------------------
     Etot =    -2018.4338577321623234
       TS =        0.0002551447083992
-------------------------------------
        F =    -2018.4341128768708131
      muN =      -32.5179363629499463
-------------------------------------
        G =    -1985.9161765139208455


Dumping 'jdft.fillings' ... done
Dumping 'jdft.wfns' ... done
Dumping 'jdft.fluidState' ... done
Dumping 'jdft.ionpos' ... done
Dumping 'jdft.lattice' ... done
Dumping 'jdft.eigenvals' ... done
Dumping 'jdft.eigStats' ... 
	eMin: -4.312155 at state 63 ( [ +0.000000 +0.000000 +0.000000 ] spin -1 )
	HOMO: -0.171910 at state 116 ( [ -0.222222 -0.428571 +0.000000 ] spin -1 )
	mu  : -0.171300
	LUMO: -0.170193 at state 9 ( [ +0.111111 +0.285714 +0.000000 ] spin 1 )
	eMax: +0.182771 at state 123 ( [ -0.111111 -0.428571 +0.000000 ] spin -1 )
	HOMO-LUMO gap: +0.001717
	Optical gap  : +0.008736 at state 105 ( [ -0.333333 +0.000000 +0.000000 ] spin -1 )
Dumping 'jdft.Ecomponents' ... done
IonicMinimize: Iter:   0  G: -1985.916176513920846  |grad|_K:  3.104e-03  t[s]:   1839.03

#--- Lowdin population analysis ---
# oxidation-state Cu +0.028 +0.069 +0.047 +0.066 +0.314 +0.046 +0.069 +0.028 +0.314 +0.065
# magnetic-moments Cu -0.000 -0.000 -0.000 -0.000 -0.000 +0.000 +0.000 -0.000 +0.000 -0.000


Computing DFT-D3 correction:
# coordination-number Cu 8.368 9.132 9.120 6.859 4.631 9.120 9.132 8.368 4.632 6.859
# diagonal-C6 Cu 175.00 175.00 175.00 175.00 175.00 175.00 175.00 175.00 175.00 175.00
EvdW_6 =   -0.050850
EvdW_8 =   -0.080785
Shifting auxilliary hamiltonian by 0.000001 to set nElectrons=189.830335

-------- Electronic minimization -----------
	Linear fluid (dielectric constant: 78.4, screening length: 8.12261 Bohr) occupying 0.479378 of unit cell:	Completed after 11 iterations at t[s]:   1846.84
	FillingsUpdate:  mu: -0.171300000  nElectrons: 189.830335  magneticMoment: [ Abs: 0.00000  Tot: -0.00000 ]
ElecMinimize: Iter:   0  G: -1985.916368256423539  |grad|_K:  1.062e-06  alpha:  1.000e+00
	Linear fluid (dielectric constant: 78.4, screening length: 8.12261 Bohr) occupying 0.479338 of unit cell:	Completed after 16 iterations at t[s]:   1862.96
	Linear fluid (dielectric constant: 78.4, screening length: 8.12261 Bohr) occupying 0.479373 of unit cell:	Completed after 16 iterations at t[s]:   1869.19
	FillingsUpdate:  mu: -0.171300000  nElectrons: 189.829761  magneticMoment: [ Abs: 0.00000  Tot: -0.00000 ]
	SubspaceRotationAdjust: set factor to 0.568
ElecMinimize: Iter:   1  G: -1985.916390168546286  |grad|_K:  8.308e-07  alpha:  1.370e-01  linmin: -9.361e-06  t[s]:   1876.77
	Linear fluid (dielectric constant: 78.4, screening length: 8.12261 Bohr) occupying 0.479364 of unit cell:	Completed after 10 iterations at t[s]:   1883.72
	Linear fluid (dielectric constant: 78.4, screening length: 8.12261 Bohr) occupying 0.479355 of unit cell:	Completed after 10 iterations at t[s]:   1889.55
	FillingsUpdate:  mu: -0.171300000  nElectrons: 189.832418  magneticMoment: [ Abs: 0.00000  Tot: -0.00000 ]
	SubspaceRotationAdjust: set factor to 0.602
ElecMinimize: Iter:   2  G: -1985.916418005024070  |grad|_K:  8.336e-07  alpha:  2.843e-01  linmin: -6.193e-06  t[s]:   1897.06
	Linear fluid (dielectric constant: 78.4, screening length: 8.12261 Bohr) occupying 0.479314 of unit cell:	Completed after 14 iterations at t[s]:   1904.18
	Linear fluid (dielectric constant: 78.4, screening length: 8.12261 Bohr) occupying 0.479342 of unit cell:	Completed after 13 iterations at t[s]:   1910.14
	FillingsUpdate:  mu: -0.171300000  nElectrons: 189.828877  magneticMoment: [ Abs: 0.00000  Tot: -0.00000 ]
	SubspaceRotationAdjust: set factor to 0.447
ElecMinimize: Iter:   3  G: -1985.916426819281469  |grad|_K:  7.815e-07  alpha:  8.979e-02  linmin:  3.386e-05  t[s]:   1917.72
	Linear fluid (dielectric constant: 78.4, screening length: 8.12261 Bohr) occupying 0.479330 of unit cell:	Completed after 12 iterations at t[s]:   1925.36
	Linear fluid (dielectric constant: 78.4, screening length: 8.12261 Bohr) occupying 0.479328 of unit cell:	Completed after 10 iterations at t[s]:   1931.17
	FillingsUpdate:  mu: -0.171300000  nElectrons: 189.831520  magneticMoment: [ Abs: 0.00000  Tot: +0.00000 ]
	SubspaceRotationAdjust: set factor to 0.356
ElecMinimize: Iter:   4  G: -1985.916435673521391  |grad|_K:  5.238e-07  alpha:  1.025e-01  linmin: -2.644e-06  t[s]:   1938.73
	Linear fluid (dielectric constant: 78.4, screening length: 8.12261 Bohr) occupying 0.479319 of unit cell:	Completed after 10 iterations at t[s]:   1945.66
	Linear fluid (dielectric constant: 78.4, screening length: 8.12261 Bohr) occupying 0.479316 of unit cell:	Completed after 7 iterations at t[s]:   1951.37
	FillingsUpdate:  mu: -0.171300000  nElectrons: 189.831126  magneticMoment: [ Abs: 0.00000  Tot: +0.00000 ]
	SubspaceRotationAdjust: set factor to 0.426
ElecMinimize: Iter:   5  G: -1985.916441132512318  |grad|_K:  3.728e-07  alpha:  1.403e-01  linmin:  3.440e-06  t[s]:   1958.88
	Linear fluid (dielectric constant: 78.4, screening length: 8.12261 Bohr) occupying 0.479309 of unit cell:	Completed after 10 iterations at t[s]:   1965.85
	Linear fluid (dielectric constant: 78.4, screening length: 8.12261 Bohr) occupying 0.479301 of unit cell:	Completed after 9 iterations at t[s]:   1971.62
	FillingsUpdate:  mu: -0.171300000  nElectrons: 189.829691  magneticMoment: [ Abs: 0.00000  Tot: +0.00000 ]
	SubspaceRotationAdjust: set factor to 0.396
ElecMinimize: Iter:   6  G: -1985.916446869032370  |grad|_K:  4.130e-07  alpha:  2.909e-01  linmin: -1.450e-05  t[s]:   1979.12
	Linear fluid (dielectric constant: 78.4, screening length: 8.12261 Bohr) occupying 0.479285 of unit cell:	Completed after 13 iterations at t[s]:   1986.15
	Linear fluid (dielectric constant: 78.4, screening length: 8.12261 Bohr) occupying 0.479297 of unit cell:	Completed after 13 iterations at t[s]:   1992.13
	FillingsUpdate:  mu: -0.171300000  nElectrons: 189.831344  magneticMoment: [ Abs: 0.00000  Tot: +0.00000 ]
	SubspaceRotationAdjust: set factor to 0.22
ElecMinimize: Iter:   7  G: -1985.916448810436350  |grad|_K:  2.050e-07  alpha:  8.035e-02  linmin:  1.633e-05  t[s]:   1999.71
	Linear fluid (dielectric constant: 78.4, screening length: 8.12261 Bohr) occupying 0.479295 of unit cell:	Completed after 9 iterations at t[s]:   2006.62
	Linear fluid (dielectric constant: 78.4, screening length: 8.12261 Bohr) occupying 0.479294 of unit cell:	Completed after 7 iterations at t[s]:   2012.29
	FillingsUpdate:  mu: -0.171300000  nElectrons: 189.830917  magneticMoment: [ Abs: 0.00000  Tot: +0.00000 ]
	SubspaceRotationAdjust: set factor to 0.225
ElecMinimize: Iter:   8  G: -1985.916449471115129  |grad|_K:  1.378e-07  alpha:  1.110e-01  linmin: -1.133e-05  t[s]:   2019.85
	Linear fluid (dielectric constant: 78.4, screening length: 8.12261 Bohr) occupying 0.479292 of unit cell:	Completed after 8 iterations at t[s]:   2026.75
	Linear fluid (dielectric constant: 78.4, screening length: 8.12261 Bohr) occupying 0.479289 of unit cell:	Completed after 8 iterations at t[s]:   2032.47
	FillingsUpdate:  mu: -0.171300000  nElectrons: 189.830615  magneticMoment: [ Abs: 0.00000  Tot: +0.00000 ]
	SubspaceRotationAdjust: set factor to 0.24
ElecMinimize: Iter:   9  G: -1985.916450190875821  |grad|_K:  1.347e-07  alpha:  2.669e-01  linmin: -1.679e-05  t[s]:   2040.09
	Linear fluid (dielectric constant: 78.4, screening length: 8.12261 Bohr) occupying 0.479283 of unit cell:	Completed after 10 iterations at t[s]:   2047.03
	Linear fluid (dielectric constant: 78.4, screening length: 8.12261 Bohr) occupying 0.479287 of unit cell:	Completed after 9 iterations at t[s]:   2052.84
	FillingsUpdate:  mu: -0.171300000  nElectrons: 189.831108  magneticMoment: [ Abs: 0.00000  Tot: +0.00000 ]
	SubspaceRotationAdjust: set factor to 0.258
ElecMinimize: Iter:  10  G: -1985.916450486636222  |grad|_K:  6.903e-08  alpha:  1.149e-01  linmin:  5.493e-06  t[s]:   2060.40
	Linear fluid (dielectric constant: 78.4, screening length: 8.12261 Bohr) occupying 0.479285 of unit cell:	Completed after 7 iterations at t[s]:   2067.23
	Linear fluid (dielectric constant: 78.4, screening length: 8.12261 Bohr) occupying 0.479285 of unit cell:	Completed after 2 iterations at t[s]:   2072.71
	FillingsUpdate:  mu: -0.171300000  nElectrons: 189.831310  magneticMoment: [ Abs: 0.00000  Tot: +0.00000 ]
	SubspaceRotationAdjust: set factor to 0.273
ElecMinimize: Iter:  11  G: -1985.916450593939089  |grad|_K:  5.393e-08  alpha:  1.582e-01  linmin: -3.291e-04  t[s]:   2080.37
	Linear fluid (dielectric constant: 78.4, screening length: 8.12261 Bohr) occupying 0.479282 of unit cell:	Completed after 6 iterations at t[s]:   2087.13
	Linear fluid (dielectric constant: 78.4, screening length: 8.12261 Bohr) occupying 0.479281 of unit cell:	Completed after 3 iterations at t[s]:   2092.65
	FillingsUpdate:  mu: -0.171300000  nElectrons: 189.831172  magneticMoment: [ Abs: 0.00000  Tot: +0.00000 ]
	SubspaceRotationAdjust: set factor to 0.279
ElecMinimize: Iter:  12  G: -1985.916450679429317  |grad|_K:  4.350e-08  alpha:  2.059e-01  linmin:  2.324e-04  t[s]:   2100.24
	Linear fluid (dielectric constant: 78.4, screening length: 8.12261 Bohr) occupying 0.479278 of unit cell:	Completed after 6 iterations at t[s]:   2107.00
	Linear fluid (dielectric constant: 78.4, screening length: 8.12261 Bohr) occupying 0.479278 of unit cell:	Completed after 1 iterations at t[s]:   2112.44
	FillingsUpdate:  mu: -0.171300000  nElectrons: 189.831159  magneticMoment: [ Abs: 0.00000  Tot: +0.00000 ]
	SubspaceRotationAdjust: set factor to 0.309
ElecMinimize: Iter:  13  G: -1985.916450724076640  |grad|_K:  3.897e-08  alpha:  1.698e-01  linmin: -9.474e-05  t[s]:   2120.03
ElecMinimize: Converged (|Delta G|<1.000000e-07 for 2 iters).
Setting wave functions to eigenvectors of Hamiltonian
Converging empty states (this may take a while): |deigs|: 1.041e-07

Computing DFT-D3 correction:
# coordination-number Cu 8.368 9.132 9.120 6.859 4.631 9.120 9.132 8.368 4.632 6.859
# diagonal-C6 Cu 175.00 175.00 175.00 175.00 175.00 175.00 175.00 175.00 175.00 175.00
EvdW_6 =   -0.050850
EvdW_8 =   -0.080785
IonicMinimize: 	Wolfe criterion not satisfied: alpha: 1  (E-E0)/|gdotd0|: -0.948669  gdotd/gdotd0: 0.91424 (taking cubic step)

Computing DFT-D3 correction:
# coordination-number Cu 8.365 9.098 9.111 6.873 4.683 9.110 9.098 8.365 4.683 6.872
# diagonal-C6 Cu 175.00 175.00 175.00 175.00 175.00 175.00 175.00 175.00 175.00 175.00
EvdW_6 =   -0.050846
EvdW_8 =   -0.080740
Shifting auxilliary hamiltonian by 0.000056 to set nElectrons=189.831159

-------- Electronic minimization -----------
	Linear fluid (dielectric constant: 78.4, screening length: 8.12261 Bohr) occupying 0.479915 of unit cell:	Completed after 13 iterations at t[s]:   2146.67
	FillingsUpdate:  mu: -0.171300000  nElectrons: 189.831159  magneticMoment: [ Abs: 0.00000  Tot: +0.00000 ]
ElecMinimize: Iter:   0  G: -1985.916602725596931  |grad|_K:  2.069e-06  alpha:  1.000e+00
	Linear fluid (dielectric constant: 78.4, screening length: 8.12261 Bohr) occupying 0.479894 of unit cell:	Completed after 14 iterations at t[s]:   2162.51
	Linear fluid (dielectric constant: 78.4, screening length: 8.12261 Bohr) occupying 0.479913 of unit cell:	Completed after 15 iterations at t[s]:   2168.62
	FillingsUpdate:  mu: -0.171300000  nElectrons: 189.828874  magneticMoment: [ Abs: 0.00000  Tot: +0.00000 ]
	SubspaceRotationAdjust: set factor to 0.343
ElecMinimize: Iter:   1  G: -1985.916683727571126  |grad|_K:  1.547e-06  alpha:  1.334e-01  linmin: -1.087e-05  t[s]:   2176.21
	Linear fluid (dielectric constant: 78.4, screening length: 8.12261 Bohr) occupying 0.479910 of unit cell:	Completed after 10 iterations at t[s]:   2183.24
	Linear fluid (dielectric constant: 78.4, screening length: 8.12261 Bohr) occupying 0.479906 of unit cell:	Completed after 10 iterations at t[s]:   2189.10
	FillingsUpdate:  mu: -0.171300000  nElectrons: 189.832737  magneticMoment: [ Abs: 0.00000  Tot: +0.00000 ]
	SubspaceRotationAdjust: set factor to 0.375
ElecMinimize: Iter:   2  G: -1985.916783258405303  |grad|_K:  1.344e-06  alpha:  2.931e-01  linmin: -1.133e-06  t[s]:   2196.61
	Linear fluid (dielectric constant: 78.4, screening length: 8.12261 Bohr) occupying 0.479876 of unit cell:	Completed after 13 iterations at t[s]:   2203.69
	Linear fluid (dielectric constant: 78.4, screening length: 8.12261 Bohr) occupying 0.479889 of unit cell:	Completed after 12 iterations at t[s]:   2209.57
	FillingsUpdate:  mu: -0.171300000  nElectrons: 189.828928  magneticMoment: [ Abs: 0.00000  Tot: +0.00000 ]
	SubspaceRotationAdjust: set factor to 0.371
ElecMinimize: Iter:   3  G: -1985.916825908674355  |grad|_K:  1.206e-06  alpha:  1.667e-01  linmin:  1.442e-06  t[s]:   2217.17
	Linear fluid (dielectric constant: 78.4, screening length: 8.12261 Bohr) occupying 0.479872 of unit cell:	Completed after 13 iterations at t[s]:   2224.85
	Linear fluid (dielectric constant: 78.4, screening length: 8.12261 Bohr) occupying 0.479874 of unit cell:	Completed after 10 iterations at t[s]:   2230.67
	FillingsUpdate:  mu: -0.171300000  nElectrons: 189.833310  magneticMoment: [ Abs: 0.00000  Tot: +0.00000 ]
	SubspaceRotationAdjust: set factor to 0.336
ElecMinimize: Iter:   4  G: -1985.916856410738546  |grad|_K:  8.846e-07  alpha:  1.480e-01  linmin: -4.321e-07  t[s]:   2238.24
	Linear fluid (dielectric constant: 78.4, screening length: 8.12261 Bohr) occupying 0.479858 of unit cell:	Completed after 12 iterations at t[s]:   2245.27
	Linear fluid (dielectric constant: 78.4, screening length: 8.12261 Bohr) occupying 0.479852 of unit cell:	Completed after 10 iterations at t[s]:   2251.08
	FillingsUpdate:  mu: -0.171300000  nElectrons: 189.829094  magneticMoment: [ Abs: 0.00000  Tot: +0.00000 ]
	SubspaceRotationAdjust: set factor to 0.3
ElecMinimize: Iter:   5  G: -1985.916879422476995  |grad|_K:  1.051e-06  alpha:  2.073e-01  linmin: -8.644e-06  t[s]:   2258.55
	Linear fluid (dielectric constant: 78.4, screening length: 8.12261 Bohr) occupying 0.479820 of unit cell:	Completed after 12 iterations at t[s]:   2265.52
	Linear fluid (dielectric constant: 78.4, screening length: 8.12261 Bohr) occupying 0.479820 of unit cell:	Completed after 0 iterations at t[s]:   2270.85
	FillingsUpdate:  mu: -0.171300000  nElectrons: 189.831301  magneticMoment: [ Abs: 0.00000  Tot: +0.00000 ]
	SubspaceRotationAdjust: set factor to 0.307
ElecMinimize: Iter:   6  G: -1985.916912052500265  |grad|_K:  5.882e-07  alpha:  2.081e-01  linmin: -7.287e-06  t[s]:   2278.43
	Linear fluid (dielectric constant: 78.4, screening length: 8.12261 Bohr) occupying 0.479803 of unit cell:	Completed after 7 iterations at t[s]:   2285.32
	Linear fluid (dielectric constant: 78.4, screening length: 8.12261 Bohr) occupying 0.479809 of unit cell:	Completed after 2 iterations at t[s]:   2290.85
	FillingsUpdate:  mu: -0.171300000  nElectrons: 189.831501  magneticMoment: [ Abs: 0.00000  Tot: +0.00000 ]
	SubspaceRotationAdjust: set factor to 0.341
ElecMinimize: Iter:   7  G: -1985.916918638756670  |grad|_K:  4.229e-07  alpha:  1.341e-01  linmin:  3.482e-06  t[s]:   2298.40
	Linear fluid (dielectric constant: 78.4, screening length: 8.12261 Bohr) occupying 0.479798 of unit cell:	Completed after 10 iterations at t[s]:   2305.30
	Linear fluid (dielectric constant: 78.4, screening length: 8.12261 Bohr) occupying 0.479781 of unit cell:	Completed after 10 iterations at t[s]:   2311.10
	FillingsUpdate:  mu: -0.171300000  nElectrons: 189.830795  magneticMoment: [ Abs: 0.00000  Tot: +0.00000 ]
	SubspaceRotationAdjust: set factor to 0.334
ElecMinimize: Iter:   8  G: -1985.916927283027917  |grad|_K:  4.345e-07  alpha:  3.408e-01  linmin: -8.284e-06  t[s]:   2318.70
	Linear fluid (dielectric constant: 78.4, screening length: 8.12261 Bohr) occupying 0.479743 of unit cell:	Completed after 13 iterations at t[s]:   2325.75
	Linear fluid (dielectric constant: 78.4, screening length: 8.12261 Bohr) occupying 0.479770 of unit cell:	Completed after 12 iterations at t[s]:   2331.64
	FillingsUpdate:  mu: -0.171300000  nElectrons: 189.832489  magneticMoment: [ Abs: 0.00000  Tot: +0.00000 ]
	SubspaceRotationAdjust: set factor to 0.245
ElecMinimize: Iter:   9  G: -1985.916929938467547  |grad|_K:  2.342e-07  alpha:  9.910e-02  linmin: -1.149e-05  t[s]:   2339.29
	Linear fluid (dielectric constant: 78.4, screening length: 8.12261 Bohr) occupying 0.479763 of unit cell:	Completed after 9 iterations at t[s]:   2346.12
	Linear fluid (dielectric constant: 78.4, screening length: 8.12261 Bohr) occupying 0.479755 of unit cell:	Completed after 8 iterations at t[s]:   2351.94
	FillingsUpdate:  mu: -0.171300000  nElectrons: 189.832228  magneticMoment: [ Abs: 0.00000  Tot: +0.00000 ]
	SubspaceRotationAdjust: set factor to 0.233
ElecMinimize: Iter:  10  G: -1985.916931562182072  |grad|_K:  2.009e-07  alpha:  2.085e-01  linmin: -1.049e-05  t[s]:   2359.47
	Linear fluid (dielectric constant: 78.4, screening length: 8.12261 Bohr) occupying 0.479739 of unit cell:	Completed after 5 iterations at t[s]:   2366.23
	Linear fluid (dielectric constant: 78.4, screening length: 8.12261 Bohr) occupying 0.479743 of unit cell:	Completed after 2 iterations at t[s]:   2371.73
	FillingsUpdate:  mu: -0.171300000  nElectrons: 189.832397  magneticMoment: [ Abs: 0.00000  Tot: +0.00000 ]
	SubspaceRotationAdjust: set factor to 0.238
ElecMinimize: Iter:  11  G: -1985.916932462573641  |grad|_K:  1.539e-07  alpha:  1.572e-01  linmin:  6.402e-06  t[s]:   2379.18
	Linear fluid (dielectric constant: 78.4, screening length: 8.12261 Bohr) occupying 0.479732 of unit cell:	Completed after 7 iterations at t[s]:   2385.97
	Linear fluid (dielectric constant: 78.4, screening length: 8.12261 Bohr) occupying 0.479729 of unit cell:	Completed after 2 iterations at t[s]:   2391.45
	FillingsUpdate:  mu: -0.171300000  nElectrons: 189.832657  magneticMoment: [ Abs: 0.00000  Tot: +0.00000 ]
	SubspaceRotationAdjust: set factor to 0.239
ElecMinimize: Iter:  12  G: -1985.916933130719826  |grad|_K:  1.282e-07  alpha:  1.989e-01  linmin: -3.112e-05  t[s]:   2399.09
	Linear fluid (dielectric constant: 78.4, screening length: 8.12261 Bohr) occupying 0.479716 of unit cell:	Completed after 2 iterations at t[s]:   2405.75
	Linear fluid (dielectric constant: 78.4, screening length: 8.12261 Bohr) occupying 0.479721 of unit cell:	Completed after 1 iterations at t[s]:   2411.20
	FillingsUpdate:  mu: -0.171300000  nElectrons: 189.832666  magneticMoment: [ Abs: 0.00000  Tot: +0.00000 ]
	SubspaceRotationAdjust: set factor to 0.244
ElecMinimize: Iter:  13  G: -1985.916933404342899  |grad|_K:  6.869e-08  alpha:  1.172e-01  linmin:  3.224e-05  t[s]:   2418.76
	Linear fluid (dielectric constant: 78.4, screening length: 8.12261 Bohr) occupying 0.479717 of unit cell:	Completed after 2 iterations at t[s]:   2425.39
	Linear fluid (dielectric constant: 78.4, screening length: 8.12261 Bohr) occupying 0.479714 of unit cell:	Completed after 2 iterations at t[s]:   2430.89
	FillingsUpdate:  mu: -0.171300000  nElectrons: 189.832611  magneticMoment: [ Abs: 0.00000  Tot: +0.00000 ]
	SubspaceRotationAdjust: set factor to 0.247
ElecMinimize: Iter:  14  G: -1985.916933545726579  |grad|_K:  6.454e-08  alpha:  2.113e-01  linmin: -7.666e-05  t[s]:   2438.45
	Linear fluid (dielectric constant: 78.4, screening length: 8.12261 Bohr) occupying 0.479705 of unit cell:	Completed after 6 iterations at t[s]:   2445.23
	Linear fluid (dielectric constant: 78.4, screening length: 8.12261 Bohr) occupying 0.479708 of unit cell:	Completed after 2 iterations at t[s]:   2450.69
	FillingsUpdate:  mu: -0.171300000  nElectrons: 189.832564  magneticMoment: [ Abs: 0.00000  Tot: +0.00000 ]
	SubspaceRotationAdjust: set factor to 0.245
ElecMinimize: Iter:  15  G: -1985.916933624079775  |grad|_K:  3.926e-08  alpha:  1.336e-01  linmin:  1.694e-06  t[s]:   2458.24
	Linear fluid (dielectric constant: 78.4, screening length: 8.12261 Bohr) occupying 0.479705 of unit cell:	Completed after 8 iterations at t[s]:   2465.13
	Linear fluid (dielectric constant: 78.4, screening length: 8.12261 Bohr) occupying 0.479704 of unit cell:	Completed after 0 iterations at t[s]:   2470.63
	FillingsUpdate:  mu: -0.171300000  nElectrons: 189.832738  magneticMoment: [ Abs: 0.00000  Tot: +0.00000 ]
	SubspaceRotationAdjust: set factor to 0.208
ElecMinimize: Iter:  16  G: -1985.916933657372056  |grad|_K:  3.154e-08  alpha:  1.500e-01  linmin: -2.056e-03  t[s]:   2478.25
ElecMinimize: Converged (|Delta G|<1.000000e-07 for 2 iters).
Setting wave functions to eigenvectors of Hamiltonian
Converging empty states (this may take a while): |deigs|: 3.735e-07

Computing DFT-D3 correction:
# coordination-number Cu 8.365 9.098 9.111 6.873 4.683 9.110 9.098 8.365 4.683 6.872
# diagonal-C6 Cu 175.00 175.00 175.00 175.00 175.00 175.00 175.00 175.00 175.00 175.00
EvdW_6 =   -0.050846
EvdW_8 =   -0.080740

# Ionic positions in cartesian coordinates:
ion Cu   3.370888596688908   1.508422664611192  11.331183848812081 1
ion Cu  -0.000040451619620   3.013181312213682   8.286375505142050 1
ion Cu   3.370002547309595   4.524835799717882   5.270424085843475 1
ion Cu   0.000196379729979   6.029151704710839   2.252491650832314 1
ion Cu   0.000114983480970   0.000267235092397  14.297706556405513 1
ion Cu   3.371086731647360   6.026458471719403   9.802868881669015 1
ion Cu   3.370591653680573   0.001481128262493   6.786792326887892 1
ion Cu  -0.000602013047132   1.506441194613800   3.742192301941943 1
ion Cu   3.370449068580704   3.014402271596709   0.775905444417670 1
ion Cu  -0.000127496451335   4.522130217461600  12.821007398048051 1

# Forces in Cartesian coordinates:
force Cu   0.000113233075898   0.000624330459915   0.006437885027379 1
force Cu  -0.000016848312101  -0.000638660797108  -0.001103760622508 1
force Cu  -0.000129056201257   0.000951289553817  -0.000827296882473 1
force Cu   0.000030095725343   0.000075587228192  -0.002246946747129 1
force Cu   0.000043154295143  -0.000025004661462  -0.005750466188845 1
force Cu   0.000142039467152  -0.000964408288065   0.000822467568172 1
force Cu   0.000027007576741   0.000636134915903   0.001101677772965 1
force Cu  -0.000166620912733  -0.000583498994239  -0.006441639445834 1
force Cu  -0.000030206904629   0.000023153323709   0.005744912913773 1
force Cu  -0.000013094246361  -0.000089765268671   0.002242709530286 1

# Energy components:
   A_diel =        0.0257871730350813
   Eewald =     6315.8254099244577446
       EH =     8161.1218143060150396
     Eloc =   -16874.4790546275762608
      Enl =      366.2613623155685332
     EvdW =       -0.1315866444656727
      Exc =     -193.9807083183028453
 Exc_core =        0.4697148028657176
       KE =      206.4385067364298436
  MuShift =        0.0137249732127970
-------------------------------------
     Etot =    -2018.4350293587592660
       TS =        0.0002523344184657
-------------------------------------
        F =    -2018.4352816931777852
[...]
	SubspaceRotationAdjust: set factor to 0.436
ElecMinimize: Iter:   7  G: -1985.918126790431415  |grad|_K:  8.355e-08  alpha:  1.108e-01  linmin: -5.523e-07  t[s]:   3808.27
	Linear fluid (dielectric constant: 78.4, screening length: 8.12261 Bohr) occupying 0.481841 of unit cell:	Completed after 7 iterations at t[s]:   3815.02
	Linear fluid (dielectric constant: 78.4, screening length: 8.12261 Bohr) occupying 0.481842 of unit cell:	Completed after 8 iterations at t[s]:   3820.83
	FillingsUpdate:  mu: -0.171300000  nElectrons: 189.845247  magneticMoment: [ Abs: 0.00000  Tot: +0.00000 ]
	SubspaceRotationAdjust: set factor to 0.404
ElecMinimize: Iter:   8  G: -1985.918127026860930  |grad|_K:  1.121e-07  alpha:  2.397e-01  linmin:  4.651e-05  t[s]:   3828.43
	Linear fluid (dielectric constant: 78.4, screening length: 8.12261 Bohr) occupying 0.481842 of unit cell:	Completed after 10 iterations at t[s]:   3835.40
	Linear fluid (dielectric constant: 78.4, screening length: 8.12261 Bohr) occupying 0.481842 of unit cell:	Completed after 10 iterations at t[s]:   3841.21
	FillingsUpdate:  mu: -0.171300000  nElectrons: 189.844797  magneticMoment: [ Abs: 0.00000  Tot: +0.00000 ]
	SubspaceRotationAdjust: set factor to 0.246
ElecMinimize: Iter:   9  G: -1985.918127217726351  |grad|_K:  6.431e-08  alpha:  1.076e-01  linmin:  3.431e-06  t[s]:   3848.73
	Linear fluid (dielectric constant: 78.4, screening length: 8.12261 Bohr) occupying 0.481843 of unit cell:	Completed after 8 iterations at t[s]:   3855.56
	Linear fluid (dielectric constant: 78.4, screening length: 8.12261 Bohr) occupying 0.481843 of unit cell:	Completed after 2 iterations at t[s]:   3861.00
	FillingsUpdate:  mu: -0.171300000  nElectrons: 189.844931  magneticMoment: [ Abs: 0.00000  Tot: +0.00000 ]
	SubspaceRotationAdjust: set factor to 0.21
ElecMinimize: Iter:  10  G: -1985.918127272557740  |grad|_K:  4.008e-08  alpha:  9.342e-02  linmin:  1.721e-04  t[s]:   3868.55
	Linear fluid (dielectric constant: 78.4, screening length: 8.12261 Bohr) occupying 0.481843 of unit cell:	Completed after 0 iterations at t[s]:   3874.98
	Linear fluid (dielectric constant: 78.4, screening length: 8.12261 Bohr) occupying 0.481843 of unit cell:	Completed after 1 iterations at t[s]:   3880.47
	FillingsUpdate:  mu: -0.171300000  nElectrons: 189.844950  magneticMoment: [ Abs: 0.00000  Tot: +0.00000 ]
	SubspaceRotationAdjust: set factor to 0.225
ElecMinimize: Iter:  11  G: -1985.918127313685545  |grad|_K:  3.151e-08  alpha:  1.860e-01  linmin:  3.708e-04  t[s]:   3888.03
ElecMinimize: Converged (|Delta G|<1.000000e-07 for 2 iters).
Setting wave functions to eigenvectors of Hamiltonian
Converging empty states (this may take a while): |deigs|: 1.778e-08

Computing DFT-D3 correction:
# coordination-number Cu 8.311 8.949 9.061 6.912 4.929 9.060 8.949 8.313 4.929 6.911
# diagonal-C6 Cu 175.00 175.00 175.00 175.00 175.00 175.00 175.00 175.00 175.00 175.00
EvdW_6 =   -0.050837
EvdW_8 =   -0.080603

# Ionic positions in cartesian coordinates:
ion Cu   3.374092772390754   1.530965506662008  11.415651897558837 1
ion Cu  -0.000036169141636   2.995686275899244   8.271049860798763 1
ion Cu   3.367769374500628   4.549377451157820   5.272047029987482 1
ion Cu  -0.002075071047191   6.030327809453160   2.212514567257082 1
ion Cu   0.002760084176552  -0.018227179762505  14.209770596381523 1
ion Cu   3.373326228438963   6.001773798332215   9.801048886323764 1
ion Cu   3.370738569293648   0.019354877468715   6.801957420945134 1
ion Cu  -0.004132376939403   1.484232152824630   3.657951144450544 1
ion Cu   3.367773603077191   3.032438528940062   0.863805103135552 1
ion Cu   0.002342985250495   4.520842779024649  12.861151493161326 1

# Forces in Cartesian coordinates:
force Cu   0.000048123584006  -0.000158747433055   0.000029268890992 1
force Cu   0.000000320052723  -0.000034275867883   0.000001349831799 1
force Cu  -0.000026775442216  -0.000101169033262   0.000049377103548 1
force Cu  -0.000035086888215   0.000312730000834  -0.000033444892147 1
force Cu   0.000049432832611  -0.000003773122236   0.000143115242758 1
force Cu   0.000025325986615   0.000118484265033  -0.000029698693224 1
force Cu  -0.000001511267185   0.000046777526669   0.000029878437766 1
force Cu  -0.000057203724749   0.000153285842121  -0.000038277663020 1
force Cu  -0.000048696628932  -0.000016422192900  -0.000169036491488 1
force Cu   0.000032140000899  -0.000325314620240   0.000009041692455 1

# Energy components:
   A_diel =        0.0240537864095623
   Eewald =     6317.8787917397858109
       EH =     8162.9828457014864398
     Eloc =   -16878.3826416879528551
      Enl =      366.2519778412353730
     EvdW =       -0.1314399576442146
      Exc =     -193.9870717577651078
 Exc_core =        0.4697203841039849
       KE =      206.4427338062776869
  MuShift =        0.0127229338766770
-------------------------------------
     Etot =    -2018.4383072101863945
       TS =        0.0002599754588224
-------------------------------------
        F =    -2018.4385671856452973
      muN =      -32.5204398719597805
-------------------------------------
        G =    -1985.9181273136855452


Dumping 'jdft.fillings' ... done
Dumping 'jdft.wfns' ... done
Dumping 'jdft.fluidState' ... done
Dumping 'jdft.ionpos' ... done
Dumping 'jdft.lattice' ... done
Dumping 'jdft.eigenvals' ... done
Dumping 'jdft.eigStats' ... 
	eMin: -4.311464 at state 0 ( [ +0.000000 +0.000000 +0.000000 ] spin 1 )
	HOMO: -0.171809 at state 105 ( [ -0.333333 +0.000000 +0.000000 ] spin -1 )
	mu  : -0.171300
	LUMO: -0.170137 at state 98 ( [ -0.444444 +0.000000 +0.000000 ] spin -1 )
	eMax: +0.183761 at state 22 ( [ +0.333333 +0.142857 +0.000000 ] spin 1 )
	HOMO-LUMO gap: +0.001671
	Optical gap  : +0.008579 at state 110 ( [ -0.333333 -0.285714 +0.000000 ] spin -1 )
Dumping 'jdft.Ecomponents' ... done
IonicMinimize: Iter:   4  G: -1985.918127313685545  |grad|_K:  1.082e-04  alpha:  1.000e+00  linmin: -5.023e-01  t[s]:   3907.50

#--- Lowdin population analysis ---
# oxidation-state Cu +0.028 +0.074 +0.046 +0.073 +0.292 +0.046 +0.074 +0.028 +0.292 +0.073
# magnetic-moments Cu +0.000 +0.000 +0.000 -0.000 +0.000 -0.000 +0.000 +0.000 +0.000 +0.000


Computing DFT-D3 correction:
# coordination-number Cu 8.309 8.950 9.056 6.905 4.923 9.055 8.949 8.310 4.923 6.905
# diagonal-C6 Cu 175.00 175.00 175.00 175.00 175.00 175.00 175.00 175.00 175.00 175.00
EvdW_6 =   -0.050832
EvdW_8 =   -0.080578
Shifting auxilliary hamiltonian by -0.000030 to set nElectrons=189.844950

-------- Electronic minimization -----------
	Linear fluid (dielectric constant: 78.4, screening length: 8.12261 Bohr) occupying 0.481679 of unit cell:	Completed after 12 iterations at t[s]:   3915.40
	FillingsUpdate:  mu: -0.171300000  nElectrons: 189.844950  magneticMoment: [ Abs: 0.00000  Tot: +0.00000 ]
ElecMinimize: Iter:   0  G: -1985.918101052787961  |grad|_K:  6.489e-07  alpha:  1.000e+00
	Linear fluid (dielectric constant: 78.4, screening length: 8.12261 Bohr) occupying 0.481676 of unit cell:	Completed after 12 iterations at t[s]:   3931.13
	Linear fluid (dielectric constant: 78.4, screening length: 8.12261 Bohr) occupying 0.481678 of unit cell:	Completed after 11 iterations at t[s]:   3936.95
	FillingsUpdate:  mu: -0.171300000  nElectrons: 189.845231  magneticMoment: [ Abs: 0.00000  Tot: +0.00000 ]
	SubspaceRotationAdjust: set factor to 0.245
ElecMinimize: Iter:   1  G: -1985.918109065941508  |grad|_K:  4.687e-07  alpha:  1.342e-01  linmin:  8.247e-06  t[s]:   3944.51
	Linear fluid (dielectric constant: 78.4, screening length: 8.12261 Bohr) occupying 0.481678 of unit cell:	Completed after 7 iterations at t[s]:   3951.30
	Linear fluid (dielectric constant: 78.4, screening length: 8.12261 Bohr) occupying 0.481678 of unit cell:	Completed after 7 iterations at t[s]:   3957.00
	FillingsUpdate:  mu: -0.171300000  nElectrons: 189.845040  magneticMoment: [ Abs: 0.00000  Tot: +0.00000 ]
	SubspaceRotationAdjust: set factor to 0.278
ElecMinimize: Iter:   2  G: -1985.918117715075141  |grad|_K:  3.658e-07  alpha:  2.777e-01  linmin: -5.236e-06  t[s]:   3964.56
	Linear fluid (dielectric constant: 78.4, screening length: 8.12261 Bohr) occupying 0.481682 of unit cell:	Completed after 8 iterations at t[s]:   3971.44
	Linear fluid (dielectric constant: 78.4, screening length: 8.12261 Bohr) occupying 0.481681 of unit cell:	Completed after 2 iterations at t[s]:   3976.95
	FillingsUpdate:  mu: -0.171300000  nElectrons: 189.845158  magneticMoment: [ Abs: 0.00000  Tot: +0.00000 ]
	SubspaceRotationAdjust: set factor to 0.322
ElecMinimize: Iter:   3  G: -1985.918121606818204  |grad|_K:  3.076e-07  alpha:  2.051e-01  linmin:  3.683e-06  t[s]:   3984.48
	Linear fluid (dielectric constant: 78.4, screening length: 8.12261 Bohr) occupying 0.481683 of unit cell:	Completed after 9 iterations at t[s]:   3991.37
	Linear fluid (dielectric constant: 78.4, screening length: 8.12261 Bohr) occupying 0.481683 of unit cell:	Completed after 7 iterations at t[s]:   3997.15
	FillingsUpdate:  mu: -0.171300000  nElectrons: 189.844901  magneticMoment: [ Abs: 0.00000  Tot: +0.00000 ]
	SubspaceRotationAdjust: set factor to 0.402
ElecMinimize: Iter:   4  G: -1985.918123639188934  |grad|_K:  2.348e-07  alpha:  1.515e-01  linmin: -5.982e-06  t[s]:   4004.71
	Linear fluid (dielectric constant: 78.4, screening length: 8.12261 Bohr) occupying 0.481686 of unit cell:	Completed after 10 iterations at t[s]:   4011.74
	Linear fluid (dielectric constant: 78.4, screening length: 8.12261 Bohr) occupying 0.481690 of unit cell:	Completed after 9 iterations at t[s]:   4017.57
	FillingsUpdate:  mu: -0.171300000  nElectrons: 189.845839  magneticMoment: [ Abs: 0.00000  Tot: +0.00000 ]
	SubspaceRotationAdjust: set factor to 0.412
ElecMinimize: Iter:   5  G: -1985.918126424559432  |grad|_K:  3.443e-07  alpha:  3.558e-01  linmin: -1.271e-05  t[s]:   4025.63
	Linear fluid (dielectric constant: 78.4, screening length: 8.12261 Bohr) occupying 0.481699 of unit cell:	Completed after 13 iterations at t[s]:   4032.74
	Linear fluid (dielectric constant: 78.4, screening length: 8.12261 Bohr) occupying 0.481693 of unit cell:	Completed after 11 iterations at t[s]:   4038.61
	FillingsUpdate:  mu: -0.171300000  nElectrons: 189.844457  magneticMoment: [ Abs: 0.00000  Tot: +0.00000 ]
	SubspaceRotationAdjust: set factor to 0.291
ElecMinimize: Iter:   6  G: -1985.918128562835818  |grad|_K:  2.221e-07  alpha:  1.272e-01  linmin:  1.413e-05  t[s]:   4046.21
	Linear fluid (dielectric constant: 78.4, screening length: 8.12261 Bohr) occupying 0.481698 of unit cell:	Completed after 10 iterations at t[s]:   4053.34
	Linear fluid (dielectric constant: 78.4, screening length: 8.12261 Bohr) occupying 0.481697 of unit cell:	Completed after 8 iterations at t[s]:   4059.17
	FillingsUpdate:  mu: -0.171300000  nElectrons: 189.845212  magneticMoment: [ Abs: 0.00000  Tot: +0.00000 ]
	SubspaceRotationAdjust: set factor to 0.23
ElecMinimize: Iter:   7  G: -1985.918129285275199  |grad|_K:  1.616e-07  alpha:  1.034e-01  linmin:  8.837e-06  t[s]:   4066.74
	Linear fluid (dielectric constant: 78.4, screening length: 8.12261 Bohr) occupying 0.481699 of unit cell:	Completed after 2 iterations at t[s]:   4073.29
ElecMinimize: 	Predicted alpha/alphaT>3.000000, increasing alphaT to 3.101546e-01.
	Linear fluid (dielectric constant: 78.4, screening length: 8.12261 Bohr) occupying 0.481704 of unit cell:	Completed after 2 iterations at t[s]:   4078.73
	Linear fluid (dielectric constant: 78.4, screening length: 8.12261 Bohr) occupying 0.481704 of unit cell:	Completed after 3 iterations at t[s]:   4084.25
	FillingsUpdate:  mu: -0.171300000  nElectrons: 189.844983  magneticMoment: [ Abs: 0.00000  Tot: +0.00000 ]
	SubspaceRotationAdjust: set factor to 0.255
ElecMinimize: Iter:   8  G: -1985.918130501619316  |grad|_K:  1.875e-07  alpha:  3.286e-01  linmin:  5.777e-06  t[s]:   4091.77
	Linear fluid (dielectric constant: 78.4, screening length: 8.12261 Bohr) occupying 0.481716 of unit cell:	Completed after 9 iterations at t[s]:   4098.71
	Linear fluid (dielectric constant: 78.4, screening length: 8.12261 Bohr) occupying 0.481708 of unit cell:	Completed after 10 iterations at t[s]:   4104.67
	FillingsUpdate:  mu: -0.171300000  nElectrons: 189.844607  magneticMoment: [ Abs: 0.00000  Tot: +0.00000 ]
	SubspaceRotationAdjust: set factor to 0.249
ElecMinimize: Iter:   9  G: -1985.918131023743854  |grad|_K:  9.160e-08  alpha:  1.057e-01  linmin:  2.974e-05  t[s]:   4112.22
	Linear fluid (dielectric constant: 78.4, screening length: 8.12261 Bohr) occupying 0.481710 of unit cell:	Completed after 1 iterations at t[s]:   4118.80
	Linear fluid (dielectric constant: 78.4, screening length: 8.12261 Bohr) occupying 0.481712 of unit cell:	Completed after 2 iterations at t[s]:   4124.27
	FillingsUpdate:  mu: -0.171300000  nElectrons: 189.844578  magneticMoment: [ Abs: 0.00000  Tot: +0.00000 ]
	SubspaceRotationAdjust: set factor to 0.252
ElecMinimize: Iter:  10  G: -1985.918131260984183  |grad|_K:  8.269e-08  alpha:  2.000e-01  linmin:  1.573e-05  t[s]:   4131.83
	Linear fluid (dielectric constant: 78.4, screening length: 8.12261 Bohr) occupying 0.481716 of unit cell:	Completed after 2 iterations at t[s]:   4138.47
	Linear fluid (dielectric constant: 78.4, screening length: 8.12261 Bohr) occupying 0.481715 of unit cell:	Completed after 1 iterations at t[s]:   4143.91
	FillingsUpdate:  mu: -0.171300000  nElectrons: 189.844609  magneticMoment: [ Abs: 0.00000  Tot: +0.00000 ]
	SubspaceRotationAdjust: set factor to 0.254
ElecMinimize: Iter:  11  G: -1985.918131414610798  |grad|_K:  6.128e-08  alpha:  1.589e-01  linmin: -7.792e-06  t[s]:   4151.51
	Linear fluid (dielectric constant: 78.4, screening length: 8.12261 Bohr) occupying 0.481718 of unit cell:	Completed after 6 iterations at t[s]:   4158.23
	Linear fluid (dielectric constant: 78.4, screening length: 8.12261 Bohr) occupying 0.481719 of unit cell:	Completed after 2 iterations at t[s]:   4163.71
	FillingsUpdate:  mu: -0.171300000  nElectrons: 189.844696  magneticMoment: [ Abs: 0.00000  Tot: +0.00000 ]
	SubspaceRotationAdjust: set factor to 0.249
ElecMinimize: Iter:  12  G: -1985.918131524610999  |grad|_K:  5.329e-08  alpha:  2.055e-01  linmin: -2.950e-04  t[s]:   4171.24
	Linear fluid (dielectric constant: 78.4, screening length: 8.12261 Bohr) occupying 0.481722 of unit cell:	Completed after 6 iterations at t[s]:   4177.93
	Linear fluid (dielectric constant: 78.4, screening length: 8.12261 Bohr) occupying 0.481721 of unit cell:	Completed after 2 iterations at t[s]:   4183.42
	FillingsUpdate:  mu: -0.171300000  nElectrons: 189.844604  magneticMoment: [ Abs: 0.00000  Tot: +0.00000 ]
	SubspaceRotationAdjust: set factor to 0.234
ElecMinimize: Iter:  13  G: -1985.918131575305551  |grad|_K:  2.817e-08  alpha:  1.228e-01  linmin:  5.355e-04  t[s]:   4190.92
	Linear fluid (dielectric constant: 78.4, screening length: 8.12261 Bohr) occupying 0.481722 of unit cell:	Completed after 2 iterations at t[s]:   4197.49
	Linear fluid (dielectric constant: 78.4, screening length: 8.12261 Bohr) occupying 0.481723 of unit cell:	Completed after 2 iterations at t[s]:   4202.96
	FillingsUpdate:  mu: -0.171300000  nElectrons: 189.844624  magneticMoment: [ Abs: 0.00000  Tot: +0.00000 ]
	SubspaceRotationAdjust: set factor to 0.24
ElecMinimize: Iter:  14  G: -1985.918131597904676  |grad|_K:  2.696e-08  alpha:  2.021e-01  linmin: -9.371e-04  t[s]:   4210.49
ElecMinimize: Converged (|Delta G|<1.000000e-07 for 2 iters).
Setting wave functions to eigenvectors of Hamiltonian
Converging empty states (this may take a while): |deigs|: 1.866e-08

Computing DFT-D3 correction:
# coordination-number Cu 8.309 8.950 9.056 6.905 4.923 9.055 8.949 8.310 4.923 6.905
# diagonal-C6 Cu 175.00 175.00 175.00 175.00 175.00 175.00 175.00 175.00 175.00 175.00
EvdW_6 =   -0.050832
EvdW_8 =   -0.080578

# Ionic positions in cartesian coordinates:
ion Cu   3.375029628158574   1.528859072285423  11.416243700946978 1
ion Cu   0.000009430685415   2.995694567526609   8.271525816939192 1
ion Cu   3.367321241165127   4.548021048182400   5.273247165500202 1
ion Cu  -0.002810389145639   6.036088888216807   2.210964274871808 1
ion Cu   0.003760276293145  -0.019380312740123  14.213112817575118 1
ion Cu   3.373808785801099   6.003527793529774   9.800067937328281 1
ion Cu   3.370722695030699   0.019601464960591   6.801863639172094 1
ion Cu  -0.005171227705151   1.486232322797090   3.657196440107575 1
ion Cu   3.366832312152665   3.033199424508373   0.860276887337197 1
ion Cu   0.003057247564066   4.514927730733055  12.862449320221561 1

# Forces in Cartesian coordinates:
force Cu   0.000018955584776  -0.000148969800364   0.000093161112912 1
force Cu   0.000007833953496   0.000000944278310  -0.000008968321075 1
force Cu  -0.000022138851807   0.000077937218003  -0.000160422429594 1
force Cu  -0.000038652245757   0.000000784963922  -0.000084965542411 1
force Cu   0.000051792234726  -0.000170273508270   0.000111075136427 1
force Cu   0.000019685456292  -0.000084434511370   0.000162838561807 1
force Cu  -0.000010798054425   0.000009768116751   0.000010389342089 1
force Cu  -0.000018627875728   0.000157011722885  -0.000088663341295 1
force Cu  -0.000054859739561   0.000153106910223  -0.000117214112971 1
force Cu   0.000041293243714  -0.000008948451616   0.000079473453560 1

# Energy components:
   A_diel =        0.0241031952886258
   Eewald =     6315.5675787870504791
       EH =     8160.6763760009198450
     Eloc =   -16873.7641221927551669
      Enl =      366.2510131273215848
     EvdW =       -0.1314103941198452
      Exc =     -193.9860121717381389
 Exc_core =        0.4697209568067389
       KE =      206.4417479286535126
  MuShift =        0.0127496712181163
-------------------------------------
     Etot =    -2018.4382550913539944
       TS =        0.0002605622013188
-------------------------------------
        F =    -2018.4385156535552142
      muN =      -32.5203840556505099
-------------------------------------
        G =    -1985.9181315979046758


Dumping 'jdft.fillings' ... done
Dumping 'jdft.wfns' ... done
Dumping 'jdft.fluidState' ... done
Dumping 'jdft.ionpos' ... done
Dumping 'jdft.lattice' ... done
Dumping 'jdft.eigenvals' ... done
Dumping 'jdft.eigStats' ... 
	eMin: -4.311503 at state 63 ( [ +0.000000 +0.000000 +0.000000 ] spin -1 )
	HOMO: -0.171846 at state 21 ( [ +0.333333 +0.000000 +0.000000 ] spin 1 )
	mu  : -0.171300
	LUMO: -0.170165 at state 91 ( [ +0.444444 +0.000000 +0.000000 ] spin -1 )
	eMax: +0.183660 at state 111 ( [ -0.333333 -0.142857 +0.000000 ] spin -1 )
	HOMO-LUMO gap: +0.001681
	Optical gap  : +0.008634 at state 110 ( [ -0.333333 -0.285714 +0.000000 ] spin -1 )
Dumping 'jdft.Ecomponents' ... done
IonicMinimize: Iter:   5  G: -1985.918131597904676  |grad|_K:  8.792e-05  alpha:  1.000e+00  linmin: -3.315e-01  t[s]:   4229.68
IonicMinimize: Converged (|grad|_K<1.000000e-04).

#--- Lowdin population analysis ---
# oxidation-state Cu +0.028 +0.074 +0.046 +0.073 +0.292 +0.046 +0.074 +0.028 +0.292 +0.073
# magnetic-moments Cu +0.000 +0.000 -0.000 -0.000 +0.000 +0.000 -0.000 +0.000 -0.000 -0.000


Dumping 'jdft.n_up' ... done
Dumping 'jdft.n_dn' ... done
Dumping 'jdft.tau_up' ... done
Dumping 'jdft.tau_dn' ... done
Dumping 'jdft.eigenvals' ... done
Dumping 'jdft.eigStats' ... 
	eMin: -4.311503 at state 63 ( [ +0.000000 +0.000000 +0.000000 ] spin -1 )
	HOMO: -0.171846 at state 21 ( [ +0.333333 +0.000000 +0.000000 ] spin 1 )
	mu  : -0.171300
	LUMO: -0.170165 at state 91 ( [ +0.444444 +0.000000 +0.000000 ] spin -1 )
	eMax: +0.183660 at state 111 ( [ -0.333333 -0.142857 +0.000000 ] spin -1 )
	HOMO-LUMO gap: +0.001681
	Optical gap  : +0.008634 at state 110 ( [ -0.333333 -0.285714 +0.000000 ] spin -1 )
Dumping 'jdft.kPts' ... done
Dumping 'jdft.dosUp' ... done.
Dumping 'jdft.dosDn' ... done.
End date and time: Mon Dec  6 17:15:41 2021  (Duration: 0-1:10:44.16)
Done!
