
*************** JDFTx 1.7.0 (git hash 5f12716a) ***************

Start date and time: Thu Sep  8 21:30:53 2022
Executable /home/nisi6161/jdftx_alpine/build/jdftx with command-line: -i in
Running on hosts (process indices):  c3cpu-a2-u26-1.rc.int.colorado.edu (0-17)
Divided in process groups (process indices):  0 (0)  1 (1)  2 (2)  3 (3)  4 (4)  5 (5)  6 (6)  7 (7)  8 (8)  9 (9)  10 (10)  11 (11)  12 (12)  13 (13)  14 (14)  15 (15)  16 (16)  17 (17)
Resource initialization completed at t[s]:      0.00
Run totals: 18 processes, 64 threads, 0 GPUs


Input parsed successfully to the following command list (including defaults):

basis kpoint-dependent
converge-empty-states yes
coords-type Cartesian
core-overlap-check none
coulomb-interaction Periodic
davidson-band-ratio 1.1
density-of-states Etol 1.000000e-06 Esigma 1.000000e-03 \
		Complete \
	Total \
	OrthoOrbital Ag 1   s \
	OrthoOrbital Ag 1   p \
	OrthoOrbital Ag 1   px \
	OrthoOrbital Ag 1   py \
	OrthoOrbital Ag 1   pz \
	OrthoOrbital Ag 1   d \
	OrthoOrbital Ag 1   dxy \
	OrthoOrbital Ag 1   dyz \
	OrthoOrbital Ag 1   dz2 \
	OrthoOrbital Ag 1   dxz \
	OrthoOrbital Ag 1   dx2-y2 \
	OrthoOrbital Ag 2   s \
	OrthoOrbital Ag 2   p \
	OrthoOrbital Ag 2   px \
	OrthoOrbital Ag 2   py \
	OrthoOrbital Ag 2   pz \
	OrthoOrbital Ag 2   d \
	OrthoOrbital Ag 2   dxy \
	OrthoOrbital Ag 2   dyz \
	OrthoOrbital Ag 2   dz2 \
	OrthoOrbital Ag 2   dxz \
	OrthoOrbital Ag 2   dx2-y2 \
	OrthoOrbital Ag 3   s \
	OrthoOrbital Ag 3   p \
	OrthoOrbital Ag 3   px \
	OrthoOrbital Ag 3   py \
	OrthoOrbital Ag 3   pz \
	OrthoOrbital Ag 3   d \
	OrthoOrbital Ag 3   dxy \
	OrthoOrbital Ag 3   dyz \
	OrthoOrbital Ag 3   dz2 \
	OrthoOrbital Ag 3   dxz \
	OrthoOrbital Ag 3   dx2-y2 \
	OrthoOrbital Ag 4   s \
	OrthoOrbital Ag 4   p \
	OrthoOrbital Ag 4   px \
	OrthoOrbital Ag 4   py \
	OrthoOrbital Ag 4   pz \
	OrthoOrbital Ag 4   d \
	OrthoOrbital Ag 4   dxy \
	OrthoOrbital Ag 4   dyz \
	OrthoOrbital Ag 4   dz2 \
	OrthoOrbital Ag 4   dxz \
	OrthoOrbital Ag 4   dx2-y2 \
	OrthoOrbital Ag 5   s \
	OrthoOrbital Ag 5   p \
	OrthoOrbital Ag 5   px \
	OrthoOrbital Ag 5   py \
	OrthoOrbital Ag 5   pz \
	OrthoOrbital Ag 5   d \
	OrthoOrbital Ag 5   dxy \
	OrthoOrbital Ag 5   dyz \
	OrthoOrbital Ag 5   dz2 \
	OrthoOrbital Ag 5   dxz \
	OrthoOrbital Ag 5   dx2-y2 \
	OrthoOrbital Ag 6   s \
	OrthoOrbital Ag 6   p \
	OrthoOrbital Ag 6   px \
	OrthoOrbital Ag 6   py \
	OrthoOrbital Ag 6   pz \
	OrthoOrbital Ag 6   d \
	OrthoOrbital Ag 6   dxy \
	OrthoOrbital Ag 6   dyz \
	OrthoOrbital Ag 6   dz2 \
	OrthoOrbital Ag 6   dxz \
	OrthoOrbital Ag 6   dx2-y2 \
	OrthoOrbital Ag 7   s \
	OrthoOrbital Ag 7   p \
	OrthoOrbital Ag 7   px \
	OrthoOrbital Ag 7   py \
	OrthoOrbital Ag 7   pz \
	OrthoOrbital Ag 7   d \
	OrthoOrbital Ag 7   dxy \
	OrthoOrbital Ag 7   dyz \
	OrthoOrbital Ag 7   dz2 \
	OrthoOrbital Ag 7   dxz \
	OrthoOrbital Ag 7   dx2-y2 \
	OrthoOrbital Ag 8   s \
	OrthoOrbital Ag 8   p \
	OrthoOrbital Ag 8   px \
	OrthoOrbital Ag 8   py \
	OrthoOrbital Ag 8   pz \
	OrthoOrbital Ag 8   d \
	OrthoOrbital Ag 8   dxy \
	OrthoOrbital Ag 8   dyz \
	OrthoOrbital Ag 8   dz2 \
	OrthoOrbital Ag 8   dxz \
	OrthoOrbital Ag 8   dx2-y2
dump End ElecDensity KEdensity BandEigs EigStats RhoAtom DOS Kpoints
dump Ionic State IonicPositions Lattice EigStats Ecomponents
dump 
dump 
dump 
dump 
dump 
dump 
dump 
dump 
dump-name jdft.$VAR
elec-cutoff 20
elec-eigen-algo Davidson
elec-ex-corr gga-PBE
elec-initial-magnetization 0.000000 no
elec-n-bands 92
elec-smearing Fermi 0.001
electronic-minimize  \
	dirUpdateScheme      FletcherReeves \
	linminMethod         DirUpdateRecommended \
	nIterations          100 \
	history              15 \
	knormThreshold       0 \
	energyDiffThreshold  1e-07 \
	nEnergyDiff          2 \
	alphaTstart          1 \
	alphaTmin            1e-10 \
	updateTestStepSize   yes \
	alphaTreduceFactor   0.1 \
	alphaTincreaseFactor 3 \
	nAlphaAdjustMax      3 \
	wolfeEnergy          0.0001 \
	wolfeGradient        0.9 \
	fdTest               no
exchange-regularization WignerSeitzTruncated
fluid LinearPCM 298.000000 1.013250
fluid-anion F- 0.5 MeanFieldLJ \
	epsBulk 1 \
	pMol 0 \
	epsInf 1 \
	Pvap 0 \
	sigmaBulk 0 \
	Rvdw 2.24877 \
	Res 0 \
	tauNuc 343133
fluid-cation Na+ 0.5 MeanFieldLJ \
	epsBulk 1 \
	pMol 0 \
	epsInf 1 \
	Pvap 0 \
	sigmaBulk 0 \
	Rvdw 2.19208 \
	Res 0 \
	tauNuc 343133
fluid-ex-corr lda-TF lda-PZ
fluid-gummel-loop 10 1.000000e-05
fluid-minimize  \
	dirUpdateScheme      PolakRibiere \
	linminMethod         DirUpdateRecommended \
	nIterations          400 \
	history              15 \
	knormThreshold       1e-11 \
	energyDiffThreshold  0 \
	nEnergyDiff          2 \
	alphaTstart          1 \
	alphaTmin            1e-10 \
	updateTestStepSize   yes \
	alphaTreduceFactor   0.1 \
	alphaTincreaseFactor 3 \
	nAlphaAdjustMax      6 \
	wolfeEnergy          0.0001 \
	wolfeGradient        0.9 \
	fdTest               no
fluid-solvent H2O 55.338 ScalarEOS \
	epsBulk 78.4 \
	pMol 0.92466 \
	epsInf 1.77 \
	Pvap 1.06736e-10 \
	sigmaBulk 4.62e-05 \
	Rvdw 2.61727 \
	Res 1.42 \
	tauNuc 343133 \
	poleEl 15 7 1
forces-output-coords Positions
ion Ag  -0.000455000000000   0.000322000000000  50.292687000000001 1
ion Ag   0.000363000000000   0.000483000000000  44.749575999999998 1
ion Ag   2.708858000000000   3.832390000000000  52.928921000000003 1
ion Ag   2.709958000000000   3.832259000000000  47.467278999999998 1
ion Ag   0.000488000000000   0.000084000000000  39.259694000000003 1
ion Ag   0.001014000000000   0.000199000000000  33.797348000000000 1
ion Ag   2.710083000000000   3.832580999999999  41.981516999999997 1
ion Ag   2.710587000000000   3.833017999999999  36.431468000000002 1
ion-species /projects/musgravc/apps/jdftx-1.6.0/build/pseudopotentials/GBRV_v1.5/$ID_pbe_v1.uspp
ion-species /projects/musgravc/apps/jdftx-1.6.0/build/pseudopotentials/GBRV_v1.5/$ID_pbe_v1.2.uspp
ion-species /projects/musgravc/apps/jdftx-1.6.0/build/pseudopotentials/GBRV_v1.5/$ID_pbe_v1.4.uspp
ion-species /projects/musgravc/apps/jdftx-1.6.0/build/pseudopotentials/GBRV_v1.5/$ID_pbe_v1.5.uspp
ion-width Ecut
ionic-minimize  \
	dirUpdateScheme      L-BFGS \
	linminMethod         DirUpdateRecommended \
	nIterations          100 \
	history              15 \
	knormThreshold       0.0001 \
	energyDiffThreshold  0.0001 \
	nEnergyDiff          2 \
	alphaTstart          1 \
	alphaTmin            1e-10 \
	updateTestStepSize   yes \
	alphaTreduceFactor   0.1 \
	alphaTincreaseFactor 3 \
	nAlphaAdjustMax      3 \
	wolfeEnergy          0.0001 \
	wolfeGradient        0.9 \
	fdTest               no
kpoint   0.000000000000   0.000000000000   0.000000000000  1.00000000000000
kpoint-folding 12 8 1 
latt-move-scale 0 0 0
latt-scale 1 1 1 
lattice  \
	   5.420447000000000    0.000000000000000    0.000000000000000  \
	   0.000000000000000    7.665668000000000    0.000000000000000  \
	   0.000000000000000    0.000000000000000   54.204459999999997 
lattice-minimize  \
	dirUpdateScheme      L-BFGS \
	linminMethod         DirUpdateRecommended \
	nIterations          0 \
	history              15 \
	knormThreshold       0 \
	energyDiffThreshold  1e-06 \
	nEnergyDiff          2 \
	alphaTstart          1 \
	alphaTmin            1e-10 \
	updateTestStepSize   yes \
	alphaTreduceFactor   0.1 \
	alphaTincreaseFactor 3 \
	nAlphaAdjustMax      3 \
	wolfeEnergy          0.0001 \
	wolfeGradient        0.9 \
	fdTest               no
lcao-params 30 1e-06 0.001
pcm-variant CANDLE
spintype z-spin
subspace-rotation-factor 1 yes
symmetries automatic
symmetry-threshold 0.0001
target-mu -0.24475 no

van-der-waals D3



---------- Setting up symmetries ----------

Found 8 point-group symmetries of the bravais lattice
Found 1 space-group symmetries with basis
Applied RMS atom displacement 0 bohrs to make symmetries exact.

---------- Initializing the Grid ----------
R = 
[      5.42045            0            0  ]
[            0      7.66567            0  ]
[            0            0      54.2045  ]
unit cell volume = 2252.27
G =
[    1.15916          0          0  ]
[          0   0.819653          0  ]
[          0          0   0.115916  ]
Minimum fftbox size, Smin = [  24  32  220  ]
Chosen fftbox size, S = [  24  32  224  ]

---------- Exchange Correlation functional ----------
Initalized PBE GGA exchange.
Initalized PBE GGA correlation.

---------- Setting up pseudopotentials ----------
Width of ionic core gaussian charges (only for fluid interactions / plotting) set to 0.397384

Reading pseudopotential file '/projects/musgravc/apps/jdftx-1.6.0/build/pseudopotentials/GBRV_v1.5/ag_pbe_v1.4.uspp':
  Title: Ag.  Created by USPP 7.3.6 on 1-4-15
  Reference state energy: -147.606242.  19 valence electrons in orbitals:
    |400>  occupation: 2  eigenvalue: -3.637437
    |410>  occupation: 6  eigenvalue: -2.297267
    |420>  occupation: 10  eigenvalue: -0.417763
    |500>  occupation: 0.5  eigenvalue: -0.283525
    |510>  occupation: 0  eigenvalue: -0.122889
  lMax: 2  lLocal: 0  QijEcut: 5.5
  6 projectors sampled on a log grid with 717 points:
    l: 0  eig: -0.283528  rCut: 1.5
    l: 0  eig: -3.637440  rCut: 1.5
    l: 1  eig: -0.122892  rCut: 1.5
    l: 1  eig: -2.297267  rCut: 1.5
    l: 2  eig: -0.417762  rCut: 1.7
    l: 2  eig: -1.000000  rCut: 1.7
  Partial core density with radius 1.2
  Transforming core density to a uniform radial grid of dG=0.02 with 1161 points.
  Transforming local potential to a uniform radial grid of dG=0.02 with 1161 points.
  Transforming nonlocal projectors to a uniform radial grid of dG=0.02 with 432 points.
  Transforming density augmentations to a uniform radial grid of dG=0.02 with 1161 points.
  Transforming atomic orbitals to a uniform radial grid of dG=0.02 with 432 points.
  Core radius for overlap checks: 1.70 bohrs.

Initialized 1 species with 8 total atoms.

Folded 1 k-points by 12x8x1 to 96 k-points.

---------- Setting up k-points, bands, fillings ----------
Adding inversion symmetry to k-mesh for non-inversion-symmetric unit cell.
Reduced to 50 k-points under symmetry. 
Computing the number of bands and number of electrons
Calculating initial fillings.
nElectrons: 152.000000   nBands: 92   nStates: 100

----- Setting up reduced wavefunction bases (one per k-point) -----
average nbasis = 9621.885 , ideal nbasis = 9621.862

----- Initializing Supercell corresponding to k-point mesh -----
Lattice vector linear combinations in supercell:
[  12   0   0  ]
[   0   8   0  ]
[   0   0   1  ]
Supercell lattice vectors:
[  65.0454  0  0  ]
[  0  61.3253  0  ]
[  0  0  54.2045  ]

Initializing DFT-D3 calculator:
	Parameters set for gga-PBE functional
	s6:  1.000  s_r6:  1.217
	s8:  0.722  s_r8:  1.000
	Per-atom parameters loaded for:
	Ag:  sqrtQ[a0]:  5.443  Rcov[a0]:  2.173  CN: [ 0.00 0.97 ]

Initializing DFT-D2 calculator for fluid / solvation:
	Ag:  C6:  427.91 Eh-a0^6  R0: 3.097 a0

---------- Setting up ewald sum ----------
Optimum gaussian width for ewald sums = 3.697729 bohr.
Real space sum over 1105 unit cells with max indices [  8  6  2  ]
Reciprocal space sum over 4851 terms with max indices [  4  5  24  ]

Computing DFT-D3 correction:
# coordination-number Ag 8.257 8.999 5.441 8.976 8.964 5.443 8.992 8.251
# diagonal-C6 Ag 268.61 268.61 268.61 268.61 268.61 268.61 268.61 268.61
EvdW_6 =   -0.048254
EvdW_8 =   -0.066634

---------- Allocating electronic variables ----------
Initializing wave functions:  linear combination of atomic orbitals
Ag pseudo-atom occupations:   s ( 2 1 )  p ( 6 0 )  d ( 10 )
	FillingsUpdate:  mu: -0.244750000  nElectrons: 152.000000  magneticMoment: [ Abs: 0.00137  Tot: -0.00001 ]
LCAOMinimize: Iter:   0  G: -1143.5226197366437191  |grad|_K:  9.944e-04  alpha:  1.000e+00
	FillingsUpdate:  mu: -0.244750000  nElectrons: 152.000000  magneticMoment: [ Abs: 0.00112  Tot: -0.00009 ]
LCAOMinimize: Iter:   1  G: -1143.5271999836118084  |grad|_K:  1.340e-03  alpha:  2.040e-01  linmin:  1.117e-01  cgtest: -7.399e-01  t[s]:     65.30
	FillingsUpdate:  mu: -0.244750000  nElectrons: 152.000000  magneticMoment: [ Abs: 0.00111  Tot: -0.00009 ]
LCAOMinimize: Iter:   2  G: -1143.5272242592304792  |grad|_K:  1.351e-03  alpha:  3.035e-03  linmin:  5.311e-04  cgtest:  1.001e+00  t[s]:     92.33
LCAOMinimize: 	Predicted alpha/alphaT>3.000000, increasing alphaT to 9.105909e-03.
LCAOMinimize: 	Predicted alpha/alphaT>3.000000, increasing alphaT to 2.731773e-02.
LCAOMinimize: 	Predicted alpha/alphaT>3.000000, increasing alphaT to 8.195318e-02.
	FillingsUpdate:  mu: -0.244750000  nElectrons: 152.000000  magneticMoment: [ Abs: 0.00115  Tot: -0.00007 ]
LCAOMinimize: Iter:   3  G: -1143.6106948826629832  |grad|_K:  3.423e-04  alpha:  8.650e-02  linmin:  7.775e-02  cgtest: -3.895e-01  t[s]:    131.83
LCAOMinimize: 	Predicted alpha/alphaT>3.000000, increasing alphaT to 2.595100e-01.
	FillingsUpdate:  mu: -0.244750000  nElectrons: 152.000000  magneticMoment: [ Abs: 0.00102  Tot: -0.00012 ]
LCAOMinimize: Iter:   4  G: -1143.6270466381613460  |grad|_K:  3.947e-04  alpha:  3.715e-01  linmin: -4.727e-03  cgtest:  5.264e-01  t[s]:    165.72
	FillingsUpdate:  mu: -0.244750000  nElectrons: 152.000000  magneticMoment: [ Abs: 0.00096  Tot: +0.00006 ]
LCAOMinimize: Iter:   5  G: -1143.6303801901713086  |grad|_K:  3.005e-04  alpha:  6.027e-02  linmin:  2.988e-02  cgtest: -5.591e-01  t[s]:    192.48
	FillingsUpdate:  mu: -0.244750000  nElectrons: 152.000000  magneticMoment: [ Abs: 0.00094  Tot: +0.00007 ]
LCAOMinimize: Iter:   6  G: -1143.6308838250520239  |grad|_K:  2.577e-04  alpha:  2.410e-02  linmin: -5.079e-05  cgtest:  9.409e-01  t[s]:    218.54
LCAOMinimize: Encountered beta<0, resetting CG.
	FillingsUpdate:  mu: -0.244750000  nElectrons: 152.000000  magneticMoment: [ Abs: 0.00096  Tot: -0.00006 ]
LCAOMinimize: Iter:   7  G: -1143.6319722041348541  |grad|_K:  3.471e-05  alpha:  2.981e-02  linmin:  8.886e-03  cgtest: -8.736e-02  t[s]:    245.90
LCAOMinimize: 	Predicted alpha/alphaT>3.000000, increasing alphaT to 8.942810e-02.
	FillingsUpdate:  mu: -0.244750000  nElectrons: 152.000000  magneticMoment: [ Abs: 0.00096  Tot: -0.00006 ]
LCAOMinimize: Iter:   8  G: -1143.6320365055114507  |grad|_K:  1.830e-05  alpha:  9.883e-02  linmin:  1.250e-02  cgtest: -1.971e-02  t[s]:    279.50
	FillingsUpdate:  mu: -0.244750000  nElectrons: 152.000000  magneticMoment: [ Abs: 0.00096  Tot: -0.00004 ]
LCAOMinimize: Iter:   9  G: -1143.6320698858989999  |grad|_K:  2.690e-05  alpha:  1.894e-01  linmin:  3.920e-04  cgtest:  3.200e-02  t[s]:    306.10
	FillingsUpdate:  mu: -0.244750000  nElectrons: 152.000000  magneticMoment: [ Abs: 0.00096  Tot: -0.00006 ]
LCAOMinimize: Iter:  10  G: -1143.6320886375046939  |grad|_K:  6.775e-06  alpha:  4.772e-02  linmin:  3.634e-03  cgtest: -1.008e-01  t[s]:    332.65
LCAOMinimize: 	Wrong curvature in test step, increasing alphaT to 1.431525e-01.
	FillingsUpdate:  mu: -0.244750000  nElectrons: 152.000000  magneticMoment: [ Abs: 0.00096  Tot: -0.00006 ]
LCAOMinimize: Iter:  11  G: -1143.6320912679946105  |grad|_K:  5.652e-06  alpha: -2.122e-01  linmin: -1.312e-01  cgtest:  9.937e-01  t[s]:    359.09
LCAOMinimize: Encountered beta<0, resetting CG.
	FillingsUpdate:  mu: -0.244750000  nElectrons: 152.000000  magneticMoment: [ Abs: 0.00096  Tot: -0.00005 ]
LCAOMinimize: Iter:  12  G: -1143.6320954848081328  |grad|_K:  8.064e-06  alpha:  1.799e-01  linmin:  5.577e-03  cgtest: -5.907e-02  t[s]:    386.07
	FillingsUpdate:  mu: -0.244750000  nElectrons: 152.000000  magneticMoment: [ Abs: 0.00096  Tot: -0.00006 ]
LCAOMinimize: Iter:  13  G: -1143.6320977619964196  |grad|_K:  3.424e-06  alpha:  5.294e-02  linmin:  1.968e-02  cgtest:  3.448e-02  t[s]:    413.62
	FillingsUpdate:  mu: -0.244750000  nElectrons: 152.000000  magneticMoment: [ Abs: 0.00096  Tot: -0.00006 ]
LCAOMinimize: Iter:  14  G: -1143.6320981385711093  |grad|_K:  2.040e-06  alpha:  6.220e-02  linmin: -7.376e-02  cgtest:  8.060e-01  t[s]:    440.27
LCAOMinimize: Encountered beta<0, resetting CG.
	FillingsUpdate:  mu: -0.244750000  nElectrons: 152.000000  magneticMoment: [ Abs: 0.00096  Tot: -0.00006 ]
LCAOMinimize: Iter:  15  G: -1143.6320982056329285  |grad|_K:  1.657e-06  alpha:  4.277e-02  linmin: -1.419e-01  cgtest:  8.563e-01  t[s]:    466.24
LCAOMinimize: Encountered beta<0, resetting CG.
LCAOMinimize: Converged (|Delta G|<1.000000e-06 for 2 iters).
----- createFluidSolver() ----- (Fluid-side solver setup)
   Initializing fluid molecule 'H2O'
     Initializing site 'O'
       Electron density: proportional to exp(-r/0.36935)*erfc((r-0.51523)/0.36823) with norm 6.826
       Charge density: gaussian nuclear width 0.478731 with net site charge 0.826
       Polarizability: cuspless exponential with width 0.32 and norm 3.73
       Hard sphere radius: 2.57003 bohrs
       Positions in reference frame:
         [ +0.000000 +0.000000 +0.000000 ]
     Initializing site 'H'
       Electron density: proportional to exp(-r/0.34641)*erfc((r-0)/0.390882) with norm 0.587
       Charge density: gaussian nuclear width 0.377945 with net site charge -0.413
       Polarizability: cuspless exponential with width 0.39 and norm 3.3
       Positions in reference frame:
         [ +0.000000 -1.441945 +1.122523 ]
         [ +0.000000 +1.441945 +1.122523 ]
     Net charge: 0   dipole magnitude: 0.927204
     Initializing spherical shell mfKernel with radius 2.61727 Bohr
     deltaS corrections:
       site 'O': -7.54299
       site 'H': -6.83917
   Initializing fluid molecule 'Na+'
     Initializing site 'Na'
       Electron density: proportional to exp(-r/0.19682)*erfc((r-0.71491)/0.41314) with norm 8.1383
       Charge density: gaussian nuclear width 0.365347 with net site charge -1
       Hard sphere radius: 1.86327 bohrs
       Positions in reference frame:
         [ +0.000000 +0.000000 +0.000000 ]
     Net charge: -1   dipole magnitude: 0
     Initializing gaussian mfKernel with width: 1.55004 Bohr
     deltaS corrections:
       site 'Na': -22.3555
   Initializing fluid molecule 'F-'
     Initializing site 'F'
       Electron density: proportional to exp(-r/0.38886)*erfc((r-0)/0.438782) with norm 8
       Charge density: gaussian nuclear width 0.374796 with net site charge 1
       Hard sphere radius: 2.39995 bohrs
       Positions in reference frame:
         [ +0.000000 +0.000000 +0.000000 ]
     Net charge: 1   dipole magnitude: 0
     Initializing gaussian mfKernel with width: 1.59012 Bohr
     deltaS corrections:
       site 'F': -9.04335

Correction to mu due to finite nuclear width = -0.0669612
   Cavity determined by nc: 0.00142 and sigma: 0.707107
   Nonlocal vdW cavity from gaussian model electron density with norm = 8 and sigma = 0.993594 bohr
   Charge asymmetry in cavity with sensitivity pCavity = 36.5 e-bohr/Eh
   Electrostatic cavity expanded by eta = 1.46 bohrs
   Weighted density cavitation model constrained by Nbulk: 0.0049383 bohr^-3, Pvap: 3.14029 kPa, Rvdw: 2.61727 bohr and sigmaBulk: 4.62e-05 Eh/bohr^2 at T: 298 K.
   Weighted density dispersion model using vdW pair potentials with single solvent site with sqrtC6eff: 0.77 SI.


---- Citations for features of the code used in this run ----

   Software package:
      R. Sundararaman, K. Letchworth-Weaver, K.A. Schwarz, D. Gunceler, Y. Ozhabes and T.A. Arias, 'JDFTx: software for joint density-functional theory', SoftwareX 6, 278 (2017)

   gga-PBE exchange-correlation functional:
      J.P. Perdew, K. Burke and M. Ernzerhof, Phys. Rev. Lett. 77, 3865 (1996)

   Pseudopotentials:
      KF Garrity, JW Bennett, KM Rabe and D Vanderbilt, Comput. Mater. Sci. 81, 446 (2014)

   DFT-D3 dispersion correction:
      S. Grimme, J. Antony, S. Ehrlich and H. Krieg, J. Chem. Phys. 132, 154104 (2010)

   DFT-D2 dispersion correction:
      S. Grimme, J. Comput. Chem. 27, 1787 (2006)

   Charge-asymmetric nonlocally-determined local-electric (CANDLE) solvation model:
      R. Sundararaman and W.A. Goddard III, J. Chem. Phys. 142, 064107 (2015)

   Total energy minimization with Auxiliary Hamiltonian:
      C. Freysoldt, S. Boeck, and J. Neugebauer, Phys. Rev. B 79, 241103(R) (2009)

   Grand-canonical (fixed-potential) DFT:
      R. Sundararaman, W. A. Goddard III and T. A. Arias, J. Chem. Phys. 146, 114104 (2017)

   Linear-tetrahedron sampling for density of states:
      G. Lehmann and M. Taut, Phys. status solidi (b) 54, 469 (1972)

This list may not be complete. Please suggest additional citations or
report any other bugs at https://github.com/shankar1729/jdftx/issues

Initialization completed successfully at t[s]:    471.04


Computing DFT-D3 correction:
# coordination-number Ag 8.257 8.999 5.441 8.976 8.964 5.443 8.992 8.251
# diagonal-C6 Ag 268.61 268.61 268.61 268.61 268.61 268.61 268.61 268.61
EvdW_6 =   -0.048254
EvdW_8 =   -0.066634
Fluid solver invoked on fresh (random / LCAO) wavefunctions
Running a vacuum solve first:

-------- Initial electronic minimization -----------
	FillingsUpdate:  mu: +0.165327646  nElectrons: 152.000000  magneticMoment: [ Abs: 0.00096  Tot: -0.00006 ]
ElecMinimize: Iter:   0  G: -1143.632351629081995  |grad|_K:  2.930e-05  alpha:  1.000e+00
	FillingsUpdate:  mu: +0.171264163  nElectrons: 152.000000  magneticMoment: [ Abs: 0.00079  Tot: -0.00006 ]
	SubspaceRotationAdjust: set factor to 0.999
ElecMinimize: Iter:   1  G: -1143.665433138277876  |grad|_K:  2.044e-05  alpha:  4.347e-01  linmin:  4.140e-05  t[s]:    523.08
	FillingsUpdate:  mu: +0.160813476  nElectrons: 152.000000  magneticMoment: [ Abs: 0.00070  Tot: -0.00006 ]
	SubspaceRotationAdjust: set factor to 0.903
ElecMinimize: Iter:   2  G: -1143.675716902213253  |grad|_K:  1.080e-05  alpha:  2.767e-01  linmin: -2.345e-06  t[s]:    555.36
	FillingsUpdate:  mu: +0.169585804  nElectrons: 152.000000  magneticMoment: [ Abs: 0.00066  Tot: -0.00014 ]
	SubspaceRotationAdjust: set factor to 0.588
ElecMinimize: Iter:   3  G: -1143.677120712852002  |grad|_K:  1.427e-05  alpha:  1.373e-01  linmin:  7.345e-05  t[s]:    587.57
	FillingsUpdate:  mu: +0.176483385  nElectrons: 152.000000  magneticMoment: [ Abs: 0.00058  Tot: -0.00007 ]
	SubspaceRotationAdjust: set factor to 0.423
ElecMinimize: Iter:   4  G: -1143.678511773622859  |grad|_K:  8.563e-06  alpha:  7.775e-02  linmin:  3.040e-05  t[s]:    618.88
	FillingsUpdate:  mu: +0.167274974  nElectrons: 152.000000  magneticMoment: [ Abs: 0.00053  Tot: -0.00011 ]
	SubspaceRotationAdjust: set factor to 0.52
ElecMinimize: Iter:   5  G: -1143.679625787188570  |grad|_K:  4.484e-06  alpha:  1.705e-01  linmin: -9.710e-05  t[s]:    651.62
	FillingsUpdate:  mu: +0.164642640  nElectrons: 152.000000  magneticMoment: [ Abs: 0.00049  Tot: -0.00014 ]
	SubspaceRotationAdjust: set factor to 0.338
ElecMinimize: Iter:   6  G: -1143.679993616239017  |grad|_K:  5.582e-06  alpha:  2.041e-01  linmin:  2.711e-05  t[s]:    682.80
	FillingsUpdate:  mu: +0.166823347  nElectrons: 152.000000  magneticMoment: [ Abs: 0.00042  Tot: -0.00014 ]
	SubspaceRotationAdjust: set factor to 0.348
ElecMinimize: Iter:   7  G: -1143.680347041497043  |grad|_K:  2.663e-06  alpha:  1.278e-01  linmin:  2.750e-05  t[s]:    714.24
	FillingsUpdate:  mu: +0.170625160  nElectrons: 152.000000  magneticMoment: [ Abs: 0.00036  Tot: -0.00014 ]
	SubspaceRotationAdjust: set factor to 0.33
ElecMinimize: Iter:   8  G: -1143.680546864956113  |grad|_K:  2.022e-06  alpha:  3.172e-01  linmin:  2.352e-05  t[s]:    746.22
	FillingsUpdate:  mu: +0.169975261  nElectrons: 152.000000  magneticMoment: [ Abs: 0.00033  Tot: -0.00015 ]
	SubspaceRotationAdjust: set factor to 0.271
ElecMinimize: Iter:   9  G: -1143.680620613411520  |grad|_K:  1.809e-06  alpha:  2.030e-01  linmin:  4.536e-05  t[s]:    778.10
	FillingsUpdate:  mu: +0.168946157  nElectrons: 152.000000  magneticMoment: [ Abs: 0.00030  Tot: -0.00015 ]
	SubspaceRotationAdjust: set factor to 0.224
ElecMinimize: Iter:  10  G: -1143.680672904422636  |grad|_K:  1.027e-06  alpha:  1.801e-01  linmin:  4.855e-05  t[s]:    809.64
	FillingsUpdate:  mu: +0.169167450  nElectrons: 152.000000  magneticMoment: [ Abs: 0.00025  Tot: -0.00014 ]
	SubspaceRotationAdjust: set factor to 0.273
ElecMinimize: Iter:  11  G: -1143.680709121284963  |grad|_K:  9.156e-07  alpha:  3.887e-01  linmin:  8.330e-05  t[s]:    840.69
	FillingsUpdate:  mu: +0.169799394  nElectrons: 152.000000  magneticMoment: [ Abs: 0.00022  Tot: -0.00014 ]
	SubspaceRotationAdjust: set factor to 0.209
ElecMinimize: Iter:  12  G: -1143.680725319042949  |grad|_K:  6.559e-07  alpha:  2.196e-01  linmin:  2.700e-05  t[s]:    873.14
	FillingsUpdate:  mu: +0.170183396  nElectrons: 152.000000  magneticMoment: [ Abs: 0.00019  Tot: -0.00013 ]
	SubspaceRotationAdjust: set factor to 0.211
ElecMinimize: Iter:  13  G: -1143.680736227092893  |grad|_K:  4.790e-07  alpha:  2.864e-01  linmin:  3.112e-05  t[s]:    904.16
	FillingsUpdate:  mu: +0.170005241  nElectrons: 152.000000  magneticMoment: [ Abs: 0.00017  Tot: -0.00012 ]
	SubspaceRotationAdjust: set factor to 0.25
ElecMinimize: Iter:  14  G: -1143.680743353129856  |grad|_K:  3.467e-07  alpha:  3.519e-01  linmin:  3.683e-05  t[s]:    936.41
	FillingsUpdate:  mu: +0.169930963  nElectrons: 152.000000  magneticMoment: [ Abs: 0.00014  Tot: -0.00010 ]
	SubspaceRotationAdjust: set factor to 0.22
ElecMinimize: Iter:  15  G: -1143.680746950991534  |grad|_K:  3.288e-07  alpha:  3.396e-01  linmin:  1.790e-05  t[s]:    967.20
	FillingsUpdate:  mu: +0.170039876  nElectrons: 152.000000  magneticMoment: [ Abs: 0.00013  Tot: -0.00009 ]
	SubspaceRotationAdjust: set factor to 0.194
ElecMinimize: Iter:  16  G: -1143.680749289042524  |grad|_K:  2.193e-07  alpha:  2.446e-01  linmin:  8.590e-06  t[s]:    999.60
	FillingsUpdate:  mu: +0.170213676  nElectrons: 152.000000  magneticMoment: [ Abs: 0.00010  Tot: -0.00008 ]
	SubspaceRotationAdjust: set factor to 0.222
ElecMinimize: Iter:  17  G: -1143.680751062691797  |grad|_K:  1.796e-07  alpha:  4.167e-01  linmin:  9.759e-06  t[s]:   1031.88
	FillingsUpdate:  mu: +0.170195013  nElectrons: 152.000000  magneticMoment: [ Abs: 0.00009  Tot: -0.00006 ]
	SubspaceRotationAdjust: set factor to 0.233
ElecMinimize: Iter:  18  G: -1143.680752031957354  |grad|_K:  1.442e-07  alpha:  3.398e-01  linmin:  5.502e-06  t[s]:   1062.99
	FillingsUpdate:  mu: +0.170136633  nElectrons: 152.000000  magneticMoment: [ Abs: 0.00007  Tot: -0.00005 ]
	SubspaceRotationAdjust: set factor to 0.194
ElecMinimize: Iter:  19  G: -1143.680752582546347  |grad|_K:  1.140e-07  alpha:  2.989e-01  linmin:  2.824e-06  t[s]:   1095.23
	FillingsUpdate:  mu: +0.170144108  nElectrons: 152.000000  magneticMoment: [ Abs: 0.00006  Tot: -0.00005 ]
	SubspaceRotationAdjust: set factor to 0.189
ElecMinimize: Iter:  20  G: -1143.680752921124849  |grad|_K:  8.420e-08  alpha:  2.935e-01  linmin:  1.910e-06  t[s]:   1127.29
	FillingsUpdate:  mu: +0.170197775  nElectrons: 152.000000  magneticMoment: [ Abs: 0.00005  Tot: -0.00004 ]
	SubspaceRotationAdjust: set factor to 0.216
ElecMinimize: Iter:  21  G: -1143.680753160219410  |grad|_K:  5.988e-08  alpha:  3.799e-01  linmin:  9.974e-07  t[s]:   1159.34
	FillingsUpdate:  mu: +0.170199460  nElectrons: 152.000000  magneticMoment: [ Abs: 0.00004  Tot: -0.00003 ]
	SubspaceRotationAdjust: set factor to 0.207
ElecMinimize: Iter:  22  G: -1143.680753271847607  |grad|_K:  5.199e-08  alpha:  3.504e-01  linmin:  5.963e-07  t[s]:   1191.11
	FillingsUpdate:  mu: +0.170181217  nElectrons: 152.000000  magneticMoment: [ Abs: 0.00004  Tot: -0.00003 ]
	SubspaceRotationAdjust: set factor to 0.177
ElecMinimize: Iter:  23  G: -1143.680753339806415  |grad|_K:  3.641e-08  alpha:  2.831e-01  linmin: -2.321e-08  t[s]:   1223.28
	FillingsUpdate:  mu: +0.170177042  nElectrons: 152.000000  magneticMoment: [ Abs: 0.00003  Tot: -0.00002 ]
	SubspaceRotationAdjust: set factor to 0.198
ElecMinimize: Iter:  24  G: -1143.680753381677960  |grad|_K:  2.790e-08  alpha:  3.545e-01  linmin: -5.477e-07  t[s]:   1254.19
ElecMinimize: Converged (|Delta G|<1.000000e-07 for 2 iters).
Setting wave functions to eigenvectors of Hamiltonian
Converging empty states (this may take a while): |deigs|: 1.325e-02
Vacuum energy after initial minimize, F = -1143.680753381677960

Shifting auxilliary hamiltonian by -0.414927 to set nElectrons=152.000000

-------- Electronic minimization -----------
	Linear fluid (dielectric constant: 78.4, screening length: 8.12261 Bohr) occupying 0.440067 of unit cell:	Completed after 19 iterations at t[s]:   1334.92
	FillingsUpdate:  mu: -0.244750000  nElectrons: 152.000000  magneticMoment: [ Abs: 0.00001  Tot: -0.00001 ]
ElecMinimize: Iter:   0  G: -1143.681106308029030  |grad|_K:  2.588e-05  alpha:  1.000e+00
	Linear fluid (dielectric constant: 78.4, screening length: 8.12261 Bohr) occupying 0.450923 of unit cell:	Completed after 20 iterations at t[s]:   1361.55
	Linear fluid (dielectric constant: 78.4, screening length: 8.12261 Bohr) occupying 0.441143 of unit cell:	Completed after 19 iterations at t[s]:   1371.38
	FillingsUpdate:  mu: -0.244750000  nElectrons: 151.919337  magneticMoment: [ Abs: 0.00001  Tot: -0.00000 ]
	SubspaceRotationAdjust: set factor to 0.109
ElecMinimize: Iter:   1  G: -1143.686895524297142  |grad|_K:  1.242e-05  alpha:  7.704e-02  linmin: -3.326e-02  t[s]:   1385.80
	Linear fluid (dielectric constant: 78.4, screening length: 8.12261 Bohr) occupying 0.442096 of unit cell:	Completed after 14 iterations at t[s]:   1396.22
	Linear fluid (dielectric constant: 78.4, screening length: 8.12261 Bohr) occupying 0.443045 of unit cell:	Completed after 14 iterations at t[s]:   1405.86
	FillingsUpdate:  mu: -0.244750000  nElectrons: 151.832199  magneticMoment: [ Abs: 0.00001  Tot: -0.00000 ]
	SubspaceRotationAdjust: set factor to 0.0867
ElecMinimize: Iter:   2  G: -1143.690803080515707  |grad|_K:  8.202e-06  alpha:  1.802e-01  linmin: -1.749e-02  t[s]:   1420.31
	Linear fluid (dielectric constant: 78.4, screening length: 8.12261 Bohr) occupying 0.444274 of unit cell:	Completed after 15 iterations at t[s]:   1430.96
ElecMinimize: 	Predicted alpha/alphaT>3.000000, increasing alphaT to 5.405794e-01.
	Linear fluid (dielectric constant: 78.4, screening length: 8.12261 Bohr) occupying 0.446811 of unit cell:	Completed after 15 iterations at t[s]:   1440.34
	Linear fluid (dielectric constant: 78.4, screening length: 8.12261 Bohr) occupying 0.447070 of unit cell:	Completed after 14 iterations at t[s]:   1449.88
	FillingsUpdate:  mu: -0.244750000  nElectrons: 151.687970  magneticMoment: [ Abs: 0.00001  Tot: -0.00000 ]
	SubspaceRotationAdjust: set factor to 0.0641
ElecMinimize: Iter:   3  G: -1143.695491601473350  |grad|_K:  8.729e-06  alpha:  5.754e-01  linmin:  3.074e-03  t[s]:   1463.91
	Linear fluid (dielectric constant: 78.4, screening length: 8.12261 Bohr) occupying 0.454230 of unit cell:	Completed after 17 iterations at t[s]:   1474.57
	Linear fluid (dielectric constant: 78.4, screening length: 8.12261 Bohr) occupying 0.451832 of unit cell:	Completed after 15 iterations at t[s]:   1483.60
	FillingsUpdate:  mu: -0.244750000  nElectrons: 151.584702  magneticMoment: [ Abs: 0.00001  Tot: -0.00000 ]
	SubspaceRotationAdjust: set factor to 0.0833
ElecMinimize: Iter:   4  G: -1143.697767790789158  |grad|_K:  8.601e-06  alpha:  3.806e-01  linmin: -7.734e-05  t[s]:   1497.33
	Linear fluid (dielectric constant: 78.4, screening length: 8.12261 Bohr) occupying 0.457113 of unit cell:	Completed after 16 iterations at t[s]:   1508.31
	Linear fluid (dielectric constant: 78.4, screening length: 8.12261 Bohr) occupying 0.457727 of unit cell:	Completed after 14 iterations at t[s]:   1517.40
	FillingsUpdate:  mu: -0.244750000  nElectrons: 151.507169  magneticMoment: [ Abs: 0.00001  Tot: -0.00001 ]
	SubspaceRotationAdjust: set factor to 0.106
ElecMinimize: Iter:   5  G: -1143.700610632785356  |grad|_K:  7.674e-06  alpha:  4.277e-01  linmin: -1.137e-03  t[s]:   1531.85
	Linear fluid (dielectric constant: 78.4, screening length: 8.12261 Bohr) occupying 0.462926 of unit cell:	Completed after 17 iterations at t[s]:   1542.49
	Linear fluid (dielectric constant: 78.4, screening length: 8.12261 Bohr) occupying 0.463306 of unit cell:	Completed after 14 iterations at t[s]:   1551.61
	FillingsUpdate:  mu: -0.244750000  nElectrons: 151.452858  magneticMoment: [ Abs: 0.00001  Tot: -0.00001 ]
	SubspaceRotationAdjust: set factor to 0.134
ElecMinimize: Iter:   6  G: -1143.703159722868804  |grad|_K:  7.363e-06  alpha:  4.640e-01  linmin: -3.278e-04  t[s]:   1566.37
	Linear fluid (dielectric constant: 78.4, screening length: 8.12261 Bohr) occupying 0.467602 of unit cell:	Completed after 15 iterations at t[s]:   1577.19
	Linear fluid (dielectric constant: 78.4, screening length: 8.12261 Bohr) occupying 0.466805 of unit cell:	Completed after 11 iterations at t[s]:   1585.85
	FillingsUpdate:  mu: -0.244750000  nElectrons: 151.458632  magneticMoment: [ Abs: 0.00001  Tot: -0.00001 ]
	SubspaceRotationAdjust: set factor to 0.142
ElecMinimize: Iter:   7  G: -1143.704920253406272  |grad|_K:  7.150e-06  alpha:  3.651e-01  linmin: -4.056e-04  t[s]:   1599.80
	Linear fluid (dielectric constant: 78.4, screening length: 8.12261 Bohr) occupying 0.469360 of unit cell:	Completed after 17 iterations at t[s]:   1611.04
	Linear fluid (dielectric constant: 78.4, screening length: 8.12261 Bohr) occupying 0.469160 of unit cell:	Completed after 13 iterations at t[s]:   1620.46
	FillingsUpdate:  mu: -0.244750000  nElectrons: 151.431120  magneticMoment: [ Abs: 0.00001  Tot: -0.00000 ]
	SubspaceRotationAdjust: set factor to 0.171
ElecMinimize: Iter:   8  G: -1143.706444265914570  |grad|_K:  5.807e-06  alpha:  3.304e-01  linmin: -5.395e-04  t[s]:   1635.10
	Linear fluid (dielectric constant: 78.4, screening length: 8.12261 Bohr) occupying 0.470137 of unit cell:	Completed after 14 iterations at t[s]:   1646.01
	Linear fluid (dielectric constant: 78.4, screening length: 8.12261 Bohr) occupying 0.470379 of unit cell:	Completed after 13 iterations at t[s]:   1655.33
	FillingsUpdate:  mu: -0.244750000  nElectrons: 151.418885  magneticMoment: [ Abs: 0.00001  Tot: -0.00000 ]
	SubspaceRotationAdjust: set factor to 0.189
ElecMinimize: Iter:   9  G: -1143.707798940484963  |grad|_K:  5.042e-06  alpha:  4.361e-01  linmin: -4.940e-04  t[s]:   1669.74
	Linear fluid (dielectric constant: 78.4, screening length: 8.12261 Bohr) occupying 0.470763 of unit cell:	Completed after 14 iterations at t[s]:   1680.13
	Linear fluid (dielectric constant: 78.4, screening length: 8.12261 Bohr) occupying 0.470759 of unit cell:	Completed after 10 iterations at t[s]:   1689.00
	FillingsUpdate:  mu: -0.244750000  nElectrons: 151.424204  magneticMoment: [ Abs: 0.00000  Tot: -0.00000 ]
	SubspaceRotationAdjust: set factor to 0.195
ElecMinimize: Iter:  10  G: -1143.708791486714063  |grad|_K:  4.490e-06  alpha:  4.279e-01  linmin: -2.332e-04  t[s]:   1703.35
	Linear fluid (dielectric constant: 78.4, screening length: 8.12261 Bohr) occupying 0.470792 of unit cell:	Completed after 15 iterations at t[s]:   1714.54
	Linear fluid (dielectric constant: 78.4, screening length: 8.12261 Bohr) occupying 0.470799 of unit cell:	Completed after 12 iterations at t[s]:   1723.65
	FillingsUpdate:  mu: -0.244750000  nElectrons: 151.411669  magneticMoment: [ Abs: 0.00001  Tot: +0.00000 ]
	SubspaceRotationAdjust: set factor to 0.179
ElecMinimize: Iter:  11  G: -1143.709423415261654  |grad|_K:  3.803e-06  alpha:  3.476e-01  linmin: -1.133e-06  t[s]:   1738.28
	Linear fluid (dielectric constant: 78.4, screening length: 8.12261 Bohr) occupying 0.470871 of unit cell:	Completed after 14 iterations at t[s]:   1749.08
	Linear fluid (dielectric constant: 78.4, screening length: 8.12261 Bohr) occupying 0.470869 of unit cell:	Completed after 10 iterations at t[s]:   1757.89
	FillingsUpdate:  mu: -0.244750000  nElectrons: 151.419344  magneticMoment: [ Abs: 0.00001  Tot: +0.00000 ]
	SubspaceRotationAdjust: set factor to 0.171
ElecMinimize: Iter:  12  G: -1143.709853333902174  |grad|_K:  2.808e-06  alpha:  3.344e-01  linmin: -1.351e-04  t[s]:   1772.53
	Linear fluid (dielectric constant: 78.4, screening length: 8.12261 Bohr) occupying 0.470996 of unit cell:	Completed after 12 iterations at t[s]:   1782.90
	Linear fluid (dielectric constant: 78.4, screening length: 8.12261 Bohr) occupying 0.471025 of unit cell:	Completed after 11 iterations at t[s]:   1792.09
	FillingsUpdate:  mu: -0.244750000  nElectrons: 151.416844  magneticMoment: [ Abs: 0.00001  Tot: +0.00000 ]
	SubspaceRotationAdjust: set factor to 0.191
ElecMinimize: Iter:  13  G: -1143.710149282610018  |grad|_K:  2.140e-06  alpha:  4.196e-01  linmin:  1.448e-05  t[s]:   1806.56
	Linear fluid (dielectric constant: 78.4, screening length: 8.12261 Bohr) occupying 0.471210 of unit cell:	Completed after 14 iterations at t[s]:   1817.06
	Linear fluid (dielectric constant: 78.4, screening length: 8.12261 Bohr) occupying 0.471194 of unit cell:	Completed after 10 iterations at t[s]:   1825.91
	FillingsUpdate:  mu: -0.244750000  nElectrons: 151.411565  magneticMoment: [ Abs: 0.00001  Tot: +0.00000 ]
	SubspaceRotationAdjust: set factor to 0.195
ElecMinimize: Iter:  14  G: -1143.710304884007883  |grad|_K:  1.745e-06  alpha:  3.822e-01  linmin:  8.636e-05  t[s]:   1840.26
	Linear fluid (dielectric constant: 78.4, screening length: 8.12261 Bohr) occupying 0.471357 of unit cell:	Completed after 14 iterations at t[s]:   1851.36
	Linear fluid (dielectric constant: 78.4, screening length: 8.12261 Bohr) occupying 0.471329 of unit cell:	Completed after 12 iterations at t[s]:   1860.68
	FillingsUpdate:  mu: -0.244750000  nElectrons: 151.414842  magneticMoment: [ Abs: 0.00001  Tot: +0.00000 ]
	SubspaceRotationAdjust: set factor to 0.187
ElecMinimize: Iter:  15  G: -1143.710389679935133  |grad|_K:  1.391e-06  alpha:  3.139e-01  linmin:  1.937e-05  t[s]:   1874.82
	Linear fluid (dielectric constant: 78.4, screening length: 8.12261 Bohr) occupying 0.471406 of unit cell:	Completed after 14 iterations at t[s]:   1885.58
	Linear fluid (dielectric constant: 78.4, screening length: 8.12261 Bohr) occupying 0.471413 of unit cell:	Completed after 10 iterations at t[s]:   1894.64
	FillingsUpdate:  mu: -0.244750000  nElectrons: 151.410222  magneticMoment: [ Abs: 0.00001  Tot: +0.00000 ]
	SubspaceRotationAdjust: set factor to 0.188
ElecMinimize: Iter:  16  G: -1143.710448507351884  |grad|_K:  1.072e-06  alpha:  3.426e-01  linmin:  1.588e-04  t[s]:   1909.30
	Linear fluid (dielectric constant: 78.4, screening length: 8.12261 Bohr) occupying 0.471450 of unit cell:	Completed after 11 iterations at t[s]:   1920.06
	Linear fluid (dielectric constant: 78.4, screening length: 8.12261 Bohr) occupying 0.471456 of unit cell:	Completed after 9 iterations at t[s]:   1929.15
	FillingsUpdate:  mu: -0.244750000  nElectrons: 151.410468  magneticMoment: [ Abs: 0.00001  Tot: +0.00000 ]
	SubspaceRotationAdjust: set factor to 0.214
ElecMinimize: Iter:  17  G: -1143.710488828809503  |grad|_K:  8.228e-07  alpha:  3.967e-01  linmin: -1.314e-05  t[s]:   1943.40
	Linear fluid (dielectric constant: 78.4, screening length: 8.12261 Bohr) occupying 0.471454 of unit cell:	Completed after 11 iterations at t[s]:   1953.82
	Linear fluid (dielectric constant: 78.4, screening length: 8.12261 Bohr) occupying 0.471453 of unit cell:	Completed after 2 iterations at t[s]:   1962.26
	FillingsUpdate:  mu: -0.244750000  nElectrons: 151.411334  magneticMoment: [ Abs: 0.00001  Tot: +0.00000 ]
	SubspaceRotationAdjust: set factor to 0.229
ElecMinimize: Iter:  18  G: -1143.710514136761276  |grad|_K:  6.627e-07  alpha:  4.200e-01  linmin: -1.431e-05  t[s]:   1976.19
	Linear fluid (dielectric constant: 78.4, screening length: 8.12261 Bohr) occupying 0.471416 of unit cell:	Completed after 12 iterations at t[s]:   1987.14
	Linear fluid (dielectric constant: 78.4, screening length: 8.12261 Bohr) occupying 0.471422 of unit cell:	Completed after 10 iterations at t[s]:   1996.47
	FillingsUpdate:  mu: -0.244750000  nElectrons: 151.410068  magneticMoment: [ Abs: 0.00001  Tot: +0.00000 ]
	SubspaceRotationAdjust: set factor to 0.219
ElecMinimize: Iter:  19  G: -1143.710528199874261  |grad|_K:  6.230e-07  alpha:  3.594e-01  linmin:  3.047e-05  t[s]:   2010.56
	Linear fluid (dielectric constant: 78.4, screening length: 8.12261 Bohr) occupying 0.471370 of unit cell:	Completed after 13 iterations at t[s]:   2021.65
	Linear fluid (dielectric constant: 78.4, screening length: 8.12261 Bohr) occupying 0.471386 of unit cell:	Completed after 12 iterations at t[s]:   2030.86
	FillingsUpdate:  mu: -0.244750000  nElectrons: 151.412885  magneticMoment: [ Abs: 0.00001  Tot: +0.00000 ]
	SubspaceRotationAdjust: set factor to 0.183
ElecMinimize: Iter:  20  G: -1143.710536879457777  |grad|_K:  4.957e-07  alpha:  2.519e-01  linmin: -1.599e-06  t[s]:   2045.59
	Linear fluid (dielectric constant: 78.4, screening length: 8.12261 Bohr) occupying 0.471344 of unit cell:	Completed after 10 iterations at t[s]:   2056.32
	Linear fluid (dielectric constant: 78.4, screening length: 8.12261 Bohr) occupying 0.471330 of unit cell:	Completed after 10 iterations at t[s]:   2064.89
	FillingsUpdate:  mu: -0.244750000  nElectrons: 151.412864  magneticMoment: [ Abs: 0.00000  Tot: +0.00000 ]
	SubspaceRotationAdjust: set factor to 0.194
ElecMinimize: Iter:  21  G: -1143.710544232584652  |grad|_K:  3.743e-07  alpha:  3.365e-01  linmin:  1.760e-06  t[s]:   2078.75
	Linear fluid (dielectric constant: 78.4, screening length: 8.12261 Bohr) occupying 0.471282 of unit cell:	Completed after 9 iterations at t[s]:   2089.49
	Linear fluid (dielectric constant: 78.4, screening length: 8.12261 Bohr) occupying 0.471267 of unit cell:	Completed after 3 iterations at t[s]:   2098.24
	FillingsUpdate:  mu: -0.244750000  nElectrons: 151.413936  magneticMoment: [ Abs: 0.00000  Tot: +0.00000 ]
	SubspaceRotationAdjust: set factor to 0.221
ElecMinimize: Iter:  22  G: -1143.710549738002555  |grad|_K:  3.151e-07  alpha:  4.419e-01  linmin: -3.615e-06  t[s]:   2112.53
	Linear fluid (dielectric constant: 78.4, screening length: 8.12261 Bohr) occupying 0.471209 of unit cell:	Completed after 12 iterations at t[s]:   2123.09
	Linear fluid (dielectric constant: 78.4, screening length: 8.12261 Bohr) occupying 0.471214 of unit cell:	Completed after 6 iterations at t[s]:   2132.10
	FillingsUpdate:  mu: -0.244750000  nElectrons: 151.415678  magneticMoment: [ Abs: 0.00000  Tot: +0.00000 ]
	SubspaceRotationAdjust: set factor to 0.228
ElecMinimize: Iter:  23  G: -1143.710553333306052  |grad|_K:  2.821e-07  alpha:  4.067e-01  linmin:  2.021e-05  t[s]:   2146.83
	Linear fluid (dielectric constant: 78.4, screening length: 8.12261 Bohr) occupying 0.471159 of unit cell:	Completed after 12 iterations at t[s]:   2157.85
	Linear fluid (dielectric constant: 78.4, screening length: 8.12261 Bohr) occupying 0.471176 of unit cell:	Completed after 10 iterations at t[s]:   2166.06
	FillingsUpdate:  mu: -0.244750000  nElectrons: 151.415465  magneticMoment: [ Abs: 0.00000  Tot: +0.00000 ]
	SubspaceRotationAdjust: set factor to 0.196
ElecMinimize: Iter:  24  G: -1143.710555315707779  |grad|_K:  2.577e-07  alpha:  2.807e-01  linmin: -1.532e-06  t[s]:   2180.05
	Linear fluid (dielectric constant: 78.4, screening length: 8.12261 Bohr) occupying 0.471142 of unit cell:	Completed after 12 iterations at t[s]:   2191.13
	Linear fluid (dielectric constant: 78.4, screening length: 8.12261 Bohr) occupying 0.471141 of unit cell:	Completed after 0 iterations at t[s]:   2199.63
	FillingsUpdate:  mu: -0.244750000  nElectrons: 151.416926  magneticMoment: [ Abs: 0.00000  Tot: +0.00000 ]
	SubspaceRotationAdjust: set factor to 0.175
ElecMinimize: Iter:  25  G: -1143.710557028330186  |grad|_K:  1.899e-07  alpha:  2.898e-01  linmin: -4.598e-05  t[s]:   2214.29
	Linear fluid (dielectric constant: 78.4, screening length: 8.12261 Bohr) occupying 0.471120 of unit cell:	Completed after 6 iterations at t[s]:   2224.62
	Linear fluid (dielectric constant: 78.4, screening length: 8.12261 Bohr) occupying 0.471111 of unit cell:	Completed after 2 iterations at t[s]:   2233.14
	FillingsUpdate:  mu: -0.244750000  nElectrons: 151.417404  magneticMoment: [ Abs: 0.00000  Tot: +0.00000 ]
	SubspaceRotationAdjust: set factor to 0.195
ElecMinimize: Iter:  26  G: -1143.710558350766178  |grad|_K:  1.507e-07  alpha:  4.099e-01  linmin: -1.214e-05  t[s]:   2247.41
	Linear fluid (dielectric constant: 78.4, screening length: 8.12261 Bohr) occupying 0.471090 of unit cell:	Completed after 9 iterations at t[s]:   2257.68
	Linear fluid (dielectric constant: 78.4, screening length: 8.12261 Bohr) occupying 0.471093 of unit cell:	Completed after 6 iterations at t[s]:   2266.46
	FillingsUpdate:  mu: -0.244750000  nElectrons: 151.417286  magneticMoment: [ Abs: 0.00000  Tot: -0.00000 ]
	SubspaceRotationAdjust: set factor to 0.178
ElecMinimize: Iter:  27  G: -1143.710559054577061  |grad|_K:  1.404e-07  alpha:  3.493e-01  linmin: -5.758e-05  t[s]:   2280.40
	Linear fluid (dielectric constant: 78.4, screening length: 8.12261 Bohr) occupying 0.471079 of unit cell:	Completed after 11 iterations at t[s]:   2290.96
	Linear fluid (dielectric constant: 78.4, screening length: 8.12261 Bohr) occupying 0.471084 of unit cell:	Completed after 9 iterations at t[s]:   2299.99
	FillingsUpdate:  mu: -0.244750000  nElectrons: 151.417892  magneticMoment: [ Abs: 0.00000  Tot: -0.00000 ]
	SubspaceRotationAdjust: set factor to 0.146
ElecMinimize: Iter:  28  G: -1143.710559484733267  |grad|_K:  1.031e-07  alpha:  2.445e-01  linmin: -1.216e-05  t[s]:   2314.75
	Linear fluid (dielectric constant: 78.4, screening length: 8.12261 Bohr) occupying 0.471079 of unit cell:	Completed after 6 iterations at t[s]:   2325.19
	Linear fluid (dielectric constant: 78.4, screening length: 8.12261 Bohr) occupying 0.471076 of unit cell:	Completed after 2 iterations at t[s]:   2333.65
	FillingsUpdate:  mu: -0.244750000  nElectrons: 151.417928  magneticMoment: [ Abs: 0.00000  Tot: -0.00000 ]
	SubspaceRotationAdjust: set factor to 0.172
ElecMinimize: Iter:  29  G: -1143.710559823962740  |grad|_K:  7.692e-08  alpha:  3.580e-01  linmin: -1.544e-05  t[s]:   2348.26
	Linear fluid (dielectric constant: 78.4, screening length: 8.12261 Bohr) occupying 0.471073 of unit cell:	Completed after 9 iterations at t[s]:   2358.53
	Linear fluid (dielectric constant: 78.4, screening length: 8.12261 Bohr) occupying 0.471073 of unit cell:	Completed after 2 iterations at t[s]:   2366.82
	FillingsUpdate:  mu: -0.244750000  nElectrons: 151.417757  magneticMoment: [ Abs: 0.00000  Tot: -0.00000 ]
	SubspaceRotationAdjust: set factor to 0.161
ElecMinimize: Iter:  30  G: -1143.710559987204306  |grad|_K:  7.078e-08  alpha:  3.109e-01  linmin: -1.301e-05  t[s]:   2380.95
	Linear fluid (dielectric constant: 78.4, screening length: 8.12261 Bohr) occupying 0.471072 of unit cell:	Completed after 10 iterations at t[s]:   2391.65
	Linear fluid (dielectric constant: 78.4, screening length: 8.12261 Bohr) occupying 0.471072 of unit cell:	Completed after 2 iterations at t[s]:   2400.35
	FillingsUpdate:  mu: -0.244750000  nElectrons: 151.417976  magneticMoment: [ Abs: 0.00000  Tot: -0.00000 ]
	SubspaceRotationAdjust: set factor to 0.151
ElecMinimize: Iter:  31  G: -1143.710560097289772  |grad|_K:  5.066e-08  alpha:  2.476e-01  linmin:  5.397e-05  t[s]:   2414.63
	Linear fluid (dielectric constant: 78.4, screening length: 8.12261 Bohr) occupying 0.471072 of unit cell:	Completed after 2 iterations at t[s]:   2424.68
	Linear fluid (dielectric constant: 78.4, screening length: 8.12261 Bohr) occupying 0.471072 of unit cell:	Completed after 0 iterations at t[s]:   2433.08
	FillingsUpdate:  mu: -0.244750000  nElectrons: 151.417978  magneticMoment: [ Abs: 0.00000  Tot: -0.00000 ]
	SubspaceRotationAdjust: set factor to 0.184
ElecMinimize: Iter:  32  G: -1143.710560188652607  |grad|_K:  4.121e-08  alpha:  4.012e-01  linmin: -7.125e-05  t[s]:   2447.32
	Linear fluid (dielectric constant: 78.4, screening length: 8.12261 Bohr) occupying 0.471072 of unit cell:	Completed after 8 iterations at t[s]:   2457.44
	Linear fluid (dielectric constant: 78.4, screening length: 8.12261 Bohr) occupying 0.471072 of unit cell:	Completed after 3 iterations at t[s]:   2465.87
	FillingsUpdate:  mu: -0.244750000  nElectrons: 151.417837  magneticMoment: [ Abs: 0.00000  Tot: -0.00000 ]
	SubspaceRotationAdjust: set factor to 0.173
ElecMinimize: Iter:  33  G: -1143.710560238143444  |grad|_K:  3.977e-08  alpha:  3.270e-01  linmin: -3.190e-05  t[s]:   2480.26
ElecMinimize: Converged (|Delta G|<1.000000e-07 for 2 iters).
Setting wave functions to eigenvectors of Hamiltonian
Converging empty states (this may take a while): |deigs|: 2.844e-03
Single-point solvation energy estimate, DeltaG = -0.029806856465484

Computing DFT-D3 correction:
# coordination-number Ag 8.257 8.999 5.441 8.976 8.964 5.443 8.992 8.251
# diagonal-C6 Ag 268.61 268.61 268.61 268.61 268.61 268.61 268.61 268.61
EvdW_6 =   -0.048254
EvdW_8 =   -0.066634

# Ionic positions in cartesian coordinates:
ion Ag  -0.000455000000000   0.000322000000000  50.292687000000001 1
ion Ag   0.000363000000000   0.000483000000000  44.749575999999998 1
ion Ag   2.708858000000000   3.832390000000000  52.928921000000003 1
ion Ag   2.709958000000000   3.832259000000000  47.467278999999998 1
ion Ag   0.000488000000000   0.000084000000000  39.259694000000003 1
ion Ag   0.001014000000000   0.000199000000000  33.797348000000000 1
ion Ag   2.710083000000000   3.832580999999999  41.981516999999997 1
ion Ag   2.710587000000000   3.833017999999999  36.431468000000002 1

# Forces in Cartesian coordinates:
force Ag  -0.000001941733014  -0.000046121061761  -0.002624441473044 1
force Ag  -0.000004251002163  -0.000056481496513  -0.001853889774516 1
force Ag   0.000000282398390   0.000018942730167  -0.000404584097254 1
force Ag  -0.000000524116054   0.000058953213589   0.002870421139949 1
force Ag  -0.000002866510266  -0.000009548084989  -0.002955708567847 1
force Ag   0.000001274365945   0.000006554881653   0.000126133758350 1
force Ag   0.000003558266994   0.000033754909865   0.001774885307937 1
force Ag   0.000007004351928  -0.000007705059461   0.002790278521445 1

# Energy components:
   A_diel =        0.1117532675040017
   Eewald =     4793.0573820451181746
       EH =     5859.1387733431311062
     Eloc =   -12018.7414225804732268
      Enl =       31.6372137619864198
     EvdW =       -0.1148880424367923
      Exc =     -115.8059496738568441
 Exc_core =        1.6653678228691136
       KE =      268.2428902829140043
  MuShift =        0.0389822928780252
-------------------------------------
     Etot =    -1180.7698974803656711
       TS =        0.0001784532981073
-------------------------------------
        F =    -1180.7700759336637475
      muN =      -37.0595156955202540
-------------------------------------
        G =    -1143.7105602381434437


Dumping 'jdft.fillings' ... done
Dumping 'jdft.wfns' ... done
Dumping 'jdft.fluidState' ... done
Dumping 'jdft.ionpos' ... done
Dumping 'jdft.lattice' ... done
Dumping 'jdft.eigenvals' ... done
Dumping 'jdft.eigStats' ... 
	eMin: -3.626028 at state 50 ( [ +0.000000 +0.000000 +0.000000 ] spin -1 )
	HOMO: -0.246446 at state 33 ( [ +0.333333 +0.500000 +0.000000 ] spin 1 )
	mu  : -0.244750
	LUMO: -0.243558 at state 80 ( [ +0.333333 +0.125000 +0.000000 ] spin -1 )
	eMax: +0.152871 at state 17 ( [ +0.166667 +0.500000 +0.000000 ] spin 1 )
	HOMO-LUMO gap: +0.002889
	Optical gap  : +0.018126 at state 95 ( [ +0.500000 +0.000000 +0.000000 ] spin -1 )
Dumping 'jdft.Ecomponents' ... done
IonicMinimize: Iter:   0  G: -1143.710560238143444  |grad|_K:  1.265e-03  t[s]:   2570.67

#--- Lowdin population analysis ---
# oxidation-state Ag -0.023 +0.001 +0.345 -0.006 -0.006 +0.345 +0.001 -0.023
# magnetic-moments Ag -0.000 -0.000 -0.000 -0.000 -0.000 -0.000 -0.000 -0.000


Computing DFT-D3 correction:
# coordination-number Ag 8.262 8.997 5.441 8.979 8.967 5.442 8.991 8.256
# diagonal-C6 Ag 268.61 268.61 268.61 268.61 268.61 268.61 268.61 268.61
EvdW_6 =   -0.048256
EvdW_8 =   -0.066638
Shifting auxilliary hamiltonian by 0.000083 to set nElectrons=151.417837

-------- Electronic minimization -----------
	Linear fluid (dielectric constant: 78.4, screening length: 8.12261 Bohr) occupying 0.471107 of unit cell:	Completed after 12 iterations at t[s]:   2582.43
	FillingsUpdate:  mu: -0.244750000  nElectrons: 151.417837  magneticMoment: [ Abs: 0.00000  Tot: -0.00000 ]
ElecMinimize: Iter:   0  G: -1143.710596288049146  |grad|_K:  2.492e-07  alpha:  1.000e+00
	Linear fluid (dielectric constant: 78.4, screening length: 8.12261 Bohr) occupying 0.471101 of unit cell:	Completed after 14 iterations at t[s]:   2609.09
	Linear fluid (dielectric constant: 78.4, screening length: 8.12261 Bohr) occupying 0.471106 of unit cell:	Completed after 15 iterations at t[s]:   2618.73
	FillingsUpdate:  mu: -0.244750000  nElectrons: 151.416861  magneticMoment: [ Abs: 0.00000  Tot: -0.00000 ]
	SubspaceRotationAdjust: set factor to 0.108
ElecMinimize: Iter:   1  G: -1143.710597193835611  |grad|_K:  1.182e-07  alpha:  1.626e-01  linmin: -2.097e-04  t[s]:   2633.28
	Linear fluid (dielectric constant: 78.4, screening length: 8.12261 Bohr) occupying 0.471107 of unit cell:	Completed after 9 iterations at t[s]:   2643.15
	Linear fluid (dielectric constant: 78.4, screening length: 8.12261 Bohr) occupying 0.471108 of unit cell:	Completed after 9 iterations at t[s]:   2652.09
	FillingsUpdate:  mu: -0.244750000  nElectrons: 151.417327  magneticMoment: [ Abs: 0.00000  Tot: -0.00000 ]
	SubspaceRotationAdjust: set factor to 0.131
ElecMinimize: Iter:   2  G: -1143.710597698894162  |grad|_K:  6.098e-08  alpha:  4.033e-01  linmin:  9.279e-06  t[s]:   2666.74
	Linear fluid (dielectric constant: 78.4, screening length: 8.12261 Bohr) occupying 0.471108 of unit cell:	Completed after 2 iterations at t[s]:   2676.71
	Linear fluid (dielectric constant: 78.4, screening length: 8.12261 Bohr) occupying 0.471108 of unit cell:	Completed after 3 iterations at t[s]:   2684.95
	FillingsUpdate:  mu: -0.244750000  nElectrons: 151.417436  magneticMoment: [ Abs: 0.00000  Tot: -0.00000 ]
	SubspaceRotationAdjust: set factor to 0.161
ElecMinimize: Iter:   3  G: -1143.710597878600083  |grad|_K:  4.831e-08  alpha:  5.448e-01  linmin:  9.574e-06  t[s]:   2698.83
	Linear fluid (dielectric constant: 78.4, screening length: 8.12261 Bohr) occupying 0.471108 of unit cell:	Completed after 7 iterations at t[s]:   2708.99
	Linear fluid (dielectric constant: 78.4, screening length: 8.12261 Bohr) occupying 0.471108 of unit cell:	Completed after 2 iterations at t[s]:   2717.30
	FillingsUpdate:  mu: -0.244750000  nElectrons: 151.417355  magneticMoment: [ Abs: 0.00000  Tot: -0.00000 ]
	SubspaceRotationAdjust: set factor to 0.194
ElecMinimize: Iter:   4  G: -1143.710597979494196  |grad|_K:  4.324e-08  alpha:  4.877e-01  linmin:  1.107e-05  t[s]:   2731.39
	Linear fluid (dielectric constant: 78.4, screening length: 8.12261 Bohr) occupying 0.471107 of unit cell:	Completed after 5 iterations at t[s]:   2741.93
	Linear fluid (dielectric constant: 78.4, screening length: 8.12261 Bohr) occupying 0.471107 of unit cell:	Completed after 2 iterations at t[s]:   2750.31
	FillingsUpdate:  mu: -0.244750000  nElectrons: 151.417433  magneticMoment: [ Abs: 0.00000  Tot: -0.00000 ]
	SubspaceRotationAdjust: set factor to 0.235
ElecMinimize: Iter:   5  G: -1143.710598076599126  |grad|_K:  3.944e-08  alpha:  5.888e-01  linmin: -5.807e-07  t[s]:   2765.10
	Linear fluid (dielectric constant: 78.4, screening length: 8.12261 Bohr) occupying 0.471107 of unit cell:	Completed after 6 iterations at t[s]:   2775.25
	Linear fluid (dielectric constant: 78.4, screening length: 8.12261 Bohr) occupying 0.471107 of unit cell:	Completed after 0 iterations at t[s]:   2783.44
	FillingsUpdate:  mu: -0.244750000  nElectrons: 151.417334  magneticMoment: [ Abs: 0.00000  Tot: -0.00000 ]
	SubspaceRotationAdjust: set factor to 0.26
ElecMinimize: Iter:   6  G: -1143.710598157401137  |grad|_K:  3.817e-08  alpha:  5.838e-01  linmin:  2.971e-06  t[s]:   2797.97
ElecMinimize: Converged (|Delta G|<1.000000e-07 for 2 iters).
Setting wave functions to eigenvectors of Hamiltonian
Converging empty states (this may take a while): |deigs|: 5.903e-08

Computing DFT-D3 correction:
# coordination-number Ag 8.262 8.997 5.441 8.979 8.967 5.442 8.991 8.256
# diagonal-C6 Ag 268.61 268.61 268.61 268.61 268.61 268.61 268.61 268.61
EvdW_6 =   -0.048256
EvdW_8 =   -0.066638
IonicMinimize: 	Wolfe criterion not satisfied: alpha: 1  (E-E0)/|gdotd0|: -0.987054  gdotd/gdotd0: 0.959961 (taking cubic step)

Computing DFT-D3 correction:
# coordination-number Ag 8.273 8.995 5.440 8.984 8.973 5.440 8.988 8.267
# diagonal-C6 Ag 268.61 268.61 268.61 268.61 268.61 268.61 268.61 268.61
EvdW_6 =   -0.048260
EvdW_8 =   -0.066646
Shifting auxilliary hamiltonian by 0.000030 to set nElectrons=151.417334

-------- Electronic minimization -----------
	Linear fluid (dielectric constant: 78.4, screening length: 8.12261 Bohr) occupying 0.471150 of unit cell:	Completed after 12 iterations at t[s]:   2841.32
	FillingsUpdate:  mu: -0.244750000  nElectrons: 151.417334  magneticMoment: [ Abs: 0.00002  Tot: +0.00002 ]
ElecMinimize: Iter:   0  G: -1143.710662113488752  |grad|_K:  3.298e-07  alpha:  1.000e+00
	Linear fluid (dielectric constant: 78.4, screening length: 8.12261 Bohr) occupying 0.471145 of unit cell:	Completed after 14 iterations at t[s]:   2868.37
	Linear fluid (dielectric constant: 78.4, screening length: 8.12261 Bohr) occupying 0.471149 of unit cell:	Completed after 15 iterations at t[s]:   2877.98
	FillingsUpdate:  mu: -0.244750000  nElectrons: 151.416021  magneticMoment: [ Abs: 0.00002  Tot: +0.00002 ]
	SubspaceRotationAdjust: set factor to 0.187
ElecMinimize: Iter:   1  G: -1143.710664088315298  |grad|_K:  2.896e-07  alpha:  2.040e-01  linmin: -1.284e-04  t[s]:   2892.44
	Linear fluid (dielectric constant: 78.4, screening length: 8.12261 Bohr) occupying 0.471151 of unit cell:	Completed after 11 iterations at t[s]:   2903.31
	Linear fluid (dielectric constant: 78.4, screening length: 8.12261 Bohr) occupying 0.471151 of unit cell:	Completed after 7 iterations at t[s]:   2911.97
	FillingsUpdate:  mu: -0.244750000  nElectrons: 151.417106  magneticMoment: [ Abs: 0.00002  Tot: +0.00001 ]
	SubspaceRotationAdjust: set factor to 0.175
ElecMinimize: Iter:   2  G: -1143.710665729578295  |grad|_K:  1.294e-07  alpha:  2.195e-01  linmin: -2.812e-04  t[s]:   2925.48
	Linear fluid (dielectric constant: 78.4, screening length: 8.12261 Bohr) occupying 0.471151 of unit cell:	Completed after 2 iterations at t[s]:   2935.67
	Linear fluid (dielectric constant: 78.4, screening length: 8.12261 Bohr) occupying 0.471151 of unit cell:	Completed after 2 iterations at t[s]:   2944.26
	FillingsUpdate:  mu: -0.244750000  nElectrons: 151.417063  magneticMoment: [ Abs: 0.00001  Tot: +0.00001 ]
	SubspaceRotationAdjust: set factor to 0.232
ElecMinimize: Iter:   3  G: -1143.710666554057070  |grad|_K:  1.063e-07  alpha:  5.513e-01  linmin:  9.246e-06  t[s]:   2958.77
	Linear fluid (dielectric constant: 78.4, screening length: 8.12261 Bohr) occupying 0.471151 of unit cell:	Completed after 11 iterations at t[s]:   2969.46
	Linear fluid (dielectric constant: 78.4, screening length: 8.12261 Bohr) occupying 0.471151 of unit cell:	Completed after 9 iterations at t[s]:   2978.36
	FillingsUpdate:  mu: -0.244750000  nElectrons: 151.416581  magneticMoment: [ Abs: 0.00001  Tot: +0.00001 ]
	SubspaceRotationAdjust: set factor to 0.204
ElecMinimize: Iter:   4  G: -1143.710666970786860  |grad|_K:  1.029e-07  alpha:  4.141e-01  linmin:  1.757e-04  t[s]:   2992.41
	Linear fluid (dielectric constant: 78.4, screening length: 8.12261 Bohr) occupying 0.471153 of unit cell:	Completed after 11 iterations at t[s]:   3003.06
	Linear fluid (dielectric constant: 78.4, screening length: 8.12261 Bohr) occupying 0.471153 of unit cell:	Completed after 10 iterations at t[s]:   3012.34
	FillingsUpdate:  mu: -0.244750000  nElectrons: 151.416972  magneticMoment: [ Abs: 0.00001  Tot: +0.00001 ]
	SubspaceRotationAdjust: set factor to 0.158
ElecMinimize: Iter:   5  G: -1143.710667232395735  |grad|_K:  9.180e-08  alpha:  2.790e-01  linmin:  2.931e-05  t[s]:   3026.23
	Linear fluid (dielectric constant: 78.4, screening length: 8.12261 Bohr) occupying 0.471154 of unit cell:	Completed after 10 iterations at t[s]:   3036.83
	Linear fluid (dielectric constant: 78.4, screening length: 8.12261 Bohr) occupying 0.471155 of unit cell:	Completed after 2 iterations at t[s]:   3045.59
	FillingsUpdate:  mu: -0.244750000  nElectrons: 151.416619  magneticMoment: [ Abs: 0.00000  Tot: +0.00000 ]
	SubspaceRotationAdjust: set factor to 0.182
ElecMinimize: Iter:   6  G: -1143.710667504243702  |grad|_K:  6.374e-08  alpha:  3.622e-01  linmin: -3.769e-04  t[s]:   3059.57
	Linear fluid (dielectric constant: 78.4, screening length: 8.12261 Bohr) occupying 0.471157 of unit cell:	Completed after 8 iterations at t[s]:   3070.03
	Linear fluid (dielectric constant: 78.4, screening length: 8.12261 Bohr) occupying 0.471157 of unit cell:	Completed after 2 iterations at t[s]:   3078.58
	FillingsUpdate:  mu: -0.244750000  nElectrons: 151.416428  magneticMoment: [ Abs: 0.00000  Tot: +0.00000 ]
	SubspaceRotationAdjust: set factor to 0.197
ElecMinimize: Iter:   7  G: -1143.710667666796326  |grad|_K:  5.841e-08  alpha:  4.402e-01  linmin: -1.204e-03  t[s]:   3093.31
	Linear fluid (dielectric constant: 78.4, screening length: 8.12261 Bohr) occupying 0.471161 of unit cell:	Completed after 10 iterations at t[s]:   3104.19
	Linear fluid (dielectric constant: 78.4, screening length: 8.12261 Bohr) occupying 0.471160 of unit cell:	Completed after 9 iterations at t[s]:   3112.81
	FillingsUpdate:  mu: -0.244750000  nElectrons: 151.416646  magneticMoment: [ Abs: 0.00000  Tot: +0.00000 ]
	SubspaceRotationAdjust: set factor to 0.141
ElecMinimize: Iter:   8  G: -1143.710667754516408  |grad|_K:  4.433e-08  alpha:  2.752e-01  linmin:  1.927e-04  t[s]:   3126.95
	Linear fluid (dielectric constant: 78.4, screening length: 8.12261 Bohr) occupying 0.471161 of unit cell:	Completed after 8 iterations at t[s]:   3137.63
	Linear fluid (dielectric constant: 78.4, screening length: 8.12261 Bohr) occupying 0.471161 of unit cell:	Completed after 2 iterations at t[s]:   3146.25
	FillingsUpdate:  mu: -0.244750000  nElectrons: 151.416499  magneticMoment: [ Abs: 0.00000  Tot: +0.00000 ]
	SubspaceRotationAdjust: set factor to 0.138
ElecMinimize: Iter:   9  G: -1143.710667810411678  |grad|_K:  3.056e-08  alpha:  3.224e-01  linmin: -3.592e-04  t[s]:   3160.87
ElecMinimize: Converged (|Delta G|<1.000000e-07 for 2 iters).
Setting wave functions to eigenvectors of Hamiltonian
Converging empty states (this may take a while): |deigs|: 3.941e-08

Computing DFT-D3 correction:
# coordination-number Ag 8.273 8.995 5.440 8.984 8.973 5.440 8.988 8.267
# diagonal-C6 Ag 268.61 268.61 268.61 268.61 268.61 268.61 268.61 268.61
EvdW_6 =   -0.048260
EvdW_8 =   -0.066646

# Ionic positions in cartesian coordinates:
ion Ag  -0.000461776207203   0.000184255552509  50.284917515025235 1
ion Ag   0.000349295985353   0.000314174248256  44.744118170120814 1
ion Ag   2.708857896187011   3.832447446928295  52.927811087152605 1
ion Ag   2.709955476643677   3.832436478378559  47.475994102864213 1
ion Ag   0.000478449461042   0.000055974482827  39.250930713740821 1
ion Ag   0.001016872089675   0.000219283382752  33.797830240719414 1
ion Ag   2.710092723792823   3.832682883467388  41.986945495368175 1
ion Ag   2.710607062047624   3.832995503559411  36.439942675008709 1

# Forces in Cartesian coordinates:
force Ag  -0.000002187179611  -0.000031993497444  -0.002445023164962 1
force Ag  -0.000003821877213  -0.000037479579062  -0.001674190544391 1
force Ag  -0.000000144442416   0.000012637448772  -0.000621280870684 1
force Ag  -0.000000959399211   0.000039994451835   0.002211298996425 1
force Ag  -0.000002272293037  -0.000005039917383  -0.002335168361285 1
force Ag   0.000001215484833   0.000005201983768   0.000367775768961 1
force Ag   0.000003094235322   0.000021882060571   0.001642536335990 1
force Ag   0.000005955317085  -0.000006137190417   0.002568536671495 1

# Energy components:
   A_diel =        0.1118795467095755
   Eewald =     4794.7361475688048813
       EH =     5860.8041299633641756
     Eloc =   -12022.0856886509718606
      Enl =       31.6370883864650843
     EvdW =       -0.1149056863223678
      Exc =     -115.8060879989688914
 Exc_core =        1.6653678103168381
       KE =      268.2433123282136194
  MuShift =        0.0390719139439496
-------------------------------------
     Etot =    -1180.7696848184443752
       TS =        0.0001711132403745
-------------------------------------
        F =    -1180.7698559316847877
      muN =      -37.0591881212730172
-------------------------------------
        G =    -1143.7106678104116781


Dumping 'jdft.fillings' ... done
Dumping 'jdft.wfns' ... done
Dumping 'jdft.fluidState' ... done
Dumping 'jdft.ionpos' ... done
Dumping 'jdft.lattice' ... done
Dumping 'jdft.eigenvals' ... done
Dumping 'jdft.eigStats' ... 
	eMin: -3.625988 at state 0 ( [ +0.000000 +0.000000 +0.000000 ] spin 1 )
	HOMO: -0.246485 at state 83 ( [ +0.333333 +0.500000 +0.000000 ] spin -1 )
	mu  : -0.244750
	LUMO: -0.243356 at state 30 ( [ +0.333333 +0.125000 +0.000000 ] spin 1 )
	eMax: +0.152870 at state 67 ( [ +0.166667 +0.500000 +0.000000 ] spin -1 )
	HOMO-LUMO gap: +0.003130
	Optical gap  : +0.018033 at state 95 ( [ +0.500000 +0.000000 +0.000000 ] spin -1 )
Dumping 'jdft.Ecomponents' ... done
IonicMinimize: Iter:   1  G: -1143.710667810411678  |grad|_K:  1.098e-03  alpha:  3.000e+00  linmin: -9.940e-01  t[s]:   3193.40

#--- Lowdin population analysis ---
# oxidation-state Ag -0.023 +0.001 +0.346 -0.007 -0.007 +0.346 +0.001 -0.023
# magnetic-moments Ag -0.000 +0.000 -0.000 +0.000 +0.000 +0.000 +0.000 +0.000


Computing DFT-D3 correction:
# coordination-number Ag 8.403 9.026 5.440 9.080 9.060 5.427 9.013 8.396
# diagonal-C6 Ag 268.61 268.61 268.61 268.61 268.61 268.61 268.61 268.61
EvdW_6 =   -0.048442
EvdW_8 =   -0.067007
Shifting auxilliary hamiltonian by 0.000012 to set nElectrons=151.416499

-------- Electronic minimization -----------
	Linear fluid (dielectric constant: 78.4, screening length: 8.12261 Bohr) occupying 0.471183 of unit cell:	Completed after 23 iterations at t[s]:   3205.03
	FillingsUpdate:  mu: -0.244750000  nElectrons: 151.416499  magneticMoment: [ Abs: 0.00000  Tot: +0.00000 ]
ElecMinimize: Iter:   0  G: -1142.586546532204693  |grad|_K:  2.137e-04  alpha:  1.000e+00
	Linear fluid (dielectric constant: 78.4, screening length: 8.12261 Bohr) occupying 0.530771 of unit cell:	Completed after 34 iterations at t[s]:   3232.77
	Linear fluid (dielectric constant: 78.4, screening length: 8.12261 Bohr) occupying 0.471469 of unit cell:	Completed after 28 iterations at t[s]:   3242.87
	FillingsUpdate:  mu: -0.244750000  nElectrons: 151.820819  magneticMoment: [ Abs: 0.00000  Tot: +0.00000 ]
	SubspaceRotationAdjust: set factor to 0.0881
ElecMinimize: Iter:   1  G: -1143.521817947213549  |grad|_K:  7.614e-05  alpha:  2.339e-01  linmin:  3.937e-04  t[s]:   3257.30
	Linear fluid (dielectric constant: 78.4, screening length: 8.12261 Bohr) occupying 0.470813 of unit cell:	Completed after 23 iterations at t[s]:   3268.81
	Linear fluid (dielectric constant: 78.4, screening length: 8.12261 Bohr) occupying 0.470705 of unit cell:	Completed after 17 iterations at t[s]:   3278.49
	FillingsUpdate:  mu: -0.244750000  nElectrons: 151.423046  magneticMoment: [ Abs: 0.00000  Tot: +0.00000 ]
	SubspaceRotationAdjust: set factor to 0.0475
ElecMinimize: Iter:   2  G: -1143.657718774605428  |grad|_K:  2.610e-05  alpha:  2.705e-01  linmin:  7.371e-03  t[s]:   3292.95
	Linear fluid (dielectric constant: 78.4, screening length: 8.12261 Bohr) occupying 0.470938 of unit cell:	Completed after 19 iterations at t[s]:   3303.71
	Linear fluid (dielectric constant: 78.4, screening length: 8.12261 Bohr) occupying 0.470972 of unit cell:	Completed after 14 iterations at t[s]:   3312.95
	FillingsUpdate:  mu: -0.244750000  nElectrons: 151.442310  magneticMoment: [ Abs: 0.00000  Tot: +0.00000 ]
	SubspaceRotationAdjust: set factor to 0.0635
ElecMinimize: Iter:   3  G: -1143.675129359766970  |grad|_K:  1.216e-05  alpha:  3.111e-01  linmin: -1.938e-05  t[s]:   3327.43
	Linear fluid (dielectric constant: 78.4, screening length: 8.12261 Bohr) occupying 0.471236 of unit cell:	Completed after 17 iterations at t[s]:   3338.51
	Linear fluid (dielectric constant: 78.4, screening length: 8.12261 Bohr) occupying 0.471282 of unit cell:	Completed after 13 iterations at t[s]:   3347.71
	FillingsUpdate:  mu: -0.244750000  nElectrons: 151.452054  magneticMoment: [ Abs: 0.00000  Tot: +0.00000 ]
	SubspaceRotationAdjust: set factor to 0.0787
ElecMinimize: Iter:   4  G: -1143.679934775591619  |grad|_K:  8.281e-06  alpha:  3.657e-01  linmin:  5.450e-05  t[s]:   3362.33
	Linear fluid (dielectric constant: 78.4, screening length: 8.12261 Bohr) occupying 0.471560 of unit cell:	Completed after 14 iterations at t[s]:   3373.38
	Linear fluid (dielectric constant: 78.4, screening length: 8.12261 Bohr) occupying 0.471782 of unit cell:	Completed after 14 iterations at t[s]:   3382.93
	FillingsUpdate:  mu: -0.244750000  nElectrons: 151.438350  magneticMoment: [ Abs: 0.00000  Tot: +0.00000 ]
	SubspaceRotationAdjust: set factor to 0.104
ElecMinimize: Iter:   5  G: -1143.683972156161872  |grad|_K:  8.341e-06  alpha:  6.617e-01  linmin: -6.517e-05  t[s]:   3397.07
	Linear fluid (dielectric constant: 78.4, screening length: 8.12261 Bohr) occupying 0.472367 of unit cell:	Completed after 17 iterations at t[s]:   3407.75
	Linear fluid (dielectric constant: 78.4, screening length: 8.12261 Bohr) occupying 0.472542 of unit cell:	Completed after 14 iterations at t[s]:   3416.95
	FillingsUpdate:  mu: -0.244750000  nElectrons: 151.415725  magneticMoment: [ Abs: 0.00000  Tot: +0.00000 ]
	SubspaceRotationAdjust: set factor to 0.122
ElecMinimize: Iter:   6  G: -1143.689359121706730  |grad|_K:  1.101e-05  alpha:  8.667e-01  linmin: -1.347e-05  t[s]:   3431.80
	Linear fluid (dielectric constant: 78.4, screening length: 8.12261 Bohr) occupying 0.473650 of unit cell:	Completed after 18 iterations at t[s]:   3442.98
	Linear fluid (dielectric constant: 78.4, screening length: 8.12261 Bohr) occupying 0.473413 of unit cell:	Completed after 14 iterations at t[s]:   3452.10
	FillingsUpdate:  mu: -0.244750000  nElectrons: 151.389436  magneticMoment: [ Abs: 0.00000  Tot: +0.00000 ]
	SubspaceRotationAdjust: set factor to 0.136
ElecMinimize: Iter:   7  G: -1143.696625294548085  |grad|_K:  1.152e-05  alpha:  6.728e-01  linmin: -8.810e-06  t[s]:   3466.66
	Linear fluid (dielectric constant: 78.4, screening length: 8.12261 Bohr) occupying 0.473993 of unit cell:	Completed after 16 iterations at t[s]:   3477.90
	Linear fluid (dielectric constant: 78.4, screening length: 8.12261 Bohr) occupying 0.473910 of unit cell:	Completed after 15 iterations at t[s]:   3487.50
	FillingsUpdate:  mu: -0.244750000  nElectrons: 151.360255  magneticMoment: [ Abs: 0.00000  Tot: +0.00000 ]
	SubspaceRotationAdjust: set factor to 0.147
ElecMinimize: Iter:   8  G: -1143.703424552631304  |grad|_K:  1.037e-05  alpha:  5.706e-01  linmin:  5.184e-05  t[s]:   3500.98
	Linear fluid (dielectric constant: 78.4, screening length: 8.12261 Bohr) occupying 0.474032 of unit cell:	Completed after 17 iterations at t[s]:   3512.01
	Linear fluid (dielectric constant: 78.4, screening length: 8.12261 Bohr) occupying 0.474011 of unit cell:	Completed after 14 iterations at t[s]:   3521.50
	FillingsUpdate:  mu: -0.244750000  nElectrons: 151.391152  magneticMoment: [ Abs: 0.00000  Tot: +0.00000 ]
	SubspaceRotationAdjust: set factor to 0.135
ElecMinimize: Iter:   9  G: -1143.707505627177170  |grad|_K:  7.740e-06  alpha:  4.410e-01  linmin: -1.017e-04  t[s]:   3536.02
	Linear fluid (dielectric constant: 78.4, screening length: 8.12261 Bohr) occupying 0.473768 of unit cell:	Completed after 17 iterations at t[s]:   3547.20
	Linear fluid (dielectric constant: 78.4, screening length: 8.12261 Bohr) occupying 0.473807 of unit cell:	Completed after 12 iterations at t[s]:   3556.24
	FillingsUpdate:  mu: -0.244750000  nElectrons: 151.384847  magneticMoment: [ Abs: 0.00000  Tot: +0.00000 ]
	SubspaceRotationAdjust: set factor to 0.123
ElecMinimize: Iter:  10  G: -1143.709538745590180  |grad|_K:  4.376e-06  alpha:  3.737e-01  linmin:  2.881e-05  t[s]:   3570.93
	Linear fluid (dielectric constant: 78.4, screening length: 8.12261 Bohr) occupying 0.473603 of unit cell:	Completed after 14 iterations at t[s]:   3582.10
	Linear fluid (dielectric constant: 78.4, screening length: 8.12261 Bohr) occupying 0.473589 of unit cell:	Completed after 10 iterations at t[s]:   3590.65
	FillingsUpdate:  mu: -0.244750000  nElectrons: 151.392849  magneticMoment: [ Abs: 0.00000  Tot: +0.00000 ]
	SubspaceRotationAdjust: set factor to 0.128
ElecMinimize: Iter:  11  G: -1143.710218473697296  |grad|_K:  2.765e-06  alpha:  4.001e-01  linmin: -3.553e-05  t[s]:   3604.60
	Linear fluid (dielectric constant: 78.4, screening length: 8.12261 Bohr) occupying 0.473376 of unit cell:	Completed after 14 iterations at t[s]:   3615.68
	Linear fluid (dielectric constant: 78.4, screening length: 8.12261 Bohr) occupying 0.473372 of unit cell:	Completed after 2 iterations at t[s]:   3624.43
	FillingsUpdate:  mu: -0.244750000  nElectrons: 151.397167  magneticMoment: [ Abs: 0.00000  Tot: +0.00000 ]
	SubspaceRotationAdjust: set factor to 0.141
ElecMinimize: Iter:  12  G: -1143.710495458189143  |grad|_K:  1.844e-06  alpha:  4.063e-01  linmin:  2.187e-06  t[s]:   3638.68
	Linear fluid (dielectric constant: 78.4, screening length: 8.12261 Bohr) occupying 0.473187 of unit cell:	Completed after 13 iterations at t[s]:   3649.33
	Linear fluid (dielectric constant: 78.4, screening length: 8.12261 Bohr) occupying 0.473194 of unit cell:	Completed after 3 iterations at t[s]:   3658.22
	FillingsUpdate:  mu: -0.244750000  nElectrons: 151.399210  magneticMoment: [ Abs: 0.00000  Tot: +0.00000 ]
	SubspaceRotationAdjust: set factor to 0.18
ElecMinimize: Iter:  13  G: -1143.710613864901006  |grad|_K:  1.208e-06  alpha:  3.914e-01  linmin:  3.529e-05  t[s]:   3672.95
	Linear fluid (dielectric constant: 78.4, screening length: 8.12261 Bohr) occupying 0.473072 of unit cell:	Completed after 13 iterations at t[s]:   3683.73
	Linear fluid (dielectric constant: 78.4, screening length: 8.12261 Bohr) occupying 0.473030 of unit cell:	Completed after 11 iterations at t[s]:   3692.12
	FillingsUpdate:  mu: -0.244750000  nElectrons: 151.402878  magneticMoment: [ Abs: 0.00000  Tot: +0.00000 ]
	SubspaceRotationAdjust: set factor to 0.238
ElecMinimize: Iter:  14  G: -1143.710681950937669  |grad|_K:  1.097e-06  alpha:  5.247e-01  linmin: -3.027e-05  t[s]:   3706.32
	Linear fluid (dielectric constant: 78.4, screening length: 8.12261 Bohr) occupying 0.472872 of unit cell:	Completed after 13 iterations at t[s]:   3717.45
	Linear fluid (dielectric constant: 78.4, screening length: 8.12261 Bohr) occupying 0.472865 of unit cell:	Completed after 2 iterations at t[s]:   3725.89
	FillingsUpdate:  mu: -0.244750000  nElectrons: 151.405773  magneticMoment: [ Abs: 0.00000  Tot: +0.00000 ]
	SubspaceRotationAdjust: set factor to 0.313
ElecMinimize: Iter:  15  G: -1143.710740526586051  |grad|_K:  1.082e-06  alpha:  5.465e-01  linmin: -7.862e-07  t[s]:   3740.28
	Linear fluid (dielectric constant: 78.4, screening length: 8.12261 Bohr) occupying 0.472722 of unit cell:	Completed after 12 iterations at t[s]:   3751.21
	Linear fluid (dielectric constant: 78.4, screening length: 8.12261 Bohr) occupying 0.472726 of unit cell:	Completed after 2 iterations at t[s]:   3759.79
	FillingsUpdate:  mu: -0.244750000  nElectrons: 151.408893  magneticMoment: [ Abs: 0.00000  Tot: -0.00000 ]
	SubspaceRotationAdjust: set factor to 0.384
ElecMinimize: Iter:  16  G: -1143.710795943054336  |grad|_K:  1.020e-06  alpha:  5.323e-01  linmin: -2.588e-06  t[s]:   3774.15
	Linear fluid (dielectric constant: 78.4, screening length: 8.12261 Bohr) occupying 0.472644 of unit cell:	Completed after 11 iterations at t[s]:   3784.33
	Linear fluid (dielectric constant: 78.4, screening length: 8.12261 Bohr) occupying 0.472655 of unit cell:	Completed after 10 iterations at t[s]:   3793.46
	FillingsUpdate:  mu: -0.244750000  nElectrons: 151.411989  magneticMoment: [ Abs: 0.00000  Tot: -0.00000 ]
	SubspaceRotationAdjust: set factor to 0.424
ElecMinimize: Iter:  17  G: -1143.710838267033296  |grad|_K:  8.673e-07  alpha:  4.575e-01  linmin: -3.490e-06  t[s]:   3808.14
	Linear fluid (dielectric constant: 78.4, screening length: 8.12261 Bohr) occupying 0.472639 of unit cell:	Completed after 12 iterations at t[s]:   3818.85
	Linear fluid (dielectric constant: 78.4, screening length: 8.12261 Bohr) occupying 0.472643 of unit cell:	Completed after 11 iterations at t[s]:   3827.91
	FillingsUpdate:  mu: -0.244750000  nElectrons: 151.410735  magneticMoment: [ Abs: 0.00000  Tot: -0.00000 ]
	SubspaceRotationAdjust: set factor to 0.384
ElecMinimize: Iter:  18  G: -1143.710862384624988  |grad|_K:  7.816e-07  alpha:  3.598e-01  linmin:  3.900e-06  t[s]:   3842.55
	Linear fluid (dielectric constant: 78.4, screening length: 8.12261 Bohr) occupying 0.472674 of unit cell:	Completed after 14 iterations at t[s]:   3853.53
	Linear fluid (dielectric constant: 78.4, screening length: 8.12261 Bohr) occupying 0.472660 of unit cell:	Completed after 13 iterations at t[s]:   3862.84
	FillingsUpdate:  mu: -0.244750000  nElectrons: 151.413207  magneticMoment: [ Abs: 0.00000  Tot: -0.00000 ]
	SubspaceRotationAdjust: set factor to 0.276
ElecMinimize: Iter:  19  G: -1143.710873085644380  |grad|_K:  6.754e-07  alpha:  1.977e-01  linmin:  5.970e-06  t[s]:   3877.03
	Linear fluid (dielectric constant: 78.4, screening length: 8.12261 Bohr) occupying 0.472683 of unit cell:	Completed after 12 iterations at t[s]:   3887.94
	Linear fluid (dielectric constant: 78.4, screening length: 8.12261 Bohr) occupying 0.472691 of unit cell:	Completed after 10 iterations at t[s]:   3897.20
	FillingsUpdate:  mu: -0.244750000  nElectrons: 151.411161  magneticMoment: [ Abs: 0.00000  Tot: -0.00000 ]
	SubspaceRotationAdjust: set factor to 0.286
ElecMinimize: Iter:  20  G: -1143.710883933123341  |grad|_K:  4.182e-07  alpha:  2.679e-01  linmin:  1.474e-05  t[s]:   3911.57
	Linear fluid (dielectric constant: 78.4, screening length: 8.12261 Bohr) occupying 0.472719 of unit cell:	Completed after 9 iterations at t[s]:   3921.84
	Linear fluid (dielectric constant: 78.4, screening length: 8.12261 Bohr) occupying 0.472732 of unit cell:	Completed after 8 iterations at t[s]:   3930.52
	FillingsUpdate:  mu: -0.244750000  nElectrons: 151.410106  magneticMoment: [ Abs: 0.00000  Tot: -0.00000 ]
	SubspaceRotationAdjust: set factor to 0.352
ElecMinimize: Iter:  21  G: -1143.710889910369588  |grad|_K:  3.346e-07  alpha:  3.849e-01  linmin: -3.614e-06  t[s]:   3944.64
	Linear fluid (dielectric constant: 78.4, screening length: 8.12261 Bohr) occupying 0.472777 of unit cell:	Completed after 12 iterations at t[s]:   3955.35
	Linear fluid (dielectric constant: 78.4, screening length: 8.12261 Bohr) occupying 0.472767 of unit cell:	Completed after 10 iterations at t[s]:   3964.60
	FillingsUpdate:  mu: -0.244750000  nElectrons: 151.410520  magneticMoment: [ Abs: 0.00000  Tot: -0.00000 ]
	SubspaceRotationAdjust: set factor to 0.299
ElecMinimize: Iter:  22  G: -1143.710892863819481  |grad|_K:  3.180e-07  alpha:  2.966e-01  linmin: -6.816e-06  t[s]:   3978.95
	Linear fluid (dielectric constant: 78.4, screening length: 8.12261 Bohr) occupying 0.472803 of unit cell:	Completed after 12 iterations at t[s]:   3989.88
	Linear fluid (dielectric constant: 78.4, screening length: 8.12261 Bohr) occupying 0.472797 of unit cell:	Completed after 10 iterations at t[s]:   3999.16
	FillingsUpdate:  mu: -0.244750000  nElectrons: 151.408980  magneticMoment: [ Abs: 0.00001  Tot: -0.00000 ]
	SubspaceRotationAdjust: set factor to 0.33
[...]
	Linear fluid (dielectric constant: 78.4, screening length: 8.12261 Bohr) occupying 0.472470 of unit cell:	Completed after 2 iterations at t[s]:   4991.11
	FillingsUpdate:  mu: -0.244750000  nElectrons: 151.410391  magneticMoment: [ Abs: 0.00001  Tot: +0.00000 ]
	SubspaceRotationAdjust: set factor to 0.169
ElecMinimize: Iter:  16  G: -1143.710989689119970  |grad|_K:  5.815e-08  alpha:  4.304e-01  linmin: -2.154e-05  t[s]:   5005.63
	Linear fluid (dielectric constant: 78.4, screening length: 8.12261 Bohr) occupying 0.472474 of unit cell:	Completed after 9 iterations at t[s]:   5016.47
	Linear fluid (dielectric constant: 78.4, screening length: 8.12261 Bohr) occupying 0.472474 of unit cell:	Completed after 0 iterations at t[s]:   5024.64
	FillingsUpdate:  mu: -0.244750000  nElectrons: 151.410446  magneticMoment: [ Abs: 0.00000  Tot: +0.00000 ]
	SubspaceRotationAdjust: set factor to 0.172
ElecMinimize: Iter:  17  G: -1143.710989809449984  |grad|_K:  4.291e-08  alpha:  3.991e-01  linmin:  6.391e-04  t[s]:   5038.73
	Linear fluid (dielectric constant: 78.4, screening length: 8.12261 Bohr) occupying 0.472475 of unit cell:	Completed after 10 iterations at t[s]:   5048.97
	Linear fluid (dielectric constant: 78.4, screening length: 8.12261 Bohr) occupying 0.472475 of unit cell:	Completed after 0 iterations at t[s]:   5057.39
	FillingsUpdate:  mu: -0.244750000  nElectrons: 151.410308  magneticMoment: [ Abs: 0.00000  Tot: +0.00000 ]
	SubspaceRotationAdjust: set factor to 0.183
ElecMinimize: Iter:  18  G: -1143.710989872326763  |grad|_K:  2.995e-08  alpha:  3.927e-01  linmin: -3.582e-04  t[s]:   5071.62
	Linear fluid (dielectric constant: 78.4, screening length: 8.12261 Bohr) occupying 0.472476 of unit cell:	Completed after 5 iterations at t[s]:   5081.99
	Linear fluid (dielectric constant: 78.4, screening length: 8.12261 Bohr) occupying 0.472476 of unit cell:	Completed after 0 iterations at t[s]:   5090.51
	FillingsUpdate:  mu: -0.244750000  nElectrons: 151.410348  magneticMoment: [ Abs: 0.00001  Tot: +0.00000 ]
	SubspaceRotationAdjust: set factor to 0.22
ElecMinimize: Iter:  19  G: -1143.710989908462807  |grad|_K:  2.343e-08  alpha:  4.438e-01  linmin: -2.584e-04  t[s]:   5105.40
ElecMinimize: Converged (|Delta G|<1.000000e-07 for 2 iters).
Setting wave functions to eigenvectors of Hamiltonian
Converging empty states (this may take a while): |deigs|: 1.279e-06

Computing DFT-D3 correction:
# coordination-number Ag 8.370 9.046 5.428 9.072 9.057 5.413 9.039 8.358
# diagonal-C6 Ag 268.61 268.61 268.61 268.61 268.61 268.61 268.61 268.61
EvdW_6 =   -0.048433
EvdW_8 =   -0.066963

# Ionic positions in cartesian coordinates:
ion Ag  -0.000573901705992  -0.000352447250843  50.211538591385299 1
ion Ag   0.000282113969270  -0.000383646426582  44.703845521844265 1
ion Ag   2.708821889155161   3.832614785427573  52.896774265680726 1
ion Ag   2.709869510288620   3.833124517034508  47.501203748711418 1
ion Ag   0.000475064965288  -0.000098539105603  39.226134400641733 1
ion Ag   0.001080760745128   0.000315585570693  33.822827211728715 1
ion Ag   2.710229153200677   3.833127229196814  42.029115825467336 1
ion Ag   2.710711409381849   3.832988515553438  36.517050434540479 1

# Forces in Cartesian coordinates:
force Ag  -0.000005227150007   0.000029347539463   0.000000917947391 1
force Ag   0.000000839179795   0.000039912802716   0.000297264968523 1
force Ag  -0.000004044732991  -0.000010968188031  -0.000421414521781 1
force Ag  -0.000003509829891  -0.000037121209890  -0.000805323734442 1
force Ag   0.000002049461002   0.000017378403700   0.000682251927689 1
force Ag   0.000000381850895   0.000003150430754   0.000423155703396 1
force Ag   0.000001293670404  -0.000032800425653  -0.000213069173660 1
force Ag  -0.000004958142829  -0.000004984505920  -0.000122626831608 1

# Energy components:
   A_diel =        0.1124620446945405
   Eewald =     4829.4464652524420671
       EH =     5895.2767205164345796
     Eloc =   -12091.2760305744923244
      Enl =       31.6366174223086638
     EvdW =       -0.1153968526533923
      Exc =     -115.8124480317228517
 Exc_core =        1.6653678122868949
       KE =      268.2582189173363076
  MuShift =        0.0394838128467560
-------------------------------------
     Etot =    -1180.7685396805179607
       TS =        0.0001328162090641
-------------------------------------
        F =    -1180.7686724967270493
      muN =      -37.0576825882643277
-------------------------------------
        G =    -1143.7109899084628069


Dumping 'jdft.fillings' ... done
Dumping 'jdft.wfns' ... done
Dumping 'jdft.fluidState' ... done
Dumping 'jdft.ionpos' ... done
Dumping 'jdft.lattice' ... done
Dumping 'jdft.eigenvals' ... done
Dumping 'jdft.eigStats' ... 
	eMin: -3.626708 at state 0 ( [ +0.000000 +0.000000 +0.000000 ] spin 1 )
	HOMO: -0.247038 at state 33 ( [ +0.333333 +0.500000 +0.000000 ] spin 1 )
	mu  : -0.244750
	LUMO: -0.242376 at state 80 ( [ +0.333333 +0.125000 +0.000000 ] spin -1 )
	eMax: +0.152983 at state 17 ( [ +0.166667 +0.500000 +0.000000 ] spin 1 )
	HOMO-LUMO gap: +0.004663
	Optical gap  : +0.018094 at state 95 ( [ +0.500000 +0.000000 +0.000000 ] spin -1 )
Dumping 'jdft.Ecomponents' ... done
IonicMinimize: Iter:   3  G: -1143.710989908462807  |grad|_K:  2.599e-04  alpha:  1.000e+00  linmin: -6.509e-01  t[s]:   5139.76

#--- Lowdin population analysis ---
# oxidation-state Ag -0.024 +0.002 +0.351 -0.008 -0.008 +0.351 +0.002 -0.024
# magnetic-moments Ag -0.000 -0.000 -0.000 +0.000 +0.000 +0.000 -0.000 +0.000


Computing DFT-D3 correction:
# coordination-number Ag 8.366 9.059 5.432 9.079 9.059 5.421 9.048 8.354
# diagonal-C6 Ag 268.61 268.61 268.61 268.61 268.61 268.61 268.61 268.61
EvdW_6 =   -0.048451
EvdW_8 =   -0.066980
Shifting auxilliary hamiltonian by -0.000008 to set nElectrons=151.410348

-------- Electronic minimization -----------
	Linear fluid (dielectric constant: 78.4, screening length: 8.12261 Bohr) occupying 0.472636 of unit cell:	Completed after 15 iterations at t[s]:   5151.19
	FillingsUpdate:  mu: -0.244750000  nElectrons: 151.410348  magneticMoment: [ Abs: 0.00099  Tot: -0.00001 ]
ElecMinimize: Iter:   0  G: -1143.710973554967268  |grad|_K:  7.444e-07  alpha:  1.000e+00
	Linear fluid (dielectric constant: 78.4, screening length: 8.12261 Bohr) occupying 0.472621 of unit cell:	Completed after 14 iterations at t[s]:   5176.91
	Linear fluid (dielectric constant: 78.4, screening length: 8.12261 Bohr) occupying 0.472632 of unit cell:	Completed after 14 iterations at t[s]:   5186.06
	FillingsUpdate:  mu: -0.244750000  nElectrons: 151.409268  magneticMoment: [ Abs: 0.00059  Tot: -0.00001 ]
	SubspaceRotationAdjust: set factor to 0.189
ElecMinimize: Iter:   1  G: -1143.710988033732747  |grad|_K:  4.330e-07  alpha:  2.929e-01  linmin: -3.126e-04  t[s]:   5201.01
	Linear fluid (dielectric constant: 78.4, screening length: 8.12261 Bohr) occupying 0.472633 of unit cell:	Completed after 13 iterations at t[s]:   5211.73
	Linear fluid (dielectric constant: 78.4, screening length: 8.12261 Bohr) occupying 0.472633 of unit cell:	Completed after 10 iterations at t[s]:   5220.81
	FillingsUpdate:  mu: -0.244750000  nElectrons: 151.411321  magneticMoment: [ Abs: 0.00032  Tot: -0.00001 ]
	SubspaceRotationAdjust: set factor to 0.119
ElecMinimize: Iter:   2  G: -1143.710992116827811  |grad|_K:  2.202e-07  alpha:  2.447e-01  linmin: -9.375e-05  t[s]:   5235.36
	Linear fluid (dielectric constant: 78.4, screening length: 8.12261 Bohr) occupying 0.472629 of unit cell:	Completed after 9 iterations at t[s]:   5245.32
	Linear fluid (dielectric constant: 78.4, screening length: 8.12261 Bohr) occupying 0.472626 of unit cell:	Completed after 10 iterations at t[s]:   5254.22
	FillingsUpdate:  mu: -0.244750000  nElectrons: 151.411035  magneticMoment: [ Abs: 0.00015  Tot: -0.00001 ]
	SubspaceRotationAdjust: set factor to 0.154
ElecMinimize: Iter:   3  G: -1143.710993829035942  |grad|_K:  1.520e-07  alpha:  3.965e-01  linmin:  3.944e-05  t[s]:   5269.01
	Linear fluid (dielectric constant: 78.4, screening length: 8.12261 Bohr) occupying 0.472621 of unit cell:	Completed after 9 iterations at t[s]:   5279.47
	Linear fluid (dielectric constant: 78.4, screening length: 8.12261 Bohr) occupying 0.472620 of unit cell:	Completed after 2 iterations at t[s]:   5287.91
	FillingsUpdate:  mu: -0.244750000  nElectrons: 151.410893  magneticMoment: [ Abs: 0.00009  Tot: -0.00001 ]
	SubspaceRotationAdjust: set factor to 0.189
ElecMinimize: Iter:   4  G: -1143.710994822653220  |grad|_K:  1.235e-07  alpha:  4.837e-01  linmin: -4.990e-05  t[s]:   5302.00
	Linear fluid (dielectric constant: 78.4, screening length: 8.12261 Bohr) occupying 0.472616 of unit cell:	Completed after 10 iterations at t[s]:   5312.93
	Linear fluid (dielectric constant: 78.4, screening length: 8.12261 Bohr) occupying 0.472616 of unit cell:	Completed after 7 iterations at t[s]:   5322.00
	FillingsUpdate:  mu: -0.244750000  nElectrons: 151.411259  magneticMoment: [ Abs: 0.00007  Tot: -0.00001 ]
	SubspaceRotationAdjust: set factor to 0.207
ElecMinimize: Iter:   5  G: -1143.710995588531432  |grad|_K:  1.170e-07  alpha:  5.648e-01  linmin:  1.544e-04  t[s]:   5336.87
	Linear fluid (dielectric constant: 78.4, screening length: 8.12261 Bohr) occupying 0.472611 of unit cell:	Completed after 10 iterations at t[s]:   5347.29
	Linear fluid (dielectric constant: 78.4, screening length: 8.12261 Bohr) occupying 0.472612 of unit cell:	Completed after 8 iterations at t[s]:   5356.47
	FillingsUpdate:  mu: -0.244750000  nElectrons: 151.410908  magneticMoment: [ Abs: 0.00008  Tot: -0.00000 ]
	SubspaceRotationAdjust: set factor to 0.198
ElecMinimize: Iter:   6  G: -1143.710996158116359  |grad|_K:  1.090e-07  alpha:  4.714e-01  linmin:  2.352e-05  t[s]:   5371.07
	Linear fluid (dielectric constant: 78.4, screening length: 8.12261 Bohr) occupying 0.472612 of unit cell:	Completed after 10 iterations at t[s]:   5381.27
	Linear fluid (dielectric constant: 78.4, screening length: 8.12261 Bohr) occupying 0.472612 of unit cell:	Completed after 0 iterations at t[s]:   5389.28
	FillingsUpdate:  mu: -0.244750000  nElectrons: 151.411362  magneticMoment: [ Abs: 0.00008  Tot: +0.00000 ]
	SubspaceRotationAdjust: set factor to 0.177
ElecMinimize: Iter:   7  G: -1143.710996664511640  |grad|_K:  8.857e-08  alpha:  4.797e-01  linmin: -6.092e-05  t[s]:   5403.43
	Linear fluid (dielectric constant: 78.4, screening length: 8.12261 Bohr) occupying 0.472611 of unit cell:	Completed after 10 iterations at t[s]:   5414.23
	Linear fluid (dielectric constant: 78.4, screening length: 8.12261 Bohr) occupying 0.472611 of unit cell:	Completed after 2 iterations at t[s]:   5422.93
	FillingsUpdate:  mu: -0.244750000  nElectrons: 151.411222  magneticMoment: [ Abs: 0.00005  Tot: +0.00000 ]
	SubspaceRotationAdjust: set factor to 0.165
ElecMinimize: Iter:   8  G: -1143.710996952291680  |grad|_K:  6.281e-08  alpha:  4.097e-01  linmin:  1.129e-04  t[s]:   5437.66
	Linear fluid (dielectric constant: 78.4, screening length: 8.12261 Bohr) occupying 0.472611 of unit cell:	Completed after 8 iterations at t[s]:   5447.74
	Linear fluid (dielectric constant: 78.4, screening length: 8.12261 Bohr) occupying 0.472611 of unit cell:	Completed after 0 iterations at t[s]:   5456.03
	FillingsUpdate:  mu: -0.244750000  nElectrons: 151.411310  magneticMoment: [ Abs: 0.00002  Tot: +0.00000 ]
	SubspaceRotationAdjust: set factor to 0.157
ElecMinimize: Iter:   9  G: -1143.710997100058876  |grad|_K:  3.962e-08  alpha:  4.244e-01  linmin: -2.042e-04  t[s]:   5470.68
	Linear fluid (dielectric constant: 78.4, screening length: 8.12261 Bohr) occupying 0.472610 of unit cell:	Completed after 7 iterations at t[s]:   5481.22
	Linear fluid (dielectric constant: 78.4, screening length: 8.12261 Bohr) occupying 0.472610 of unit cell:	Completed after 0 iterations at t[s]:   5489.62
	FillingsUpdate:  mu: -0.244750000  nElectrons: 151.411256  magneticMoment: [ Abs: 0.00002  Tot: +0.00000 ]
	SubspaceRotationAdjust: set factor to 0.145
ElecMinimize: Iter:  10  G: -1143.710997158666714  |grad|_K:  2.486e-08  alpha:  4.156e-01  linmin:  1.767e-04  t[s]:   5504.16
	Linear fluid (dielectric constant: 78.4, screening length: 8.12261 Bohr) occupying 0.472609 of unit cell:	Completed after 2 iterations at t[s]:   5514.17
	Linear fluid (dielectric constant: 78.4, screening length: 8.12261 Bohr) occupying 0.472609 of unit cell:	Completed after 0 iterations at t[s]:   5522.30
	FillingsUpdate:  mu: -0.244750000  nElectrons: 151.411302  magneticMoment: [ Abs: 0.00001  Tot: +0.00000 ]
	SubspaceRotationAdjust: set factor to 0.15
ElecMinimize: Iter:  11  G: -1143.710997179861579  |grad|_K:  1.429e-08  alpha:  3.875e-01  linmin: -1.584e-04  t[s]:   5536.45
ElecMinimize: Converged (|Delta G|<1.000000e-07 for 2 iters).
Setting wave functions to eigenvectors of Hamiltonian
Converging empty states (this may take a while): |deigs|: 6.677e-08

Computing DFT-D3 correction:
# coordination-number Ag 8.366 9.059 5.432 9.079 9.059 5.421 9.048 8.354
# diagonal-C6 Ag 268.61 268.61 268.61 268.61 268.61 268.61 268.61 268.61
EvdW_6 =   -0.048451
EvdW_8 =   -0.066980

# Ionic positions in cartesian coordinates:
ion Ag  -0.000647887508899   0.000133968093692  50.213641636047491 1
ion Ag   0.000333530647213   0.000280172990670  44.710852103057420 1
ion Ag   2.708772846457831   3.832435082929088  52.892373723179048 1
ion Ag   2.709835030182294   3.832502341788853  47.490757600689648 1
ion Ag   0.000547909713664   0.000226504558049  39.235233381861057 1
ion Ag   0.001120984849383   0.000389051771717  33.828111463293979 1
ion Ag   2.710291634699187   3.832520744027249  42.024091670001347 1
ion Ag   2.710641950959327   3.832848133840681  36.513428421870003 1

# Forces in Cartesian coordinates:
force Ag  -0.000004966088439  -0.000022735401783  -0.000332654167522 1
force Ag  -0.000000752079785  -0.000033939298975  -0.000294906662857 1
force Ag  -0.000003934295510   0.000007361884011  -0.000521137712422 1
force Ag  -0.000001973489646   0.000029463970244  -0.000026822744974 1
force Ag  -0.000000153326230  -0.000020607985508   0.000033038478313 1
force Ag  -0.000001056168752  -0.000002791065795   0.000461362680611 1
force Ag   0.000000900303327   0.000032045547150   0.000264682824997 1
force Ag  -0.000000617340130   0.000014279700250   0.000307769406258 1

# Energy components:
   A_diel =        0.1123538049907028
   Eewald =     4832.1404001123228227
       EH =     5897.9464932048585979
     Eloc =   -12096.6396918272985204
      Enl =       31.6357259219442355
     EvdW =       -0.1154302779653255
      Exc =     -115.8130561725552781
 Exc_core =        1.6653678660863727
       KE =      268.2596389635478999
  MuShift =        0.0394199327963714
-------------------------------------
     Etot =    -1180.7687784712732082
       TS =        0.0001347850310131
-------------------------------------
        F =    -1180.7689132563041312
      muN =      -37.0579160764426021
-------------------------------------
        G =    -1143.7109971798615788


Dumping 'jdft.fillings' ... done
Dumping 'jdft.wfns' ... done
Dumping 'jdft.fluidState' ... done
Dumping 'jdft.ionpos' ... done
Dumping 'jdft.lattice' ... done
Dumping 'jdft.eigenvals' ... done
Dumping 'jdft.eigStats' ... 
	eMin: -3.626748 at state 0 ( [ +0.000000 +0.000000 +0.000000 ] spin 1 )
	HOMO: -0.246999 at state 83 ( [ +0.333333 +0.500000 +0.000000 ] spin -1 )
	mu  : -0.244750
	LUMO: -0.242476 at state 30 ( [ +0.333333 +0.125000 +0.000000 ] spin 1 )
	eMax: +0.153001 at state 17 ( [ +0.166667 +0.500000 +0.000000 ] spin 1 )
	HOMO-LUMO gap: +0.004523
	Optical gap  : +0.018153 at state 45 ( [ +0.500000 +0.000000 +0.000000 ] spin 1 )
Dumping 'jdft.Ecomponents' ... done
IonicMinimize: Iter:   4  G: -1143.710997179861579  |grad|_K:  1.884e-04  alpha:  1.000e+00  linmin: -1.228e-03  t[s]:   5568.92
IonicMinimize: Converged (|Delta G|<1.000000e-04 for 2 iters).

#--- Lowdin population analysis ---
# oxidation-state Ag -0.024 +0.002 +0.350 -0.008 -0.008 +0.351 +0.002 -0.024
# magnetic-moments Ag +0.000 -0.000 +0.000 +0.000 +0.000 +0.000 -0.000 +0.000


Dumping 'jdft.n_up' ... done
Dumping 'jdft.n_dn' ... done
Dumping 'jdft.tau_up' ... done
Dumping 'jdft.tau_dn' ... done
Dumping 'jdft.eigenvals' ... done
Dumping 'jdft.eigStats' ... 
	eMin: -3.626748 at state 0 ( [ +0.000000 +0.000000 +0.000000 ] spin 1 )
	HOMO: -0.246999 at state 83 ( [ +0.333333 +0.500000 +0.000000 ] spin -1 )
	mu  : -0.244750
	LUMO: -0.242476 at state 30 ( [ +0.333333 +0.125000 +0.000000 ] spin 1 )
	eMax: +0.153001 at state 17 ( [ +0.166667 +0.500000 +0.000000 ] spin 1 )
	HOMO-LUMO gap: +0.004523
	Optical gap  : +0.018153 at state 45 ( [ +0.500000 +0.000000 +0.000000 ] spin 1 )
Dumping 'jdft.kPts' ... done
Dumping 'jdft.kMap' ... done
Dumping 'jdft.dosUp' ... done.
Dumping 'jdft.dosDn' ... done.
End date and time: Thu Sep  8 23:04:04 2022  (Duration: 0-1:33:10.95)
Done!

PROFILER:             augmentDensityGrid     1.030598 +/-     0.094673 s,  316 calls,    325.668877 s total
PROFILER:         augmentDensityGridGrad     0.089224 +/-     0.022064 s,  166 calls,     14.811244 s total
PROFILER:        augmentDensitySpherical     0.000806 +/-     0.000067 s, 1580 calls,      1.273278 s total
PROFILER:    augmentDensitySphericalGrad     0.000869 +/-     0.000099 s,  959 calls,      0.833625 s total
PROFILER:                 augmentOverlap     0.205063 +/-     0.020662 s, 3058 calls,    627.081381 s total
PROFILER:        ColumnBundle::randomize     0.000707 +/-     0.000042 s,    5 calls,      0.003534 s total
PROFILER:                     diagouterI     0.903167 +/-     0.056806 s, 1595 calls,   1440.551015 s total
PROFILER:              EdensityAndVscloc     0.910170 +/-     0.590123 s,  317 calls,    288.523845 s total
PROFILER:                     EnlAndGrad     0.001459 +/-     0.000215 s, 1569 calls,      2.289691 s total
PROFILER:            ExCorrCommunication     0.010400 +/-     0.024041 s, 1970 calls,     20.488502 s total
PROFILER:               ExCorrFunctional     0.003324 +/-     0.000492 s,  336 calls,      1.117014 s total
PROFILER:                    ExCorrTotal     0.087001 +/-     0.051628 s,  336 calls,     29.232328 s total
PROFILER:                   Idag_DiagV_I     1.699678 +/-     0.374769 s,  929 calls,   1579.000934 s total
PROFILER:                    initWeights     2.048574 +/-     0.000000 s,    1 calls,      2.048574 s total
PROFILER:                    inv(matrix)     0.000791 +/-     0.000061 s, 1385 calls,      1.095102 s total
PROFILER:            matrix::diagonalize     0.003712 +/-     0.001551 s, 2499 calls,      9.275329 s total
PROFILER:                    matrix::set     0.000003 +/-     0.000003 s, 21000 calls,      0.054136 s total
PROFILER:            orthoMatrix(matrix)     0.000497 +/-     0.000349 s, 1499 calls,      0.745256 s total
PROFILER:     RadialFunctionR::transform     0.026988 +/-     0.110085 s,   58 calls,      1.565310 s total
PROFILER:                    reduceKmesh     0.000039 +/-     0.000000 s,    1 calls,      0.000039 s total
PROFILER:   VanDerWaalsD3::energyAndGrad     0.005378 +/-     0.000305 s,   13 calls,      0.069919 s total
PROFILER:               WavefunctionDrag     4.154406 +/-     0.798378 s,    6 calls,     24.926438 s total
PROFILER:                            Y*M     0.060074 +/-     0.017129 s, 10231 calls,    614.616269 s total
PROFILER:                          Y1^Y2     0.066919 +/-     0.018875 s, 6559 calls,    438.924550 s total

MEMUSAGE:                   ColumnBundle     0.299078 GB
MEMUSAGE:        complexScalarFieldTilde     0.007690 GB
MEMUSAGE:                    IndexArrays     0.014337 GB
MEMUSAGE:                         matrix     0.012086 GB
MEMUSAGE:                           misc     0.005172 GB
MEMUSAGE:                    ScalarField     0.037170 GB
MEMUSAGE:               ScalarFieldTilde     0.027157 GB
MEMUSAGE:                          Total     0.347826 GB
