
*************** JDFTx 1.6.0  ***************

Start date and time: Sun Feb 20 02:41:16 2022
Executable /projects/musgravc/apps/jdftx-1.6.1/build/jdftx with command-line: -i in
Running on hosts (process indices):  shas0103.rc.int.colorado.edu (0-23)
Divided in process groups (process indices):  0 (0)  1 (1)  2 (2)  3 (3)  4 (4)  5 (5)  6 (6)  7 (7)  8 (8)  9 (9)  10 (10)  11 (11)  12 (12)  13 (13)  14 (14)  15 (15)  16 (16)  17 (17)  18 (18)  19 (19)  20 (20)  21 (21)  22 (22)  23 (23)
Resource initialization completed at t[s]:      0.00
Run totals: 24 processes, 24 threads, 0 GPUs


Input parsed successfully to the following command list (including defaults):

basis kpoint-dependent
converge-empty-states yes
coords-type Cartesian
core-overlap-check none
coulomb-interaction Periodic
davidson-band-ratio 1.1
density-of-states Etol 1.000000e-06 Esigma 1.000000e-03 \
		Complete \
	Total \
	OrthoOrbital Cu 1   s \
	OrthoOrbital Cu 1   p \
	OrthoOrbital Cu 1   px \
	OrthoOrbital Cu 1   py \
	OrthoOrbital Cu 1   pz \
	OrthoOrbital Cu 1   d \
	OrthoOrbital Cu 1   dxy \
	OrthoOrbital Cu 1   dyz \
	OrthoOrbital Cu 1   dz2 \
	OrthoOrbital Cu 1   dxz \
	OrthoOrbital Cu 1   dx2-y2 \
	OrthoOrbital Cu 2   s \
	OrthoOrbital Cu 2   p \
	OrthoOrbital Cu 2   px \
	OrthoOrbital Cu 2   py \
	OrthoOrbital Cu 2   pz \
	OrthoOrbital Cu 2   d \
	OrthoOrbital Cu 2   dxy \
	OrthoOrbital Cu 2   dyz \
	OrthoOrbital Cu 2   dz2 \
	OrthoOrbital Cu 2   dxz \
	OrthoOrbital Cu 2   dx2-y2 \
	OrthoOrbital Cu 3   s \
	OrthoOrbital Cu 3   p \
	OrthoOrbital Cu 3   px \
	OrthoOrbital Cu 3   py \
	OrthoOrbital Cu 3   pz \
	OrthoOrbital Cu 3   d \
	OrthoOrbital Cu 3   dxy \
	OrthoOrbital Cu 3   dyz \
	OrthoOrbital Cu 3   dz2 \
	OrthoOrbital Cu 3   dxz \
	OrthoOrbital Cu 3   dx2-y2 \
	OrthoOrbital Cu 4   s \
	OrthoOrbital Cu 4   p \
	OrthoOrbital Cu 4   px \
	OrthoOrbital Cu 4   py \
	OrthoOrbital Cu 4   pz \
	OrthoOrbital Cu 4   d \
	OrthoOrbital Cu 4   dxy \
	OrthoOrbital Cu 4   dyz \
	OrthoOrbital Cu 4   dz2 \
	OrthoOrbital Cu 4   dxz \
	OrthoOrbital Cu 4   dx2-y2 \
	OrthoOrbital Cu 5   s \
	OrthoOrbital Cu 5   p \
	OrthoOrbital Cu 5   px \
	OrthoOrbital Cu 5   py \
	OrthoOrbital Cu 5   pz \
	OrthoOrbital Cu 5   d \
	OrthoOrbital Cu 5   dxy \
	OrthoOrbital Cu 5   dyz \
	OrthoOrbital Cu 5   dz2 \
	OrthoOrbital Cu 5   dxz \
	OrthoOrbital Cu 5   dx2-y2 \
	OrthoOrbital Cu 6   s \
	OrthoOrbital Cu 6   p \
	OrthoOrbital Cu 6   px \
	OrthoOrbital Cu 6   py \
	OrthoOrbital Cu 6   pz \
	OrthoOrbital Cu 6   d \
	OrthoOrbital Cu 6   dxy \
	OrthoOrbital Cu 6   dyz \
	OrthoOrbital Cu 6   dz2 \
	OrthoOrbital Cu 6   dxz \
	OrthoOrbital Cu 6   dx2-y2 \
	OrthoOrbital Cu 7   s \
	OrthoOrbital Cu 7   p \
	OrthoOrbital Cu 7   px \
	OrthoOrbital Cu 7   py \
	OrthoOrbital Cu 7   pz \
	OrthoOrbital Cu 7   d \
	OrthoOrbital Cu 7   dxy \
	OrthoOrbital Cu 7   dyz \
	OrthoOrbital Cu 7   dz2 \
	OrthoOrbital Cu 7   dxz \
	OrthoOrbital Cu 7   dx2-y2 \
	OrthoOrbital Cu 8   s \
	OrthoOrbital Cu 8   p \
	OrthoOrbital Cu 8   px \
	OrthoOrbital Cu 8   py \
	OrthoOrbital Cu 8   pz \
	OrthoOrbital Cu 8   d \
	OrthoOrbital Cu 8   dxy \
	OrthoOrbital Cu 8   dyz \
	OrthoOrbital Cu 8   dz2 \
	OrthoOrbital Cu 8   dxz \
	OrthoOrbital Cu 8   dx2-y2 \
	OrthoOrbital Cu 9   s \
	OrthoOrbital Cu 9   p \
	OrthoOrbital Cu 9   px \
	OrthoOrbital Cu 9   py \
	OrthoOrbital Cu 9   pz \
	OrthoOrbital Cu 9   d \
	OrthoOrbital Cu 9   dxy \
	OrthoOrbital Cu 9   dyz \
	OrthoOrbital Cu 9   dz2 \
	OrthoOrbital Cu 9   dxz \
	OrthoOrbital Cu 9   dx2-y2 \
	OrthoOrbital Cu 10   s \
	OrthoOrbital Cu 10   p \
	OrthoOrbital Cu 10   px \
	OrthoOrbital Cu 10   py \
	OrthoOrbital Cu 10   pz \
	OrthoOrbital Cu 10   d \
	OrthoOrbital Cu 10   dxy \
	OrthoOrbital Cu 10   dyz \
	OrthoOrbital Cu 10   dz2 \
	OrthoOrbital Cu 10   dxz \
	OrthoOrbital Cu 10   dx2-y2 \
	OrthoOrbital Cu 11   s \
	OrthoOrbital Cu 11   p \
	OrthoOrbital Cu 11   px \
	OrthoOrbital Cu 11   py \
	OrthoOrbital Cu 11   pz \
	OrthoOrbital Cu 11   d \
	OrthoOrbital Cu 11   dxy \
	OrthoOrbital Cu 11   dyz \
	OrthoOrbital Cu 11   dz2 \
	OrthoOrbital Cu 11   dxz \
	OrthoOrbital Cu 11   dx2-y2 \
	OrthoOrbital Cu 12   s \
	OrthoOrbital Cu 12   p \
	OrthoOrbital Cu 12   px \
	OrthoOrbital Cu 12   py \
	OrthoOrbital Cu 12   pz \
	OrthoOrbital Cu 12   d \
	OrthoOrbital Cu 12   dxy \
	OrthoOrbital Cu 12   dyz \
	OrthoOrbital Cu 12   dz2 \
	OrthoOrbital Cu 12   dxz \
	OrthoOrbital Cu 12   dx2-y2 \
	OrthoOrbital Cu 13   s \
	OrthoOrbital Cu 13   p \
	OrthoOrbital Cu 13   px \
	OrthoOrbital Cu 13   py \
	OrthoOrbital Cu 13   pz \
	OrthoOrbital Cu 13   d \
	OrthoOrbital Cu 13   dxy \
	OrthoOrbital Cu 13   dyz \
	OrthoOrbital Cu 13   dz2 \
	OrthoOrbital Cu 13   dxz \
	OrthoOrbital Cu 13   dx2-y2 \
	OrthoOrbital Cu 14   s \
	OrthoOrbital Cu 14   p \
	OrthoOrbital Cu 14   px \
	OrthoOrbital Cu 14   py \
	OrthoOrbital Cu 14   pz \
	OrthoOrbital Cu 14   d \
	OrthoOrbital Cu 14   dxy \
	OrthoOrbital Cu 14   dyz \
	OrthoOrbital Cu 14   dz2 \
	OrthoOrbital Cu 14   dxz \
	OrthoOrbital Cu 14   dx2-y2 \
	OrthoOrbital Cu 15   s \
	OrthoOrbital Cu 15   p \
	OrthoOrbital Cu 15   px \
	OrthoOrbital Cu 15   py \
	OrthoOrbital Cu 15   pz \
	OrthoOrbital Cu 15   d \
	OrthoOrbital Cu 15   dxy \
	OrthoOrbital Cu 15   dyz \
	OrthoOrbital Cu 15   dz2 \
	OrthoOrbital Cu 15   dxz \
	OrthoOrbital Cu 15   dx2-y2 \
	OrthoOrbital Cu 16   s \
	OrthoOrbital Cu 16   p \
	OrthoOrbital Cu 16   px \
	OrthoOrbital Cu 16   py \
	OrthoOrbital Cu 16   pz \
	OrthoOrbital Cu 16   d \
	OrthoOrbital Cu 16   dxy \
	OrthoOrbital Cu 16   dyz \
	OrthoOrbital Cu 16   dz2 \
	OrthoOrbital Cu 16   dxz \
	OrthoOrbital Cu 16   dx2-y2 \
	OrthoOrbital Cu 17   s \
	OrthoOrbital Cu 17   p \
	OrthoOrbital Cu 17   px \
	OrthoOrbital Cu 17   py \
	OrthoOrbital Cu 17   pz \
	OrthoOrbital Cu 17   d \
	OrthoOrbital Cu 17   dxy \
	OrthoOrbital Cu 17   dyz \
	OrthoOrbital Cu 17   dz2 \
	OrthoOrbital Cu 17   dxz \
	OrthoOrbital Cu 17   dx2-y2 \
	OrthoOrbital Cu 18   s \
	OrthoOrbital Cu 18   p \
	OrthoOrbital Cu 18   px \
	OrthoOrbital Cu 18   py \
	OrthoOrbital Cu 18   pz \
	OrthoOrbital Cu 18   d \
	OrthoOrbital Cu 18   dxy \
	OrthoOrbital Cu 18   dyz \
	OrthoOrbital Cu 18   dz2 \
	OrthoOrbital Cu 18   dxz \
	OrthoOrbital Cu 18   dx2-y2 \
	OrthoOrbital Cu 19   s \
	OrthoOrbital Cu 19   p \
	OrthoOrbital Cu 19   px \
	OrthoOrbital Cu 19   py \
	OrthoOrbital Cu 19   pz \
	OrthoOrbital Cu 19   d \
	OrthoOrbital Cu 19   dxy \
	OrthoOrbital Cu 19   dyz \
	OrthoOrbital Cu 19   dz2 \
	OrthoOrbital Cu 19   dxz \
	OrthoOrbital Cu 19   dx2-y2 \
	OrthoOrbital Cu 20   s \
	OrthoOrbital Cu 20   p \
	OrthoOrbital Cu 20   px \
	OrthoOrbital Cu 20   py \
	OrthoOrbital Cu 20   pz \
	OrthoOrbital Cu 20   d \
	OrthoOrbital Cu 20   dxy \
	OrthoOrbital Cu 20   dyz \
	OrthoOrbital Cu 20   dz2 \
	OrthoOrbital Cu 20   dxz \
	OrthoOrbital Cu 20   dx2-y2 \
	OrthoOrbital Cu 21   s \
	OrthoOrbital Cu 21   p \
	OrthoOrbital Cu 21   px \
	OrthoOrbital Cu 21   py \
	OrthoOrbital Cu 21   pz \
	OrthoOrbital Cu 21   d \
	OrthoOrbital Cu 21   dxy \
	OrthoOrbital Cu 21   dyz \
	OrthoOrbital Cu 21   dz2 \
	OrthoOrbital Cu 21   dxz \
	OrthoOrbital Cu 21   dx2-y2 \
	OrthoOrbital Cu 22   s \
	OrthoOrbital Cu 22   p \
	OrthoOrbital Cu 22   px \
	OrthoOrbital Cu 22   py \
	OrthoOrbital Cu 22   pz \
	OrthoOrbital Cu 22   d \
	OrthoOrbital Cu 22   dxy \
	OrthoOrbital Cu 22   dyz \
	OrthoOrbital Cu 22   dz2 \
	OrthoOrbital Cu 22   dxz \
	OrthoOrbital Cu 22   dx2-y2 \
	OrthoOrbital Cu 23   s \
	OrthoOrbital Cu 23   p \
	OrthoOrbital Cu 23   px \
	OrthoOrbital Cu 23   py \
	OrthoOrbital Cu 23   pz \
	OrthoOrbital Cu 23   d \
	OrthoOrbital Cu 23   dxy \
	OrthoOrbital Cu 23   dyz \
	OrthoOrbital Cu 23   dz2 \
	OrthoOrbital Cu 23   dxz \
	OrthoOrbital Cu 23   dx2-y2 \
	OrthoOrbital Cu 24   s \
	OrthoOrbital Cu 24   p \
	OrthoOrbital Cu 24   px \
	OrthoOrbital Cu 24   py \
	OrthoOrbital Cu 24   pz \
	OrthoOrbital Cu 24   d \
	OrthoOrbital Cu 24   dxy \
	OrthoOrbital Cu 24   dyz \
	OrthoOrbital Cu 24   dz2 \
	OrthoOrbital Cu 24   dxz \
	OrthoOrbital Cu 24   dx2-y2 \
	OrthoOrbital Cu 25   s \
	OrthoOrbital Cu 25   p \
	OrthoOrbital Cu 25   px \
	OrthoOrbital Cu 25   py \
	OrthoOrbital Cu 25   pz \
	OrthoOrbital Cu 25   d \
	OrthoOrbital Cu 25   dxy \
	OrthoOrbital Cu 25   dyz \
	OrthoOrbital Cu 25   dz2 \
	OrthoOrbital Cu 25   dxz \
	OrthoOrbital Cu 25   dx2-y2 \
	OrthoOrbital Cu 26   s \
	OrthoOrbital Cu 26   p \
	OrthoOrbital Cu 26   px \
	OrthoOrbital Cu 26   py \
	OrthoOrbital Cu 26   pz \
	OrthoOrbital Cu 26   d \
	OrthoOrbital Cu 26   dxy \
	OrthoOrbital Cu 26   dyz \
	OrthoOrbital Cu 26   dz2 \
	OrthoOrbital Cu 26   dxz \
	OrthoOrbital Cu 26   dx2-y2 \
	OrthoOrbital Cu 27   s \
	OrthoOrbital Cu 27   p \
	OrthoOrbital Cu 27   px \
	OrthoOrbital Cu 27   py \
	OrthoOrbital Cu 27   pz \
	OrthoOrbital Cu 27   d \
	OrthoOrbital Cu 27   dxy \
	OrthoOrbital Cu 27   dyz \
	OrthoOrbital Cu 27   dz2 \
	OrthoOrbital Cu 27   dxz \
	OrthoOrbital Cu 27   dx2-y2 \
	OrthoOrbital Cu 28   s \
	OrthoOrbital Cu 28   p \
	OrthoOrbital Cu 28   px \
	OrthoOrbital Cu 28   py \
	OrthoOrbital Cu 28   pz \
	OrthoOrbital Cu 28   d \
	OrthoOrbital Cu 28   dxy \
	OrthoOrbital Cu 28   dyz \
	OrthoOrbital Cu 28   dz2 \
	OrthoOrbital Cu 28   dxz \
	OrthoOrbital Cu 28   dx2-y2 \
	OrthoOrbital Cu 29   s \
	OrthoOrbital Cu 29   p \
	OrthoOrbital Cu 29   px \
	OrthoOrbital Cu 29   py \
	OrthoOrbital Cu 29   pz \
	OrthoOrbital Cu 29   d \
	OrthoOrbital Cu 29   dxy \
	OrthoOrbital Cu 29   dyz \
	OrthoOrbital Cu 29   dz2 \
	OrthoOrbital Cu 29   dxz \
	OrthoOrbital Cu 29   dx2-y2 \
	OrthoOrbital Cu 30   s \
	OrthoOrbital Cu 30   p \
	OrthoOrbital Cu 30   px \
	OrthoOrbital Cu 30   py \
	OrthoOrbital Cu 30   pz \
	OrthoOrbital Cu 30   d \
	OrthoOrbital Cu 30   dxy \
	OrthoOrbital Cu 30   dyz \
	OrthoOrbital Cu 30   dz2 \
	OrthoOrbital Cu 30   dxz \
	OrthoOrbital Cu 30   dx2-y2 \
	OrthoOrbital Cu 31   s \
	OrthoOrbital Cu 31   p \
	OrthoOrbital Cu 31   px \
	OrthoOrbital Cu 31   py \
	OrthoOrbital Cu 31   pz \
	OrthoOrbital Cu 31   d \
	OrthoOrbital Cu 31   dxy \
	OrthoOrbital Cu 31   dyz \
	OrthoOrbital Cu 31   dz2 \
	OrthoOrbital Cu 31   dxz \
	OrthoOrbital Cu 31   dx2-y2 \
	OrthoOrbital Cu 32   s \
	OrthoOrbital Cu 32   p \
	OrthoOrbital Cu 32   px \
	OrthoOrbital Cu 32   py \
	OrthoOrbital Cu 32   pz \
	OrthoOrbital Cu 32   d \
	OrthoOrbital Cu 32   dxy \
	OrthoOrbital Cu 32   dyz \
	OrthoOrbital Cu 32   dz2 \
	OrthoOrbital Cu 32   dxz \
	OrthoOrbital Cu 32   dx2-y2 \
	OrthoOrbital Cu 33   s \
	OrthoOrbital Cu 33   p \
	OrthoOrbital Cu 33   px \
	OrthoOrbital Cu 33   py \
	OrthoOrbital Cu 33   pz \
	OrthoOrbital Cu 33   d \
	OrthoOrbital Cu 33   dxy \
	OrthoOrbital Cu 33   dyz \
	OrthoOrbital Cu 33   dz2 \
	OrthoOrbital Cu 33   dxz \
	OrthoOrbital Cu 33   dx2-y2 \
	OrthoOrbital Cu 34   s \
	OrthoOrbital Cu 34   p \
	OrthoOrbital Cu 34   px \
	OrthoOrbital Cu 34   py \
	OrthoOrbital Cu 34   pz \
	OrthoOrbital Cu 34   d \
	OrthoOrbital Cu 34   dxy \
	OrthoOrbital Cu 34   dyz \
	OrthoOrbital Cu 34   dz2 \
	OrthoOrbital Cu 34   dxz \
	OrthoOrbital Cu 34   dx2-y2 \
	OrthoOrbital Cu 35   s \
	OrthoOrbital Cu 35   p \
	OrthoOrbital Cu 35   px \
	OrthoOrbital Cu 35   py \
	OrthoOrbital Cu 35   pz \
	OrthoOrbital Cu 35   d \
	OrthoOrbital Cu 35   dxy \
	OrthoOrbital Cu 35   dyz \
	OrthoOrbital Cu 35   dz2 \
	OrthoOrbital Cu 35   dxz \
	OrthoOrbital Cu 35   dx2-y2 \
	OrthoOrbital Cu 36   s \
	OrthoOrbital Cu 36   p \
	OrthoOrbital Cu 36   px \
	OrthoOrbital Cu 36   py \
	OrthoOrbital Cu 36   pz \
	OrthoOrbital Cu 36   d \
	OrthoOrbital Cu 36   dxy \
	OrthoOrbital Cu 36   dyz \
	OrthoOrbital Cu 36   dz2 \
	OrthoOrbital Cu 36   dxz \
	OrthoOrbital Cu 36   dx2-y2 \
	OrthoOrbital Cu 37   s \
	OrthoOrbital Cu 37   p \
	OrthoOrbital Cu 37   px \
	OrthoOrbital Cu 37   py \
	OrthoOrbital Cu 37   pz \
	OrthoOrbital Cu 37   d \
	OrthoOrbital Cu 37   dxy \
	OrthoOrbital Cu 37   dyz \
	OrthoOrbital Cu 37   dz2 \
	OrthoOrbital Cu 37   dxz \
	OrthoOrbital Cu 37   dx2-y2 \
	OrthoOrbital Cu 38   s \
	OrthoOrbital Cu 38   p \
	OrthoOrbital Cu 38   px \
	OrthoOrbital Cu 38   py \
	OrthoOrbital Cu 38   pz \
	OrthoOrbital Cu 38   d \
	OrthoOrbital Cu 38   dxy \
	OrthoOrbital Cu 38   dyz \
	OrthoOrbital Cu 38   dz2 \
	OrthoOrbital Cu 38   dxz \
	OrthoOrbital Cu 38   dx2-y2 \
	OrthoOrbital Cu 39   s \
	OrthoOrbital Cu 39   p \
	OrthoOrbital Cu 39   px \
	OrthoOrbital Cu 39   py \
	OrthoOrbital Cu 39   pz \
	OrthoOrbital Cu 39   d \
	OrthoOrbital Cu 39   dxy \
	OrthoOrbital Cu 39   dyz \
	OrthoOrbital Cu 39   dz2 \
	OrthoOrbital Cu 39   dxz \
	OrthoOrbital Cu 39   dx2-y2 \
	OrthoOrbital Cu 40   s \
	OrthoOrbital Cu 40   p \
	OrthoOrbital Cu 40   px \
	OrthoOrbital Cu 40   py \
	OrthoOrbital Cu 40   pz \
	OrthoOrbital Cu 40   d \
	OrthoOrbital Cu 40   dxy \
	OrthoOrbital Cu 40   dyz \
	OrthoOrbital Cu 40   dz2 \
	OrthoOrbital Cu 40   dxz \
	OrthoOrbital Cu 40   dx2-y2 \
	OrthoOrbital Cu 41   s \
	OrthoOrbital Cu 41   p \
	OrthoOrbital Cu 41   px \
	OrthoOrbital Cu 41   py \
	OrthoOrbital Cu 41   pz \
	OrthoOrbital Cu 41   d \
	OrthoOrbital Cu 41   dxy \
	OrthoOrbital Cu 41   dyz \
	OrthoOrbital Cu 41   dz2 \
	OrthoOrbital Cu 41   dxz \
	OrthoOrbital Cu 41   dx2-y2 \
	OrthoOrbital Cu 42   s \
	OrthoOrbital Cu 42   p \
	OrthoOrbital Cu 42   px \
	OrthoOrbital Cu 42   py \
	OrthoOrbital Cu 42   pz \
	OrthoOrbital Cu 42   d \
	OrthoOrbital Cu 42   dxy \
	OrthoOrbital Cu 42   dyz \
	OrthoOrbital Cu 42   dz2 \
	OrthoOrbital Cu 42   dxz \
	OrthoOrbital Cu 42   dx2-y2 \
	OrthoOrbital Cu 43   s \
	OrthoOrbital Cu 43   p \
	OrthoOrbital Cu 43   px \
	OrthoOrbital Cu 43   py \
	OrthoOrbital Cu 43   pz \
	OrthoOrbital Cu 43   d \
	OrthoOrbital Cu 43   dxy \
	OrthoOrbital Cu 43   dyz \
	OrthoOrbital Cu 43   dz2 \
	OrthoOrbital Cu 43   dxz \
	OrthoOrbital Cu 43   dx2-y2 \
	OrthoOrbital Cu 44   s \
	OrthoOrbital Cu 44   p \
	OrthoOrbital Cu 44   px \
	OrthoOrbital Cu 44   py \
	OrthoOrbital Cu 44   pz \
	OrthoOrbital Cu 44   d \
	OrthoOrbital Cu 44   dxy \
	OrthoOrbital Cu 44   dyz \
	OrthoOrbital Cu 44   dz2 \
	OrthoOrbital Cu 44   dxz \
	OrthoOrbital Cu 44   dx2-y2 \
	OrthoOrbital Cu 45   s \
	OrthoOrbital Cu 45   p \
	OrthoOrbital Cu 45   px \
	OrthoOrbital Cu 45   py \
	OrthoOrbital Cu 45   pz \
	OrthoOrbital Cu 45   d \
	OrthoOrbital Cu 45   dxy \
	OrthoOrbital Cu 45   dyz \
	OrthoOrbital Cu 45   dz2 \
	OrthoOrbital Cu 45   dxz \
	OrthoOrbital Cu 45   dx2-y2 \
	OrthoOrbital Cu 46   s \
	OrthoOrbital Cu 46   p \
	OrthoOrbital Cu 46   px \
	OrthoOrbital Cu 46   py \
	OrthoOrbital Cu 46   pz \
	OrthoOrbital Cu 46   d \
	OrthoOrbital Cu 46   dxy \
	OrthoOrbital Cu 46   dyz \
	OrthoOrbital Cu 46   dz2 \
	OrthoOrbital Cu 46   dxz \
	OrthoOrbital Cu 46   dx2-y2 \
	OrthoOrbital Cu 47   s \
	OrthoOrbital Cu 47   p \
	OrthoOrbital Cu 47   px \
	OrthoOrbital Cu 47   py \
	OrthoOrbital Cu 47   pz \
	OrthoOrbital Cu 47   d \
	OrthoOrbital Cu 47   dxy \
	OrthoOrbital Cu 47   dyz \
	OrthoOrbital Cu 47   dz2 \
	OrthoOrbital Cu 47   dxz \
	OrthoOrbital Cu 47   dx2-y2 \
	OrthoOrbital Cu 48   s \
	OrthoOrbital Cu 48   p \
	OrthoOrbital Cu 48   px \
	OrthoOrbital Cu 48   py \
	OrthoOrbital Cu 48   pz \
	OrthoOrbital Cu 48   d \
	OrthoOrbital Cu 48   dxy \
	OrthoOrbital Cu 48   dyz \
	OrthoOrbital Cu 48   dz2 \
	OrthoOrbital Cu 48   dxz \
	OrthoOrbital Cu 48   dx2-y2 \
	OrthoOrbital Cu 49   s \
	OrthoOrbital Cu 49   p \
	OrthoOrbital Cu 49   px \
	OrthoOrbital Cu 49   py \
	OrthoOrbital Cu 49   pz \
	OrthoOrbital Cu 49   d \
	OrthoOrbital Cu 49   dxy \
	OrthoOrbital Cu 49   dyz \
	OrthoOrbital Cu 49   dz2 \
	OrthoOrbital Cu 49   dxz \
	OrthoOrbital Cu 49   dx2-y2 \
	OrthoOrbital Cu 50   s \
	OrthoOrbital Cu 50   p \
	OrthoOrbital Cu 50   px \
	OrthoOrbital Cu 50   py \
	OrthoOrbital Cu 50   pz \
	OrthoOrbital Cu 50   d \
	OrthoOrbital Cu 50   dxy \
	OrthoOrbital Cu 50   dyz \
	OrthoOrbital Cu 50   dz2 \
	OrthoOrbital Cu 50   dxz \
	OrthoOrbital Cu 50   dx2-y2 \
	OrthoOrbital Cu 51   s \
	OrthoOrbital Cu 51   p \
	OrthoOrbital Cu 51   px \
	OrthoOrbital Cu 51   py \
	OrthoOrbital Cu 51   pz \
	OrthoOrbital Cu 51   d \
	OrthoOrbital Cu 51   dxy \
	OrthoOrbital Cu 51   dyz \
	OrthoOrbital Cu 51   dz2 \
	OrthoOrbital Cu 51   dxz \
	OrthoOrbital Cu 51   dx2-y2 \
	OrthoOrbital Cu 52   s \
	OrthoOrbital Cu 52   p \
	OrthoOrbital Cu 52   px \
	OrthoOrbital Cu 52   py \
	OrthoOrbital Cu 52   pz \
	OrthoOrbital Cu 52   d \
	OrthoOrbital Cu 52   dxy \
	OrthoOrbital Cu 52   dyz \
	OrthoOrbital Cu 52   dz2 \
	OrthoOrbital Cu 52   dxz \
	OrthoOrbital Cu 52   dx2-y2 \
	OrthoOrbital Cu 53   s \
	OrthoOrbital Cu 53   p \
	OrthoOrbital Cu 53   px \
	OrthoOrbital Cu 53   py \
	OrthoOrbital Cu 53   pz \
	OrthoOrbital Cu 53   d \
	OrthoOrbital Cu 53   dxy \
	OrthoOrbital Cu 53   dyz \
	OrthoOrbital Cu 53   dz2 \
	OrthoOrbital Cu 53   dxz \
	OrthoOrbital Cu 53   dx2-y2 \
	OrthoOrbital Cu 54   s \
	OrthoOrbital Cu 54   p \
	OrthoOrbital Cu 54   px \
	OrthoOrbital Cu 54   py \
	OrthoOrbital Cu 54   pz \
	OrthoOrbital Cu 54   d \
	OrthoOrbital Cu 54   dxy \
	OrthoOrbital Cu 54   dyz \
	OrthoOrbital Cu 54   dz2 \
	OrthoOrbital Cu 54   dxz \
	OrthoOrbital Cu 54   dx2-y2 \
	OrthoOrbital Cu 55   s \
	OrthoOrbital Cu 55   p \
	OrthoOrbital Cu 55   px \
	OrthoOrbital Cu 55   py \
	OrthoOrbital Cu 55   pz \
	OrthoOrbital Cu 55   d \
	OrthoOrbital Cu 55   dxy \
	OrthoOrbital Cu 55   dyz \
	OrthoOrbital Cu 55   dz2 \
	OrthoOrbital Cu 55   dxz \
	OrthoOrbital Cu 55   dx2-y2 \
	OrthoOrbital Cu 56   s \
	OrthoOrbital Cu 56   p \
	OrthoOrbital Cu 56   px \
	OrthoOrbital Cu 56   py \
	OrthoOrbital Cu 56   pz \
	OrthoOrbital Cu 56   d \
	OrthoOrbital Cu 56   dxy \
	OrthoOrbital Cu 56   dyz \
	OrthoOrbital Cu 56   dz2 \
	OrthoOrbital Cu 56   dxz \
	OrthoOrbital Cu 56   dx2-y2 \
	OrthoOrbital Cu 57   s \
	OrthoOrbital Cu 57   p \
	OrthoOrbital Cu 57   px \
	OrthoOrbital Cu 57   py \
	OrthoOrbital Cu 57   pz \
	OrthoOrbital Cu 57   d \
	OrthoOrbital Cu 57   dxy \
	OrthoOrbital Cu 57   dyz \
	OrthoOrbital Cu 57   dz2 \
	OrthoOrbital Cu 57   dxz \
	OrthoOrbital Cu 57   dx2-y2 \
	OrthoOrbital Cu 58   s \
	OrthoOrbital Cu 58   p \
	OrthoOrbital Cu 58   px \
	OrthoOrbital Cu 58   py \
	OrthoOrbital Cu 58   pz \
	OrthoOrbital Cu 58   d \
	OrthoOrbital Cu 58   dxy \
	OrthoOrbital Cu 58   dyz \
	OrthoOrbital Cu 58   dz2 \
	OrthoOrbital Cu 58   dxz \
	OrthoOrbital Cu 58   dx2-y2 \
	OrthoOrbital Cu 59   s \
	OrthoOrbital Cu 59   p \
	OrthoOrbital Cu 59   px \
	OrthoOrbital Cu 59   py \
	OrthoOrbital Cu 59   pz \
	OrthoOrbital Cu 59   d \
	OrthoOrbital Cu 59   dxy \
	OrthoOrbital Cu 59   dyz \
	OrthoOrbital Cu 59   dz2 \
	OrthoOrbital Cu 59   dxz \
	OrthoOrbital Cu 59   dx2-y2 \
	OrthoOrbital Cu 60   s \
	OrthoOrbital Cu 60   p \
	OrthoOrbital Cu 60   px \
	OrthoOrbital Cu 60   py \
	OrthoOrbital Cu 60   pz \
	OrthoOrbital Cu 60   d \
	OrthoOrbital Cu 60   dxy \
	OrthoOrbital Cu 60   dyz \
	OrthoOrbital Cu 60   dz2 \
	OrthoOrbital Cu 60   dxz \
	OrthoOrbital Cu 60   dx2-y2 \
	OrthoOrbital Cu 61   s \
	OrthoOrbital Cu 61   p \
	OrthoOrbital Cu 61   px \
	OrthoOrbital Cu 61   py \
	OrthoOrbital Cu 61   pz \
	OrthoOrbital Cu 61   d \
	OrthoOrbital Cu 61   dxy \
	OrthoOrbital Cu 61   dyz \
	OrthoOrbital Cu 61   dz2 \
	OrthoOrbital Cu 61   dxz \
	OrthoOrbital Cu 61   dx2-y2 \
	OrthoOrbital Cu 62   s \
	OrthoOrbital Cu 62   p \
	OrthoOrbital Cu 62   px \
	OrthoOrbital Cu 62   py \
	OrthoOrbital Cu 62   pz \
	OrthoOrbital Cu 62   d \
	OrthoOrbital Cu 62   dxy \
	OrthoOrbital Cu 62   dyz \
	OrthoOrbital Cu 62   dz2 \
	OrthoOrbital Cu 62   dxz \
	OrthoOrbital Cu 62   dx2-y2 \
	OrthoOrbital Cu 63   s \
	OrthoOrbital Cu 63   p \
	OrthoOrbital Cu 63   px \
	OrthoOrbital Cu 63   py \
	OrthoOrbital Cu 63   pz \
	OrthoOrbital Cu 63   d \
	OrthoOrbital Cu 63   dxy \
	OrthoOrbital Cu 63   dyz \
	OrthoOrbital Cu 63   dz2 \
	OrthoOrbital Cu 63   dxz \
	OrthoOrbital Cu 63   dx2-y2 \
	OrthoOrbital Cu 64   s \
	OrthoOrbital Cu 64   p \
	OrthoOrbital Cu 64   px \
	OrthoOrbital Cu 64   py \
	OrthoOrbital Cu 64   pz \
	OrthoOrbital Cu 64   d \
	OrthoOrbital Cu 64   dxy \
	OrthoOrbital Cu 64   dyz \
	OrthoOrbital Cu 64   dz2 \
	OrthoOrbital Cu 64   dxz \
	OrthoOrbital Cu 64   dx2-y2 \
	OrthoOrbital Cu 65   s \
	OrthoOrbital Cu 65   p \
	OrthoOrbital Cu 65   px \
	OrthoOrbital Cu 65   py \
	OrthoOrbital Cu 65   pz \
	OrthoOrbital Cu 65   d \
	OrthoOrbital Cu 65   dxy \
	OrthoOrbital Cu 65   dyz \
	OrthoOrbital Cu 65   dz2 \
	OrthoOrbital Cu 65   dxz \
	OrthoOrbital Cu 65   dx2-y2 \
	OrthoOrbital Cu 66   s \
	OrthoOrbital Cu 66   p \
	OrthoOrbital Cu 66   px \
	OrthoOrbital Cu 66   py \
	OrthoOrbital Cu 66   pz \
	OrthoOrbital Cu 66   d \
	OrthoOrbital Cu 66   dxy \
	OrthoOrbital Cu 66   dyz \
	OrthoOrbital Cu 66   dz2 \
	OrthoOrbital Cu 66   dxz \
	OrthoOrbital Cu 66   dx2-y2 \
	OrthoOrbital Cu 67   s \
	OrthoOrbital Cu 67   p \
	OrthoOrbital Cu 67   px \
	OrthoOrbital Cu 67   py \
	OrthoOrbital Cu 67   pz \
	OrthoOrbital Cu 67   d \
	OrthoOrbital Cu 67   dxy \
	OrthoOrbital Cu 67   dyz \
	OrthoOrbital Cu 67   dz2 \
	OrthoOrbital Cu 67   dxz \
	OrthoOrbital Cu 67   dx2-y2 \
	OrthoOrbital Cu 68   s \
	OrthoOrbital Cu 68   p \
	OrthoOrbital Cu 68   px \
	OrthoOrbital Cu 68   py \
	OrthoOrbital Cu 68   pz \
	OrthoOrbital Cu 68   d \
	OrthoOrbital Cu 68   dxy \
	OrthoOrbital Cu 68   dyz \
	OrthoOrbital Cu 68   dz2 \
	OrthoOrbital Cu 68   dxz \
	OrthoOrbital Cu 68   dx2-y2 \
	OrthoOrbital Cu 69   s \
	OrthoOrbital Cu 69   p \
	OrthoOrbital Cu 69   px \
	OrthoOrbital Cu 69   py \
	OrthoOrbital Cu 69   pz \
	OrthoOrbital Cu 69   d \
	OrthoOrbital Cu 69   dxy \
	OrthoOrbital Cu 69   dyz \
	OrthoOrbital Cu 69   dz2 \
	OrthoOrbital Cu 69   dxz \
	OrthoOrbital Cu 69   dx2-y2 \
	OrthoOrbital Cu 70   s \
	OrthoOrbital Cu 70   p \
	OrthoOrbital Cu 70   px \
	OrthoOrbital Cu 70   py \
	OrthoOrbital Cu 70   pz \
	OrthoOrbital Cu 70   d \
	OrthoOrbital Cu 70   dxy \
	OrthoOrbital Cu 70   dyz \
	OrthoOrbital Cu 70   dz2 \
	OrthoOrbital Cu 70   dxz \
	OrthoOrbital Cu 70   dx2-y2 \
	OrthoOrbital Cu 71   s \
	OrthoOrbital Cu 71   p \
	OrthoOrbital Cu 71   px \
	OrthoOrbital Cu 71   py \
	OrthoOrbital Cu 71   pz \
	OrthoOrbital Cu 71   d \
	OrthoOrbital Cu 71   dxy \
	OrthoOrbital Cu 71   dyz \
	OrthoOrbital Cu 71   dz2 \
	OrthoOrbital Cu 71   dxz \
	OrthoOrbital Cu 71   dx2-y2 \
	OrthoOrbital Cu 72   s \
	OrthoOrbital Cu 72   p \
	OrthoOrbital Cu 72   px \
	OrthoOrbital Cu 72   py \
	OrthoOrbital Cu 72   pz \
	OrthoOrbital Cu 72   d \
	OrthoOrbital Cu 72   dxy \
	OrthoOrbital Cu 72   dyz \
	OrthoOrbital Cu 72   dz2 \
	OrthoOrbital Cu 72   dxz \
	OrthoOrbital Cu 72   dx2-y2 \
	OrthoOrbital Cu 73   s \
	OrthoOrbital Cu 73   p \
	OrthoOrbital Cu 73   px \
	OrthoOrbital Cu 73   py \
	OrthoOrbital Cu 73   pz \
	OrthoOrbital Cu 73   d \
	OrthoOrbital Cu 73   dxy \
	OrthoOrbital Cu 73   dyz \
	OrthoOrbital Cu 73   dz2 \
	OrthoOrbital Cu 73   dxz \
	OrthoOrbital Cu 73   dx2-y2 \
	OrthoOrbital Cu 74   s \
	OrthoOrbital Cu 74   p \
	OrthoOrbital Cu 74   px \
	OrthoOrbital Cu 74   py \
	OrthoOrbital Cu 74   pz \
	OrthoOrbital Cu 74   d \
	OrthoOrbital Cu 74   dxy \
	OrthoOrbital Cu 74   dyz \
	OrthoOrbital Cu 74   dz2 \
	OrthoOrbital Cu 74   dxz \
	OrthoOrbital Cu 74   dx2-y2 \
	OrthoOrbital Cu 75   s \
	OrthoOrbital Cu 75   p \
	OrthoOrbital Cu 75   px \
	OrthoOrbital Cu 75   py \
	OrthoOrbital Cu 75   pz \
	OrthoOrbital Cu 75   d \
	OrthoOrbital Cu 75   dxy \
	OrthoOrbital Cu 75   dyz \
	OrthoOrbital Cu 75   dz2 \
	OrthoOrbital Cu 75   dxz \
	OrthoOrbital Cu 75   dx2-y2 \
	OrthoOrbital Cu 76   s \
	OrthoOrbital Cu 76   p \
	OrthoOrbital Cu 76   px \
	OrthoOrbital Cu 76   py \
	OrthoOrbital Cu 76   pz \
	OrthoOrbital Cu 76   d \
	OrthoOrbital Cu 76   dxy \
	OrthoOrbital Cu 76   dyz \
	OrthoOrbital Cu 76   dz2 \
	OrthoOrbital Cu 76   dxz \
	OrthoOrbital Cu 76   dx2-y2 \
	OrthoOrbital C 1   s \
	OrthoOrbital C 1   p \
	OrthoOrbital C 1   px \
	OrthoOrbital C 1   py \
	OrthoOrbital C 1   pz \
	OrthoOrbital O 1   s \
	OrthoOrbital O 1   p \
	OrthoOrbital O 1   px \
	OrthoOrbital O 1   py \
	OrthoOrbital O 1   pz
dump End ElecDensity KEdensity BandEigs EigStats RhoAtom DOS Kpoints
dump Ionic State IonicPositions Lattice EigStats Ecomponents
dump 
dump 
dump 
dump 
dump 
dump 
dump 
dump 
dump-name jdft.$VAR
elec-cutoff 20
elec-eigen-algo Davidson
elec-ex-corr gga-PBE
elec-initial-magnetization 0.000000 no
elec-n-bands 873
elec-smearing Fermi 0.001
electronic-minimize  \
	dirUpdateScheme      FletcherReeves \
	linminMethod         DirUpdateRecommended \
	nIterations          100 \
	history              15 \
	knormThreshold       0 \
	energyDiffThreshold  1e-07 \
	nEnergyDiff          2 \
	alphaTstart          1 \
	alphaTmin            1e-10 \
	updateTestStepSize   yes \
	alphaTreduceFactor   0.1 \
	alphaTincreaseFactor 3 \
	nAlphaAdjustMax      3 \
	wolfeEnergy          0.0001 \
	wolfeGradient        0.9 \
	fdTest               no
exchange-regularization WignerSeitzTruncated
fluid LinearPCM 298.000000 1.013250
fluid-anion F- 0.5 MeanFieldLJ \
	epsBulk 1 \
	pMol 0 \
	epsInf 1 \
	Pvap 0 \
	sigmaBulk 0 \
	Rvdw 2.24877 \
	Res 0 \
	tauNuc 343133
fluid-cation Na+ 0.5 MeanFieldLJ \
	epsBulk 1 \
	pMol 0 \
	epsInf 1 \
	Pvap 0 \
	sigmaBulk 0 \
	Rvdw 2.19208 \
	Res 0 \
	tauNuc 343133
fluid-ex-corr lda-TF lda-PZ
fluid-gummel-loop 10 1.000000e-05
fluid-minimize  \
	dirUpdateScheme      PolakRibiere \
	linminMethod         DirUpdateRecommended \
	nIterations          400 \
	history              15 \
	knormThreshold       1e-11 \
	energyDiffThreshold  0 \
	nEnergyDiff          2 \
	alphaTstart          1 \
	alphaTmin            1e-10 \
	updateTestStepSize   yes \
	alphaTreduceFactor   0.1 \
	alphaTincreaseFactor 3 \
	nAlphaAdjustMax      6 \
	wolfeEnergy          0.0001 \
	wolfeGradient        0.9 \
	fdTest               no
fluid-solvent H2O 55.338 ScalarEOS \
	epsBulk 78.4 \
	pMol 0.92466 \
	epsInf 1.77 \
	Pvap 1.06736e-10 \
	sigmaBulk 4.62e-05 \
	Rvdw 2.61727 \
	Res 1.42 \
	tauNuc 343133 \
	poleEl 15 7 1
forces-output-coords Positions
initial-state jdft.$VAR
ion Cu  -0.001192000000000   6.544245000000002  57.880676000000022 0
ion Cu  -2.384503000000001  16.932860000000009  57.880676000000022 0
ion Cu   4.765431000000001   6.544245000000002  57.880676000000022 0
ion Cu   2.382119999999999  16.932860000000009  57.880676000000022 0
ion Cu   2.384341000000000   2.713922000000001  56.525453000000013 0
ion Cu   0.001029999999999  13.102536000000006  56.525453000000013 0
ion Cu   7.150963000000002   2.713922000000001  56.525453000000013 0
ion Cu   4.767652000000002  13.102536000000006  56.525453000000013 0
ion Cu   2.383883000000000   9.359601000000003  54.993401000000027 0
ion Cu   0.000577000000000  19.748195000000006  54.993401000000027 0
ion Cu   7.150506000000002   9.359601000000003  54.993401000000027 0
ion Cu   4.767199000000001  19.748195000000006  54.993401000000027 0
ion Cu   4.766713000000001   0.017058000000000  30.268470000000015 0
ion Cu   2.383401999999999  10.405673000000004  30.268470000000015 0
ion Cu   0.000091000000000   0.017058000000000  30.268470000000015 0
ion Cu  -2.383221000000000  10.405673000000004  30.268470000000015 0
ion Cu   0.001235000000000   5.469626000000002  53.340464000000011 0
ion Cu  -2.382077000000002  15.858241000000005  53.340464000000011 0
ion Cu   4.767857000000001   5.469626000000002  53.340464000000011 0
ion Cu   2.384545999999999  15.858241000000005  53.340464000000011 0
ion Cu   2.382429000000001   1.624509000000000  51.814524000000020 0
ion Cu  -0.000882000000000  12.013124000000003  51.814524000000020 0
ion Cu   7.149052000000001   1.624509000000000  51.814524000000020 0
ion Cu   4.765741000000000  12.013124000000003  51.814524000000020 0
ion Cu   2.383874000000000   8.200606000000004  50.274244000000017 0
ion Cu   0.000562000000000  18.589220000000008  50.274244000000017 0
ion Cu   7.150496000000000   8.200606000000004  50.274244000000017 0
ion Cu   4.767185000000000  18.589220000000008  50.274244000000017 0
ion Cu  -0.000229000000000   4.367747000000000  48.718391000000011 0
ion Cu  -2.383540000000000  14.756362000000005  48.718391000000011 0
ion Cu   4.766394000000000   4.367747000000000  48.718391000000011 0
ion Cu   2.383082000000000  14.756362000000005  48.718391000000011 0
ion Cu   2.384141000000001   0.541413000000000  47.163301000000011 0
ion Cu   0.000829000000000  10.930027000000004  47.163301000000011 0
ion Cu   7.150763000000000   0.541413000000000  47.163301000000011 0
ion Cu   4.767452000000000  10.930027000000004  47.163301000000011 0
ion Cu   2.385075000000001   7.104150000000004  45.624961000000020 0
ion Cu   0.001764000000000  17.492765000000006  45.624961000000020 0
ion Cu   7.151697000000000   7.104150000000004  45.624961000000020 0
ion Cu   4.768385999999999  17.492765000000006  45.624961000000020 0
ion Cu  -0.000224000000000   3.280662000000000  44.075102000000015 0
ion Cu  -2.383535000000001  13.669277000000005  44.075102000000015 0
ion Cu   4.766398000000000   3.280662000000000  44.075102000000015 0
ion Cu   2.383087000000001  13.669277000000005  44.075102000000015 0
ion Cu  -0.001254000000000   9.845311000000004  42.525360000000013 0
ion Cu  -2.384565000000000  20.233925000000006  42.525360000000013 0
ion Cu   4.765369000000002   9.845311000000004  42.525360000000013 0
ion Cu   2.382058000000000  20.233925000000006  42.525360000000013 0
ion Cu   2.383273000000000   6.019454000000002  40.986961000000022 0
ion Cu  -0.000038000000000  16.408068000000007  40.986961000000022 0
ion Cu   7.149896000000001   6.019454000000002  40.986961000000022 0
ion Cu   4.766584000000000  16.408068000000007  40.986961000000022 0
ion Cu  -0.000329000000000   2.193847000000000  39.431989000000023 0
ion Cu  -2.383635000000001  12.582440000000005  39.431989000000023 0
ion Cu   4.766294000000002   2.193847000000000  39.431989000000023 0
ion Cu   2.382987000000001  12.582440000000005  39.431989000000023 0
ion Cu  -0.000467000000000   8.749166000000004  37.876606000000017 0
ion Cu  -2.383778000000000  19.137781000000007  37.876606000000017 0
ion Cu   4.766155000000001   8.749166000000004  37.876606000000017 0
ion Cu   2.382844000000000  19.137781000000007  37.876606000000017 0
ion Cu   2.385018000000001   4.936711000000002  36.336032000000017 0
ion Cu   0.001706000000000  15.325326000000006  36.336032000000017 0
ion Cu   7.151640000000001   4.936711000000002  36.336032000000017 0
ion Cu   4.768329000000000  15.325326000000006  36.336032000000017 0
ion Cu  -0.001826000000000   1.091781000000000  34.810327000000015 0
ion Cu  -2.385132000000000  11.480375000000004  34.810327000000015 0
ion Cu   4.764797000000000   1.091781000000000  34.810327000000015 0
ion Cu   2.381489999999999  11.480375000000004  34.810327000000015 0
ion Cu  -0.001258000000000   7.590670000000003  33.157038000000014 0
ion Cu  -2.384570000000001  17.979284000000007  33.157038000000014 0
ion Cu   4.765364000000002   7.590670000000003  33.157038000000014 0
ion Cu   2.382053000000001  17.979284000000007  33.157038000000014 0
ion Cu   2.383187000000000   3.847029000000001  31.624809000000010 0
ion Cu  -0.000124000000001  14.235643000000005  31.624809000000010 0
ion Cu   7.149810000000002   3.847029000000001  31.624809000000010 0
ion Cu   4.766498999999999  14.235643000000005  31.624809000000010 0
ion C   3.178040999999999  10.916439000000006   0.249042835937006 1  Linear 0 0 1
ion O   3.238128999999999  10.916439000000006   2.491871668076858 1  Linear 0 0 1
ion-species /projects/musgravc/apps/jdftx-1.6.0/build/pseudopotentials/GBRV_v1.5/$ID_pbe_v1.uspp
ion-species /projects/musgravc/apps/jdftx-1.6.0/build/pseudopotentials/GBRV_v1.5/$ID_pbe_v1.2.uspp
ion-species /projects/musgravc/apps/jdftx-1.6.0/build/pseudopotentials/GBRV_v1.5/$ID_pbe_v1.4.uspp
ion-species /projects/musgravc/apps/jdftx-1.6.0/build/pseudopotentials/GBRV_v1.5/$ID_pbe_v1.5.uspp
ion-width Ecut
ionic-minimize  \
	dirUpdateScheme      L-BFGS \
	linminMethod         DirUpdateRecommended \
	nIterations          100 \
	history              15 \
	knormThreshold       0.0001 \
	energyDiffThreshold  1e-06 \
	nEnergyDiff          2 \
	alphaTstart          1 \
	alphaTmin            1e-10 \
	updateTestStepSize   yes \
	alphaTreduceFactor   0.1 \
	alphaTincreaseFactor 3 \
	nAlphaAdjustMax      3 \
	wolfeEnergy          0.0001 \
	wolfeGradient        0.9 \
	fdTest               no
kpoint   0.000000000000   0.000000000000   0.000000000000  1.00000000000000
kpoint-folding 5 2 1 
latt-move-scale 0 0 0
latt-scale 1 1 1 
lattice  \
	   9.533245000000001   -4.766623000000000    0.000000000000000  \
	   0.000000000000000   20.777228999999998    0.000000000000000  \
	   0.000000000000000    0.000000000000000   58.766880999999998 
lattice-minimize  \
	dirUpdateScheme      L-BFGS \
	linminMethod         DirUpdateRecommended \
	nIterations          0 \
	history              15 \
	knormThreshold       0 \
	energyDiffThreshold  1e-06 \
	nEnergyDiff          2 \
	alphaTstart          1 \
	alphaTmin            1e-10 \
	updateTestStepSize   yes \
	alphaTreduceFactor   0.1 \
	alphaTincreaseFactor 3 \
	nAlphaAdjustMax      3 \
	wolfeEnergy          0.0001 \
	wolfeGradient        0.9 \
	fdTest               no
lcao-params 30 1e-06 0.001
pcm-variant CANDLE
spintype z-spin
subspace-rotation-factor 1 yes
symmetries automatic
symmetry-threshold 0.0001
van-der-waals D3



---------- Setting up symmetries ----------

Found 8 point-group symmetries of the bravais lattice
Found 1 space-group symmetries with basis
Applied RMS atom displacement 0 bohrs to make symmetries exact.

---------- Initializing the Grid ----------
R = 
[      9.53325     -4.76662            0  ]
[            0      20.7772            0  ]
[            0            0      58.7669  ]
unit cell volume = 11640.2
G =
[   0.659081   0.151204         -0  ]
[          0   0.302407          0  ]
[          0         -0   0.106917  ]
Minimum fftbox size, Smin = [  40  88  240  ]
Chosen fftbox size, S = [  40  90  240  ]

---------- Exchange Correlation functional ----------
Initalized PBE GGA exchange.
Initalized PBE GGA correlation.

---------- Setting up pseudopotentials ----------
Width of ionic core gaussian charges (only for fluid interactions / plotting) set to 0.397384

Reading pseudopotential file '/projects/musgravc/apps/jdftx-1.6.0/build/pseudopotentials/GBRV_v1.5/cu_pbe_v1.2.uspp':
  Title: Cu.  Created by USPP 7.3.6 on 3-2-2014
  Reference state energy: -201.059491.  19 valence electrons in orbitals:
    |300>  occupation: 2  eigenvalue: -5.020764
    |310>  occupation: 6  eigenvalue: -3.445588
    |320>  occupation: 8  eigenvalue: -0.925168
    |400>  occupation: 2  eigenvalue: -0.567638
    |410>  occupation: 0  eigenvalue: -0.326154
  lMax: 2  lLocal: 3  QijEcut: 6
  6 projectors sampled on a log grid with 613 points:
    l: 0  eig: -5.020767  rCut: 1.4
    l: 0  eig: -0.567640  rCut: 1.4
    l: 1  eig: -3.445589  rCut: 1.55
    l: 1  eig: -0.326157  rCut: 1.55
    l: 2  eig: -0.925170  rCut: 1.5
    l: 2  eig: 1.500000  rCut: 1.5
  Partial core density with radius 0.8
  Transforming core density to a uniform radial grid of dG=0.02 with 1245 points.
  Transforming local potential to a uniform radial grid of dG=0.02 with 1245 points.
  Transforming nonlocal projectors to a uniform radial grid of dG=0.02 with 432 points.
  Transforming density augmentations to a uniform radial grid of dG=0.02 with 1245 points.
  Transforming atomic orbitals to a uniform radial grid of dG=0.02 with 432 points.
  Core radius for overlap checks: 1.55 bohrs.

Reading pseudopotential file '/projects/musgravc/apps/jdftx-1.6.0/build/pseudopotentials/GBRV_v1.5/c_pbe_v1.2.uspp':
  Title: C.  Created by USPP 7.3.6 on 3-2-2014
  Reference state energy: -5.406344.  4 valence electrons in orbitals:
    |200>  occupation: 2  eigenvalue: -0.504890
    |210>  occupation: 2  eigenvalue: -0.194356
  lMax: 1  lLocal: 2  QijEcut: 5
  4 projectors sampled on a log grid with 503 points:
    l: 0  eig: -0.504890  rCut: 1.3
    l: 0  eig: 0.000000  rCut: 1.3
    l: 1  eig: -0.194357  rCut: 1.3
    l: 1  eig: 0.000000  rCut: 1.3
  Partial core density with radius 1.1
  Transforming core density to a uniform radial grid of dG=0.02 with 1245 points.
  Transforming local potential to a uniform radial grid of dG=0.02 with 1245 points.
  Transforming nonlocal projectors to a uniform radial grid of dG=0.02 with 432 points.
  Transforming density augmentations to a uniform radial grid of dG=0.02 with 1245 points.
  Transforming atomic orbitals to a uniform radial grid of dG=0.02 with 432 points.
  Core radius for overlap checks: 1.30 bohrs.

Reading pseudopotential file '/projects/musgravc/apps/jdftx-1.6.0/build/pseudopotentials/GBRV_v1.5/o_pbe_v1.2.uspp':
  Title: O.  Created by USPP 7.3.6 on 3-2-2014
  Reference state energy: -15.894388.  6 valence electrons in orbitals:
    |200>  occupation: 2  eigenvalue: -0.878823
    |210>  occupation: 4  eigenvalue: -0.332131
  lMax: 2  lLocal: 2  QijEcut: 6
  5 projectors sampled on a log grid with 511 points:
    l: 0  eig: -0.878823  rCut: 1.25
    l: 0  eig: 0.000000  rCut: 1.25
    l: 1  eig: -0.332132  rCut: 1.25
    l: 1  eig: 0.000000  rCut: 1.25
    l: 2  eig: 1.000000  rCut: 1.25
  Partial core density with radius 0.7
  Transforming core density to a uniform radial grid of dG=0.02 with 1245 points.
  Transforming local potential to a uniform radial grid of dG=0.02 with 1245 points.
  Transforming nonlocal projectors to a uniform radial grid of dG=0.02 with 432 points.
  Transforming density augmentations to a uniform radial grid of dG=0.02 with 1245 points.
  Transforming atomic orbitals to a uniform radial grid of dG=0.02 with 432 points.
  Core radius for overlap checks: 1.25 bohrs.

Initialized 3 species with 78 total atoms.

Folded 1 k-points by 5x2x1 to 10 k-points.

---------- Setting up k-points, bands, fillings ----------
Adding inversion symmetry to k-mesh for non-inversion-symmetric unit cell.
Reduced to 6 k-points under symmetry. 
Computing the number of bands and number of electrons
Reading initial fillings from file jdft.fillings.
nElectrons: 1454.000000   nBands: 873   nStates: 12

----- Setting up reduced wavefunction bases (one per k-point) -----
average nbasis = 49721.900 , ideal nbasis = 49727.888

----- Initializing Supercell corresponding to k-point mesh -----
Lattice vector linear combinations in supercell:
[   5   0   0  ]
[   0   2   0  ]
[   0   0   1  ]
Supercell lattice vectors:
[  47.6662  -9.53325  0  ]
[  0  41.5545  0  ]
[  0  0  58.7669  ]

Initializing DFT-D3 calculator:
	Parameters set for gga-PBE functional
	s6:  1.000  s_r6:  1.217
	s8:  0.722  s_r8:  1.000
	Per-atom parameters loaded for:
	Cu:  sqrtQ[a0]:  5.226  Rcov[a0]:  1.909  CN: [ 0.00 0.96 ]
	 C:  sqrtQ[a0]:  3.105  Rcov[a0]:  1.417  CN: [ 0.00 0.99 2.00 3.00 3.98 ]
	 O:  sqrtQ[a0]:  2.594  Rcov[a0]:  1.191  CN: [ 0.00 0.99 1.99 ]

Initializing DFT-D2 calculator for fluid / solvation:
	Cu:  C6:  187.33 Eh-a0^6  R0: 2.952 a0
	 C:  C6:   30.35 Eh-a0^6  R0: 2.744 a0
	 O:  C6:   12.14 Eh-a0^6  R0: 2.536 a0

---------- Setting up ewald sum ----------
Optimum gaussian width for ewald sums = 4.374025 bohr.
Real space sum over 455 unit cells with max indices [  6  3  2  ]
Reciprocal space sum over 9405 terms with max indices [  5  9  22  ]

Computing DFT-D3 correction:
# coordination-number Cu 5.628 5.586 5.829 5.595 6.865 7.240 6.865 7.851 8.893 8.346 8.369 8.346 5.581 5.581 5.581 5.581 9.018 9.018 9.018 9.018 9.080 9.081 9.080 9.081 9.103 9.102 9.103 9.102 9.144 9.144 9.144 9.144 9.147 9.147 9.147 9.147 9.150 9.150 9.150 9.150 9.163 9.163 9.163 9.163 9.150 9.150 9.150 9.150 9.148 9.148 9.148 9.148 9.144 9.144 9.144 9.144 9.102 9.102 9.102 9.102 9.080 9.080 9.080 9.080 9.016 9.016 9.016 9.016 8.343 8.343 8.343 8.343 6.863 6.863 6.863 6.863
# coordination-number C 3.205
# coordination-number O 1.053
# diagonal-C6 Cu 175.00 175.00 175.00 175.00 175.00 175.00 175.00 175.00 175.00 175.00 175.00 175.00 175.00 175.00 175.00 175.00 175.00 175.00 175.00 175.00 175.00 175.00 175.00 175.00 175.00 175.00 175.00 175.00 175.00 175.00 175.00 175.00 175.00 175.00 175.00 175.00 175.00 175.00 175.00 175.00 175.00 175.00 175.00 175.00 175.00 175.00 175.00 175.00 175.00 175.00 175.00 175.00 175.00 175.00 175.00 175.00 175.00 175.00 175.00 175.00 175.00 175.00 175.00 175.00 175.00 175.00 175.00 175.00 175.00 175.00 175.00 175.00 175.00 175.00 175.00 175.00
# diagonal-C6 C 25.00
# diagonal-C6 O 12.77
EvdW_6 =   -0.504527
EvdW_8 =   -0.726838

---------- Allocating electronic variables ----------
Initializing wave functions:  reading from 'jdft.wfns'
----- createFluidSolver() ----- (Fluid-side solver setup)
   Initializing fluid molecule 'H2O'
     Initializing site 'O'
       Electron density: proportional to exp(-r/0.36935)*erfc((r-0.51523)/0.36823) with norm 6.826
       Charge density: gaussian nuclear width 0.478731 with net site charge 0.826
       Polarizability: cuspless exponential with width 0.32 and norm 3.73
       Hard sphere radius: 2.57003 bohrs
       Positions in reference frame:
         [ +0.000000 +0.000000 +0.000000 ]
     Initializing site 'H'
       Electron density: proportional to exp(-r/0.34641)*erfc((r-0)/0.390882) with norm 0.587
       Charge density: gaussian nuclear width 0.377945 with net site charge -0.413
       Polarizability: cuspless exponential with width 0.39 and norm 3.3
       Positions in reference frame:
         [ +0.000000 -1.441945 +1.122523 ]
         [ +0.000000 +1.441945 +1.122523 ]
     Net charge: 0   dipole magnitude: 0.927204
     Initializing spherical shell mfKernel with radius 2.61727 Bohr
     deltaS corrections:
       site 'O': -7.54299
       site 'H': -6.83917
   Initializing fluid molecule 'Na+'
     Initializing site 'Na'
       Electron density: proportional to exp(-r/0.19682)*erfc((r-0.71491)/0.41314) with norm 8.1383
       Charge density: gaussian nuclear width 0.365347 with net site charge -1
       Hard sphere radius: 1.86327 bohrs
       Positions in reference frame:
         [ +0.000000 +0.000000 +0.000000 ]
     Net charge: -1   dipole magnitude: 0
     Initializing gaussian mfKernel with width: 1.55004 Bohr
     deltaS corrections:
       site 'Na': -22.3555
   Initializing fluid molecule 'F-'
     Initializing site 'F'
       Electron density: proportional to exp(-r/0.38886)*erfc((r-0)/0.438782) with norm 8
       Charge density: gaussian nuclear width 0.374796 with net site charge 1
       Hard sphere radius: 2.39995 bohrs
       Positions in reference frame:
         [ +0.000000 +0.000000 +0.000000 ]
     Net charge: 1   dipole magnitude: 0
     Initializing gaussian mfKernel with width: 1.59012 Bohr
     deltaS corrections:
       site 'F': -9.04335

Correction to mu due to finite nuclear width = -0.123938
   Cavity determined by nc: 0.00142 and sigma: 0.707107
   Nonlocal vdW cavity from gaussian model electron density with norm = 8 and sigma = 0.993594 bohr
   Charge asymmetry in cavity with sensitivity pCavity = 36.5 e-bohr/Eh
   Electrostatic cavity expanded by eta = 1.46 bohrs
   Weighted density cavitation model constrained by Nbulk: 0.0049383 bohr^-3, Pvap: 3.14029 kPa, Rvdw: 2.61727 bohr and sigmaBulk: 4.62e-05 Eh/bohr^2 at T: 298 K.
   Weighted density dispersion model using vdW pair potentials with single solvent site with sqrtC6eff: 0.77 SI.
Reading fluid state from 'jdft.fluidState'


---- Citations for features of the code used in this run ----

   Software package:
      R. Sundararaman, K. Letchworth-Weaver, K.A. Schwarz, D. Gunceler, Y. Ozhabes and T.A. Arias, 'JDFTx: software for joint density-functional theory', SoftwareX 6, 278 (2017)

   gga-PBE exchange-correlation functional:
      J.P. Perdew, K. Burke and M. Ernzerhof, Phys. Rev. Lett. 77, 3865 (1996)

   Pseudopotentials:
      KF Garrity, JW Bennett, KM Rabe and D Vanderbilt, Comput. Mater. Sci. 81, 446 (2014)

   DFT-D3 dispersion correction:
      S. Grimme, J. Antony, S. Ehrlich and H. Krieg, J. Chem. Phys. 132, 154104 (2010)

   DFT-D2 dispersion correction:
      S. Grimme, J. Comput. Chem. 27, 1787 (2006)

   Charge-asymmetric nonlocally-determined local-electric (CANDLE) solvation model:
      R. Sundararaman and W.A. Goddard III, J. Chem. Phys. 142, 064107 (2015)

   Total energy minimization with Auxiliary Hamiltonian:
      C. Freysoldt, S. Boeck, and J. Neugebauer, Phys. Rev. B 79, 241103(R) (2009)

   Linear-tetrahedron sampling for density of states:
      G. Lehmann and M. Taut, Phys. status solidi (b) 54, 469 (1972)

This list may not be complete. Please suggest additional citations or
report any other bugs at https://github.com/shankar1729/jdftx/issues

Initialization completed successfully at t[s]:     70.50


Computing DFT-D3 correction:
# coordination-number Cu 5.628 5.586 5.829 5.595 6.865 7.240 6.865 7.851 8.893 8.346 8.369 8.346 5.581 5.581 5.581 5.581 9.018 9.018 9.018 9.018 9.080 9.081 9.080 9.081 9.103 9.102 9.103 9.102 9.144 9.144 9.144 9.144 9.147 9.147 9.147 9.147 9.150 9.150 9.150 9.150 9.163 9.163 9.163 9.163 9.150 9.150 9.150 9.150 9.148 9.148 9.148 9.148 9.144 9.144 9.144 9.144 9.102 9.102 9.102 9.102 9.080 9.080 9.080 9.080 9.016 9.016 9.016 9.016 8.343 8.343 8.343 8.343 6.863 6.863 6.863 6.863
# coordination-number C 3.205
# coordination-number O 1.053
# diagonal-C6 Cu 175.00 175.00 175.00 175.00 175.00 175.00 175.00 175.00 175.00 175.00 175.00 175.00 175.00 175.00 175.00 175.00 175.00 175.00 175.00 175.00 175.00 175.00 175.00 175.00 175.00 175.00 175.00 175.00 175.00 175.00 175.00 175.00 175.00 175.00 175.00 175.00 175.00 175.00 175.00 175.00 175.00 175.00 175.00 175.00 175.00 175.00 175.00 175.00 175.00 175.00 175.00 175.00 175.00 175.00 175.00 175.00 175.00 175.00 175.00 175.00 175.00 175.00 175.00 175.00 175.00 175.00 175.00 175.00 175.00 175.00 175.00 175.00 175.00 175.00 175.00 175.00
# diagonal-C6 C 25.00
# diagonal-C6 O 12.77
EvdW_6 =   -0.504527
EvdW_8 =   -0.726838

-------- Electronic minimization -----------
	Linear fluid (dielectric constant: 78.4, screening length: 8.12261 Bohr) occupying 0.342284 of unit cell:	Completed after 10 iterations at t[s]:     96.94
	FillingsUpdate:  mu: -0.154576041  nElectrons: 1454.000000  magneticMoment: [ Abs: 0.00000  Tot: +0.00000 ]
ElecMinimize: Iter:   0  F: -15362.720541926197257  |grad|_K:  1.436e-07  alpha:  1.000e+00
	Linear fluid (dielectric constant: 78.4, screening length: 8.12261 Bohr) occupying 0.342212 of unit cell:	Completed after 20 iterations at t[s]:    373.34
	Linear fluid (dielectric constant: 78.4, screening length: 8.12261 Bohr) occupying 0.342281 of unit cell:	Completed after 20 iterations at t[s]:    464.84
	FillingsUpdate:  mu: -0.154838672  nElectrons: 1454.000000  magneticMoment: [ Abs: 0.00000  Tot: +0.00000 ]
	SubspaceRotationAdjust: set factor to 0.538
ElecMinimize: Iter:   1  F: -15362.720542300634406  |grad|_K:  6.087e-08  alpha:  3.489e-02  linmin:  8.922e-05  t[s]:    587.07
	Linear fluid (dielectric constant: 78.4, screening length: 8.12261 Bohr) occupying 0.342281 of unit cell:	Completed after 2 iterations at t[s]:    717.67
	Linear fluid (dielectric constant: 78.4, screening length: 8.12261 Bohr) occupying 0.342281 of unit cell:	Completed after 2 iterations at t[s]:    804.84
	FillingsUpdate:  mu: -0.154823833  nElectrons: 1454.000000  magneticMoment: [ Abs: 0.00000  Tot: +0.00000 ]
	SubspaceRotationAdjust: set factor to 1.21
ElecMinimize: Iter:   2  F: -15362.720542399765691  |grad|_K:  1.666e-08  alpha:  5.069e-02  linmin: -6.320e-04  t[s]:    927.06
	Linear fluid (dielectric constant: 78.4, screening length: 8.12261 Bohr) occupying 0.342281 of unit cell:	Completed after 2 iterations at t[s]:   1057.92
	Linear fluid (dielectric constant: 78.4, screening length: 8.12261 Bohr) occupying 0.342281 of unit cell:	Completed after 0 iterations at t[s]:   1144.50
	FillingsUpdate:  mu: -0.154816328  nElectrons: 1454.000000  magneticMoment: [ Abs: 0.00000  Tot: +0.00000 ]
	SubspaceRotationAdjust: set factor to 1.09
ElecMinimize: Iter:   3  F: -15362.720542410366761  |grad|_K:  8.857e-09  alpha:  6.274e-02  linmin: -5.316e-03  t[s]:   1266.74
ElecMinimize: Converged (|Delta F|<1.000000e-07 for 2 iters).
Setting wave functions to eigenvectors of Hamiltonian
Converging empty states (this may take a while): |deigs|: 2.620e-09

Computing DFT-D3 correction:
# coordination-number Cu 5.628 5.586 5.829 5.595 6.865 7.240 6.865 7.851 8.893 8.346 8.369 8.346 5.581 5.581 5.581 5.581 9.018 9.018 9.018 9.018 9.080 9.081 9.080 9.081 9.103 9.102 9.103 9.102 9.144 9.144 9.144 9.144 9.147 9.147 9.147 9.147 9.150 9.150 9.150 9.150 9.163 9.163 9.163 9.163 9.150 9.150 9.150 9.150 9.148 9.148 9.148 9.148 9.144 9.144 9.144 9.144 9.102 9.102 9.102 9.102 9.080 9.080 9.080 9.080 9.016 9.016 9.016 9.016 8.343 8.343 8.343 8.343 6.863 6.863 6.863 6.863
# coordination-number C 3.205
# coordination-number O 1.053
# diagonal-C6 Cu 175.00 175.00 175.00 175.00 175.00 175.00 175.00 175.00 175.00 175.00 175.00 175.00 175.00 175.00 175.00 175.00 175.00 175.00 175.00 175.00 175.00 175.00 175.00 175.00 175.00 175.00 175.00 175.00 175.00 175.00 175.00 175.00 175.00 175.00 175.00 175.00 175.00 175.00 175.00 175.00 175.00 175.00 175.00 175.00 175.00 175.00 175.00 175.00 175.00 175.00 175.00 175.00 175.00 175.00 175.00 175.00 175.00 175.00 175.00 175.00 175.00 175.00 175.00 175.00 175.00 175.00 175.00 175.00 175.00 175.00 175.00 175.00 175.00 175.00 175.00 175.00
# diagonal-C6 C 25.00
# diagonal-C6 O 12.77
EvdW_6 =   -0.504527
EvdW_8 =   -0.726838

# Ionic positions in cartesian coordinates:
ion Cu  -0.001192000000000   6.544245000000002  57.880676000000022 0
ion Cu  -2.384503000000001  16.932860000000009  57.880676000000022 0
ion Cu   4.765431000000001   6.544245000000002  57.880676000000022 0
ion Cu   2.382119999999999  16.932860000000009  57.880676000000022 0
ion Cu   2.384341000000000   2.713922000000001  56.525453000000013 0
ion Cu   0.001029999999999  13.102536000000006  56.525453000000013 0
ion Cu   7.150963000000002   2.713922000000001  56.525453000000013 0
ion Cu   4.767652000000002  13.102536000000006  56.525453000000013 0
ion Cu   2.383883000000000   9.359601000000003  54.993401000000027 0
ion Cu   0.000577000000000  19.748195000000006  54.993401000000027 0
ion Cu   7.150506000000002   9.359601000000003  54.993401000000027 0
ion Cu   4.767199000000001  19.748195000000006  54.993401000000027 0
ion Cu   4.766713000000001   0.017058000000000  30.268470000000015 0
ion Cu   2.383401999999999  10.405673000000004  30.268470000000015 0
ion Cu   0.000091000000000   0.017058000000000  30.268470000000015 0
ion Cu  -2.383221000000000  10.405673000000004  30.268470000000015 0
ion Cu   0.001235000000000   5.469626000000002  53.340464000000011 0
ion Cu  -2.382077000000002  15.858241000000005  53.340464000000011 0
ion Cu   4.767857000000001   5.469626000000002  53.340464000000011 0
ion Cu   2.384545999999999  15.858241000000005  53.340464000000011 0
ion Cu   2.382429000000001   1.624509000000000  51.814524000000020 0
ion Cu  -0.000882000000000  12.013124000000003  51.814524000000020 0
ion Cu   7.149052000000001   1.624509000000000  51.814524000000020 0
ion Cu   4.765741000000000  12.013124000000003  51.814524000000020 0
ion Cu   2.383874000000000   8.200606000000004  50.274244000000017 0
ion Cu   0.000562000000000  18.589220000000008  50.274244000000017 0
ion Cu   7.150496000000000   8.200606000000004  50.274244000000017 0
ion Cu   4.767185000000000  18.589220000000008  50.274244000000017 0
ion Cu  -0.000229000000000   4.367747000000000  48.718391000000011 0
ion Cu  -2.383540000000000  14.756362000000005  48.718391000000011 0
ion Cu   4.766394000000000   4.367747000000000  48.718391000000011 0
ion Cu   2.383082000000000  14.756362000000005  48.718391000000011 0
ion Cu   2.384141000000001   0.541413000000000  47.163301000000011 0
ion Cu   0.000829000000000  10.930027000000004  47.163301000000011 0
ion Cu   7.150763000000000   0.541413000000000  47.163301000000011 0
ion Cu   4.767452000000000  10.930027000000004  47.163301000000011 0
ion Cu   2.385075000000001   7.104150000000004  45.624961000000020 0
ion Cu   0.001764000000000  17.492765000000006  45.624961000000020 0
ion Cu   7.151697000000000   7.104150000000004  45.624961000000020 0
ion Cu   4.768385999999999  17.492765000000006  45.624961000000020 0
ion Cu  -0.000224000000000   3.280662000000000  44.075102000000015 0
ion Cu  -2.383535000000001  13.669277000000005  44.075102000000015 0
ion Cu   4.766398000000000   3.280662000000000  44.075102000000015 0
ion Cu   2.383087000000001  13.669277000000005  44.075102000000015 0
ion Cu  -0.001254000000000   9.845311000000004  42.525360000000013 0
ion Cu  -2.384565000000000  20.233925000000006  42.525360000000013 0
ion Cu   4.765369000000002   9.845311000000004  42.525360000000013 0
ion Cu   2.382058000000000  20.233925000000006  42.525360000000013 0
ion Cu   2.383273000000000   6.019454000000002  40.986961000000022 0
ion Cu  -0.000038000000000  16.408068000000007  40.986961000000022 0
ion Cu   7.149896000000001   6.019454000000002  40.986961000000022 0
ion Cu   4.766584000000000  16.408068000000007  40.986961000000022 0
ion Cu  -0.000329000000000   2.193847000000000  39.431989000000023 0
ion Cu  -2.383635000000001  12.582440000000005  39.431989000000023 0
ion Cu   4.766294000000002   2.193847000000000  39.431989000000023 0
ion Cu   2.382987000000001  12.582440000000005  39.431989000000023 0
ion Cu  -0.000467000000000   8.749166000000004  37.876606000000017 0
ion Cu  -2.383778000000000  19.137781000000007  37.876606000000017 0
ion Cu   4.766155000000001   8.749166000000004  37.876606000000017 0
ion Cu   2.382844000000000  19.137781000000007  37.876606000000017 0
ion Cu   2.385018000000001   4.936711000000002  36.336032000000017 0
ion Cu   0.001706000000000  15.325326000000006  36.336032000000017 0
ion Cu   7.151640000000001   4.936711000000002  36.336032000000017 0
ion Cu   4.768329000000000  15.325326000000006  36.336032000000017 0
ion Cu  -0.001826000000000   1.091781000000000  34.810327000000015 0
ion Cu  -2.385132000000000  11.480375000000004  34.810327000000015 0
ion Cu   4.764797000000000   1.091781000000000  34.810327000000015 0
ion Cu   2.381489999999999  11.480375000000004  34.810327000000015 0
ion Cu  -0.001258000000000   7.590670000000003  33.157038000000014 0
ion Cu  -2.384570000000001  17.979284000000007  33.157038000000014 0
ion Cu   4.765364000000002   7.590670000000003  33.157038000000014 0
ion Cu   2.382053000000001  17.979284000000007  33.157038000000014 0
ion Cu   2.383187000000000   3.847029000000001  31.624809000000010 0
ion Cu  -0.000124000000001  14.235643000000005  31.624809000000010 0
ion Cu   7.149810000000002   3.847029000000001  31.624809000000010 0
ion Cu   4.766498999999999  14.235643000000005  31.624809000000010 0
ion C   3.178040999999999  10.916439000000006   0.249042835937006 1  Linear 0 0 1
ion O   3.238128999999999  10.916439000000006   2.491871668076858 1  Linear 0 0 1

# Forces in Cartesian coordinates:
force Cu  -0.001857246344218  -0.002560377454663  -0.000617610947795 0
force Cu   0.000517051860699   0.001566347348728  -0.000582714781724 0
force Cu   0.000901875796122  -0.000931127142723   0.000309572968702 0
force Cu  -0.000560885633204   0.004822751337580  -0.000887054569229 0
force Cu   0.000362187476291  -0.000484619857821   0.000406589398038 0
force Cu  -0.001124932625104   0.000698400556842   0.001968496699548 0
force Cu  -0.000305115835951   0.000298184987553   0.001053956873255 0
force Cu   0.002951158989422   0.003172240243342  -0.000894511101660 0
force Cu  -0.001301796283616  -0.002528122429578   0.001879047204106 0
force Cu   0.000240613259936  -0.000026128700469   0.000113567328403 0
force Cu   0.003557816523240  -0.002355654051751  -0.004833011256382 0
force Cu  -0.000086248337289   0.000273150590107   0.000151649388019 0
force Cu   0.000073576761861  -0.000939179891473   0.000213187366092 0
force Cu  -0.000092434848772  -0.000628863046071  -0.000202696216117 0
force Cu  -0.000133332620424  -0.000814428676955   0.000140816499771 0
force Cu   0.000022920372005  -0.000623451555213   0.000178937878752 0
force Cu   0.000394614547713   0.000205780661890   0.000057390976469 0
force Cu  -0.000701866921256  -0.001405529990492   0.000862931876192 0
force Cu  -0.000272166031432  -0.000033275187535  -0.000377008162113 0
force Cu   0.000416498085786   0.000831328697288  -0.001918818142613 0
force Cu   0.000073056848447  -0.000444849648190  -0.000817487881972 0
force Cu   0.000713162698160   0.000321521995752   0.000418579392675 0
force Cu  -0.000085511179750   0.000612679588886  -0.000424936460080 0
force Cu  -0.000762743021316   0.000506053817615  -0.001618336304361 0
force Cu   0.000066981995977   0.000628945553063   0.001381948577467 0
force Cu  -0.000147836098966  -0.000253769214107   0.000096135769603 0
force Cu  -0.000251763075922  -0.000097163432843  -0.001001873452755 0
force Cu  -0.000055434074665   0.000052627920507  -0.000477511233622 0
force Cu   0.000257154335611   0.000252813199314   0.000732564008377 0
force Cu   0.000265269126950   0.000094384572328   0.000529175045960 0
force Cu  -0.000090946051188  -0.000189532269887   0.001021712124570 0
force Cu  -0.000318148600878   0.000211227987113  -0.000164158154856 0
force Cu   0.000224693773192  -0.000184633986344   0.000295918711834 0
force Cu  -0.000004567902553   0.000233891303685   0.000957448111195 0
force Cu  -0.000017511808867  -0.000050971256518   0.000509422626493 0
force Cu   0.000210751137462   0.000193916864465   0.000506603499725 0
force Cu   0.000209536374051   0.000247322184970   0.000287052426872 0
force Cu  -0.000020265819559   0.000468782849849  -0.000241896379920 0
force Cu  -0.000175667826765   0.000236985151100  -0.000583118070721 0
force Cu   0.000194355341494   0.000305905482188  -0.000057794884690 0
force Cu   0.000008537839109  -0.000202380951724   0.000087644055779 0
force Cu   0.000158187740946  -0.000099369042940  -0.000111964120340 0
force Cu  -0.000061265218140   0.000074268064923  -0.000243979736676 0
force Cu  -0.000246289516593  -0.000015158757022  -0.000101204995843 0
force Cu  -0.000122471328915  -0.000388402182594  -0.000139711375675 0
force Cu  -0.000219486803808  -0.000015883022123  -0.000317731050555 0
force Cu  -0.000099265326326  -0.000383501964179  -0.000119281526317 0
force Cu   0.000020916402212  -0.000294344046962  -0.000116367830463 0
force Cu   0.000099929027787   0.000148100001581  -0.000636333448387 0
force Cu   0.000083832254085  -0.000012750656669  -0.000361392005757 0
force Cu  -0.000087073737599  -0.000015098651856  -0.000870569925796 0
force Cu  -0.000161581080609   0.000007783933510  -0.000272976177538 0
force Cu  -0.000035659339332   0.000153095932549  -0.000240768199698 0
force Cu   0.000138680699750  -0.000247179015039  -0.000676435824413 0
force Cu   0.000089408092501  -0.000044101069509  -0.000318532265450 0
force Cu  -0.000089001553924   0.000029900794055  -0.000583670807315 0
force Cu   0.000431247651521   0.000375145617985   0.000605543540891 0
force Cu   0.000056945381491   0.000061454806153   0.000563779811229 0
force Cu  -0.000186671727761   0.000134409921327   0.000599611708313 0
force Cu   0.000190325903142  -0.000058669694823   0.000394805904768 0
force Cu   0.000045841122148  -0.000093696603676   0.000737965388064 0
force Cu  -0.000085265866903  -0.000024013027961   0.000786068226273 0
force Cu  -0.000037126090204  -0.000067254153809   0.000488836660136 0
force Cu  -0.000148316558768  -0.000079123006280   0.000636596565035 0
force Cu   0.000027428322910  -0.000110406201267   0.000214712377930 0
force Cu  -0.000121809079060  -0.000074661447691   0.000270739077984 0
force Cu  -0.000016633112835  -0.000014332057111   0.000374518225169 0
force Cu  -0.000195838682529  -0.000132297496193   0.000613386823104 0
force Cu  -0.000169629772946  -0.000347889479203   0.000233631974965 0
force Cu   0.000100126912981   0.000216488276342  -0.000293708871621 0
force Cu   0.000107208914436  -0.000196834511327   0.000182124201331 0
force Cu  -0.000077643186971  -0.000059643985949  -0.000167542112330 0
force Cu  -0.000106454355857   0.000519911685629  -0.000034196438385 0
force Cu   0.000043143762060   0.000101117736469  -0.000313223567760 0
force Cu   0.000040415049720   0.000375751614366  -0.000264308662377 0
force Cu  -0.000109782757394   0.000169161197335  -0.000287603137396 0
force C   0.001964707440534   0.003716250889360   0.004628875802057 1  Linear 0 0 1
force O  -0.004600928075567  -0.004593522619145  -0.003290713155056 1  Linear 0 0 1

# Energy components:
   A_diel =       -0.0030946769220134
   Eewald =    71556.1239529425511137
       EH =    85803.5216011075681308
     Eloc =  -175609.8346376320114359
      Enl =     2786.4420479615428121
     EvdW =       -1.2313655507467249
      Exc =    -1480.4927564993972737
 Exc_core =        3.6685944634885947
       KE =     1579.0872353051588561
  MuShift =       -0.0000000000006763
-------------------------------------
     Etot =   -15362.7184225787696050
       TS =        0.0021198315962545
-------------------------------------
        F =   -15362.7205424103667610


Dumping 'jdft.fillings' ... done
Dumping 'jdft.wfns' ... done
Dumping 'jdft.fluidState' ... done
Dumping 'jdft.ionpos' ... done
Dumping 'jdft.lattice' ... done
Dumping 'jdft.eigenvals' ... done
Dumping 'jdft.eigStats' ... 
	eMin: -4.312854 at state 6 ( [ +0.000000 +0.000000 +0.000000 ] spin -1 )
	HOMO: -0.155167 at state 7 ( [ +0.000000 +0.500000 +0.000000 ] spin -1 )
	mu  : -0.154816
	LUMO: -0.154468 at state 1 ( [ +0.000000 +0.500000 +0.000000 ] spin 1 )
	eMax: +0.226606 at state 8 ( [ +0.200000 +0.000000 +0.000000 ] spin -1 )
	HOMO-LUMO gap: +0.000698
	Optical gap  : +0.000698 at state 1 ( [ +0.000000 +0.500000 +0.000000 ] spin 1 )
Dumping 'jdft.Ecomponents' ... done
IonicMinimize: Iter:   0  F: -15362.720542410366761  |grad|_K:  4.016e-03  t[s]:   1646.68

#--- Lowdin population analysis ---
# oxidation-state Cu +0.188 +0.194 +0.159 +0.202 +0.095 +0.081 +0.095 -0.028 +0.032 +0.024 +0.040 +0.025 +0.189 +0.189 +0.189 +0.191 +0.062 +0.066 +0.060 +0.061 +0.073 +0.070 +0.073 +0.068 +0.073 +0.073 +0.075 +0.074 +0.077 +0.076 +0.077 +0.079 +0.075 +0.076 +0.075 +0.075 +0.078 +0.076 +0.079 +0.076 +0.079 +0.078 +0.078 +0.078 +0.076 +0.076 +0.075 +0.077 +0.075 +0.076 +0.075 +0.076 +0.077 +0.077 +0.076 +0.076 +0.073 +0.074 +0.073 +0.074 +0.072 +0.073 +0.072 +0.073 +0.063 +0.063 +0.063 +0.063 +0.025 +0.026 +0.026 +0.026 +0.096 +0.096 +0.098 +0.097
# magnetic-moments Cu +0.000 +0.000 +0.000 +0.000 +0.000 +0.000 +0.000 +0.000 +0.000 +0.000 +0.000 +0.000 +0.000 +0.000 +0.000 +0.000 +0.000 +0.000 +0.000 +0.000 +0.000 +0.000 +0.000 +0.000 +0.000 +0.000 +0.000 +0.000 +0.000 +0.000 +0.000 +0.000 +0.000 +0.000 +0.000 +0.000 +0.000 +0.000 +0.000 +0.000 +0.000 +0.000 +0.000 +0.000 +0.000 +0.000 +0.000 +0.000 +0.000 +0.000 +0.000 +0.000 +0.000 +0.000 +0.000 +0.000 +0.000 +0.000 +0.000 +0.000 +0.000 +0.000 +0.000 +0.000 +0.000 +0.000 +0.000 +0.000 +0.000 +0.000 +0.000 +0.000 +0.000 +0.000 +0.000 +0.000
# oxidation-state C +0.329
# magnetic-moments C +0.000
# oxidation-state O -0.175
# magnetic-moments O -0.000


Computing DFT-D3 correction:
# coordination-number Cu 5.628 5.586 5.829 5.595 6.865 7.238 6.865 7.850 8.889 8.346 8.369 8.346 5.581 5.581 5.581 5.581 9.018 9.018 9.018 9.018 9.080 9.081 9.080 9.081 9.103 9.102 9.103 9.102 9.144 9.144 9.144 9.144 9.147 9.147 9.147 9.147 9.150 9.150 9.150 9.150 9.163 9.163 9.163 9.163 9.150 9.150 9.150 9.150 9.148 9.148 9.148 9.148 9.144 9.144 9.144 9.144 9.102 9.102 9.102 9.102 9.080 9.080 9.080 9.080 9.016 9.016 9.016 9.016 8.343 8.343 8.343 8.343 6.863 6.863 6.863 6.863
# coordination-number C 3.198
# coordination-number O 1.053
# diagonal-C6 Cu 175.00 175.00 175.00 175.00 175.00 175.00 175.00 175.00 175.00 175.00 175.00 175.00 175.00 175.00 175.00 175.00 175.00 175.00 175.00 175.00 175.00 175.00 175.00 175.00 175.00 175.00 175.00 175.00 175.00 175.00 175.00 175.00 175.00 175.00 175.00 175.00 175.00 175.00 175.00 175.00 175.00 175.00 175.00 175.00 175.00 175.00 175.00 175.00 175.00 175.00 175.00 175.00 175.00 175.00 175.00 175.00 175.00 175.00 175.00 175.00 175.00 175.00 175.00 175.00 175.00 175.00 175.00 175.00 175.00 175.00 175.00 175.00 175.00 175.00 175.00 175.00
# diagonal-C6 C 25.04
# diagonal-C6 O 12.77
EvdW_6 =   -0.504531
EvdW_8 =   -0.726839

-------- Electronic minimization -----------
	Linear fluid (dielectric constant: 78.4, screening length: 8.12261 Bohr) occupying 0.342300 of unit cell:	Completed after 7 iterations at t[s]:   1800.30
	FillingsUpdate:  mu: -0.154887468  nElectrons: 1454.000000  magneticMoment: [ Abs: 0.00000  Tot: +0.00000 ]
ElecMinimize: Iter:   0  F: -15362.720524229014700  |grad|_K:  2.833e-07  alpha:  1.000e+00
	Linear fluid (dielectric constant: 78.4, screening length: 8.12261 Bohr) occupying 0.342290 of unit cell:	Completed after 21 iterations at t[s]:   2077.88
	Linear fluid (dielectric constant: 78.4, screening length: 8.12261 Bohr) occupying 0.342298 of unit cell:	Completed after 22 iterations at t[s]:   2169.70
	FillingsUpdate:  mu: -0.153868483  nElectrons: 1454.000000  magneticMoment: [ Abs: 0.00000  Tot: +0.00000 ]
	SubspaceRotationAdjust: set factor to 0.608
ElecMinimize: Iter:   1  F: -15362.720531165185093  |grad|_K:  5.310e-07  alpha:  1.638e-01  linmin:  2.542e-05  t[s]:   2291.78
	Linear fluid (dielectric constant: 78.4, screening length: 8.12261 Bohr) occupying 0.342268 of unit cell:	Completed after 16 iterations at t[s]:   2425.23
	Linear fluid (dielectric constant: 78.4, screening length: 8.12261 Bohr) occupying 0.342285 of unit cell:	Completed after 16 iterations at t[s]:   2516.04
	FillingsUpdate:  mu: -0.154500355  nElectrons: 1454.000000  magneticMoment: [ Abs: 0.00000  Tot: +0.00000 ]
	SubspaceRotationAdjust: set factor to 0.445
ElecMinimize: Iter:   2  F: -15362.720541847982531  |grad|_K:  2.405e-07  alpha:  7.223e-02  linmin:  6.980e-07  t[s]:   2638.63
	Linear fluid (dielectric constant: 78.4, screening length: 8.12261 Bohr) occupying 0.342281 of unit cell:	Completed after 7 iterations at t[s]:   2770.63
	Linear fluid (dielectric constant: 78.4, screening length: 8.12261 Bohr) occupying 0.342277 of unit cell:	Completed after 8 iterations at t[s]:   2859.64
	FillingsUpdate:  mu: -0.154642219  nElectrons: 1454.000000  magneticMoment: [ Abs: 0.00000  Tot: +0.00000 ]
	SubspaceRotationAdjust: set factor to 0.536
ElecMinimize: Iter:   3  F: -15362.720545915984985  |grad|_K:  1.618e-07  alpha:  1.336e-01  linmin: -7.943e-06  t[s]:   2981.82
	Linear fluid (dielectric constant: 78.4, screening length: 8.12261 Bohr) occupying 0.342277 of unit cell:	Completed after 10 iterations at t[s]:   3114.16
	Linear fluid (dielectric constant: 78.4, screening length: 8.12261 Bohr) occupying 0.342277 of unit cell:	Completed after 0 iterations at t[s]:   3200.90
	FillingsUpdate:  mu: -0.154600657  nElectrons: 1454.000000  magneticMoment: [ Abs: 0.00000  Tot: +0.00000 ]
	SubspaceRotationAdjust: set factor to 0.516
ElecMinimize: Iter:   4  F: -15362.720547717603040  |grad|_K:  1.007e-07  alpha:  1.305e-01  linmin:  1.208e-04  t[s]:   3323.08
	Linear fluid (dielectric constant: 78.4, screening length: 8.12261 Bohr) occupying 0.342274 of unit cell:	Completed after 11 iterations at t[s]:   3455.87
	Linear fluid (dielectric constant: 78.4, screening length: 8.12261 Bohr) occupying 0.342274 of unit cell:	Completed after 0 iterations at t[s]:   3542.55
	FillingsUpdate:  mu: -0.154806050  nElectrons: 1454.000000  magneticMoment: [ Abs: 0.00000  Tot: +0.00000 ]
	SubspaceRotationAdjust: set factor to 0.398
ElecMinimize: Iter:   5  F: -15362.720548383085770  |grad|_K:  1.008e-07  alpha:  1.275e-01  linmin:  3.466e-06  t[s]:   3664.78
	Linear fluid (dielectric constant: 78.4, screening length: 8.12261 Bohr) occupying 0.342275 of unit cell:	Completed after 8 iterations at t[s]:   3796.82
	Linear fluid (dielectric constant: 78.4, screening length: 8.12261 Bohr) occupying 0.342275 of unit cell:	Completed after 0 iterations at t[s]:   3883.25
	FillingsUpdate:  mu: -0.154704925  nElectrons: 1454.000000  magneticMoment: [ Abs: 0.00000  Tot: +0.00000 ]
	SubspaceRotationAdjust: set factor to 0.314
ElecMinimize: Iter:   6  F: -15362.720549062594728  |grad|_K:  4.875e-08  alpha:  1.274e-01  linmin: -6.041e-05  t[s]:   4005.92
	Linear fluid (dielectric constant: 78.4, screening length: 8.12261 Bohr) occupying 0.342275 of unit cell:	Completed after 2 iterations at t[s]:   4137.06
	Linear fluid (dielectric constant: 78.4, screening length: 8.12261 Bohr) occupying 0.342275 of unit cell:	Completed after 2 iterations at t[s]:   4224.27
	FillingsUpdate:  mu: -0.154678528  nElectrons: 1454.000000  magneticMoment: [ Abs: 0.00000  Tot: +0.00000 ]
	SubspaceRotationAdjust: set factor to 0.344
ElecMinimize: Iter:   7  F: -15362.720549312763978  |grad|_K:  3.905e-08  alpha:  2.002e-01  linmin:  2.919e-05  t[s]:   4346.91
	Linear fluid (dielectric constant: 78.4, screening length: 8.12261 Bohr) occupying 0.342275 of unit cell:	Completed after 3 iterations at t[s]:   4478.23
	Linear fluid (dielectric constant: 78.4, screening length: 8.12261 Bohr) occupying 0.342275 of unit cell:	Completed after 2 iterations at t[s]:   4565.58
	FillingsUpdate:  mu: -0.154666419  nElectrons: 1454.000000  magneticMoment: [ Abs: 0.00000  Tot: +0.00000 ]
	SubspaceRotationAdjust: set factor to 0.414
ElecMinimize: Iter:   8  F: -15362.720549425464924  |grad|_K:  2.389e-08  alpha:  1.456e-01  linmin: -1.479e-04  t[s]:   4687.97
	Linear fluid (dielectric constant: 78.4, screening length: 8.12261 Bohr) occupying 0.342275 of unit cell:	Completed after 2 iterations at t[s]:   4819.12
	Linear fluid (dielectric constant: 78.4, screening length: 8.12261 Bohr) occupying 0.342275 of unit cell:	Completed after 0 iterations at t[s]:   4906.00
	FillingsUpdate:  mu: -0.154671233  nElectrons: 1454.000000  magneticMoment: [ Abs: 0.00000  Tot: +0.00000 ]
	SubspaceRotationAdjust: set factor to 0.411
ElecMinimize: Iter:   9  F: -15362.720549478504836  |grad|_K:  1.686e-08  alpha:  1.766e-01  linmin: -2.680e-04  t[s]:   5028.36
	Linear fluid (dielectric constant: 78.4, screening length: 8.12261 Bohr) occupying 0.342274 of unit cell:	Completed after 2 iterations at t[s]:   5159.32
	Linear fluid (dielectric constant: 78.4, screening length: 8.12261 Bohr) occupying 0.342274 of unit cell:	Completed after 0 iterations at t[s]:   5245.86
	FillingsUpdate:  mu: -0.154682635  nElectrons: 1454.000000  magneticMoment: [ Abs: 0.00000  Tot: +0.00000 ]
	SubspaceRotationAdjust: set factor to 0.524
ElecMinimize: Iter:  10  F: -15362.720549501014830  |grad|_K:  1.272e-08  alpha:  1.513e-01  linmin: -3.098e-04  t[s]:   5368.11
ElecMinimize: Converged (|Delta F|<1.000000e-07 for 2 iters).
Setting wave functions to eigenvectors of Hamiltonian
Converging empty states (this may take a while): |deigs|: 1.496e-08

Computing DFT-D3 correction:
# coordination-number Cu 5.628 5.586 5.829 5.595 6.865 7.238 6.865 7.850 8.889 8.346 8.369 8.346 5.581 5.581 5.581 5.581 9.018 9.018 9.018 9.018 9.080 9.081 9.080 9.081 9.103 9.102 9.103 9.102 9.144 9.144 9.144 9.144 9.147 9.147 9.147 9.147 9.150 9.150 9.150 9.150 9.163 9.163 9.163 9.163 9.150 9.150 9.150 9.150 9.148 9.148 9.148 9.148 9.144 9.144 9.144 9.144 9.102 9.102 9.102 9.102 9.080 9.080 9.080 9.080 9.016 9.016 9.016 9.016 8.343 8.343 8.343 8.343 6.863 6.863 6.863 6.863
# coordination-number C 3.198
# coordination-number O 1.053
# diagonal-C6 Cu 175.00 175.00 175.00 175.00 175.00 175.00 175.00 175.00 175.00 175.00 175.00 175.00 175.00 175.00 175.00 175.00 175.00 175.00 175.00 175.00 175.00 175.00 175.00 175.00 175.00 175.00 175.00 175.00 175.00 175.00 175.00 175.00 175.00 175.00 175.00 175.00 175.00 175.00 175.00 175.00 175.00 175.00 175.00 175.00 175.00 175.00 175.00 175.00 175.00 175.00 175.00 175.00 175.00 175.00 175.00 175.00 175.00 175.00 175.00 175.00 175.00 175.00 175.00 175.00 175.00 175.00 175.00 175.00 175.00 175.00 175.00 175.00 175.00 175.00 175.00 175.00
# diagonal-C6 C 25.04
# diagonal-C6 O 12.77
EvdW_6 =   -0.504531
EvdW_8 =   -0.726839

# Ionic positions in cartesian coordinates:
ion Cu  -0.001192000000000   6.544245000000002  57.880676000000022 0
ion Cu  -2.384503000000001  16.932860000000009  57.880676000000022 0
ion Cu   4.765431000000001   6.544245000000002  57.880676000000022 0
ion Cu   2.382119999999999  16.932860000000009  57.880676000000022 0
ion Cu   2.384341000000000   2.713922000000001  56.525453000000013 0
ion Cu   0.001029999999999  13.102536000000006  56.525453000000013 0
ion Cu   7.150963000000002   2.713922000000001  56.525453000000013 0
ion Cu   4.767652000000002  13.102536000000006  56.525453000000013 0
ion Cu   2.383883000000000   9.359601000000003  54.993401000000027 0
ion Cu   0.000577000000000  19.748195000000006  54.993401000000027 0
ion Cu   7.150506000000002   9.359601000000003  54.993401000000027 0
ion Cu   4.767199000000001  19.748195000000006  54.993401000000027 0
ion Cu   4.766713000000001   0.017058000000000  30.268470000000015 0
ion Cu   2.383401999999999  10.405673000000004  30.268470000000015 0
ion Cu   0.000091000000000   0.017058000000000  30.268470000000015 0
ion Cu  -2.383221000000000  10.405673000000004  30.268470000000015 0
ion Cu   0.001235000000000   5.469626000000002  53.340464000000011 0
ion Cu  -2.382077000000002  15.858241000000005  53.340464000000011 0
ion Cu   4.767857000000001   5.469626000000002  53.340464000000011 0
ion Cu   2.384545999999999  15.858241000000005  53.340464000000011 0
ion Cu   2.382429000000001   1.624509000000000  51.814524000000020 0
ion Cu  -0.000882000000000  12.013124000000003  51.814524000000020 0
ion Cu   7.149052000000001   1.624509000000000  51.814524000000020 0
ion Cu   4.765741000000000  12.013124000000003  51.814524000000020 0
ion Cu   2.383874000000000   8.200606000000004  50.274244000000017 0
ion Cu   0.000562000000000  18.589220000000008  50.274244000000017 0
ion Cu   7.150496000000000   8.200606000000004  50.274244000000017 0
ion Cu   4.767185000000000  18.589220000000008  50.274244000000017 0
ion Cu  -0.000229000000000   4.367747000000000  48.718391000000011 0
ion Cu  -2.383540000000000  14.756362000000005  48.718391000000011 0
ion Cu   4.766394000000000   4.367747000000000  48.718391000000011 0
ion Cu   2.383082000000000  14.756362000000005  48.718391000000011 0
ion Cu   2.384141000000001   0.541413000000000  47.163301000000011 0
ion Cu   0.000829000000000  10.930027000000004  47.163301000000011 0
ion Cu   7.150763000000000   0.541413000000000  47.163301000000011 0
ion Cu   4.767452000000000  10.930027000000004  47.163301000000011 0
ion Cu   2.385075000000001   7.104150000000004  45.624961000000020 0
ion Cu   0.001764000000000  17.492765000000006  45.624961000000020 0
ion Cu   7.151697000000000   7.104150000000004  45.624961000000020 0
ion Cu   4.768385999999999  17.492765000000006  45.624961000000020 0
ion Cu  -0.000224000000000   3.280662000000000  44.075102000000015 0
ion Cu  -2.383535000000001  13.669277000000005  44.075102000000015 0
ion Cu   4.766398000000000   3.280662000000000  44.075102000000015 0
ion Cu   2.383087000000001  13.669277000000005  44.075102000000015 0
ion Cu  -0.001254000000000   9.845311000000004  42.525360000000013 0
ion Cu  -2.384565000000000  20.233925000000006  42.525360000000013 0
ion Cu   4.765369000000002   9.845311000000004  42.525360000000013 0
ion Cu   2.382058000000000  20.233925000000006  42.525360000000013 0
ion Cu   2.383273000000000   6.019454000000002  40.986961000000022 0
ion Cu  -0.000038000000000  16.408068000000007  40.986961000000022 0
ion Cu   7.149896000000001   6.019454000000002  40.986961000000022 0
ion Cu   4.766584000000000  16.408068000000007  40.986961000000022 0
ion Cu  -0.000329000000000   2.193847000000000  39.431989000000023 0
ion Cu  -2.383635000000001  12.582440000000005  39.431989000000023 0
ion Cu   4.766294000000002   2.193847000000000  39.431989000000023 0
ion Cu   2.382987000000001  12.582440000000005  39.431989000000023 0
ion Cu  -0.000467000000000   8.749166000000004  37.876606000000017 0
ion Cu  -2.383778000000000  19.137781000000007  37.876606000000017 0
ion Cu   4.766155000000001   8.749166000000004  37.876606000000017 0
ion Cu   2.382844000000000  19.137781000000007  37.876606000000017 0
ion Cu   2.385018000000001   4.936711000000002  36.336032000000017 0
ion Cu   0.001706000000000  15.325326000000006  36.336032000000017 0
ion Cu   7.151640000000001   4.936711000000002  36.336032000000017 0
ion Cu   4.768329000000000  15.325326000000006  36.336032000000017 0
ion Cu  -0.001826000000000   1.091781000000000  34.810327000000015 0
ion Cu  -2.385132000000000  11.480375000000004  34.810327000000015 0
ion Cu   4.764797000000000   1.091781000000000  34.810327000000015 0
ion Cu   2.381489999999999  11.480375000000004  34.810327000000015 0
ion Cu  -0.001258000000000   7.590670000000003  33.157038000000014 0
ion Cu  -2.384570000000001  17.979284000000007  33.157038000000014 0
ion Cu   4.765364000000002   7.590670000000003  33.157038000000014 0
ion Cu   2.382053000000001  17.979284000000007  33.157038000000014 0
ion Cu   2.383187000000000   3.847029000000001  31.624809000000010 0
ion Cu  -0.000124000000001  14.235643000000005  31.624809000000010 0
ion Cu   7.149810000000002   3.847029000000001  31.624809000000010 0
ion Cu   4.766498999999999  14.235643000000005  31.624809000000010 0
ion C   3.178040999999999  10.916439000000006   0.253671711739063 1  Linear 0 0 1
ion O   3.238128999999999  10.916439000000006   2.488580954921801 1  Linear 0 0 1

# Forces in Cartesian coordinates:
force Cu  -0.001874567256038  -0.002586600805666  -0.000630222936045 0
force Cu   0.000517084761811   0.001545913153979  -0.000586538711747 0
force Cu   0.000920898265747  -0.000996736343295   0.000267921185228 0
force Cu  -0.000565016988106   0.004812930977117  -0.000897817360915 0
force Cu   0.000363082251523  -0.000465344234312   0.000416880755848 0
force Cu  -0.001150655841230   0.000725050736987   0.001923321344365 0
force Cu  -0.000305662662113   0.000300950000409   0.001052820793587 0
force Cu   0.002888265541524   0.003095158573675  -0.000882110650473 0
force Cu  -0.001301755539987  -0.002525856643087   0.001841825977382 0
force Cu   0.000241011127709  -0.000025347622426   0.000148827865502 0
force Cu   0.003552526480549  -0.002365808445169  -0.004796627607843 0
force Cu  -0.000086286547166   0.000273406180601   0.000192711535996 0
force Cu   0.000074544029157  -0.000941988604010   0.000204060855334 0
force Cu  -0.000092634592907  -0.000624744893502  -0.000223768997278 0
force Cu  -0.000133667315170  -0.000816775250984   0.000130648846466 0
force Cu   0.000023770457976  -0.000619145291744   0.000158762758663 0
force Cu   0.000389904053653   0.000212589103417   0.000085160598907 0
force Cu  -0.000699053963616  -0.001417430765379   0.000888134372996 0
force Cu  -0.000268374920306  -0.000021247816708  -0.000347168101353 0
force Cu   0.000415088095685   0.000809803174400  -0.001885459196822 0
force Cu   0.000070494907447  -0.000429322816104  -0.000788164461166 0
force Cu   0.000708965266984   0.000315032091112   0.000431890731044 0
force Cu  -0.000083058680192   0.000630603196669  -0.000394465434728 0
force Cu  -0.000768717138578   0.000490123769627  -0.001591924824663 0
force Cu   0.000072710286680   0.000631776884660   0.001372933592026 0
force Cu  -0.000149206858448  -0.000269359622726   0.000100696991012 0
force Cu  -0.000242903585306  -0.000087091857566  -0.000997795745609 0
force Cu  -0.000054025448437   0.000038041407593  -0.000477312071026 0
force Cu   0.000255527442958   0.000268150470841   0.000724447964437 0
force Cu   0.000262664112304   0.000079987800665   0.000528706088722 0
force Cu  -0.000091828105845  -0.000174273584000   0.001013665322336 0
force Cu  -0.000316421834418   0.000193136341233  -0.000163079087652 0
force Cu   0.000224792851258  -0.000179771943066   0.000266785237739 0
force Cu  -0.000006476608918   0.000232143948533   0.000966289414177 0
force Cu  -0.000018485895338  -0.000050867472873   0.000482728032806 0
[...]
# oxidation-state C +0.330
# magnetic-moments C +0.000
# oxidation-state O -0.171
# magnetic-moments O -0.000


Computing DFT-D3 correction:
# coordination-number Cu 5.628 5.586 5.826 5.595 6.865 7.229 6.865 7.847 8.873 8.346 8.368 8.346 5.581 5.581 5.581 5.581 9.018 9.018 9.018 9.018 9.080 9.081 9.080 9.081 9.103 9.102 9.103 9.102 9.144 9.144 9.144 9.144 9.147 9.147 9.147 9.147 9.150 9.150 9.150 9.150 9.163 9.163 9.163 9.163 9.150 9.150 9.150 9.150 9.148 9.148 9.148 9.148 9.144 9.144 9.144 9.144 9.102 9.102 9.102 9.102 9.080 9.080 9.080 9.080 9.016 9.016 9.016 9.016 8.343 8.343 8.343 8.343 6.863 6.863 6.863 6.863
# coordination-number C 3.167
# coordination-number O 1.052
# diagonal-C6 Cu 175.00 175.00 175.00 175.00 175.00 175.00 175.00 175.00 175.00 175.00 175.00 175.00 175.00 175.00 175.00 175.00 175.00 175.00 175.00 175.00 175.00 175.00 175.00 175.00 175.00 175.00 175.00 175.00 175.00 175.00 175.00 175.00 175.00 175.00 175.00 175.00 175.00 175.00 175.00 175.00 175.00 175.00 175.00 175.00 175.00 175.00 175.00 175.00 175.00 175.00 175.00 175.00 175.00 175.00 175.00 175.00 175.00 175.00 175.00 175.00 175.00 175.00 175.00 175.00 175.00 175.00 175.00 175.00 175.00 175.00 175.00 175.00 175.00 175.00 175.00 175.00
# diagonal-C6 C 25.19
# diagonal-C6 O 12.77
EvdW_6 =   -0.504535
EvdW_8 =   -0.726835

-------- Electronic minimization -----------
	Linear fluid (dielectric constant: 78.4, screening length: 8.12261 Bohr) occupying 0.342154 of unit cell:	Completed after 10 iterations at t[s]:  39061.36
	FillingsUpdate:  mu: -0.154583785  nElectrons: 1454.000000  magneticMoment: [ Abs: 0.00000  Tot: -0.00000 ]
ElecMinimize: Iter:   0  F: -15362.720566535877879  |grad|_K:  1.619e-07  alpha:  1.000e+00
	Linear fluid (dielectric constant: 78.4, screening length: 8.12261 Bohr) occupying 0.342205 of unit cell:	Completed after 22 iterations at t[s]:  39338.41
	Linear fluid (dielectric constant: 78.4, screening length: 8.12261 Bohr) occupying 0.342156 of unit cell:	Completed after 22 iterations at t[s]:  39430.60
	FillingsUpdate:  mu: -0.154710544  nElectrons: 1454.000000  magneticMoment: [ Abs: 0.00000  Tot: -0.00000 ]
	SubspaceRotationAdjust: set factor to 0.38
ElecMinimize: Iter:   1  F: -15362.720567179636419  |grad|_K:  2.321e-08  alpha:  4.700e-02  linmin:  8.973e-05  t[s]:  39554.29
	Linear fluid (dielectric constant: 78.4, screening length: 8.12261 Bohr) occupying 0.342157 of unit cell:	Completed after 1 iterations at t[s]:  39684.67
	Linear fluid (dielectric constant: 78.4, screening length: 8.12261 Bohr) occupying 0.342157 of unit cell:	Completed after 2 iterations at t[s]:  39772.16
	FillingsUpdate:  mu: -0.154700039  nElectrons: 1454.000000  magneticMoment: [ Abs: 0.00000  Tot: -0.00000 ]
	SubspaceRotationAdjust: set factor to 0.55
ElecMinimize: Iter:   2  F: -15362.720567209631554  |grad|_K:  1.256e-08  alpha:  1.170e-01  linmin:  7.382e-05  t[s]:  39894.56
	Linear fluid (dielectric constant: 78.4, screening length: 8.12261 Bohr) occupying 0.342157 of unit cell:	Completed after 2 iterations at t[s]:  40025.32
	Linear fluid (dielectric constant: 78.4, screening length: 8.12261 Bohr) occupying 0.342157 of unit cell:	Completed after 0 iterations at t[s]:  40111.95
	FillingsUpdate:  mu: -0.154697659  nElectrons: 1454.000000  magneticMoment: [ Abs: 0.00000  Tot: -0.00000 ]
	SubspaceRotationAdjust: set factor to 0.421
ElecMinimize: Iter:   3  F: -15362.720567218008000  |grad|_K:  6.082e-09  alpha:  9.508e-02  linmin: -3.132e-03  t[s]:  40233.99
ElecMinimize: Converged (|Delta F|<1.000000e-07 for 2 iters).
Setting wave functions to eigenvectors of Hamiltonian
Converging empty states (this may take a while): |deigs|: 8.634e-11

Computing DFT-D3 correction:
# coordination-number Cu 5.628 5.586 5.826 5.595 6.865 7.229 6.865 7.847 8.873 8.346 8.368 8.346 5.581 5.581 5.581 5.581 9.018 9.018 9.018 9.018 9.080 9.081 9.080 9.081 9.103 9.102 9.103 9.102 9.144 9.144 9.144 9.144 9.147 9.147 9.147 9.147 9.150 9.150 9.150 9.150 9.163 9.163 9.163 9.163 9.150 9.150 9.150 9.150 9.148 9.148 9.148 9.148 9.144 9.144 9.144 9.144 9.102 9.102 9.102 9.102 9.080 9.080 9.080 9.080 9.016 9.016 9.016 9.016 8.343 8.343 8.343 8.343 6.863 6.863 6.863 6.863
# coordination-number C 3.167
# coordination-number O 1.052
# diagonal-C6 Cu 175.00 175.00 175.00 175.00 175.00 175.00 175.00 175.00 175.00 175.00 175.00 175.00 175.00 175.00 175.00 175.00 175.00 175.00 175.00 175.00 175.00 175.00 175.00 175.00 175.00 175.00 175.00 175.00 175.00 175.00 175.00 175.00 175.00 175.00 175.00 175.00 175.00 175.00 175.00 175.00 175.00 175.00 175.00 175.00 175.00 175.00 175.00 175.00 175.00 175.00 175.00 175.00 175.00 175.00 175.00 175.00 175.00 175.00 175.00 175.00 175.00 175.00 175.00 175.00 175.00 175.00 175.00 175.00 175.00 175.00 175.00 175.00 175.00 175.00 175.00 175.00
# diagonal-C6 C 25.19
# diagonal-C6 O 12.77
EvdW_6 =   -0.504535
EvdW_8 =   -0.726835

# Ionic positions in cartesian coordinates:
ion Cu  -0.001192000000000   6.544245000000002  57.880676000000022 0
ion Cu  -2.384503000000001  16.932860000000009  57.880676000000022 0
ion Cu   4.765431000000001   6.544245000000002  57.880676000000022 0
ion Cu   2.382119999999999  16.932860000000009  57.880676000000022 0
ion Cu   2.384341000000000   2.713922000000001  56.525453000000013 0
ion Cu   0.001029999999999  13.102536000000006  56.525453000000013 0
ion Cu   7.150963000000002   2.713922000000001  56.525453000000013 0
ion Cu   4.767652000000002  13.102536000000006  56.525453000000013 0
ion Cu   2.383883000000000   9.359601000000003  54.993401000000027 0
ion Cu   0.000577000000000  19.748195000000006  54.993401000000027 0
ion Cu   7.150506000000002   9.359601000000003  54.993401000000027 0
ion Cu   4.767199000000001  19.748195000000006  54.993401000000027 0
ion Cu   4.766713000000001   0.017058000000000  30.268470000000015 0
ion Cu   2.383401999999999  10.405673000000004  30.268470000000015 0
ion Cu   0.000091000000000   0.017058000000000  30.268470000000015 0
ion Cu  -2.383221000000000  10.405673000000004  30.268470000000015 0
ion Cu   0.001235000000000   5.469626000000002  53.340464000000011 0
ion Cu  -2.382077000000002  15.858241000000005  53.340464000000011 0
ion Cu   4.767857000000001   5.469626000000002  53.340464000000011 0
ion Cu   2.384545999999999  15.858241000000005  53.340464000000011 0
ion Cu   2.382429000000001   1.624509000000000  51.814524000000020 0
ion Cu  -0.000882000000000  12.013124000000003  51.814524000000020 0
ion Cu   7.149052000000001   1.624509000000000  51.814524000000020 0
ion Cu   4.765741000000000  12.013124000000003  51.814524000000020 0
ion Cu   2.383874000000000   8.200606000000004  50.274244000000017 0
ion Cu   0.000562000000000  18.589220000000008  50.274244000000017 0
ion Cu   7.150496000000000   8.200606000000004  50.274244000000017 0
ion Cu   4.767185000000000  18.589220000000008  50.274244000000017 0
ion Cu  -0.000229000000000   4.367747000000000  48.718391000000011 0
ion Cu  -2.383540000000000  14.756362000000005  48.718391000000011 0
ion Cu   4.766394000000000   4.367747000000000  48.718391000000011 0
ion Cu   2.383082000000000  14.756362000000005  48.718391000000011 0
ion Cu   2.384141000000001   0.541413000000000  47.163301000000011 0
ion Cu   0.000829000000000  10.930027000000004  47.163301000000011 0
ion Cu   7.150763000000000   0.541413000000000  47.163301000000011 0
ion Cu   4.767452000000000  10.930027000000004  47.163301000000011 0
ion Cu   2.385075000000001   7.104150000000004  45.624961000000020 0
ion Cu   0.001764000000000  17.492765000000006  45.624961000000020 0
ion Cu   7.151697000000000   7.104150000000004  45.624961000000020 0
ion Cu   4.768385999999999  17.492765000000006  45.624961000000020 0
ion Cu  -0.000224000000000   3.280662000000000  44.075102000000015 0
ion Cu  -2.383535000000001  13.669277000000005  44.075102000000015 0
ion Cu   4.766398000000000   3.280662000000000  44.075102000000015 0
ion Cu   2.383087000000001  13.669277000000005  44.075102000000015 0
ion Cu  -0.001254000000000   9.845311000000004  42.525360000000013 0
ion Cu  -2.384565000000000  20.233925000000006  42.525360000000013 0
ion Cu   4.765369000000002   9.845311000000004  42.525360000000013 0
ion Cu   2.382058000000000  20.233925000000006  42.525360000000013 0
ion Cu   2.383273000000000   6.019454000000002  40.986961000000022 0
ion Cu  -0.000038000000000  16.408068000000007  40.986961000000022 0
ion Cu   7.149896000000001   6.019454000000002  40.986961000000022 0
ion Cu   4.766584000000000  16.408068000000007  40.986961000000022 0
ion Cu  -0.000329000000000   2.193847000000000  39.431989000000023 0
ion Cu  -2.383635000000001  12.582440000000005  39.431989000000023 0
ion Cu   4.766294000000002   2.193847000000000  39.431989000000023 0
ion Cu   2.382987000000001  12.582440000000005  39.431989000000023 0
ion Cu  -0.000467000000000   8.749166000000004  37.876606000000017 0
ion Cu  -2.383778000000000  19.137781000000007  37.876606000000017 0
ion Cu   4.766155000000001   8.749166000000004  37.876606000000017 0
ion Cu   2.382844000000000  19.137781000000007  37.876606000000017 0
ion Cu   2.385018000000001   4.936711000000002  36.336032000000017 0
ion Cu   0.001706000000000  15.325326000000006  36.336032000000017 0
ion Cu   7.151640000000001   4.936711000000002  36.336032000000017 0
ion Cu   4.768329000000000  15.325326000000006  36.336032000000017 0
ion Cu  -0.001826000000000   1.091781000000000  34.810327000000015 0
ion Cu  -2.385132000000000  11.480375000000004  34.810327000000015 0
ion Cu   4.764797000000000   1.091781000000000  34.810327000000015 0
ion Cu   2.381489999999999  11.480375000000004  34.810327000000015 0
ion Cu  -0.001258000000000   7.590670000000003  33.157038000000014 0
ion Cu  -2.384570000000001  17.979284000000007  33.157038000000014 0
ion Cu   4.765364000000002   7.590670000000003  33.157038000000014 0
ion Cu   2.382053000000001  17.979284000000007  33.157038000000014 0
ion Cu   2.383187000000000   3.847029000000001  31.624809000000010 0
ion Cu  -0.000124000000001  14.235643000000005  31.624809000000010 0
ion Cu   7.149810000000002   3.847029000000001  31.624809000000010 0
ion Cu   4.766498999999999  14.235643000000005  31.624809000000010 0
ion C   3.178040999999999  10.916439000000006   0.272946829848174 1  Linear 0 0 1
ion O   3.238128999999999  10.916439000000006   2.510291786974973 1  Linear 0 0 1

# Forces in Cartesian coordinates:
force Cu  -0.001803997217370  -0.002469084396150  -0.000570476807158 0
force Cu   0.000511892833537   0.001551350114658  -0.000552739780508 0
force Cu   0.000819582755415  -0.000714100652370   0.000388354993310 0
force Cu  -0.000557883600368   0.004762956218757  -0.000859517083305 0
force Cu   0.000361318711352  -0.000459203921843   0.000416548220039 0
force Cu  -0.000984030025021   0.000594505143992   0.002095201877445 0
force Cu  -0.000304391227002   0.000296876606014   0.001041370638090 0
force Cu   0.002422617877293   0.002455587770479  -0.000022109003296 0
force Cu  -0.001269633503851  -0.002475322551869   0.001902765030176 0
force Cu   0.000240510785061  -0.000026095739089   0.000128656273939 0
force Cu   0.003522866792723  -0.002343231547193  -0.004765242633823 0
force Cu  -0.000085588856142   0.000269642858882   0.000168703254591 0
force Cu   0.000077060372272  -0.000947858792162   0.000197752661507 0
force Cu  -0.000092993532261  -0.000621825854048  -0.000212225288165 0
force Cu  -0.000135797520768  -0.000821852309561   0.000125650964673 0
force Cu   0.000023922302448  -0.000619950027477   0.000171487936797 0
force Cu   0.000384760271386   0.000207618703810   0.000047114558765 0
force Cu  -0.000706416834386  -0.001414649118512   0.000846126028500 0
force Cu  -0.000268310210018  -0.000009491704169  -0.000374052669359 0
force Cu   0.000420479140420   0.000781901151932  -0.001899871150701 0
force Cu   0.000071140612096  -0.000424310910780  -0.000827208046104 0
force Cu   0.000729554328211   0.000303716136645   0.000413772365818 0
force Cu  -0.000084152019852   0.000624422274526  -0.000431957122265 0
force Cu  -0.000791722020278   0.000472818051698  -0.001555637775244 0
force Cu   0.000071002526502   0.000628007802584   0.001303405831370 0
force Cu  -0.000146859929578  -0.000279661506812   0.000096607649516 0
force Cu  -0.000238236869784  -0.000087243841881  -0.001054542565624 0
force Cu  -0.000054515788447   0.000034791605082  -0.000482471086231 0
force Cu   0.000257176870204   0.000288032643757   0.000738090864469 0
force Cu   0.000259337434449   0.000059225185749   0.000529359817375 0
force Cu  -0.000093112899935  -0.000151934879694   0.001028101818621 0
force Cu  -0.000312192818674   0.000175560542606  -0.000177149139278 0
force Cu   0.000226758290511  -0.000180949790357   0.000319923895010 0
force Cu  -0.000001435490337   0.000228496194620   0.000984686771127 0
force Cu  -0.000021179894806  -0.000042814993141   0.000538001926090 0
force Cu   0.000203550608124   0.000193685932163   0.000537904022795 0
force Cu   0.000205971260376   0.000285288135374   0.000307041649296 0
force Cu  -0.000020382458907   0.000432775983481  -0.000219594923438 0
force Cu  -0.000174298400495   0.000272856948269  -0.000562830115833 0
force Cu   0.000195479944973   0.000268773598095  -0.000037020261532 0
force Cu   0.000010873971782  -0.000170313644513   0.000101165271034 0
force Cu   0.000156773251127  -0.000134475328086  -0.000086049761696 0
force Cu  -0.000061437314075   0.000103401298903  -0.000226691768147 0
force Cu  -0.000244790639232  -0.000049004656498  -0.000080874122488 0
force Cu  -0.000118156811284  -0.000384552988310  -0.000106484847243 0
force Cu  -0.000219372805556  -0.000021602517333  -0.000319295157588 0
force Cu  -0.000099369227826  -0.000376066345151  -0.000084670308178 0
force Cu   0.000020622952093  -0.000296640401012  -0.000111323048862 0
force Cu   0.000094764271039   0.000176916162471  -0.000640765233715 0
force Cu   0.000081085494719  -0.000038087775734  -0.000358968735883 0
force Cu  -0.000086441514276   0.000008269974893  -0.000871449272271 0
force Cu  -0.000158985212655  -0.000021064938171  -0.000265838974059 0
force Cu  -0.000038810369259   0.000167223267839  -0.000252894205028 0
force Cu   0.000139409349524  -0.000261724603082  -0.000669874076366 0
force Cu   0.000090776426513  -0.000027956789577  -0.000327348206927 0
force Cu  -0.000087009120713   0.000013265826524  -0.000580285565450 0
force Cu   0.000431161234640   0.000384301643660   0.000607298770809 0
force Cu   0.000051863192419   0.000060753847607   0.000551736217555 0
force Cu  -0.000192460475076   0.000143993003713   0.000602338035579 0
force Cu   0.000190158839651  -0.000062839435112   0.000384615433947 0
force Cu   0.000047372676073  -0.000080593124112   0.000729253545058 0
force Cu  -0.000081109131532  -0.000037698649040   0.000773238483962 0
force Cu  -0.000034671114903  -0.000052074019369   0.000472921208418 0
force Cu  -0.000145103590258  -0.000098209708890   0.000626967036092 0
force Cu   0.000027503753600  -0.000103830845600   0.000191410407778 0
force Cu  -0.000121637231354  -0.000081837237841   0.000255961308199 0
force Cu  -0.000018306421113  -0.000006823900830   0.000356750213627 0
force Cu  -0.000190183292599  -0.000136868150775   0.000598516882210 0
force Cu  -0.000170700651187  -0.000337484103032   0.000208537687298 0
force Cu   0.000096562239920   0.000205433259160  -0.000337878720842 0
force Cu   0.000104686745411  -0.000185986201419   0.000153044081398 0
force Cu  -0.000077919035825  -0.000067561902405  -0.000208822158784 0
force Cu  -0.000107477073216   0.000521847620034  -0.000056945644308 0
force Cu   0.000045596119869   0.000091304647928  -0.000344699445637 0
force Cu   0.000043299994657   0.000376599512345  -0.000286394321262 0
force Cu  -0.000109615922992   0.000157782251142  -0.000318207958765 0
force C   0.002264228444347   0.004165400239118  -0.000095169861497 1  Linear 0 0 1
force O  -0.004485143644962  -0.004473897156788  -0.000000055658755 1  Linear 0 0 1

# Energy components:
   A_diel =       -0.0029962255514812
   Eewald =    71552.0853626653697575
       EH =    85799.5964860232634237
     Eloc =  -175601.8740825669956394
      Enl =     2786.4433665994956755
     EvdW =       -1.2313703108121095
      Exc =    -1480.4923419952428958
 Exc_core =        3.6685984704775443
       KE =     1579.0885337938902921
  MuShift =       -0.0000000000006763
-------------------------------------
     Etot =   -15362.7184435461040266
       TS =        0.0021236719041170
-------------------------------------
        F =   -15362.7205672180080001


Dumping 'jdft.fillings' ... done
Dumping 'jdft.wfns' ... done
Dumping 'jdft.fluidState' ... done
Dumping 'jdft.ionpos' ... done
Dumping 'jdft.lattice' ... done
Dumping 'jdft.eigenvals' ... done
Dumping 'jdft.eigStats' ... 
	eMin: -4.312210 at state 6 ( [ +0.000000 +0.000000 +0.000000 ] spin -1 )
	HOMO: -0.154997 at state 1 ( [ +0.000000 +0.500000 +0.000000 ] spin 1 )
	mu  : -0.154698
	LUMO: -0.154356 at state 7 ( [ +0.000000 +0.500000 +0.000000 ] spin -1 )
	eMax: +0.226626 at state 2 ( [ +0.200000 +0.000000 +0.000000 ] spin 1 )
	HOMO-LUMO gap: +0.000641
	Optical gap  : +0.000641 at state 7 ( [ +0.000000 +0.500000 +0.000000 ] spin -1 )
Dumping 'jdft.Ecomponents' ... done
IonicMinimize: Iter:   7  F: -15362.720567218008000  |grad|_K:  6.730e-05  alpha:  1.000e+00  linmin: -6.172e-03  t[s]:  40614.48
IonicMinimize: Converged (|grad|_K<1.000000e-04).

#--- Lowdin population analysis ---
# oxidation-state Cu +0.187 +0.194 +0.159 +0.202 +0.095 +0.080 +0.095 -0.028 +0.033 +0.024 +0.039 +0.025 +0.189 +0.189 +0.189 +0.191 +0.062 +0.066 +0.060 +0.061 +0.073 +0.070 +0.073 +0.068 +0.073 +0.073 +0.075 +0.074 +0.077 +0.076 +0.077 +0.079 +0.075 +0.076 +0.075 +0.075 +0.078 +0.076 +0.079 +0.076 +0.079 +0.078 +0.078 +0.078 +0.076 +0.076 +0.075 +0.077 +0.075 +0.076 +0.075 +0.076 +0.077 +0.077 +0.076 +0.076 +0.073 +0.074 +0.073 +0.074 +0.072 +0.073 +0.072 +0.073 +0.063 +0.063 +0.063 +0.063 +0.025 +0.026 +0.026 +0.026 +0.096 +0.096 +0.098 +0.097
# magnetic-moments Cu +0.000 -0.000 -0.000 -0.000 -0.000 -0.000 -0.000 +0.000 -0.000 -0.000 +0.000 -0.000 -0.000 -0.000 -0.000 -0.000 +0.000 +0.000 +0.000 -0.000 +0.000 +0.000 +0.000 -0.000 -0.000 -0.000 -0.000 -0.000 -0.000 -0.000 +0.000 -0.000 +0.000 +0.000 -0.000 -0.000 -0.000 -0.000 +0.000 -0.000 +0.000 -0.000 +0.000 -0.000 -0.000 -0.000 -0.000 -0.000 +0.000 -0.000 +0.000 +0.000 -0.000 -0.000 +0.000 -0.000 +0.000 +0.000 +0.000 -0.000 -0.000 -0.000 +0.000 -0.000 -0.000 -0.000 -0.000 -0.000 -0.000 +0.000 -0.000 -0.000 -0.000 -0.000 -0.000 -0.000
# oxidation-state C +0.330
# magnetic-moments C +0.000
# oxidation-state O -0.172
# magnetic-moments O -0.000


Dumping 'jdft.n_up' ... done
Dumping 'jdft.n_dn' ... done
Dumping 'jdft.tau_up' ... done
Dumping 'jdft.tau_dn' ... done
Dumping 'jdft.eigenvals' ... done
Dumping 'jdft.eigStats' ... 
	eMin: -4.312210 at state 6 ( [ +0.000000 +0.000000 +0.000000 ] spin -1 )
	HOMO: -0.154997 at state 1 ( [ +0.000000 +0.500000 +0.000000 ] spin 1 )
	mu  : -0.154698
	LUMO: -0.154356 at state 7 ( [ +0.000000 +0.500000 +0.000000 ] spin -1 )
	eMax: +0.226626 at state 2 ( [ +0.200000 +0.000000 +0.000000 ] spin 1 )
	HOMO-LUMO gap: +0.000641
	Optical gap  : +0.000641 at state 7 ( [ +0.000000 +0.500000 +0.000000 ] spin -1 )
Dumping 'jdft.kPts' ... done
Dumping 'jdft.kMap' ... done
Dumping 'jdft.dosUp' ... done.
Dumping 'jdft.dosDn' ... done.
End date and time: Sun Feb 20 14:01:20 2022  (Duration: 0-11:20:04.12)
Done!
