
*************** JDFTx 1.6.0  ***************

Start date and time: Sat Feb 26 10:21:10 2022
Executable /projects/musgravc/apps/jdftx-1.6.1/build/jdftx with command-line: -i in
Running on hosts (process indices):  shas0859.rc.int.colorado.edu (0-23)
Divided in process groups (process indices):  0 (0)  1 (1)  2 (2)  3 (3)  4 (4)  5 (5)  6 (6)  7 (7)  8 (8)  9 (9)  10 (10)  11 (11)  12 (12)  13 (13)  14 (14)  15 (15)  16 (16)  17 (17)  18 (18)  19 (19)  20 (20)  21 (21)  22 (22)  23 (23)
Resource initialization completed at t[s]:      0.00
Run totals: 24 processes, 24 threads, 0 GPUs


Input parsed successfully to the following command list (including defaults):

basis kpoint-dependent
converge-empty-states yes
coords-type Cartesian
core-overlap-check none
coulomb-interaction Periodic
davidson-band-ratio 1.1
density-of-states Etol 1.000000e-06 Esigma 1.000000e-03 \
		Complete \
	Total \
	OrthoOrbital Ni 1   s \
	OrthoOrbital Ni 1   p \
	OrthoOrbital Ni 1   px \
	OrthoOrbital Ni 1   py \
	OrthoOrbital Ni 1   pz \
	OrthoOrbital Ni 1   d \
	OrthoOrbital Ni 1   dxy \
	OrthoOrbital Ni 1   dyz \
	OrthoOrbital Ni 1   dz2 \
	OrthoOrbital Ni 1   dxz \
	OrthoOrbital Ni 1   dx2-y2 \
	OrthoOrbital Ni 2   s \
	OrthoOrbital Ni 2   p \
	OrthoOrbital Ni 2   px \
	OrthoOrbital Ni 2   py \
	OrthoOrbital Ni 2   pz \
	OrthoOrbital Ni 2   d \
	OrthoOrbital Ni 2   dxy \
	OrthoOrbital Ni 2   dyz \
	OrthoOrbital Ni 2   dz2 \
	OrthoOrbital Ni 2   dxz \
	OrthoOrbital Ni 2   dx2-y2 \
	OrthoOrbital Au 1   s \
	OrthoOrbital Au 1   p \
	OrthoOrbital Au 1   px \
	OrthoOrbital Au 1   py \
	OrthoOrbital Au 1   pz \
	OrthoOrbital Au 1   d \
	OrthoOrbital Au 1   dxy \
	OrthoOrbital Au 1   dyz \
	OrthoOrbital Au 1   dz2 \
	OrthoOrbital Au 1   dxz \
	OrthoOrbital Au 1   dx2-y2 \
	OrthoOrbital Au 2   s \
	OrthoOrbital Au 2   p \
	OrthoOrbital Au 2   px \
	OrthoOrbital Au 2   py \
	OrthoOrbital Au 2   pz \
	OrthoOrbital Au 2   d \
	OrthoOrbital Au 2   dxy \
	OrthoOrbital Au 2   dyz \
	OrthoOrbital Au 2   dz2 \
	OrthoOrbital Au 2   dxz \
	OrthoOrbital Au 2   dx2-y2 \
	OrthoOrbital Au 3   s \
	OrthoOrbital Au 3   p \
	OrthoOrbital Au 3   px \
	OrthoOrbital Au 3   py \
	OrthoOrbital Au 3   pz \
	OrthoOrbital Au 3   d \
	OrthoOrbital Au 3   dxy \
	OrthoOrbital Au 3   dyz \
	OrthoOrbital Au 3   dz2 \
	OrthoOrbital Au 3   dxz \
	OrthoOrbital Au 3   dx2-y2 \
	OrthoOrbital Au 4   s \
	OrthoOrbital Au 4   p \
	OrthoOrbital Au 4   px \
	OrthoOrbital Au 4   py \
	OrthoOrbital Au 4   pz \
	OrthoOrbital Au 4   d \
	OrthoOrbital Au 4   dxy \
	OrthoOrbital Au 4   dyz \
	OrthoOrbital Au 4   dz2 \
	OrthoOrbital Au 4   dxz \
	OrthoOrbital Au 4   dx2-y2 \
	OrthoOrbital Au 5   s \
	OrthoOrbital Au 5   p \
	OrthoOrbital Au 5   px \
	OrthoOrbital Au 5   py \
	OrthoOrbital Au 5   pz \
	OrthoOrbital Au 5   d \
	OrthoOrbital Au 5   dxy \
	OrthoOrbital Au 5   dyz \
	OrthoOrbital Au 5   dz2 \
	OrthoOrbital Au 5   dxz \
	OrthoOrbital Au 5   dx2-y2 \
	OrthoOrbital Au 6   s \
	OrthoOrbital Au 6   p \
	OrthoOrbital Au 6   px \
	OrthoOrbital Au 6   py \
	OrthoOrbital Au 6   pz \
	OrthoOrbital Au 6   d \
	OrthoOrbital Au 6   dxy \
	OrthoOrbital Au 6   dyz \
	OrthoOrbital Au 6   dz2 \
	OrthoOrbital Au 6   dxz \
	OrthoOrbital Au 6   dx2-y2 \
	OrthoOrbital Ni 1   s \
	OrthoOrbital Ni 1   p \
	OrthoOrbital Ni 1   px \
	OrthoOrbital Ni 1   py \
	OrthoOrbital Ni 1   pz \
	OrthoOrbital Ni 1   d \
	OrthoOrbital Ni 1   dxy \
	OrthoOrbital Ni 1   dyz \
	OrthoOrbital Ni 1   dz2 \
	OrthoOrbital Ni 1   dxz \
	OrthoOrbital Ni 1   dx2-y2 \
	OrthoOrbital Ni 2   s \
	OrthoOrbital Ni 2   p \
	OrthoOrbital Ni 2   px \
	OrthoOrbital Ni 2   py \
	OrthoOrbital Ni 2   pz \
	OrthoOrbital Ni 2   d \
	OrthoOrbital Ni 2   dxy \
	OrthoOrbital Ni 2   dyz \
	OrthoOrbital Ni 2   dz2 \
	OrthoOrbital Ni 2   dxz \
	OrthoOrbital Ni 2   dx2-y2 \
	OrthoOrbital Au 1   s \
	OrthoOrbital Au 1   p \
	OrthoOrbital Au 1   px \
	OrthoOrbital Au 1   py \
	OrthoOrbital Au 1   pz \
	OrthoOrbital Au 1   d \
	OrthoOrbital Au 1   dxy \
	OrthoOrbital Au 1   dyz \
	OrthoOrbital Au 1   dz2 \
	OrthoOrbital Au 1   dxz \
	OrthoOrbital Au 1   dx2-y2 \
	OrthoOrbital Au 2   s \
	OrthoOrbital Au 2   p \
	OrthoOrbital Au 2   px \
	OrthoOrbital Au 2   py \
	OrthoOrbital Au 2   pz \
	OrthoOrbital Au 2   d \
	OrthoOrbital Au 2   dxy \
	OrthoOrbital Au 2   dyz \
	OrthoOrbital Au 2   dz2 \
	OrthoOrbital Au 2   dxz \
	OrthoOrbital Au 2   dx2-y2 \
	OrthoOrbital Au 3   s \
	OrthoOrbital Au 3   p \
	OrthoOrbital Au 3   px \
	OrthoOrbital Au 3   py \
	OrthoOrbital Au 3   pz \
	OrthoOrbital Au 3   d \
	OrthoOrbital Au 3   dxy \
	OrthoOrbital Au 3   dyz \
	OrthoOrbital Au 3   dz2 \
	OrthoOrbital Au 3   dxz \
	OrthoOrbital Au 3   dx2-y2 \
	OrthoOrbital Au 4   s \
	OrthoOrbital Au 4   p \
	OrthoOrbital Au 4   px \
	OrthoOrbital Au 4   py \
	OrthoOrbital Au 4   pz \
	OrthoOrbital Au 4   d \
	OrthoOrbital Au 4   dxy \
	OrthoOrbital Au 4   dyz \
	OrthoOrbital Au 4   dz2 \
	OrthoOrbital Au 4   dxz \
	OrthoOrbital Au 4   dx2-y2 \
	OrthoOrbital Au 5   s \
	OrthoOrbital Au 5   p \
	OrthoOrbital Au 5   px \
	OrthoOrbital Au 5   py \
	OrthoOrbital Au 5   pz \
	OrthoOrbital Au 5   d \
	OrthoOrbital Au 5   dxy \
	OrthoOrbital Au 5   dyz \
	OrthoOrbital Au 5   dz2 \
	OrthoOrbital Au 5   dxz \
	OrthoOrbital Au 5   dx2-y2 \
	OrthoOrbital Au 6   s \
	OrthoOrbital Au 6   p \
	OrthoOrbital Au 6   px \
	OrthoOrbital Au 6   py \
	OrthoOrbital Au 6   pz \
	OrthoOrbital Au 6   d \
	OrthoOrbital Au 6   dxy \
	OrthoOrbital Au 6   dyz \
	OrthoOrbital Au 6   dz2 \
	OrthoOrbital Au 6   dxz \
	OrthoOrbital Au 6   dx2-y2
dump End ElecDensity KEdensity BandEigs EigStats RhoAtom DOS Kpoints
dump Ionic State IonicPositions Lattice EigStats Ecomponents
dump 
dump 
dump 
dump 
dump 
dump 
dump 
dump 
dump-name jdft.$VAR
elec-cutoff 20
elec-eigen-algo Davidson
elec-ex-corr gga-PBE
elec-initial-magnetization 0.000000 no
elec-n-bands 123
elec-smearing Fermi 0.001
electronic-minimize  \
	dirUpdateScheme      FletcherReeves \
	linminMethod         DirUpdateRecommended \
	nIterations          100 \
	history              15 \
	knormThreshold       0 \
	energyDiffThreshold  1e-07 \
	nEnergyDiff          2 \
	alphaTstart          1 \
	alphaTmin            1e-10 \
	updateTestStepSize   yes \
	alphaTreduceFactor   0.1 \
	alphaTincreaseFactor 3 \
	nAlphaAdjustMax      3 \
	wolfeEnergy          0.0001 \
	wolfeGradient        0.9 \
	fdTest               no
exchange-regularization WignerSeitzTruncated
fluid LinearPCM 298.000000 1.013250
fluid-anion F- 0.5 MeanFieldLJ \
	epsBulk 1 \
	pMol 0 \
	epsInf 1 \
	Pvap 0 \
	sigmaBulk 0 \
	Rvdw 2.24877 \
	Res 0 \
	tauNuc 343133
fluid-cation Na+ 0.5 MeanFieldLJ \
	epsBulk 1 \
	pMol 0 \
	epsInf 1 \
	Pvap 0 \
	sigmaBulk 0 \
	Rvdw 2.19208 \
	Res 0 \
	tauNuc 343133
fluid-ex-corr lda-TF lda-PZ
fluid-gummel-loop 10 1.000000e-05
fluid-minimize  \
	dirUpdateScheme      PolakRibiere \
	linminMethod         DirUpdateRecommended \
	nIterations          400 \
	history              15 \
	knormThreshold       1e-11 \
	energyDiffThreshold  0 \
	nEnergyDiff          2 \
	alphaTstart          1 \
	alphaTmin            1e-10 \
	updateTestStepSize   yes \
	alphaTreduceFactor   0.1 \
	alphaTincreaseFactor 3 \
	nAlphaAdjustMax      6 \
	wolfeEnergy          0.0001 \
	wolfeGradient        0.9 \
	fdTest               no
fluid-solvent H2O 55.338 ScalarEOS \
	epsBulk 78.4 \
	pMol 0.92466 \
	epsInf 1.77 \
	Pvap 1.06736e-10 \
	sigmaBulk 4.62e-05 \
	Rvdw 2.61727 \
	Res 1.42 \
	tauNuc 343133 \
	poleEl 15 7 1
forces-output-coords Positions
ion Ni   0.000000000000000   5.274699999999999   3.956025000000000 1
ion Ni   0.000000000000000   0.000000000000000   9.230725000000000 1
ion Ni   0.000000000000000   5.274699999999999  14.505424999999999 1
ion Ni   0.000000000000000   0.000000000000000  19.780125000000002 1
ion Au   3.729776000000000   7.912049999999999   1.318675000000000 1
ion Au   3.729776000000000   2.637350000000000   6.593374999999999 1
ion Au   3.729776000000000   2.637350000000000   1.318675000000000 1
ion Au   3.729776000000000   7.912049999999999   6.593374999999999 1
ion Au   0.000000000000000   5.274699999999999   9.230725000000000 1
ion Au   0.000000000000000   0.000000000000000   3.956025000000000 1
ion Au   3.729776000000000   7.912049999999999  11.868074999999999 1
ion Au   3.729776000000000   2.637350000000000  17.142775000000000 1
ion Au   3.729776000000000   2.637350000000000  11.868074999999999 1
ion Au   3.729776000000000   7.912049999999999  17.142775000000000 1
ion Au   0.000000000000000   5.274699999999999  19.780125000000002 1
ion Au   0.000000000000000   0.000000000000000  14.505424999999999 1
ion-species /projects/musgravc/apps/jdftx-1.6.0/build/pseudopotentials/GBRV_v1.5/$ID_pbe_v1.uspp
ion-species /projects/musgravc/apps/jdftx-1.6.0/build/pseudopotentials/GBRV_v1.5/$ID_pbe_v1.2.uspp
ion-species /projects/musgravc/apps/jdftx-1.6.0/build/pseudopotentials/GBRV_v1.5/$ID_pbe_v1.4.uspp
ion-species /projects/musgravc/apps/jdftx-1.6.0/build/pseudopotentials/GBRV_v1.5/$ID_pbe_v1.5.uspp
ion-width Ecut
ionic-minimize  \
	dirUpdateScheme      L-BFGS \
	linminMethod         DirUpdateRecommended \
	nIterations          100 \
	history              15 \
	knormThreshold       0.0001 \
	energyDiffThreshold  1e-06 \
	nEnergyDiff          2 \
	alphaTstart          1 \
	alphaTmin            1e-10 \
	updateTestStepSize   yes \
	alphaTreduceFactor   0.1 \
	alphaTincreaseFactor 3 \
	nAlphaAdjustMax      3 \
	wolfeEnergy          0.0001 \
	wolfeGradient        0.9 \
	fdTest               no
kpoint   0.000000000000   0.000000000000   0.000000000000  1.00000000000000
kpoint-folding 8 6 1 
latt-move-scale 0 0 0
latt-scale 1 1 1 
lattice  \
	   7.459552000000000    0.000000000000000    0.000000000000000  \
	   0.000000000000000   10.549400000000000    0.000000000000000  \
	   0.000000000000000    0.000000000000000   52.746999000000002 
lattice-minimize  \
	dirUpdateScheme      L-BFGS \
	linminMethod         DirUpdateRecommended \
	nIterations          0 \
	history              15 \
	knormThreshold       0 \
	energyDiffThreshold  1e-06 \
	nEnergyDiff          2 \
	alphaTstart          1 \
	alphaTmin            1e-10 \
	updateTestStepSize   yes \
	alphaTreduceFactor   0.1 \
	alphaTincreaseFactor 3 \
	nAlphaAdjustMax      3 \
	wolfeEnergy          0.0001 \
	wolfeGradient        0.9 \
	fdTest               no
lcao-params 30 1e-06 0.001
pcm-variant CANDLE
spintype z-spin
subspace-rotation-factor 1 yes
symmetries automatic
symmetry-threshold 0.0001
target-mu -0.0978 no

van-der-waals D3



---------- Setting up symmetries ----------

Found 8 point-group symmetries of the bravais lattice
Found 4 space-group symmetries with basis
Applied RMS atom displacement 2.19604e-16 bohrs to make symmetries exact.

---------- Initializing the Grid ----------
R = 
[      7.45955            0            0  ]
[            0      10.5494            0  ]
[            0            0       52.747  ]
unit cell volume = 4150.86
G =
[   0.842301          0          0  ]
[          0   0.595596          0  ]
[          0          0   0.119119  ]
Minimum fftbox size, Smin = [  32  44  216  ]
Chosen fftbox size, S = [  32  48  216  ]

---------- Exchange Correlation functional ----------
Initalized PBE GGA exchange.
Initalized PBE GGA correlation.

---------- Setting up pseudopotentials ----------
Width of ionic core gaussian charges (only for fluid interactions / plotting) set to 0.397384

Reading pseudopotential file '/projects/musgravc/apps/jdftx-1.6.0/build/pseudopotentials/GBRV_v1.5/ni_pbe_v1.4.uspp':
  Title: Ni.  Created by USPP 7.3.6 on 1-4-15
  Reference state energy: -170.398381.  18 valence electrons in orbitals:
    |300>  occupation: 2  eigenvalue: -4.804705
    |310>  occupation: 6  eigenvalue: -3.347751
    |320>  occupation: 8  eigenvalue: -1.042415
    |400>  occupation: 0  eigenvalue: -0.795539
    |410>  occupation: 0  eigenvalue: -0.551375
  lMax: 2  lLocal: 3  QijEcut: 6.5
  6 projectors sampled on a log grid with 611 points:
    l: 0  eig: -4.804708  rCut: 1.44
    l: 0  eig: -0.795541  rCut: 1.44
    l: 1  eig: -3.347753  rCut: 1.55
    l: 1  eig: 0.500000  rCut: 1.55
    l: 2  eig: -1.042418  rCut: 1.5
    l: 2  eig: -0.450000  rCut: 1.5
  Partial core density with radius 0.65
  Transforming core density to a uniform radial grid of dG=0.02 with 1180 points.
  Transforming local potential to a uniform radial grid of dG=0.02 with 1180 points.
  Transforming nonlocal projectors to a uniform radial grid of dG=0.02 with 432 points.
  Transforming density augmentations to a uniform radial grid of dG=0.02 with 1180 points.
  Transforming atomic orbitals to a uniform radial grid of dG=0.02 with 432 points.
  Core radius for overlap checks: 1.55 bohrs.

Reading pseudopotential file '/projects/musgravc/apps/jdftx-1.6.0/build/pseudopotentials/GBRV_v1.5/au_pbe_v1.uspp':
  Title: Au.  Created by USPP 7.3.6 on 14-9-2013
  Reference state energy: -57.375295.  11 valence electrons in orbitals:
    |520>  occupation: 10  eigenvalue: -0.252742
    |600>  occupation: 1  eigenvalue: -0.211744
    |610>  occupation: 0  eigenvalue: -0.028291
  lMax: 3  lLocal: -1  QijEcut: 5
  7 projectors sampled on a log grid with 755 points:
    l: 0  eig: -0.211744  rCut: 2.3
    l: 0  eig: 0.500000  rCut: 2.3
    l: 1  eig: -0.028291  rCut: 2.35
    l: 1  eig: 0.850000  rCut: 2.35
    l: 2  eig: -0.252741  rCut: 2.1
    l: 2  eig: 1.000000  rCut: 2.1
    l: 3  eig: 0.000000  rCut: 2.5
  Partial core density with radius 1
  Transforming core density to a uniform radial grid of dG=0.02 with 1180 points.
  Transforming local potential to a uniform radial grid of dG=0.02 with 1180 points.
  Transforming nonlocal projectors to a uniform radial grid of dG=0.02 with 432 points.
  Transforming density augmentations to a uniform radial grid of dG=0.02 with 1180 points.
  Transforming atomic orbitals to a uniform radial grid of dG=0.02 with 432 points.
  Core radius for overlap checks: 2.50 bohrs.

Initialized 2 species with 16 total atoms.

Folded 1 k-points by 8x6x1 to 48 k-points.

---------- Setting up k-points, bands, fillings ----------
Reduced to 20 k-points under symmetry. 
Computing the number of bands and number of electrons
Calculating initial fillings.
nElectrons: 204.000000   nBands: 123   nStates: 40

----- Setting up reduced wavefunction bases (one per k-point) -----
average nbasis = 17729.688 , ideal nbasis = 17732.797

----- Initializing Supercell corresponding to k-point mesh -----
Lattice vector linear combinations in supercell:
[   8   0   0  ]
[   0   6   0  ]
[   0   0   1  ]
Supercell lattice vectors:
[  59.6764  0  0  ]
[  0  63.2964  0  ]
[  0  0  52.747  ]

Initializing DFT-D3 calculator:
	Parameters set for gga-PBE functional
	s6:  1.000  s_r6:  1.217
	s8:  0.722  s_r8:  1.000
	Per-atom parameters loaded for:
	Ni:  sqrtQ[a0]:  5.285  Rcov[a0]:  1.871  CN: [ 0.00 1.79 6.55 6.29 ]
	Au:  sqrtQ[a0]:  5.707  Rcov[a0]:  2.135  CN: [ 0.00 0.98 ]

Initializing DFT-D2 calculator for fluid / solvation:
	Ni:  C6:  187.33 Eh-a0^6  R0: 2.952 a0
	Au:  C6:  815.23 Eh-a0^6  R0: 3.326 a0 (WARNING: beyond Grimme's data set)

---------- Setting up ewald sum ----------
Optimum gaussian width for ewald sums = 4.038959 bohr.
Real space sum over 825 unit cells with max indices [  7  5  2  ]
Reciprocal space sum over 4257 terms with max indices [  4  5  21  ]

Computing DFT-D3 correction:
# coordination-number Ni 6.110 6.680 6.674 3.901
# coordination-number Au 5.140 8.646 5.140 8.646 8.655 8.043 8.655 7.812 8.655 7.812 4.907 8.644
# diagonal-C6 Ni 137.12 133.43 133.46 178.09
# diagonal-C6 Au 317.16 317.16 317.16 317.16 317.16 317.16 317.16 317.16 317.16 317.16 317.16 317.16
EvdW_6 =   -0.118899
EvdW_8 =   -0.209340

---------- Allocating electronic variables ----------
Initializing wave functions:  linear combination of atomic orbitals
Ni pseudo-atom occupations:   s ( 2 0 )  p ( 6 0 )  d ( 10 )
Au pseudo-atom occupations:   s ( 1 )  p ( 0 )  d ( 10 )
	FillingsUpdate:  mu: -0.097800000  nElectrons: 204.000000  magneticMoment: [ Abs: 0.01272  Tot: -0.00546 ]
LCAOMinimize: Iter:   0  G: -959.7794435620545528  |grad|_K:  2.934e-02  alpha:  1.000e+00
LCAOMinimize: 	Step increased G by 5.956964e+02, reducing alpha to 1.972641e-02.
	FillingsUpdate:  mu: -0.097800000  nElectrons: 204.000000  magneticMoment: [ Abs: 0.01125  Tot: +0.00557 ]
LCAOMinimize: Iter:   1  G: -972.9909854688503401  |grad|_K:  2.013e-02  alpha:  1.973e-02  linmin: -6.925e-02  cgtest:  8.452e-01  t[s]:     41.09
LCAOMinimize: Encountered beta<0, resetting CG.
LCAOMinimize: 	Predicted alpha/alphaT>3.000000, increasing alphaT to 5.917923e-02.
LCAOMinimize: 	Predicted alpha/alphaT>3.000000, increasing alphaT to 1.775377e-01.
	FillingsUpdate:  mu: -0.097800000  nElectrons: 204.000000  magneticMoment: [ Abs: 0.00974  Tot: +0.00575 ]
LCAOMinimize: Iter:   2  G: -981.2767842917437520  |grad|_K:  1.642e-02  alpha:  2.239e-02  linmin: -1.014e-01  cgtest:  7.907e-01  t[s]:     61.30
LCAOMinimize: 	Wrong curvature in test step, increasing alphaT to 6.716102e-02.
	FillingsUpdate:  mu: -0.097800000  nElectrons: 204.000000  magneticMoment: [ Abs: 0.00640  Tot: +0.00191 ]
LCAOMinimize: Iter:   3  G: -988.4232205093485391  |grad|_K:  1.792e-02  alpha: -9.777e-02  linmin: -1.343e-01  cgtest:  7.790e-01  t[s]:     73.89
LCAOMinimize: 	Step increased G by 6.655690e+01, reducing alpha to 3.245416e-02.
	FillingsUpdate:  mu: -0.097800000  nElectrons: 204.000000  magneticMoment: [ Abs: 0.00858  Tot: -0.00434 ]
LCAOMinimize: Iter:   4  G: -1022.6429861187594952  |grad|_K:  3.180e-02  alpha:  3.245e-02  linmin: -1.912e-01  cgtest:  3.641e-01  t[s]:     95.88
	FillingsUpdate:  mu: -0.097800000  nElectrons: 204.000000  magneticMoment: [ Abs: 0.00227  Tot: +0.00068 ]
LCAOMinimize: Iter:   5  G: -1045.2030628488350885  |grad|_K:  7.069e-02  alpha:  1.823e-02  linmin:  2.895e-03  cgtest: -1.753e-01  t[s]:    108.79
	FillingsUpdate:  mu: -0.097800000  nElectrons: 204.000000  magneticMoment: [ Abs: 0.00210  Tot: +0.00038 ]
LCAOMinimize: Iter:   6  G: -1048.3823650276369790  |grad|_K:  5.842e-02  alpha:  1.190e-03  linmin: -5.807e-03  cgtest:  1.049e+00  t[s]:    121.63
LCAOMinimize: Encountered beta<0, resetting CG.
LCAOMinimize: 	Wrong curvature in test step, increasing alphaT to 3.570736e-03.
	FillingsUpdate:  mu: -0.097800000  nElectrons: 204.000000  magneticMoment: [ Abs: 0.00203  Tot: +0.00021 ]
LCAOMinimize: Iter:   7  G: -1052.6641551129089294  |grad|_K:  5.631e-02  alpha: -3.559e-02  linmin: -7.457e-02  cgtest:  9.196e-01  t[s]:    134.18
LCAOMinimize: 	Step increased G by 7.500471e+02, reducing alpha to 3.982025e-02.
LCAOMinimize: 	Step increased G by 1.205471e+01, reducing alpha to 3.982025e-03.
	FillingsUpdate:  mu: -0.097800000  nElectrons: 204.000000  magneticMoment: [ Abs: 0.00198  Tot: +0.00031 ]
LCAOMinimize: Iter:   8  G: -1062.9413669479599776  |grad|_K:  3.259e-02  alpha:  3.982e-03  linmin: -8.077e-02  cgtest:  9.204e-01  t[s]:    165.47
LCAOMinimize: Encountered beta<0, resetting CG.
	FillingsUpdate:  mu: -0.097800000  nElectrons: 204.000000  magneticMoment: [ Abs: 0.00180  Tot: -0.00006 ]
LCAOMinimize: Iter:   9  G: -1067.8797543818293434  |grad|_K:  1.610e-02  alpha:  7.584e-03  linmin: -7.959e-02  cgtest:  1.118e+00  t[s]:    178.36
LCAOMinimize: Encountered beta<0, resetting CG.
LCAOMinimize: 	Predicted alpha/alphaT>3.000000, increasing alphaT to 2.275292e-02.
	FillingsUpdate:  mu: -0.097800000  nElectrons: 204.000000  magneticMoment: [ Abs: 0.00179  Tot: +0.00019 ]
LCAOMinimize: Iter:  10  G: -1073.3184690441446492  |grad|_K:  7.957e-03  alpha:  3.749e-02  linmin: -4.388e-02  cgtest:  3.376e-01  t[s]:    194.96
	FillingsUpdate:  mu: -0.097800000  nElectrons: 204.000000  magneticMoment: [ Abs: 0.00174  Tot: +0.00001 ]
LCAOMinimize: Iter:  11  G: -1075.6968676755304841  |grad|_K:  1.361e-02  alpha:  6.493e-02  linmin: -7.141e-03  cgtest: -1.387e-01  t[s]:    207.90
	FillingsUpdate:  mu: -0.097800000  nElectrons: 204.000000  magneticMoment: [ Abs: 0.00185  Tot: +0.00014 ]
LCAOMinimize: Iter:  12  G: -1077.2218392315430719  |grad|_K:  1.128e-02  alpha:  5.953e-03  linmin: -4.126e-02  cgtest:  1.077e+00  t[s]:    220.86
LCAOMinimize: Encountered beta<0, resetting CG.
LCAOMinimize: 	Predicted alpha/alphaT>3.000000, increasing alphaT to 1.785997e-02.
	FillingsUpdate:  mu: -0.097800000  nElectrons: 204.000000  magneticMoment: [ Abs: 0.00208  Tot: +0.00042 ]
LCAOMinimize: Iter:  13  G: -1079.2534158576120262  |grad|_K:  6.545e-03  alpha:  3.178e-02  linmin:  5.904e-02  cgtest: -3.189e-01  t[s]:    237.47
	FillingsUpdate:  mu: -0.097800000  nElectrons: 204.000000  magneticMoment: [ Abs: 0.00211  Tot: +0.00020 ]
LCAOMinimize: Iter:  14  G: -1079.4064720316982857  |grad|_K:  8.314e-03  alpha:  8.779e-03  linmin: -1.174e-02  cgtest:  8.902e-01  t[s]:    250.42
LCAOMinimize: 	Predicted alpha/alphaT>3.000000, increasing alphaT to 2.633800e-02.
	FillingsUpdate:  mu: -0.097800000  nElectrons: 204.000000  magneticMoment: [ Abs: 0.00231  Tot: +0.00004 ]
LCAOMinimize: Iter:  15  G: -1080.3934300120956777  |grad|_K:  5.094e-03  alpha:  2.218e-02  linmin:  2.354e-02  cgtest: -6.492e-01  t[s]:    267.05
	FillingsUpdate:  mu: -0.097800000  nElectrons: 204.000000  magneticMoment: [ Abs: 0.00233  Tot: +0.00010 ]
LCAOMinimize: Iter:  16  G: -1080.4053583241761771  |grad|_K:  5.240e-03  alpha:  8.510e-04  linmin: -2.630e-02  cgtest:  9.978e-01  t[s]:    279.93
LCAOMinimize: 	Predicted alpha/alphaT>3.000000, increasing alphaT to 2.552972e-03.
LCAOMinimize: 	Predicted alpha/alphaT>3.000000, increasing alphaT to 7.658917e-03.
	FillingsUpdate:  mu: -0.097800000  nElectrons: 204.000000  magneticMoment: [ Abs: 0.00270  Tot: -0.00002 ]
LCAOMinimize: Iter:  17  G: -1080.5082452106989876  |grad|_K:  6.245e-03  alpha:  1.805e-02  linmin:  1.347e-01  cgtest: -5.774e-01  t[s]:    300.28
LCAOMinimize: 	Bad step direction: g.d > 0.
LCAOMinimize: 	Undoing step.
LCAOMinimize: 	Step failed: resetting search direction.
	FillingsUpdate:  mu: -0.097800000  nElectrons: 204.000000  magneticMoment: [ Abs: 0.00270  Tot: -0.00002 ]
LCAOMinimize: Iter:  18  G: -1080.5082452106989876  |grad|_K:  6.245e-03  alpha:  0.000e+00
	FillingsUpdate:  mu: -0.097800000  nElectrons: 204.000000  magneticMoment: [ Abs: 0.00261  Tot: +0.00059 ]
LCAOMinimize: Iter:  19  G: -1080.6733877588517316  |grad|_K:  1.631e-03  alpha:  8.247e-03  linmin:  2.158e-02  cgtest: -2.787e-01  t[s]:    322.48
LCAOMinimize: 	Predicted alpha/alphaT>3.000000, increasing alphaT to 2.474219e-02.
	FillingsUpdate:  mu: -0.097800000  nElectrons: 204.000000  magneticMoment: [ Abs: 0.00293  Tot: +0.00095 ]
LCAOMinimize: Iter:  20  G: -1080.7144951078255417  |grad|_K:  2.851e-03  alpha:  3.590e-02  linmin:  1.690e-02  cgtest:  4.503e-01  t[s]:    339.13
	FillingsUpdate:  mu: -0.097800000  nElectrons: 204.000000  magneticMoment: [ Abs: 0.00308  Tot: +0.00086 ]
LCAOMinimize: Iter:  21  G: -1080.7423709904551288  |grad|_K:  1.241e-03  alpha:  6.442e-03  linmin: -3.448e-02  cgtest:  8.513e-01  t[s]:    352.02
LCAOMinimize: Encountered beta<0, resetting CG.
	FillingsUpdate:  mu: -0.097800000  nElectrons: 204.000000  magneticMoment: [ Abs: 0.00305  Tot: +0.00069 ]
LCAOMinimize: Iter:  22  G: -1080.7485584021328577  |grad|_K:  7.032e-04  alpha:  7.692e-03  linmin: -1.283e-02  cgtest:  5.578e-02  t[s]:    364.98
LCAOMinimize: 	Predicted alpha/alphaT>3.000000, increasing alphaT to 2.307467e-02.
	FillingsUpdate:  mu: -0.097800000  nElectrons: 204.000000  magneticMoment: [ Abs: 0.00293  Tot: +0.00066 ]
LCAOMinimize: Iter:  23  G: -1080.7615539054029341  |grad|_K:  9.490e-04  alpha:  4.980e-02  linmin:  1.363e-03  cgtest: -1.801e-01  t[s]:    382.25
	FillingsUpdate:  mu: -0.097800000  nElectrons: 204.000000  magneticMoment: [ Abs: 0.00293  Tot: +0.00041 ]
LCAOMinimize: Iter:  24  G: -1080.7760613529601414  |grad|_K:  1.103e-03  alpha:  3.184e-02  linmin:  1.432e-04  cgtest:  4.422e-02  t[s]:    395.14
	FillingsUpdate:  mu: -0.097800000  nElectrons: 204.000000  magneticMoment: [ Abs: 0.00301  Tot: +0.00054 ]
LCAOMinimize: Iter:  25  G: -1080.7871965067615747  |grad|_K:  8.674e-04  alpha:  1.635e-02  linmin: -2.653e-03  cgtest:  3.629e-02  t[s]:    408.01
	FillingsUpdate:  mu: -0.097800000  nElectrons: 204.000000  magneticMoment: [ Abs: 0.00322  Tot: +0.00039 ]
LCAOMinimize: Iter:  26  G: -1080.8020219879897468  |grad|_K:  7.530e-04  alpha:  3.615e-02  linmin: -1.861e-03  cgtest: -1.468e-02  t[s]:    420.94
	FillingsUpdate:  mu: -0.097800000  nElectrons: 204.000000  magneticMoment: [ Abs: 0.00329  Tot: +0.00051 ]
LCAOMinimize: Iter:  27  G: -1080.8069493638706717  |grad|_K:  6.532e-04  alpha:  1.608e-02  linmin: -3.045e-04  cgtest: -1.262e-02  t[s]:    433.84
	FillingsUpdate:  mu: -0.097800000  nElectrons: 204.000000  magneticMoment: [ Abs: 0.00334  Tot: +0.00045 ]
LCAOMinimize: Iter:  28  G: -1080.8101155798049149  |grad|_K:  3.306e-04  alpha:  1.427e-02  linmin: -6.449e-04  cgtest:  1.271e-01  t[s]:    446.77
	FillingsUpdate:  mu: -0.097800000  nElectrons: 204.000000  magneticMoment: [ Abs: 0.00344  Tot: +0.00057 ]
LCAOMinimize: Iter:  29  G: -1080.8116897849183715  |grad|_K:  2.517e-04  alpha:  2.706e-02  linmin: -8.207e-03  cgtest:  7.095e-02  t[s]:    459.65
	FillingsUpdate:  mu: -0.097800000  nElectrons: 204.000000  magneticMoment: [ Abs: 0.00351  Tot: +0.00064 ]
LCAOMinimize: Iter:  30  G: -1080.8140367644698472  |grad|_K:  2.226e-04  alpha:  6.836e-02  linmin: -2.821e-04  cgtest: -1.102e-01  t[s]:    472.45
LCAOMinimize: None of the convergence criteria satisfied after 30 iterations.
----- createFluidSolver() ----- (Fluid-side solver setup)
   Initializing fluid molecule 'H2O'
     Initializing site 'O'
       Electron density: proportional to exp(-r/0.36935)*erfc((r-0.51523)/0.36823) with norm 6.826
       Charge density: gaussian nuclear width 0.478731 with net site charge 0.826
       Polarizability: cuspless exponential with width 0.32 and norm 3.73
       Hard sphere radius: 2.57003 bohrs
       Positions in reference frame:
         [ +0.000000 +0.000000 +0.000000 ]
     Initializing site 'H'
       Electron density: proportional to exp(-r/0.34641)*erfc((r-0)/0.390882) with norm 0.587
       Charge density: gaussian nuclear width 0.377945 with net site charge -0.413
       Polarizability: cuspless exponential with width 0.39 and norm 3.3
       Positions in reference frame:
         [ +0.000000 -1.441945 +1.122523 ]
         [ +0.000000 +1.441945 +1.122523 ]
     Net charge: 0   dipole magnitude: 0.927204
     Initializing spherical shell mfKernel with radius 2.61727 Bohr
     deltaS corrections:
       site 'O': -7.54299
       site 'H': -6.83917
   Initializing fluid molecule 'Na+'
     Initializing site 'Na'
       Electron density: proportional to exp(-r/0.19682)*erfc((r-0.71491)/0.41314) with norm 8.1383
       Charge density: gaussian nuclear width 0.365347 with net site charge -1
       Hard sphere radius: 1.86327 bohrs
       Positions in reference frame:
         [ +0.000000 +0.000000 +0.000000 ]
     Net charge: -1   dipole magnitude: 0
     Initializing gaussian mfKernel with width: 1.55004 Bohr
     deltaS corrections:
       site 'Na': -22.3555
   Initializing fluid molecule 'F-'
     Initializing site 'F'
       Electron density: proportional to exp(-r/0.38886)*erfc((r-0)/0.438782) with norm 8
       Charge density: gaussian nuclear width 0.374796 with net site charge 1
       Hard sphere radius: 2.39995 bohrs
       Positions in reference frame:
         [ +0.000000 +0.000000 +0.000000 ]
     Net charge: 1   dipole magnitude: 0
     Initializing gaussian mfKernel with width: 1.59012 Bohr
     deltaS corrections:
       site 'F': -9.04335

Correction to mu due to finite nuclear width = -0.0487631
   Cavity determined by nc: 0.00142 and sigma: 0.707107
   Nonlocal vdW cavity from gaussian model electron density with norm = 8 and sigma = 0.993594 bohr
   Charge asymmetry in cavity with sensitivity pCavity = 36.5 e-bohr/Eh
   Electrostatic cavity expanded by eta = 1.46 bohrs
   Weighted density cavitation model constrained by Nbulk: 0.0049383 bohr^-3, Pvap: 3.14029 kPa, Rvdw: 2.61727 bohr and sigmaBulk: 4.62e-05 Eh/bohr^2 at T: 298 K.
   Weighted density dispersion model using vdW pair potentials with single solvent site with sqrtC6eff: 0.77 SI.


---- Citations for features of the code used in this run ----

   Software package:
      R. Sundararaman, K. Letchworth-Weaver, K.A. Schwarz, D. Gunceler, Y. Ozhabes and T.A. Arias, 'JDFTx: software for joint density-functional theory', SoftwareX 6, 278 (2017)

   gga-PBE exchange-correlation functional:
      J.P. Perdew, K. Burke and M. Ernzerhof, Phys. Rev. Lett. 77, 3865 (1996)

   Pseudopotentials:
      KF Garrity, JW Bennett, KM Rabe and D Vanderbilt, Comput. Mater. Sci. 81, 446 (2014)

   DFT-D3 dispersion correction:
      S. Grimme, J. Antony, S. Ehrlich and H. Krieg, J. Chem. Phys. 132, 154104 (2010)

   DFT-D2 dispersion correction:
      S. Grimme, J. Comput. Chem. 27, 1787 (2006)

   Charge-asymmetric nonlocally-determined local-electric (CANDLE) solvation model:
      R. Sundararaman and W.A. Goddard III, J. Chem. Phys. 142, 064107 (2015)

   Total energy minimization with Auxiliary Hamiltonian:
      C. Freysoldt, S. Boeck, and J. Neugebauer, Phys. Rev. B 79, 241103(R) (2009)

   Grand-canonical (fixed-potential) DFT:
      R. Sundararaman, W. A. Goddard III and T. A. Arias, J. Chem. Phys. 146, 114104 (2017)

   Linear-tetrahedron sampling for density of states:
      G. Lehmann and M. Taut, Phys. status solidi (b) 54, 469 (1972)

This list may not be complete. Please suggest additional citations or
report any other bugs at https://github.com/shankar1729/jdftx/issues

Initialization completed successfully at t[s]:    477.49


Computing DFT-D3 correction:
# coordination-number Ni 6.110 6.680 6.674 3.901
# coordination-number Au 5.140 8.646 5.140 8.646 8.655 8.043 8.655 7.812 8.655 7.812 4.907 8.644
# diagonal-C6 Ni 137.12 133.43 133.46 178.09
# diagonal-C6 Au 317.16 317.16 317.16 317.16 317.16 317.16 317.16 317.16 317.16 317.16 317.16 317.16
EvdW_6 =   -0.118899
EvdW_8 =   -0.209340
Fluid solver invoked on fresh (random / LCAO) wavefunctions
Running a vacuum solve first:

-------- Initial electronic minimization -----------
	FillingsUpdate:  mu: +0.136779745  nElectrons: 204.000000  magneticMoment: [ Abs: 0.00351  Tot: +0.00064 ]
ElecMinimize: Iter:   0  G: -1080.815798929550283  |grad|_K:  7.914e-05  alpha:  1.000e+00
	FillingsUpdate:  mu: +0.188920346  nElectrons: 204.000000  magneticMoment: [ Abs: 0.00377  Tot: +0.00140 ]
	SubspaceRotationAdjust: set factor to 0.517
ElecMinimize: Iter:   1  G: -1080.863596970267508  |grad|_K:  3.375e-04  alpha:  1.432e-01  linmin:  1.128e-03  t[s]:    506.54
	FillingsUpdate:  mu: +0.166453770  nElectrons: 204.000000  magneticMoment: [ Abs: 0.00379  Tot: +0.00133 ]
	SubspaceRotationAdjust: set factor to 0.302
ElecMinimize: Iter:   2  G: -1080.922843073972899  |grad|_K:  1.981e-04  alpha:  9.414e-03  linmin:  6.257e-05  t[s]:    524.63
	FillingsUpdate:  mu: +0.092518833  nElectrons: 204.000000  magneticMoment: [ Abs: 0.00366  Tot: +0.00089 ]
	SubspaceRotationAdjust: set factor to 0.382
ElecMinimize: Iter:   3  G: -1080.957422880644344  |grad|_K:  1.066e-04  alpha:  1.040e-02  linmin:  1.902e-05  t[s]:    542.82
ElecMinimize: 	Predicted alpha/alphaT>3.000000, increasing alphaT to 3.121230e-02.
	FillingsUpdate:  mu: +0.166949153  nElectrons: 204.000000  magneticMoment: [ Abs: 0.00350  Tot: +0.00038 ]
	SubspaceRotationAdjust: set factor to 0.242
ElecMinimize: Iter:   4  G: -1080.992263699654586  |grad|_K:  1.585e-04  alpha:  3.504e-02  linmin: -9.922e-05  t[s]:    565.92
	FillingsUpdate:  mu: +0.226395773  nElectrons: 204.000000  magneticMoment: [ Abs: 0.00315  Tot: +0.00051 ]
	SubspaceRotationAdjust: set factor to 0.159
ElecMinimize: Iter:   5  G: -1081.075450776718981  |grad|_K:  8.230e-05  alpha:  3.568e-02  linmin: -1.527e-04  t[s]:    584.08
	FillingsUpdate:  mu: +0.196594488  nElectrons: 204.000000  magneticMoment: [ Abs: 0.00304  Tot: +0.00081 ]
	SubspaceRotationAdjust: set factor to 0.203
ElecMinimize: Iter:   6  G: -1081.092949396253971  |grad|_K:  3.980e-05  alpha:  2.873e-02  linmin: -7.739e-05  t[s]:    602.32
ElecMinimize: 	Predicted alpha/alphaT>3.000000, increasing alphaT to 8.618544e-02.
	FillingsUpdate:  mu: +0.191761280  nElectrons: 204.000000  magneticMoment: [ Abs: 0.00291  Tot: +0.00091 ]
	SubspaceRotationAdjust: set factor to 0.146
ElecMinimize: Iter:   7  G: -1081.107170507297951  |grad|_K:  5.273e-05  alpha:  1.002e-01  linmin: -1.138e-04  t[s]:    625.27
	FillingsUpdate:  mu: +0.165487091  nElectrons: 204.000000  magneticMoment: [ Abs: 0.00278  Tot: +0.00073 ]
	SubspaceRotationAdjust: set factor to 0.18
ElecMinimize: Iter:   8  G: -1081.125151447130293  |grad|_K:  3.830e-05  alpha:  7.220e-02  linmin: -8.218e-07  t[s]:    643.39
	FillingsUpdate:  mu: +0.157844173  nElectrons: 204.000000  magneticMoment: [ Abs: 0.00279  Tot: +0.00068 ]
	SubspaceRotationAdjust: set factor to 0.169
ElecMinimize: Iter:   9  G: -1081.134038531636406  |grad|_K:  3.322e-05  alpha:  6.912e-02  linmin:  6.583e-05  t[s]:    661.55
	FillingsUpdate:  mu: +0.128613368  nElectrons: 204.000000  magneticMoment: [ Abs: 0.00282  Tot: +0.00084 ]
	SubspaceRotationAdjust: set factor to 0.153
ElecMinimize: Iter:  10  G: -1081.141573350952740  |grad|_K:  2.504e-05  alpha:  7.919e-02  linmin:  7.877e-06  t[s]:    679.78
	FillingsUpdate:  mu: +0.127016717  nElectrons: 204.000000  magneticMoment: [ Abs: 0.00281  Tot: +0.00096 ]
	SubspaceRotationAdjust: set factor to 0.147
ElecMinimize: Iter:  11  G: -1081.144505816481114  |grad|_K:  1.808e-05  alpha:  5.366e-02  linmin:  2.857e-08  t[s]:    698.01
	FillingsUpdate:  mu: +0.156162678  nElectrons: 204.000000  magneticMoment: [ Abs: 0.00271  Tot: +0.00096 ]
	SubspaceRotationAdjust: set factor to 0.113
	SubspaceRotationAdjust: resetting CG because factor has changed by 0.11348
ElecMinimize: 	State modified externally: resetting search direction.
ElecMinimize: Iter:  12  G: -1081.147630337604369  |grad|_K:  1.822e-05  alpha:  1.083e-01
	FillingsUpdate:  mu: +0.127245273  nElectrons: 204.000000  magneticMoment: [ Abs: 0.00270  Tot: +0.00088 ]
	SubspaceRotationAdjust: set factor to 0.113
ElecMinimize: Iter:  13  G: -1081.150215418373136  |grad|_K:  8.821e-06  alpha:  8.879e-02  linmin:  1.716e-04  t[s]:    743.63
ElecMinimize: 	Predicted alpha/alphaT>3.000000, increasing alphaT to 2.663732e-01.
	FillingsUpdate:  mu: +0.126013340  nElectrons: 204.000000  magneticMoment: [ Abs: 0.00263  Tot: +0.00088 ]
	SubspaceRotationAdjust: set factor to 0.117
ElecMinimize: Iter:  14  G: -1081.152083278414693  |grad|_K:  8.132e-06  alpha:  2.750e-01  linmin: -1.254e-05  t[s]:    766.69
	FillingsUpdate:  mu: +0.132097948  nElectrons: 204.000000  magneticMoment: [ Abs: 0.00255  Tot: +0.00086 ]
	SubspaceRotationAdjust: set factor to 0.12
ElecMinimize: Iter:  15  G: -1081.153565921189511  |grad|_K:  5.320e-06  alpha:  2.561e-01  linmin: -2.495e-05  t[s]:    784.89
	FillingsUpdate:  mu: +0.131311330  nElectrons: 204.000000  magneticMoment: [ Abs: 0.00247  Tot: +0.00090 ]
	SubspaceRotationAdjust: set factor to 0.129
ElecMinimize: Iter:  16  G: -1081.154828522067874  |grad|_K:  6.001e-06  alpha:  5.093e-01  linmin:  1.088e-05  t[s]:    803.09
	FillingsUpdate:  mu: +0.126286303  nElectrons: 204.000000  magneticMoment: [ Abs: 0.00242  Tot: +0.00091 ]
	SubspaceRotationAdjust: set factor to 0.137
ElecMinimize: Iter:  17  G: -1081.155700272656759  |grad|_K:  4.207e-06  alpha:  2.766e-01  linmin: -4.981e-06  t[s]:    821.33
	FillingsUpdate:  mu: +0.129412670  nElectrons: 204.000000  magneticMoment: [ Abs: 0.00235  Tot: +0.00091 ]
	SubspaceRotationAdjust: set factor to 0.136
ElecMinimize: Iter:  18  G: -1081.156349466600886  |grad|_K:  5.039e-06  alpha:  4.185e-01  linmin: -6.629e-06  t[s]:    839.59
	FillingsUpdate:  mu: +0.130512553  nElectrons: 204.000000  magneticMoment: [ Abs: 0.00231  Tot: +0.00094 ]
	SubspaceRotationAdjust: set factor to 0.0942
ElecMinimize: Iter:  19  G: -1081.156706954025594  |grad|_K:  4.319e-06  alpha:  1.644e-01  linmin:  6.608e-05  t[s]:    857.79
	FillingsUpdate:  mu: +0.125765886  nElectrons: 204.000000  magneticMoment: [ Abs: 0.00229  Tot: +0.00095 ]
	SubspaceRotationAdjust: set factor to 0.0976
ElecMinimize: Iter:  20  G: -1081.156959897573870  |grad|_K:  2.988e-06  alpha:  1.573e-01  linmin: -8.784e-07  t[s]:    875.96
	FillingsUpdate:  mu: +0.129012542  nElectrons: 204.000000  magneticMoment: [ Abs: 0.00224  Tot: +0.00098 ]
	SubspaceRotationAdjust: set factor to 0.11
ElecMinimize: Iter:  21  G: -1081.157302050069575  |grad|_K:  2.239e-06  alpha:  4.366e-01  linmin: -2.215e-05  t[s]:    894.16
	FillingsUpdate:  mu: +0.130756930  nElectrons: 204.000000  magneticMoment: [ Abs: 0.00222  Tot: +0.00100 ]
	SubspaceRotationAdjust: set factor to 0.0969
ElecMinimize: Iter:  22  G: -1081.157456615001365  |grad|_K:  2.438e-06  alpha:  3.512e-01  linmin: -6.529e-06  t[s]:    912.24
	FillingsUpdate:  mu: +0.128089013  nElectrons: 204.000000  magneticMoment: [ Abs: 0.00221  Tot: +0.00102 ]
	SubspaceRotationAdjust: set factor to 0.0785
ElecMinimize: Iter:  23  G: -1081.157549252734725  |grad|_K:  2.060e-06  alpha:  1.781e-01  linmin:  2.713e-06  t[s]:    930.44
	FillingsUpdate:  mu: +0.128072907  nElectrons: 204.000000  magneticMoment: [ Abs: 0.00221  Tot: +0.00107 ]
	SubspaceRotationAdjust: set factor to 0.0909
ElecMinimize: Iter:  24  G: -1081.157676412512728  |grad|_K:  1.645e-06  alpha:  3.426e-01  linmin: -4.322e-06  t[s]:    948.57
	FillingsUpdate:  mu: +0.129150620  nElectrons: 204.000000  magneticMoment: [ Abs: 0.00222  Tot: +0.00111 ]
	SubspaceRotationAdjust: set factor to 0.0847
ElecMinimize: Iter:  25  G: -1081.157739168332910  |grad|_K:  1.302e-06  alpha:  2.646e-01  linmin:  3.786e-07  t[s]:    966.71
	FillingsUpdate:  mu: +0.128339936  nElectrons: 204.000000  magneticMoment: [ Abs: 0.00223  Tot: +0.00114 ]
	SubspaceRotationAdjust: set factor to 0.0842
ElecMinimize: Iter:  26  G: -1081.157778465157662  |grad|_K:  1.072e-06  alpha:  2.650e-01  linmin:  7.260e-07  t[s]:    985.35
	FillingsUpdate:  mu: +0.128355775  nElectrons: 204.000000  magneticMoment: [ Abs: 0.00224  Tot: +0.00117 ]
	SubspaceRotationAdjust: set factor to 0.0725
ElecMinimize: Iter:  27  G: -1081.157802670948286  |grad|_K:  9.381e-07  alpha:  2.408e-01  linmin: -1.386e-06  t[s]:   1003.58
	FillingsUpdate:  mu: +0.127814085  nElectrons: 204.000000  magneticMoment: [ Abs: 0.00226  Tot: +0.00121 ]
	SubspaceRotationAdjust: set factor to 0.065
ElecMinimize: Iter:  28  G: -1081.157822198626945  |grad|_K:  6.762e-07  alpha:  2.535e-01  linmin:  1.943e-06  t[s]:   1021.85
	FillingsUpdate:  mu: +0.127728788  nElectrons: 204.000000  magneticMoment: [ Abs: 0.00227  Tot: +0.00125 ]
	SubspaceRotationAdjust: set factor to 0.0733
ElecMinimize: Iter:  29  G: -1081.157834852665474  |grad|_K:  5.248e-07  alpha:  3.164e-01  linmin: -7.020e-07  t[s]:   1040.09
	FillingsUpdate:  mu: +0.128024852  nElectrons: 204.000000  magneticMoment: [ Abs: 0.00229  Tot: +0.00128 ]
	SubspaceRotationAdjust: set factor to 0.0633
ElecMinimize: Iter:  30  G: -1081.157841132596559  |grad|_K:  4.664e-07  alpha:  2.605e-01  linmin: -3.644e-07  t[s]:   1058.29
	FillingsUpdate:  mu: +0.127900862  nElectrons: 204.000000  magneticMoment: [ Abs: 0.00231  Tot: +0.00131 ]
	SubspaceRotationAdjust: set factor to 0.0576
ElecMinimize: Iter:  31  G: -1081.157846337036744  |grad|_K:  3.680e-07  alpha:  2.734e-01  linmin:  1.330e-06  t[s]:   1076.56
	FillingsUpdate:  mu: +0.127921820  nElectrons: 204.000000  magneticMoment: [ Abs: 0.00233  Tot: +0.00135 ]
	SubspaceRotationAdjust: set factor to 0.0615
ElecMinimize: Iter:  32  G: -1081.157849987596819  |grad|_K:  2.976e-07  alpha:  3.080e-01  linmin: -1.402e-06  t[s]:   1094.74
	FillingsUpdate:  mu: +0.127852645  nElectrons: 204.000000  magneticMoment: [ Abs: 0.00234  Tot: +0.00139 ]
	SubspaceRotationAdjust: set factor to 0.0625
ElecMinimize: Iter:  33  G: -1081.157852230753406  |grad|_K:  2.227e-07  alpha:  2.893e-01  linmin:  5.487e-08  t[s]:   1112.94
	FillingsUpdate:  mu: +0.127817856  nElectrons: 204.000000  magneticMoment: [ Abs: 0.00236  Tot: +0.00142 ]
	SubspaceRotationAdjust: set factor to 0.0636
ElecMinimize: Iter:  34  G: -1081.157853643800991  |grad|_K:  2.145e-07  alpha:  3.255e-01  linmin:  4.724e-07  t[s]:   1131.12
	FillingsUpdate:  mu: +0.127934663  nElectrons: 204.000000  magneticMoment: [ Abs: 0.00239  Tot: +0.00146 ]
	SubspaceRotationAdjust: set factor to 0.0661
ElecMinimize: Iter:  35  G: -1081.157854822249874  |grad|_K:  1.821e-07  alpha:  2.927e-01  linmin: -8.808e-07  t[s]:   1149.37
	FillingsUpdate:  mu: +0.127849928  nElectrons: 204.000000  magneticMoment: [ Abs: 0.00241  Tot: +0.00151 ]
	SubspaceRotationAdjust: set factor to 0.0704
ElecMinimize: Iter:  36  G: -1081.157855736128340  |grad|_K:  1.576e-07  alpha:  3.150e-01  linmin:  9.086e-07  t[s]:   1167.62
	FillingsUpdate:  mu: +0.127876754  nElectrons: 204.000000  magneticMoment: [ Abs: 0.00245  Tot: +0.00158 ]
	SubspaceRotationAdjust: set factor to 0.0771
ElecMinimize: Iter:  37  G: -1081.157856610999033  |grad|_K:  1.566e-07  alpha:  4.028e-01  linmin:  2.348e-07  t[s]:   1185.83
	FillingsUpdate:  mu: +0.127946530  nElectrons: 204.000000  magneticMoment: [ Abs: 0.00249  Tot: +0.00165 ]
	SubspaceRotationAdjust: set factor to 0.0777
ElecMinimize: Iter:  38  G: -1081.157857303012634  |grad|_K:  1.511e-07  alpha:  3.225e-01  linmin: -4.631e-07  t[s]:   1203.97
	FillingsUpdate:  mu: +0.127870663  nElectrons: 204.000000  magneticMoment: [ Abs: 0.00254  Tot: +0.00172 ]
	SubspaceRotationAdjust: set factor to 0.0654
ElecMinimize: Iter:  39  G: -1081.157857827867019  |grad|_K:  1.399e-07  alpha:  2.625e-01  linmin:  1.956e-07  t[s]:   1222.22
	FillingsUpdate:  mu: +0.127954213  nElectrons: 204.000000  magneticMoment: [ Abs: 0.00260  Tot: +0.00182 ]
	SubspaceRotationAdjust: set factor to 0.0716
ElecMinimize: Iter:  40  G: -1081.157858403080354  |grad|_K:  1.170e-07  alpha:  3.357e-01  linmin:  9.379e-07  t[s]:   1240.34
	FillingsUpdate:  mu: +0.127952853  nElectrons: 204.000000  magneticMoment: [ Abs: 0.00268  Tot: +0.00194 ]
	SubspaceRotationAdjust: set factor to 0.0723
ElecMinimize: Iter:  41  G: -1081.157858887636394  |grad|_K:  1.069e-07  alpha:  4.049e-01  linmin:  7.758e-07  t[s]:   1258.53
	FillingsUpdate:  mu: +0.127872474  nElectrons: 204.000000  magneticMoment: [ Abs: 0.00275  Tot: +0.00203 ]
	SubspaceRotationAdjust: set factor to 0.063
ElecMinimize: Iter:  42  G: -1081.157859189705277  |grad|_K:  9.700e-08  alpha:  3.023e-01  linmin:  7.589e-07  t[s]:   1277.50
	FillingsUpdate:  mu: +0.127920769  nElectrons: 204.000000  magneticMoment: [ Abs: 0.00282  Tot: +0.00211 ]
	SubspaceRotationAdjust: set factor to 0.0602
ElecMinimize: Iter:  43  G: -1081.157859409964203  |grad|_K:  8.029e-08  alpha:  2.677e-01  linmin: -7.248e-07  t[s]:   1295.73
	FillingsUpdate:  mu: +0.127922146  nElectrons: 204.000000  magneticMoment: [ Abs: 0.00291  Tot: +0.00220 ]
	SubspaceRotationAdjust: set factor to 0.0586
ElecMinimize: Iter:  44  G: -1081.157859580306649  |grad|_K:  6.196e-08  alpha:  3.016e-01  linmin: -9.891e-07  t[s]:   1313.92
	FillingsUpdate:  mu: +0.127930644  nElectrons: 204.000000  magneticMoment: [ Abs: 0.00298  Tot: +0.00228 ]
	SubspaceRotationAdjust: set factor to 0.0595
ElecMinimize: Iter:  45  G: -1081.157859683748256  |grad|_K:  5.119e-08  alpha:  3.075e-01  linmin:  9.270e-07  t[s]:   1332.06
	FillingsUpdate:  mu: +0.127955021  nElectrons: 204.000000  magneticMoment: [ Abs: 0.00306  Tot: +0.00235 ]
	SubspaceRotationAdjust: set factor to 0.0611
ElecMinimize: Iter:  46  G: -1081.157859753452158  |grad|_K:  3.828e-08  alpha:  3.040e-01  linmin: -2.802e-07  t[s]:   1350.26
	FillingsUpdate:  mu: +0.127928905  nElectrons: 204.000000  magneticMoment: [ Abs: 0.00312  Tot: +0.00241 ]
	SubspaceRotationAdjust: set factor to 0.0549
ElecMinimize: Iter:  47  G: -1081.157859788816722  |grad|_K:  3.408e-08  alpha:  2.760e-01  linmin:  1.627e-06  t[s]:   1368.45
ElecMinimize: Converged (|Delta G|<1.000000e-07 for 2 iters).
Setting wave functions to eigenvectors of Hamiltonian
Converging empty states (this may take a while): |deigs|: 2.847e-03
Vacuum energy after initial minimize, F = -1081.157859788816722

Shifting auxilliary hamiltonian by -0.225729 to set nElectrons=204.000000

-------- Electronic minimization -----------
	Linear fluid (dielectric constant: 78.4, screening length: 8.12261 Bohr) occupying 0.438975 of unit cell:	Completed after 24 iterations at t[s]:   1449.20
	FillingsUpdate:  mu: -0.097800000  nElectrons: 204.000000  magneticMoment: [ Abs: 0.00451  Tot: +0.00367 ]
ElecMinimize: Iter:   0  G: -1081.160661471116327  |grad|_K:  2.373e-05  alpha:  1.000e+00
	Linear fluid (dielectric constant: 78.4, screening length: 8.12261 Bohr) occupying 0.483083 of unit cell:	Completed after 29 iterations at t[s]:   1466.44
	Linear fluid (dielectric constant: 78.4, screening length: 8.12261 Bohr) occupying 0.448573 of unit cell:	Completed after 24 iterations at t[s]:   1473.70
ElecMinimize: 	Step increased G by 1.886044e-04, reducing alpha to 3.083308e-02.
	Linear fluid (dielectric constant: 78.4, screening length: 8.12261 Bohr) occupying 0.439029 of unit cell:	Completed after 20 iterations at t[s]:   1487.19
	FillingsUpdate:  mu: -0.097800000  nElectrons: 204.040080  magneticMoment: [ Abs: 0.00435  Tot: +0.00349 ]
	SubspaceRotationAdjust: set factor to 0.0281
ElecMinimize: Iter:   1  G: -1081.163254206387364  |grad|_K:  1.747e-05  alpha:  3.083e-02  linmin: -8.357e-02  t[s]:   1494.42
	Linear fluid (dielectric constant: 78.4, screening length: 8.12261 Bohr) occupying 0.439352 of unit cell:	Completed after 19 iterations at t[s]:   1502.56
	Linear fluid (dielectric constant: 78.4, screening length: 8.12261 Bohr) occupying 0.440502 of unit cell:	Completed after 19 iterations at t[s]:   1509.57
	FillingsUpdate:  mu: -0.097800000  nElectrons: 204.154530  magneticMoment: [ Abs: 0.00393  Tot: +0.00298 ]
	SubspaceRotationAdjust: set factor to 0.0422
ElecMinimize: Iter:   2  G: -1081.166928765592957  |grad|_K:  8.943e-06  alpha:  7.451e-02  linmin: -1.492e-02  t[s]:   1516.79
	Linear fluid (dielectric constant: 78.4, screening length: 8.12261 Bohr) occupying 0.441365 of unit cell:	Completed after 15 iterations at t[s]:   1524.72
ElecMinimize: 	Predicted alpha/alphaT>3.000000, increasing alphaT to 2.235330e-01.
	Linear fluid (dielectric constant: 78.4, screening length: 8.12261 Bohr) occupying 0.443570 of unit cell:	Completed after 17 iterations at t[s]:   1531.63
	Linear fluid (dielectric constant: 78.4, screening length: 8.12261 Bohr) occupying 0.445517 of unit cell:	Completed after 16 iterations at t[s]:   1538.33
	FillingsUpdate:  mu: -0.097800000  nElectrons: 204.285085  magneticMoment: [ Abs: 0.00352  Tot: +0.00245 ]
	SubspaceRotationAdjust: set factor to 0.0479
ElecMinimize: Iter:   3  G: -1081.169930014926194  |grad|_K:  1.023e-05  alpha:  3.330e-01  linmin: -4.289e-03  t[s]:   1545.53
	Linear fluid (dielectric constant: 78.4, screening length: 8.12261 Bohr) occupying 0.451759 of unit cell:	Completed after 20 iterations at t[s]:   1553.76
	Linear fluid (dielectric constant: 78.4, screening length: 8.12261 Bohr) occupying 0.450916 of unit cell:	Completed after 14 iterations at t[s]:   1560.38
	FillingsUpdate:  mu: -0.097800000  nElectrons: 204.379812  magneticMoment: [ Abs: 0.00328  Tot: +0.00211 ]
	SubspaceRotationAdjust: set factor to 0.0538
ElecMinimize: Iter:   4  G: -1081.172877295377020  |grad|_K:  9.106e-06  alpha:  2.903e-01  linmin:  1.527e-04  t[s]:   1567.50
	Linear fluid (dielectric constant: 78.4, screening length: 8.12261 Bohr) occupying 0.455987 of unit cell:	Completed after 16 iterations at t[s]:   1576.37
	Linear fluid (dielectric constant: 78.4, screening length: 8.12261 Bohr) occupying 0.454645 of unit cell:	Completed after 15 iterations at t[s]:   1583.10
	FillingsUpdate:  mu: -0.097800000  nElectrons: 204.438911  magneticMoment: [ Abs: 0.00315  Tot: +0.00193 ]
	SubspaceRotationAdjust: set factor to 0.0607
ElecMinimize: Iter:   5  G: -1081.174418481543853  |grad|_K:  9.040e-06  alpha:  2.137e-01  linmin: -3.076e-05  t[s]:   1590.19
	Linear fluid (dielectric constant: 78.4, screening length: 8.12261 Bohr) occupying 0.458998 of unit cell:	Completed after 20 iterations at t[s]:   1598.45
	Linear fluid (dielectric constant: 78.4, screening length: 8.12261 Bohr) occupying 0.463072 of unit cell:	Completed after 19 iterations at t[s]:   1605.44
	FillingsUpdate:  mu: -0.097800000  nElectrons: 204.568464  magneticMoment: [ Abs: 0.00299  Tot: +0.00168 ]
	SubspaceRotationAdjust: set factor to 0.0667
ElecMinimize: Iter:   6  G: -1081.177447033335511  |grad|_K:  1.112e-05  alpha:  4.202e-01  linmin: -1.639e-04  t[s]:   1612.58
	Linear fluid (dielectric constant: 78.4, screening length: 8.12261 Bohr) occupying 0.473904 of unit cell:	Completed after 23 iterations at t[s]:   1621.00
	Linear fluid (dielectric constant: 78.4, screening length: 8.12261 Bohr) occupying 0.467873 of unit cell:	Completed after 21 iterations at t[s]:   1628.24
	FillingsUpdate:  mu: -0.097800000  nElectrons: 204.647437  magneticMoment: [ Abs: 0.00292  Tot: +0.00156 ]
	SubspaceRotationAdjust: set factor to 0.0772
ElecMinimize: Iter:   7  G: -1081.179395510487211  |grad|_K:  8.732e-06  alpha:  1.750e-01  linmin: -2.583e-04  t[s]:   1635.43
	Linear fluid (dielectric constant: 78.4, screening length: 8.12261 Bohr) occupying 0.471319 of unit cell:	Completed after 18 iterations at t[s]:   1643.48
	Linear fluid (dielectric constant: 78.4, screening length: 8.12261 Bohr) occupying 0.475794 of unit cell:	Completed after 20 iterations at t[s]:   1650.65
	FillingsUpdate:  mu: -0.097800000  nElectrons: 204.791160  magneticMoment: [ Abs: 0.00280  Tot: +0.00140 ]
	SubspaceRotationAdjust: set factor to 0.083
ElecMinimize: Iter:   8  G: -1081.182179353965694  |grad|_K:  1.343e-05  alpha:  4.162e-01  linmin:  1.322e-04  t[s]:   1657.79
	Linear fluid (dielectric constant: 78.4, screening length: 8.12261 Bohr) occupying 0.494903 of unit cell:	Completed after 28 iterations at t[s]:   1666.68
	Linear fluid (dielectric constant: 78.4, screening length: 8.12261 Bohr) occupying 0.482376 of unit cell:	Completed after 26 iterations at t[s]:   1674.16
	FillingsUpdate:  mu: -0.097800000  nElectrons: 204.931387  magneticMoment: [ Abs: 0.00273  Tot: +0.00145 ]
	SubspaceRotationAdjust: set factor to 0.0928
ElecMinimize: Iter:   9  G: -1081.185031319271502  |grad|_K:  1.060e-05  alpha:  1.397e-01  linmin: -3.652e-03  t[s]:   1681.32
	Linear fluid (dielectric constant: 78.4, screening length: 8.12261 Bohr) occupying 0.485696 of unit cell:	Completed after 22 iterations at t[s]:   1689.68
	Linear fluid (dielectric constant: 78.4, screening length: 8.12261 Bohr) occupying 0.486273 of unit cell:	Completed after 16 iterations at t[s]:   1696.55
	FillingsUpdate:  mu: -0.097800000  nElectrons: 205.036899  magneticMoment: [ Abs: 0.00271  Tot: +0.00159 ]
	SubspaceRotationAdjust: set factor to 0.109
ElecMinimize: Iter:  10  G: -1081.187048039689898  |grad|_K:  1.185e-05  alpha:  1.630e-01  linmin:  6.288e-04  t[s]:   1703.74
	Linear fluid (dielectric constant: 78.4, screening length: 8.12261 Bohr) occupying 0.488952 of unit cell:	Completed after 23 iterations at t[s]:   1712.20
	Linear fluid (dielectric constant: 78.4, screening length: 8.12261 Bohr) occupying 0.488875 of unit cell:	Completed after 13 iterations at t[s]:   1718.90
	FillingsUpdate:  mu: -0.097800000  nElectrons: 205.139463  magneticMoment: [ Abs: 0.00272  Tot: +0.00177 ]
	SubspaceRotationAdjust: set factor to 0.132
ElecMinimize: Iter:  11  G: -1081.188902677056831  |grad|_K:  1.347e-05  alpha:  1.584e-01  linmin: -2.109e-04  t[s]:   1726.03
	Linear fluid (dielectric constant: 78.4, screening length: 8.12261 Bohr) occupying 0.491177 of unit cell:	Completed after 25 iterations at t[s]:   1734.55
	Linear fluid (dielectric constant: 78.4, screening length: 8.12261 Bohr) occupying 0.490616 of unit cell:	Completed after 21 iterations at t[s]:   1741.82
	FillingsUpdate:  mu: -0.097800000  nElectrons: 205.235491  magneticMoment: [ Abs: 0.00276  Tot: +0.00197 ]
	SubspaceRotationAdjust: set factor to 0.135
ElecMinimize: Iter:  12  G: -1081.190843499719222  |grad|_K:  1.177e-05  alpha:  1.197e-01  linmin: -1.960e-05  t[s]:   1749.00
	Linear fluid (dielectric constant: 78.4, screening length: 8.12261 Bohr) occupying 0.492904 of unit cell:	Completed after 25 iterations at t[s]:   1757.60
	Linear fluid (dielectric constant: 78.4, screening length: 8.12261 Bohr) occupying 0.492782 of unit cell:	Completed after 15 iterations at t[s]:   1764.39
	FillingsUpdate:  mu: -0.097800000  nElectrons: 205.345383  magneticMoment: [ Abs: 0.00282  Tot: +0.00213 ]
	SubspaceRotationAdjust: set factor to 0.147
ElecMinimize: Iter:  13  G: -1081.192216116984582  |grad|_K:  1.021e-05  alpha:  1.128e-01  linmin:  3.076e-04  t[s]:   1771.51
	Linear fluid (dielectric constant: 78.4, screening length: 8.12261 Bohr) occupying 0.493709 of unit cell:	Completed after 24 iterations at t[s]:   1780.16
	Linear fluid (dielectric constant: 78.4, screening length: 8.12261 Bohr) occupying 0.493926 of unit cell:	Completed after 20 iterations at t[s]:   1787.26
	FillingsUpdate:  mu: -0.097800000  nElectrons: 205.436868  magneticMoment: [ Abs: 0.00292  Tot: +0.00228 ]
	SubspaceRotationAdjust: set factor to 0.148
ElecMinimize: Iter:  14  G: -1081.193506749470316  |grad|_K:  1.228e-05  alpha:  1.443e-01  linmin: -1.887e-04  t[s]:   1794.36
	Linear fluid (dielectric constant: 78.4, screening length: 8.12261 Bohr) occupying 0.492148 of unit cell:	Completed after 25 iterations at t[s]:   1802.96
	Linear fluid (dielectric constant: 78.4, screening length: 8.12261 Bohr) occupying 0.492770 of unit cell:	Completed after 22 iterations at t[s]:   1810.19
	FillingsUpdate:  mu: -0.097800000  nElectrons: 205.450869  magneticMoment: [ Abs: 0.00314  Tot: +0.00251 ]
	SubspaceRotationAdjust: set factor to 0.168
ElecMinimize: Iter:  15  G: -1081.194935641359734  |grad|_K:  9.965e-06  alpha:  1.022e-01  linmin:  7.103e-05  t[s]:   1817.44
	Linear fluid (dielectric constant: 78.4, screening length: 8.12261 Bohr) occupying 0.491624 of unit cell:	Completed after 23 iterations at t[s]:   1826.00
	Linear fluid (dielectric constant: 78.4, screening length: 8.12261 Bohr) occupying 0.491646 of unit cell:	Completed after 11 iterations at t[s]:   1832.40
	FillingsUpdate:  mu: -0.097800000  nElectrons: 205.445792  magneticMoment: [ Abs: 0.00328  Tot: +0.00266 ]
	SubspaceRotationAdjust: set factor to 0.186
ElecMinimize: Iter:  16  G: -1081.195804041948122  |grad|_K:  1.014e-05  alpha:  1.004e-01  linmin:  3.319e-04  t[s]:   1839.57
	Linear fluid (dielectric constant: 78.4, screening length: 8.12261 Bohr) occupying 0.491740 of unit cell:	Completed after 21 iterations at t[s]:   1847.87
	Linear fluid (dielectric constant: 78.4, screening length: 8.12261 Bohr) occupying 0.491731 of unit cell:	Completed after 16 iterations at t[s]:   1854.81
	FillingsUpdate:  mu: -0.097800000  nElectrons: 205.475021  magneticMoment: [ Abs: 0.00329  Tot: +0.00268 ]
	SubspaceRotationAdjust: set factor to 0.227
ElecMinimize: Iter:  17  G: -1081.196453690200315  |grad|_K:  8.588e-06  alpha:  7.425e-02  linmin: -3.386e-05  t[s]:   1862.02
	Linear fluid (dielectric constant: 78.4, screening length: 8.12261 Bohr) occupying 0.491871 of unit cell:	Completed after 21 iterations at t[s]:   1870.33
	Linear fluid (dielectric constant: 78.4, screening length: 8.12261 Bohr) occupying 0.491927 of unit cell:	Completed after 20 iterations at t[s]:   1878.52
	FillingsUpdate:  mu: -0.097800000  nElectrons: 205.511290  magneticMoment: [ Abs: 0.00327  Tot: +0.00267 ]
	SubspaceRotationAdjust: set factor to 0.233
ElecMinimize: Iter:  18  G: -1081.197203836004519  |grad|_K:  1.081e-05  alpha:  1.155e-01  linmin: -1.017e-04  t[s]:   1885.67
	Linear fluid (dielectric constant: 78.4, screening length: 8.12261 Bohr) occupying 0.490054 of unit cell:	Completed after 25 iterations at t[s]:   1894.26
	Linear fluid (dielectric constant: 78.4, screening length: 8.12261 Bohr) occupying 0.490955 of unit cell:	Completed after 22 iterations at t[s]:   1901.60
	FillingsUpdate:  mu: -0.097800000  nElectrons: 205.500217  magneticMoment: [ Abs: 0.00337  Tot: +0.00278 ]
	SubspaceRotationAdjust: set factor to 0.229
ElecMinimize: Iter:  19  G: -1081.197863072595510  |grad|_K:  8.640e-06  alpha:  6.239e-02  linmin: -1.167e-04  t[s]:   1908.79
	Linear fluid (dielectric constant: 78.4, screening length: 8.12261 Bohr) occupying 0.490601 of unit cell:	Completed after 15 iterations at t[s]:   1916.63
	Linear fluid (dielectric constant: 78.4, screening length: 8.12261 Bohr) occupying 0.490382 of unit cell:	Completed after 14 iterations at t[s]:   1923.35
	FillingsUpdate:  mu: -0.097800000  nElectrons: 205.506534  magneticMoment: [ Abs: 0.00349  Tot: +0.00292 ]
	SubspaceRotationAdjust: set factor to 0.291
ElecMinimize: Iter:  20  G: -1081.198513736331506  |grad|_K:  8.983e-06  alpha:  9.892e-02  linmin:  6.736e-05  t[s]:   1930.41
	Linear fluid (dielectric constant: 78.4, screening length: 8.12261 Bohr) occupying 0.490858 of unit cell:	Completed after 24 iterations at t[s]:   1938.90
	Linear fluid (dielectric constant: 78.4, screening length: 8.12261 Bohr) occupying 0.490712 of unit cell:	Completed after 18 iterations at t[s]:   1946.00
	FillingsUpdate:  mu: -0.097800000  nElectrons: 205.539023  magneticMoment: [ Abs: 0.00353  Tot: +0.00297 ]
	SubspaceRotationAdjust: set factor to 0.266
ElecMinimize: Iter:  21  G: -1081.198971390278075  |grad|_K:  9.302e-06  alpha:  6.562e-02  linmin: -1.120e-06  t[s]:   1953.14
	Linear fluid (dielectric constant: 78.4, screening length: 8.12261 Bohr) occupying 0.490008 of unit cell:	Completed after 21 iterations at t[s]:   1961.38
	Linear fluid (dielectric constant: 78.4, screening length: 8.12261 Bohr) occupying 0.489705 of unit cell:	Completed after 16 iterations at t[s]:   1968.31
	FillingsUpdate:  mu: -0.097800000  nElectrons: 205.529463  magneticMoment: [ Abs: 0.00365  Tot: +0.00310 ]
	SubspaceRotationAdjust: set factor to 0.343
ElecMinimize: Iter:  22  G: -1081.199669731680160  |grad|_K:  7.129e-06  alpha:  9.249e-02  linmin:  7.225e-05  t[s]:   1975.41
	Linear fluid (dielectric constant: 78.4, screening length: 8.12261 Bohr) occupying 0.488629 of unit cell:	Completed after 22 iterations at t[s]:   1983.79
	Linear fluid (dielectric constant: 78.4, screening length: 8.12261 Bohr) occupying 0.488774 of unit cell:	Completed after 15 iterations at t[s]:   1990.62
	FillingsUpdate:  mu: -0.097800000  nElectrons: 205.508456  magneticMoment: [ Abs: 0.00372  Tot: +0.00317 ]
	SubspaceRotationAdjust: set factor to 0.328
ElecMinimize: Iter:  23  G: -1081.200024100019618  |grad|_K:  7.174e-06  alpha:  8.034e-02  linmin: -4.120e-06  t[s]:   1997.73
	Linear fluid (dielectric constant: 78.4, screening length: 8.12261 Bohr) occupying 0.488988 of unit cell:	Completed after 19 iterations at t[s]:   2005.88
	Linear fluid (dielectric constant: 78.4, screening length: 8.12261 Bohr) occupying 0.488914 of unit cell:	Completed after 15 iterations at t[s]:   2012.64
	FillingsUpdate:  mu: -0.097800000  nElectrons: 205.520688  magneticMoment: [ Abs: 0.00375  Tot: +0.00319 ]
	SubspaceRotationAdjust: set factor to 0.294
ElecMinimize: Iter:  24  G: -1081.200248449041737  |grad|_K:  6.385e-06  alpha:  5.010e-02  linmin:  1.225e-05  t[s]:   2019.87
	Linear fluid (dielectric constant: 78.4, screening length: 8.12261 Bohr) occupying 0.488493 of unit cell:	Completed after 20 iterations at t[s]:   2028.12
	Linear fluid (dielectric constant: 78.4, screening length: 8.12261 Bohr) occupying 0.488134 of unit cell:	Completed after 19 iterations at t[s]:   2035.17
	FillingsUpdate:  mu: -0.097800000  nElectrons: 205.501930  magneticMoment: [ Abs: 0.00391  Tot: +0.00335 ]
	SubspaceRotationAdjust: set factor to 0.343
ElecMinimize: Iter:  25  G: -1081.200573109658535  |grad|_K:  5.644e-06  alpha:  9.127e-02  linmin:  5.539e-05  t[s]:   2042.29
	Linear fluid (dielectric constant: 78.4, screening length: 8.12261 Bohr) occupying 0.487677 of unit cell:	Completed after 18 iterations at t[s]:   2050.40
	Linear fluid (dielectric constant: 78.4, screening length: 8.12261 Bohr) occupying 0.487575 of unit cell:	Completed after 13 iterations at t[s]:   2057.02
	FillingsUpdate:  mu: -0.097800000  nElectrons: 205.488033  magneticMoment: [ Abs: 0.00407  Tot: +0.00350 ]
	SubspaceRotationAdjust: set factor to 0.315
ElecMinimize: Iter:  26  G: -1081.200881249500299  |grad|_K:  6.247e-06  alpha:  1.111e-01  linmin:  1.604e-05  t[s]:   2064.25
	Linear fluid (dielectric constant: 78.4, screening length: 8.12261 Bohr) occupying 0.488631 of unit cell:	Completed after 23 iterations at t[s]:   2072.65
	Linear fluid (dielectric constant: 78.4, screening length: 8.12261 Bohr) occupying 0.488047 of unit cell:	Completed after 22 iterations at t[s]:   2079.90
	FillingsUpdate:  mu: -0.097800000  nElectrons: 205.504783  magneticMoment: [ Abs: 0.00409  Tot: +0.00352 ]
	SubspaceRotationAdjust: set factor to 0.268
ElecMinimize: Iter:  27  G: -1081.201043058108326  |grad|_K:  5.330e-06  alpha:  4.794e-02  linmin:  7.632e-05  t[s]:   2087.12
	Linear fluid (dielectric constant: 78.4, screening length: 8.12261 Bohr) occupying 0.487967 of unit cell:	Completed after 14 iterations at t[s]:   2094.95
	Linear fluid (dielectric constant: 78.4, screening length: 8.12261 Bohr) occupying 0.487898 of unit cell:	Completed after 14 iterations at t[s]:   2101.71
	FillingsUpdate:  mu: -0.097800000  nElectrons: 205.498050  magneticMoment: [ Abs: 0.00416  Tot: +0.00357 ]
	SubspaceRotationAdjust: set factor to 0.294
ElecMinimize: Iter:  28  G: -1081.201256398343730  |grad|_K:  4.806e-06  alpha:  8.636e-02  linmin: -1.977e-06  t[s]:   2108.84
	Linear fluid (dielectric constant: 78.4, screening length: 8.12261 Bohr) occupying 0.487636 of unit cell:	Completed after 16 iterations at t[s]:   2116.73
	Linear fluid (dielectric constant: 78.4, screening length: 8.12261 Bohr) occupying 0.487573 of unit cell:	Completed after 13 iterations at t[s]:   2123.40
	FillingsUpdate:  mu: -0.097800000  nElectrons: 205.483678  magneticMoment: [ Abs: 0.00428  Tot: +0.00368 ]
	SubspaceRotationAdjust: set factor to 0.338
ElecMinimize: Iter:  29  G: -1081.201471771344586  |grad|_K:  5.217e-06  alpha:  1.066e-01  linmin:  8.925e-06  t[s]:   2130.52
	Linear fluid (dielectric constant: 78.4, screening length: 8.12261 Bohr) occupying 0.488140 of unit cell:	Completed after 21 iterations at t[s]:   2138.78
	Linear fluid (dielectric constant: 78.4, screening length: 8.12261 Bohr) occupying 0.487878 of unit cell:	Completed after 19 iterations at t[s]:   2145.88
	FillingsUpdate:  mu: -0.097800000  nElectrons: 205.490404  magneticMoment: [ Abs: 0.00433  Tot: +0.00371 ]
	SubspaceRotationAdjust: set factor to 0.31
ElecMinimize: Iter:  30  G: -1081.201603803485796  |grad|_K:  4.561e-06  alpha:  5.598e-02  linmin:  5.632e-05  t[s]:   2152.96
	Linear fluid (dielectric constant: 78.4, screening length: 8.12261 Bohr) occupying 0.487631 of unit cell:	Completed after 19 iterations at t[s]:   2161.07
	Linear fluid (dielectric constant: 78.4, screening length: 8.12261 Bohr) occupying 0.487480 of unit cell:	Completed after 16 iterations at t[s]:   2167.95
	FillingsUpdate:  mu: -0.097800000  nElectrons: 205.470595  magneticMoment: [ Abs: 0.00443  Tot: +0.00380 ]
	SubspaceRotationAdjust: set factor to 0.337
ElecMinimize: Iter:  31  G: -1081.201765346177808  |grad|_K:  3.975e-06  alpha:  8.906e-02  linmin: -1.203e-05  t[s]:   2175.33
	Linear fluid (dielectric constant: 78.4, screening length: 8.12261 Bohr) occupying 0.487237 of unit cell:	Completed after 16 iterations at t[s]:   2183.25
	Linear fluid (dielectric constant: 78.4, screening length: 8.12261 Bohr) occupying 0.487184 of unit cell:	Completed after 13 iterations at t[s]:   2189.95
	FillingsUpdate:  mu: -0.097800000  nElectrons: 205.452168  magneticMoment: [ Abs: 0.00452  Tot: +0.00385 ]
	SubspaceRotationAdjust: set factor to 0.366
ElecMinimize: Iter:  32  G: -1081.201914852499613  |grad|_K:  4.073e-06  alpha:  1.080e-01  linmin: -1.743e-05  t[s]:   2197.06
	Linear fluid (dielectric constant: 78.4, screening length: 8.12261 Bohr) occupying 0.487553 of unit cell:	Completed after 18 iterations at t[s]:   2205.22
	Linear fluid (dielectric constant: 78.4, screening length: 8.12261 Bohr) occupying 0.487448 of unit cell:	Completed after 14 iterations at t[s]:   2212.11
	FillingsUpdate:  mu: -0.097800000  nElectrons: 205.452424  magneticMoment: [ Abs: 0.00458  Tot: +0.00389 ]
	SubspaceRotationAdjust: set factor to 0.348
ElecMinimize: Iter:  33  G: -1081.202025753685575  |grad|_K:  4.336e-06  alpha:  7.655e-02  linmin: -1.005e-05  t[s]:   2219.20
	Linear fluid (dielectric constant: 78.4, screening length: 8.12261 Bohr) occupying 0.486991 of unit cell:	Completed after 21 iterations at t[s]:   2227.54
	Linear fluid (dielectric constant: 78.4, screening length: 8.12261 Bohr) occupying 0.487104 of unit cell:	Completed after 15 iterations at t[s]:   2234.25
	FillingsUpdate:  mu: -0.097800000  nElectrons: 205.433895  magneticMoment: [ Abs: 0.00471  Tot: +0.00399 ]
	SubspaceRotationAdjust: set factor to 0.323
ElecMinimize: Iter:  34  G: -1081.202120810785800  |grad|_K:  3.423e-06  alpha:  5.781e-02  linmin: -9.839e-06  t[s]:   2241.52
	Linear fluid (dielectric constant: 78.4, screening length: 8.12261 Bohr) occupying 0.487175 of unit cell:	Completed after 14 iterations at t[s]:   2249.36
	Linear fluid (dielectric constant: 78.4, screening length: 8.12261 Bohr) occupying 0.487243 of unit cell:	Completed after 14 iterations at t[s]:   2255.99
	FillingsUpdate:  mu: -0.097800000  nElectrons: 205.426689  magneticMoment: [ Abs: 0.00486  Tot: +0.00408 ]
	SubspaceRotationAdjust: set factor to 0.36
ElecMinimize: Iter:  35  G: -1081.202237670215254  |grad|_K:  3.536e-06  alpha:  1.138e-01  linmin: -7.912e-06  t[s]:   2263.15
	Linear fluid (dielectric constant: 78.4, screening length: 8.12261 Bohr) occupying 0.487533 of unit cell:	Completed after 20 iterations at t[s]:   2271.59
	Linear fluid (dielectric constant: 78.4, screening length: 8.12261 Bohr) occupying 0.487506 of unit cell:	Completed after 11 iterations at t[s]:   2277.96
	FillingsUpdate:  mu: -0.097800000  nElectrons: 205.421899  magneticMoment: [ Abs: 0.00495  Tot: +0.00413 ]
	SubspaceRotationAdjust: set factor to 0.404
ElecMinimize: Iter:  36  G: -1081.202350513176498  |grad|_K:  3.309e-06  alpha:  1.031e-01  linmin: -1.164e-05  t[s]:   2285.09
	Linear fluid (dielectric constant: 78.4, screening length: 8.12261 Bohr) occupying 0.487167 of unit cell:	Completed after 20 iterations at t[s]:   2293.28
	Linear fluid (dielectric constant: 78.4, screening length: 8.12261 Bohr) occupying 0.487297 of unit cell:	Completed after 15 iterations at t[s]:   2300.14
	FillingsUpdate:  mu: -0.097800000  nElectrons: 205.407967  magneticMoment: [ Abs: 0.00504  Tot: +0.00418 ]
	SubspaceRotationAdjust: set factor to 0.353
ElecMinimize: Iter:  37  G: -1081.202411764335011  |grad|_K:  3.300e-06  alpha:  6.395e-02  linmin:  1.599e-06  t[s]:   2307.27
	Linear fluid (dielectric constant: 78.4, screening length: 8.12261 Bohr) occupying 0.487639 of unit cell:	Completed after 16 iterations at t[s]:   2315.18
	Linear fluid (dielectric constant: 78.4, screening length: 8.12261 Bohr) occupying 0.487633 of unit cell:	Completed after 2 iterations at t[s]:   2321.03
	FillingsUpdate:  mu: -0.097800000  nElectrons: 205.410325  magneticMoment: [ Abs: 0.00511  Tot: +0.00422 ]
	SubspaceRotationAdjust: set factor to 0.347
ElecMinimize: Iter:  38  G: -1081.202471629585489  |grad|_K:  2.774e-06  alpha:  6.281e-02  linmin: -5.058e-06  t[s]:   2328.18
	Linear fluid (dielectric constant: 78.4, screening length: 8.12261 Bohr) occupying 0.487690 of unit cell:	Completed after 15 iterations at t[s]:   2336.05
	Linear fluid (dielectric constant: 78.4, screening length: 8.12261 Bohr) occupying 0.487733 of unit cell:	Completed after 13 iterations at t[s]:   2342.73
	FillingsUpdate:  mu: -0.097800000  nElectrons: 205.403254  magneticMoment: [ Abs: 0.00529  Tot: +0.00436 ]
	SubspaceRotationAdjust: set factor to 0.367
ElecMinimize: Iter:  39  G: -1081.202546472172344  |grad|_K:  2.838e-06  alpha:  1.110e-01  linmin: -4.828e-06  t[s]:   2349.78
	Linear fluid (dielectric constant: 78.4, screening length: 8.12261 Bohr) occupying 0.488010 of unit cell:	Completed after 15 iterations at t[s]:   2357.62
	Linear fluid (dielectric constant: 78.4, screening length: 8.12261 Bohr) occupying 0.488011 of unit cell:	Completed after 0 iterations at t[s]:   2363.24
	FillingsUpdate:  mu: -0.097800000  nElectrons: 205.400446  magneticMoment: [ Abs: 0.00548  Tot: +0.00449 ]
	SubspaceRotationAdjust: set factor to 0.419
	SubspaceRotationAdjust: resetting CG because factor has changed by 7.6359
	Linear fluid (dielectric constant: 78.4, screening length: 8.12261 Bohr) occupying 0.488011 of unit cell:	Completed after 0 iterations at t[s]:   2373.25
ElecMinimize: 	State modified externally: resetting search direction.
ElecMinimize: Iter:  40  G: -1081.202624894645169  |grad|_K:  2.599e-06  alpha:  1.112e-01
	Linear fluid (dielectric constant: 78.4, screening length: 8.12261 Bohr) occupying 0.488403 of unit cell:	Completed after 21 iterations at t[s]:   2388.66
	Linear fluid (dielectric constant: 78.4, screening length: 8.12261 Bohr) occupying 0.488437 of unit cell:	Completed after 11 iterations at t[s]:   2395.07
	FillingsUpdate:  mu: -0.097800000  nElectrons: 205.412802  magneticMoment: [ Abs: 0.00545  Tot: +0.00446 ]
	SubspaceRotationAdjust: set factor to 0.242
ElecMinimize: Iter:  41  G: -1081.202696508878944  |grad|_K:  4.185e-06  alpha:  1.211e-01  linmin: -3.440e-04  t[s]:   2402.23
	Linear fluid (dielectric constant: 78.4, screening length: 8.12261 Bohr) occupying 0.487408 of unit cell:	Completed after 23 iterations at t[s]:   2410.66
	Linear fluid (dielectric constant: 78.4, screening length: 8.12261 Bohr) occupying 0.488076 of unit cell:	Completed after 21 iterations at t[s]:   2417.89
	FillingsUpdate:  mu: -0.097800000  nElectrons: 205.401106  magneticMoment: [ Abs: 0.00552  Tot: +0.00451 ]
	SubspaceRotationAdjust: set factor to 0.185
ElecMinimize: Iter:  42  G: -1081.202764266404301  |grad|_K:  2.073e-06  alpha:  4.363e-02  linmin: -2.037e-04  t[s]:   2425.01
	Linear fluid (dielectric constant: 78.4, screening length: 8.12261 Bohr) occupying 0.488061 of unit cell:	Completed after 11 iterations at t[s]:   2432.60
ElecMinimize: 	Predicted alpha/alphaT>3.000000, increasing alphaT to 1.308828e-01.
	Linear fluid (dielectric constant: 78.4, screening length: 8.12261 Bohr) occupying 0.488029 of unit cell:	Completed after 13 iterations at t[s]:   2439.19
	Linear fluid (dielectric constant: 78.4, screening length: 8.12261 Bohr) occupying 0.488002 of unit cell:	Completed after 13 iterations at t[s]:   2445.74
	FillingsUpdate:  mu: -0.097800000  nElectrons: 205.398752  magneticMoment: [ Abs: 0.00565  Tot: +0.00463 ]
	SubspaceRotationAdjust: set factor to 0.158
ElecMinimize: Iter:  43  G: -1081.202839776847213  |grad|_K:  2.138e-06  alpha:  2.001e-01  linmin:  1.012e-04  t[s]:   2452.91
	Linear fluid (dielectric constant: 78.4, screening length: 8.12261 Bohr) occupying 0.488301 of unit cell:	Completed after 16 iterations at t[s]:   2460.93
	Linear fluid (dielectric constant: 78.4, screening length: 8.12261 Bohr) occupying 0.488259 of unit cell:	Completed after 13 iterations at t[s]:   2467.46
	FillingsUpdate:  mu: -0.097800000  nElectrons: 205.405738  magneticMoment: [ Abs: 0.00570  Tot: +0.00466 ]
	SubspaceRotationAdjust: set factor to 0.146
ElecMinimize: Iter:  44  G: -1081.202908269594445  |grad|_K:  2.111e-06  alpha:  1.718e-01  linmin: -7.860e-06  t[s]:   2475.19
	Linear fluid (dielectric constant: 78.4, screening length: 8.12261 Bohr) occupying 0.487865 of unit cell:	Completed after 19 iterations at t[s]:   2483.32
	Linear fluid (dielectric constant: 78.4, screening length: 8.12261 Bohr) occupying 0.488038 of unit cell:	Completed after 14 iterations at t[s]:   2490.03
	FillingsUpdate:  mu: -0.097800000  nElectrons: 205.398381  magneticMoment: [ Abs: 0.00576  Tot: +0.00471 ]
	SubspaceRotationAdjust: set factor to 0.102
ElecMinimize: Iter:  45  G: -1081.202946399839220  |grad|_K:  1.523e-06  alpha:  9.744e-02  linmin: -2.725e-05  t[s]:   2497.23
	Linear fluid (dielectric constant: 78.4, screening length: 8.12261 Bohr) occupying 0.488093 of unit cell:	Completed after 11 iterations at t[s]:   2504.87
	Linear fluid (dielectric constant: 78.4, screening length: 8.12261 Bohr) occupying 0.488180 of unit cell:	Completed after 13 iterations at t[s]:   2511.59
	FillingsUpdate:  mu: -0.097800000  nElectrons: 205.402151  magneticMoment: [ Abs: 0.00585  Tot: +0.00477 ]
	SubspaceRotationAdjust: set factor to 0.133
ElecMinimize: Iter:  46  G: -1081.202997290125040  |grad|_K:  1.228e-06  alpha:  2.506e-01  linmin: -6.415e-06  t[s]:   2518.62
	Linear fluid (dielectric constant: 78.4, screening length: 8.12261 Bohr) occupying 0.488542 of unit cell:	Completed after 18 iterations at t[s]:   2526.71
	Linear fluid (dielectric constant: 78.4, screening length: 8.12261 Bohr) occupying 0.488376 of unit cell:	Completed after 15 iterations at t[s]:   2533.52
	FillingsUpdate:  mu: -0.097800000  nElectrons: 205.408072  magneticMoment: [ Abs: 0.00588  Tot: +0.00479 ]
	SubspaceRotationAdjust: set factor to 0.101
ElecMinimize: Iter:  47  G: -1081.203015137807824  |grad|_K:  1.016e-06  alpha:  1.353e-01  linmin:  4.201e-06  t[s]:   2540.69
	Linear fluid (dielectric constant: 78.4, screening length: 8.12261 Bohr) occupying 0.488253 of unit cell:	Completed after 14 iterations at t[s]:   2548.47
	Linear fluid (dielectric constant: 78.4, screening length: 8.12261 Bohr) occupying 0.488240 of unit cell:	Completed after 10 iterations at t[s]:   2554.87
	FillingsUpdate:  mu: -0.097800000  nElectrons: 205.403789  magneticMoment: [ Abs: 0.00595  Tot: +0.00485 ]
	SubspaceRotationAdjust: set factor to 0.0801
ElecMinimize: Iter:  48  G: -1081.203028653635329  |grad|_K:  5.654e-07  alpha:  1.496e-01  linmin:  1.656e-05  t[s]:   2562.00
	Linear fluid (dielectric constant: 78.4, screening length: 8.12261 Bohr) occupying 0.488247 of unit cell:	Completed after 6 iterations at t[s]:   2569.29
	Linear fluid (dielectric constant: 78.4, screening length: 8.12261 Bohr) occupying 0.488250 of unit cell:	Completed after 5 iterations at t[s]:   2575.29
	FillingsUpdate:  mu: -0.097800000  nElectrons: 205.404100  magneticMoment: [ Abs: 0.00599  Tot: +0.00488 ]
	SubspaceRotationAdjust: set factor to 0.0909
ElecMinimize: Iter:  49  G: -1081.203035005489255  |grad|_K:  4.361e-07  alpha:  2.272e-01  linmin:  1.245e-05  t[s]:   2582.50
	Linear fluid (dielectric constant: 78.4, screening length: 8.12261 Bohr) occupying 0.488323 of unit cell:	Completed after 13 iterations at t[s]:   2590.22
	Linear fluid (dielectric constant: 78.4, screening length: 8.12261 Bohr) occupying 0.488330 of unit cell:	Completed after 5 iterations at t[s]:   2596.30
	FillingsUpdate:  mu: -0.097800000  nElectrons: 205.406592  magneticMoment: [ Abs: 0.00603  Tot: +0.00491 ]
	SubspaceRotationAdjust: set factor to 0.0806
ElecMinimize: Iter:  50  G: -1081.203039169024123  |grad|_K:  3.756e-07  alpha:  2.500e-01  linmin: -2.462e-04  t[s]:   2603.44
	Linear fluid (dielectric constant: 78.4, screening length: 8.12261 Bohr) occupying 0.488306 of unit cell:	Completed after 13 iterations at t[s]:   2611.14
	Linear fluid (dielectric constant: 78.4, screening length: 8.12261 Bohr) occupying 0.488305 of unit cell:	Completed after 2 iterations at t[s]:   2616.98
	FillingsUpdate:  mu: -0.097800000  nElectrons: 205.405748  magneticMoment: [ Abs: 0.00608  Tot: +0.00495 ]
	SubspaceRotationAdjust: set factor to 0.0718
ElecMinimize: Iter:  51  G: -1081.203042397493846  |grad|_K:  3.668e-07  alpha:  2.604e-01  linmin:  6.031e-05  t[s]:   2624.16
	Linear fluid (dielectric constant: 78.4, screening length: 8.12261 Bohr) occupying 0.488382 of unit cell:	Completed after 11 iterations at t[s]:   2631.91
	Linear fluid (dielectric constant: 78.4, screening length: 8.12261 Bohr) occupying 0.488371 of unit cell:	Completed after 3 iterations at t[s]:   2637.67
	FillingsUpdate:  mu: -0.097800000  nElectrons: 205.407640  magneticMoment: [ Abs: 0.00612  Tot: +0.00498 ]
	SubspaceRotationAdjust: set factor to 0.0776
ElecMinimize: Iter:  52  G: -1081.203045021293519  |grad|_K:  2.698e-07  alpha:  2.234e-01  linmin:  1.462e-05  t[s]:   2644.81
	Linear fluid (dielectric constant: 78.4, screening length: 8.12261 Bohr) occupying 0.488424 of unit cell:	Completed after 11 iterations at t[s]:   2652.42
	Linear fluid (dielectric constant: 78.4, screening length: 8.12261 Bohr) occupying 0.488442 of unit cell:	Completed after 9 iterations at t[s]:   2658.72
	FillingsUpdate:  mu: -0.097800000  nElectrons: 205.409766  magneticMoment: [ Abs: 0.00616  Tot: +0.00501 ]
	SubspaceRotationAdjust: set factor to 0.0822
ElecMinimize: Iter:  53  G: -1081.203046953714193  |grad|_K:  2.315e-07  alpha:  3.030e-01  linmin: -9.945e-05  t[s]:   2665.84
	Linear fluid (dielectric constant: 78.4, screening length: 8.12261 Bohr) occupying 0.488454 of unit cell:	Completed after 12 iterations at t[s]:   2673.50
	Linear fluid (dielectric constant: 78.4, screening length: 8.12261 Bohr) occupying 0.488451 of unit cell:	Completed after 6 iterations at t[s]:   2679.59
	FillingsUpdate:  mu: -0.097800000  nElectrons: 205.409998  magneticMoment: [ Abs: 0.00620  Tot: +0.00504 ]
	SubspaceRotationAdjust: set factor to 0.0788
ElecMinimize: Iter:  54  G: -1081.203048010235761  |grad|_K:  1.833e-07  alpha:  2.243e-01  linmin:  6.317e-05  t[s]:   2686.76
	Linear fluid (dielectric constant: 78.4, screening length: 8.12261 Bohr) occupying 0.488479 of unit cell:	Completed after 10 iterations at t[s]:   2694.35
	Linear fluid (dielectric constant: 78.4, screening length: 8.12261 Bohr) occupying 0.488479 of unit cell:	Completed after 0 iterations at t[s]:   2699.86
	FillingsUpdate:  mu: -0.097800000  nElectrons: 205.410796  magneticMoment: [ Abs: 0.00624  Tot: +0.00507 ]
	SubspaceRotationAdjust: set factor to 0.0834
ElecMinimize: Iter:  55  G: -1081.203048665510778  |grad|_K:  1.514e-07  alpha:  2.234e-01  linmin:  3.101e-05  t[s]:   2707.04
	Linear fluid (dielectric constant: 78.4, screening length: 8.12261 Bohr) occupying 0.488480 of unit cell:	Completed after 9 iterations at t[s]:   2714.52
	Linear fluid (dielectric constant: 78.4, screening length: 8.12261 Bohr) occupying 0.488480 of unit cell:	Completed after 2 iterations at t[s]:   2720.41
	FillingsUpdate:  mu: -0.097800000  nElectrons: 205.410768  magneticMoment: [ Abs: 0.00628  Tot: +0.00510 ]
	SubspaceRotationAdjust: set factor to 0.0836
ElecMinimize: Iter:  56  G: -1081.203049161590570  |grad|_K:  1.354e-07  alpha:  2.478e-01  linmin: -9.144e-05  t[s]:   2727.54
	Linear fluid (dielectric constant: 78.4, screening length: 8.12261 Bohr) occupying 0.488500 of unit cell:	Completed after 9 iterations at t[s]:   2734.99
	Linear fluid (dielectric constant: 78.4, screening length: 8.12261 Bohr) occupying 0.488505 of unit cell:	Completed after 2 iterations at t[s]:   2740.75
	FillingsUpdate:  mu: -0.097800000  nElectrons: 205.411370  magneticMoment: [ Abs: 0.00633  Tot: +0.00515 ]
	SubspaceRotationAdjust: set factor to 0.0944
ElecMinimize: Iter:  57  G: -1081.203049659178305  |grad|_K:  1.202e-07  alpha:  3.090e-01  linmin: -9.032e-06  t[s]:   2747.95
	Linear fluid (dielectric constant: 78.4, screening length: 8.12261 Bohr) occupying 0.488523 of unit cell:	Completed after 9 iterations at t[s]:   2755.44
	Linear fluid (dielectric constant: 78.4, screening length: 8.12261 Bohr) occupying 0.488522 of unit cell:	Completed after 1 iterations at t[s]:   2761.14
	FillingsUpdate:  mu: -0.097800000  nElectrons: 205.411683  magneticMoment: [ Abs: 0.00639  Tot: +0.00519 ]
	SubspaceRotationAdjust: set factor to 0.0934
[...]
ion Au   3.729776000000000   7.892520409499454  11.958174489056679 1
ion Au   3.729776000000000   2.640677557202804  17.424187650771181 1
ion Au   3.729776000000000   2.656879590500546  11.958174489056679 1
ion Au   3.729776000000000   7.908722442797195  17.424187650771181 1
ion Au   0.000000000000000   5.274699999999999  19.947718868853762 1
ion Au   0.000000000000000  -0.000000000000000  14.485423474179649 1

# Forces in Cartesian coordinates:
force Ni   0.000000000000000   0.000000000000000  -0.000050262674880 1
force Ni   0.000000000000000   0.000000000000000   0.000220258175938 1
force Ni   0.000000000000000   0.000000000000000   0.000026782966360 1
force Ni   0.000000000000000   0.000000000000000   0.000519562163548 1
force Au   0.000000000000000   0.000075822576009  -0.000089625683813 1
force Au   0.000000000000000   0.000154318134674   0.000094893088291 1
force Au   0.000000000000000  -0.000075822576008  -0.000089625683813 1
force Au   0.000000000000000  -0.000154318134674   0.000094893088291 1
force Au   0.000000000000000   0.000000000000000  -0.000115674882670 1
force Au   0.000000000000000   0.000000000000000   0.000018867282976 1
force Au   0.000000000000000   0.000428899100716   0.000083782579450 1
force Au   0.000000000000000  -0.000089310194339  -0.000169501817213 1
force Au   0.000000000000000  -0.000428899100716   0.000083782579450 1
force Au   0.000000000000000   0.000089310194339  -0.000169501817222 1
force Au   0.000000000000000   0.000000000000000   0.000236952784677 1
force Au   0.000000000000000   0.000000000000000   0.000175960078254 1

# Energy components:
   A_diel =       -0.4550680730542819
   Eewald =     4439.6259734499626575
       EH =     5502.0366017544611168
     Eloc =   -11170.2238569992259727
      Enl =       53.5782006062096343
     EvdW =       -0.3233975398174042
      Exc =     -444.8937016978618999
 Exc_core =      275.5232370721264488
       KE =      243.8997520148739682
  MuShift =       -0.0687358940342512
-------------------------------------
     Etot =    -1101.3009953063594821
       TS =        0.0010622811596547
-------------------------------------
        F =    -1101.3020575875191298
      muN =      -20.0890576712892219
-------------------------------------
        G =    -1081.2129999162298191


Dumping 'jdft.fillings' ... done
Dumping 'jdft.wfns' ... done
Dumping 'jdft.fluidState' ... done
Dumping 'jdft.ionpos' ... done
Dumping 'jdft.lattice' ... done
Dumping 'jdft.eigenvals' ... done
Dumping 'jdft.eigStats' ... 
	eMin: -3.855971 at state 4 ( [ +0.125000 +0.000000 +0.000000 ] spin 1 )
	HOMO: -0.097885 at state 9 ( [ +0.250000 +0.166667 +0.000000 ] spin 1 )
	mu  : -0.097800
	LUMO: -0.097546 at state 33 ( [ +0.375000 +0.166667 +0.000000 ] spin -1 )
	eMax: +0.147536 at state 24 ( [ +0.125000 +0.000000 +0.000000 ] spin -1 )
	HOMO-LUMO gap: +0.000339
	Optical gap  : +0.002922 at state 19 ( [ +0.500000 +0.500000 +0.000000 ] spin 1 )
Dumping 'jdft.Ecomponents' ... done
IonicMinimize: Iter:  12  G: -1081.212999916229819  |grad|_K:  1.387e-04  alpha:  1.000e+00  linmin: -4.903e-02  t[s]:  15881.86

#--- Lowdin population analysis ---
# oxidation-state Ni +0.214 +0.198 +0.209 +0.147
# magnetic-moments Ni +0.044 +0.045 +0.154 +0.292
# oxidation-state Au -0.297 -0.063 -0.297 -0.063 -0.053 -0.151 -0.048 -0.196 -0.048 -0.196 -0.379 -0.064
# magnetic-moments Au +0.001 -0.000 +0.001 -0.000 -0.000 +0.002 -0.001 -0.000 -0.001 -0.000 -0.010 -0.004


Computing DFT-D3 correction:
# coordination-number Ni 5.826 6.471 6.277 4.839
# coordination-number Au 5.195 8.224 5.195 8.224 8.381 7.690 8.496 7.704 8.496 7.704 4.850 8.572
# diagonal-C6 Ni 138.70 134.77 136.05 141.34
# diagonal-C6 Au 317.16 317.16 317.16 317.16 317.16 317.16 317.16 317.16 317.16 317.16 317.16 317.16
EvdW_6 =   -0.117080
EvdW_8 =   -0.206297
Shifting auxilliary hamiltonian by -0.000034 to set nElectrons=205.409588

-------- Electronic minimization -----------
	Linear fluid (dielectric constant: 78.4, screening length: 8.12261 Bohr) occupying 0.486377 of unit cell:	Completed after 15 iterations at t[s]:  15890.96
	FillingsUpdate:  mu: -0.097800000  nElectrons: 205.409588  magneticMoment: [ Abs: 0.62171  Tot: +0.51707 ]
ElecMinimize: Iter:   0  G: -1081.212986980880942  |grad|_K:  5.243e-07  alpha:  1.000e+00
	Linear fluid (dielectric constant: 78.4, screening length: 8.12261 Bohr) occupying 0.486657 of unit cell:	Completed after 19 iterations at t[s]:  15907.41
	Linear fluid (dielectric constant: 78.4, screening length: 8.12261 Bohr) occupying 0.486426 of unit cell:	Completed after 16 iterations at t[s]:  15914.20
	FillingsUpdate:  mu: -0.097800000  nElectrons: 205.411147  magneticMoment: [ Abs: 0.62126  Tot: +0.51660 ]
	SubspaceRotationAdjust: set factor to 0.0335
ElecMinimize: Iter:   1  G: -1081.212991199166936  |grad|_K:  3.148e-07  alpha:  1.750e-01  linmin:  8.795e-05  t[s]:  15921.34
	Linear fluid (dielectric constant: 78.4, screening length: 8.12261 Bohr) occupying 0.486423 of unit cell:	Completed after 3 iterations at t[s]:  15928.40
	Linear fluid (dielectric constant: 78.4, screening length: 8.12261 Bohr) occupying 0.486420 of unit cell:	Completed after 5 iterations at t[s]:  15934.36
	FillingsUpdate:  mu: -0.097800000  nElectrons: 205.411029  magneticMoment: [ Abs: 0.62123  Tot: +0.51660 ]
	SubspaceRotationAdjust: set factor to 0.0423
ElecMinimize: Iter:   2  G: -1081.212994321799442  |grad|_K:  1.676e-07  alpha:  3.610e-01  linmin:  7.170e-04  t[s]:  15941.50
	Linear fluid (dielectric constant: 78.4, screening length: 8.12261 Bohr) occupying 0.486398 of unit cell:	Completed after 13 iterations at t[s]:  15949.23
	Linear fluid (dielectric constant: 78.4, screening length: 8.12261 Bohr) occupying 0.486397 of unit cell:	Completed after 0 iterations at t[s]:  15954.80
	FillingsUpdate:  mu: -0.097800000  nElectrons: 205.410348  magneticMoment: [ Abs: 0.62132  Tot: +0.51673 ]
	SubspaceRotationAdjust: set factor to 0.0443
ElecMinimize: Iter:   3  G: -1081.212995220883386  |grad|_K:  1.402e-07  alpha:  3.669e-01  linmin: -1.673e-03  t[s]:  15961.89
	Linear fluid (dielectric constant: 78.4, screening length: 8.12261 Bohr) occupying 0.486404 of unit cell:	Completed after 6 iterations at t[s]:  15969.18
	Linear fluid (dielectric constant: 78.4, screening length: 8.12261 Bohr) occupying 0.486406 of unit cell:	Completed after 2 iterations at t[s]:  15975.92
	FillingsUpdate:  mu: -0.097800000  nElectrons: 205.410668  magneticMoment: [ Abs: 0.62118  Tot: +0.51663 ]
	SubspaceRotationAdjust: set factor to 0.0533
ElecMinimize: Iter:   4  G: -1081.212996068396933  |grad|_K:  1.391e-07  alpha:  4.861e-01  linmin:  2.164e-04  t[s]:  15983.08
	Linear fluid (dielectric constant: 78.4, screening length: 8.12261 Bohr) occupying 0.486432 of unit cell:	Completed after 13 iterations at t[s]:  15990.75
	Linear fluid (dielectric constant: 78.4, screening length: 8.12261 Bohr) occupying 0.486422 of unit cell:	Completed after 9 iterations at t[s]:  15997.07
	FillingsUpdate:  mu: -0.097800000  nElectrons: 205.411167  magneticMoment: [ Abs: 0.62100  Tot: +0.51647 ]
	SubspaceRotationAdjust: set factor to 0.058
ElecMinimize: Iter:   5  G: -1081.212996556176449  |grad|_K:  1.342e-07  alpha:  2.924e-01  linmin: -7.880e-05  t[s]:  16004.24
	Linear fluid (dielectric constant: 78.4, screening length: 8.12261 Bohr) occupying 0.486405 of unit cell:	Completed after 10 iterations at t[s]:  16011.91
	Linear fluid (dielectric constant: 78.4, screening length: 8.12261 Bohr) occupying 0.486394 of unit cell:	Completed after 9 iterations at t[s]:  16018.14
	FillingsUpdate:  mu: -0.097800000  nElectrons: 205.410335  magneticMoment: [ Abs: 0.62105  Tot: +0.51660 ]
	SubspaceRotationAdjust: set factor to 0.056
ElecMinimize: Iter:   6  G: -1081.212997328070514  |grad|_K:  1.388e-07  alpha:  4.897e-01  linmin:  8.340e-05  t[s]:  16025.29
	Linear fluid (dielectric constant: 78.4, screening length: 8.12261 Bohr) occupying 0.486419 of unit cell:	Completed after 13 iterations at t[s]:  16033.06
	Linear fluid (dielectric constant: 78.4, screening length: 8.12261 Bohr) occupying 0.486412 of unit cell:	Completed after 7 iterations at t[s]:  16039.18
	FillingsUpdate:  mu: -0.097800000  nElectrons: 205.410910  magneticMoment: [ Abs: 0.62081  Tot: +0.51641 ]
	SubspaceRotationAdjust: set factor to 0.0544
ElecMinimize: Iter:   7  G: -1081.212997920680436  |grad|_K:  1.589e-07  alpha:  3.525e-01  linmin:  3.858e-05  t[s]:  16046.34
	Linear fluid (dielectric constant: 78.4, screening length: 8.12261 Bohr) occupying 0.486409 of unit cell:	Completed after 6 iterations at t[s]:  16053.58
	Linear fluid (dielectric constant: 78.4, screening length: 8.12261 Bohr) occupying 0.486409 of unit cell:	Completed after 2 iterations at t[s]:  16059.35
	FillingsUpdate:  mu: -0.097800000  nElectrons: 205.410805  magneticMoment: [ Abs: 0.62072  Tot: +0.51640 ]
	SubspaceRotationAdjust: set factor to 0.0588
ElecMinimize: Iter:   8  G: -1081.212998779476266  |grad|_K:  1.607e-07  alpha:  3.898e-01  linmin: -1.793e-05  t[s]:  16066.47
	Linear fluid (dielectric constant: 78.4, screening length: 8.12261 Bohr) occupying 0.486402 of unit cell:	Completed after 9 iterations at t[s]:  16073.96
	Linear fluid (dielectric constant: 78.4, screening length: 8.12261 Bohr) occupying 0.486401 of unit cell:	Completed after 2 iterations at t[s]:  16079.76
	FillingsUpdate:  mu: -0.097800000  nElectrons: 205.410500  magneticMoment: [ Abs: 0.62056  Tot: +0.51637 ]
	SubspaceRotationAdjust: set factor to 0.0612
ElecMinimize: Iter:   9  G: -1081.212999832363266  |grad|_K:  1.494e-07  alpha:  4.652e-01  linmin: -5.209e-05  t[s]:  16086.92
	Linear fluid (dielectric constant: 78.4, screening length: 8.12261 Bohr) occupying 0.486414 of unit cell:	Completed after 9 iterations at t[s]:  16094.37
	Linear fluid (dielectric constant: 78.4, screening length: 8.12261 Bohr) occupying 0.486413 of unit cell:	Completed after 2 iterations at t[s]:  16100.23
	FillingsUpdate:  mu: -0.097800000  nElectrons: 205.410805  magneticMoment: [ Abs: 0.62031  Tot: +0.51619 ]
	SubspaceRotationAdjust: set factor to 0.0614
ElecMinimize: Iter:  10  G: -1081.213000642870611  |grad|_K:  1.468e-07  alpha:  4.129e-01  linmin:  4.780e-05  t[s]:  16107.40
	Linear fluid (dielectric constant: 78.4, screening length: 8.12261 Bohr) occupying 0.486407 of unit cell:	Completed after 8 iterations at t[s]:  16114.75
	Linear fluid (dielectric constant: 78.4, screening length: 8.12261 Bohr) occupying 0.486408 of unit cell:	Completed after 2 iterations at t[s]:  16120.57
	FillingsUpdate:  mu: -0.097800000  nElectrons: 205.410609  magneticMoment: [ Abs: 0.62026  Tot: +0.51621 ]
	SubspaceRotationAdjust: set factor to 0.0608
ElecMinimize: Iter:  11  G: -1081.213001259210387  |grad|_K:  1.286e-07  alpha:  3.281e-01  linmin:  7.265e-06  t[s]:  16127.71
	Linear fluid (dielectric constant: 78.4, screening length: 8.12261 Bohr) occupying 0.486410 of unit cell:	Completed after 2 iterations at t[s]:  16134.68
	Linear fluid (dielectric constant: 78.4, screening length: 8.12261 Bohr) occupying 0.486410 of unit cell:	Completed after 0 iterations at t[s]:  16140.25
	FillingsUpdate:  mu: -0.097800000  nElectrons: 205.410609  magneticMoment: [ Abs: 0.62021  Tot: +0.51622 ]
	SubspaceRotationAdjust: set factor to 0.0608
ElecMinimize: Iter:  12  G: -1081.213001715551627  |grad|_K:  1.105e-07  alpha:  3.153e-01  linmin:  1.443e-04  t[s]:  16147.41
	Linear fluid (dielectric constant: 78.4, screening length: 8.12261 Bohr) occupying 0.486406 of unit cell:	Completed after 7 iterations at t[s]:  16154.73
	Linear fluid (dielectric constant: 78.4, screening length: 8.12261 Bohr) occupying 0.486406 of unit cell:	Completed after 0 iterations at t[s]:  16160.42
	FillingsUpdate:  mu: -0.097800000  nElectrons: 205.410462  magneticMoment: [ Abs: 0.62026  Tot: +0.51631 ]
	SubspaceRotationAdjust: set factor to 0.0592
ElecMinimize: Iter:  13  G: -1081.213002035467525  |grad|_K:  8.552e-08  alpha:  3.025e-01  linmin:  5.256e-05  t[s]:  16167.52
	Linear fluid (dielectric constant: 78.4, screening length: 8.12261 Bohr) occupying 0.486423 of unit cell:	Completed after 9 iterations at t[s]:  16175.02
	Linear fluid (dielectric constant: 78.4, screening length: 8.12261 Bohr) occupying 0.486421 of unit cell:	Completed after 1 iterations at t[s]:  16180.74
	FillingsUpdate:  mu: -0.097800000  nElectrons: 205.410885  magneticMoment: [ Abs: 0.62016  Tot: +0.51621 ]
	SubspaceRotationAdjust: set factor to 0.048
ElecMinimize: Iter:  14  G: -1081.213002205096700  |grad|_K:  7.481e-08  alpha:  2.662e-01  linmin:  1.787e-04  t[s]:  16187.89
	Linear fluid (dielectric constant: 78.4, screening length: 8.12261 Bohr) occupying 0.486414 of unit cell:	Completed after 9 iterations at t[s]:  16195.39
	Linear fluid (dielectric constant: 78.4, screening length: 8.12261 Bohr) occupying 0.486414 of unit cell:	Completed after 0 iterations at t[s]:  16200.93
	FillingsUpdate:  mu: -0.097800000  nElectrons: 205.410645  magneticMoment: [ Abs: 0.62022  Tot: +0.51629 ]
	SubspaceRotationAdjust: set factor to 0.0421
ElecMinimize: Iter:  15  G: -1081.213002343527933  |grad|_K:  5.083e-08  alpha:  2.841e-01  linmin: -1.031e-03  t[s]:  16208.08
	Linear fluid (dielectric constant: 78.4, screening length: 8.12261 Bohr) occupying 0.486415 of unit cell:	Completed after 2 iterations at t[s]:  16215.04
	Linear fluid (dielectric constant: 78.4, screening length: 8.12261 Bohr) occupying 0.486415 of unit cell:	Completed after 0 iterations at t[s]:  16220.67
	FillingsUpdate:  mu: -0.097800000  nElectrons: 205.410687  magneticMoment: [ Abs: 0.62022  Tot: +0.51630 ]
	SubspaceRotationAdjust: set factor to 0.0468
ElecMinimize: Iter:  16  G: -1081.213002416026939  |grad|_K:  4.165e-08  alpha:  3.087e-01  linmin: -6.722e-04  t[s]:  16227.77
	Linear fluid (dielectric constant: 78.4, screening length: 8.12261 Bohr) occupying 0.486419 of unit cell:	Completed after 2 iterations at t[s]:  16234.74
	Linear fluid (dielectric constant: 78.4, screening length: 8.12261 Bohr) occupying 0.486419 of unit cell:	Completed after 0 iterations at t[s]:  16240.30
	FillingsUpdate:  mu: -0.097800000  nElectrons: 205.410810  magneticMoment: [ Abs: 0.62022  Tot: +0.51630 ]
	SubspaceRotationAdjust: set factor to 0.0469
ElecMinimize: Iter:  17  G: -1081.213002465854970  |grad|_K:  3.325e-08  alpha:  3.201e-01  linmin: -4.596e-04  t[s]:  16247.50
ElecMinimize: Converged (|Delta G|<1.000000e-07 for 2 iters).
Setting wave functions to eigenvectors of Hamiltonian
Converging empty states (this may take a while): |deigs|: 1.228e-08

Computing DFT-D3 correction:
# coordination-number Ni 5.826 6.471 6.277 4.839
# coordination-number Au 5.195 8.224 5.195 8.224 8.381 7.690 8.496 7.704 8.496 7.704 4.850 8.572
# diagonal-C6 Ni 138.70 134.77 136.05 141.34
# diagonal-C6 Au 317.16 317.16 317.16 317.16 317.16 317.16 317.16 317.16 317.16 317.16 317.16 317.16
EvdW_6 =   -0.117080
EvdW_8 =   -0.206297

# Ionic positions in cartesian coordinates:
ion Ni   0.000000000000000   5.274699999999999   3.682893081768889 1
ion Ni   0.000000000000000  -0.000000000000000   9.241417231778051 1
ion Ni   0.000000000000000   5.274699999999999  14.489882030429630 1
ion Ni   0.000000000000000  -0.000000000000000  19.483105775257709 1
ion Au   3.729776000000000   7.826381225307929   1.215512972575021 1
ion Au   3.729776000000000   2.625745366192351   6.611788236623051 1
ion Au   3.729776000000000   2.723018774692070   1.215512972575021 1
ion Au   3.729776000000000   7.923654633807648   6.611788236623051 1
ion Au   0.000000000000000   5.274699999999999   9.220573895811752 1
ion Au   0.000000000000000  -0.000000000000000   3.820421583373967 1
ion Au   3.729776000000000   7.895747695417533  11.958437799295803 1
ion Au   3.729776000000000   2.640176632482924  17.421897441168330 1
ion Au   3.729776000000000   2.653652304582466  11.958437799295803 1
ion Au   3.729776000000000   7.909223367517075  17.421897441168330 1
ion Au   0.000000000000000   5.274699999999999  19.948796716996785 1
ion Au   0.000000000000000  -0.000000000000000  14.488036785258819 1

# Forces in Cartesian coordinates:
force Ni   0.000000000000000   0.000000000000000   0.000270517660496 1
force Ni   0.000000000000000   0.000000000000000   0.000034445060834 1
force Ni   0.000000000000000   0.000000000000000  -0.000003033325832 1
force Ni   0.000000000000000   0.000000000000000   0.000236283704538 1
force Au   0.000000000000000  -0.000040137715465   0.000092336754485 1
force Au   0.000000000000000  -0.000225485413367  -0.000122537594514 1
force Au   0.000000000000000   0.000040137715465   0.000092336754485 1
force Au   0.000000000000000   0.000225485413367  -0.000122537594522 1
force Au   0.000000000000000   0.000000000000000   0.000181290783138 1
force Au   0.000000000000000   0.000000000000000   0.000089840299597 1
force Au   0.000000000000000  -0.000173305199343  -0.000041336507369 1
force Au   0.000000000000000   0.000082984781060   0.000044094367461 1
force Au   0.000000000000000   0.000173305199343  -0.000041336507371 1
force Au   0.000000000000000  -0.000082984781060   0.000044094367461 1
force Au   0.000000000000000   0.000000000000000   0.000138584363461 1
force Au   0.000000000000000   0.000000000000000   0.000223375338565 1

# Energy components:
   A_diel =       -0.4555232769411700
   Eewald =     4438.3484373286028131
       EH =     5500.7632890215400039
     Eloc =   -11167.6721902980134473
      Enl =       53.5776223060568313
     EvdW =       -0.3233765222844143
      Exc =     -444.8931318248292541
 Exc_core =      275.5232197175508304
       KE =      243.8993326983618886
  MuShift =       -0.0687954933733593
-------------------------------------
     Etot =    -1101.3011163433288857
       TS =        0.0010633270841457
-------------------------------------
        F =    -1101.3021796704131248
      muN =      -20.0891772045580517
-------------------------------------
        G =    -1081.2130024658549701


Dumping 'jdft.fillings' ... done
Dumping 'jdft.wfns' ... done
Dumping 'jdft.fluidState' ... done
Dumping 'jdft.ionpos' ... done
Dumping 'jdft.lattice' ... done
Dumping 'jdft.eigenvals' ... done
Dumping 'jdft.eigStats' ... 
	eMin: -3.855987 at state 4 ( [ +0.125000 +0.000000 +0.000000 ] spin 1 )
	HOMO: -0.097904 at state 9 ( [ +0.250000 +0.166667 +0.000000 ] spin 1 )
	mu  : -0.097800
	LUMO: -0.097550 at state 33 ( [ +0.375000 +0.166667 +0.000000 ] spin -1 )
	eMax: +0.147504 at state 24 ( [ +0.125000 +0.000000 +0.000000 ] spin -1 )
	HOMO-LUMO gap: +0.000354
	Optical gap  : +0.002941 at state 19 ( [ +0.500000 +0.500000 +0.000000 ] spin 1 )
Dumping 'jdft.Ecomponents' ... done
IonicMinimize: Iter:  13  G: -1081.213002465854970  |grad|_K:  9.077e-05  alpha:  1.000e+00  linmin:  3.196e-01  t[s]:  16265.98
IonicMinimize: Converged (|grad|_K<1.000000e-04).

#--- Lowdin population analysis ---
# oxidation-state Ni +0.214 +0.199 +0.207 +0.150
# magnetic-moments Ni +0.044 +0.045 +0.153 +0.292
# oxidation-state Au -0.297 -0.063 -0.297 -0.063 -0.053 -0.151 -0.048 -0.196 -0.048 -0.196 -0.380 -0.064
# magnetic-moments Au +0.001 -0.000 +0.001 -0.000 -0.000 +0.002 -0.001 -0.000 -0.001 -0.000 -0.010 -0.004


Dumping 'jdft.n_up' ... done
Dumping 'jdft.n_dn' ... done
Dumping 'jdft.tau_up' ... done
Dumping 'jdft.tau_dn' ... done
Dumping 'jdft.eigenvals' ... done
Dumping 'jdft.eigStats' ... 
	eMin: -3.855987 at state 4 ( [ +0.125000 +0.000000 +0.000000 ] spin 1 )
	HOMO: -0.097904 at state 9 ( [ +0.250000 +0.166667 +0.000000 ] spin 1 )
	mu  : -0.097800
	LUMO: -0.097550 at state 33 ( [ +0.375000 +0.166667 +0.000000 ] spin -1 )
	eMax: +0.147504 at state 24 ( [ +0.125000 +0.000000 +0.000000 ] spin -1 )
	HOMO-LUMO gap: +0.000354
	Optical gap  : +0.002941 at state 19 ( [ +0.500000 +0.500000 +0.000000 ] spin 1 )
Dumping 'jdft.kPts' ... done
Dumping 'jdft.kMap' ... done
Dumping 'jdft.dosUp' ... done.
Dumping 'jdft.dosDn' ... done.
End date and time: Sat Feb 26 14:52:29 2022  (Duration: 0-4:31:19.57)
Done!
