
*************** JDFTx 1.6.0  ***************

Start date and time: Thu Feb 17 04:17:34 2022
Executable /projects/musgravc/apps/jdftx-1.6.1/build/jdftx with command-line: -i in
Running on hosts (process indices):  shas0524.rc.int.colorado.edu (0-23)
Divided in process groups (process indices):  0 (0)  1 (1)  2 (2)  3 (3)  4 (4)  5 (5)  6 (6)  7 (7)  8 (8)  9 (9)  10 (10)  11 (11)  12 (12)  13 (13)  14 (14)  15 (15)  16 (16)  17 (17)  18 (18)  19 (19)  20 (20)  21 (21)  22 (22)  23 (23)
Resource initialization completed at t[s]:      0.00
Run totals: 24 processes, 24 threads, 0 GPUs


Input parsed successfully to the following command list (including defaults):

basis kpoint-dependent
converge-empty-states yes
coords-type Cartesian
core-overlap-check none
coulomb-interaction Periodic
davidson-band-ratio 1.1
density-of-states Etol 1.000000e-06 Esigma 1.000000e-03 \
		Complete \
	Total \
	OrthoOrbital Pt 1   s \
	OrthoOrbital Pt 1   p \
	OrthoOrbital Pt 1   px \
	OrthoOrbital Pt 1   py \
	OrthoOrbital Pt 1   pz \
	OrthoOrbital Pt 1   d \
	OrthoOrbital Pt 1   dxy \
	OrthoOrbital Pt 1   dyz \
	OrthoOrbital Pt 1   dz2 \
	OrthoOrbital Pt 1   dxz \
	OrthoOrbital Pt 1   dx2-y2 \
	OrthoOrbital Pt 2   s \
	OrthoOrbital Pt 2   p \
	OrthoOrbital Pt 2   px \
	OrthoOrbital Pt 2   py \
	OrthoOrbital Pt 2   pz \
	OrthoOrbital Pt 2   d \
	OrthoOrbital Pt 2   dxy \
	OrthoOrbital Pt 2   dyz \
	OrthoOrbital Pt 2   dz2 \
	OrthoOrbital Pt 2   dxz \
	OrthoOrbital Pt 2   dx2-y2 \
	OrthoOrbital Pt 3   s \
	OrthoOrbital Pt 3   p \
	OrthoOrbital Pt 3   px \
	OrthoOrbital Pt 3   py \
	OrthoOrbital Pt 3   pz \
	OrthoOrbital Pt 3   d \
	OrthoOrbital Pt 3   dxy \
	OrthoOrbital Pt 3   dyz \
	OrthoOrbital Pt 3   dz2 \
	OrthoOrbital Pt 3   dxz \
	OrthoOrbital Pt 3   dx2-y2 \
	OrthoOrbital Pt 4   s \
	OrthoOrbital Pt 4   p \
	OrthoOrbital Pt 4   px \
	OrthoOrbital Pt 4   py \
	OrthoOrbital Pt 4   pz \
	OrthoOrbital Pt 4   d \
	OrthoOrbital Pt 4   dxy \
	OrthoOrbital Pt 4   dyz \
	OrthoOrbital Pt 4   dz2 \
	OrthoOrbital Pt 4   dxz \
	OrthoOrbital Pt 4   dx2-y2 \
	OrthoOrbital Pt 5   s \
	OrthoOrbital Pt 5   p \
	OrthoOrbital Pt 5   px \
	OrthoOrbital Pt 5   py \
	OrthoOrbital Pt 5   pz \
	OrthoOrbital Pt 5   d \
	OrthoOrbital Pt 5   dxy \
	OrthoOrbital Pt 5   dyz \
	OrthoOrbital Pt 5   dz2 \
	OrthoOrbital Pt 5   dxz \
	OrthoOrbital Pt 5   dx2-y2 \
	OrthoOrbital Pt 6   s \
	OrthoOrbital Pt 6   p \
	OrthoOrbital Pt 6   px \
	OrthoOrbital Pt 6   py \
	OrthoOrbital Pt 6   pz \
	OrthoOrbital Pt 6   d \
	OrthoOrbital Pt 6   dxy \
	OrthoOrbital Pt 6   dyz \
	OrthoOrbital Pt 6   dz2 \
	OrthoOrbital Pt 6   dxz \
	OrthoOrbital Pt 6   dx2-y2 \
	OrthoOrbital Pt 7   s \
	OrthoOrbital Pt 7   p \
	OrthoOrbital Pt 7   px \
	OrthoOrbital Pt 7   py \
	OrthoOrbital Pt 7   pz \
	OrthoOrbital Pt 7   d \
	OrthoOrbital Pt 7   dxy \
	OrthoOrbital Pt 7   dyz \
	OrthoOrbital Pt 7   dz2 \
	OrthoOrbital Pt 7   dxz \
	OrthoOrbital Pt 7   dx2-y2 \
	OrthoOrbital Pt 8   s \
	OrthoOrbital Pt 8   p \
	OrthoOrbital Pt 8   px \
	OrthoOrbital Pt 8   py \
	OrthoOrbital Pt 8   pz \
	OrthoOrbital Pt 8   d \
	OrthoOrbital Pt 8   dxy \
	OrthoOrbital Pt 8   dyz \
	OrthoOrbital Pt 8   dz2 \
	OrthoOrbital Pt 8   dxz \
	OrthoOrbital Pt 8   dx2-y2 \
	OrthoOrbital Pt 9   s \
	OrthoOrbital Pt 9   p \
	OrthoOrbital Pt 9   px \
	OrthoOrbital Pt 9   py \
	OrthoOrbital Pt 9   pz \
	OrthoOrbital Pt 9   d \
	OrthoOrbital Pt 9   dxy \
	OrthoOrbital Pt 9   dyz \
	OrthoOrbital Pt 9   dz2 \
	OrthoOrbital Pt 9   dxz \
	OrthoOrbital Pt 9   dx2-y2 \
	OrthoOrbital Pt 10   s \
	OrthoOrbital Pt 10   p \
	OrthoOrbital Pt 10   px \
	OrthoOrbital Pt 10   py \
	OrthoOrbital Pt 10   pz \
	OrthoOrbital Pt 10   d \
	OrthoOrbital Pt 10   dxy \
	OrthoOrbital Pt 10   dyz \
	OrthoOrbital Pt 10   dz2 \
	OrthoOrbital Pt 10   dxz \
	OrthoOrbital Pt 10   dx2-y2 \
	OrthoOrbital Pt 11   s \
	OrthoOrbital Pt 11   p \
	OrthoOrbital Pt 11   px \
	OrthoOrbital Pt 11   py \
	OrthoOrbital Pt 11   pz \
	OrthoOrbital Pt 11   d \
	OrthoOrbital Pt 11   dxy \
	OrthoOrbital Pt 11   dyz \
	OrthoOrbital Pt 11   dz2 \
	OrthoOrbital Pt 11   dxz \
	OrthoOrbital Pt 11   dx2-y2 \
	OrthoOrbital Pt 12   s \
	OrthoOrbital Pt 12   p \
	OrthoOrbital Pt 12   px \
	OrthoOrbital Pt 12   py \
	OrthoOrbital Pt 12   pz \
	OrthoOrbital Pt 12   d \
	OrthoOrbital Pt 12   dxy \
	OrthoOrbital Pt 12   dyz \
	OrthoOrbital Pt 12   dz2 \
	OrthoOrbital Pt 12   dxz \
	OrthoOrbital Pt 12   dx2-y2 \
	OrthoOrbital Pt 13   s \
	OrthoOrbital Pt 13   p \
	OrthoOrbital Pt 13   px \
	OrthoOrbital Pt 13   py \
	OrthoOrbital Pt 13   pz \
	OrthoOrbital Pt 13   d \
	OrthoOrbital Pt 13   dxy \
	OrthoOrbital Pt 13   dyz \
	OrthoOrbital Pt 13   dz2 \
	OrthoOrbital Pt 13   dxz \
	OrthoOrbital Pt 13   dx2-y2 \
	OrthoOrbital Pt 14   s \
	OrthoOrbital Pt 14   p \
	OrthoOrbital Pt 14   px \
	OrthoOrbital Pt 14   py \
	OrthoOrbital Pt 14   pz \
	OrthoOrbital Pt 14   d \
	OrthoOrbital Pt 14   dxy \
	OrthoOrbital Pt 14   dyz \
	OrthoOrbital Pt 14   dz2 \
	OrthoOrbital Pt 14   dxz \
	OrthoOrbital Pt 14   dx2-y2 \
	OrthoOrbital Pt 15   s \
	OrthoOrbital Pt 15   p \
	OrthoOrbital Pt 15   px \
	OrthoOrbital Pt 15   py \
	OrthoOrbital Pt 15   pz \
	OrthoOrbital Pt 15   d \
	OrthoOrbital Pt 15   dxy \
	OrthoOrbital Pt 15   dyz \
	OrthoOrbital Pt 15   dz2 \
	OrthoOrbital Pt 15   dxz \
	OrthoOrbital Pt 15   dx2-y2 \
	OrthoOrbital Pt 16   s \
	OrthoOrbital Pt 16   p \
	OrthoOrbital Pt 16   px \
	OrthoOrbital Pt 16   py \
	OrthoOrbital Pt 16   pz \
	OrthoOrbital Pt 16   d \
	OrthoOrbital Pt 16   dxy \
	OrthoOrbital Pt 16   dyz \
	OrthoOrbital Pt 16   dz2 \
	OrthoOrbital Pt 16   dxz \
	OrthoOrbital Pt 16   dx2-y2 \
	OrthoOrbital C 1   s \
	OrthoOrbital C 1   p \
	OrthoOrbital C 1   px \
	OrthoOrbital C 1   py \
	OrthoOrbital C 1   pz \
	OrthoOrbital O 1   s \
	OrthoOrbital O 1   p \
	OrthoOrbital O 1   px \
	OrthoOrbital O 1   py \
	OrthoOrbital O 1   pz
dump End ElecDensity KEdensity BandEigs EigStats RhoAtom DOS Kpoints
dump Ionic State IonicPositions Lattice EigStats Ecomponents
dump 
dump 
dump 
dump 
dump 
dump 
dump 
dump 
dump-name jdft.$VAR
elec-cutoff 20
elec-eigen-algo Davidson
elec-ex-corr gga-PBE
elec-initial-magnetization 0.000000 no
elec-n-bands 160
elec-smearing Fermi 0.001
electronic-minimize  \
	dirUpdateScheme      FletcherReeves \
	linminMethod         DirUpdateRecommended \
	nIterations          100 \
	history              15 \
	knormThreshold       0 \
	energyDiffThreshold  1e-07 \
	nEnergyDiff          2 \
	alphaTstart          1 \
	alphaTmin            1e-10 \
	updateTestStepSize   yes \
	alphaTreduceFactor   0.1 \
	alphaTincreaseFactor 3 \
	nAlphaAdjustMax      3 \
	wolfeEnergy          0.0001 \
	wolfeGradient        0.9 \
	fdTest               no
exchange-regularization WignerSeitzTruncated
fluid LinearPCM 298.000000 1.013250
fluid-anion F- 0.5 MeanFieldLJ \
	epsBulk 1 \
	pMol 0 \
	epsInf 1 \
	Pvap 0 \
	sigmaBulk 0 \
	Rvdw 2.24877 \
	Res 0 \
	tauNuc 343133
fluid-cation Na+ 0.5 MeanFieldLJ \
	epsBulk 1 \
	pMol 0 \
	epsInf 1 \
	Pvap 0 \
	sigmaBulk 0 \
	Rvdw 2.19208 \
	Res 0 \
	tauNuc 343133
fluid-ex-corr lda-TF lda-PZ
fluid-gummel-loop 10 1.000000e-05
fluid-minimize  \
	dirUpdateScheme      PolakRibiere \
	linminMethod         DirUpdateRecommended \
	nIterations          400 \
	history              15 \
	knormThreshold       1e-11 \
	energyDiffThreshold  0 \
	nEnergyDiff          2 \
	alphaTstart          1 \
	alphaTmin            1e-10 \
	updateTestStepSize   yes \
	alphaTreduceFactor   0.1 \
	alphaTincreaseFactor 3 \
	nAlphaAdjustMax      6 \
	wolfeEnergy          0.0001 \
	wolfeGradient        0.9 \
	fdTest               no
fluid-solvent H2O 55.338 ScalarEOS \
	epsBulk 78.4 \
	pMol 0.92466 \
	epsInf 1.77 \
	Pvap 1.06736e-10 \
	sigmaBulk 4.62e-05 \
	Rvdw 2.61727 \
	Res 1.42 \
	tauNuc 343133 \
	poleEl 15 7 1
forces-output-coords Positions
ion Pt  10.463971000000001  10.463971000000001  38.836613999999997 0
ion Pt  10.463971000000001   5.231975000000000  38.836613999999997 0
ion Pt   5.231975000000000  10.463971000000001  38.836613999999997 0
ion Pt   5.231975000000000   5.231975000000000  38.836613999999997 0
ion Pt   2.615977000000000   2.615977000000000  42.501416999999996 0
ion Pt   2.615977000000000   7.847973000000000  42.501416999999996 0
ion Pt   7.847973000000000   2.615977000000000  42.501416999999996 0
ion Pt   7.847973000000000   7.847973000000000  42.501416999999996 0
ion Pt   0.000021000000000   0.000021000000000  31.488006000000002 0
ion Pt   0.000021000000000   5.232006000000000  31.488006000000002 0
ion Pt   5.232006000000000   0.000021000000000  31.488006000000002 0
ion Pt   5.232006000000000   5.232006000000000  31.488006000000002 0
ion Pt   2.616019000000001   2.616019000000001  35.157116000000002 0
ion Pt   2.616019000000001   7.848015000000000  35.157116000000002 0
ion Pt   7.848015000000000   2.616019000000001  35.157116000000002 0
ion Pt   7.848015000000000   7.848015000000000  35.157116000000002 0
ion C   5.231975000000000   5.231975000000000  43.173200999999999 1  Linear 0 0 1
ion O   5.292070000000001   5.231975000000000   0.933626000000000 1  Linear 0 0 1
ion-species /projects/musgravc/apps/jdftx-1.6.0/build/pseudopotentials/GBRV_v1.5/$ID_pbe_v1.uspp
ion-species /projects/musgravc/apps/jdftx-1.6.0/build/pseudopotentials/GBRV_v1.5/$ID_pbe_v1.2.uspp
ion-species /projects/musgravc/apps/jdftx-1.6.0/build/pseudopotentials/GBRV_v1.5/$ID_pbe_v1.4.uspp
ion-species /projects/musgravc/apps/jdftx-1.6.0/build/pseudopotentials/GBRV_v1.5/$ID_pbe_v1.5.uspp
ion-width Ecut
ionic-minimize  \
	dirUpdateScheme      L-BFGS \
	linminMethod         DirUpdateRecommended \
	nIterations          100 \
	history              15 \
	knormThreshold       0.0001 \
	energyDiffThreshold  1e-06 \
	nEnergyDiff          2 \
	alphaTstart          1 \
	alphaTmin            1e-10 \
	updateTestStepSize   yes \
	alphaTreduceFactor   0.1 \
	alphaTincreaseFactor 3 \
	nAlphaAdjustMax      3 \
	wolfeEnergy          0.0001 \
	wolfeGradient        0.9 \
	fdTest               no
kpoint   0.000000000000   0.000000000000   0.000000000000  1.00000000000000
kpoint-folding 6 6 1 
latt-move-scale 0 0 0
latt-scale 1 1 1 
lattice  \
	  10.463991999999999    0.000000000000000    0.000000000000000  \
	   0.000000000000000   10.463991999999999    0.000000000000000  \
	   0.000000000000000    0.000000000000000   44.394950000000001 
lattice-minimize  \
	dirUpdateScheme      L-BFGS \
	linminMethod         DirUpdateRecommended \
	nIterations          0 \
	history              15 \
	knormThreshold       0 \
	energyDiffThreshold  1e-06 \
	nEnergyDiff          2 \
	alphaTstart          1 \
	alphaTmin            1e-10 \
	updateTestStepSize   yes \
	alphaTreduceFactor   0.1 \
	alphaTincreaseFactor 3 \
	nAlphaAdjustMax      3 \
	wolfeEnergy          0.0001 \
	wolfeGradient        0.9 \
	fdTest               no
lcao-params 30 1e-06 0.001
pcm-variant CANDLE
spintype z-spin
subspace-rotation-factor 1 yes
symmetries automatic
symmetry-threshold 0.0001
van-der-waals D3



---------- Setting up symmetries ----------

Found 16 point-group symmetries of the bravais lattice
Found 2 space-group symmetries with basis
Applied RMS atom displacement 1.97603e-05 bohrs to make symmetries exact.

---------- Initializing the Grid ----------
R = 
[       10.464            0            0  ]
[            0       10.464            0  ]
[            0            0       44.395  ]
unit cell volume = 4861.03
G =
[   0.600458          0          0  ]
[          0   0.600458          0  ]
[          0          0   0.141529  ]
Minimum fftbox size, Smin = [  44  44  180  ]
Chosen fftbox size, S = [  48  48  180  ]

---------- Exchange Correlation functional ----------
Initalized PBE GGA exchange.
Initalized PBE GGA correlation.

---------- Setting up pseudopotentials ----------
Width of ionic core gaussian charges (only for fluid interactions / plotting) set to 0.397384

Reading pseudopotential file '/projects/musgravc/apps/jdftx-1.6.0/build/pseudopotentials/GBRV_v1.5/pt_pbe_v1.4.uspp':
  Title: Pt.  Created by USPP 7.3.6 on 31-3-15
  Reference state energy: -105.002503.  16 valence electrons in orbitals:
    |510>  occupation: 6  eigenvalue: -2.158104
    |520>  occupation: 9.5  eigenvalue: -0.335376
    |600>  occupation: 0  eigenvalue: -0.319640
    |610>  occupation: 0  eigenvalue: -0.122947
  lMax: 2  lLocal: 3  QijEcut: 5.5
  6 projectors sampled on a log grid with 745 points:
    l: 0  eig: -0.319640  rCut: 2.45
    l: 0  eig: 1.500000  rCut: 2.45
    l: 1  eig: -2.158104  rCut: 1.6
    l: 1  eig: -0.122947  rCut: 1.6
    l: 2  eig: -0.500000  rCut: 1.6
    l: 2  eig: -0.335375  rCut: 1.6
  Partial core density with radius 1.1
  Transforming core density to a uniform radial grid of dG=0.02 with 1207 points.
  Transforming local potential to a uniform radial grid of dG=0.02 with 1207 points.
  Transforming nonlocal projectors to a uniform radial grid of dG=0.02 with 432 points.
  Transforming density augmentations to a uniform radial grid of dG=0.02 with 1207 points.
  Transforming atomic orbitals to a uniform radial grid of dG=0.02 with 432 points.
  Core radius for overlap checks: 2.45 bohrs.

Reading pseudopotential file '/projects/musgravc/apps/jdftx-1.6.0/build/pseudopotentials/GBRV_v1.5/c_pbe_v1.2.uspp':
  Title: C.  Created by USPP 7.3.6 on 3-2-2014
  Reference state energy: -5.406344.  4 valence electrons in orbitals:
    |200>  occupation: 2  eigenvalue: -0.504890
    |210>  occupation: 2  eigenvalue: -0.194356
  lMax: 1  lLocal: 2  QijEcut: 5
  4 projectors sampled on a log grid with 503 points:
    l: 0  eig: -0.504890  rCut: 1.3
    l: 0  eig: 0.000000  rCut: 1.3
    l: 1  eig: -0.194357  rCut: 1.3
    l: 1  eig: 0.000000  rCut: 1.3
  Partial core density with radius 1.1
  Transforming core density to a uniform radial grid of dG=0.02 with 1207 points.
  Transforming local potential to a uniform radial grid of dG=0.02 with 1207 points.
  Transforming nonlocal projectors to a uniform radial grid of dG=0.02 with 432 points.
  Transforming density augmentations to a uniform radial grid of dG=0.02 with 1207 points.
  Transforming atomic orbitals to a uniform radial grid of dG=0.02 with 432 points.
  Core radius for overlap checks: 1.30 bohrs.

Reading pseudopotential file '/projects/musgravc/apps/jdftx-1.6.0/build/pseudopotentials/GBRV_v1.5/o_pbe_v1.2.uspp':
  Title: O.  Created by USPP 7.3.6 on 3-2-2014
  Reference state energy: -15.894388.  6 valence electrons in orbitals:
    |200>  occupation: 2  eigenvalue: -0.878823
    |210>  occupation: 4  eigenvalue: -0.332131
  lMax: 2  lLocal: 2  QijEcut: 6
  5 projectors sampled on a log grid with 511 points:
    l: 0  eig: -0.878823  rCut: 1.25
    l: 0  eig: 0.000000  rCut: 1.25
    l: 1  eig: -0.332132  rCut: 1.25
    l: 1  eig: 0.000000  rCut: 1.25
    l: 2  eig: 1.000000  rCut: 1.25
  Partial core density with radius 0.7
  Transforming core density to a uniform radial grid of dG=0.02 with 1207 points.
  Transforming local potential to a uniform radial grid of dG=0.02 with 1207 points.
  Transforming nonlocal projectors to a uniform radial grid of dG=0.02 with 432 points.
  Transforming density augmentations to a uniform radial grid of dG=0.02 with 1207 points.
  Transforming atomic orbitals to a uniform radial grid of dG=0.02 with 432 points.
  Core radius for overlap checks: 1.25 bohrs.

Initialized 3 species with 18 total atoms.

Folded 1 k-points by 6x6x1 to 36 k-points.

---------- Setting up k-points, bands, fillings ----------
Adding inversion symmetry to k-mesh for non-inversion-symmetric unit cell.
Reduced to 16 k-points under symmetry. 
Computing the number of bands and number of electrons
Calculating initial fillings.
nElectrons: 266.000000   nBands: 160   nStates: 32

----- Setting up reduced wavefunction bases (one per k-point) -----
average nbasis = 20761.028 , ideal nbasis = 20766.694

----- Initializing Supercell corresponding to k-point mesh -----
Lattice vector linear combinations in supercell:
[   6   0   0  ]
[   0   6   0  ]
[   0   0   1  ]
Supercell lattice vectors:
[  62.784  0  0  ]
[  0  62.784  0  ]
[  0  0  44.395  ]

Initializing DFT-D3 calculator:
	Parameters set for gga-PBE functional
	s6:  1.000  s_r6:  1.217
	s8:  0.722  s_r8:  1.000
	Per-atom parameters loaded for:
	Pt:  sqrtQ[a0]:  5.888  Rcov[a0]:  2.116  CN: [ 0.00 1.92 6.67 ]
	 C:  sqrtQ[a0]:  3.105  Rcov[a0]:  1.417  CN: [ 0.00 0.99 2.00 3.00 3.98 ]
	 O:  sqrtQ[a0]:  2.594  Rcov[a0]:  1.191  CN: [ 0.00 0.99 1.99 ]

Initializing DFT-D2 calculator for fluid / solvation:
	Pt:  C6:  815.23 Eh-a0^6  R0: 3.326 a0 (WARNING: beyond Grimme's data set)
	 C:  C6:   30.35 Eh-a0^6  R0: 2.744 a0
	 O:  C6:   12.14 Eh-a0^6  R0: 2.536 a0

---------- Setting up ewald sum ----------
Optimum gaussian width for ewald sums = 4.174529 bohr.
Real space sum over 605 unit cells with max indices [  5  5  2  ]
Reciprocal space sum over 4477 terms with max indices [  5  5  18  ]

Computing DFT-D3 correction:
# coordination-number Pt 9.615 9.627 9.627 10.417 7.707 7.707 7.754 7.754 6.438 6.438 6.438 6.438 9.606 9.606 9.606 9.606
# coordination-number C 5.779
# coordination-number O 2.216
# diagonal-C6 Pt 336.87 336.87 336.87 336.87 336.87 336.87 336.87 336.87 336.87 336.87 336.87 336.87 336.87 336.87 336.87 336.87
# diagonal-C6 C 18.21
# diagonal-C6 O 10.38
EvdW_6 =   -0.120049
EvdW_8 =   -0.208511

---------- Allocating electronic variables ----------
Initializing wave functions:  linear combination of atomic orbitals
Pt pseudo-atom occupations:   s ( 0 )  p ( 6 0 )  d ( 10 )
C pseudo-atom occupations:   s ( 2 )  p ( 2 )
O pseudo-atom occupations:   s ( 2 )  p ( 4 )
	FillingsUpdate:  mu: -0.541850874  nElectrons: 266.000000  magneticMoment: [ Abs: 0.00308  Tot: -0.00004 ]
LCAOMinimize: Iter:   0  F: -1436.8198404504785231  |grad|_K:  1.212e-02  alpha:  1.000e+00
LCAOMinimize: 	Step increased F by 1.384256e+01, reducing alpha to 2.026130e-02.
	FillingsUpdate:  mu: -0.442921370  nElectrons: 266.000000  magneticMoment: [ Abs: 0.00271  Tot: +0.00002 ]
LCAOMinimize: Iter:   1  F: -1440.0976682208647617  |grad|_K:  8.460e-03  alpha:  2.026e-02  linmin: -2.001e-01  cgtest:  9.323e-01  t[s]:     54.40
LCAOMinimize: Encountered beta<0, resetting CG.
LCAOMinimize: 	Predicted alpha/alphaT>3.000000, increasing alphaT to 6.078389e-02.
	FillingsUpdate:  mu: +0.067120387  nElectrons: 266.000000  magneticMoment: [ Abs: 0.00228  Tot: +0.00001 ]
LCAOMinimize: Iter:   2  F: -1442.7984600148793106  |grad|_K:  4.616e-03  alpha:  5.797e-02  linmin:  1.759e-02  cgtest: -1.394e-01  t[s]:     75.63
	FillingsUpdate:  mu: +0.207979830  nElectrons: 266.000000  magneticMoment: [ Abs: 0.00216  Tot: -0.00009 ]
LCAOMinimize: Iter:   3  F: -1443.2310369189892754  |grad|_K:  6.427e-03  alpha:  3.741e-02  linmin:  1.694e-03  cgtest:  1.761e-03  t[s]:     92.32
	FillingsUpdate:  mu: +0.251121282  nElectrons: 266.000000  magneticMoment: [ Abs: 0.00195  Tot: -0.00016 ]
LCAOMinimize: Iter:   4  F: -1444.2267582257286449  |grad|_K:  3.596e-03  alpha:  3.854e-02  linmin:  1.908e-02  cgtest: -4.885e-01  t[s]:    108.95
	FillingsUpdate:  mu: +0.203338882  nElectrons: 266.000000  magneticMoment: [ Abs: 0.00190  Tot: -0.00011 ]
LCAOMinimize: Iter:   5  F: -1444.3213751445673552  |grad|_K:  1.929e-03  alpha:  1.639e-02  linmin:  2.936e-03  cgtest:  7.765e-01  t[s]:    125.68
LCAOMinimize: Encountered beta<0, resetting CG.
	FillingsUpdate:  mu: +0.178348945  nElectrons: 266.000000  magneticMoment: [ Abs: 0.00190  Tot: -0.00015 ]
LCAOMinimize: Iter:   6  F: -1444.4289487873252256  |grad|_K:  1.879e-03  alpha:  4.192e-02  linmin: -1.326e-02  cgtest:  1.001e-01  t[s]:    142.42
	FillingsUpdate:  mu: +0.125235231  nElectrons: 266.000000  magneticMoment: [ Abs: 0.00188  Tot: -0.00018 ]
LCAOMinimize: Iter:   7  F: -1444.5025250022201817  |grad|_K:  1.158e-03  alpha:  2.999e-02  linmin: -4.783e-04  cgtest: -3.338e-01  t[s]:    159.23
	FillingsUpdate:  mu: +0.089372629  nElectrons: 266.000000  magneticMoment: [ Abs: 0.00181  Tot: -0.00016 ]
LCAOMinimize: Iter:   8  F: -1444.5641080263126241  |grad|_K:  7.301e-04  alpha:  6.776e-02  linmin: -1.209e-02  cgtest:  3.851e-01  t[s]:    175.88
	FillingsUpdate:  mu: +0.143569707  nElectrons: 266.000000  magneticMoment: [ Abs: 0.00175  Tot: -0.00010 ]
LCAOMinimize: Iter:   9  F: -1444.5965400394788958  |grad|_K:  5.913e-04  alpha:  9.165e-02  linmin:  1.326e-03  cgtest: -3.196e-02  t[s]:    192.64
	FillingsUpdate:  mu: +0.141904499  nElectrons: 266.000000  magneticMoment: [ Abs: 0.00171  Tot: -0.00008 ]
LCAOMinimize: Iter:  10  F: -1444.6305215526051597  |grad|_K:  7.040e-04  alpha:  1.522e-01  linmin:  2.130e-04  cgtest:  3.335e-02  t[s]:    209.30
	FillingsUpdate:  mu: +0.135177639  nElectrons: 266.000000  magneticMoment: [ Abs: 0.00170  Tot: -0.00008 ]
LCAOMinimize: Iter:  11  F: -1444.6368758724320287  |grad|_K:  4.235e-04  alpha:  2.191e-02  linmin:  9.571e-03  cgtest: -1.646e-01  t[s]:    226.01
LCAOMinimize: 	Predicted alpha/alphaT>3.000000, increasing alphaT to 6.573822e-02.
	FillingsUpdate:  mu: +0.125835502  nElectrons: 266.000000  magneticMoment: [ Abs: 0.00170  Tot: -0.00007 ]
LCAOMinimize: Iter:  12  F: -1444.6470807849693756  |grad|_K:  2.574e-04  alpha:  9.947e-02  linmin:  1.600e-03  cgtest:  5.207e-01  t[s]:    247.37
	FillingsUpdate:  mu: +0.128738735  nElectrons: 266.000000  magneticMoment: [ Abs: 0.00170  Tot: -0.00006 ]
LCAOMinimize: Iter:  13  F: -1444.6482909888932227  |grad|_K:  1.916e-04  alpha:  2.683e-02  linmin: -8.095e-03  cgtest:  6.477e-02  t[s]:    264.05
	FillingsUpdate:  mu: +0.133994502  nElectrons: 266.000000  magneticMoment: [ Abs: 0.00170  Tot: -0.00006 ]
LCAOMinimize: Iter:  14  F: -1444.6490350260019113  |grad|_K:  6.092e-05  alpha:  3.013e-02  linmin:  1.339e-03  cgtest: -1.759e-01  t[s]:    280.84
	FillingsUpdate:  mu: +0.132714405  nElectrons: 266.000000  magneticMoment: [ Abs: 0.00170  Tot: -0.00005 ]
LCAOMinimize: Iter:  15  F: -1444.6492285824049304  |grad|_K:  6.690e-05  alpha:  8.101e-02  linmin: -1.295e-06  cgtest:  3.489e-02  t[s]:    297.53
	FillingsUpdate:  mu: +0.131587529  nElectrons: 266.000000  magneticMoment: [ Abs: 0.00170  Tot: -0.00005 ]
LCAOMinimize: Iter:  16  F: -1444.6492974723992120  |grad|_K:  3.290e-05  alpha:  2.384e-02  linmin:  1.487e-04  cgtest: -9.632e-03  t[s]:    314.26
	FillingsUpdate:  mu: +0.129616725  nElectrons: 266.000000  magneticMoment: [ Abs: 0.00171  Tot: -0.00005 ]
LCAOMinimize: Iter:  17  F: -1444.6493297306333261  |grad|_K:  2.021e-05  alpha:  4.614e-02  linmin: -4.749e-05  cgtest:  1.326e-03  t[s]:    330.98
	FillingsUpdate:  mu: +0.129309331  nElectrons: 266.000000  magneticMoment: [ Abs: 0.00171  Tot: -0.00005 ]
LCAOMinimize: Iter:  18  F: -1444.6493438797006092  |grad|_K:  2.559e-05  alpha:  5.357e-02  linmin:  2.320e-05  cgtest: -1.172e-03  t[s]:    347.80
	FillingsUpdate:  mu: +0.129071584  nElectrons: 266.000000  magneticMoment: [ Abs: 0.00172  Tot: -0.00004 ]
LCAOMinimize: Iter:  19  F: -1444.6493617120297586  |grad|_K:  1.476e-05  alpha:  4.215e-02  linmin:  2.628e-05  cgtest:  3.634e-03  t[s]:    364.68
	FillingsUpdate:  mu: +0.129728076  nElectrons: 266.000000  magneticMoment: [ Abs: 0.00172  Tot: -0.00003 ]
LCAOMinimize: Iter:  20  F: -1444.6493705040322766  |grad|_K:  1.514e-05  alpha:  6.256e-02  linmin:  2.440e-04  cgtest: -2.408e-03  t[s]:    381.41
	FillingsUpdate:  mu: +0.129844040  nElectrons: 266.000000  magneticMoment: [ Abs: 0.00172  Tot: -0.00003 ]
LCAOMinimize: Iter:  21  F: -1444.6493755673445776  |grad|_K:  1.305e-05  alpha:  3.424e-02  linmin: -4.068e-05  cgtest:  7.083e-03  t[s]:    398.19
	FillingsUpdate:  mu: +0.129671433  nElectrons: 266.000000  magneticMoment: [ Abs: 0.00173  Tot: -0.00002 ]
LCAOMinimize: Iter:  22  F: -1444.6493820758817037  |grad|_K:  6.777e-06  alpha:  5.915e-02  linmin:  1.694e-04  cgtest: -1.012e-02  t[s]:    414.92
	FillingsUpdate:  mu: +0.129480794  nElectrons: 266.000000  magneticMoment: [ Abs: 0.00173  Tot: -0.00002 ]
LCAOMinimize: Iter:  23  F: -1444.6493830132408220  |grad|_K:  5.651e-06  alpha:  3.161e-02  linmin: -1.349e-05  cgtest:  2.975e-03  t[s]:    431.67
	FillingsUpdate:  mu: +0.129352116  nElectrons: 266.000000  magneticMoment: [ Abs: 0.00173  Tot: -0.00001 ]
LCAOMinimize: Iter:  24  F: -1444.6493839308200222  |grad|_K:  4.432e-06  alpha:  4.444e-02  linmin: -8.879e-06  cgtest: -1.847e-03  t[s]:    448.49
LCAOMinimize: Converged (|Delta F|<1.000000e-06 for 2 iters).
----- createFluidSolver() ----- (Fluid-side solver setup)
   Initializing fluid molecule 'H2O'
     Initializing site 'O'
       Electron density: proportional to exp(-r/0.36935)*erfc((r-0.51523)/0.36823) with norm 6.826
       Charge density: gaussian nuclear width 0.478731 with net site charge 0.826
       Polarizability: cuspless exponential with width 0.32 and norm 3.73
       Hard sphere radius: 2.57003 bohrs
       Positions in reference frame:
         [ +0.000000 +0.000000 +0.000000 ]
     Initializing site 'H'
       Electron density: proportional to exp(-r/0.34641)*erfc((r-0)/0.390882) with norm 0.587
       Charge density: gaussian nuclear width 0.377945 with net site charge -0.413
       Polarizability: cuspless exponential with width 0.39 and norm 3.3
       Positions in reference frame:
         [ +0.000000 -1.441945 +1.122523 ]
         [ +0.000000 +1.441945 +1.122523 ]
     Net charge: 0   dipole magnitude: 0.927204
     Initializing spherical shell mfKernel with radius 2.61727 Bohr
     deltaS corrections:
       site 'O': -7.54299
       site 'H': -6.83917
   Initializing fluid molecule 'Na+'
     Initializing site 'Na'
       Electron density: proportional to exp(-r/0.19682)*erfc((r-0.71491)/0.41314) with norm 8.1383
       Charge density: gaussian nuclear width 0.365347 with net site charge -1
       Hard sphere radius: 1.86327 bohrs
       Positions in reference frame:
         [ +0.000000 +0.000000 +0.000000 ]
     Net charge: -1   dipole magnitude: 0
     Initializing gaussian mfKernel with width: 1.55004 Bohr
     deltaS corrections:
       site 'Na': -22.3555
   Initializing fluid molecule 'F-'
     Initializing site 'F'
       Electron density: proportional to exp(-r/0.38886)*erfc((r-0)/0.438782) with norm 8
       Charge density: gaussian nuclear width 0.374796 with net site charge 1
       Hard sphere radius: 2.39995 bohrs
       Positions in reference frame:
         [ +0.000000 +0.000000 +0.000000 ]
     Net charge: 1   dipole magnitude: 0
     Initializing gaussian mfKernel with width: 1.59012 Bohr
     deltaS corrections:
       site 'F': -9.04335

Correction to mu due to finite nuclear width = -0.0542941
   Cavity determined by nc: 0.00142 and sigma: 0.707107
   Nonlocal vdW cavity from gaussian model electron density with norm = 8 and sigma = 0.993594 bohr
   Charge asymmetry in cavity with sensitivity pCavity = 36.5 e-bohr/Eh
   Electrostatic cavity expanded by eta = 1.46 bohrs
   Weighted density cavitation model constrained by Nbulk: 0.0049383 bohr^-3, Pvap: 3.14029 kPa, Rvdw: 2.61727 bohr and sigmaBulk: 4.62e-05 Eh/bohr^2 at T: 298 K.
   Weighted density dispersion model using vdW pair potentials with single solvent site with sqrtC6eff: 0.77 SI.


---- Citations for features of the code used in this run ----

   Software package:
      R. Sundararaman, K. Letchworth-Weaver, K.A. Schwarz, D. Gunceler, Y. Ozhabes and T.A. Arias, 'JDFTx: software for joint density-functional theory', SoftwareX 6, 278 (2017)

   gga-PBE exchange-correlation functional:
      J.P. Perdew, K. Burke and M. Ernzerhof, Phys. Rev. Lett. 77, 3865 (1996)

   Pseudopotentials:
      KF Garrity, JW Bennett, KM Rabe and D Vanderbilt, Comput. Mater. Sci. 81, 446 (2014)

   DFT-D3 dispersion correction:
      S. Grimme, J. Antony, S. Ehrlich and H. Krieg, J. Chem. Phys. 132, 154104 (2010)

   DFT-D2 dispersion correction:
      S. Grimme, J. Comput. Chem. 27, 1787 (2006)

   Charge-asymmetric nonlocally-determined local-electric (CANDLE) solvation model:
      R. Sundararaman and W.A. Goddard III, J. Chem. Phys. 142, 064107 (2015)

   Total energy minimization with Auxiliary Hamiltonian:
      C. Freysoldt, S. Boeck, and J. Neugebauer, Phys. Rev. B 79, 241103(R) (2009)

   Linear-tetrahedron sampling for density of states:
      G. Lehmann and M. Taut, Phys. status solidi (b) 54, 469 (1972)

This list may not be complete. Please suggest additional citations or
report any other bugs at https://github.com/shankar1729/jdftx/issues

Initialization completed successfully at t[s]:    453.97


Computing DFT-D3 correction:
# coordination-number Pt 9.615 9.627 9.627 10.417 7.707 7.707 7.754 7.754 6.438 6.438 6.438 6.438 9.606 9.606 9.606 9.606
# coordination-number C 5.779
# coordination-number O 2.216
# diagonal-C6 Pt 336.87 336.87 336.87 336.87 336.87 336.87 336.87 336.87 336.87 336.87 336.87 336.87 336.87 336.87 336.87 336.87
# diagonal-C6 C 18.21
# diagonal-C6 O 10.38
EvdW_6 =   -0.120049
EvdW_8 =   -0.208511
Fluid solver invoked on fresh (random / LCAO) wavefunctions
Running a vacuum solve first:

-------- Initial electronic minimization -----------
	FillingsUpdate:  mu: +0.129352123  nElectrons: 266.000000  magneticMoment: [ Abs: 0.00173  Tot: -0.00001 ]
ElecMinimize: Iter:   0  F: -1444.649383930814110  |grad|_K:  8.129e-05  alpha:  1.000e+00
	FillingsUpdate:  mu: +0.168343277  nElectrons: 266.000000  magneticMoment: [ Abs: 0.00137  Tot: +0.00001 ]
	SubspaceRotationAdjust: set factor to 0.997
ElecMinimize: Iter:   1  F: -1444.955109392162740  |grad|_K:  4.297e-05  alpha:  4.378e-01  linmin:  6.227e-05  t[s]:    490.92
	FillingsUpdate:  mu: +0.184099791  nElectrons: 266.000000  magneticMoment: [ Abs: 0.00128  Tot: -0.00002 ]
	SubspaceRotationAdjust: set factor to 0.552
ElecMinimize: Iter:   2  F: -1444.972699396154667  |grad|_K:  9.778e-05  alpha:  1.028e-01  linmin:  3.840e-04  t[s]:    514.02
	FillingsUpdate:  mu: +0.127864544  nElectrons: 266.000000  magneticMoment: [ Abs: 0.00110  Tot: -0.00006 ]
	SubspaceRotationAdjust: set factor to 0.386
ElecMinimize: Iter:   3  F: -1445.012278217621770  |grad|_K:  4.114e-05  alpha:  4.333e-02  linmin: -8.603e-06  t[s]:    537.21
	FillingsUpdate:  mu: +0.140935699  nElectrons: 266.000000  magneticMoment: [ Abs: 0.00103  Tot: -0.00005 ]
	SubspaceRotationAdjust: set factor to 0.265
ElecMinimize: Iter:   4  F: -1445.022147412135155  |grad|_K:  3.639e-05  alpha:  5.505e-02  linmin:  1.210e-04  t[s]:    560.33
	FillingsUpdate:  mu: +0.154255141  nElectrons: 266.000000  magneticMoment: [ Abs: 0.00093  Tot: -0.00005 ]
	SubspaceRotationAdjust: set factor to 0.323
ElecMinimize: Iter:   5  F: -1445.032074928939437  |grad|_K:  1.970e-05  alpha:  7.261e-02  linmin:  3.294e-05  t[s]:    583.49
	FillingsUpdate:  mu: +0.161281965  nElectrons: 266.000000  magneticMoment: [ Abs: 0.00086  Tot: -0.00006 ]
	SubspaceRotationAdjust: set factor to 0.241
ElecMinimize: Iter:   6  F: -1445.035536483389933  |grad|_K:  2.141e-05  alpha:  8.424e-02  linmin: -1.463e-07  t[s]:    606.59
	FillingsUpdate:  mu: +0.153271265  nElectrons: 266.000000  magneticMoment: [ Abs: 0.00071  Tot: -0.00007 ]
	SubspaceRotationAdjust: set factor to 0.202
ElecMinimize: Iter:   7  F: -1445.042122090625753  |grad|_K:  1.365e-05  alpha:  1.347e-01  linmin:  4.571e-06  t[s]:    629.68
	FillingsUpdate:  mu: +0.146890030  nElectrons: 266.000000  magneticMoment: [ Abs: 0.00067  Tot: -0.00007 ]
	SubspaceRotationAdjust: set factor to 0.144
ElecMinimize: Iter:   8  F: -1445.043446965534940  |grad|_K:  8.796e-06  alpha:  6.693e-02  linmin:  1.034e-05  t[s]:    652.84
ElecMinimize: 	Predicted alpha/alphaT>3.000000, increasing alphaT to 2.007961e-01.
	FillingsUpdate:  mu: +0.144799080  nElectrons: 266.000000  magneticMoment: [ Abs: 0.00058  Tot: -0.00008 ]
	SubspaceRotationAdjust: set factor to 0.102
	SubspaceRotationAdjust: resetting CG because factor has changed by 0.10171
ElecMinimize: 	State modified externally: resetting search direction.
ElecMinimize: Iter:   9  F: -1445.045205811243477  |grad|_K:  8.173e-06  alpha:  2.135e-01
	FillingsUpdate:  mu: +0.146301310  nElectrons: 266.000000  magneticMoment: [ Abs: 0.00056  Tot: -0.00008 ]
	SubspaceRotationAdjust: set factor to 0.0683
ElecMinimize: Iter:  10  F: -1445.046266485644082  |grad|_K:  3.843e-06  alpha:  1.488e-01  linmin:  4.107e-07  t[s]:    717.58
	FillingsUpdate:  mu: +0.150033793  nElectrons: 266.000000  magneticMoment: [ Abs: 0.00049  Tot: -0.00007 ]
	SubspaceRotationAdjust: set factor to 0.0599
ElecMinimize: Iter:  11  F: -1445.046935247432202  |grad|_K:  2.737e-06  alpha:  4.244e-01  linmin: -3.412e-06  t[s]:    740.65
	FillingsUpdate:  mu: +0.148332828  nElectrons: 266.000000  magneticMoment: [ Abs: 0.00041  Tot: -0.00007 ]
	SubspaceRotationAdjust: set factor to 0.0661
ElecMinimize: Iter:  12  F: -1445.047440294770922  |grad|_K:  2.047e-06  alpha:  6.323e-01  linmin:  3.347e-05  t[s]:    763.69
	FillingsUpdate:  mu: +0.149263614  nElectrons: 266.000000  magneticMoment: [ Abs: 0.00036  Tot: -0.00007 ]
	SubspaceRotationAdjust: set factor to 0.0658
ElecMinimize: Iter:  13  F: -1445.047664237396248  |grad|_K:  1.504e-06  alpha:  5.016e-01  linmin:  4.201e-07  t[s]:    786.70
	FillingsUpdate:  mu: +0.149471529  nElectrons: 266.000000  magneticMoment: [ Abs: 0.00033  Tot: -0.00007 ]
	SubspaceRotationAdjust: set factor to 0.0559
ElecMinimize: Iter:  14  F: -1445.047762930325234  |grad|_K:  1.212e-06  alpha:  4.087e-01  linmin:  1.772e-06  t[s]:    809.77
	FillingsUpdate:  mu: +0.149705133  nElectrons: 266.000000  magneticMoment: [ Abs: 0.00031  Tot: -0.00007 ]
	SubspaceRotationAdjust: set factor to 0.0549
ElecMinimize: Iter:  15  F: -1445.047834913883889  |grad|_K:  9.247e-07  alpha:  4.594e-01  linmin:  5.675e-06  t[s]:    832.86
	FillingsUpdate:  mu: +0.149469381  nElectrons: 266.000000  magneticMoment: [ Abs: 0.00029  Tot: -0.00007 ]
	SubspaceRotationAdjust: set factor to 0.0679
ElecMinimize: Iter:  16  F: -1445.047883168661428  |grad|_K:  7.625e-07  alpha:  5.292e-01  linmin:  6.690e-06  t[s]:    855.90
	FillingsUpdate:  mu: +0.149356235  nElectrons: 266.000000  magneticMoment: [ Abs: 0.00027  Tot: -0.00006 ]
	SubspaceRotationAdjust: set factor to 0.0733
ElecMinimize: Iter:  17  F: -1445.047936395547595  |grad|_K:  9.236e-07  alpha:  8.587e-01  linmin:  5.289e-06  t[s]:    878.93
	FillingsUpdate:  mu: +0.149638359  nElectrons: 266.000000  magneticMoment: [ Abs: 0.00024  Tot: -0.00006 ]
	SubspaceRotationAdjust: set factor to 0.0638
ElecMinimize: Iter:  18  F: -1445.047978061805452  |grad|_K:  8.419e-07  alpha:  4.581e-01  linmin:  5.847e-07  t[s]:    902.00
	FillingsUpdate:  mu: +0.149437941  nElectrons: 266.000000  magneticMoment: [ Abs: 0.00022  Tot: -0.00005 ]
	SubspaceRotationAdjust: set factor to 0.056
ElecMinimize: Iter:  19  F: -1445.048009189163167  |grad|_K:  6.494e-07  alpha:  4.116e-01  linmin:  9.271e-07  t[s]:    925.05
	FillingsUpdate:  mu: +0.149504788  nElectrons: 266.000000  magneticMoment: [ Abs: 0.00019  Tot: -0.00005 ]
	SubspaceRotationAdjust: set factor to 0.0595
ElecMinimize: Iter:  20  F: -1445.048036683243936  |grad|_K:  6.076e-07  alpha:  6.110e-01  linmin: -1.785e-06  t[s]:    948.98
	FillingsUpdate:  mu: +0.149725494  nElectrons: 266.000000  magneticMoment: [ Abs: 0.00016  Tot: -0.00004 ]
	SubspaceRotationAdjust: set factor to 0.062
ElecMinimize: Iter:  21  F: -1445.048057428937454  |grad|_K:  5.282e-07  alpha:  5.266e-01  linmin: -1.845e-06  t[s]:    972.07
	FillingsUpdate:  mu: +0.149763690  nElectrons: 266.000000  magneticMoment: [ Abs: 0.00014  Tot: -0.00004 ]
	SubspaceRotationAdjust: set factor to 0.0576
ElecMinimize: Iter:  22  F: -1445.048070686816345  |grad|_K:  3.870e-07  alpha:  4.452e-01  linmin: -1.318e-06  t[s]:    995.19
	FillingsUpdate:  mu: +0.149814509  nElectrons: 266.000000  magneticMoment: [ Abs: 0.00013  Tot: -0.00004 ]
	SubspaceRotationAdjust: set factor to 0.0506
ElecMinimize: Iter:  23  F: -1445.048078417188208  |grad|_K:  3.091e-07  alpha:  4.837e-01  linmin: -5.241e-07  t[s]:   1018.17
	FillingsUpdate:  mu: +0.149758890  nElectrons: 266.000000  magneticMoment: [ Abs: 0.00012  Tot: -0.00004 ]
	SubspaceRotationAdjust: set factor to 0.0517
ElecMinimize: Iter:  24  F: -1445.048082704718354  |grad|_K:  2.257e-07  alpha:  4.205e-01  linmin: -3.891e-07  t[s]:   1041.17
	FillingsUpdate:  mu: +0.149770094  nElectrons: 266.000000  magneticMoment: [ Abs: 0.00011  Tot: -0.00003 ]
	SubspaceRotationAdjust: set factor to 0.0582
ElecMinimize: Iter:  25  F: -1445.048085404205267  |grad|_K:  1.820e-07  alpha:  4.965e-01  linmin: -1.970e-07  t[s]:   1064.17
	FillingsUpdate:  mu: +0.149775783  nElectrons: 266.000000  magneticMoment: [ Abs: 0.00010  Tot: -0.00003 ]
	SubspaceRotationAdjust: set factor to 0.0585
ElecMinimize: Iter:  26  F: -1445.048087336036815  |grad|_K:  1.586e-07  alpha:  5.468e-01  linmin:  1.192e-07  t[s]:   1087.21
	FillingsUpdate:  mu: +0.149721083  nElectrons: 266.000000  magneticMoment: [ Abs: 0.00010  Tot: -0.00003 ]
	SubspaceRotationAdjust: set factor to 0.0539
ElecMinimize: Iter:  27  F: -1445.048088523536762  |grad|_K:  1.248e-07  alpha:  4.422e-01  linmin:  1.720e-08  t[s]:   1110.25
	FillingsUpdate:  mu: +0.149748389  nElectrons: 266.000000  magneticMoment: [ Abs: 0.00009  Tot: -0.00003 ]
	SubspaceRotationAdjust: set factor to 0.0607
ElecMinimize: Iter:  28  F: -1445.048089325120600  |grad|_K:  1.002e-07  alpha:  4.827e-01  linmin:  8.141e-07  t[s]:   1133.30
	FillingsUpdate:  mu: +0.149763933  nElectrons: 266.000000  magneticMoment: [ Abs: 0.00008  Tot: -0.00003 ]
	SubspaceRotationAdjust: set factor to 0.0704
ElecMinimize: Iter:  29  F: -1445.048089950176518  |grad|_K:  9.255e-08  alpha:  5.838e-01  linmin:  1.193e-06  t[s]:   1156.38
	FillingsUpdate:  mu: +0.149745235  nElectrons: 266.000000  magneticMoment: [ Abs: 0.00008  Tot: -0.00003 ]
	SubspaceRotationAdjust: set factor to 0.0684
ElecMinimize: Iter:  30  F: -1445.048090435101585  |grad|_K:  8.863e-08  alpha:  5.307e-01  linmin:  1.482e-07  t[s]:   1179.47
	FillingsUpdate:  mu: +0.149760133  nElectrons: 266.000000  magneticMoment: [ Abs: 0.00007  Tot: -0.00003 ]
	SubspaceRotationAdjust: set factor to 0.0585
ElecMinimize: Iter:  31  F: -1445.048090794239215  |grad|_K:  7.659e-08  alpha:  4.285e-01  linmin: -2.733e-08  t[s]:   1202.49
	FillingsUpdate:  mu: +0.149741317  nElectrons: 266.000000  magneticMoment: [ Abs: 0.00007  Tot: -0.00002 ]
	SubspaceRotationAdjust: set factor to 0.0607
ElecMinimize: Iter:  32  F: -1445.048091100037482  |grad|_K:  6.046e-08  alpha:  4.884e-01  linmin: -1.003e-06  t[s]:   1225.59
	FillingsUpdate:  mu: +0.149742904  nElectrons: 266.000000  magneticMoment: [ Abs: 0.00006  Tot: -0.00002 ]
	SubspaceRotationAdjust: set factor to 0.0668
ElecMinimize: Iter:  33  F: -1445.048091312310817  |grad|_K:  5.131e-08  alpha:  5.443e-01  linmin:  5.978e-07  t[s]:   1248.64
	FillingsUpdate:  mu: +0.149748698  nElectrons: 266.000000  magneticMoment: [ Abs: 0.00006  Tot: -0.00002 ]
	SubspaceRotationAdjust: set factor to 0.0629
ElecMinimize: Iter:  34  F: -1445.048091451014443  |grad|_K:  4.469e-08  alpha:  4.942e-01  linmin: -9.692e-08  t[s]:   1271.70
	FillingsUpdate:  mu: +0.149727748  nElectrons: 266.000000  magneticMoment: [ Abs: 0.00005  Tot: -0.00002 ]
	SubspaceRotationAdjust: set factor to 0.0521
ElecMinimize: Iter:  35  F: -1445.048091542277007  |grad|_K:  3.550e-08  alpha:  4.282e-01  linmin: -1.434e-07  t[s]:   1294.77
	FillingsUpdate:  mu: +0.149729560  nElectrons: 266.000000  magneticMoment: [ Abs: 0.00005  Tot: -0.00002 ]
	SubspaceRotationAdjust: set factor to 0.0522
ElecMinimize: Iter:  36  F: -1445.048091603212697  |grad|_K:  2.630e-08  alpha:  4.531e-01  linmin:  8.270e-07  t[s]:   1317.77
ElecMinimize: Converged (|Delta F|<1.000000e-07 for 2 iters).
Setting wave functions to eigenvectors of Hamiltonian
Converging empty states (this may take a while): |deigs|: 3.189e-03
Vacuum energy after initial minimize, F = -1445.048091603212697


-------- Electronic minimization -----------
	Linear fluid (dielectric constant: 78.4, screening length: 8.12261 Bohr) occupying 0.471825 of unit cell:	Completed after 25 iterations at t[s]:   1418.63
	FillingsUpdate:  mu: -0.200926465  nElectrons: 266.000000  magneticMoment: [ Abs: 0.00003  Tot: -0.00001 ]
ElecMinimize: Iter:   0  F: -1445.052774535871777  |grad|_K:  8.119e-07  alpha:  1.000e+00
	Linear fluid (dielectric constant: 78.4, screening length: 8.12261 Bohr) occupying 0.472472 of unit cell:	Completed after 16 iterations at t[s]:   1439.30
	Linear fluid (dielectric constant: 78.4, screening length: 8.12261 Bohr) occupying 0.472480 of unit cell:	Completed after 2 iterations at t[s]:   1446.63
	FillingsUpdate:  mu: -0.200386914  nElectrons: 266.000000  magneticMoment: [ Abs: 0.00002  Tot: -0.00001 ]
	SubspaceRotationAdjust: set factor to 0.0517
ElecMinimize: Iter:   1  F: -1445.052845788149853  |grad|_K:  8.077e-07  alpha:  1.013e+00  linmin: -7.195e-07  t[s]:   1455.96
	Linear fluid (dielectric constant: 78.4, screening length: 8.12261 Bohr) occupying 0.473381 of unit cell:	Completed after 16 iterations at t[s]:   1465.97
	Linear fluid (dielectric constant: 78.4, screening length: 8.12261 Bohr) occupying 0.472908 of unit cell:	Completed after 15 iterations at t[s]:   1474.45
	FillingsUpdate:  mu: -0.199745865  nElectrons: 266.000000  magneticMoment: [ Abs: 0.00002  Tot: -0.00001 ]
	SubspaceRotationAdjust: set factor to 0.0554
ElecMinimize: Iter:   2  F: -1445.052879116750319  |grad|_K:  4.947e-07  alpha:  4.784e-01  linmin:  1.915e-07  t[s]:   1483.84
	Linear fluid (dielectric constant: 78.4, screening length: 8.12261 Bohr) occupying 0.473089 of unit cell:	Completed after 11 iterations at t[s]:   1493.28
	Linear fluid (dielectric constant: 78.4, screening length: 8.12261 Bohr) occupying 0.473148 of unit cell:	Completed after 8 iterations at t[s]:   1501.13
	FillingsUpdate:  mu: -0.199441804  nElectrons: 266.000000  magneticMoment: [ Abs: 0.00002  Tot: -0.00001 ]
	SubspaceRotationAdjust: set factor to 0.0686
ElecMinimize: Iter:   3  F: -1445.052895719552225  |grad|_K:  3.992e-07  alpha:  6.363e-01  linmin: -5.873e-08  t[s]:   1510.53
	Linear fluid (dielectric constant: 78.4, screening length: 8.12261 Bohr) occupying 0.473294 of unit cell:	Completed after 11 iterations at t[s]:   1520.04
	Linear fluid (dielectric constant: 78.4, screening length: 8.12261 Bohr) occupying 0.473294 of unit cell:	Completed after 0 iterations at t[s]:   1527.07
	FillingsUpdate:  mu: -0.198990093  nElectrons: 266.000000  magneticMoment: [ Abs: 0.00002  Tot: -0.00001 ]
	SubspaceRotationAdjust: set factor to 0.0839
ElecMinimize: Iter:   4  F: -1445.052906523606907  |grad|_K:  3.599e-07  alpha:  6.353e-01  linmin: -1.158e-07  t[s]:   1536.42
	Linear fluid (dielectric constant: 78.4, screening length: 8.12261 Bohr) occupying 0.473406 of unit cell:	Completed after 10 iterations at t[s]:   1545.82
	Linear fluid (dielectric constant: 78.4, screening length: 8.12261 Bohr) occupying 0.473435 of unit cell:	Completed after 7 iterations at t[s]:   1554.46
	FillingsUpdate:  mu: -0.198676271  nElectrons: 266.000000  magneticMoment: [ Abs: 0.00002  Tot: -0.00001 ]
	SubspaceRotationAdjust: set factor to 0.0999
ElecMinimize: Iter:   5  F: -1445.052917677609912  |grad|_K:  3.659e-07  alpha:  8.054e-01  linmin: -2.053e-07  t[s]:   1563.85
	Linear fluid (dielectric constant: 78.4, screening length: 8.12261 Bohr) occupying 0.473573 of unit cell:	Completed after 10 iterations at t[s]:   1573.27
	Linear fluid (dielectric constant: 78.4, screening length: 8.12261 Bohr) occupying 0.473568 of unit cell:	Completed after 1 iterations at t[s]:   1580.42
	FillingsUpdate:  mu: -0.198573563  nElectrons: 266.000000  magneticMoment: [ Abs: 0.00002  Tot: -0.00001 ]
	SubspaceRotationAdjust: set factor to 0.112
ElecMinimize: Iter:   6  F: -1445.052928742453105  |grad|_K:  3.729e-07  alpha:  7.723e-01  linmin: -5.090e-08  t[s]:   1589.83
	Linear fluid (dielectric constant: 78.4, screening length: 8.12261 Bohr) occupying 0.473700 of unit cell:	Completed after 11 iterations at t[s]:   1599.31
	Linear fluid (dielectric constant: 78.4, screening length: 8.12261 Bohr) occupying 0.473669 of unit cell:	Completed after 6 iterations at t[s]:   1606.95
	FillingsUpdate:  mu: -0.198412731  nElectrons: 266.000000  magneticMoment: [ Abs: 0.00002  Tot: -0.00001 ]
	SubspaceRotationAdjust: set factor to 0.119
ElecMinimize: Iter:   7  F: -1445.052937440109645  |grad|_K:  3.328e-07  alpha:  5.860e-01  linmin: -7.224e-09  t[s]:   1616.37
	Linear fluid (dielectric constant: 78.4, screening length: 8.12261 Bohr) occupying 0.473745 of unit cell:	Completed after 9 iterations at t[s]:   1625.61
	Linear fluid (dielectric constant: 78.4, screening length: 8.12261 Bohr) occupying 0.473735 of unit cell:	Completed after 3 iterations at t[s]:   1633.01
	FillingsUpdate:  mu: -0.198321558  nElectrons: 266.000000  magneticMoment: [ Abs: 0.00002  Tot: -0.00001 ]
	SubspaceRotationAdjust: set factor to 0.121
ElecMinimize: Iter:   8  F: -1445.052943447089092  |grad|_K:  2.628e-07  alpha:  5.084e-01  linmin: -7.874e-09  t[s]:   1642.43
	Linear fluid (dielectric constant: 78.4, screening length: 8.12261 Bohr) occupying 0.473774 of unit cell:	Completed after 9 iterations at t[s]:   1651.78
	Linear fluid (dielectric constant: 78.4, screening length: 8.12261 Bohr) occupying 0.473775 of unit cell:	Completed after 0 iterations at t[s]:   1658.74
	FillingsUpdate:  mu: -0.198227478  nElectrons: 266.000000  magneticMoment: [ Abs: 0.00001  Tot: -0.00001 ]
	SubspaceRotationAdjust: set factor to 0.12
ElecMinimize: Iter:   9  F: -1445.052947272423580  |grad|_K:  1.936e-07  alpha:  5.190e-01  linmin: -2.431e-07  t[s]:   1668.10
	Linear fluid (dielectric constant: 78.4, screening length: 8.12261 Bohr) occupying 0.473792 of unit cell:	Completed after 8 iterations at t[s]:   1677.47
	Linear fluid (dielectric constant: 78.4, screening length: 8.12261 Bohr) occupying 0.473791 of unit cell:	Completed after 2 iterations at t[s]:   1684.67
	FillingsUpdate:  mu: -0.198168394  nElectrons: 266.000000  magneticMoment: [ Abs: 0.00001  Tot: -0.00001 ]
	SubspaceRotationAdjust: set factor to 0.105
ElecMinimize: Iter:  10  F: -1445.052949256547663  |grad|_K:  1.587e-07  alpha:  4.937e-01  linmin:  2.618e-07  t[s]:   1694.06
	Linear fluid (dielectric constant: 78.4, screening length: 8.12261 Bohr) occupying 0.473801 of unit cell:	Completed after 8 iterations at t[s]:   1703.26
	Linear fluid (dielectric constant: 78.4, screening length: 8.12261 Bohr) occupying 0.473799 of unit cell:	Completed after 5 iterations at t[s]:   1710.79
	FillingsUpdate:  mu: -0.198108578  nElectrons: 266.000000  magneticMoment: [ Abs: 0.00001  Tot: -0.00001 ]
	SubspaceRotationAdjust: set factor to 0.0923
ElecMinimize: Iter:  11  F: -1445.052950304510205  |grad|_K:  1.136e-07  alpha:  3.923e-01  linmin: -5.528e-08  t[s]:   1720.21
	Linear fluid (dielectric constant: 78.4, screening length: 8.12261 Bohr) occupying 0.473800 of unit cell:	Completed after 5 iterations at t[s]:   1729.13
	Linear fluid (dielectric constant: 78.4, screening length: 8.12261 Bohr) occupying 0.473800 of unit cell:	Completed after 2 iterations at t[s]:   1736.49
	FillingsUpdate:  mu: -0.198112933  nElectrons: 266.000000  magneticMoment: [ Abs: 0.00001  Tot: -0.00001 ]
	SubspaceRotationAdjust: set factor to 0.112
ElecMinimize: Iter:  12  F: -1445.052951011651658  |grad|_K:  7.988e-08  alpha:  5.121e-01  linmin: -5.504e-07  t[s]:   1745.90
	Linear fluid (dielectric constant: 78.4, screening length: 8.12261 Bohr) occupying 0.473799 of unit cell:	Completed after 4 iterations at t[s]:   1754.71
	Linear fluid (dielectric constant: 78.4, screening length: 8.12261 Bohr) occupying 0.473798 of unit cell:	Completed after 0 iterations at t[s]:   1761.67
	FillingsUpdate:  mu: -0.198125906  nElectrons: 266.000000  magneticMoment: [ Abs: 0.00001  Tot: -0.00001 ]
	SubspaceRotationAdjust: set factor to 0.137
ElecMinimize: Iter:  13  F: -1445.052951397261268  |grad|_K:  6.341e-08  alpha:  5.617e-01  linmin: -8.306e-07  t[s]:   1771.08
	Linear fluid (dielectric constant: 78.4, screening length: 8.12261 Bohr) occupying 0.473796 of unit cell:	Completed after 3 iterations at t[s]:   1779.77
	Linear fluid (dielectric constant: 78.4, screening length: 8.12261 Bohr) occupying 0.473796 of unit cell:	Completed after 0 iterations at t[s]:   1786.74
	FillingsUpdate:  mu: -0.198128797  nElectrons: 266.000000  magneticMoment: [ Abs: 0.00001  Tot: -0.00001 ]
	SubspaceRotationAdjust: set factor to 0.155
ElecMinimize: Iter:  14  F: -1445.052951645420080  |grad|_K:  5.332e-08  alpha:  5.735e-01  linmin: -4.367e-07  t[s]:   1796.16
	Linear fluid (dielectric constant: 78.4, screening length: 8.12261 Bohr) occupying 0.473792 of unit cell:	Completed after 6 iterations at t[s]:   1805.13
	Linear fluid (dielectric constant: 78.4, screening length: 8.12261 Bohr) occupying 0.473793 of unit cell:	Completed after 0 iterations at t[s]:   1812.10
	FillingsUpdate:  mu: -0.198166016  nElectrons: 266.000000  magneticMoment: [ Abs: 0.00001  Tot: -0.00001 ]
	SubspaceRotationAdjust: set factor to 0.156
ElecMinimize: Iter:  15  F: -1445.052951804275153  |grad|_K:  4.906e-08  alpha:  5.197e-01  linmin:  3.875e-06  t[s]:   1821.50
	Linear fluid (dielectric constant: 78.4, screening length: 8.12261 Bohr) occupying 0.473791 of unit cell:	Completed after 6 iterations at t[s]:   1830.50
	Linear fluid (dielectric constant: 78.4, screening length: 8.12261 Bohr) occupying 0.473791 of unit cell:	Completed after 2 iterations at t[s]:   1837.77
	FillingsUpdate:  mu: -0.198171999  nElectrons: 266.000000  magneticMoment: [ Abs: 0.00001  Tot: -0.00001 ]
	SubspaceRotationAdjust: set factor to 0.129
ElecMinimize: Iter:  16  F: -1445.052951892897909  |grad|_K:  4.278e-08  alpha:  3.628e-01  linmin:  9.258e-08  t[s]:   1848.21
	Linear fluid (dielectric constant: 78.4, screening length: 8.12261 Bohr) occupying 0.473790 of unit cell:	Completed after 5 iterations at t[s]:   1857.28
	Linear fluid (dielectric constant: 78.4, screening length: 8.12261 Bohr) occupying 0.473790 of unit cell:	Completed after 0 iterations at t[s]:   1864.22
	FillingsUpdate:  mu: -0.198186662  nElectrons: 266.000000  magneticMoment: [ Abs: 0.00001  Tot: -0.00001 ]
	SubspaceRotationAdjust: set factor to 0.0971
ElecMinimize: Iter:  17  F: -1445.052951957563437  |grad|_K:  3.107e-08  alpha:  3.324e-01  linmin:  2.501e-06  t[s]:   1873.63
ElecMinimize: Converged (|Delta F|<1.000000e-07 for 2 iters).
Setting wave functions to eigenvectors of Hamiltonian
Converging empty states (this may take a while): |deigs|: 8.374e-05
Single-point solvation energy estimate, DeltaF = -0.004860354350740

Computing DFT-D3 correction:
# coordination-number Pt 9.615 9.627 9.627 10.417 7.707 7.707 7.754 7.754 6.438 6.438 6.438 6.438 9.606 9.606 9.606 9.606
# coordination-number C 5.779
# coordination-number O 2.216
# diagonal-C6 Pt 336.87 336.87 336.87 336.87 336.87 336.87 336.87 336.87 336.87 336.87 336.87 336.87 336.87 336.87 336.87 336.87
# diagonal-C6 C 18.21
# diagonal-C6 O 10.38
EvdW_6 =   -0.120049
EvdW_8 =   -0.208511

# Ionic positions in cartesian coordinates:
ion Pt  10.463971000000001  10.463988444444444  38.836613999999997 0
ion Pt  10.463971000000001   5.231992444444445  38.836613999999997 0
ion Pt   5.231975000000000  10.463988444444444  38.836613999999997 0
ion Pt   5.231975000000000   5.231992444444445  38.836613999999997 0
ion Pt   2.615977000000000   2.615994444444445  42.501416999999996 0
ion Pt   2.615977000000000   7.847990444444444  42.501416999999996 0
ion Pt   7.847973000000000   2.615994444444445  42.501416999999996 0
ion Pt   7.847973000000000   7.847990444444444  42.501416999999996 0
ion Pt   0.000021000000000  -0.000003555555555  31.488006000000002 0
ion Pt   0.000021000000000   5.231992444444446  31.488006000000002 0
ion Pt   5.232006000000000  -0.000003555555555  31.488006000000002 0
ion Pt   5.232006000000000   5.231992444444446  31.488006000000002 0
ion Pt   2.616019000000001   2.615994444444445  35.157116000000002 0
ion Pt   2.616019000000001   7.847990444444446  35.157116000000002 0
ion Pt   7.848015000000000   2.615994444444445  35.157116000000002 0
ion Pt   7.848015000000000   7.847990444444446  35.157116000000002 0
ion C   5.231975000000000   5.231992444444445  43.173200999999999 1  Linear 0 0 1
ion O   5.292070000000001   5.231992444444445   0.933626000000000 1  Linear 0 0 1

# Forces in Cartesian coordinates:
force Pt  -0.000546376201029   0.000000000000000   0.000216698949276 0
force Pt   0.000078480605352   0.000000000000000  -0.017393958756785 0
force Pt  -0.000049006723841   0.000000000000000  -0.017399948619124 0
force Pt  -0.000022758487359   0.000000000000000  -0.043579714622966 0
force Pt  -0.042785751996384  -0.042265840819346  -0.010177444559318 0
force Pt  -0.042785751996384   0.042265840819346  -0.010177444559318 0
force Pt   0.044045443716947  -0.044591515204392  -0.011103442364053 0
force Pt   0.044045443716947   0.044591515204392  -0.011103442364053 0
force Pt  -0.000134764245069   0.000000000000000   0.000017511255206 0
force Pt  -0.000001046740098   0.000000000000000   0.001743617104875 0
force Pt   0.000100936956496   0.000000000000000   0.001744652686493 0
force Pt   0.000021965308934   0.000000000000000  -0.001445339540888 0
force Pt   0.000294165987517   0.000308740652292  -0.001972463386346 0
force Pt   0.000294165987517  -0.000308740652292  -0.001972463386346 0
force Pt  -0.000416430410919   0.000404145488846  -0.002227836148425 0
force Pt  -0.000416430410919  -0.000404145488846  -0.002227836148425 0
force C  -0.007252205604600   0.000000000000000  -0.135392472427850 1  Linear 0 0 1
force O   0.005482918516806   0.000000000000000   0.261715041395566 1  Linear 0 0 1

# Energy components:
   A_diel =       -0.0050479439344367
   Eewald =     5392.0258860013809681
       EH =     6704.3646715299337302
     Eloc =   -13797.7015863351352891
      Enl =      -13.7557094351581242
     EvdW =       -0.3285603330158099
      Exc =     -460.8430265456173629
 Exc_core =      262.3608577059843583
       KE =      468.8322590777088408
-------------------------------------
     Etot =    -1445.0502562778528954
       TS =        0.0026956797104862
-------------------------------------
        F =    -1445.0529519575634367


Dumping 'jdft.fillings' ... done
Dumping 'jdft.wfns' ... done
Dumping 'jdft.fluidState' ... done
Dumping 'jdft.ionpos' ... done
Dumping 'jdft.lattice' ... done
Dumping 'jdft.eigenvals' ... done
Dumping 'jdft.eigStats' ... 
	eMin: -2.150331 at state 16 ( [ +0.000000 +0.000000 +0.000000 ] spin -1 )
	HOMO: -0.198405 at state 5 ( [ +0.166667 +0.166667 +0.000000 ] spin 1 )
	mu  : -0.198187
	LUMO: -0.197559 at state 19 ( [ +0.000000 +0.500000 +0.000000 ] spin -1 )
	eMax: +0.091172 at state 31 ( [ +0.500000 +0.500000 +0.000000 ] spin -1 )
	HOMO-LUMO gap: +0.000845
	Optical gap  : +0.001094 at state 19 ( [ +0.000000 +0.500000 +0.000000 ] spin -1 )
Dumping 'jdft.Ecomponents' ... done
IonicMinimize: Iter:   0  F: -1445.052951957563437  |grad|_K:  2.084e-01  t[s]:   1958.48

#--- Lowdin population analysis ---
# oxidation-state Pt -0.040 -0.009 -0.009 -0.005 +0.004 +0.004 +0.005 +0.005 +0.029 +0.029 +0.029 +0.025 -0.001 -0.001 -0.001 -0.001
# magnetic-moments Pt -0.000 -0.000 -0.000 -0.000 -0.000 -0.000 -0.000 -0.000 -0.000 -0.000 -0.000 -0.000 -0.000 -0.000 -0.000 -0.000
# oxidation-state C +0.314
# magnetic-moments C +0.000
# oxidation-state O -0.104
# magnetic-moments O -0.000


Computing DFT-D3 correction:
# coordination-number Pt 9.615 9.628 9.628 10.448 7.671 7.671 7.712 7.712 6.438 6.438 6.438 6.438 9.606 9.606 9.606 9.606
# coordination-number C 5.815
# coordination-number O 2.056
# diagonal-C6 Pt 336.87 336.87 336.87 336.87 336.87 336.87 336.87 336.87 336.87 336.87 336.87 336.87 336.87 336.87 336.87 336.87
# diagonal-C6 C 18.21
# diagonal-C6 O 10.40
EvdW_6 =   -0.120016
EvdW_8 =   -0.208558

-------- Electronic minimization -----------
	Linear fluid (dielectric constant: 78.4, screening length: 8.12261 Bohr) occupying 0.473676 of unit cell:	Completed after 21 iterations at t[s]:   1969.25
	FillingsUpdate:  mu: -0.185252680  nElectrons: 266.000000  magneticMoment: [ Abs: 0.00001  Tot: -0.00001 ]
ElecMinimize: Iter:   0  F: -1444.970602608172385  |grad|_K:  4.872e-05  alpha:  1.000e+00
	Linear fluid (dielectric constant: 78.4, screening length: 8.12261 Bohr) occupying 0.473777 of unit cell:	Completed after 22 iterations at t[s]:   1990.38
	Linear fluid (dielectric constant: 78.4, screening length: 8.12261 Bohr) occupying 0.473531 of unit cell:	Completed after 21 iterations at t[s]:   1999.54
	FillingsUpdate:  mu: -0.192493771  nElectrons: 266.000000  magneticMoment: [ Abs: 0.00001  Tot: -0.00001 ]
	SubspaceRotationAdjust: set factor to 0.09
ElecMinimize: Iter:   1  F: -1445.062202060740674  |grad|_K:  1.468e-05  alpha:  3.706e-01  linmin:  9.163e-03  t[s]:   2008.88
	Linear fluid (dielectric constant: 78.4, screening length: 8.12261 Bohr) occupying 0.473333 of unit cell:	Completed after 18 iterations at t[s]:   2018.96
	Linear fluid (dielectric constant: 78.4, screening length: 8.12261 Bohr) occupying 0.473359 of unit cell:	Completed after 14 iterations at t[s]:   2027.44
	FillingsUpdate:  mu: -0.196485954  nElectrons: 266.000000  magneticMoment: [ Abs: 0.00001  Tot: -0.00001 ]
	SubspaceRotationAdjust: set factor to 0.0778
ElecMinimize: Iter:   2  F: -1445.069086919728534  |grad|_K:  6.419e-06  alpha:  3.060e-01  linmin: -9.193e-05  t[s]:   2036.82
	Linear fluid (dielectric constant: 78.4, screening length: 8.12261 Bohr) occupying 0.473241 of unit cell:	Completed after 18 iterations at t[s]:   2046.89
	Linear fluid (dielectric constant: 78.4, screening length: 8.12261 Bohr) occupying 0.473187 of unit cell:	Completed after 17 iterations at t[s]:   2055.69
	FillingsUpdate:  mu: -0.200422103  nElectrons: 266.000000  magneticMoment: [ Abs: 0.00001  Tot: -0.00001 ]
	SubspaceRotationAdjust: set factor to 0.0761
ElecMinimize: Iter:   3  F: -1445.071062561999952  |grad|_K:  3.936e-06  alpha:  4.491e-01  linmin: -5.901e-05  t[s]:   2065.06
	Linear fluid (dielectric constant: 78.4, screening length: 8.12261 Bohr) occupying 0.473036 of unit cell:	Completed after 13 iterations at t[s]:   2074.71
	Linear fluid (dielectric constant: 78.4, screening length: 8.12261 Bohr) occupying 0.473025 of unit cell:	Completed after 8 iterations at t[s]:   2082.56
	FillingsUpdate:  mu: -0.200738767  nElectrons: 266.000000  magneticMoment: [ Abs: 0.00001  Tot: -0.00001 ]
	SubspaceRotationAdjust: set factor to 0.086
ElecMinimize: Iter:   4  F: -1445.071864168553248  |grad|_K:  2.682e-06  alpha:  4.847e-01  linmin: -6.085e-07  t[s]:   2091.96
	Linear fluid (dielectric constant: 78.4, screening length: 8.12261 Bohr) occupying 0.472887 of unit cell:	Completed after 13 iterations at t[s]:   2101.64
	Linear fluid (dielectric constant: 78.4, screening length: 8.12261 Bohr) occupying 0.472859 of unit cell:	Completed after 9 iterations at t[s]:   2109.58
	FillingsUpdate:  mu: -0.201553084  nElectrons: 266.000000  magneticMoment: [ Abs: 0.00001  Tot: -0.00001 ]
	SubspaceRotationAdjust: set factor to 0.107
ElecMinimize: Iter:   5  F: -1445.072310860167590  |grad|_K:  2.320e-06  alpha:  5.821e-01  linmin:  1.309e-05  t[s]:   2118.93
	Linear fluid (dielectric constant: 78.4, screening length: 8.12261 Bohr) occupying 0.472761 of unit cell:	Completed after 8 iterations at t[s]:   2128.16
	Linear fluid (dielectric constant: 78.4, screening length: 8.12261 Bohr) occupying 0.472747 of unit cell:	Completed after 4 iterations at t[s]:   2135.61
	FillingsUpdate:  mu: -0.201636542  nElectrons: 266.000000  magneticMoment: [ Abs: 0.00001  Tot: -0.00000 ]
	SubspaceRotationAdjust: set factor to 0.133
ElecMinimize: Iter:   6  F: -1445.072690707337642  |grad|_K:  2.108e-06  alpha:  6.617e-01  linmin:  1.339e-05  t[s]:   2145.04
	Linear fluid (dielectric constant: 78.4, screening length: 8.12261 Bohr) occupying 0.472769 of unit cell:	Completed after 15 iterations at t[s]:   2154.98
	Linear fluid (dielectric constant: 78.4, screening length: 8.12261 Bohr) occupying 0.472773 of unit cell:	Completed after 10 iterations at t[s]:   2163.00
	FillingsUpdate:  mu: -0.200474266  nElectrons: 266.000000  magneticMoment: [ Abs: 0.00001  Tot: -0.00000 ]
	SubspaceRotationAdjust: set factor to 0.146
ElecMinimize: Iter:   7  F: -1445.073072069928685  |grad|_K:  2.414e-06  alpha:  8.054e-01  linmin:  2.662e-05  t[s]:   2172.38
	Linear fluid (dielectric constant: 78.4, screening length: 8.12261 Bohr) occupying 0.472838 of unit cell:	Completed after 19 iterations at t[s]:   2182.57
	Linear fluid (dielectric constant: 78.4, screening length: 8.12261 Bohr) occupying 0.472812 of unit cell:	Completed after 17 iterations at t[s]:   2191.29
	FillingsUpdate:  mu: -0.201241803  nElectrons: 266.000000  magneticMoment: [ Abs: 0.00000  Tot: -0.00000 ]
	SubspaceRotationAdjust: set factor to 0.128
ElecMinimize: Iter:   8  F: -1445.073338925232747  |grad|_K:  2.286e-06  alpha:  4.294e-01  linmin: -1.103e-05  t[s]:   2200.70
	Linear fluid (dielectric constant: 78.4, screening length: 8.12261 Bohr) occupying 0.472966 of unit cell:	Completed after 16 iterations at t[s]:   2210.62
	Linear fluid (dielectric constant: 78.4, screening length: 8.12261 Bohr) occupying 0.472971 of unit cell:	Completed after 6 iterations at t[s]:   2218.34
	FillingsUpdate:  mu: -0.201404352  nElectrons: 266.000000  magneticMoment: [ Abs: 0.00000  Tot: -0.00000 ]
	SubspaceRotationAdjust: set factor to 0.107
ElecMinimize: Iter:   9  F: -1445.073585999276929  |grad|_K:  1.806e-06  alpha:  4.427e-01  linmin:  1.807e-05  t[s]:   2227.72
	Linear fluid (dielectric constant: 78.4, screening length: 8.12261 Bohr) occupying 0.473040 of unit cell:	Completed after 14 iterations at t[s]:   2237.56
	Linear fluid (dielectric constant: 78.4, screening length: 8.12261 Bohr) occupying 0.473047 of unit cell:	Completed after 8 iterations at t[s]:   2245.34
	FillingsUpdate:  mu: -0.200605974  nElectrons: 266.000000  magneticMoment: [ Abs: 0.00000  Tot: -0.00000 ]
	SubspaceRotationAdjust: set factor to 0.108
ElecMinimize: Iter:  10  F: -1445.073757175202218  |grad|_K:  1.281e-06  alpha:  4.935e-01  linmin:  3.219e-05  t[s]:   2254.76
	Linear fluid (dielectric constant: 78.4, screening length: 8.12261 Bohr) occupying 0.473073 of unit cell:	Completed after 11 iterations at t[s]:   2264.23
	Linear fluid (dielectric constant: 78.4, screening length: 8.12261 Bohr) occupying 0.473075 of unit cell:	Completed after 2 iterations at t[s]:   2271.49
	FillingsUpdate:  mu: -0.201052328  nElectrons: 266.000000  magneticMoment: [ Abs: 0.00000  Tot: -0.00000 ]
	SubspaceRotationAdjust: set factor to 0.118
ElecMinimize: Iter:  11  F: -1445.073851390468917  |grad|_K:  9.515e-07  alpha:  5.400e-01  linmin:  9.287e-06  t[s]:   2280.87
	Linear fluid (dielectric constant: 78.4, screening length: 8.12261 Bohr) occupying 0.473068 of unit cell:	Completed after 9 iterations at t[s]:   2290.16
	Linear fluid (dielectric constant: 78.4, screening length: 8.12261 Bohr) occupying 0.473069 of unit cell:	Completed after 6 iterations at t[s]:   2297.77
	FillingsUpdate:  mu: -0.201091866  nElectrons: 266.000000  magneticMoment: [ Abs: 0.00000  Tot: -0.00000 ]
	SubspaceRotationAdjust: set factor to 0.124
ElecMinimize: Iter:  12  F: -1445.073897580233051  |grad|_K:  7.018e-07  alpha:  4.786e-01  linmin:  2.281e-06  t[s]:   2307.18
	Linear fluid (dielectric constant: 78.4, screening length: 8.12261 Bohr) occupying 0.473028 of unit cell:	Completed after 10 iterations at t[s]:   2316.51
	Linear fluid (dielectric constant: 78.4, screening length: 8.12261 Bohr) occupying 0.473032 of unit cell:	Completed after 6 iterations at t[s]:   2324.23
	FillingsUpdate:  mu: -0.200899874  nElectrons: 266.000000  magneticMoment: [ Abs: 0.00000  Tot: -0.00000 ]
	SubspaceRotationAdjust: set factor to 0.117
ElecMinimize: Iter:  13  F: -1445.073920806718888  |grad|_K:  5.374e-07  alpha:  4.420e-01  linmin:  6.795e-06  t[s]:   2333.65
	Linear fluid (dielectric constant: 78.4, screening length: 8.12261 Bohr) occupying 0.473008 of unit cell:	Completed after 11 iterations at t[s]:   2343.14
	Linear fluid (dielectric constant: 78.4, screening length: 8.12261 Bohr) occupying 0.473010 of unit cell:	Completed after 3 iterations at t[s]:   2350.47
	FillingsUpdate:  mu: -0.200883394  nElectrons: 266.000000  magneticMoment: [ Abs: 0.00000  Tot: -0.00000 ]
	SubspaceRotationAdjust: set factor to 0.108
ElecMinimize: Iter:  14  F: -1445.073933309175800  |grad|_K:  3.883e-07  alpha:  4.059e-01  linmin:  3.163e-05  t[s]:   2359.88
	Linear fluid (dielectric constant: 78.4, screening length: 8.12261 Bohr) occupying 0.472986 of unit cell:	Completed after 9 iterations at t[s]:   2369.15
	Linear fluid (dielectric constant: 78.4, screening length: 8.12261 Bohr) occupying 0.472983 of unit cell:	Completed after 2 iterations at t[s]:   2376.40
	FillingsUpdate:  mu: -0.200960157  nElectrons: 266.000000  magneticMoment: [ Abs: 0.00000  Tot: -0.00000 ]
	SubspaceRotationAdjust: set factor to 0.116
ElecMinimize: Iter:  15  F: -1445.073940634733844  |grad|_K:  2.798e-07  alpha:  4.555e-01  linmin: -1.684e-04  t[s]:   2385.80
	Linear fluid (dielectric constant: 78.4, screening length: 8.12261 Bohr) occupying 0.472968 of unit cell:	Completed after 4 iterations at t[s]:   2394.58
	Linear fluid (dielectric constant: 78.4, screening length: 8.12261 Bohr) occupying 0.472968 of unit cell:	Completed after 0 iterations at t[s]:   2401.57
	FillingsUpdate:  mu: -0.200907139  nElectrons: 266.000000  magneticMoment: [ Abs: 0.00000  Tot: -0.00000 ]
	SubspaceRotationAdjust: set factor to 0.141
ElecMinimize: Iter:  16  F: -1445.073944526685864  |grad|_K:  2.173e-07  alpha:  4.641e-01  linmin: -5.263e-05  t[s]:   2410.99
	Linear fluid (dielectric constant: 78.4, screening length: 8.12261 Bohr) occupying 0.472957 of unit cell:	Completed after 6 iterations at t[s]:   2419.98
	Linear fluid (dielectric constant: 78.4, screening length: 8.12261 Bohr) occupying 0.472956 of unit cell:	Completed after 1 iterations at t[s]:   2427.18
	FillingsUpdate:  mu: -0.200883321  nElectrons: 266.000000  magneticMoment: [ Abs: 0.00000  Tot: -0.00000 ]
	SubspaceRotationAdjust: set factor to 0.169
ElecMinimize: Iter:  17  F: -1445.073947165584059  |grad|_K:  1.746e-07  alpha:  5.228e-01  linmin: -1.496e-04  t[s]:   2436.56
	Linear fluid (dielectric constant: 78.4, screening length: 8.12261 Bohr) occupying 0.472945 of unit cell:	Completed after 8 iterations at t[s]:   2445.72
	Linear fluid (dielectric constant: 78.4, screening length: 8.12261 Bohr) occupying 0.472946 of unit cell:	Completed after 2 iterations at t[s]:   2453.89
	FillingsUpdate:  mu: -0.200952792  nElectrons: 266.000000  magneticMoment: [ Abs: 0.00000  Tot: -0.00000 ]
	SubspaceRotationAdjust: set factor to 0.168
ElecMinimize: Iter:  18  F: -1445.073948776601810  |grad|_K:  1.851e-07  alpha:  4.925e-01  linmin:  1.165e-04  t[s]:   2463.28
	Linear fluid (dielectric constant: 78.4, screening length: 8.12261 Bohr) occupying 0.472942 of unit cell:	Completed after 8 iterations at t[s]:   2472.49
	Linear fluid (dielectric constant: 78.4, screening length: 8.12261 Bohr) occupying 0.472943 of unit cell:	Completed after 6 iterations at t[s]:   2480.12
	FillingsUpdate:  mu: -0.200947791  nElectrons: 266.000000  magneticMoment: [ Abs: 0.00000  Tot: -0.00000 ]
	SubspaceRotationAdjust: set factor to 0.149
ElecMinimize: Iter:  19  F: -1445.073949942209765  |grad|_K:  1.503e-07  alpha:  3.215e-01  linmin:  9.594e-06  t[s]:   2489.54
	Linear fluid (dielectric constant: 78.4, screening length: 8.12261 Bohr) occupying 0.472940 of unit cell:	Completed after 6 iterations at t[s]:   2498.55
	Linear fluid (dielectric constant: 78.4, screening length: 8.12261 Bohr) occupying 0.472939 of unit cell:	Completed after 2 iterations at t[s]:   2505.83
	FillingsUpdate:  mu: -0.200905016  nElectrons: 266.000000  magneticMoment: [ Abs: 0.00000  Tot: -0.00000 ]
	SubspaceRotationAdjust: set factor to 0.167
ElecMinimize: Iter:  20  F: -1445.073951071190550  |grad|_K:  1.221e-07  alpha:  4.660e-01  linmin: -1.483e-04  t[s]:   2515.20
	Linear fluid (dielectric constant: 78.4, screening length: 8.12261 Bohr) occupying 0.472939 of unit cell:	Completed after 2 iterations at t[s]:   2523.82
	Linear fluid (dielectric constant: 78.4, screening length: 8.12261 Bohr) occupying 0.472939 of unit cell:	Completed after 2 iterations at t[s]:   2531.06
	FillingsUpdate:  mu: -0.200973534  nElectrons: 266.000000  magneticMoment: [ Abs: 0.00000  Tot: -0.00000 ]
	SubspaceRotationAdjust: set factor to 0.197
ElecMinimize: Iter:  21  F: -1445.073951993030050  |grad|_K:  1.027e-07  alpha:  5.709e-01  linmin: -3.234e-06  t[s]:   2540.48
	Linear fluid (dielectric constant: 78.4, screening length: 8.12261 Bohr) occupying 0.472943 of unit cell:	Completed after 5 iterations at t[s]:   2549.41
	Linear fluid (dielectric constant: 78.4, screening length: 8.12261 Bohr) occupying 0.472942 of unit cell:	Completed after 1 iterations at t[s]:   2556.62
	FillingsUpdate:  mu: -0.200960907  nElectrons: 266.000000  magneticMoment: [ Abs: 0.00000  Tot: -0.00000 ]
	SubspaceRotationAdjust: set factor to 0.202
ElecMinimize: Iter:  22  F: -1445.073952585088364  |grad|_K:  1.008e-07  alpha:  5.265e-01  linmin:  2.750e-05  t[s]:   2565.98
	Linear fluid (dielectric constant: 78.4, screening length: 8.12261 Bohr) occupying 0.472944 of unit cell:	Completed after 9 iterations at t[s]:   2575.24
	Linear fluid (dielectric constant: 78.4, screening length: 8.12261 Bohr) occupying 0.472943 of unit cell:	Completed after 6 iterations at t[s]:   2582.94
	FillingsUpdate:  mu: -0.200972657  nElectrons: 266.000000  magneticMoment: [ Abs: 0.00000  Tot: -0.00000 ]
	SubspaceRotationAdjust: set factor to 0.152
ElecMinimize: Iter:  23  F: -1445.073952862750275  |grad|_K:  8.829e-08  alpha:  2.576e-01  linmin:  3.234e-05  t[s]:   2592.36
	Linear fluid (dielectric constant: 78.4, screening length: 8.12261 Bohr) occupying 0.472947 of unit cell:	Completed after 6 iterations at t[s]:   2601.34
	Linear fluid (dielectric constant: 78.4, screening length: 8.12261 Bohr) occupying 0.472948 of unit cell:	Completed after 2 iterations at t[s]:   2608.66
	FillingsUpdate:  mu: -0.200989048  nElectrons: 266.000000  magneticMoment: [ Abs: 0.00000  Tot: -0.00000 ]
	SubspaceRotationAdjust: set factor to 0.148
ElecMinimize: Iter:  24  F: -1445.073953130812470  |grad|_K:  5.568e-08  alpha:  3.216e-01  linmin: -2.393e-04  t[s]:   2618.08
	Linear fluid (dielectric constant: 78.4, screening length: 8.12261 Bohr) occupying 0.472950 of unit cell:	Completed after 2 iterations at t[s]:   2626.71
	Linear fluid (dielectric constant: 78.4, screening length: 8.12261 Bohr) occupying 0.472951 of unit cell:	Completed after 0 iterations at t[s]:   2633.69
	FillingsUpdate:  mu: -0.200979197  nElectrons: 266.000000  magneticMoment: [ Abs: 0.00000  Tot: -0.00000 ]
	SubspaceRotationAdjust: set factor to 0.168
ElecMinimize: Iter:  25  F: -1445.073953290477675  |grad|_K:  4.247e-08  alpha:  4.681e-01  linmin: -2.871e-04  t[s]:   2643.09
	Linear fluid (dielectric constant: 78.4, screening length: 8.12261 Bohr) occupying 0.472952 of unit cell:	Completed after 3 iterations at t[s]:   2651.80
	Linear fluid (dielectric constant: 78.4, screening length: 8.12261 Bohr) occupying 0.472952 of unit cell:	Completed after 0 iterations at t[s]:   2658.81
	FillingsUpdate:  mu: -0.200966109  nElectrons: 266.000000  magneticMoment: [ Abs: 0.00000  Tot: -0.00000 ]
	SubspaceRotationAdjust: set factor to 0.156
ElecMinimize: Iter:  26  F: -1445.073953374571602  |grad|_K:  3.520e-08  alpha:  4.261e-01  linmin:  6.402e-04  t[s]:   2668.19
	Linear fluid (dielectric constant: 78.4, screening length: 8.12261 Bohr) occupying 0.472954 of unit cell:	Completed after 2 iterations at t[s]:   2676.79
	Linear fluid (dielectric constant: 78.4, screening length: 8.12261 Bohr) occupying 0.472954 of unit cell:	Completed after 1 iterations at t[s]:   2683.98
	FillingsUpdate:  mu: -0.200974221  nElectrons: 266.000000  magneticMoment: [ Abs: 0.00000  Tot: -0.00000 ]
	SubspaceRotationAdjust: set factor to 0.14
ElecMinimize: Iter:  27  F: -1445.073953415916094  |grad|_K:  2.705e-08  alpha:  3.315e-01  linmin: -1.825e-04  t[s]:   2693.38
ElecMinimize: Converged (|Delta F|<1.000000e-07 for 2 iters).
Setting wave functions to eigenvectors of Hamiltonian
Converging empty states (this may take a while): |deigs|: 2.999e-06

Computing DFT-D3 correction:
# coordination-number Pt 9.615 9.628 9.628 10.448 7.671 7.671 7.712 7.712 6.438 6.438 6.438 6.438 9.606 9.606 9.606 9.606
# coordination-number C 5.815
# coordination-number O 2.056
# diagonal-C6 Pt 336.87 336.87 336.87 336.87 336.87 336.87 336.87 336.87 336.87 336.87 336.87 336.87 336.87 336.87 336.87 336.87
# diagonal-C6 C 18.21
# diagonal-C6 O 10.40
EvdW_6 =   -0.120016
EvdW_8 =   -0.208558

# Ionic positions in cartesian coordinates:
ion Pt  10.463971000000001  10.463988444444444  38.836613999999997 0
ion Pt  10.463971000000001   5.231992444444445  38.836613999999997 0
ion Pt   5.231975000000000  10.463988444444444  38.836613999999997 0
ion Pt   5.231975000000000   5.231992444444445  38.836613999999997 0
ion Pt   2.615977000000000   2.615994444444445  42.501416999999996 0
ion Pt   2.615977000000000   7.847990444444444  42.501416999999996 0
ion Pt   7.847973000000000   2.615994444444445  42.501416999999996 0
ion Pt   7.847973000000000   7.847990444444444  42.501416999999996 0
ion Pt   0.000021000000000  -0.000003555555555  31.488006000000002 0
ion Pt   0.000021000000000   5.231992444444446  31.488006000000002 0
ion Pt   5.232006000000000  -0.000003555555555  31.488006000000002 0
ion Pt   5.232006000000000   5.231992444444446  31.488006000000002 0
ion Pt   2.616019000000001   2.615994444444445  35.157116000000002 0
ion Pt   2.616019000000001   7.847990444444446  35.157116000000002 0
ion Pt   7.848015000000000   2.615994444444445  35.157116000000002 0
ion Pt   7.848015000000000   7.847990444444446  35.157116000000002 0
ion C   5.231975000000000   5.231992444444445  43.121468217770179 1  Linear 0 0 1
ion O   5.292070000000001   5.231992444444445   1.033626000000000 1  Linear 0 0 1

# Forces in Cartesian coordinates:
force Pt  -0.000545618124048   0.000000000000000  -0.000136067918322 0
force Pt   0.000081428070674   0.000000000000000  -0.017615425276394 0
force Pt  -0.000031031615077   0.000000000000000  -0.017619906156033 0
force Pt  -0.000026651808872   0.000000000000000  -0.044000320369333 0
force Pt  -0.040549264079377  -0.040096321707523  -0.006135240949279 0
force Pt  -0.040549264079377   0.040096321707523  -0.006135240949279 0
force Pt   0.041566925944950  -0.042039265464133  -0.006690049916632 0
force Pt   0.041566925944950   0.042039265464133  -0.006690049916632 0
force Pt  -0.000138299239310   0.000000000000000  -0.000258614021207 0
force Pt   0.000003025331340   0.000000000000000   0.001710958886703 0
force Pt   0.000103425044556   0.000000000000000   0.001711724845936 0
force Pt   0.000032305906489   0.000000000000000  -0.001560909657346 0
force Pt   0.000303188269506   0.000320684344733  -0.001798954570678 0
force Pt   0.000303188269506  -0.000320684344733  -0.001798954570678 0
force Pt  -0.000425202221553   0.000412341782661  -0.002066829622805 0
force Pt  -0.000425202221553  -0.000412341782661  -0.002066829622805 0
force C  -0.003119484085952   0.000000000000000   0.001336414347766 1  Linear 0 0 1
force O   0.001843742155948   0.000000000000000   0.109774565085125 1  Linear 0 0 1

# Energy components:
   A_diel =       -0.0054307769250367
   Eewald =     5387.6703158933014493
       EH =     6699.6402653200730128
     Eloc =   -13788.4551995586443809
      Enl =      -13.8102907282661960
     EvdW =       -0.3285733283236602
      Exc =     -460.7811175421999224
 Exc_core =      262.3608553139370088
       KE =      468.6379131377750014
-------------------------------------
     Etot =    -1445.0712622692738023
       TS =        0.0026911466423380
-------------------------------------
        F =    -1445.0739534159160939


Dumping 'jdft.fillings' ... done
Dumping 'jdft.wfns' ... done
Dumping 'jdft.fluidState' ... done
Dumping 'jdft.ionpos' ... done
Dumping 'jdft.lattice' ... done
Dumping 'jdft.eigenvals' ... done
Dumping 'jdft.eigStats' ... 
	eMin: -2.153610 at state 16 ( [ +0.000000 +0.000000 +0.000000 ] spin -1 )
	HOMO: -0.201287 at state 5 ( [ +0.166667 +0.166667 +0.000000 ] spin 1 )
	mu  : -0.200974
	LUMO: -0.200433 at state 19 ( [ +0.000000 +0.500000 +0.000000 ] spin -1 )
	eMax: +0.091152 at state 15 ( [ +0.500000 +0.500000 +0.000000 ] spin 1 )
	HOMO-LUMO gap: +0.000854
	Optical gap  : +0.001080 at state 3 ( [ +0.000000 +0.500000 +0.000000 ] spin 1 )
Dumping 'jdft.Ecomponents' ... done
IonicMinimize: Iter:   1  F: -1445.073953415916094  |grad|_K:  7.763e-02  alpha:  3.821e-01  linmin: -5.759e-01  t[s]:   2754.27

#--- Lowdin population analysis ---
# oxidation-state Pt -0.039 -0.008 -0.008 -0.003 +0.017 +0.017 +0.019 +0.019 +0.031 +0.031 +0.031 +0.028 -0.002 -0.002 -0.002 -0.002
# magnetic-moments Pt -0.000 -0.000 -0.000 -0.000 -0.000 -0.000 -0.000 -0.000 -0.000 -0.000 -0.000 -0.000 -0.000 -0.000 -0.000 -0.000
# oxidation-state C +0.291
# magnetic-moments C +0.000
# oxidation-state O -0.152
# magnetic-moments O +0.000


Computing DFT-D3 correction:
# coordination-number Pt 9.615 9.628 9.628 10.444 7.645 7.645 7.682 7.682 6.438 6.438 6.438 6.438 9.606 9.606 9.606 9.606
# coordination-number C 5.811
# coordination-number O 1.942
# diagonal-C6 Pt 336.87 336.87 336.87 336.87 336.87 336.87 336.87 336.87 336.87 336.87 336.87 336.87 336.87 336.87 336.87 336.87
# diagonal-C6 C 18.21
# diagonal-C6 O 10.43
EvdW_6 =   -0.119974
EvdW_8 =   -0.208543

-------- Electronic minimization -----------
	Linear fluid (dielectric constant: 78.4, screening length: 8.12261 Bohr) occupying 0.472795 of unit cell:	Completed after 21 iterations at t[s]:   2765.00
	FillingsUpdate:  mu: -0.184103773  nElectrons: 266.000000  magneticMoment: [ Abs: 0.00000  Tot: -0.00000 ]
ElecMinimize: Iter:   0  F: -1445.031968315171071  |grad|_K:  3.313e-05  alpha:  1.000e+00
	Linear fluid (dielectric constant: 78.4, screening length: 8.12261 Bohr) occupying 0.472705 of unit cell:	Completed after 22 iterations at t[s]:   2786.31
	Linear fluid (dielectric constant: 78.4, screening length: 8.12261 Bohr) occupying 0.472618 of unit cell:	Completed after 21 iterations at t[s]:   2795.34
	FillingsUpdate:  mu: -0.197208916  nElectrons: 266.000000  magneticMoment: [ Abs: 0.00000  Tot: -0.00000 ]
	SubspaceRotationAdjust: set factor to 0.116
ElecMinimize: Iter:   1  F: -1445.074769294729094  |grad|_K:  1.194e-05  alpha:  3.688e-01  linmin:  2.192e-03  t[s]:   2804.75
	Linear fluid (dielectric constant: 78.4, screening length: 8.12261 Bohr) occupying 0.472647 of unit cell:	Completed after 20 iterations at t[s]:   2815.06
	Linear fluid (dielectric constant: 78.4, screening length: 8.12261 Bohr) occupying 0.472560 of unit cell:	Completed after 18 iterations at t[s]:   2823.87
	FillingsUpdate:  mu: -0.198379446  nElectrons: 266.000000  magneticMoment: [ Abs: 0.00000  Tot: -0.00000 ]
	SubspaceRotationAdjust: set factor to 0.0687
ElecMinimize: Iter:   2  F: -1445.078136206881936  |grad|_K:  5.826e-06  alpha:  2.224e-01  linmin: -7.989e-05  t[s]:   2833.22
	Linear fluid (dielectric constant: 78.4, screening length: 8.12261 Bohr) occupying 0.472489 of unit cell:	Completed after 18 iterations at t[s]:   2843.34
	Linear fluid (dielectric constant: 78.4, screening length: 8.12261 Bohr) occupying 0.472444 of unit cell:	Completed after 17 iterations at t[s]:   2852.03
	FillingsUpdate:  mu: -0.200871084  nElectrons: 266.000000  magneticMoment: [ Abs: 0.00000  Tot: -0.00000 ]
	SubspaceRotationAdjust: set factor to 0.0698
ElecMinimize: Iter:   3  F: -1445.079449156098235  |grad|_K:  3.340e-06  alpha:  3.624e-01  linmin:  3.748e-05  t[s]:   2861.44
	Linear fluid (dielectric constant: 78.4, screening length: 8.12261 Bohr) occupying 0.472351 of unit cell:	Completed after 16 iterations at t[s]:   2871.33
[...]
	Linear fluid (dielectric constant: 78.4, screening length: 8.12261 Bohr) occupying 0.454308 of unit cell:	Completed after 6 iterations at t[s]:  14665.03
	FillingsUpdate:  mu: -0.207465208  nElectrons: 266.000000  magneticMoment: [ Abs: 0.00000  Tot: -0.00000 ]
	SubspaceRotationAdjust: set factor to 0.109
ElecMinimize: Iter:   3  F: -1445.170736077948959  |grad|_K:  2.827e-07  alpha:  4.642e-01  linmin:  1.120e-05  t[s]:  14674.42
	Linear fluid (dielectric constant: 78.4, screening length: 8.12261 Bohr) occupying 0.454322 of unit cell:	Completed after 9 iterations at t[s]:  14683.72
	Linear fluid (dielectric constant: 78.4, screening length: 8.12261 Bohr) occupying 0.454323 of unit cell:	Completed after 2 iterations at t[s]:  14690.97
	FillingsUpdate:  mu: -0.207502498  nElectrons: 266.000000  magneticMoment: [ Abs: 0.00000  Tot: -0.00000 ]
	SubspaceRotationAdjust: set factor to 0.116
ElecMinimize: Iter:   4  F: -1445.170740338040105  |grad|_K:  2.322e-07  alpha:  4.999e-01  linmin: -4.325e-05  t[s]:  14700.42
	Linear fluid (dielectric constant: 78.4, screening length: 8.12261 Bohr) occupying 0.454323 of unit cell:	Completed after 3 iterations at t[s]:  14709.17
	Linear fluid (dielectric constant: 78.4, screening length: 8.12261 Bohr) occupying 0.454322 of unit cell:	Completed after 3 iterations at t[s]:  14716.54
	FillingsUpdate:  mu: -0.207501019  nElectrons: 266.000000  magneticMoment: [ Abs: 0.00000  Tot: -0.00000 ]
	SubspaceRotationAdjust: set factor to 0.133
ElecMinimize: Iter:   5  F: -1445.170745424290999  |grad|_K:  2.256e-07  alpha:  8.827e-01  linmin: -2.168e-06  t[s]:  14725.91
	Linear fluid (dielectric constant: 78.4, screening length: 8.12261 Bohr) occupying 0.454316 of unit cell:	Completed after 10 iterations at t[s]:  14735.28
	Linear fluid (dielectric constant: 78.4, screening length: 8.12261 Bohr) occupying 0.454318 of unit cell:	Completed after 6 iterations at t[s]:  14742.90
	FillingsUpdate:  mu: -0.207650447  nElectrons: 266.000000  magneticMoment: [ Abs: 0.00000  Tot: -0.00000 ]
	SubspaceRotationAdjust: set factor to 0.136
ElecMinimize: Iter:   6  F: -1445.170748430052754  |grad|_K:  1.834e-07  alpha:  5.539e-01  linmin: -1.133e-06  t[s]:  14752.30
	Linear fluid (dielectric constant: 78.4, screening length: 8.12261 Bohr) occupying 0.454328 of unit cell:	Completed after 9 iterations at t[s]:  14761.57
	Linear fluid (dielectric constant: 78.4, screening length: 8.12261 Bohr) occupying 0.454325 of unit cell:	Completed after 7 iterations at t[s]:  14769.32
	FillingsUpdate:  mu: -0.207535910  nElectrons: 266.000000  magneticMoment: [ Abs: 0.00000  Tot: -0.00000 ]
	SubspaceRotationAdjust: set factor to 0.107
ElecMinimize: Iter:   7  F: -1445.170749811138194  |grad|_K:  1.598e-07  alpha:  3.855e-01  linmin: -8.691e-06  t[s]:  14778.68
	Linear fluid (dielectric constant: 78.4, screening length: 8.12261 Bohr) occupying 0.454321 of unit cell:	Completed after 8 iterations at t[s]:  14787.95
	Linear fluid (dielectric constant: 78.4, screening length: 8.12261 Bohr) occupying 0.454322 of unit cell:	Completed after 2 iterations at t[s]:  14795.15
	FillingsUpdate:  mu: -0.207496690  nElectrons: 266.000000  magneticMoment: [ Abs: 0.00000  Tot: -0.00000 ]
	SubspaceRotationAdjust: set factor to 0.0885
ElecMinimize: Iter:   8  F: -1445.170750759247539  |grad|_K:  9.870e-08  alpha:  3.481e-01  linmin:  7.310e-05  t[s]:  14804.51
	Linear fluid (dielectric constant: 78.4, screening length: 8.12261 Bohr) occupying 0.454324 of unit cell:	Completed after 2 iterations at t[s]:  14813.12
	Linear fluid (dielectric constant: 78.4, screening length: 8.12261 Bohr) occupying 0.454326 of unit cell:	Completed after 2 iterations at t[s]:  14820.42
	FillingsUpdate:  mu: -0.207532636  nElectrons: 266.000000  magneticMoment: [ Abs: 0.00000  Tot: -0.00000 ]
	SubspaceRotationAdjust: set factor to 0.103
ElecMinimize: Iter:   9  F: -1445.170751310295827  |grad|_K:  6.292e-08  alpha:  5.322e-01  linmin:  2.455e-05  t[s]:  14829.72
	Linear fluid (dielectric constant: 78.4, screening length: 8.12261 Bohr) occupying 0.454331 of unit cell:	Completed after 6 iterations at t[s]:  14838.72
	Linear fluid (dielectric constant: 78.4, screening length: 8.12261 Bohr) occupying 0.454330 of unit cell:	Completed after 1 iterations at t[s]:  14846.01
	FillingsUpdate:  mu: -0.207479173  nElectrons: 266.000000  magneticMoment: [ Abs: 0.00000  Tot: -0.00000 ]
	SubspaceRotationAdjust: set factor to 0.0985
ElecMinimize: Iter:  10  F: -1445.170751497706078  |grad|_K:  4.667e-08  alpha:  4.450e-01  linmin:  1.700e-04  t[s]:  14855.26
	Linear fluid (dielectric constant: 78.4, screening length: 8.12261 Bohr) occupying 0.454331 of unit cell:	Completed after 6 iterations at t[s]:  14864.25
	Linear fluid (dielectric constant: 78.4, screening length: 8.12261 Bohr) occupying 0.454331 of unit cell:	Completed after 0 iterations at t[s]:  14871.21
	FillingsUpdate:  mu: -0.207482017  nElectrons: 266.000000  magneticMoment: [ Abs: 0.00000  Tot: -0.00000 ]
	SubspaceRotationAdjust: set factor to 0.0792
ElecMinimize: Iter:  11  F: -1445.170751589911106  |grad|_K:  3.565e-08  alpha:  3.978e-01  linmin:  1.198e-03  t[s]:  14880.54
	Linear fluid (dielectric constant: 78.4, screening length: 8.12261 Bohr) occupying 0.454333 of unit cell:	Completed after 3 iterations at t[s]:  14889.23
	Linear fluid (dielectric constant: 78.4, screening length: 8.12261 Bohr) occupying 0.454333 of unit cell:	Completed after 0 iterations at t[s]:  14896.16
	FillingsUpdate:  mu: -0.207475701  nElectrons: 266.000000  magneticMoment: [ Abs: 0.00000  Tot: -0.00000 ]
	SubspaceRotationAdjust: set factor to 0.0792
ElecMinimize: Iter:  12  F: -1445.170751639393075  |grad|_K:  2.244e-08  alpha:  3.790e-01  linmin: -1.442e-03  t[s]:  14905.52
ElecMinimize: Converged (|Delta F|<1.000000e-07 for 2 iters).
Setting wave functions to eigenvectors of Hamiltonian
Converging empty states (this may take a while): |deigs|: 2.474e-08

Computing DFT-D3 correction:
# coordination-number Pt 9.613 9.615 9.615 9.656 7.296 7.296 7.298 7.298 6.437 6.437 6.437 6.437 9.605 9.605 9.605 9.605
# coordination-number C 4.376
# coordination-number O 1.094
# diagonal-C6 Pt 336.87 336.87 336.87 336.87 336.87 336.87 336.87 336.87 336.87 336.87 336.87 336.87 336.87 336.87 336.87 336.87
# diagonal-C6 C 18.21
# diagonal-C6 O 12.73
EvdW_6 =   -0.118760
EvdW_8 =   -0.207801

# Ionic positions in cartesian coordinates:
ion Pt  10.463971000000001  10.463988444444444  38.836613999999997 0
ion Pt  10.463971000000001   5.231992444444445  38.836613999999997 0
ion Pt   5.231975000000000  10.463988444444444  38.836613999999997 0
ion Pt   5.231975000000000   5.231992444444445  38.836613999999997 0
ion Pt   2.615977000000000   2.615994444444445  42.501416999999996 0
ion Pt   2.615977000000000   7.847990444444444  42.501416999999996 0
ion Pt   7.847973000000000   2.615994444444445  42.501416999999996 0
ion Pt   7.847973000000000   7.847990444444444  42.501416999999996 0
ion Pt   0.000021000000000  -0.000003555555555  31.488006000000002 0
ion Pt   0.000021000000000   5.231992444444446  31.488006000000002 0
ion Pt   5.232006000000000  -0.000003555555555  31.488006000000002 0
ion Pt   5.232006000000000   5.231992444444446  31.488006000000002 0
ion Pt   2.616019000000001   2.615994444444445  35.157116000000002 0
ion Pt   2.616019000000001   7.847990444444446  35.157116000000002 0
ion Pt   7.848015000000000   2.615994444444445  35.157116000000002 0
ion Pt   7.848015000000000   7.847990444444446  35.157116000000002 0
ion C   5.231975000000000   5.231992444444445  44.672824571681680 1  Linear 0 0 1
ion O   5.292070000000001   5.231992444444445   2.548194876788780 1  Linear 0 0 1

# Forces in Cartesian coordinates:
force Pt   0.000197395805979   0.000000000000000   0.004792363695868 0
force Pt  -0.000047476660458   0.000000000000000  -0.010003420184104 0
force Pt  -0.000016765373093   0.000000000000000  -0.010009704112449 0
force Pt   0.000055817187433   0.000000000000000  -0.016424094530557 0
force Pt   0.002020811447628   0.002065255359519   0.009618323796435 0
force Pt   0.002020811447628  -0.002065255359519   0.009618323796435 0
force Pt  -0.001735814512428   0.001680250275292   0.008823512156196 0
force Pt  -0.001735814512428  -0.001680250275292   0.008823512156196 0
force Pt   0.000022243108417   0.000000000000000   0.000839387303900 0
force Pt   0.000005663714879   0.000000000000000   0.001395852544768 0
force Pt  -0.000019267753226   0.000000000000000   0.001396180661148 0
force Pt  -0.000053742776274   0.000000000000000  -0.002228662202367 0
force Pt   0.001095571285268   0.001090961367880  -0.001626999262779 0
force Pt   0.001095571285268  -0.001090961367880  -0.001626999262779 0
force Pt  -0.001104939691180   0.001109888221794  -0.001677121296661 0
force Pt  -0.001104939691180  -0.001109888221794  -0.001677121296661 0
force C   0.000772680829725   0.000000000000000   0.000769273228386 1  Linear 0 0 1
force O  -0.001475255697722   0.000000000000000  -0.000680621143696 1  Linear 0 0 1

# Energy components:
   A_diel =       -0.0064050680805037
   Eewald =     5257.3343426414530768
       EH =     6568.4117556375822460
     Eloc =   -13526.2627145138558262
      Enl =      -13.8515798961665020
     EvdW =       -0.3265614389199684
      Exc =     -460.4562519507742309
 Exc_core =      262.3608541908736811
       KE =      467.6286007781550893
-------------------------------------
     Etot =    -1445.1679596197329829
       TS =        0.0027920196600716
-------------------------------------
        F =    -1445.1707516393930746


Dumping 'jdft.fillings' ... done
Dumping 'jdft.wfns' ... done
Dumping 'jdft.fluidState' ... done
Dumping 'jdft.ionpos' ... done
Dumping 'jdft.lattice' ... done
Dumping 'jdft.eigenvals' ... done
Dumping 'jdft.eigStats' ... 
	eMin: -2.157527 at state 16 ( [ +0.000000 +0.000000 +0.000000 ] spin -1 )
	HOMO: -0.207538 at state 9 ( [ +0.333333 +0.166667 +0.000000 ] spin 1 )
	mu  : -0.207476
	LUMO: -0.207462 at state 21 ( [ +0.166667 +0.166667 +0.000000 ] spin -1 )
	eMax: +0.091061 at state 15 ( [ +0.500000 +0.500000 +0.000000 ] spin 1 )
	HOMO-LUMO gap: +0.000076
	Optical gap  : +0.000966 at state 17 ( [ +0.000000 +0.166667 +0.000000 ] spin -1 )
Dumping 'jdft.Ecomponents' ... done
IonicMinimize: Iter:  15  F: -1445.170751639393075  |grad|_K:  7.263e-04  alpha:  1.000e+00  linmin:  8.804e-04  t[s]:  14929.64

#--- Lowdin population analysis ---
# oxidation-state Pt -0.038 -0.002 -0.002 +0.012 -0.011 -0.011 -0.010 -0.010 +0.038 +0.040 +0.040 +0.035 -0.002 -0.002 -0.002 -0.002
# magnetic-moments Pt -0.000 -0.000 -0.000 -0.000 -0.000 -0.000 -0.000 -0.000 -0.000 -0.000 -0.000 -0.000 -0.000 -0.000 -0.000 -0.000
# oxidation-state C +0.349
# magnetic-moments C +0.000
# oxidation-state O -0.162
# magnetic-moments O -0.000


Computing DFT-D3 correction:
# coordination-number Pt 9.613 9.615 9.615 9.656 7.295 7.295 7.298 7.298 6.437 6.437 6.437 6.437 9.605 9.605 9.605 9.605
# coordination-number C 4.374
# coordination-number O 1.094
# diagonal-C6 Pt 336.87 336.87 336.87 336.87 336.87 336.87 336.87 336.87 336.87 336.87 336.87 336.87 336.87 336.87 336.87 336.87
# diagonal-C6 C 18.21
# diagonal-C6 O 12.73
EvdW_6 =   -0.118759
EvdW_8 =   -0.207801

-------- Electronic minimization -----------
	Linear fluid (dielectric constant: 78.4, screening length: 8.12261 Bohr) occupying 0.454306 of unit cell:	Completed after 8 iterations at t[s]:  14940.00
	FillingsUpdate:  mu: -0.207371811  nElectrons: 266.000000  magneticMoment: [ Abs: 0.00000  Tot: -0.00000 ]
ElecMinimize: Iter:   0  F: -1445.170750212049143  |grad|_K:  2.155e-07  alpha:  1.000e+00
	Linear fluid (dielectric constant: 78.4, screening length: 8.12261 Bohr) occupying 0.454343 of unit cell:	Completed after 10 iterations at t[s]:  14960.04
	Linear fluid (dielectric constant: 78.4, screening length: 8.12261 Bohr) occupying 0.454315 of unit cell:	Completed after 10 iterations at t[s]:  14968.09
	FillingsUpdate:  mu: -0.207378052  nElectrons: 266.000000  magneticMoment: [ Abs: 0.00000  Tot: -0.00000 ]
	SubspaceRotationAdjust: set factor to 0.0691
ElecMinimize: Iter:   1  F: -1445.170751398748507  |grad|_K:  6.447e-08  alpha:  2.395e-01  linmin:  3.701e-05  t[s]:  14977.47
	Linear fluid (dielectric constant: 78.4, screening length: 8.12261 Bohr) occupying 0.454316 of unit cell:	Completed after 2 iterations at t[s]:  14986.07
	Linear fluid (dielectric constant: 78.4, screening length: 8.12261 Bohr) occupying 0.454317 of unit cell:	Completed after 2 iterations at t[s]:  14993.31
	FillingsUpdate:  mu: -0.207406300  nElectrons: 266.000000  magneticMoment: [ Abs: 0.00000  Tot: -0.00000 ]
	SubspaceRotationAdjust: set factor to 0.0882
ElecMinimize: Iter:   2  F: -1445.170751594283274  |grad|_K:  3.372e-08  alpha:  4.438e-01  linmin:  1.151e-03  t[s]:  15002.65
	Linear fluid (dielectric constant: 78.4, screening length: 8.12261 Bohr) occupying 0.454317 of unit cell:	Completed after 2 iterations at t[s]:  15011.27
	Linear fluid (dielectric constant: 78.4, screening length: 8.12261 Bohr) occupying 0.454317 of unit cell:	Completed after 0 iterations at t[s]:  15018.24
	FillingsUpdate:  mu: -0.207416034  nElectrons: 266.000000  magneticMoment: [ Abs: 0.00000  Tot: -0.00000 ]
	SubspaceRotationAdjust: set factor to 0.114
ElecMinimize: Iter:   3  F: -1445.170751665870739  |grad|_K:  2.860e-08  alpha:  5.910e-01  linmin: -1.188e-03  t[s]:  15027.59
	Linear fluid (dielectric constant: 78.4, screening length: 8.12261 Bohr) occupying 0.454317 of unit cell:	Completed after 2 iterations at t[s]:  15036.23
	Linear fluid (dielectric constant: 78.4, screening length: 8.12261 Bohr) occupying 0.454317 of unit cell:	Completed after 0 iterations at t[s]:  15043.19
	FillingsUpdate:  mu: -0.207425772  nElectrons: 266.000000  magneticMoment: [ Abs: 0.00000  Tot: -0.00000 ]
	SubspaceRotationAdjust: set factor to 0.147
ElecMinimize: Iter:   4  F: -1445.170751727541983  |grad|_K:  2.831e-08  alpha:  6.825e-01  linmin: -7.322e-04  t[s]:  15052.67
ElecMinimize: Converged (|Delta F|<1.000000e-07 for 2 iters).
Setting wave functions to eigenvectors of Hamiltonian
Converging empty states (this may take a while): |deigs|: 5.314e-09

Computing DFT-D3 correction:
# coordination-number Pt 9.613 9.615 9.615 9.656 7.295 7.295 7.298 7.298 6.437 6.437 6.437 6.437 9.605 9.605 9.605 9.605
# coordination-number C 4.374
# coordination-number O 1.094
# diagonal-C6 Pt 336.87 336.87 336.87 336.87 336.87 336.87 336.87 336.87 336.87 336.87 336.87 336.87 336.87 336.87 336.87 336.87
# diagonal-C6 C 18.21
# diagonal-C6 O 12.73
EvdW_6 =   -0.118759
EvdW_8 =   -0.207801

# Ionic positions in cartesian coordinates:
ion Pt  10.463971000000001  10.463988444444444  38.836613999999997 0
ion Pt  10.463971000000001   5.231992444444445  38.836613999999997 0
ion Pt   5.231975000000000  10.463988444444444  38.836613999999997 0
ion Pt   5.231975000000000   5.231992444444445  38.836613999999997 0
ion Pt   2.615977000000000   2.615994444444445  42.501416999999996 0
ion Pt   2.615977000000000   7.847990444444444  42.501416999999996 0
ion Pt   7.847973000000000   2.615994444444445  42.501416999999996 0
ion Pt   7.847973000000000   7.847990444444444  42.501416999999996 0
ion Pt   0.000021000000000  -0.000003555555555  31.488006000000002 0
ion Pt   0.000021000000000   5.231992444444446  31.488006000000002 0
ion Pt   5.232006000000000  -0.000003555555555  31.488006000000002 0
ion Pt   5.232006000000000   5.231992444444446  31.488006000000002 0
ion Pt   2.616019000000001   2.615994444444445  35.157116000000002 0
ion Pt   2.616019000000001   7.847990444444446  35.157116000000002 0
ion Pt   7.848015000000000   2.615994444444445  35.157116000000002 0
ion Pt   7.848015000000000   7.847990444444446  35.157116000000002 0
ion C   5.231975000000000   5.231992444444445  44.674394787071122 1  Linear 0 0 1
ion O   5.292070000000001   5.231992444444445   2.549019949106898 1  Linear 0 0 1

# Forces in Cartesian coordinates:
force Pt   0.000197171330905   0.000000000000000   0.004660505243169 0
force Pt  -0.000047550867269   0.000000000000000  -0.010106438375176 0
force Pt  -0.000016523006963   0.000000000000000  -0.010112854103691 0
force Pt   0.000055772980381   0.000000000000000  -0.016514657871669 0
force Pt   0.002045933893752   0.002090534027590   0.009598210220831 0
force Pt   0.002045933893752  -0.002090534027590   0.009598210220831 0
force Pt  -0.001761479094454   0.001706631318716   0.008803053610664 0
force Pt  -0.001761479094454  -0.001706631318716   0.008803053610664 0
force Pt   0.000022257954896   0.000000000000000   0.000917621969534 0
force Pt   0.000005541408667   0.000000000000000   0.001475800235316 0
force Pt  -0.000019305357969   0.000000000000000   0.001476104950337 0
force Pt  -0.000053559098914   0.000000000000000  -0.002150638134179 0
force Pt   0.001093099368301   0.001088429330405  -0.001631275973253 0
force Pt   0.001093099368301  -0.001088429330405  -0.001631275973253 0
force Pt  -0.001102492061353   0.001107424168020  -0.001681632216915 0
force Pt  -0.001102492061353  -0.001107424168020  -0.001681632216915 0
force C   0.000752813485393   0.000000000000000  -0.000008555089680 1  Linear 0 0 1
force O  -0.001461071380198   0.000000000000000  -0.000052789885626 1  Linear 0 0 1

# Energy components:
   A_diel =       -0.0063822752832809
   Eewald =     5257.2422207953386533
       EH =     6568.3269054363308896
     Eloc =   -13526.0860230091075209
      Enl =      -13.8514868766876305
     EvdW =       -0.3265600074256325
      Exc =     -460.4562290795460058
 Exc_core =      262.3608543416178236
       KE =      467.6287412272835695
-------------------------------------
     Etot =    -1445.1679594474783244
       TS =        0.0027922800635610
-------------------------------------
        F =    -1445.1707517275419832


Dumping 'jdft.fillings' ... done
Dumping 'jdft.wfns' ... done
Dumping 'jdft.fluidState' ... done
Dumping 'jdft.ionpos' ... done
Dumping 'jdft.lattice' ... done
Dumping 'jdft.eigenvals' ... done
Dumping 'jdft.eigStats' ... 
	eMin: -2.157474 at state 16 ( [ +0.000000 +0.000000 +0.000000 ] spin -1 )
	HOMO: -0.207491 at state 9 ( [ +0.333333 +0.166667 +0.000000 ] spin 1 )
	mu  : -0.207426
	LUMO: -0.207412 at state 21 ( [ +0.166667 +0.166667 +0.000000 ] spin -1 )
	eMax: +0.091059 at state 15 ( [ +0.500000 +0.500000 +0.000000 ] spin 1 )
	HOMO-LUMO gap: +0.000079
	Optical gap  : +0.000965 at state 17 ( [ +0.000000 +0.166667 +0.000000 ] spin -1 )
Dumping 'jdft.Ecomponents' ... done
IonicMinimize: Iter:  16  F: -1445.170751727541983  |grad|_K:  3.782e-05  alpha:  1.000e+00  linmin:  1.071e-03  t[s]:  15076.95
IonicMinimize: Converged (|grad|_K<1.000000e-04).

#--- Lowdin population analysis ---
# oxidation-state Pt -0.038 -0.002 -0.002 +0.012 -0.011 -0.011 -0.011 -0.011 +0.039 +0.041 +0.041 +0.035 -0.001 -0.001 -0.002 -0.002
# magnetic-moments Pt -0.000 -0.000 -0.000 -0.000 -0.000 -0.000 -0.000 -0.000 -0.000 -0.000 -0.000 -0.000 -0.000 -0.000 -0.000 -0.000
# oxidation-state C +0.349
# magnetic-moments C +0.000
# oxidation-state O -0.162
# magnetic-moments O -0.000


Dumping 'jdft.n_up' ... done
Dumping 'jdft.n_dn' ... done
Dumping 'jdft.tau_up' ... done
Dumping 'jdft.tau_dn' ... done
Dumping 'jdft.eigenvals' ... done
Dumping 'jdft.eigStats' ... 
	eMin: -2.157474 at state 16 ( [ +0.000000 +0.000000 +0.000000 ] spin -1 )
	HOMO: -0.207491 at state 9 ( [ +0.333333 +0.166667 +0.000000 ] spin 1 )
	mu  : -0.207426
	LUMO: -0.207412 at state 21 ( [ +0.166667 +0.166667 +0.000000 ] spin -1 )
	eMax: +0.091059 at state 15 ( [ +0.500000 +0.500000 +0.000000 ] spin 1 )
	HOMO-LUMO gap: +0.000079
	Optical gap  : +0.000965 at state 17 ( [ +0.000000 +0.166667 +0.000000 ] spin -1 )
Dumping 'jdft.kPts' ... done
Dumping 'jdft.kMap' ... done
Dumping 'jdft.dosUp' ... done.
Dumping 'jdft.dosDn' ... done.
End date and time: Thu Feb 17 08:29:07 2022  (Duration: 0-4:11:33.16)
Done!
