
*************** JDFTx 1.7.0 (git hash 5f12716a) ***************

Start date and time: Fri Sep  9 07:02:06 2022
Executable /home/nisi6161/jdftx_alpine/build/jdftx with command-line: -i in
Running on hosts (process indices):  c3cpu-a2-u13-2.rc.int.colorado.edu (0-23)
Divided in process groups (process indices):  0 (0)  1 (1)  2 (2)  3 (3)  4 (4)  5 (5)  6 (6)  7 (7)  8 (8)  9 (9)  10 (10)  11 (11)  12 (12)  13 (13)  14 (14)  15 (15)  16 (16)  17 (17)  18 (18)  19 (19)  20 (20)  21 (21)  22 (22)  23 (23)
Resource initialization completed at t[s]:      0.00
Run totals: 24 processes, 64 threads, 0 GPUs


Input parsed successfully to the following command list (including defaults):

basis kpoint-dependent
converge-empty-states yes
coords-type Cartesian
core-overlap-check none
coulomb-interaction Periodic
davidson-band-ratio 1.1
density-of-states Etol 1.000000e-06 Esigma 1.000000e-03 \
		Complete \
	Total \
	OrthoOrbital Cu 1   s \
	OrthoOrbital Cu 1   p \
	OrthoOrbital Cu 1   px \
	OrthoOrbital Cu 1   py \
	OrthoOrbital Cu 1   pz \
	OrthoOrbital Cu 1   d \
	OrthoOrbital Cu 1   dxy \
	OrthoOrbital Cu 1   dyz \
	OrthoOrbital Cu 1   dz2 \
	OrthoOrbital Cu 1   dxz \
	OrthoOrbital Cu 1   dx2-y2 \
	OrthoOrbital Cu 2   s \
	OrthoOrbital Cu 2   p \
	OrthoOrbital Cu 2   px \
	OrthoOrbital Cu 2   py \
	OrthoOrbital Cu 2   pz \
	OrthoOrbital Cu 2   d \
	OrthoOrbital Cu 2   dxy \
	OrthoOrbital Cu 2   dyz \
	OrthoOrbital Cu 2   dz2 \
	OrthoOrbital Cu 2   dxz \
	OrthoOrbital Cu 2   dx2-y2 \
	OrthoOrbital Cu 3   s \
	OrthoOrbital Cu 3   p \
	OrthoOrbital Cu 3   px \
	OrthoOrbital Cu 3   py \
	OrthoOrbital Cu 3   pz \
	OrthoOrbital Cu 3   d \
	OrthoOrbital Cu 3   dxy \
	OrthoOrbital Cu 3   dyz \
	OrthoOrbital Cu 3   dz2 \
	OrthoOrbital Cu 3   dxz \
	OrthoOrbital Cu 3   dx2-y2 \
	OrthoOrbital Cu 4   s \
	OrthoOrbital Cu 4   p \
	OrthoOrbital Cu 4   px \
	OrthoOrbital Cu 4   py \
	OrthoOrbital Cu 4   pz \
	OrthoOrbital Cu 4   d \
	OrthoOrbital Cu 4   dxy \
	OrthoOrbital Cu 4   dyz \
	OrthoOrbital Cu 4   dz2 \
	OrthoOrbital Cu 4   dxz \
	OrthoOrbital Cu 4   dx2-y2 \
	OrthoOrbital Cu 5   s \
	OrthoOrbital Cu 5   p \
	OrthoOrbital Cu 5   px \
	OrthoOrbital Cu 5   py \
	OrthoOrbital Cu 5   pz \
	OrthoOrbital Cu 5   d \
	OrthoOrbital Cu 5   dxy \
	OrthoOrbital Cu 5   dyz \
	OrthoOrbital Cu 5   dz2 \
	OrthoOrbital Cu 5   dxz \
	OrthoOrbital Cu 5   dx2-y2 \
	OrthoOrbital Cu 6   s \
	OrthoOrbital Cu 6   p \
	OrthoOrbital Cu 6   px \
	OrthoOrbital Cu 6   py \
	OrthoOrbital Cu 6   pz \
	OrthoOrbital Cu 6   d \
	OrthoOrbital Cu 6   dxy \
	OrthoOrbital Cu 6   dyz \
	OrthoOrbital Cu 6   dz2 \
	OrthoOrbital Cu 6   dxz \
	OrthoOrbital Cu 6   dx2-y2 \
	OrthoOrbital Cu 7   s \
	OrthoOrbital Cu 7   p \
	OrthoOrbital Cu 7   px \
	OrthoOrbital Cu 7   py \
	OrthoOrbital Cu 7   pz \
	OrthoOrbital Cu 7   d \
	OrthoOrbital Cu 7   dxy \
	OrthoOrbital Cu 7   dyz \
	OrthoOrbital Cu 7   dz2 \
	OrthoOrbital Cu 7   dxz \
	OrthoOrbital Cu 7   dx2-y2 \
	OrthoOrbital Cu 8   s \
	OrthoOrbital Cu 8   p \
	OrthoOrbital Cu 8   px \
	OrthoOrbital Cu 8   py \
	OrthoOrbital Cu 8   pz \
	OrthoOrbital Cu 8   d \
	OrthoOrbital Cu 8   dxy \
	OrthoOrbital Cu 8   dyz \
	OrthoOrbital Cu 8   dz2 \
	OrthoOrbital Cu 8   dxz \
	OrthoOrbital Cu 8   dx2-y2 \
	OrthoOrbital Cu 9   s \
	OrthoOrbital Cu 9   p \
	OrthoOrbital Cu 9   px \
	OrthoOrbital Cu 9   py \
	OrthoOrbital Cu 9   pz \
	OrthoOrbital Cu 9   d \
	OrthoOrbital Cu 9   dxy \
	OrthoOrbital Cu 9   dyz \
	OrthoOrbital Cu 9   dz2 \
	OrthoOrbital Cu 9   dxz \
	OrthoOrbital Cu 9   dx2-y2 \
	OrthoOrbital Cu 10   s \
	OrthoOrbital Cu 10   p \
	OrthoOrbital Cu 10   px \
	OrthoOrbital Cu 10   py \
	OrthoOrbital Cu 10   pz \
	OrthoOrbital Cu 10   d \
	OrthoOrbital Cu 10   dxy \
	OrthoOrbital Cu 10   dyz \
	OrthoOrbital Cu 10   dz2 \
	OrthoOrbital Cu 10   dxz \
	OrthoOrbital Cu 10   dx2-y2 \
	OrthoOrbital Cu 11   s \
	OrthoOrbital Cu 11   p \
	OrthoOrbital Cu 11   px \
	OrthoOrbital Cu 11   py \
	OrthoOrbital Cu 11   pz \
	OrthoOrbital Cu 11   d \
	OrthoOrbital Cu 11   dxy \
	OrthoOrbital Cu 11   dyz \
	OrthoOrbital Cu 11   dz2 \
	OrthoOrbital Cu 11   dxz \
	OrthoOrbital Cu 11   dx2-y2 \
	OrthoOrbital Cu 12   s \
	OrthoOrbital Cu 12   p \
	OrthoOrbital Cu 12   px \
	OrthoOrbital Cu 12   py \
	OrthoOrbital Cu 12   pz \
	OrthoOrbital Cu 12   d \
	OrthoOrbital Cu 12   dxy \
	OrthoOrbital Cu 12   dyz \
	OrthoOrbital Cu 12   dz2 \
	OrthoOrbital Cu 12   dxz \
	OrthoOrbital Cu 12   dx2-y2 \
	OrthoOrbital Cu 13   s \
	OrthoOrbital Cu 13   p \
	OrthoOrbital Cu 13   px \
	OrthoOrbital Cu 13   py \
	OrthoOrbital Cu 13   pz \
	OrthoOrbital Cu 13   d \
	OrthoOrbital Cu 13   dxy \
	OrthoOrbital Cu 13   dyz \
	OrthoOrbital Cu 13   dz2 \
	OrthoOrbital Cu 13   dxz \
	OrthoOrbital Cu 13   dx2-y2 \
	OrthoOrbital Cu 14   s \
	OrthoOrbital Cu 14   p \
	OrthoOrbital Cu 14   px \
	OrthoOrbital Cu 14   py \
	OrthoOrbital Cu 14   pz \
	OrthoOrbital Cu 14   d \
	OrthoOrbital Cu 14   dxy \
	OrthoOrbital Cu 14   dyz \
	OrthoOrbital Cu 14   dz2 \
	OrthoOrbital Cu 14   dxz \
	OrthoOrbital Cu 14   dx2-y2 \
	OrthoOrbital Cu 15   s \
	OrthoOrbital Cu 15   p \
	OrthoOrbital Cu 15   px \
	OrthoOrbital Cu 15   py \
	OrthoOrbital Cu 15   pz \
	OrthoOrbital Cu 15   d \
	OrthoOrbital Cu 15   dxy \
	OrthoOrbital Cu 15   dyz \
	OrthoOrbital Cu 15   dz2 \
	OrthoOrbital Cu 15   dxz \
	OrthoOrbital Cu 15   dx2-y2 \
	OrthoOrbital Cu 16   s \
	OrthoOrbital Cu 16   p \
	OrthoOrbital Cu 16   px \
	OrthoOrbital Cu 16   py \
	OrthoOrbital Cu 16   pz \
	OrthoOrbital Cu 16   d \
	OrthoOrbital Cu 16   dxy \
	OrthoOrbital Cu 16   dyz \
	OrthoOrbital Cu 16   dz2 \
	OrthoOrbital Cu 16   dxz \
	OrthoOrbital Cu 16   dx2-y2 \
	OrthoOrbital Cu 17   s \
	OrthoOrbital Cu 17   p \
	OrthoOrbital Cu 17   px \
	OrthoOrbital Cu 17   py \
	OrthoOrbital Cu 17   pz \
	OrthoOrbital Cu 17   d \
	OrthoOrbital Cu 17   dxy \
	OrthoOrbital Cu 17   dyz \
	OrthoOrbital Cu 17   dz2 \
	OrthoOrbital Cu 17   dxz \
	OrthoOrbital Cu 17   dx2-y2 \
	OrthoOrbital Cu 18   s \
	OrthoOrbital Cu 18   p \
	OrthoOrbital Cu 18   px \
	OrthoOrbital Cu 18   py \
	OrthoOrbital Cu 18   pz \
	OrthoOrbital Cu 18   d \
	OrthoOrbital Cu 18   dxy \
	OrthoOrbital Cu 18   dyz \
	OrthoOrbital Cu 18   dz2 \
	OrthoOrbital Cu 18   dxz \
	OrthoOrbital Cu 18   dx2-y2 \
	OrthoOrbital Cu 19   s \
	OrthoOrbital Cu 19   p \
	OrthoOrbital Cu 19   px \
	OrthoOrbital Cu 19   py \
	OrthoOrbital Cu 19   pz \
	OrthoOrbital Cu 19   d \
	OrthoOrbital Cu 19   dxy \
	OrthoOrbital Cu 19   dyz \
	OrthoOrbital Cu 19   dz2 \
	OrthoOrbital Cu 19   dxz \
	OrthoOrbital Cu 19   dx2-y2 \
	OrthoOrbital Cu 20   s \
	OrthoOrbital Cu 20   p \
	OrthoOrbital Cu 20   px \
	OrthoOrbital Cu 20   py \
	OrthoOrbital Cu 20   pz \
	OrthoOrbital Cu 20   d \
	OrthoOrbital Cu 20   dxy \
	OrthoOrbital Cu 20   dyz \
	OrthoOrbital Cu 20   dz2 \
	OrthoOrbital Cu 20   dxz \
	OrthoOrbital Cu 20   dx2-y2 \
	OrthoOrbital Cu 21   s \
	OrthoOrbital Cu 21   p \
	OrthoOrbital Cu 21   px \
	OrthoOrbital Cu 21   py \
	OrthoOrbital Cu 21   pz \
	OrthoOrbital Cu 21   d \
	OrthoOrbital Cu 21   dxy \
	OrthoOrbital Cu 21   dyz \
	OrthoOrbital Cu 21   dz2 \
	OrthoOrbital Cu 21   dxz \
	OrthoOrbital Cu 21   dx2-y2 \
	OrthoOrbital Cu 22   s \
	OrthoOrbital Cu 22   p \
	OrthoOrbital Cu 22   px \
	OrthoOrbital Cu 22   py \
	OrthoOrbital Cu 22   pz \
	OrthoOrbital Cu 22   d \
	OrthoOrbital Cu 22   dxy \
	OrthoOrbital Cu 22   dyz \
	OrthoOrbital Cu 22   dz2 \
	OrthoOrbital Cu 22   dxz \
	OrthoOrbital Cu 22   dx2-y2 \
	OrthoOrbital Cu 23   s \
	OrthoOrbital Cu 23   p \
	OrthoOrbital Cu 23   px \
	OrthoOrbital Cu 23   py \
	OrthoOrbital Cu 23   pz \
	OrthoOrbital Cu 23   d \
	OrthoOrbital Cu 23   dxy \
	OrthoOrbital Cu 23   dyz \
	OrthoOrbital Cu 23   dz2 \
	OrthoOrbital Cu 23   dxz \
	OrthoOrbital Cu 23   dx2-y2 \
	OrthoOrbital Cu 24   s \
	OrthoOrbital Cu 24   p \
	OrthoOrbital Cu 24   px \
	OrthoOrbital Cu 24   py \
	OrthoOrbital Cu 24   pz \
	OrthoOrbital Cu 24   d \
	OrthoOrbital Cu 24   dxy \
	OrthoOrbital Cu 24   dyz \
	OrthoOrbital Cu 24   dz2 \
	OrthoOrbital Cu 24   dxz \
	OrthoOrbital Cu 24   dx2-y2 \
	OrthoOrbital Cu 25   s \
	OrthoOrbital Cu 25   p \
	OrthoOrbital Cu 25   px \
	OrthoOrbital Cu 25   py \
	OrthoOrbital Cu 25   pz \
	OrthoOrbital Cu 25   d \
	OrthoOrbital Cu 25   dxy \
	OrthoOrbital Cu 25   dyz \
	OrthoOrbital Cu 25   dz2 \
	OrthoOrbital Cu 25   dxz \
	OrthoOrbital Cu 25   dx2-y2 \
	OrthoOrbital Cu 26   s \
	OrthoOrbital Cu 26   p \
	OrthoOrbital Cu 26   px \
	OrthoOrbital Cu 26   py \
	OrthoOrbital Cu 26   pz \
	OrthoOrbital Cu 26   d \
	OrthoOrbital Cu 26   dxy \
	OrthoOrbital Cu 26   dyz \
	OrthoOrbital Cu 26   dz2 \
	OrthoOrbital Cu 26   dxz \
	OrthoOrbital Cu 26   dx2-y2
dump End ElecDensity KEdensity BandEigs EigStats RhoAtom DOS Kpoints
dump Ionic State IonicPositions Lattice EigStats Ecomponents
dump 
dump 
dump 
dump 
dump 
dump 
dump 
dump 
dump-name jdft.$VAR
elec-cutoff 20
elec-eigen-algo Davidson
elec-ex-corr gga-PBE
elec-initial-magnetization 0.000000 no
elec-n-bands 297
elec-smearing Fermi 0.001
electronic-minimize  \
	dirUpdateScheme      FletcherReeves \
	linminMethod         DirUpdateRecommended \
	nIterations          100 \
	history              15 \
	knormThreshold       0 \
	energyDiffThreshold  1e-07 \
	nEnergyDiff          2 \
	alphaTstart          1 \
	alphaTmin            1e-10 \
	updateTestStepSize   yes \
	alphaTreduceFactor   0.1 \
	alphaTincreaseFactor 3 \
	nAlphaAdjustMax      3 \
	wolfeEnergy          0.0001 \
	wolfeGradient        0.9 \
	fdTest               no
exchange-regularization WignerSeitzTruncated
fluid LinearPCM 298.000000 1.013250
fluid-anion F- 0.5 MeanFieldLJ \
	epsBulk 1 \
	pMol 0 \
	epsInf 1 \
	Pvap 0 \
	sigmaBulk 0 \
	Rvdw 2.24877 \
	Res 0 \
	tauNuc 343133
fluid-cation Na+ 0.5 MeanFieldLJ \
	epsBulk 1 \
	pMol 0 \
	epsInf 1 \
	Pvap 0 \
	sigmaBulk 0 \
	Rvdw 2.19208 \
	Res 0 \
	tauNuc 343133
fluid-ex-corr lda-TF lda-PZ
fluid-gummel-loop 10 1.000000e-05
fluid-minimize  \
	dirUpdateScheme      PolakRibiere \
	linminMethod         DirUpdateRecommended \
	nIterations          400 \
	history              15 \
	knormThreshold       1e-11 \
	energyDiffThreshold  0 \
	nEnergyDiff          2 \
	alphaTstart          1 \
	alphaTmin            1e-10 \
	updateTestStepSize   yes \
	alphaTreduceFactor   0.1 \
	alphaTincreaseFactor 3 \
	nAlphaAdjustMax      6 \
	wolfeEnergy          0.0001 \
	wolfeGradient        0.9 \
	fdTest               no
fluid-solvent H2O 55.338 ScalarEOS \
	epsBulk 78.4 \
	pMol 0.92466 \
	epsInf 1.77 \
	Pvap 1.06736e-10 \
	sigmaBulk 4.62e-05 \
	Rvdw 2.61727 \
	Res 1.42 \
	tauNuc 343133 \
	poleEl 15 7 1
forces-output-coords Positions
initial-state jdft.$VAR
ion Cu   0.000971000000000   9.329003999999999  22.004238999999998 1
ion Cu  -0.001011000000000   3.747580000000001  18.223361000000001 1
ion Cu   3.370660000000000   6.560677000000001  20.200677999999996 1
ion Cu   3.369959000000000   0.946003000000000  16.367519999999999 1
ion Cu   0.001331000000000   7.482315000000001  12.616319000000001 1
ion Cu  -0.000216000000000   1.859948000000000   8.869199999999999 1
ion Cu   3.370443999999999  10.289445000000001  14.497824999999999 1
ion Cu   3.371280000000000   4.669594000000000  10.748593000000000 1
ion Cu  -0.001234000000000  11.218799000000002   7.021308000000000 1
ion Cu  -0.001018000000000   5.593237000000001   3.182097000000000 1
ion Cu   0.001473000000000  -0.030855000000000  23.713300999999998 1
ion Cu   3.370030000000000   8.429144000000001   5.140749000000000 1
ion Cu   3.369759999999999   2.801759000000000   1.450796000000000 1
ion Cu   3.372258000000000  11.201591000000001  19.164259999999999 1
ion Cu   3.369816999999999   5.618538000000000  15.435880999999998 1
ion Cu   0.002299000000000   8.412216000000001  17.283628000000000 1
ion Cu  -0.002245000000000   2.809063000000001  13.556706999999999 1
ion Cu   3.371948000000001   9.341716000000000   9.807475000000000 1
ion Cu   3.369851000000000   3.730736000000000   6.081867000000000 1
ion Cu   3.369656000000000  -0.003597000000000  11.689054000000000 1
ion Cu   0.000128000000000   6.532726000000001   7.937780000000000 1
ion Cu  -0.000260000000000   0.917846000000000   4.104184000000000 1
ion Cu   3.370309999999999   7.509038000000000   0.591416000000000 1
ion Cu   3.370623000000000   1.885432000000000  21.123349000000001 1
ion Cu   0.000880000000000  10.301804000000001   2.300843000000000 1
ion Cu  -0.001055000000000   4.676898000000000  22.854139000000000 1
ion-species /projects/musgravc/apps/jdftx-1.6.0/build/pseudopotentials/GBRV_v1.5/$ID_pbe_v1.uspp
ion-species /projects/musgravc/apps/jdftx-1.6.0/build/pseudopotentials/GBRV_v1.5/$ID_pbe_v1.2.uspp
ion-species /projects/musgravc/apps/jdftx-1.6.0/build/pseudopotentials/GBRV_v1.5/$ID_pbe_v1.4.uspp
ion-species /projects/musgravc/apps/jdftx-1.6.0/build/pseudopotentials/GBRV_v1.5/$ID_pbe_v1.5.uspp
ion-width Ecut
ionic-minimize  \
	dirUpdateScheme      L-BFGS \
	linminMethod         DirUpdateRecommended \
	nIterations          100 \
	history              15 \
	knormThreshold       0.0001 \
	energyDiffThreshold  0.0001 \
	nEnergyDiff          2 \
	alphaTstart          1 \
	alphaTmin            1e-10 \
	updateTestStepSize   yes \
	alphaTreduceFactor   0.1 \
	alphaTincreaseFactor 3 \
	nAlphaAdjustMax      3 \
	wolfeEnergy          0.0001 \
	wolfeGradient        0.9 \
	fdTest               no
kpoint   0.000000000000   0.000000000000   0.000000000000  1.00000000000000
kpoint-folding 9 4 1 
latt-move-scale 0 0 0
latt-scale 1 1 1 
lattice  \
	   6.741023000000000   -3.370512000000000    0.000000000000000  \
	   0.000000000000000   12.152552999999999    0.000000000000000  \
	   0.000000000000000    0.000000000000000   72.915317000000002 
lattice-minimize  \
	dirUpdateScheme      L-BFGS \
	linminMethod         DirUpdateRecommended \
	nIterations          0 \
	history              15 \
	knormThreshold       0 \
	energyDiffThreshold  1e-06 \
	nEnergyDiff          2 \
	alphaTstart          1 \
	alphaTmin            1e-10 \
	updateTestStepSize   yes \
	alphaTreduceFactor   0.1 \
	alphaTincreaseFactor 3 \
	nAlphaAdjustMax      3 \
	wolfeEnergy          0.0001 \
	wolfeGradient        0.9 \
	fdTest               no
lcao-params 30 1e-06 0.001
pcm-variant CANDLE
spintype z-spin
subspace-rotation-factor 1 yes
symmetries automatic
symmetry-threshold 0.0001
target-mu -0.24475 no

van-der-waals D3



---------- Setting up symmetries ----------

Found 8 point-group symmetries of the bravais lattice
Found 1 space-group symmetries with basis
Applied RMS atom displacement 0 bohrs to make symmetries exact.

---------- Initializing the Grid ----------
R = 
[      6.74102     -3.37051            0  ]
[            0      12.1526            0  ]
[            0            0      72.9153  ]
unit cell volume = 5973.27
G =
[   0.932082   0.258513         -0  ]
[          0   0.517026          0  ]
[          0         -0   0.086171  ]
Minimum fftbox size, Smin = [  28  52  296  ]
Chosen fftbox size, S = [  28  54  300  ]

---------- Exchange Correlation functional ----------
Initalized PBE GGA exchange.
Initalized PBE GGA correlation.

---------- Setting up pseudopotentials ----------
Width of ionic core gaussian charges (only for fluid interactions / plotting) set to 0.397384

Reading pseudopotential file '/projects/musgravc/apps/jdftx-1.6.0/build/pseudopotentials/GBRV_v1.5/cu_pbe_v1.2.uspp':
  Title: Cu.  Created by USPP 7.3.6 on 3-2-2014
  Reference state energy: -201.059491.  19 valence electrons in orbitals:
    |300>  occupation: 2  eigenvalue: -5.020764
    |310>  occupation: 6  eigenvalue: -3.445588
    |320>  occupation: 8  eigenvalue: -0.925168
    |400>  occupation: 2  eigenvalue: -0.567638
    |410>  occupation: 0  eigenvalue: -0.326154
  lMax: 2  lLocal: 3  QijEcut: 6
  6 projectors sampled on a log grid with 613 points:
    l: 0  eig: -5.020767  rCut: 1.4
    l: 0  eig: -0.567640  rCut: 1.4
    l: 1  eig: -3.445589  rCut: 1.55
    l: 1  eig: -0.326157  rCut: 1.55
    l: 2  eig: -0.925170  rCut: 1.5
    l: 2  eig: 1.500000  rCut: 1.5
  Partial core density with radius 0.8
  Transforming core density to a uniform radial grid of dG=0.02 with 1277 points.
  Transforming local potential to a uniform radial grid of dG=0.02 with 1277 points.
  Transforming nonlocal projectors to a uniform radial grid of dG=0.02 with 432 points.
  Transforming density augmentations to a uniform radial grid of dG=0.02 with 1277 points.
  Transforming atomic orbitals to a uniform radial grid of dG=0.02 with 432 points.
  Core radius for overlap checks: 1.55 bohrs.

Initialized 1 species with 26 total atoms.

Folded 1 k-points by 9x4x1 to 36 k-points.

---------- Setting up k-points, bands, fillings ----------
Adding inversion symmetry to k-mesh for non-inversion-symmetric unit cell.
Reduced to 19 k-points under symmetry. 
Computing the number of bands and number of electrons
Calculating initial fillings.
nElectrons: 494.000000   nBands: 297   nStates: 38

----- Setting up reduced wavefunction bases (one per k-point) -----
average nbasis = 25520.806 , ideal nbasis = 25518.262

----- Initializing Supercell corresponding to k-point mesh -----
Lattice vector linear combinations in supercell:
[   9   0   0  ]
[   0   4   0  ]
[   0   0   1  ]
Supercell lattice vectors:
[  60.6692  -13.482  0  ]
[  0  48.6102  0  ]
[  0  0  72.9153  ]

Initializing DFT-D3 calculator:
	Parameters set for gga-PBE functional
	s6:  1.000  s_r6:  1.217
	s8:  0.722  s_r8:  1.000
	Per-atom parameters loaded for:
	Cu:  sqrtQ[a0]:  5.226  Rcov[a0]:  1.909  CN: [ 0.00 0.96 ]

Initializing DFT-D2 calculator for fluid / solvation:
	Cu:  C6:  187.33 Eh-a0^6  R0: 2.952 a0

---------- Setting up ewald sum ----------
Optimum gaussian width for ewald sums = 4.205509 bohr.
Real space sum over 935 unit cells with max indices [  8  5  2  ]
Reciprocal space sum over 6669 terms with max indices [  4  6  28  ]

Computing DFT-D3 correction:
# coordination-number Cu 6.949 9.052 8.333 9.083 9.143 9.098 9.154 9.137 9.080 8.328 4.895 9.094 5.583 9.094 9.098 9.081 9.138 9.153 9.051 9.143 9.083 8.332 4.895 8.327 6.949 5.583
# diagonal-C6 Cu 175.00 175.00 175.00 175.00 175.00 175.00 175.00 175.00 175.00 175.00 175.00 175.00 175.00 175.00 175.00 175.00 175.00 175.00 175.00 175.00 175.00 175.00 175.00 175.00 175.00 175.00
EvdW_6 =   -0.161253
EvdW_8 =   -0.239201

---------- Allocating electronic variables ----------
Initializing wave functions:  linear combination of atomic orbitals
Cu pseudo-atom occupations:   s ( 2 1 )  p ( 6 0 )  d ( 10 )
	FillingsUpdate:  mu: -0.244750000  nElectrons: 494.000000  magneticMoment: [ Abs: 0.25811  Tot: -0.00288 ]
LCAOMinimize: Iter:   0  G: -5008.9001868252926215  |grad|_K:  4.052e-02  alpha:  1.000e+00
LCAOMinimize: 	Step increased G by 1.644099e+03, reducing alpha to 4.006736e-02.
LCAOMinimize: 	Step increased G by 2.099194e+02, reducing alpha to 4.006736e-03.
	FillingsUpdate:  mu: -0.244750000  nElectrons: 494.000000  magneticMoment: [ Abs: 0.25985  Tot: +0.00137 ]
LCAOMinimize: Iter:   1  G: -5028.3035161379357305  |grad|_K:  1.674e-02  alpha:  4.007e-03  linmin: -1.866e-01  cgtest:  8.686e-01  t[s]:    426.23
LCAOMinimize: Encountered beta<0, resetting CG.
LCAOMinimize: 	Predicted alpha/alphaT>3.000000, increasing alphaT to 1.202021e-02.
	FillingsUpdate:  mu: -0.244750000  nElectrons: 494.000000  magneticMoment: [ Abs: 0.26791  Tot: +0.00040 ]
LCAOMinimize: Iter:   2  G: -5036.8397463118881205  |grad|_K:  1.601e-02  alpha:  1.371e-02  linmin: -1.313e-02  cgtest:  3.054e-03  t[s]:    559.02
LCAOMinimize: 	Predicted alpha/alphaT>3.000000, increasing alphaT to 4.114464e-02.
	FillingsUpdate:  mu: -0.244750000  nElectrons: 494.000000  magneticMoment: [ Abs: 0.03059  Tot: -0.00721 ]
LCAOMinimize: Iter:   3  G: -5062.3782206120740739  |grad|_K:  2.337e-02  alpha:  4.201e-02  linmin: -5.663e-04  cgtest:  3.519e-01  t[s]:    688.48
	FillingsUpdate:  mu: -0.244750000  nElectrons: 494.000000  magneticMoment: [ Abs: 0.00371  Tot: +0.00027 ]
LCAOMinimize: Iter:   4  G: -5098.7644158261791745  |grad|_K:  2.744e-02  alpha:  3.641e-02  linmin: -1.978e-02  cgtest: -3.953e-01  t[s]:    793.00
	FillingsUpdate:  mu: -0.244750000  nElectrons: 494.000000  magneticMoment: [ Abs: 0.00127  Tot: -0.00005 ]
LCAOMinimize: Iter:   5  G: -5116.3723702142024194  |grad|_K:  3.663e-03  alpha:  1.878e-02  linmin:  1.003e-01  cgtest: -1.773e+00  t[s]:    899.03
LCAOMinimize: 	Bad step direction: g.d > 0.
LCAOMinimize: 	Undoing step.
LCAOMinimize: 	Step failed: resetting search direction.
	FillingsUpdate:  mu: -0.244750000  nElectrons: 494.000000  magneticMoment: [ Abs: 0.00127  Tot: -0.00005 ]
LCAOMinimize: Iter:   6  G: -5116.3723702142024194  |grad|_K:  3.663e-03  alpha:  0.000e+00
LCAOMinimize: 	Predicted alpha/alphaT>3.000000, increasing alphaT to 5.634315e-02.
	FillingsUpdate:  mu: -0.244750000  nElectrons: 494.000000  magneticMoment: [ Abs: 0.00175  Tot: +0.00002 ]
LCAOMinimize: Iter:   7  G: -5118.4319928234226609  |grad|_K:  4.194e-03  alpha:  9.358e-02  linmin:  6.314e-02  cgtest: -3.844e-01  t[s]:   1110.98
LCAOMinimize: 	Bad step direction: g.d > 0.
LCAOMinimize: 	Undoing step.
LCAOMinimize: 	Step failed: resetting search direction.
	FillingsUpdate:  mu: -0.244750000  nElectrons: 494.000000  magneticMoment: [ Abs: 0.00175  Tot: +0.00002 ]
LCAOMinimize: Iter:   8  G: -5118.4319928234226609  |grad|_K:  4.194e-03  alpha:  0.000e+00
	FillingsUpdate:  mu: -0.244750000  nElectrons: 494.000000  magneticMoment: [ Abs: 0.00172  Tot: -0.00002 ]
LCAOMinimize: Iter:   9  G: -5119.9217704897018848  |grad|_K:  2.428e-03  alpha:  3.815e-02  linmin: -1.883e-02  cgtest:  3.317e-02  t[s]:   1296.08
	FillingsUpdate:  mu: -0.244750000  nElectrons: 494.000000  magneticMoment: [ Abs: 0.00188  Tot: -0.00006 ]
LCAOMinimize: Iter:  10  G: -5120.5434641030878993  |grad|_K:  2.957e-03  alpha:  4.622e-02  linmin:  1.387e-02  cgtest: -2.114e-01  t[s]:   1402.13
	FillingsUpdate:  mu: -0.244750000  nElectrons: 494.000000  magneticMoment: [ Abs: 0.00207  Tot: -0.00000 ]
LCAOMinimize: Iter:  11  G: -5120.9268735156583716  |grad|_K:  3.910e-03  alpha:  1.721e-02  linmin: -1.265e-02  cgtest:  9.077e-01  t[s]:   1508.30
	FillingsUpdate:  mu: -0.244750000  nElectrons: 494.000000  magneticMoment: [ Abs: 0.00231  Tot: +0.00004 ]
LCAOMinimize: Iter:  12  G: -5121.7634532608044537  |grad|_K:  3.815e-03  alpha:  2.523e-02  linmin:  2.427e-02  cgtest: -3.613e-01  t[s]:   1614.08
	FillingsUpdate:  mu: -0.244750000  nElectrons: 494.000000  magneticMoment: [ Abs: 0.00250  Tot: +0.00008 ]
LCAOMinimize: Iter:  13  G: -5122.0013039416389802  |grad|_K:  4.942e-03  alpha:  1.159e-02  linmin: -2.011e-03  cgtest:  8.966e-01  t[s]:   1720.11
	FillingsUpdate:  mu: -0.244750000  nElectrons: 494.000000  magneticMoment: [ Abs: 0.00265  Tot: +0.00009 ]
LCAOMinimize: Iter:  14  G: -5122.6936136860003899  |grad|_K:  1.598e-03  alpha:  1.291e-02  linmin:  2.028e-02  cgtest: -3.925e-01  t[s]:   1826.03
LCAOMinimize: 	Predicted alpha/alphaT>3.000000, increasing alphaT to 3.874321e-02.
LCAOMinimize: 	Predicted alpha/alphaT>3.000000, increasing alphaT to 1.162296e-01.
	FillingsUpdate:  mu: -0.244750000  nElectrons: 494.000000  magneticMoment: [ Abs: 0.00269  Tot: +0.00009 ]
LCAOMinimize: Iter:  15  G: -5122.7770804558404052  |grad|_K:  1.613e-03  alpha:  8.839e-03  linmin: -7.382e-02  cgtest:  9.635e-01  t[s]:   1985.78
	FillingsUpdate:  mu: -0.244750000  nElectrons: 494.000000  magneticMoment: [ Abs: 0.00271  Tot: +0.00008 ]
LCAOMinimize: Iter:  16  G: -5122.8954038575866434  |grad|_K:  1.571e-03  alpha:  2.086e-02  linmin:  8.778e-03  cgtest: -1.556e-01  t[s]:   2091.73
	FillingsUpdate:  mu: -0.244750000  nElectrons: 494.000000  magneticMoment: [ Abs: 0.00280  Tot: +0.00001 ]
LCAOMinimize: Iter:  17  G: -5123.0105529234151618  |grad|_K:  1.747e-03  alpha:  2.747e-02  linmin:  2.977e-02  cgtest:  5.042e-01  t[s]:   2197.68
	FillingsUpdate:  mu: -0.244750000  nElectrons: 494.000000  magneticMoment: [ Abs: 0.00284  Tot: -0.00001 ]
LCAOMinimize: Iter:  18  G: -5123.0667105868833460  |grad|_K:  1.369e-03  alpha:  9.935e-03  linmin: -9.501e-03  cgtest:  6.050e-01  t[s]:   2303.63
	FillingsUpdate:  mu: -0.244750000  nElectrons: 494.000000  magneticMoment: [ Abs: 0.00287  Tot: -0.00001 ]
LCAOMinimize: Iter:  19  G: -5123.1622512739631929  |grad|_K:  5.168e-04  alpha:  2.307e-02  linmin:  3.289e-03  cgtest: -1.476e-01  t[s]:   2409.48
LCAOMinimize: 	Predicted alpha/alphaT>3.000000, increasing alphaT to 6.920041e-02.
	FillingsUpdate:  mu: -0.244750000  nElectrons: 494.000000  magneticMoment: [ Abs: 0.00302  Tot: -0.00000 ]
LCAOMinimize: Iter:  20  G: -5123.2086289577327989  |grad|_K:  1.048e-03  alpha:  8.150e-02  linmin:  3.512e-03  cgtest:  1.647e-02  t[s]:   2540.64
	FillingsUpdate:  mu: -0.244750000  nElectrons: 494.000000  magneticMoment: [ Abs: 0.00310  Tot: +0.00000 ]
LCAOMinimize: Iter:  21  G: -5123.2350108528389683  |grad|_K:  6.218e-04  alpha:  7.743e-03  linmin: -4.348e-02  cgtest:  9.227e-01  t[s]:   2646.23
LCAOMinimize: Encountered beta<0, resetting CG.
	FillingsUpdate:  mu: -0.244750000  nElectrons: 494.000000  magneticMoment: [ Abs: 0.00311  Tot: +0.00001 ]
LCAOMinimize: Iter:  22  G: -5123.2444617048377040  |grad|_K:  3.572e-04  alpha:  1.129e-02  linmin:  5.374e-03  cgtest: -4.029e-02  t[s]:   2752.37
	FillingsUpdate:  mu: -0.244750000  nElectrons: 494.000000  magneticMoment: [ Abs: 0.00314  Tot: +0.00000 ]
LCAOMinimize: Iter:  23  G: -5123.2521094008989166  |grad|_K:  2.603e-04  alpha:  2.914e-02  linmin:  1.265e-02  cgtest:  4.411e-02  t[s]:   2858.58
	FillingsUpdate:  mu: -0.244750000  nElectrons: 494.000000  magneticMoment: [ Abs: 0.00320  Tot: -0.00000 ]
LCAOMinimize: Iter:  24  G: -5123.2575354875361882  |grad|_K:  2.342e-04  alpha:  3.924e-02  linmin:  1.139e-03  cgtest:  8.993e-02  t[s]:   2964.68
	FillingsUpdate:  mu: -0.244750000  nElectrons: 494.000000  magneticMoment: [ Abs: 0.00323  Tot: +0.00000 ]
LCAOMinimize: Iter:  25  G: -5123.2593884841844556  |grad|_K:  2.207e-04  alpha:  1.542e-02  linmin: -1.062e-03  cgtest:  1.157e-02  t[s]:   3070.77
LCAOMinimize: 	Predicted alpha/alphaT>3.000000, increasing alphaT to 4.625347e-02.
	FillingsUpdate:  mu: -0.244750000  nElectrons: 494.000000  magneticMoment: [ Abs: 0.00342  Tot: +0.00002 ]
LCAOMinimize: Iter:  26  G: -5123.2667749271886350  |grad|_K:  9.888e-05  alpha:  6.950e-02  linmin:  5.550e-03  cgtest: -1.417e-01  t[s]:   3203.68
	FillingsUpdate:  mu: -0.244750000  nElectrons: 494.000000  magneticMoment: [ Abs: 0.00347  Tot: +0.00002 ]
LCAOMinimize: Iter:  27  G: -5123.2675325558629993  |grad|_K:  1.322e-04  alpha:  3.694e-02  linmin: -2.639e-04  cgtest:  4.574e-02  t[s]:   3309.70
	FillingsUpdate:  mu: -0.244750000  nElectrons: 494.000000  magneticMoment: [ Abs: 0.00351  Tot: +0.00003 ]
LCAOMinimize: Iter:  28  G: -5123.2681311123706109  |grad|_K:  8.989e-05  alpha:  1.565e-02  linmin: -3.974e-04  cgtest: -3.879e-02  t[s]:   3415.60
	FillingsUpdate:  mu: -0.244750000  nElectrons: 494.000000  magneticMoment: [ Abs: 0.00358  Tot: +0.00003 ]
LCAOMinimize: Iter:  29  G: -5123.2687457314150379  |grad|_K:  7.112e-05  alpha:  3.461e-02  linmin: -1.008e-04  cgtest:  1.919e-02  t[s]:   3521.53
	FillingsUpdate:  mu: -0.244750000  nElectrons: 494.000000  magneticMoment: [ Abs: 0.00373  Tot: +0.00006 ]
LCAOMinimize: Iter:  30  G: -5123.2698028669674386  |grad|_K:  5.730e-05  alpha:  9.617e-02  linmin:  5.234e-04  cgtest: -5.332e-03  t[s]:   3627.29
LCAOMinimize: None of the convergence criteria satisfied after 30 iterations.
----- createFluidSolver() ----- (Fluid-side solver setup)
   Initializing fluid molecule 'H2O'
     Initializing site 'O'
       Electron density: proportional to exp(-r/0.36935)*erfc((r-0.51523)/0.36823) with norm 6.826
       Charge density: gaussian nuclear width 0.478731 with net site charge 0.826
       Polarizability: cuspless exponential with width 0.32 and norm 3.73
       Hard sphere radius: 2.57003 bohrs
       Positions in reference frame:
         [ +0.000000 +0.000000 +0.000000 ]
     Initializing site 'H'
       Electron density: proportional to exp(-r/0.34641)*erfc((r-0)/0.390882) with norm 0.587
       Charge density: gaussian nuclear width 0.377945 with net site charge -0.413
       Polarizability: cuspless exponential with width 0.39 and norm 3.3
       Positions in reference frame:
         [ +0.000000 -1.441945 +1.122523 ]
         [ +0.000000 +1.441945 +1.122523 ]
     Net charge: 0   dipole magnitude: 0.927204
     Initializing spherical shell mfKernel with radius 2.61727 Bohr
     deltaS corrections:
       site 'O': -7.54299
       site 'H': -6.83917
   Initializing fluid molecule 'Na+'
     Initializing site 'Na'
       Electron density: proportional to exp(-r/0.19682)*erfc((r-0.71491)/0.41314) with norm 8.1383
       Charge density: gaussian nuclear width 0.365347 with net site charge -1
       Hard sphere radius: 1.86327 bohrs
       Positions in reference frame:
         [ +0.000000 +0.000000 +0.000000 ]
     Net charge: -1   dipole magnitude: 0
     Initializing gaussian mfKernel with width: 1.55004 Bohr
     deltaS corrections:
       site 'Na': -22.3555
   Initializing fluid molecule 'F-'
     Initializing site 'F'
       Electron density: proportional to exp(-r/0.38886)*erfc((r-0)/0.438782) with norm 8
       Charge density: gaussian nuclear width 0.374796 with net site charge 1
       Hard sphere radius: 2.39995 bohrs
       Positions in reference frame:
         [ +0.000000 +0.000000 +0.000000 ]
     Net charge: 1   dipole magnitude: 0
     Initializing gaussian mfKernel with width: 1.59012 Bohr
     deltaS corrections:
       site 'F': -9.04335

Correction to mu due to finite nuclear width = -0.0820568
   Cavity determined by nc: 0.00142 and sigma: 0.707107
   Nonlocal vdW cavity from gaussian model electron density with norm = 8 and sigma = 0.993594 bohr
   Charge asymmetry in cavity with sensitivity pCavity = 36.5 e-bohr/Eh
   Electrostatic cavity expanded by eta = 1.46 bohrs
   Weighted density cavitation model constrained by Nbulk: 0.0049383 bohr^-3, Pvap: 3.14029 kPa, Rvdw: 2.61727 bohr and sigmaBulk: 4.62e-05 Eh/bohr^2 at T: 298 K.
   Weighted density dispersion model using vdW pair potentials with single solvent site with sqrtC6eff: 0.77 SI.


---- Citations for features of the code used in this run ----

   Software package:
      R. Sundararaman, K. Letchworth-Weaver, K.A. Schwarz, D. Gunceler, Y. Ozhabes and T.A. Arias, 'JDFTx: software for joint density-functional theory', SoftwareX 6, 278 (2017)

   gga-PBE exchange-correlation functional:
      J.P. Perdew, K. Burke and M. Ernzerhof, Phys. Rev. Lett. 77, 3865 (1996)

   Pseudopotentials:
      KF Garrity, JW Bennett, KM Rabe and D Vanderbilt, Comput. Mater. Sci. 81, 446 (2014)

   DFT-D3 dispersion correction:
      S. Grimme, J. Antony, S. Ehrlich and H. Krieg, J. Chem. Phys. 132, 154104 (2010)

   DFT-D2 dispersion correction:
      S. Grimme, J. Comput. Chem. 27, 1787 (2006)

   Charge-asymmetric nonlocally-determined local-electric (CANDLE) solvation model:
      R. Sundararaman and W.A. Goddard III, J. Chem. Phys. 142, 064107 (2015)

   Total energy minimization with Auxiliary Hamiltonian:
      C. Freysoldt, S. Boeck, and J. Neugebauer, Phys. Rev. B 79, 241103(R) (2009)

   Grand-canonical (fixed-potential) DFT:
      R. Sundararaman, W. A. Goddard III and T. A. Arias, J. Chem. Phys. 146, 114104 (2017)

   Linear-tetrahedron sampling for density of states:
      G. Lehmann and M. Taut, Phys. status solidi (b) 54, 469 (1972)

This list may not be complete. Please suggest additional citations or
report any other bugs at https://github.com/shankar1729/jdftx/issues

Initialization completed successfully at t[s]:   3648.89


Computing DFT-D3 correction:
# coordination-number Cu 6.949 9.052 8.333 9.083 9.143 9.098 9.154 9.137 9.080 8.328 4.895 9.094 5.583 9.094 9.098 9.081 9.138 9.153 9.051 9.143 9.083 8.332 4.895 8.327 6.949 5.583
# diagonal-C6 Cu 175.00 175.00 175.00 175.00 175.00 175.00 175.00 175.00 175.00 175.00 175.00 175.00 175.00 175.00 175.00 175.00 175.00 175.00 175.00 175.00 175.00 175.00 175.00 175.00 175.00 175.00
EvdW_6 =   -0.161253
EvdW_8 =   -0.239201
Fluid solver invoked on fresh (random / LCAO) wavefunctions
Running a vacuum solve first:

-------- Initial electronic minimization -----------
	FillingsUpdate:  mu: +0.149455982  nElectrons: 494.000000  magneticMoment: [ Abs: 0.00373  Tot: +0.00006 ]
ElecMinimize: Iter:   0  G: -5123.271396235035354  |grad|_K:  2.462e-04  alpha:  1.000e+00
	FillingsUpdate:  mu: +0.032626229  nElectrons: 494.000000  magneticMoment: [ Abs: 0.00354  Tot: +0.00007 ]
	SubspaceRotationAdjust: set factor to 0.867
ElecMinimize: Iter:   1  G: -5124.955120718944272  |grad|_K:  1.314e-04  alpha:  1.001e-01  linmin:  2.685e-04  t[s]:   3893.35
	FillingsUpdate:  mu: +0.319218286  nElectrons: 494.000000  magneticMoment: [ Abs: 0.00324  Tot: +0.00008 ]
	SubspaceRotationAdjust: set factor to 0.467
ElecMinimize: Iter:   2  G: -5125.195218268307144  |grad|_K:  2.978e-04  alpha:  5.737e-02  linmin:  2.976e-05  t[s]:   4047.19
	FillingsUpdate:  mu: +0.262250699  nElectrons: 494.000000  magneticMoment: [ Abs: 0.00218  Tot: +0.00007 ]
	SubspaceRotationAdjust: set factor to 0.875
ElecMinimize: Iter:   3  G: -5126.663684969978021  |grad|_K:  9.501e-05  alpha:  5.844e-02  linmin: -8.979e-05  t[s]:   4200.58
	FillingsUpdate:  mu: +0.310631807  nElectrons: 494.000000  magneticMoment: [ Abs: 0.00192  Tot: +0.00005 ]
	SubspaceRotationAdjust: set factor to 0.52
ElecMinimize: Iter:   4  G: -5126.868658098519518  |grad|_K:  1.148e-04  alpha:  7.104e-02  linmin: -6.946e-05  t[s]:   4354.29
	FillingsUpdate:  mu: +0.169174299  nElectrons: 494.000000  magneticMoment: [ Abs: 0.00184  Tot: +0.00004 ]
	SubspaceRotationAdjust: set factor to 0.268
ElecMinimize: Iter:   5  G: -5127.010843546750948  |grad|_K:  5.663e-05  alpha:  3.733e-02  linmin:  1.874e-05  t[s]:   4501.82
ElecMinimize: 	Predicted alpha/alphaT>3.000000, increasing alphaT to 1.119864e-01.
	FillingsUpdate:  mu: +0.144416190  nElectrons: 494.000000  magneticMoment: [ Abs: 0.00153  Tot: +0.00003 ]
	SubspaceRotationAdjust: set factor to 0.177
ElecMinimize: Iter:   6  G: -5127.163538549646546  |grad|_K:  3.362e-05  alpha:  1.663e-01  linmin: -1.926e-05  t[s]:   4685.43
	FillingsUpdate:  mu: +0.130455218  nElectrons: 494.000000  magneticMoment: [ Abs: 0.00128  Tot: +0.00003 ]
	SubspaceRotationAdjust: set factor to 0.125
	SubspaceRotationAdjust: resetting CG because factor has changed by 0.125132
ElecMinimize: 	State modified externally: resetting search direction.
ElecMinimize: Iter:   7  G: -5127.204600605781707  |grad|_K:  1.997e-05  alpha:  1.242e-01
	FillingsUpdate:  mu: +0.111188339  nElectrons: 494.000000  magneticMoment: [ Abs: 0.00117  Tot: +0.00002 ]
	SubspaceRotationAdjust: set factor to 0.204
ElecMinimize: Iter:   8  G: -5127.219876675741034  |grad|_K:  1.373e-05  alpha:  1.323e-01  linmin:  4.974e-06  t[s]:   5067.63
	FillingsUpdate:  mu: +0.117979437  nElectrons: 494.000000  magneticMoment: [ Abs: 0.00102  Tot: +0.00002 ]
	SubspaceRotationAdjust: set factor to 0.229
ElecMinimize: Iter:   9  G: -5127.231998567804112  |grad|_K:  1.331e-05  alpha:  2.221e-01  linmin:  9.514e-06  t[s]:   5221.02
	FillingsUpdate:  mu: +0.118261010  nElectrons: 494.000000  magneticMoment: [ Abs: 0.00089  Tot: +0.00002 ]
	SubspaceRotationAdjust: set factor to 0.187
ElecMinimize: Iter:  10  G: -5127.240573256073731  |grad|_K:  1.156e-05  alpha:  1.676e-01  linmin:  8.323e-06  t[s]:   5374.49
	FillingsUpdate:  mu: +0.109991569  nElectrons: 494.000000  magneticMoment: [ Abs: 0.00082  Tot: +0.00001 ]
	SubspaceRotationAdjust: set factor to 0.19
ElecMinimize: Iter:  11  G: -5127.246746700629956  |grad|_K:  8.740e-06  alpha:  1.600e-01  linmin:  6.687e-06  t[s]:   5528.25
	FillingsUpdate:  mu: +0.106171704  nElectrons: 494.000000  magneticMoment: [ Abs: 0.00079  Tot: +0.00001 ]
	SubspaceRotationAdjust: set factor to 0.248
ElecMinimize: Iter:  12  G: -5127.249632882304468  |grad|_K:  5.734e-06  alpha:  1.311e-01  linmin:  5.111e-06  t[s]:   5681.81
	FillingsUpdate:  mu: +0.103334036  nElectrons: 494.000000  magneticMoment: [ Abs: 0.00075  Tot: +0.00000 ]
	SubspaceRotationAdjust: set factor to 0.267
ElecMinimize: Iter:  13  G: -5127.251857204390035  |grad|_K:  6.922e-06  alpha:  2.345e-01  linmin:  2.916e-06  t[s]:   5835.19
	FillingsUpdate:  mu: +0.100130960  nElectrons: 494.000000  magneticMoment: [ Abs: 0.00073  Tot: -0.00000 ]
	SubspaceRotationAdjust: set factor to 0.289
ElecMinimize: Iter:  14  G: -5127.254091339687875  |grad|_K:  5.938e-06  alpha:  1.617e-01  linmin:  2.252e-06  t[s]:   5988.72
	FillingsUpdate:  mu: +0.099637338  nElectrons: 494.000000  magneticMoment: [ Abs: 0.00072  Tot: -0.00000 ]
	SubspaceRotationAdjust: set factor to 0.315
ElecMinimize: Iter:  15  G: -5127.256193201200404  |grad|_K:  6.195e-06  alpha:  2.067e-01  linmin:  1.281e-06  t[s]:   6141.98
	FillingsUpdate:  mu: +0.099578517  nElectrons: 494.000000  magneticMoment: [ Abs: 0.00070  Tot: -0.00001 ]
	SubspaceRotationAdjust: set factor to 0.345
ElecMinimize: Iter:  16  G: -5127.257962578001752  |grad|_K:  4.789e-06  alpha:  1.598e-01  linmin:  5.374e-07  t[s]:   6294.96
	FillingsUpdate:  mu: +0.098732789  nElectrons: 494.000000  magneticMoment: [ Abs: 0.00067  Tot: -0.00001 ]
	SubspaceRotationAdjust: set factor to 0.367
ElecMinimize: Iter:  17  G: -5127.258977047620647  |grad|_K:  4.110e-06  alpha:  1.529e-01  linmin:  3.271e-07  t[s]:   6448.53
	FillingsUpdate:  mu: +0.099569256  nElectrons: 494.000000  magneticMoment: [ Abs: 0.00059  Tot: -0.00000 ]
	SubspaceRotationAdjust: set factor to 0.387
ElecMinimize: Iter:  18  G: -5127.260008950336669  |grad|_K:  3.289e-06  alpha:  2.110e-01  linmin: -1.599e-07  t[s]:   6602.17
	FillingsUpdate:  mu: +0.100695518  nElectrons: 494.000000  magneticMoment: [ Abs: 0.00053  Tot: -0.00000 ]
	SubspaceRotationAdjust: set factor to 0.393
ElecMinimize: Iter:  19  G: -5127.260377118906035  |grad|_K:  2.492e-06  alpha:  1.175e-01  linmin: -2.418e-08  t[s]:   6754.83
	FillingsUpdate:  mu: +0.100781586  nElectrons: 494.000000  magneticMoment: [ Abs: 0.00045  Tot: -0.00000 ]
	SubspaceRotationAdjust: set factor to 0.338
ElecMinimize: Iter:  20  G: -5127.260668610379071  |grad|_K:  2.855e-06  alpha:  1.620e-01  linmin: -5.523e-07  t[s]:   6905.11
	FillingsUpdate:  mu: +0.099944052  nElectrons: 494.000000  magneticMoment: [ Abs: 0.00036  Tot: -0.00000 ]
	SubspaceRotationAdjust: set factor to 0.253
ElecMinimize: Iter:  21  G: -5127.260912280101365  |grad|_K:  1.995e-06  alpha:  1.031e-01  linmin:  3.332e-08  t[s]:   7057.98
	FillingsUpdate:  mu: +0.099159664  nElectrons: 494.000000  magneticMoment: [ Abs: 0.00029  Tot: -0.00000 ]
	SubspaceRotationAdjust: set factor to 0.281
ElecMinimize: Iter:  22  G: -5127.261060784840993  |grad|_K:  1.494e-06  alpha:  1.288e-01  linmin:  2.884e-08  t[s]:   7211.05
	FillingsUpdate:  mu: +0.098980351  nElectrons: 494.000000  magneticMoment: [ Abs: 0.00021  Tot: -0.00000 ]
	SubspaceRotationAdjust: set factor to 0.312
ElecMinimize: Iter:  23  G: -5127.261166459673404  |grad|_K:  1.186e-06  alpha:  1.635e-01  linmin:  3.022e-07  t[s]:   7364.58
	FillingsUpdate:  mu: +0.099264484  nElectrons: 494.000000  magneticMoment: [ Abs: 0.00017  Tot: -0.00000 ]
	SubspaceRotationAdjust: set factor to 0.303
ElecMinimize: Iter:  24  G: -5127.261217884451980  |grad|_K:  9.804e-07  alpha:  1.263e-01  linmin:  7.701e-07  t[s]:   7517.68
	FillingsUpdate:  mu: +0.099997353  nElectrons: 494.000000  magneticMoment: [ Abs: 0.00012  Tot: +0.00000 ]
	SubspaceRotationAdjust: set factor to 0.291
ElecMinimize: Iter:  25  G: -5127.261262049089055  |grad|_K:  9.015e-07  alpha:  1.587e-01  linmin:  1.377e-06  t[s]:   7671.00
	FillingsUpdate:  mu: +0.100569816  nElectrons: 494.000000  magneticMoment: [ Abs: 0.00009  Tot: +0.00000 ]
	SubspaceRotationAdjust: set factor to 0.341
ElecMinimize: Iter:  26  G: -5127.261294240700408  |grad|_K:  6.006e-07  alpha:  1.369e-01  linmin:  3.014e-06  t[s]:   7824.02
	FillingsUpdate:  mu: +0.100524658  nElectrons: 494.000000  magneticMoment: [ Abs: 0.00007  Tot: +0.00000 ]
	SubspaceRotationAdjust: set factor to 0.386
ElecMinimize: Iter:  27  G: -5127.261311643338558  |grad|_K:  6.033e-07  alpha:  1.669e-01  linmin:  2.511e-06  t[s]:   7977.17
	FillingsUpdate:  mu: +0.100431283  nElectrons: 494.000000  magneticMoment: [ Abs: 0.00007  Tot: +0.00000 ]
	SubspaceRotationAdjust: set factor to 0.367
ElecMinimize: Iter:  28  G: -5127.261328475223308  |grad|_K:  5.748e-07  alpha:  1.599e-01  linmin:  2.734e-06  t[s]:   8129.80
	FillingsUpdate:  mu: +0.100558867  nElectrons: 494.000000  magneticMoment: [ Abs: 0.00007  Tot: +0.00000 ]
	SubspaceRotationAdjust: set factor to 0.303
ElecMinimize: Iter:  29  G: -5127.261337683183228  |grad|_K:  4.489e-07  alpha:  9.639e-02  linmin:  9.523e-07  t[s]:   8282.83
	FillingsUpdate:  mu: +0.100794729  nElectrons: 494.000000  magneticMoment: [ Abs: 0.00007  Tot: +0.00000 ]
	SubspaceRotationAdjust: set factor to 0.317
ElecMinimize: Iter:  30  G: -5127.261346624723046  |grad|_K:  3.926e-07  alpha:  1.534e-01  linmin:  1.154e-06  t[s]:   8436.71
	FillingsUpdate:  mu: +0.100764260  nElectrons: 494.000000  magneticMoment: [ Abs: 0.00007  Tot: +0.00000 ]
	SubspaceRotationAdjust: set factor to 0.373
ElecMinimize: Iter:  31  G: -5127.261353774313648  |grad|_K:  3.345e-07  alpha:  1.604e-01  linmin:  5.850e-07  t[s]:   8590.76
	FillingsUpdate:  mu: +0.100631715  nElectrons: 494.000000  magneticMoment: [ Abs: 0.00007  Tot: +0.00000 ]
	SubspaceRotationAdjust: set factor to 0.362
ElecMinimize: Iter:  32  G: -5127.261358801303686  |grad|_K:  3.268e-07  alpha:  1.552e-01  linmin:  1.015e-07  t[s]:   8744.62
	FillingsUpdate:  mu: +0.100631057  nElectrons: 494.000000  magneticMoment: [ Abs: 0.00007  Tot: -0.00000 ]
	SubspaceRotationAdjust: set factor to 0.297
ElecMinimize: Iter:  33  G: -5127.261362593962076  |grad|_K:  2.912e-07  alpha:  1.226e-01  linmin: -1.172e-07  t[s]:   8897.89
	FillingsUpdate:  mu: +0.100751703  nElectrons: 494.000000  magneticMoment: [ Abs: 0.00006  Tot: -0.00000 ]
	SubspaceRotationAdjust: set factor to 0.284
ElecMinimize: Iter:  34  G: -5127.261365392788321  |grad|_K:  2.090e-07  alpha:  1.138e-01  linmin: -7.842e-08  t[s]:   9050.87
	FillingsUpdate:  mu: +0.100869513  nElectrons: 494.000000  magneticMoment: [ Abs: 0.00005  Tot: -0.00000 ]
	SubspaceRotationAdjust: set factor to 0.314
ElecMinimize: Iter:  35  G: -5127.261367485592928  |grad|_K:  1.846e-07  alpha:  1.654e-01  linmin:  9.833e-09  t[s]:   9203.13
	FillingsUpdate:  mu: +0.100868717  nElectrons: 494.000000  magneticMoment: [ Abs: 0.00005  Tot: -0.00000 ]
	SubspaceRotationAdjust: set factor to 0.318
ElecMinimize: Iter:  36  G: -5127.261368935111932  |grad|_K:  1.657e-07  alpha:  1.468e-01  linmin:  1.891e-07  t[s]:   9356.62
	FillingsUpdate:  mu: +0.100765003  nElectrons: 494.000000  magneticMoment: [ Abs: 0.00004  Tot: -0.00000 ]
	SubspaceRotationAdjust: set factor to 0.279
ElecMinimize: Iter:  37  G: -5127.261369990524145  |grad|_K:  1.415e-07  alpha:  1.326e-01  linmin: -1.254e-07  t[s]:   9509.81
	FillingsUpdate:  mu: +0.100674969  nElectrons: 494.000000  magneticMoment: [ Abs: 0.00003  Tot: -0.00000 ]
	SubspaceRotationAdjust: set factor to 0.294
ElecMinimize: Iter:  38  G: -5127.261370771683687  |grad|_K:  1.077e-07  alpha:  1.346e-01  linmin: -3.109e-07  t[s]:   9663.48
	FillingsUpdate:  mu: +0.100694679  nElectrons: 494.000000  magneticMoment: [ Abs: 0.00002  Tot: -0.00000 ]
	SubspaceRotationAdjust: set factor to 0.346
ElecMinimize: Iter:  39  G: -5127.261371291399882  |grad|_K:  8.959e-08  alpha:  1.546e-01  linmin:  7.509e-07  t[s]:   9817.36
	FillingsUpdate:  mu: +0.100747425  nElectrons: 494.000000  magneticMoment: [ Abs: 0.00002  Tot: -0.00000 ]
	SubspaceRotationAdjust: set factor to 0.329
ElecMinimize: Iter:  40  G: -5127.261371622854313  |grad|_K:  8.313e-08  alpha:  1.426e-01  linmin:  4.217e-07  t[s]:   9971.31
	FillingsUpdate:  mu: +0.100748780  nElectrons: 494.000000  magneticMoment: [ Abs: 0.00001  Tot: -0.00000 ]
	SubspaceRotationAdjust: set factor to 0.297
ElecMinimize: Iter:  41  G: -5127.261371899424375  |grad|_K:  7.744e-08  alpha:  1.384e-01  linmin:  1.583e-07  t[s]:  10124.18
	FillingsUpdate:  mu: +0.100701822  nElectrons: 494.000000  magneticMoment: [ Abs: 0.00001  Tot: -0.00000 ]
	SubspaceRotationAdjust: set factor to 0.311
ElecMinimize: Iter:  42  G: -5127.261372128972653  |grad|_K:  5.451e-08  alpha:  1.322e-01  linmin: -5.350e-08  t[s]:  10277.55
	FillingsUpdate:  mu: +0.100681619  nElectrons: 494.000000  magneticMoment: [ Abs: 0.00001  Tot: -0.00000 ]
	SubspaceRotationAdjust: set factor to 0.356
ElecMinimize: Iter:  43  G: -5127.261372253579793  |grad|_K:  4.590e-08  alpha:  1.446e-01  linmin: -1.638e-07  t[s]:  10430.82
	FillingsUpdate:  mu: +0.100689658  nElectrons: 494.000000  magneticMoment: [ Abs: 0.00001  Tot: -0.00000 ]
	SubspaceRotationAdjust: set factor to 0.357
ElecMinimize: Iter:  44  G: -5127.261372355342246  |grad|_K:  4.458e-08  alpha:  1.681e-01  linmin:  1.831e-06  t[s]:  10584.00
	FillingsUpdate:  mu: +0.100696669  nElectrons: 494.000000  magneticMoment: [ Abs: 0.00001  Tot: -0.00000 ]
	SubspaceRotationAdjust: set factor to 0.31
ElecMinimize: Iter:  45  G: -5127.261372414813195  |grad|_K:  3.445e-08  alpha:  1.046e-01  linmin: -7.031e-07  t[s]:  10737.36
	FillingsUpdate:  mu: +0.100691015  nElectrons: 494.000000  magneticMoment: [ Abs: 0.00001  Tot: -0.00000 ]
	SubspaceRotationAdjust: set factor to 0.322
ElecMinimize: Iter:  46  G: -5127.261372465541172  |grad|_K:  3.297e-08  alpha:  1.437e-01  linmin: -2.583e-06  t[s]:  10890.66
ElecMinimize: Converged (|Delta G|<1.000000e-07 for 2 iters).
Setting wave functions to eigenvectors of Hamiltonian
Converging empty states (this may take a while): |deigs|: 1.553e-02
Vacuum energy after initial minimize, F = -5127.261372465541172

Shifting auxilliary hamiltonian by -0.345441 to set nElectrons=494.000000

-------- Electronic minimization -----------
	Linear fluid (dielectric constant: 78.4, screening length: 8.12261 Bohr) occupying 0.544041 of unit cell:	Completed after 21 iterations at t[s]:  11459.62
	FillingsUpdate:  mu: -0.244750000  nElectrons: 494.000000  magneticMoment: [ Abs: 0.00000  Tot: +0.00000 ]
ElecMinimize: Iter:   0  G: -5127.261857400678309  |grad|_K:  3.154e-05  alpha:  1.000e+00
	Linear fluid (dielectric constant: 78.4, screening length: 8.12261 Bohr) occupying 0.552767 of unit cell:	Completed after 26 iterations at t[s]:  11588.59
	Linear fluid (dielectric constant: 78.4, screening length: 8.12261 Bohr) occupying 0.544246 of unit cell:	Completed after 27 iterations at t[s]:  11633.94
	FillingsUpdate:  mu: -0.244750000  nElectrons: 493.841303  magneticMoment: [ Abs: 0.00000  Tot: +0.00000 ]
	SubspaceRotationAdjust: set factor to 0.178
ElecMinimize: Iter:   1  G: -5127.270403666681887  |grad|_K:  1.187e-05  alpha:  2.357e-02  linmin: -1.610e-02  t[s]:  11698.03
	Linear fluid (dielectric constant: 78.4, screening length: 8.12261 Bohr) occupying 0.544471 of unit cell:	Completed after 15 iterations at t[s]:  11754.76
ElecMinimize: 	Predicted alpha/alphaT>3.000000, increasing alphaT to 7.071496e-02.
	Linear fluid (dielectric constant: 78.4, screening length: 8.12261 Bohr) occupying 0.544920 of unit cell:	Completed after 16 iterations at t[s]:  11798.22
	Linear fluid (dielectric constant: 78.4, screening length: 8.12261 Bohr) occupying 0.544927 of unit cell:	Completed after 9 iterations at t[s]:  11840.16
	FillingsUpdate:  mu: -0.244750000  nElectrons: 493.670005  magneticMoment: [ Abs: 0.00000  Tot: +0.00000 ]
	SubspaceRotationAdjust: set factor to 0.1
ElecMinimize: Iter:   2  G: -5127.273949268595970  |grad|_K:  1.516e-05  alpha:  7.153e-02  linmin:  3.138e-04  t[s]:  11904.45
	Linear fluid (dielectric constant: 78.4, screening length: 8.12261 Bohr) occupying 0.546336 of unit cell:	Completed after 17 iterations at t[s]:  11961.35
	Linear fluid (dielectric constant: 78.4, screening length: 8.12261 Bohr) occupying 0.546894 of unit cell:	Completed after 16 iterations at t[s]:  12004.69
	FillingsUpdate:  mu: -0.244750000  nElectrons: 493.433312  magneticMoment: [ Abs: 0.00001  Tot: +0.00000 ]
	SubspaceRotationAdjust: set factor to 0.0634
ElecMinimize: Iter:   3  G: -5127.280474928920739  |grad|_K:  1.361e-05  alpha:  9.989e-02  linmin:  6.684e-05  t[s]:  12068.54
	Linear fluid (dielectric constant: 78.4, screening length: 8.12261 Bohr) occupying 0.548675 of unit cell:	Completed after 17 iterations at t[s]:  12125.31
	Linear fluid (dielectric constant: 78.4, screening length: 8.12261 Bohr) occupying 0.548235 of unit cell:	Completed after 15 iterations at t[s]:  12168.08
	FillingsUpdate:  mu: -0.244750000  nElectrons: 493.378077  magneticMoment: [ Abs: 0.00002  Tot: +0.00000 ]
	SubspaceRotationAdjust: set factor to 0.0971
ElecMinimize: Iter:   4  G: -5127.284396813305648  |grad|_K:  7.879e-06  alpha:  7.481e-02  linmin: -1.063e-04  t[s]:  12231.68
	Linear fluid (dielectric constant: 78.4, screening length: 8.12261 Bohr) occupying 0.548809 of unit cell:	Completed after 14 iterations at t[s]:  12287.79
	Linear fluid (dielectric constant: 78.4, screening length: 8.12261 Bohr) occupying 0.549106 of unit cell:	Completed after 12 iterations at t[s]:  12330.00
	FillingsUpdate:  mu: -0.244750000  nElectrons: 493.374340  magneticMoment: [ Abs: 0.00002  Tot: +0.00000 ]
	SubspaceRotationAdjust: set factor to 0.0983
ElecMinimize: Iter:   5  G: -5127.286477697554801  |grad|_K:  7.947e-06  alpha:  1.140e-01  linmin: -1.440e-04  t[s]:  12393.72
	Linear fluid (dielectric constant: 78.4, screening length: 8.12261 Bohr) occupying 0.550255 of unit cell:	Completed after 15 iterations at t[s]:  12450.08
	Linear fluid (dielectric constant: 78.4, screening length: 8.12261 Bohr) occupying 0.551033 of unit cell:	Completed after 14 iterations at t[s]:  12492.85
	FillingsUpdate:  mu: -0.244750000  nElectrons: 493.333448  magneticMoment: [ Abs: 0.00002  Tot: +0.00000 ]
	SubspaceRotationAdjust: set factor to 0.128
ElecMinimize: Iter:   6  G: -5127.290063019459922  |grad|_K:  1.068e-05  alpha:  1.935e-01  linmin: -1.381e-05  t[s]:  12556.14
	Linear fluid (dielectric constant: 78.4, screening length: 8.12261 Bohr) occupying 0.554635 of unit cell:	Completed after 19 iterations at t[s]:  12612.17
	Linear fluid (dielectric constant: 78.4, screening length: 8.12261 Bohr) occupying 0.553195 of unit cell:	Completed after 16 iterations at t[s]:  12655.24
	FillingsUpdate:  mu: -0.244750000  nElectrons: 493.245106  magneticMoment: [ Abs: 0.00003  Tot: -0.00000 ]
	SubspaceRotationAdjust: set factor to 0.163
ElecMinimize: Iter:   7  G: -5127.293761264822933  |grad|_K:  8.994e-06  alpha:  1.128e-01  linmin:  1.050e-05  t[s]:  12718.95
	Linear fluid (dielectric constant: 78.4, screening length: 8.12261 Bohr) occupying 0.554912 of unit cell:	Completed after 17 iterations at t[s]:  12775.77
	Linear fluid (dielectric constant: 78.4, screening length: 8.12261 Bohr) occupying 0.554842 of unit cell:	Completed after 12 iterations at t[s]:  12818.32
	FillingsUpdate:  mu: -0.244750000  nElectrons: 493.163887  magneticMoment: [ Abs: 0.00003  Tot: -0.00000 ]
	SubspaceRotationAdjust: set factor to 0.165
ElecMinimize: Iter:   8  G: -5127.296285932300634  |grad|_K:  8.757e-06  alpha:  1.080e-01  linmin: -6.443e-05  t[s]:  12882.25
	Linear fluid (dielectric constant: 78.4, screening length: 8.12261 Bohr) occupying 0.556603 of unit cell:	Completed after 15 iterations at t[s]:  12938.74
	Linear fluid (dielectric constant: 78.4, screening length: 8.12261 Bohr) occupying 0.556761 of unit cell:	Completed after 11 iterations at t[s]:  12981.14
	FillingsUpdate:  mu: -0.244750000  nElectrons: 493.127176  magneticMoment: [ Abs: 0.00003  Tot: +0.00000 ]
	SubspaceRotationAdjust: set factor to 0.202
ElecMinimize: Iter:   9  G: -5127.298943696157949  |grad|_K:  7.474e-06  alpha:  1.182e-01  linmin: -2.829e-05  t[s]:  13044.95
	Linear fluid (dielectric constant: 78.4, screening length: 8.12261 Bohr) occupying 0.558344 of unit cell:	Completed after 15 iterations at t[s]:  13101.75
	Linear fluid (dielectric constant: 78.4, screening length: 8.12261 Bohr) occupying 0.558198 of unit cell:	Completed after 11 iterations at t[s]:  13143.98
	FillingsUpdate:  mu: -0.244750000  nElectrons: 493.129433  magneticMoment: [ Abs: 0.00003  Tot: +0.00000 ]
	SubspaceRotationAdjust: set factor to 0.207
ElecMinimize: Iter:  10  G: -5127.300678605876783  |grad|_K:  7.733e-06  alpha:  1.068e-01  linmin: -2.388e-05  t[s]:  13207.91
	Linear fluid (dielectric constant: 78.4, screening length: 8.12261 Bohr) occupying 0.559856 of unit cell:	Completed after 15 iterations at t[s]:  13264.51
	Linear fluid (dielectric constant: 78.4, screening length: 8.12261 Bohr) occupying 0.560905 of unit cell:	Completed after 13 iterations at t[s]:  13307.09
	FillingsUpdate:  mu: -0.244750000  nElectrons: 493.063929  magneticMoment: [ Abs: 0.00003  Tot: +0.00000 ]
	SubspaceRotationAdjust: set factor to 0.223
ElecMinimize: Iter:  11  G: -5127.303842564000661  |grad|_K:  1.001e-05  alpha:  1.807e-01  linmin: -3.711e-05  t[s]:  13370.93
	Linear fluid (dielectric constant: 78.4, screening length: 8.12261 Bohr) occupying 0.564696 of unit cell:	Completed after 17 iterations at t[s]:  13427.66
	Linear fluid (dielectric constant: 78.4, screening length: 8.12261 Bohr) occupying 0.563136 of unit cell:	Completed after 17 iterations at t[s]:  13470.82
	FillingsUpdate:  mu: -0.244750000  nElectrons: 492.974783  magneticMoment: [ Abs: 0.00002  Tot: +0.00000 ]
	SubspaceRotationAdjust: set factor to 0.22
ElecMinimize: Iter:  12  G: -5127.306792415337441  |grad|_K:  7.364e-06  alpha:  9.902e-02  linmin: -4.088e-05  t[s]:  13534.63
	Linear fluid (dielectric constant: 78.4, screening length: 8.12261 Bohr) occupying 0.564260 of unit cell:	Completed after 16 iterations at t[s]:  13591.41
	Linear fluid (dielectric constant: 78.4, screening length: 8.12261 Bohr) occupying 0.564030 of unit cell:	Completed after 13 iterations at t[s]:  13633.98
	FillingsUpdate:  mu: -0.244750000  nElectrons: 492.969524  magneticMoment: [ Abs: 0.00002  Tot: +0.00000 ]
	SubspaceRotationAdjust: set factor to 0.231
ElecMinimize: Iter:  13  G: -5127.308022957033245  |grad|_K:  5.732e-06  alpha:  7.771e-02  linmin: -1.862e-05  t[s]:  13697.12
	Linear fluid (dielectric constant: 78.4, screening length: 8.12261 Bohr) occupying 0.564568 of unit cell:	Completed after 15 iterations at t[s]:  13753.35
	Linear fluid (dielectric constant: 78.4, screening length: 8.12261 Bohr) occupying 0.565104 of unit cell:	Completed after 15 iterations at t[s]:  13795.59
	FillingsUpdate:  mu: -0.244750000  nElectrons: 492.948188  magneticMoment: [ Abs: 0.00001  Tot: +0.00000 ]
	SubspaceRotationAdjust: set factor to 0.246
ElecMinimize: Iter:  14  G: -5127.309581403015727  |grad|_K:  7.160e-06  alpha:  1.625e-01  linmin: -2.208e-05  t[s]:  13858.57
	Linear fluid (dielectric constant: 78.4, screening length: 8.12261 Bohr) occupying 0.566446 of unit cell:	Completed after 20 iterations at t[s]:  13915.83
	Linear fluid (dielectric constant: 78.4, screening length: 8.12261 Bohr) occupying 0.566077 of unit cell:	Completed after 16 iterations at t[s]:  13959.09
	FillingsUpdate:  mu: -0.244750000  nElectrons: 492.890409  magneticMoment: [ Abs: 0.00001  Tot: +0.00000 ]
	SubspaceRotationAdjust: set factor to 0.228
ElecMinimize: Iter:  15  G: -5127.311252072252501  |grad|_K:  6.723e-06  alpha:  1.121e-01  linmin: -6.008e-06  t[s]:  14022.81
	Linear fluid (dielectric constant: 78.4, screening length: 8.12261 Bohr) occupying 0.566760 of unit cell:	Completed after 15 iterations at t[s]:  14079.06
	Linear fluid (dielectric constant: 78.4, screening length: 8.12261 Bohr) occupying 0.566631 of unit cell:	Completed after 12 iterations at t[s]:  14121.37
	FillingsUpdate:  mu: -0.244750000  nElectrons: 492.883331  magneticMoment: [ Abs: 0.00001  Tot: -0.00000 ]
	SubspaceRotationAdjust: set factor to 0.222
ElecMinimize: Iter:  16  G: -5127.312418495043858  |grad|_K:  4.745e-06  alpha:  8.897e-02  linmin: -5.431e-06  t[s]:  14185.20
	Linear fluid (dielectric constant: 78.4, screening length: 8.12261 Bohr) occupying 0.566866 of unit cell:	Completed after 13 iterations at t[s]:  14241.25
	Linear fluid (dielectric constant: 78.4, screening length: 8.12261 Bohr) occupying 0.566920 of unit cell:	Completed after 9 iterations at t[s]:  14282.84
	FillingsUpdate:  mu: -0.244750000  nElectrons: 492.866590  magneticMoment: [ Abs: 0.00001  Tot: -0.00000 ]
	SubspaceRotationAdjust: set factor to 0.245
ElecMinimize: Iter:  17  G: -5127.313141788381472  |grad|_K:  4.179e-06  alpha:  1.107e-01  linmin: -7.436e-06  t[s]:  14346.61
	Linear fluid (dielectric constant: 78.4, screening length: 8.12261 Bohr) occupying 0.567111 of unit cell:	Completed after 18 iterations at t[s]:  14403.52
	Linear fluid (dielectric constant: 78.4, screening length: 8.12261 Bohr) occupying 0.567100 of unit cell:	Completed after 11 iterations at t[s]:  14445.61
	FillingsUpdate:  mu: -0.244750000  nElectrons: 492.833775  magneticMoment: [ Abs: 0.00002  Tot: -0.00000 ]
	SubspaceRotationAdjust: set factor to 0.226
ElecMinimize: Iter:  18  G: -5127.313669617062260  |grad|_K:  3.784e-06  alpha:  1.042e-01  linmin:  1.915e-06  t[s]:  14509.09
	Linear fluid (dielectric constant: 78.4, screening length: 8.12261 Bohr) occupying 0.567227 of unit cell:	Completed after 13 iterations at t[s]:  14564.82
	Linear fluid (dielectric constant: 78.4, screening length: 8.12261 Bohr) occupying 0.567233 of unit cell:	Completed after 10 iterations at t[s]:  14606.91
	FillingsUpdate:  mu: -0.244750000  nElectrons: 492.834577  magneticMoment: [ Abs: 0.00002  Tot: -0.00000 ]
	SubspaceRotationAdjust: set factor to 0.237
ElecMinimize: Iter:  19  G: -5127.314121435017114  |grad|_K:  3.312e-06  alpha:  1.089e-01  linmin: -1.982e-06  t[s]:  14670.62
	Linear fluid (dielectric constant: 78.4, screening length: 8.12261 Bohr) occupying 0.567324 of unit cell:	Completed after 14 iterations at t[s]:  14726.65
	Linear fluid (dielectric constant: 78.4, screening length: 8.12261 Bohr) occupying 0.567337 of unit cell:	Completed after 10 iterations at t[s]:  14768.63
	FillingsUpdate:  mu: -0.244750000  nElectrons: 492.835422  magneticMoment: [ Abs: 0.00002  Tot: -0.00001 ]
	SubspaceRotationAdjust: set factor to 0.247
ElecMinimize: Iter:  20  G: -5127.314524386950325  |grad|_K:  2.808e-06  alpha:  1.267e-01  linmin: -2.613e-06  t[s]:  14832.06
	Linear fluid (dielectric constant: 78.4, screening length: 8.12261 Bohr) occupying 0.567413 of unit cell:	Completed after 15 iterations at t[s]:  14888.51
	Linear fluid (dielectric constant: 78.4, screening length: 8.12261 Bohr) occupying 0.567386 of unit cell:	Completed after 14 iterations at t[s]:  14931.18
	FillingsUpdate:  mu: -0.244750000  nElectrons: 492.824663  magneticMoment: [ Abs: 0.00003  Tot: -0.00001 ]
	SubspaceRotationAdjust: set factor to 0.221
ElecMinimize: Iter:  21  G: -5127.314709264060184  |grad|_K:  1.930e-06  alpha:  8.090e-02  linmin:  9.703e-07  t[s]:  14994.31
	Linear fluid (dielectric constant: 78.4, screening length: 8.12261 Bohr) occupying 0.567413 of unit cell:	Completed after 13 iterations at t[s]:  15049.28
	Linear fluid (dielectric constant: 78.4, screening length: 8.12261 Bohr) occupying 0.567422 of unit cell:	Completed after 10 iterations at t[s]:  15091.12
	FillingsUpdate:  mu: -0.244750000  nElectrons: 492.829688  magneticMoment: [ Abs: 0.00003  Tot: -0.00001 ]
	SubspaceRotationAdjust: set factor to 0.22
ElecMinimize: Iter:  22  G: -5127.314825562876649  |grad|_K:  1.842e-06  alpha:  1.077e-01  linmin: -3.124e-06  t[s]:  15154.73
	Linear fluid (dielectric constant: 78.4, screening length: 8.12261 Bohr) occupying 0.567457 of unit cell:	Completed after 10 iterations at t[s]:  15210.10
	Linear fluid (dielectric constant: 78.4, screening length: 8.12261 Bohr) occupying 0.567470 of unit cell:	Completed after 9 iterations at t[s]:  15251.92
	FillingsUpdate:  mu: -0.244750000  nElectrons: 492.832455  magneticMoment: [ Abs: 0.00003  Tot: -0.00001 ]
	SubspaceRotationAdjust: set factor to 0.233
ElecMinimize: Iter:  23  G: -5127.314971771496857  |grad|_K:  1.702e-06  alpha:  1.487e-01  linmin:  1.238e-06  t[s]:  15315.75
	Linear fluid (dielectric constant: 78.4, screening length: 8.12261 Bohr) occupying 0.567512 of unit cell:	Completed after 14 iterations at t[s]:  15372.14
	Linear fluid (dielectric constant: 78.4, screening length: 8.12261 Bohr) occupying 0.567494 of unit cell:	Completed after 13 iterations at t[s]:  15414.72
	FillingsUpdate:  mu: -0.244750000  nElectrons: 492.828053  magneticMoment: [ Abs: 0.00002  Tot: -0.00001 ]
	SubspaceRotationAdjust: set factor to 0.222
ElecMinimize: Iter:  24  G: -5127.315044553983171  |grad|_K:  1.220e-06  alpha:  8.668e-02  linmin:  1.605e-07  t[s]:  15478.55
	Linear fluid (dielectric constant: 78.4, screening length: 8.12261 Bohr) occupying 0.567508 of unit cell:	Completed after 12 iterations at t[s]:  15534.31
	Linear fluid (dielectric constant: 78.4, screening length: 8.12261 Bohr) occupying 0.567512 of unit cell:	Completed after 9 iterations at t[s]:  15576.08
	FillingsUpdate:  mu: -0.244750000  nElectrons: 492.830928  magneticMoment: [ Abs: 0.00002  Tot: -0.00001 ]
	SubspaceRotationAdjust: set factor to 0.221
ElecMinimize: Iter:  25  G: -5127.315091869302705  |grad|_K:  1.092e-06  alpha:  1.098e-01  linmin:  5.912e-07  t[s]:  15639.80
	Linear fluid (dielectric constant: 78.4, screening length: 8.12261 Bohr) occupying 0.567526 of unit cell:	Completed after 6 iterations at t[s]:  15694.43
	Linear fluid (dielectric constant: 78.4, screening length: 8.12261 Bohr) occupying 0.567528 of unit cell:	Completed after 2 iterations at t[s]:  15734.70
	FillingsUpdate:  mu: -0.244750000  nElectrons: 492.830776  magneticMoment: [ Abs: 0.00002  Tot: -0.00001 ]
	SubspaceRotationAdjust: set factor to 0.238
ElecMinimize: Iter:  26  G: -5127.315134873958414  |grad|_K:  9.206e-07  alpha:  1.245e-01  linmin: -9.528e-07  t[s]:  15798.39
	Linear fluid (dielectric constant: 78.4, screening length: 8.12261 Bohr) occupying 0.567538 of unit cell:	Completed after 13 iterations at t[s]:  15854.29
	Linear fluid (dielectric constant: 78.4, screening length: 8.12261 Bohr) occupying 0.567536 of unit cell:	Completed after 10 iterations at t[s]:  15896.15
	FillingsUpdate:  mu: -0.244750000  nElectrons: 492.827907  magneticMoment: [ Abs: 0.00002  Tot: -0.00000 ]
	SubspaceRotationAdjust: set factor to 0.233
ElecMinimize: Iter:  27  G: -5127.315159707785824  |grad|_K:  7.819e-07  alpha:  1.011e-01  linmin:  3.641e-06  t[s]:  15959.71
	Linear fluid (dielectric constant: 78.4, screening length: 8.12261 Bohr) occupying 0.567540 of unit cell:	Completed after 11 iterations at t[s]:  16015.19
	Linear fluid (dielectric constant: 78.4, screening length: 8.12261 Bohr) occupying 0.567540 of unit cell:	Completed after 7 iterations at t[s]:  16056.38
	FillingsUpdate:  mu: -0.244750000  nElectrons: 492.830611  magneticMoment: [ Abs: 0.00002  Tot: -0.00000 ]
	SubspaceRotationAdjust: set factor to 0.228
ElecMinimize: Iter:  28  G: -5127.315180337594029  |grad|_K:  7.008e-07  alpha:  1.166e-01  linmin:  1.513e-06  t[s]:  16120.13
	Linear fluid (dielectric constant: 78.4, screening length: 8.12261 Bohr) occupying 0.567541 of unit cell:	Completed after 4 iterations at t[s]:  16174.12
	Linear fluid (dielectric constant: 78.4, screening length: 8.12261 Bohr) occupying 0.567541 of unit cell:	Completed after 1 iterations at t[s]:  16213.84
	FillingsUpdate:  mu: -0.244750000  nElectrons: 492.830822  magneticMoment: [ Abs: 0.00002  Tot: -0.00000 ]
	SubspaceRotationAdjust: set factor to 0.252
ElecMinimize: Iter:  29  G: -5127.315196303121411  |grad|_K:  5.452e-07  alpha:  1.123e-01  linmin:  2.061e-06  t[s]:  16276.72
	Linear fluid (dielectric constant: 78.4, screening length: 8.12261 Bohr) occupying 0.567538 of unit cell:	Completed after 11 iterations at t[s]:  16332.20
	Linear fluid (dielectric constant: 78.4, screening length: 8.12261 Bohr) occupying 0.567538 of unit cell:	Completed after 0 iterations at t[s]:  16371.89
	FillingsUpdate:  mu: -0.244750000  nElectrons: 492.829271  magneticMoment: [ Abs: 0.00002  Tot: -0.00000 ]
	SubspaceRotationAdjust: set factor to 0.247
ElecMinimize: Iter:  30  G: -5127.315205949443225  |grad|_K:  5.188e-07  alpha:  1.121e-01  linmin: -2.303e-06  t[s]:  16435.66
	Linear fluid (dielectric constant: 78.4, screening length: 8.12261 Bohr) occupying 0.567532 of unit cell:	Completed after 12 iterations at t[s]:  16491.58
	Linear fluid (dielectric constant: 78.4, screening length: 8.12261 Bohr) occupying 0.567532 of unit cell:	Completed after 0 iterations at t[s]:  16531.30
	FillingsUpdate:  mu: -0.244750000  nElectrons: 492.831434  magneticMoment: [ Abs: 0.00001  Tot: -0.00000 ]
	SubspaceRotationAdjust: set factor to 0.241
ElecMinimize: Iter:  31  G: -5127.315215022209486  |grad|_K:  4.696e-07  alpha:  1.162e-01  linmin: -1.379e-05  t[s]:  16595.12
	Linear fluid (dielectric constant: 78.4, screening length: 8.12261 Bohr) occupying 0.567523 of unit cell:	Completed after 10 iterations at t[s]:  16650.66
	Linear fluid (dielectric constant: 78.4, screening length: 8.12261 Bohr) occupying 0.567524 of unit cell:	Completed after 2 iterations at t[s]:  16690.99
	FillingsUpdate:  mu: -0.244750000  nElectrons: 492.831483  magneticMoment: [ Abs: 0.00001  Tot: -0.00000 ]
	SubspaceRotationAdjust: set factor to 0.26
ElecMinimize: Iter:  32  G: -5127.315221546493376  |grad|_K:  3.462e-07  alpha:  1.014e-01  linmin:  7.217e-06  t[s]:  16754.59
	Linear fluid (dielectric constant: 78.4, screening length: 8.12261 Bohr) occupying 0.567517 of unit cell:	Completed after 8 iterations at t[s]:  16809.47
	Linear fluid (dielectric constant: 78.4, screening length: 8.12261 Bohr) occupying 0.567516 of unit cell:	Completed after 2 iterations at t[s]:  16849.89
	FillingsUpdate:  mu: -0.244750000  nElectrons: 492.831793  magneticMoment: [ Abs: 0.00001  Tot: -0.00000 ]
	SubspaceRotationAdjust: set factor to 0.274
ElecMinimize: Iter:  33  G: -5127.315226018517933  |grad|_K:  3.529e-07  alpha:  1.292e-01  linmin:  1.254e-06  t[s]:  16913.49
	Linear fluid (dielectric constant: 78.4, screening length: 8.12261 Bohr) occupying 0.567503 of unit cell:	Completed after 10 iterations at t[s]:  16968.87
	Linear fluid (dielectric constant: 78.4, screening length: 8.12261 Bohr) occupying 0.567504 of unit cell:	Completed after 2 iterations at t[s]:  17009.38
	FillingsUpdate:  mu: -0.244750000  nElectrons: 492.834157  magneticMoment: [ Abs: 0.00001  Tot: -0.00000 ]
	SubspaceRotationAdjust: set factor to 0.267
ElecMinimize: Iter:  34  G: -5127.315230397716732  |grad|_K:  3.102e-07  alpha:  1.214e-01  linmin:  1.495e-05  t[s]:  17073.09
	Linear fluid (dielectric constant: 78.4, screening length: 8.12261 Bohr) occupying 0.567492 of unit cell:	Completed after 10 iterations at t[s]:  17128.24
	Linear fluid (dielectric constant: 78.4, screening length: 8.12261 Bohr) occupying 0.567495 of unit cell:	Completed after 3 iterations at t[s]:  17168.73
	FillingsUpdate:  mu: -0.244750000  nElectrons: 492.834189  magneticMoment: [ Abs: 0.00001  Tot: -0.00000 ]
	SubspaceRotationAdjust: set factor to 0.261
ElecMinimize: Iter:  35  G: -5127.315232997272687  |grad|_K:  2.436e-07  alpha:  9.408e-02  linmin:  5.049e-06  t[s]:  17232.48
	Linear fluid (dielectric constant: 78.4, screening length: 8.12261 Bohr) occupying 0.567487 of unit cell:	Completed after 10 iterations at t[s]:  17287.66
	Linear fluid (dielectric constant: 78.4, screening length: 8.12261 Bohr) occupying 0.567484 of unit cell:	Completed after 2 iterations at t[s]:  17327.92
	FillingsUpdate:  mu: -0.244750000  nElectrons: 492.835595  magneticMoment: [ Abs: 0.00001  Tot: -0.00000 ]
	SubspaceRotationAdjust: set factor to 0.258
ElecMinimize: Iter:  36  G: -5127.315235096722972  |grad|_K:  2.410e-07  alpha:  1.216e-01  linmin: -3.333e-05  t[s]:  17391.55
	Linear fluid (dielectric constant: 78.4, screening length: 8.12261 Bohr) occupying 0.567472 of unit cell:	Completed after 7 iterations at t[s]:  17446.35
	Linear fluid (dielectric constant: 78.4, screening length: 8.12261 Bohr) occupying 0.567471 of unit cell:	Completed after 0 iterations at t[s]:  17486.25
	FillingsUpdate:  mu: -0.244750000  nElectrons: 492.835953  magneticMoment: [ Abs: 0.00001  Tot: -0.00000 ]
	SubspaceRotationAdjust: set factor to 0.276
ElecMinimize: Iter:  37  G: -5127.315237252288171  |grad|_K:  1.973e-07  alpha:  1.251e-01  linmin: -3.856e-08  t[s]:  17548.53
	Linear fluid (dielectric constant: 78.4, screening length: 8.12261 Bohr) occupying 0.567460 of unit cell:	Completed after 7 iterations at t[s]:  17602.83
	Linear fluid (dielectric constant: 78.4, screening length: 8.12261 Bohr) occupying 0.567462 of unit cell:	Completed after 2 iterations at t[s]:  17642.50
	FillingsUpdate:  mu: -0.244750000  nElectrons: 492.836030  magneticMoment: [ Abs: 0.00000  Tot: -0.00000 ]
	SubspaceRotationAdjust: set factor to 0.283
ElecMinimize: Iter:  38  G: -5127.315238482691711  |grad|_K:  1.758e-07  alpha:  1.094e-01  linmin:  1.246e-06  t[s]:  17706.06
	Linear fluid (dielectric constant: 78.4, screening length: 8.12261 Bohr) occupying 0.567452 of unit cell:	Completed after 11 iterations at t[s]:  17761.58
	Linear fluid (dielectric constant: 78.4, screening length: 8.12261 Bohr) occupying 0.567453 of unit cell:	Completed after 0 iterations at t[s]:  17801.47
	FillingsUpdate:  mu: -0.244750000  nElectrons: 492.837252  magneticMoment: [ Abs: 0.00000  Tot: -0.00000 ]
	SubspaceRotationAdjust: set factor to 0.246
ElecMinimize: Iter:  39  G: -5127.315239366125752  |grad|_K:  1.797e-07  alpha:  9.856e-02  linmin:  2.834e-05  t[s]:  17865.19
	Linear fluid (dielectric constant: 78.4, screening length: 8.12261 Bohr) occupying 0.567442 of unit cell:	Completed after 10 iterations at t[s]:  17920.47
	Linear fluid (dielectric constant: 78.4, screening length: 8.12261 Bohr) occupying 0.567444 of unit cell:	Completed after 2 iterations at t[s]:  17960.88
	FillingsUpdate:  mu: -0.244750000  nElectrons: 492.837069  magneticMoment: [ Abs: 0.00000  Tot: -0.00000 ]
	SubspaceRotationAdjust: set factor to 0.206
ElecMinimize: Iter:  40  G: -5127.315240065693615  |grad|_K:  1.362e-07  alpha:  7.701e-02  linmin:  2.701e-06  t[s]:  18024.57
	Linear fluid (dielectric constant: 78.4, screening length: 8.12261 Bohr) occupying 0.567438 of unit cell:	Completed after 7 iterations at t[s]:  18079.41
	Linear fluid (dielectric constant: 78.4, screening length: 8.12261 Bohr) occupying 0.567436 of unit cell:	Completed after 2 iterations at t[s]:  18119.92
	FillingsUpdate:  mu: -0.244750000  nElectrons: 492.837749  magneticMoment: [ Abs: 0.00000  Tot: -0.00000 ]
	SubspaceRotationAdjust: set factor to 0.222
ElecMinimize: Iter:  41  G: -5127.315240636402450  |grad|_K:  1.181e-07  alpha:  1.047e-01  linmin: -4.495e-05  t[s]:  18183.61
	Linear fluid (dielectric constant: 78.4, screening length: 8.12261 Bohr) occupying 0.567429 of unit cell:	Completed after 7 iterations at t[s]:  18238.46
	Linear fluid (dielectric constant: 78.4, screening length: 8.12261 Bohr) occupying 0.567427 of unit cell:	Completed after 0 iterations at t[s]:  18278.42
	FillingsUpdate:  mu: -0.244750000  nElectrons: 492.838634  magneticMoment: [ Abs: 0.00000  Tot: -0.00000 ]
	SubspaceRotationAdjust: set factor to 0.227
ElecMinimize: Iter:  42  G: -5127.315241211793364  |grad|_K:  1.150e-07  alpha:  1.363e-01  linmin: -3.017e-05  t[s]:  18342.11
	Linear fluid (dielectric constant: 78.4, screening length: 8.12261 Bohr) occupying 0.567416 of unit cell:	Completed after 7 iterations at t[s]:  18396.99
	Linear fluid (dielectric constant: 78.4, screening length: 8.12261 Bohr) occupying 0.567419 of unit cell:	Completed after 3 iterations at t[s]:  18437.55
	FillingsUpdate:  mu: -0.244750000  nElectrons: 492.838701  magneticMoment: [ Abs: 0.00000  Tot: -0.00000 ]
	SubspaceRotationAdjust: set factor to 0.228
ElecMinimize: Iter:  43  G: -5127.315241604470430  |grad|_K:  8.307e-08  alpha:  9.949e-02  linmin:  1.298e-05  t[s]:  18501.19
	Linear fluid (dielectric constant: 78.4, screening length: 8.12261 Bohr) occupying 0.567414 of unit cell:	Completed after 2 iterations at t[s]:  18555.05
	Linear fluid (dielectric constant: 78.4, screening length: 8.12261 Bohr) occupying 0.567413 of unit cell:	Completed after 0 iterations at t[s]:  18594.80
	FillingsUpdate:  mu: -0.244750000  nElectrons: 492.838928  magneticMoment: [ Abs: 0.00000  Tot: -0.00000 ]
	SubspaceRotationAdjust: set factor to 0.246
ElecMinimize: Iter:  44  G: -5127.315241834621702  |grad|_K:  7.686e-08  alpha:  1.162e-01  linmin: -4.980e-06  t[s]:  18658.55
	Linear fluid (dielectric constant: 78.4, screening length: 8.12261 Bohr) occupying 0.567407 of unit cell:	Completed after 2 iterations at t[s]:  18712.28
	Linear fluid (dielectric constant: 78.4, screening length: 8.12261 Bohr) occupying 0.567406 of unit cell:	Completed after 0 iterations at t[s]:  18752.07
	FillingsUpdate:  mu: -0.244750000  nElectrons: 492.839351  magneticMoment: [ Abs: 0.00000  Tot: -0.00000 ]
	SubspaceRotationAdjust: set factor to 0.259
ElecMinimize: Iter:  45  G: -5127.315242081757788  |grad|_K:  7.304e-08  alpha:  1.428e-01  linmin: -1.776e-05  t[s]:  18815.53
	Linear fluid (dielectric constant: 78.4, screening length: 8.12261 Bohr) occupying 0.567398 of unit cell:	Completed after 2 iterations at t[s]:  18869.51
	Linear fluid (dielectric constant: 78.4, screening length: 8.12261 Bohr) occupying 0.567400 of unit cell:	Completed after 0 iterations at t[s]:  18909.18
	FillingsUpdate:  mu: -0.244750000  nElectrons: 492.839611  magneticMoment: [ Abs: 0.00000  Tot: -0.00000 ]
	SubspaceRotationAdjust: set factor to 0.28
ElecMinimize: Iter:  46  G: -5127.315242247195783  |grad|_K:  5.881e-08  alpha:  1.040e-01  linmin:  1.391e-05  t[s]:  18971.85
	Linear fluid (dielectric constant: 78.4, screening length: 8.12261 Bohr) occupying 0.567396 of unit cell:	Completed after 2 iterations at t[s]:  19021.85
	Linear fluid (dielectric constant: 78.4, screening length: 8.12261 Bohr) occupying 0.567395 of unit cell:	Completed after 0 iterations at t[s]:  19060.48
	FillingsUpdate:  mu: -0.244750000  nElectrons: 492.839609  magneticMoment: [ Abs: 0.00000  Tot: -0.00000 ]
	SubspaceRotationAdjust: set factor to 0.296
ElecMinimize: Iter:  47  G: -5127.315242366776147  |grad|_K:  5.525e-08  alpha:  1.205e-01  linmin: -2.243e-05  t[s]:  19123.88
	Linear fluid (dielectric constant: 78.4, screening length: 8.12261 Bohr) occupying 0.567390 of unit cell:	Completed after 6 iterations at t[s]:  19178.60
	Linear fluid (dielectric constant: 78.4, screening length: 8.12261 Bohr) occupying 0.567391 of unit cell:	Completed after 0 iterations at t[s]:  19218.69
	FillingsUpdate:  mu: -0.244750000  nElectrons: 492.839644  magneticMoment: [ Abs: 0.00000  Tot: -0.00000 ]
	SubspaceRotationAdjust: set factor to 0.245
ElecMinimize: Iter:  48  G: -5127.315242457968452  |grad|_K:  6.901e-08  alpha:  1.027e-01  linmin: -3.065e-05  t[s]:  19282.95
	Linear fluid (dielectric constant: 78.4, screening length: 8.12261 Bohr) occupying 0.567384 of unit cell:	Completed after 10 iterations at t[s]:  19339.14
	Linear fluid (dielectric constant: 78.4, screening length: 8.12261 Bohr) occupying 0.567388 of unit cell:	Completed after 7 iterations at t[s]:  19380.95
	FillingsUpdate:  mu: -0.244750000  nElectrons: 492.840074  magneticMoment: [ Abs: 0.00000  Tot: -0.00000 ]
	SubspaceRotationAdjust: set factor to 0.218
ElecMinimize: Iter:  49  G: -5127.315242519627645  |grad|_K:  4.638e-08  alpha:  4.369e-02  linmin:  2.016e-05  t[s]:  19445.79
ElecMinimize: Converged (|Delta G|<1.000000e-07 for 2 iters).
Setting wave functions to eigenvectors of Hamiltonian
Converging empty states (this may take a while): |deigs|: 2.873e-03
Single-point solvation energy estimate, DeltaG = -0.053870054086474

Computing DFT-D3 correction:
# coordination-number Cu 6.949 9.052 8.333 9.083 9.143 9.098 9.154 9.137 9.080 8.328 4.895 9.094 5.583 9.094 9.098 9.081 9.138 9.153 9.051 9.143 9.083 8.332 4.895 8.327 6.949 5.583
# diagonal-C6 Cu 175.00 175.00 175.00 175.00 175.00 175.00 175.00 175.00 175.00 175.00 175.00 175.00 175.00 175.00 175.00 175.00 175.00 175.00 175.00 175.00 175.00 175.00 175.00 175.00 175.00 175.00
EvdW_6 =   -0.161253
EvdW_8 =   -0.239201

# Ionic positions in cartesian coordinates:
ion Cu   0.000971000000000   9.329003999999999  22.004238999999998 1
ion Cu  -0.001011000000000   3.747580000000001  18.223361000000001 1
ion Cu   3.370660000000000   6.560677000000001  20.200677999999996 1
ion Cu   3.369959000000000   0.946003000000000  16.367519999999999 1
ion Cu   0.001331000000000   7.482315000000001  12.616319000000001 1
ion Cu  -0.000216000000000   1.859948000000000   8.869199999999999 1
ion Cu   3.370443999999999  10.289445000000001  14.497824999999999 1
ion Cu   3.371280000000000   4.669594000000000  10.748593000000000 1
ion Cu  -0.001234000000000  11.218799000000002   7.021308000000000 1
ion Cu  -0.001018000000000   5.593237000000001   3.182097000000000 1
ion Cu   0.001473000000000  -0.030855000000000  23.713300999999998 1
ion Cu   3.370030000000000   8.429144000000001   5.140749000000000 1
ion Cu   3.369759999999999   2.801759000000000   1.450796000000000 1
ion Cu   3.372258000000000  11.201591000000001  19.164259999999999 1
ion Cu   3.369816999999999   5.618538000000000  15.435880999999998 1
ion Cu   0.002299000000000   8.412216000000001  17.283628000000000 1
ion Cu  -0.002245000000000   2.809063000000001  13.556706999999999 1
ion Cu   3.371948000000001   9.341716000000000   9.807475000000000 1
ion Cu   3.369851000000000   3.730736000000000   6.081867000000000 1
ion Cu   3.369656000000000  -0.003597000000000  11.689054000000000 1
ion Cu   0.000128000000000   6.532726000000001   7.937780000000000 1
ion Cu  -0.000260000000000   0.917846000000000   4.104184000000000 1
ion Cu   3.370309999999999   7.509038000000000   0.591416000000000 1
ion Cu   3.370623000000000   1.885432000000000  21.123349000000001 1
ion Cu   0.000880000000000  10.301804000000001   2.300843000000000 1
ion Cu  -0.001055000000000   4.676898000000000  22.854139000000000 1

# Forces in Cartesian coordinates:
force Cu   0.000043533721291  -0.000031912364628  -0.003788138358460 1
force Cu  -0.000027993627713   0.000542742847777   0.002031070520384 1
force Cu   0.000045582066033  -0.000266439742919  -0.002184173459596 1
force Cu   0.000014996984203   0.000246677543030  -0.001544391680745 1
force Cu  -0.000121408021691  -0.000186700572830   0.000997471167536 1
force Cu  -0.000038340463267   0.000156261027992   0.000942655467166 1
force Cu   0.000054283843375   0.000090450446840   0.000127986485037 1
force Cu  -0.000042916803623  -0.000212238058008  -0.001090754533486 1
force Cu   0.000041550420285   0.000207865865260  -0.000785217083161 1
force Cu   0.000072065538728   0.000490007140274   0.002500079984180 1
force Cu   0.000011685691364  -0.000651533414141   0.002845629490614 1
force Cu   0.000020991911861  -0.000252178256386  -0.001921766889617 1
force Cu  -0.000041354213417  -0.000284109801564  -0.000443219487303 1
force Cu  -0.000021291467382   0.000252275170055   0.001928353428285 1
force Cu   0.000040707670889  -0.000146723422172  -0.000988775563415 1
force Cu  -0.000041979607126  -0.000218967883918   0.000753393688145 1
force Cu   0.000048273882250   0.000209169200053   0.001002746321517 1
force Cu  -0.000054030831213  -0.000094846589918  -0.000200831205703 1
force Cu   0.000036404015332  -0.000533013888699  -0.002044214154395 1
force Cu   0.000123325725737   0.000183818657320  -0.001089109457575 1
force Cu  -0.000013059073771  -0.000250103747932   0.001508900583170 1
force Cu  -0.000043735793214   0.000264974612665   0.002194560695946 1
force Cu  -0.000000221107381   0.000647681759779  -0.002782187360789 1
force Cu  -0.000064996908106  -0.000495587182991  -0.002489299087357 1
force Cu  -0.000038262999346   0.000040229434829   0.003822385437437 1
force Cu   0.000048673875816   0.000281339732481   0.000498977605495 1

# Energy components:
[...]
	FillingsUpdate:  mu: -0.244750000  nElectrons: 492.815421  magneticMoment: [ Abs: 0.00956  Tot: -0.00035 ]
	SubspaceRotationAdjust: set factor to 0.155
ElecMinimize: Iter:   1  G: -5127.316041178289197  |grad|_K:  6.077e-07  alpha:  1.433e-01  linmin: -1.014e-05  t[s]:  36728.67
	Linear fluid (dielectric constant: 78.4, screening length: 8.12261 Bohr) occupying 0.566969 of unit cell:	Completed after 11 iterations at t[s]:  36779.43
	Linear fluid (dielectric constant: 78.4, screening length: 8.12261 Bohr) occupying 0.566969 of unit cell:	Completed after 9 iterations at t[s]:  36817.46
	FillingsUpdate:  mu: -0.244750000  nElectrons: 492.815913  magneticMoment: [ Abs: 0.00507  Tot: -0.00034 ]
	SubspaceRotationAdjust: set factor to 0.15
ElecMinimize: Iter:   2  G: -5127.316064394033674  |grad|_K:  3.583e-07  alpha:  2.169e-01  linmin: -5.143e-06  t[s]:  36876.43
	Linear fluid (dielectric constant: 78.4, screening length: 8.12261 Bohr) occupying 0.566968 of unit cell:	Completed after 10 iterations at t[s]:  36927.07
	Linear fluid (dielectric constant: 78.4, screening length: 8.12261 Bohr) occupying 0.566968 of unit cell:	Completed after 2 iterations at t[s]:  36963.95
	FillingsUpdate:  mu: -0.244750000  nElectrons: 492.815537  magneticMoment: [ Abs: 0.00294  Tot: -0.00033 ]
	SubspaceRotationAdjust: set factor to 0.18
ElecMinimize: Iter:   3  G: -5127.316072173491193  |grad|_K:  2.704e-07  alpha:  2.091e-01  linmin:  3.262e-05  t[s]:  37022.72
	Linear fluid (dielectric constant: 78.4, screening length: 8.12261 Bohr) occupying 0.566968 of unit cell:	Completed after 11 iterations at t[s]:  37073.47
	Linear fluid (dielectric constant: 78.4, screening length: 8.12261 Bohr) occupying 0.566968 of unit cell:	Completed after 8 iterations at t[s]:  37111.41
	FillingsUpdate:  mu: -0.244750000  nElectrons: 492.815859  magneticMoment: [ Abs: 0.00184  Tot: -0.00032 ]
	SubspaceRotationAdjust: set factor to 0.196
ElecMinimize: Iter:   4  G: -5127.316075051991902  |grad|_K:  1.620e-07  alpha:  1.358e-01  linmin:  3.204e-05  t[s]:  37170.18
	Linear fluid (dielectric constant: 78.4, screening length: 8.12261 Bohr) occupying 0.566967 of unit cell:	Completed after 8 iterations at t[s]:  37220.44
	Linear fluid (dielectric constant: 78.4, screening length: 8.12261 Bohr) occupying 0.566967 of unit cell:	Completed after 8 iterations at t[s]:  37258.63
	FillingsUpdate:  mu: -0.244750000  nElectrons: 492.814937  magneticMoment: [ Abs: 0.00110  Tot: -0.00031 ]
	SubspaceRotationAdjust: set factor to 0.203
ElecMinimize: Iter:   5  G: -5127.316076841698305  |grad|_K:  1.776e-07  alpha:  2.351e-01  linmin: -3.926e-05  t[s]:  37317.44
	Linear fluid (dielectric constant: 78.4, screening length: 8.12261 Bohr) occupying 0.566967 of unit cell:	Completed after 11 iterations at t[s]:  37368.24
	Linear fluid (dielectric constant: 78.4, screening length: 8.12261 Bohr) occupying 0.566967 of unit cell:	Completed after 10 iterations at t[s]:  37406.66
	FillingsUpdate:  mu: -0.244750000  nElectrons: 492.815979  magneticMoment: [ Abs: 0.00092  Tot: -0.00030 ]
	SubspaceRotationAdjust: set factor to 0.169
ElecMinimize: Iter:   6  G: -5127.316078140062018  |grad|_K:  1.428e-07  alpha:  1.413e-01  linmin:  1.391e-05  t[s]:  37465.50
	Linear fluid (dielectric constant: 78.4, screening length: 8.12261 Bohr) occupying 0.566967 of unit cell:	Completed after 10 iterations at t[s]:  37516.10
	Linear fluid (dielectric constant: 78.4, screening length: 8.12261 Bohr) occupying 0.566967 of unit cell:	Completed after 0 iterations at t[s]:  37552.41
	FillingsUpdate:  mu: -0.244750000  nElectrons: 492.814877  magneticMoment: [ Abs: 0.00112  Tot: -0.00028 ]
	SubspaceRotationAdjust: set factor to 0.137
ElecMinimize: Iter:   7  G: -5127.316078942561944  |grad|_K:  1.330e-07  alpha:  1.362e-01  linmin:  8.981e-05  t[s]:  37611.32
	Linear fluid (dielectric constant: 78.4, screening length: 8.12261 Bohr) occupying 0.566968 of unit cell:	Completed after 9 iterations at t[s]:  37661.71
	Linear fluid (dielectric constant: 78.4, screening length: 8.12261 Bohr) occupying 0.566968 of unit cell:	Completed after 6 iterations at t[s]:  37699.17
	FillingsUpdate:  mu: -0.244750000  nElectrons: 492.815449  magneticMoment: [ Abs: 0.00082  Tot: -0.00026 ]
	SubspaceRotationAdjust: set factor to 0.148
ElecMinimize: Iter:   8  G: -5127.316080026564123  |grad|_K:  1.105e-07  alpha:  2.149e-01  linmin: -2.266e-05  t[s]:  37758.05
	Linear fluid (dielectric constant: 78.4, screening length: 8.12261 Bohr) occupying 0.566969 of unit cell:	Completed after 2 iterations at t[s]:  37807.25
	Linear fluid (dielectric constant: 78.4, screening length: 8.12261 Bohr) occupying 0.566969 of unit cell:	Completed after 2 iterations at t[s]:  37844.14
	FillingsUpdate:  mu: -0.244750000  nElectrons: 492.815583  magneticMoment: [ Abs: 0.00065  Tot: -0.00024 ]
	SubspaceRotationAdjust: set factor to 0.172
ElecMinimize: Iter:   9  G: -5127.316080666199014  |grad|_K:  1.184e-07  alpha:  1.804e-01  linmin: -2.521e-06  t[s]:  37902.94
	Linear fluid (dielectric constant: 78.4, screening length: 8.12261 Bohr) occupying 0.566970 of unit cell:	Completed after 6 iterations at t[s]:  37952.89
	Linear fluid (dielectric constant: 78.4, screening length: 8.12261 Bohr) occupying 0.566970 of unit cell:	Completed after 2 iterations at t[s]:  37989.87
	FillingsUpdate:  mu: -0.244750000  nElectrons: 492.815320  magneticMoment: [ Abs: 0.00060  Tot: -0.00019 ]
	SubspaceRotationAdjust: set factor to 0.18
ElecMinimize: Iter:  10  G: -5127.316081724683499  |grad|_K:  9.034e-08  alpha:  2.602e-01  linmin: -8.398e-06  t[s]:  38049.34
	Linear fluid (dielectric constant: 78.4, screening length: 8.12261 Bohr) occupying 0.566971 of unit cell:	Completed after 8 iterations at t[s]:  38099.65
	Linear fluid (dielectric constant: 78.4, screening length: 8.12261 Bohr) occupying 0.566971 of unit cell:	Completed after 4 iterations at t[s]:  38137.09
	FillingsUpdate:  mu: -0.244750000  nElectrons: 492.815571  magneticMoment: [ Abs: 0.00064  Tot: -0.00017 ]
	SubspaceRotationAdjust: set factor to 0.184
ElecMinimize: Iter:  11  G: -5127.316082072774407  |grad|_K:  7.847e-08  alpha:  1.471e-01  linmin:  2.524e-05  t[s]:  38196.20
	Linear fluid (dielectric constant: 78.4, screening length: 8.12261 Bohr) occupying 0.566971 of unit cell:	Completed after 7 iterations at t[s]:  38246.31
	Linear fluid (dielectric constant: 78.4, screening length: 8.12261 Bohr) occupying 0.566972 of unit cell:	Completed after 7 iterations at t[s]:  38284.04
	FillingsUpdate:  mu: -0.244750000  nElectrons: 492.814967  magneticMoment: [ Abs: 0.00058  Tot: -0.00015 ]
	SubspaceRotationAdjust: set factor to 0.17
ElecMinimize: Iter:  12  G: -5127.316082571239349  |grad|_K:  9.104e-08  alpha:  2.690e-01  linmin: -2.171e-04  t[s]:  38342.88
	Linear fluid (dielectric constant: 78.4, screening length: 8.12261 Bohr) occupying 0.566973 of unit cell:	Completed after 10 iterations at t[s]:  38393.43
	Linear fluid (dielectric constant: 78.4, screening length: 8.12261 Bohr) occupying 0.566972 of unit cell:	Completed after 10 iterations at t[s]:  38431.74
	FillingsUpdate:  mu: -0.244750000  nElectrons: 492.815366  magneticMoment: [ Abs: 0.00059  Tot: -0.00015 ]
	SubspaceRotationAdjust: set factor to 0.134
ElecMinimize: Iter:  13  G: -5127.316082895985346  |grad|_K:  6.459e-08  alpha:  1.303e-01  linmin:  1.244e-05  t[s]:  38490.61
	Linear fluid (dielectric constant: 78.4, screening length: 8.12261 Bohr) occupying 0.566972 of unit cell:	Completed after 7 iterations at t[s]:  38540.70
	Linear fluid (dielectric constant: 78.4, screening length: 8.12261 Bohr) occupying 0.566973 of unit cell:	Completed after 0 iterations at t[s]:  38576.94
	FillingsUpdate:  mu: -0.244750000  nElectrons: 492.815098  magneticMoment: [ Abs: 0.00049  Tot: -0.00015 ]
	SubspaceRotationAdjust: set factor to 0.129
ElecMinimize: Iter:  14  G: -5127.316083078405427  |grad|_K:  5.310e-08  alpha:  1.503e-01  linmin: -8.747e-05  t[s]:  38636.61
	Linear fluid (dielectric constant: 78.4, screening length: 8.12261 Bohr) occupying 0.566973 of unit cell:	Completed after 2 iterations at t[s]:  38685.98
	Linear fluid (dielectric constant: 78.4, screening length: 8.12261 Bohr) occupying 0.566973 of unit cell:	Completed after 0 iterations at t[s]:  38722.24
	FillingsUpdate:  mu: -0.244750000  nElectrons: 492.815068  magneticMoment: [ Abs: 0.00043  Tot: -0.00015 ]
	SubspaceRotationAdjust: set factor to 0.141
ElecMinimize: Iter:  15  G: -5127.316083208382224  |grad|_K:  3.761e-08  alpha:  1.553e-01  linmin: -9.441e-05  t[s]:  38781.08
	Linear fluid (dielectric constant: 78.4, screening length: 8.12261 Bohr) occupying 0.566973 of unit cell:	Completed after 2 iterations at t[s]:  38830.34
	Linear fluid (dielectric constant: 78.4, screening length: 8.12261 Bohr) occupying 0.566973 of unit cell:	Completed after 0 iterations at t[s]:  38866.71
	FillingsUpdate:  mu: -0.244750000  nElectrons: 492.815249  magneticMoment: [ Abs: 0.00034  Tot: -0.00015 ]
	SubspaceRotationAdjust: set factor to 0.145
ElecMinimize: Iter:  16  G: -5127.316083274856283  |grad|_K:  3.387e-08  alpha:  1.591e-01  linmin: -2.472e-05  t[s]:  38925.47
	Linear fluid (dielectric constant: 78.4, screening length: 8.12261 Bohr) occupying 0.566973 of unit cell:	Completed after 2 iterations at t[s]:  38974.66
	Linear fluid (dielectric constant: 78.4, screening length: 8.12261 Bohr) occupying 0.566973 of unit cell:	Completed after 0 iterations at t[s]:  39011.63
	FillingsUpdate:  mu: -0.244750000  nElectrons: 492.815388  magneticMoment: [ Abs: 0.00026  Tot: -0.00016 ]
	SubspaceRotationAdjust: set factor to 0.144
ElecMinimize: Iter:  17  G: -5127.316083320081816  |grad|_K:  3.028e-08  alpha:  1.346e-01  linmin:  6.781e-04  t[s]:  39071.06
ElecMinimize: Converged (|Delta G|<1.000000e-07 for 2 iters).
Setting wave functions to eigenvectors of Hamiltonian
Converging empty states (this may take a while): |deigs|: 1.628e-08

Computing DFT-D3 correction:
# coordination-number Cu 7.038 9.086 8.399 9.074 9.152 9.124 9.139 9.149 9.120 8.328 4.747 9.111 5.513 9.118 9.130 9.128 9.152 9.134 9.078 9.151 9.067 8.393 4.743 8.332 7.035 5.515
# diagonal-C6 Cu 175.00 175.00 175.00 175.00 175.00 175.00 175.00 175.00 175.00 175.00 175.00 175.00 175.00 175.00 175.00 175.00 175.00 175.00 175.00 175.00 175.00 175.00 175.00 175.00 175.00 175.00
EvdW_6 =   -0.161300
EvdW_8 =   -0.239261

# Ionic positions in cartesian coordinates:
ion Cu   0.001961665501955   9.328903309235193  21.929135685927406 1
ion Cu  -0.001080395579494   3.753273737564099  18.249121532755069 1
ion Cu   3.371871832127417   6.548021234757332  20.157863085810220 1
ion Cu   3.370564856812472   0.950625652005859  16.348617680407344 1
ion Cu  -0.000592577318883   7.481530600791551  12.629795424123314 1
ion Cu  -0.000571396006468   1.864350361780324   8.887214751042462 1
ion Cu   3.371085209596661  10.294547067869813  14.502377979236764 1
ion Cu   3.370381024079524   4.664994436534146  10.735162785416057 1
ion Cu  -0.001229451313665  11.217138708881382   7.027051429281753 1
ion Cu  -0.000241561297183   5.606830239907011   3.193493682645804 1
ion Cu   0.002153592856160  -0.053354111432631  23.775312091003482 1
ion Cu   3.369966655597696   8.415387020153892   5.112663678839902 1
ion Cu   3.368468657479384   2.801148447072048   1.441975180712349 1
ion Cu   3.372071363207997  11.215366970461696  19.190745155475714 1
ion Cu   3.370157643361499   5.614167373486882  15.420364105955430 1
ion Cu   0.002224824972587   8.413391047536184  17.278286714222716 1
ion Cu  -0.001421439881657   2.813249216713321  13.572660716166588 1
ion Cu   3.370979758276397   9.336194980582716   9.805087939185690 1
ion Cu   3.369977871836793   3.725458691067404   6.055746889201934 1
ion Cu   3.371525655930763  -0.003370786702368  11.677441655650540 1
ion Cu  -0.000479238718957   6.527971053341787   7.957680684200659 1
ion Cu  -0.001445208144498   0.931426837531502   4.146772735067447 1
ion Cu   3.369924512981092   7.531396728607654   0.525941259025968 1
ion Cu   3.370208100113752   1.872293107361735  21.109856037110191 1
ion Cu  -0.000079466025588  10.302115816854784   2.374797726667999 1
ion Cu   0.000256509554239   4.677599258036698  22.861402394867184 1

# Forces in Cartesian coordinates:
force Cu   0.000009241063592  -0.000020649551016  -0.000190359004643 1
force Cu   0.000013798193171  -0.000226573256898  -0.000062771189702 1
force Cu  -0.000018792716367  -0.000064630283999  -0.000206611023816 1
force Cu  -0.000010306385698  -0.000056113561358   0.000201013829699 1
force Cu   0.000007748312519   0.000039305844627   0.000023743089976 1
force Cu   0.000018776827296  -0.000081203465475   0.000171920476418 1
force Cu   0.000001934033995  -0.000016523302767   0.000043316307744 1
force Cu  -0.000024461769758  -0.000026307439552  -0.000068892773488 1
force Cu  -0.000021007513256  -0.000162684366447   0.000324333469623 1
force Cu  -0.000018679881901   0.000163518779603   0.000290756698551 1
force Cu   0.000021771789563  -0.000287174856736  -0.000168827880523 1
force Cu   0.000024076872718  -0.000143420867329   0.000215170970415 1
force Cu   0.000004942190597   0.000016210114150   0.000116843515155 1
force Cu  -0.000002750477977   0.000164125925043  -0.000166271766455 1
force Cu  -0.000027929679818   0.000075726484779  -0.000216300903794 1
force Cu   0.000013977663410   0.000192300258523  -0.000280171401122 1
force Cu   0.000024159928798   0.000028360837726   0.000066959709062 1
force Cu   0.000011780346684   0.000017356192204  -0.000099788445054 1
force Cu   0.000004696650192   0.000210718949238   0.000125128137780 1
force Cu  -0.000032121978183  -0.000045892485676   0.000026036519118 1
force Cu  -0.000011136276394   0.000053528573489  -0.000188712180657 1
force Cu   0.000007723350351   0.000030281754822   0.000226316139768 1
force Cu   0.000002591518027   0.000250521443620   0.000185034981405 1
force Cu   0.000006349045123  -0.000166444669681  -0.000312477586673 1
force Cu  -0.000014457576551   0.000020933292591   0.000178839163739 1
force Cu   0.000023451978064   0.000021308551677  -0.000127064586649 1

# Energy components:
   A_diel =        0.0565944843832792
   Eewald =    47457.7647190434363438
       EH =    52171.2657641269906890
     Eloc =  -105862.5047067869454622
      Enl =      952.3342858487657168
     EvdW =       -0.4005607034472880
      Exc =     -504.3786572561073172
 Exc_core =        1.2212170487564347
       KE =      536.6121934302170757
  MuShift =        0.0972054487913104
-------------------------------------
     Etot =    -5247.9319453151583730
       TS =        0.0007041927721780
-------------------------------------
        F =    -5247.9326495079303641
      muN =     -120.6165661878486048
-------------------------------------
        G =    -5127.3160833200818161


Dumping 'jdft.fillings' ... done
Dumping 'jdft.wfns' ... done
Dumping 'jdft.fluidState' ... done
Dumping 'jdft.ionpos' ... done
Dumping 'jdft.lattice' ... done
Dumping 'jdft.eigenvals' ... done
Dumping 'jdft.eigStats' ... 
	eMin: -4.385410 at state 19 ( [ +0.000000 +0.000000 +0.000000 ] spin -1 )
	HOMO: -0.244778 at state 20 ( [ +0.000000 +0.250000 +0.000000 ] spin -1 )
	mu  : -0.244750
	LUMO: -0.244689 at state 11 ( [ +0.333333 +0.000000 +0.000000 ] spin 1 )
	eMax: +0.160633 at state 37 ( [ +0.444444 -0.250000 +0.000000 ] spin -1 )
	HOMO-LUMO gap: +0.000089
	Optical gap  : +0.003661 at state 17 ( [ +0.444444 +0.500000 +0.000000 ] spin 1 )
Dumping 'jdft.Ecomponents' ... done
IonicMinimize: Iter:   4  G: -5127.316083320081816  |grad|_K:  1.307e-04  alpha:  1.000e+00  linmin: -5.259e-01  t[s]:  39214.52
IonicMinimize: Converged (|Delta G|<1.000000e-04 for 2 iters).

#--- Lowdin population analysis ---
# oxidation-state Cu +0.140 +0.070 +0.046 +0.075 +0.077 +0.074 +0.076 +0.077 +0.073 +0.025 +0.501 +0.047 +0.378 +0.047 +0.074 +0.073 +0.077 +0.075 +0.070 +0.077 +0.075 +0.046 +0.501 +0.025 +0.140 +0.378
# magnetic-moments Cu -0.000 +0.000 -0.000 +0.000 +0.000 +0.000 +0.000 +0.000 -0.000 -0.000 -0.000 -0.000 -0.000 +0.000 +0.000 +0.000 +0.000 +0.000 -0.000 +0.000 -0.000 -0.000 -0.000 -0.000 -0.000 -0.000


Dumping 'jdft.n_up' ... done
Dumping 'jdft.n_dn' ... done
Dumping 'jdft.tau_up' ... done
Dumping 'jdft.tau_dn' ... done
Dumping 'jdft.eigenvals' ... done
Dumping 'jdft.eigStats' ... 
	eMin: -4.385410 at state 19 ( [ +0.000000 +0.000000 +0.000000 ] spin -1 )
	HOMO: -0.244778 at state 20 ( [ +0.000000 +0.250000 +0.000000 ] spin -1 )
	mu  : -0.244750
	LUMO: -0.244689 at state 11 ( [ +0.333333 +0.000000 +0.000000 ] spin 1 )
	eMax: +0.160633 at state 37 ( [ +0.444444 -0.250000 +0.000000 ] spin -1 )
	HOMO-LUMO gap: +0.000089
	Optical gap  : +0.003661 at state 17 ( [ +0.444444 +0.500000 +0.000000 ] spin 1 )
Dumping 'jdft.kPts' ... done
Dumping 'jdft.kMap' ... done
Dumping 'jdft.dosUp' ... done.
Dumping 'jdft.dosDn' ... done.
End date and time: Fri Sep  9 17:57:10 2022  (Duration: 0-10:55:03.25)
Done!

PROFILER:             augmentDensityGrid    10.424621 +/-     0.693533 s,  492 calls,   5128.913751 s total
PROFILER:         augmentDensityGridGrad     0.454402 +/-     0.101947 s,  255 calls,    115.872621 s total
PROFILER:        augmentDensitySpherical     0.004155 +/-     0.000319 s,  492 calls,      2.044269 s total
PROFILER:    augmentDensitySphericalGrad     0.005145 +/-     0.001404 s,  303 calls,      1.558787 s total
PROFILER:                 augmentOverlap     4.438089 +/-     0.675429 s,  941 calls,   4176.241609 s total
PROFILER:        ColumnBundle::randomize     0.001675 +/-     0.000000 s,    1 calls,      0.001675 s total
PROFILER:                     diagouterI     9.573596 +/-     0.706291 s,  495 calls,   4738.930191 s total
PROFILER:              EdensityAndVscloc     2.605745 +/-     1.977845 s,  493 calls,   1284.632252 s total
PROFILER:                     EnlAndGrad     0.022954 +/-     0.005969 s,  479 calls,     10.994815 s total
PROFILER:            ExCorrCommunication     0.035825 +/-     0.298567 s, 3026 calls,    108.407186 s total
PROFILER:               ExCorrFunctional     0.006152 +/-     0.000893 s,  512 calls,      3.149800 s total
PROFILER:                    ExCorrTotal     0.294268 +/-     0.702298 s,  512 calls,    150.665352 s total
PROFILER:                   Idag_DiagV_I    17.349177 +/-     5.210373 s,  297 calls,   5152.705627 s total
PROFILER:                    initWeights     2.038917 +/-     0.000000 s,    1 calls,      2.038917 s total
PROFILER:                    inv(matrix)     0.016501 +/-     0.000993 s,  420 calls,      6.930370 s total
PROFILER:            matrix::diagonalize     0.050662 +/-     0.022621 s,  787 calls,     39.870697 s total
PROFILER:                    matrix::set     0.000016 +/-     0.000015 s, 20684 calls,      0.325278 s total
PROFILER:            orthoMatrix(matrix)     0.009796 +/-     0.004761 s,  464 calls,      4.545483 s total
PROFILER:     RadialFunctionR::transform     0.388003 +/-     2.073159 s,   58 calls,     22.504187 s total
PROFILER:                    reduceKmesh     0.000019 +/-     0.000000 s,    1 calls,      0.000019 s total
PROFILER:   VanDerWaalsD3::energyAndGrad     0.015295 +/-     0.000728 s,   13 calls,      0.198833 s total
PROFILER:               WavefunctionDrag    27.646794 +/-     5.448366 s,    6 calls,    165.880766 s total
PROFILER:                            Y*M     1.582425 +/-     0.459669 s, 3177 calls,   5027.362841 s total
PROFILER:                          Y1^Y2     1.578917 +/-     0.548882 s, 2032 calls,   3208.359757 s total

MEMUSAGE:                   ColumnBundle     0.742828 GB
MEMUSAGE:        complexScalarFieldTilde     0.013518 GB
MEMUSAGE:                    IndexArrays     0.014452 GB
MEMUSAGE:                         matrix     0.061000 GB
MEMUSAGE:                           misc     0.013599 GB
MEMUSAGE:                    ScalarField     0.098008 GB
MEMUSAGE:               ScalarFieldTilde     0.071444 GB
MEMUSAGE:                          Total     0.848749 GB
