
*************** JDFTx 1.6.0  ***************

Start date and time: Thu Feb 17 03:03:38 2022
Executable /projects/musgravc/apps/jdftx-1.6.1/build/jdftx with command-line: -i in
Running on hosts (process indices):  shas0522.rc.int.colorado.edu (0-23)
Divided in process groups (process indices):  0 (0)  1 (1)  2 (2)  3 (3)  4 (4)  5 (5)  6 (6)  7 (7)  8 (8)  9 (9)  10 (10)  11 (11)  12 (12)  13 (13)  14 (14)  15 (15)  16 (16)  17 (17)  18 (18)  19 (19)  20 (20)  21 (21)  22 (22)  23 (23)
Resource initialization completed at t[s]:      0.00
Run totals: 24 processes, 24 threads, 0 GPUs


Input parsed successfully to the following command list (including defaults):

basis kpoint-dependent
converge-empty-states yes
coords-type Cartesian
core-overlap-check none
coulomb-interaction Periodic
davidson-band-ratio 1.1
density-of-states Etol 1.000000e-06 Esigma 1.000000e-03 \
		Complete \
	Total \
	OrthoOrbital Pt 1   s \
	OrthoOrbital Pt 1   p \
	OrthoOrbital Pt 1   px \
	OrthoOrbital Pt 1   py \
	OrthoOrbital Pt 1   pz \
	OrthoOrbital Pt 1   d \
	OrthoOrbital Pt 1   dxy \
	OrthoOrbital Pt 1   dyz \
	OrthoOrbital Pt 1   dz2 \
	OrthoOrbital Pt 1   dxz \
	OrthoOrbital Pt 1   dx2-y2 \
	OrthoOrbital Pt 2   s \
	OrthoOrbital Pt 2   p \
	OrthoOrbital Pt 2   px \
	OrthoOrbital Pt 2   py \
	OrthoOrbital Pt 2   pz \
	OrthoOrbital Pt 2   d \
	OrthoOrbital Pt 2   dxy \
	OrthoOrbital Pt 2   dyz \
	OrthoOrbital Pt 2   dz2 \
	OrthoOrbital Pt 2   dxz \
	OrthoOrbital Pt 2   dx2-y2 \
	OrthoOrbital Pt 3   s \
	OrthoOrbital Pt 3   p \
	OrthoOrbital Pt 3   px \
	OrthoOrbital Pt 3   py \
	OrthoOrbital Pt 3   pz \
	OrthoOrbital Pt 3   d \
	OrthoOrbital Pt 3   dxy \
	OrthoOrbital Pt 3   dyz \
	OrthoOrbital Pt 3   dz2 \
	OrthoOrbital Pt 3   dxz \
	OrthoOrbital Pt 3   dx2-y2 \
	OrthoOrbital Pt 4   s \
	OrthoOrbital Pt 4   p \
	OrthoOrbital Pt 4   px \
	OrthoOrbital Pt 4   py \
	OrthoOrbital Pt 4   pz \
	OrthoOrbital Pt 4   d \
	OrthoOrbital Pt 4   dxy \
	OrthoOrbital Pt 4   dyz \
	OrthoOrbital Pt 4   dz2 \
	OrthoOrbital Pt 4   dxz \
	OrthoOrbital Pt 4   dx2-y2 \
	OrthoOrbital Pt 5   s \
	OrthoOrbital Pt 5   p \
	OrthoOrbital Pt 5   px \
	OrthoOrbital Pt 5   py \
	OrthoOrbital Pt 5   pz \
	OrthoOrbital Pt 5   d \
	OrthoOrbital Pt 5   dxy \
	OrthoOrbital Pt 5   dyz \
	OrthoOrbital Pt 5   dz2 \
	OrthoOrbital Pt 5   dxz \
	OrthoOrbital Pt 5   dx2-y2 \
	OrthoOrbital Pt 6   s \
	OrthoOrbital Pt 6   p \
	OrthoOrbital Pt 6   px \
	OrthoOrbital Pt 6   py \
	OrthoOrbital Pt 6   pz \
	OrthoOrbital Pt 6   d \
	OrthoOrbital Pt 6   dxy \
	OrthoOrbital Pt 6   dyz \
	OrthoOrbital Pt 6   dz2 \
	OrthoOrbital Pt 6   dxz \
	OrthoOrbital Pt 6   dx2-y2 \
	OrthoOrbital Pt 7   s \
	OrthoOrbital Pt 7   p \
	OrthoOrbital Pt 7   px \
	OrthoOrbital Pt 7   py \
	OrthoOrbital Pt 7   pz \
	OrthoOrbital Pt 7   d \
	OrthoOrbital Pt 7   dxy \
	OrthoOrbital Pt 7   dyz \
	OrthoOrbital Pt 7   dz2 \
	OrthoOrbital Pt 7   dxz \
	OrthoOrbital Pt 7   dx2-y2 \
	OrthoOrbital Pt 8   s \
	OrthoOrbital Pt 8   p \
	OrthoOrbital Pt 8   px \
	OrthoOrbital Pt 8   py \
	OrthoOrbital Pt 8   pz \
	OrthoOrbital Pt 8   d \
	OrthoOrbital Pt 8   dxy \
	OrthoOrbital Pt 8   dyz \
	OrthoOrbital Pt 8   dz2 \
	OrthoOrbital Pt 8   dxz \
	OrthoOrbital Pt 8   dx2-y2 \
	OrthoOrbital Pt 9   s \
	OrthoOrbital Pt 9   p \
	OrthoOrbital Pt 9   px \
	OrthoOrbital Pt 9   py \
	OrthoOrbital Pt 9   pz \
	OrthoOrbital Pt 9   d \
	OrthoOrbital Pt 9   dxy \
	OrthoOrbital Pt 9   dyz \
	OrthoOrbital Pt 9   dz2 \
	OrthoOrbital Pt 9   dxz \
	OrthoOrbital Pt 9   dx2-y2 \
	OrthoOrbital Pt 10   s \
	OrthoOrbital Pt 10   p \
	OrthoOrbital Pt 10   px \
	OrthoOrbital Pt 10   py \
	OrthoOrbital Pt 10   pz \
	OrthoOrbital Pt 10   d \
	OrthoOrbital Pt 10   dxy \
	OrthoOrbital Pt 10   dyz \
	OrthoOrbital Pt 10   dz2 \
	OrthoOrbital Pt 10   dxz \
	OrthoOrbital Pt 10   dx2-y2 \
	OrthoOrbital Pt 11   s \
	OrthoOrbital Pt 11   p \
	OrthoOrbital Pt 11   px \
	OrthoOrbital Pt 11   py \
	OrthoOrbital Pt 11   pz \
	OrthoOrbital Pt 11   d \
	OrthoOrbital Pt 11   dxy \
	OrthoOrbital Pt 11   dyz \
	OrthoOrbital Pt 11   dz2 \
	OrthoOrbital Pt 11   dxz \
	OrthoOrbital Pt 11   dx2-y2 \
	OrthoOrbital Pt 12   s \
	OrthoOrbital Pt 12   p \
	OrthoOrbital Pt 12   px \
	OrthoOrbital Pt 12   py \
	OrthoOrbital Pt 12   pz \
	OrthoOrbital Pt 12   d \
	OrthoOrbital Pt 12   dxy \
	OrthoOrbital Pt 12   dyz \
	OrthoOrbital Pt 12   dz2 \
	OrthoOrbital Pt 12   dxz \
	OrthoOrbital Pt 12   dx2-y2 \
	OrthoOrbital Pt 13   s \
	OrthoOrbital Pt 13   p \
	OrthoOrbital Pt 13   px \
	OrthoOrbital Pt 13   py \
	OrthoOrbital Pt 13   pz \
	OrthoOrbital Pt 13   d \
	OrthoOrbital Pt 13   dxy \
	OrthoOrbital Pt 13   dyz \
	OrthoOrbital Pt 13   dz2 \
	OrthoOrbital Pt 13   dxz \
	OrthoOrbital Pt 13   dx2-y2 \
	OrthoOrbital Pt 14   s \
	OrthoOrbital Pt 14   p \
	OrthoOrbital Pt 14   px \
	OrthoOrbital Pt 14   py \
	OrthoOrbital Pt 14   pz \
	OrthoOrbital Pt 14   d \
	OrthoOrbital Pt 14   dxy \
	OrthoOrbital Pt 14   dyz \
	OrthoOrbital Pt 14   dz2 \
	OrthoOrbital Pt 14   dxz \
	OrthoOrbital Pt 14   dx2-y2 \
	OrthoOrbital Pt 15   s \
	OrthoOrbital Pt 15   p \
	OrthoOrbital Pt 15   px \
	OrthoOrbital Pt 15   py \
	OrthoOrbital Pt 15   pz \
	OrthoOrbital Pt 15   d \
	OrthoOrbital Pt 15   dxy \
	OrthoOrbital Pt 15   dyz \
	OrthoOrbital Pt 15   dz2 \
	OrthoOrbital Pt 15   dxz \
	OrthoOrbital Pt 15   dx2-y2 \
	OrthoOrbital Pt 16   s \
	OrthoOrbital Pt 16   p \
	OrthoOrbital Pt 16   px \
	OrthoOrbital Pt 16   py \
	OrthoOrbital Pt 16   pz \
	OrthoOrbital Pt 16   d \
	OrthoOrbital Pt 16   dxy \
	OrthoOrbital Pt 16   dyz \
	OrthoOrbital Pt 16   dz2 \
	OrthoOrbital Pt 16   dxz \
	OrthoOrbital Pt 16   dx2-y2 \
	OrthoOrbital Pt 17   s \
	OrthoOrbital Pt 17   p \
	OrthoOrbital Pt 17   px \
	OrthoOrbital Pt 17   py \
	OrthoOrbital Pt 17   pz \
	OrthoOrbital Pt 17   d \
	OrthoOrbital Pt 17   dxy \
	OrthoOrbital Pt 17   dyz \
	OrthoOrbital Pt 17   dz2 \
	OrthoOrbital Pt 17   dxz \
	OrthoOrbital Pt 17   dx2-y2 \
	OrthoOrbital Pt 18   s \
	OrthoOrbital Pt 18   p \
	OrthoOrbital Pt 18   px \
	OrthoOrbital Pt 18   py \
	OrthoOrbital Pt 18   pz \
	OrthoOrbital Pt 18   d \
	OrthoOrbital Pt 18   dxy \
	OrthoOrbital Pt 18   dyz \
	OrthoOrbital Pt 18   dz2 \
	OrthoOrbital Pt 18   dxz \
	OrthoOrbital Pt 18   dx2-y2 \
	OrthoOrbital Pt 19   s \
	OrthoOrbital Pt 19   p \
	OrthoOrbital Pt 19   px \
	OrthoOrbital Pt 19   py \
	OrthoOrbital Pt 19   pz \
	OrthoOrbital Pt 19   d \
	OrthoOrbital Pt 19   dxy \
	OrthoOrbital Pt 19   dyz \
	OrthoOrbital Pt 19   dz2 \
	OrthoOrbital Pt 19   dxz \
	OrthoOrbital Pt 19   dx2-y2 \
	OrthoOrbital Pt 20   s \
	OrthoOrbital Pt 20   p \
	OrthoOrbital Pt 20   px \
	OrthoOrbital Pt 20   py \
	OrthoOrbital Pt 20   pz \
	OrthoOrbital Pt 20   d \
	OrthoOrbital Pt 20   dxy \
	OrthoOrbital Pt 20   dyz \
	OrthoOrbital Pt 20   dz2 \
	OrthoOrbital Pt 20   dxz \
	OrthoOrbital Pt 20   dx2-y2 \
	OrthoOrbital Pt 21   s \
	OrthoOrbital Pt 21   p \
	OrthoOrbital Pt 21   px \
	OrthoOrbital Pt 21   py \
	OrthoOrbital Pt 21   pz \
	OrthoOrbital Pt 21   d \
	OrthoOrbital Pt 21   dxy \
	OrthoOrbital Pt 21   dyz \
	OrthoOrbital Pt 21   dz2 \
	OrthoOrbital Pt 21   dxz \
	OrthoOrbital Pt 21   dx2-y2 \
	OrthoOrbital Pt 22   s \
	OrthoOrbital Pt 22   p \
	OrthoOrbital Pt 22   px \
	OrthoOrbital Pt 22   py \
	OrthoOrbital Pt 22   pz \
	OrthoOrbital Pt 22   d \
	OrthoOrbital Pt 22   dxy \
	OrthoOrbital Pt 22   dyz \
	OrthoOrbital Pt 22   dz2 \
	OrthoOrbital Pt 22   dxz \
	OrthoOrbital Pt 22   dx2-y2 \
	OrthoOrbital Pt 23   s \
	OrthoOrbital Pt 23   p \
	OrthoOrbital Pt 23   px \
	OrthoOrbital Pt 23   py \
	OrthoOrbital Pt 23   pz \
	OrthoOrbital Pt 23   d \
	OrthoOrbital Pt 23   dxy \
	OrthoOrbital Pt 23   dyz \
	OrthoOrbital Pt 23   dz2 \
	OrthoOrbital Pt 23   dxz \
	OrthoOrbital Pt 23   dx2-y2 \
	OrthoOrbital Pt 24   s \
	OrthoOrbital Pt 24   p \
	OrthoOrbital Pt 24   px \
	OrthoOrbital Pt 24   py \
	OrthoOrbital Pt 24   pz \
	OrthoOrbital Pt 24   d \
	OrthoOrbital Pt 24   dxy \
	OrthoOrbital Pt 24   dyz \
	OrthoOrbital Pt 24   dz2 \
	OrthoOrbital Pt 24   dxz \
	OrthoOrbital Pt 24   dx2-y2 \
	OrthoOrbital Pt 25   s \
	OrthoOrbital Pt 25   p \
	OrthoOrbital Pt 25   px \
	OrthoOrbital Pt 25   py \
	OrthoOrbital Pt 25   pz \
	OrthoOrbital Pt 25   d \
	OrthoOrbital Pt 25   dxy \
	OrthoOrbital Pt 25   dyz \
	OrthoOrbital Pt 25   dz2 \
	OrthoOrbital Pt 25   dxz \
	OrthoOrbital Pt 25   dx2-y2 \
	OrthoOrbital Pt 26   s \
	OrthoOrbital Pt 26   p \
	OrthoOrbital Pt 26   px \
	OrthoOrbital Pt 26   py \
	OrthoOrbital Pt 26   pz \
	OrthoOrbital Pt 26   d \
	OrthoOrbital Pt 26   dxy \
	OrthoOrbital Pt 26   dyz \
	OrthoOrbital Pt 26   dz2 \
	OrthoOrbital Pt 26   dxz \
	OrthoOrbital Pt 26   dx2-y2 \
	OrthoOrbital Pt 27   s \
	OrthoOrbital Pt 27   p \
	OrthoOrbital Pt 27   px \
	OrthoOrbital Pt 27   py \
	OrthoOrbital Pt 27   pz \
	OrthoOrbital Pt 27   d \
	OrthoOrbital Pt 27   dxy \
	OrthoOrbital Pt 27   dyz \
	OrthoOrbital Pt 27   dz2 \
	OrthoOrbital Pt 27   dxz \
	OrthoOrbital Pt 27   dx2-y2 \
	OrthoOrbital Pt 28   s \
	OrthoOrbital Pt 28   p \
	OrthoOrbital Pt 28   px \
	OrthoOrbital Pt 28   py \
	OrthoOrbital Pt 28   pz \
	OrthoOrbital Pt 28   d \
	OrthoOrbital Pt 28   dxy \
	OrthoOrbital Pt 28   dyz \
	OrthoOrbital Pt 28   dz2 \
	OrthoOrbital Pt 28   dxz \
	OrthoOrbital Pt 28   dx2-y2 \
	OrthoOrbital Pt 29   s \
	OrthoOrbital Pt 29   p \
	OrthoOrbital Pt 29   px \
	OrthoOrbital Pt 29   py \
	OrthoOrbital Pt 29   pz \
	OrthoOrbital Pt 29   d \
	OrthoOrbital Pt 29   dxy \
	OrthoOrbital Pt 29   dyz \
	OrthoOrbital Pt 29   dz2 \
	OrthoOrbital Pt 29   dxz \
	OrthoOrbital Pt 29   dx2-y2 \
	OrthoOrbital Pt 30   s \
	OrthoOrbital Pt 30   p \
	OrthoOrbital Pt 30   px \
	OrthoOrbital Pt 30   py \
	OrthoOrbital Pt 30   pz \
	OrthoOrbital Pt 30   d \
	OrthoOrbital Pt 30   dxy \
	OrthoOrbital Pt 30   dyz \
	OrthoOrbital Pt 30   dz2 \
	OrthoOrbital Pt 30   dxz \
	OrthoOrbital Pt 30   dx2-y2 \
	OrthoOrbital Pt 31   s \
	OrthoOrbital Pt 31   p \
	OrthoOrbital Pt 31   px \
	OrthoOrbital Pt 31   py \
	OrthoOrbital Pt 31   pz \
	OrthoOrbital Pt 31   d \
	OrthoOrbital Pt 31   dxy \
	OrthoOrbital Pt 31   dyz \
	OrthoOrbital Pt 31   dz2 \
	OrthoOrbital Pt 31   dxz \
	OrthoOrbital Pt 31   dx2-y2 \
	OrthoOrbital Pt 32   s \
	OrthoOrbital Pt 32   p \
	OrthoOrbital Pt 32   px \
	OrthoOrbital Pt 32   py \
	OrthoOrbital Pt 32   pz \
	OrthoOrbital Pt 32   d \
	OrthoOrbital Pt 32   dxy \
	OrthoOrbital Pt 32   dyz \
	OrthoOrbital Pt 32   dz2 \
	OrthoOrbital Pt 32   dxz \
	OrthoOrbital Pt 32   dx2-y2 \
	OrthoOrbital Pt 33   s \
	OrthoOrbital Pt 33   p \
	OrthoOrbital Pt 33   px \
	OrthoOrbital Pt 33   py \
	OrthoOrbital Pt 33   pz \
	OrthoOrbital Pt 33   d \
	OrthoOrbital Pt 33   dxy \
	OrthoOrbital Pt 33   dyz \
	OrthoOrbital Pt 33   dz2 \
	OrthoOrbital Pt 33   dxz \
	OrthoOrbital Pt 33   dx2-y2 \
	OrthoOrbital Pt 34   s \
	OrthoOrbital Pt 34   p \
	OrthoOrbital Pt 34   px \
	OrthoOrbital Pt 34   py \
	OrthoOrbital Pt 34   pz \
	OrthoOrbital Pt 34   d \
	OrthoOrbital Pt 34   dxy \
	OrthoOrbital Pt 34   dyz \
	OrthoOrbital Pt 34   dz2 \
	OrthoOrbital Pt 34   dxz \
	OrthoOrbital Pt 34   dx2-y2 \
	OrthoOrbital Pt 35   s \
	OrthoOrbital Pt 35   p \
	OrthoOrbital Pt 35   px \
	OrthoOrbital Pt 35   py \
	OrthoOrbital Pt 35   pz \
	OrthoOrbital Pt 35   d \
	OrthoOrbital Pt 35   dxy \
	OrthoOrbital Pt 35   dyz \
	OrthoOrbital Pt 35   dz2 \
	OrthoOrbital Pt 35   dxz \
	OrthoOrbital Pt 35   dx2-y2 \
	OrthoOrbital Pt 36   s \
	OrthoOrbital Pt 36   p \
	OrthoOrbital Pt 36   px \
	OrthoOrbital Pt 36   py \
	OrthoOrbital Pt 36   pz \
	OrthoOrbital Pt 36   d \
	OrthoOrbital Pt 36   dxy \
	OrthoOrbital Pt 36   dyz \
	OrthoOrbital Pt 36   dz2 \
	OrthoOrbital Pt 36   dxz \
	OrthoOrbital Pt 36   dx2-y2 \
	OrthoOrbital Pt 37   s \
	OrthoOrbital Pt 37   p \
	OrthoOrbital Pt 37   px \
	OrthoOrbital Pt 37   py \
	OrthoOrbital Pt 37   pz \
	OrthoOrbital Pt 37   d \
	OrthoOrbital Pt 37   dxy \
	OrthoOrbital Pt 37   dyz \
	OrthoOrbital Pt 37   dz2 \
	OrthoOrbital Pt 37   dxz \
	OrthoOrbital Pt 37   dx2-y2 \
	OrthoOrbital Pt 38   s \
	OrthoOrbital Pt 38   p \
	OrthoOrbital Pt 38   px \
	OrthoOrbital Pt 38   py \
	OrthoOrbital Pt 38   pz \
	OrthoOrbital Pt 38   d \
	OrthoOrbital Pt 38   dxy \
	OrthoOrbital Pt 38   dyz \
	OrthoOrbital Pt 38   dz2 \
	OrthoOrbital Pt 38   dxz \
	OrthoOrbital Pt 38   dx2-y2 \
	OrthoOrbital Pt 39   s \
	OrthoOrbital Pt 39   p \
	OrthoOrbital Pt 39   px \
	OrthoOrbital Pt 39   py \
	OrthoOrbital Pt 39   pz \
	OrthoOrbital Pt 39   d \
	OrthoOrbital Pt 39   dxy \
	OrthoOrbital Pt 39   dyz \
	OrthoOrbital Pt 39   dz2 \
	OrthoOrbital Pt 39   dxz \
	OrthoOrbital Pt 39   dx2-y2 \
	OrthoOrbital Pt 40   s \
	OrthoOrbital Pt 40   p \
	OrthoOrbital Pt 40   px \
	OrthoOrbital Pt 40   py \
	OrthoOrbital Pt 40   pz \
	OrthoOrbital Pt 40   d \
	OrthoOrbital Pt 40   dxy \
	OrthoOrbital Pt 40   dyz \
	OrthoOrbital Pt 40   dz2 \
	OrthoOrbital Pt 40   dxz \
	OrthoOrbital Pt 40   dx2-y2 \
	OrthoOrbital Pt 41   s \
	OrthoOrbital Pt 41   p \
	OrthoOrbital Pt 41   px \
	OrthoOrbital Pt 41   py \
	OrthoOrbital Pt 41   pz \
	OrthoOrbital Pt 41   d \
	OrthoOrbital Pt 41   dxy \
	OrthoOrbital Pt 41   dyz \
	OrthoOrbital Pt 41   dz2 \
	OrthoOrbital Pt 41   dxz \
	OrthoOrbital Pt 41   dx2-y2 \
	OrthoOrbital Pt 42   s \
	OrthoOrbital Pt 42   p \
	OrthoOrbital Pt 42   px \
	OrthoOrbital Pt 42   py \
	OrthoOrbital Pt 42   pz \
	OrthoOrbital Pt 42   d \
	OrthoOrbital Pt 42   dxy \
	OrthoOrbital Pt 42   dyz \
	OrthoOrbital Pt 42   dz2 \
	OrthoOrbital Pt 42   dxz \
	OrthoOrbital Pt 42   dx2-y2 \
	OrthoOrbital Pt 43   s \
	OrthoOrbital Pt 43   p \
	OrthoOrbital Pt 43   px \
	OrthoOrbital Pt 43   py \
	OrthoOrbital Pt 43   pz \
	OrthoOrbital Pt 43   d \
	OrthoOrbital Pt 43   dxy \
	OrthoOrbital Pt 43   dyz \
	OrthoOrbital Pt 43   dz2 \
	OrthoOrbital Pt 43   dxz \
	OrthoOrbital Pt 43   dx2-y2 \
	OrthoOrbital Pt 44   s \
	OrthoOrbital Pt 44   p \
	OrthoOrbital Pt 44   px \
	OrthoOrbital Pt 44   py \
	OrthoOrbital Pt 44   pz \
	OrthoOrbital Pt 44   d \
	OrthoOrbital Pt 44   dxy \
	OrthoOrbital Pt 44   dyz \
	OrthoOrbital Pt 44   dz2 \
	OrthoOrbital Pt 44   dxz \
	OrthoOrbital Pt 44   dx2-y2 \
	OrthoOrbital Pt 45   s \
	OrthoOrbital Pt 45   p \
	OrthoOrbital Pt 45   px \
	OrthoOrbital Pt 45   py \
	OrthoOrbital Pt 45   pz \
	OrthoOrbital Pt 45   d \
	OrthoOrbital Pt 45   dxy \
	OrthoOrbital Pt 45   dyz \
	OrthoOrbital Pt 45   dz2 \
	OrthoOrbital Pt 45   dxz \
	OrthoOrbital Pt 45   dx2-y2 \
	OrthoOrbital Pt 46   s \
	OrthoOrbital Pt 46   p \
	OrthoOrbital Pt 46   px \
	OrthoOrbital Pt 46   py \
	OrthoOrbital Pt 46   pz \
	OrthoOrbital Pt 46   d \
	OrthoOrbital Pt 46   dxy \
	OrthoOrbital Pt 46   dyz \
	OrthoOrbital Pt 46   dz2 \
	OrthoOrbital Pt 46   dxz \
	OrthoOrbital Pt 46   dx2-y2 \
	OrthoOrbital Pt 47   s \
	OrthoOrbital Pt 47   p \
	OrthoOrbital Pt 47   px \
	OrthoOrbital Pt 47   py \
	OrthoOrbital Pt 47   pz \
	OrthoOrbital Pt 47   d \
	OrthoOrbital Pt 47   dxy \
	OrthoOrbital Pt 47   dyz \
	OrthoOrbital Pt 47   dz2 \
	OrthoOrbital Pt 47   dxz \
	OrthoOrbital Pt 47   dx2-y2 \
	OrthoOrbital Pt 48   s \
	OrthoOrbital Pt 48   p \
	OrthoOrbital Pt 48   px \
	OrthoOrbital Pt 48   py \
	OrthoOrbital Pt 48   pz \
	OrthoOrbital Pt 48   d \
	OrthoOrbital Pt 48   dxy \
	OrthoOrbital Pt 48   dyz \
	OrthoOrbital Pt 48   dz2 \
	OrthoOrbital Pt 48   dxz \
	OrthoOrbital Pt 48   dx2-y2 \
	OrthoOrbital C 1   s \
	OrthoOrbital C 1   p \
	OrthoOrbital C 1   px \
	OrthoOrbital C 1   py \
	OrthoOrbital C 1   pz \
	OrthoOrbital O 1   s \
	OrthoOrbital O 1   p \
	OrthoOrbital O 1   px \
	OrthoOrbital O 1   py \
	OrthoOrbital O 1   pz
dump End ElecDensity KEdensity BandEigs EigStats RhoAtom DOS Kpoints
dump Ionic State IonicPositions Lattice EigStats Ecomponents
dump 
dump 
dump 
dump 
dump 
dump 
dump 
dump 
dump-name jdft.$VAR
elec-cutoff 20
elec-eigen-algo Davidson
elec-ex-corr gga-PBE
elec-initial-magnetization 0.000000 no
elec-n-bands 467
elec-smearing Fermi 0.001
electronic-minimize  \
	dirUpdateScheme      FletcherReeves \
	linminMethod         DirUpdateRecommended \
	nIterations          100 \
	history              15 \
	knormThreshold       0 \
	energyDiffThreshold  1e-07 \
	nEnergyDiff          2 \
	alphaTstart          1 \
	alphaTmin            1e-10 \
	updateTestStepSize   yes \
	alphaTreduceFactor   0.1 \
	alphaTincreaseFactor 3 \
	nAlphaAdjustMax      3 \
	wolfeEnergy          0.0001 \
	wolfeGradient        0.9 \
	fdTest               no
exchange-regularization WignerSeitzTruncated
fluid LinearPCM 298.000000 1.013250
fluid-anion F- 0.5 MeanFieldLJ \
	epsBulk 1 \
	pMol 0 \
	epsInf 1 \
	Pvap 0 \
	sigmaBulk 0 \
	Rvdw 2.24877 \
	Res 0 \
	tauNuc 343133
fluid-cation Na+ 0.5 MeanFieldLJ \
	epsBulk 1 \
	pMol 0 \
	epsInf 1 \
	Pvap 0 \
	sigmaBulk 0 \
	Rvdw 2.19208 \
	Res 0 \
	tauNuc 343133
fluid-ex-corr lda-TF lda-PZ
fluid-gummel-loop 10 1.000000e-05
fluid-minimize  \
	dirUpdateScheme      PolakRibiere \
	linminMethod         DirUpdateRecommended \
	nIterations          400 \
	history              15 \
	knormThreshold       1e-11 \
	energyDiffThreshold  0 \
	nEnergyDiff          2 \
	alphaTstart          1 \
	alphaTmin            1e-10 \
	updateTestStepSize   yes \
	alphaTreduceFactor   0.1 \
	alphaTincreaseFactor 3 \
	nAlphaAdjustMax      6 \
	wolfeEnergy          0.0001 \
	wolfeGradient        0.9 \
	fdTest               no
fluid-solvent H2O 55.338 ScalarEOS \
	epsBulk 78.4 \
	pMol 0.92466 \
	epsInf 1.77 \
	Pvap 1.06736e-10 \
	sigmaBulk 4.62e-05 \
	Rvdw 2.61727 \
	Res 1.42 \
	tauNuc 343133 \
	poleEl 15 7 1
forces-output-coords Positions
ion Pt   0.000220000000000   0.307628000000000  17.100908000000000 0
ion Pt   0.000220000000000  13.123347000000001  17.100908000000000 0
ion Pt   5.232205000000001   0.307628000000000  17.100908000000000 0
ion Pt   5.232205000000001  13.123347000000001  17.100908000000000 0
ion Pt  10.463699000000000   4.022239000000000   2.178053000000000 0
ion Pt  10.463699000000000  16.837956999999999   2.178053000000000 0
ion Pt   5.231692000000000   4.022239000000000   2.178053000000000 0
ion Pt   5.231692000000000  16.837956999999999   2.178053000000000 0
ion Pt  10.463981000000000   8.528655000000001   5.417403000000000 0
ion Pt  10.463981000000000  21.344373999999998   5.417403000000000 0
ion Pt   5.231975000000000   8.528655000000001   5.417403000000000 0
ion Pt   5.231975000000000  21.344373999999998   5.417403000000000 0
ion Pt  10.463844999999999  25.622132000000001   8.238791000000001 0
ion Pt  10.463844999999999  12.806414000000000   8.238791000000001 0
ion Pt   5.231849000000001  25.622132000000001   8.238791000000001 0
ion Pt   5.231849000000001  12.806414000000000   8.238791000000001 0
ion Pt   0.000157000000000   4.349296000000000  11.332694000000000 0
ion Pt   0.000157000000000  17.165013999999999  11.332694000000000 0
ion Pt   5.232153000000001   4.349296000000000  11.332694000000000 0
ion Pt   5.232153000000001  17.165013999999999  11.332694000000000 0
ion Pt   0.000303000000000   8.653275000000001  14.682311000000000 0
ion Pt   0.000303000000000  21.469018999999999  14.682311000000000 0
ion Pt   5.232310000000000   8.653275000000001  14.682311000000000 0
ion Pt   5.232310000000000  21.469018999999999  14.682311000000000 0
ion Pt   2.615715000000000  25.523040999999999   3.443627000000001 0
ion Pt   2.615715000000000  12.707296999999999   3.443627000000001 0
ion Pt   7.847711000000000  25.523040999999999   3.443627000000001 0
ion Pt   7.847711000000000  12.707296999999999   3.443627000000001 0
ion Pt   2.615810000000000   4.193175000000000   6.787100000000000 0
ion Pt   2.615810000000000  17.008893000000000   6.787100000000000 0
ion Pt   7.847806000000000   4.193175000000000   6.787100000000000 0
ion Pt   7.847806000000000  17.008893000000000   6.787100000000000 0
ion Pt   2.616155000000000   8.553081999999998   9.886386000000000 0
ion Pt   2.616155000000000  21.368799999999997   9.886386000000000 0
ion Pt   7.848151000000000   8.553081999999998   9.886386000000000 0
ion Pt   7.848151000000000  21.368799999999997   9.886386000000000 0
ion Pt   2.615998000000000   0.014841000000000  12.709460000000000 0
ion Pt   2.615998000000000  12.830558999999997  12.709460000000000 0
ion Pt   7.847994000000001   0.014841000000000  12.709460000000000 0
ion Pt   7.847994000000001  12.830558999999997  12.709460000000000 0
ion Pt   2.616322000000000   4.520642000000000  15.941687000000002 0
ion Pt   2.616322000000000  17.336386000000001  15.941687000000002 0
ion Pt   7.848318000000000   4.520642000000000  15.941687000000002 0
ion Pt   7.848318000000000  17.336386000000001  15.941687000000002 0
ion Pt   2.615768000000000   8.237738999999999   1.026553000000000 0
ion Pt   2.615768000000000  21.053457000000002   1.026553000000000 0
ion Pt   7.847764000000001   8.237738999999999   1.026553000000000 0
ion Pt   7.847764000000001  21.053457000000002   1.026553000000000 0
ion C   5.232278000000000  15.932038999999998  19.563818999999999 1  Linear 0 0 1
ion O   5.292373000000000  15.932038999999998  21.719144000000000 1  Linear 0 0 1
ion-species /projects/musgravc/apps/jdftx-1.6.0/build/pseudopotentials/GBRV_v1.5/$ID_pbe_v1.uspp
ion-species /projects/musgravc/apps/jdftx-1.6.0/build/pseudopotentials/GBRV_v1.5/$ID_pbe_v1.2.uspp
ion-species /projects/musgravc/apps/jdftx-1.6.0/build/pseudopotentials/GBRV_v1.5/$ID_pbe_v1.4.uspp
ion-species /projects/musgravc/apps/jdftx-1.6.0/build/pseudopotentials/GBRV_v1.5/$ID_pbe_v1.5.uspp
ion-width Ecut
ionic-minimize  \
	dirUpdateScheme      L-BFGS \
	linminMethod         DirUpdateRecommended \
	nIterations          100 \
	history              15 \
	knormThreshold       0.0001 \
	energyDiffThreshold  1e-06 \
	nEnergyDiff          2 \
	alphaTstart          1 \
	alphaTmin            1e-10 \
	updateTestStepSize   yes \
	alphaTreduceFactor   0.1 \
	alphaTincreaseFactor 3 \
	nAlphaAdjustMax      3 \
	wolfeEnergy          0.0001 \
	wolfeGradient        0.9 \
	fdTest               no
kpoint   0.000000000000   0.000000000000   0.000000000000  1.00000000000000
kpoint-folding 6 2 1 
latt-move-scale 0 0 0
latt-scale 1 1 1 
lattice  \
	  10.463991999999999    0.000000000000000    0.000000000000000  \
	   0.000000000000000   25.631436000000001    0.000000000000000  \
	   0.000000000000000    0.000000000000000   54.372487000000000 
lattice-minimize  \
	dirUpdateScheme      L-BFGS \
	linminMethod         DirUpdateRecommended \
	nIterations          0 \
	history              15 \
	knormThreshold       0 \
	energyDiffThreshold  1e-06 \
	nEnergyDiff          2 \
	alphaTstart          1 \
	alphaTmin            1e-10 \
	updateTestStepSize   yes \
	alphaTreduceFactor   0.1 \
	alphaTincreaseFactor 3 \
	nAlphaAdjustMax      3 \
	wolfeEnergy          0.0001 \
	wolfeGradient        0.9 \
	fdTest               no
lcao-params 30 1e-06 0.001
pcm-variant CANDLE
spintype z-spin
subspace-rotation-factor 1 yes
symmetries automatic
symmetry-threshold 0.0001
van-der-waals D3



---------- Setting up symmetries ----------

Found 8 point-group symmetries of the bravais lattice
Found 1 space-group symmetries with basis
Applied RMS atom displacement 0 bohrs to make symmetries exact.

---------- Initializing the Grid ----------
R = 
[       10.464            0            0  ]
[            0      25.6314            0  ]
[            0            0      54.3725  ]
unit cell volume = 14583.1
G =
[   0.600458          0          0  ]
[          0   0.245136          0  ]
[          0          0   0.115558  ]
Minimum fftbox size, Smin = [  44  104  220  ]
Chosen fftbox size, S = [  48  108  224  ]

---------- Exchange Correlation functional ----------
Initalized PBE GGA exchange.
Initalized PBE GGA correlation.

---------- Setting up pseudopotentials ----------
Width of ionic core gaussian charges (only for fluid interactions / plotting) set to 0.397384

Reading pseudopotential file '/projects/musgravc/apps/jdftx-1.6.0/build/pseudopotentials/GBRV_v1.5/pt_pbe_v1.4.uspp':
  Title: Pt.  Created by USPP 7.3.6 on 31-3-15
  Reference state energy: -105.002503.  16 valence electrons in orbitals:
    |510>  occupation: 6  eigenvalue: -2.158104
    |520>  occupation: 9.5  eigenvalue: -0.335376
    |600>  occupation: 0  eigenvalue: -0.319640
    |610>  occupation: 0  eigenvalue: -0.122947
  lMax: 2  lLocal: 3  QijEcut: 5.5
  6 projectors sampled on a log grid with 745 points:
    l: 0  eig: -0.319640  rCut: 2.45
    l: 0  eig: 1.500000  rCut: 2.45
    l: 1  eig: -2.158104  rCut: 1.6
    l: 1  eig: -0.122947  rCut: 1.6
    l: 2  eig: -0.500000  rCut: 1.6
    l: 2  eig: -0.335375  rCut: 1.6
  Partial core density with radius 1.1
  Transforming core density to a uniform radial grid of dG=0.02 with 1179 points.
  Transforming local potential to a uniform radial grid of dG=0.02 with 1179 points.
  Transforming nonlocal projectors to a uniform radial grid of dG=0.02 with 432 points.
  Transforming density augmentations to a uniform radial grid of dG=0.02 with 1179 points.
  Transforming atomic orbitals to a uniform radial grid of dG=0.02 with 432 points.
  Core radius for overlap checks: 2.45 bohrs.

Reading pseudopotential file '/projects/musgravc/apps/jdftx-1.6.0/build/pseudopotentials/GBRV_v1.5/c_pbe_v1.2.uspp':
  Title: C.  Created by USPP 7.3.6 on 3-2-2014
  Reference state energy: -5.406344.  4 valence electrons in orbitals:
    |200>  occupation: 2  eigenvalue: -0.504890
    |210>  occupation: 2  eigenvalue: -0.194356
  lMax: 1  lLocal: 2  QijEcut: 5
  4 projectors sampled on a log grid with 503 points:
    l: 0  eig: -0.504890  rCut: 1.3
    l: 0  eig: 0.000000  rCut: 1.3
    l: 1  eig: -0.194357  rCut: 1.3
    l: 1  eig: 0.000000  rCut: 1.3
  Partial core density with radius 1.1
  Transforming core density to a uniform radial grid of dG=0.02 with 1179 points.
  Transforming local potential to a uniform radial grid of dG=0.02 with 1179 points.
  Transforming nonlocal projectors to a uniform radial grid of dG=0.02 with 432 points.
  Transforming density augmentations to a uniform radial grid of dG=0.02 with 1179 points.
  Transforming atomic orbitals to a uniform radial grid of dG=0.02 with 432 points.
  Core radius for overlap checks: 1.30 bohrs.

Reading pseudopotential file '/projects/musgravc/apps/jdftx-1.6.0/build/pseudopotentials/GBRV_v1.5/o_pbe_v1.2.uspp':
  Title: O.  Created by USPP 7.3.6 on 3-2-2014
  Reference state energy: -15.894388.  6 valence electrons in orbitals:
    |200>  occupation: 2  eigenvalue: -0.878823
    |210>  occupation: 4  eigenvalue: -0.332131
  lMax: 2  lLocal: 2  QijEcut: 6
  5 projectors sampled on a log grid with 511 points:
    l: 0  eig: -0.878823  rCut: 1.25
    l: 0  eig: 0.000000  rCut: 1.25
    l: 1  eig: -0.332132  rCut: 1.25
    l: 1  eig: 0.000000  rCut: 1.25
    l: 2  eig: 1.000000  rCut: 1.25
  Partial core density with radius 0.7
  Transforming core density to a uniform radial grid of dG=0.02 with 1179 points.
  Transforming local potential to a uniform radial grid of dG=0.02 with 1179 points.
  Transforming nonlocal projectors to a uniform radial grid of dG=0.02 with 432 points.
  Transforming density augmentations to a uniform radial grid of dG=0.02 with 1179 points.
  Transforming atomic orbitals to a uniform radial grid of dG=0.02 with 432 points.
  Core radius for overlap checks: 1.25 bohrs.

Initialized 3 species with 50 total atoms.

Folded 1 k-points by 6x2x1 to 12 k-points.

---------- Setting up k-points, bands, fillings ----------
Adding inversion symmetry to k-mesh for non-inversion-symmetric unit cell.
Reduced to 8 k-points under symmetry. 
Computing the number of bands and number of electrons
Calculating initial fillings.
nElectrons: 778.000000   nBands: 467   nStates: 16

----- Setting up reduced wavefunction bases (one per k-point) -----
average nbasis = 62290.083 , ideal nbasis = 62300.069

----- Initializing Supercell corresponding to k-point mesh -----
Lattice vector linear combinations in supercell:
[   6   0   0  ]
[   0   2   0  ]
[   0   0   1  ]
Supercell lattice vectors:
[  62.784  0  0  ]
[  0  51.2629  0  ]
[  0  0  54.3725  ]

Initializing DFT-D3 calculator:
	Parameters set for gga-PBE functional
	s6:  1.000  s_r6:  1.217
	s8:  0.722  s_r8:  1.000
	Per-atom parameters loaded for:
	Pt:  sqrtQ[a0]:  5.888  Rcov[a0]:  2.116  CN: [ 0.00 1.92 6.67 ]
	 C:  sqrtQ[a0]:  3.105  Rcov[a0]:  1.417  CN: [ 0.00 0.99 2.00 3.00 3.98 ]
	 O:  sqrtQ[a0]:  2.594  Rcov[a0]:  1.191  CN: [ 0.00 0.99 1.99 ]

Initializing DFT-D2 calculator for fluid / solvation:
	Pt:  C6:  815.23 Eh-a0^6  R0: 3.326 a0 (WARNING: beyond Grimme's data set)
	 C:  C6:   30.35 Eh-a0^6  R0: 2.744 a0
	 O:  C6:   12.14 Eh-a0^6  R0: 2.536 a0

---------- Setting up ewald sum ----------
Optimum gaussian width for ewald sums = 5.078065 bohr.
Real space sum over 455 unit cells with max indices [  6  3  2  ]
Reciprocal space sum over 7733 terms with max indices [  5  9  18  ]

Computing DFT-D3 correction:
# coordination-number Pt 5.928 5.958 5.928 6.963 7.145 7.145 7.145 7.145 9.433 9.433 9.433 9.433 9.344 9.344 9.344 9.344 9.308 9.309 9.308 9.309 7.662 7.663 7.662 7.665 7.666 7.666 7.666 7.666 9.310 9.310 9.310 9.310 9.342 9.342 9.342 9.342 9.434 9.436 9.434 9.436 7.149 7.679 7.149 7.679 5.929 5.929 5.929 5.929
# coordination-number C 3.076
# coordination-number O 1.068
# diagonal-C6 Pt 336.87 336.87 336.87 336.87 336.87 336.87 336.87 336.87 336.87 336.87 336.87 336.87 336.87 336.87 336.87 336.87 336.87 336.87 336.87 336.87 336.87 336.87 336.87 336.87 336.87 336.87 336.87 336.87 336.87 336.87 336.87 336.87 336.87 336.87 336.87 336.87 336.87 336.87 336.87 336.87 336.87 336.87 336.87 336.87 336.87 336.87 336.87 336.87
# diagonal-C6 C 25.51
# diagonal-C6 O 12.76
EvdW_6 =   -0.379310
EvdW_8 =   -0.630472

---------- Allocating electronic variables ----------
Initializing wave functions:  linear combination of atomic orbitals
Pt pseudo-atom occupations:   s ( 0 )  p ( 6 0 )  d ( 10 )
C pseudo-atom occupations:   s ( 2 )  p ( 2 )
O pseudo-atom occupations:   s ( 2 )  p ( 4 )
	FillingsUpdate:  mu: -0.875542696  nElectrons: 778.000000  magneticMoment: [ Abs: 0.00485  Tot: +0.00020 ]
LCAOMinimize: Iter:   0  F: -4269.3484637762212515  |grad|_K:  1.304e-02  alpha:  1.000e+00
LCAOMinimize: 	Step increased F by 2.131806e+02, reducing alpha to 1.980803e-02.
	FillingsUpdate:  mu: -0.432636061  nElectrons: 778.000000  magneticMoment: [ Abs: 0.00421  Tot: -0.00007 ]
LCAOMinimize: Iter:   1  F: -4282.5523703553217274  |grad|_K:  5.844e-03  alpha:  1.981e-02  linmin: -1.655e-01  cgtest:  7.204e-01  t[s]:    331.00
LCAOMinimize: Encountered beta<0, resetting CG.
	FillingsUpdate:  mu: -0.007553789  nElectrons: 778.000000  magneticMoment: [ Abs: 0.00385  Tot: -0.00012 ]
LCAOMinimize: Iter:   2  F: -4285.2241506805212339  |grad|_K:  6.377e-03  alpha:  3.263e-02  linmin:  3.285e-02  cgtest: -1.437e-01  t[s]:    427.20
	FillingsUpdate:  mu: +0.230733002  nElectrons: 778.000000  magneticMoment: [ Abs: 0.00358  Tot: -0.00001 ]
LCAOMinimize: Iter:   3  F: -4286.5687075980413283  |grad|_K:  4.931e-03  alpha:  1.677e-02  linmin:  3.559e-04  cgtest:  6.033e-01  t[s]:    522.92
	FillingsUpdate:  mu: +0.016687476  nElectrons: 778.000000  magneticMoment: [ Abs: 0.00347  Tot: -0.00005 ]
LCAOMinimize: Iter:   4  F: -4288.5655606034360972  |grad|_K:  3.662e-03  alpha:  3.030e-02  linmin:  9.470e-04  cgtest: -7.571e-02  t[s]:    618.56
	FillingsUpdate:  mu: -0.087019919  nElectrons: 778.000000  magneticMoment: [ Abs: 0.00337  Tot: -0.00004 ]
LCAOMinimize: Iter:   5  F: -4289.1361546313364670  |grad|_K:  2.221e-03  alpha:  1.616e-02  linmin:  2.636e-03  cgtest: -5.072e-03  t[s]:    714.19
LCAOMinimize: 	Predicted alpha/alphaT>3.000000, increasing alphaT to 4.847986e-02.
	FillingsUpdate:  mu: +0.172170741  nElectrons: 778.000000  magneticMoment: [ Abs: 0.00297  Tot: +0.00007 ]
LCAOMinimize: Iter:   6  F: -4290.2493997324609154  |grad|_K:  2.428e-03  alpha:  8.101e-02  linmin: -5.975e-03  cgtest:  1.397e-01  t[s]:    835.04
	FillingsUpdate:  mu: +0.150174488  nElectrons: 778.000000  magneticMoment: [ Abs: 0.00290  Tot: +0.00005 ]
LCAOMinimize: Iter:   7  F: -4290.5107344634443507  |grad|_K:  1.315e-03  alpha:  1.416e-02  linmin: -1.146e-02  cgtest: -3.653e-02  t[s]:    931.92
	FillingsUpdate:  mu: +0.125800129  nElectrons: 778.000000  magneticMoment: [ Abs: 0.00284  Tot: +0.00001 ]
LCAOMinimize: Iter:   8  F: -4290.6497258740873804  |grad|_K:  1.191e-03  alpha:  2.741e-02  linmin:  8.929e-04  cgtest: -9.277e-02  t[s]:   1027.53
	FillingsUpdate:  mu: +0.117218816  nElectrons: 778.000000  magneticMoment: [ Abs: 0.00274  Tot: -0.00011 ]
LCAOMinimize: Iter:   9  F: -4290.8033509058777781  |grad|_K:  1.247e-03  alpha:  4.070e-02  linmin:  2.769e-03  cgtest:  1.113e-01  t[s]:   1123.20
	FillingsUpdate:  mu: +0.154049399  nElectrons: 778.000000  magneticMoment: [ Abs: 0.00264  Tot: -0.00006 ]
LCAOMinimize: Iter:  10  F: -4290.9183794909322387  |grad|_K:  1.481e-03  alpha:  2.789e-02  linmin:  3.225e-05  cgtest:  7.149e-02  t[s]:   1219.81
	FillingsUpdate:  mu: +0.167904474  nElectrons: 778.000000  magneticMoment: [ Abs: 0.00253  Tot: -0.00001 ]
LCAOMinimize: Iter:  11  F: -4291.0662064815760459  |grad|_K:  5.993e-04  alpha:  2.454e-02  linmin:  1.213e-03  cgtest: -2.131e-01  t[s]:   1315.62
	FillingsUpdate:  mu: +0.169922174  nElectrons: 778.000000  magneticMoment: [ Abs: 0.00248  Tot: +0.00002 ]
LCAOMinimize: Iter:  12  F: -4291.1143572044593384  |grad|_K:  8.530e-04  alpha:  5.052e-02  linmin:  1.117e-03  cgtest:  3.859e-03  t[s]:   1411.31
	FillingsUpdate:  mu: +0.149391403  nElectrons: 778.000000  magneticMoment: [ Abs: 0.00246  Tot: +0.00003 ]
LCAOMinimize: Iter:  13  F: -4291.1533072904558139  |grad|_K:  5.807e-04  alpha:  1.960e-02  linmin: -9.499e-04  cgtest:  1.110e-01  t[s]:   1507.75
	FillingsUpdate:  mu: +0.139626311  nElectrons: 778.000000  magneticMoment: [ Abs: 0.00245  Tot: +0.00002 ]
LCAOMinimize: Iter:  14  F: -4291.1679530305964363  |grad|_K:  2.785e-04  alpha:  1.560e-02  linmin:  7.566e-05  cgtest: -5.396e-02  t[s]:   1603.59
LCAOMinimize: 	Predicted alpha/alphaT>3.000000, increasing alphaT to 4.678714e-02.
	FillingsUpdate:  mu: +0.147696945  nElectrons: 778.000000  magneticMoment: [ Abs: 0.00244  Tot: +0.00002 ]
LCAOMinimize: Iter:  15  F: -4291.1797485041352047  |grad|_K:  2.810e-04  alpha:  5.572e-02  linmin:  8.410e-04  cgtest:  3.730e-03  t[s]:   1724.38
	FillingsUpdate:  mu: +0.145122537  nElectrons: 778.000000  magneticMoment: [ Abs: 0.00243  Tot: +0.00001 ]
LCAOMinimize: Iter:  16  F: -4291.1840767602798223  |grad|_K:  2.746e-04  alpha:  2.018e-02  linmin: -1.087e-04  cgtest:  1.843e-02  t[s]:   1820.43
	FillingsUpdate:  mu: +0.133129359  nElectrons: 778.000000  magneticMoment: [ Abs: 0.00243  Tot: +0.00000 ]
LCAOMinimize: Iter:  17  F: -4291.1902784091698777  |grad|_K:  1.864e-04  alpha:  3.001e-02  linmin:  1.279e-04  cgtest: -1.120e-02  t[s]:   1915.96
	FillingsUpdate:  mu: +0.128482269  nElectrons: 778.000000  magneticMoment: [ Abs: 0.00243  Tot: -0.00000 ]
LCAOMinimize: Iter:  18  F: -4291.1927161808735036  |grad|_K:  1.390e-04  alpha:  2.566e-02  linmin: -3.026e-05  cgtest:  3.078e-03  t[s]:   2011.75
	FillingsUpdate:  mu: +0.128417061  nElectrons: 778.000000  magneticMoment: [ Abs: 0.00243  Tot: -0.00000 ]
LCAOMinimize: Iter:  19  F: -4291.1950710277869803  |grad|_K:  1.498e-04  alpha:  4.457e-02  linmin:  2.689e-04  cgtest: -4.434e-03  t[s]:   2108.24
	FillingsUpdate:  mu: +0.127350752  nElectrons: 778.000000  magneticMoment: [ Abs: 0.00243  Tot: -0.00001 ]
LCAOMinimize: Iter:  20  F: -4291.1958153590803704  |grad|_K:  5.424e-05  alpha:  1.228e-02  linmin:  1.700e-03  cgtest: -5.730e-03  t[s]:   2204.09
LCAOMinimize: 	Predicted alpha/alphaT>3.000000, increasing alphaT to 3.684408e-02.
	FillingsUpdate:  mu: +0.124344017  nElectrons: 778.000000  magneticMoment: [ Abs: 0.00243  Tot: -0.00001 ]
LCAOMinimize: Iter:  21  F: -4291.1961852044505576  |grad|_K:  5.019e-05  alpha:  4.626e-02  linmin: -2.970e-05  cgtest:  8.640e-03  t[s]:   2324.97
	FillingsUpdate:  mu: +0.123893704  nElectrons: 778.000000  magneticMoment: [ Abs: 0.00243  Tot: -0.00001 ]
LCAOMinimize: Iter:  22  F: -4291.1963533029747850  |grad|_K:  4.318e-05  alpha:  2.440e-02  linmin:  5.284e-05  cgtest: -2.959e-03  t[s]:   2421.00
	FillingsUpdate:  mu: +0.124654697  nElectrons: 778.000000  magneticMoment: [ Abs: 0.00244  Tot: -0.00001 ]
LCAOMinimize: Iter:  23  F: -4291.1964819453896780  |grad|_K:  4.134e-05  alpha:  2.522e-02  linmin: -3.101e-05  cgtest: -3.901e-04  t[s]:   2516.74
	FillingsUpdate:  mu: +0.125630482  nElectrons: 778.000000  magneticMoment: [ Abs: 0.00244  Tot: -0.00001 ]
LCAOMinimize: Iter:  24  F: -4291.1965915207729267  |grad|_K:  2.463e-05  alpha:  2.341e-02  linmin: -6.214e-05  cgtest: -3.423e-03  t[s]:   2612.74
LCAOMinimize: 	Predicted alpha/alphaT>3.000000, increasing alphaT to 7.022080e-02.
	FillingsUpdate:  mu: +0.124640117  nElectrons: 778.000000  magneticMoment: [ Abs: 0.00244  Tot: -0.00001 ]
LCAOMinimize: Iter:  25  F: -4291.1967180324836590  |grad|_K:  3.403e-05  alpha:  7.612e-02  linmin: -7.355e-06  cgtest: -4.537e-04  t[s]:   2733.99
	FillingsUpdate:  mu: +0.124351623  nElectrons: 778.000000  magneticMoment: [ Abs: 0.00245  Tot: -0.00001 ]
LCAOMinimize: Iter:  26  F: -4291.1967696873580280  |grad|_K:  2.252e-05  alpha:  1.628e-02  linmin: -4.629e-05  cgtest:  2.454e-04  t[s]:   2829.77
	FillingsUpdate:  mu: +0.124819825  nElectrons: 778.000000  magneticMoment: [ Abs: 0.00245  Tot: -0.00001 ]
LCAOMinimize: Iter:  27  F: -4291.1968080436699893  |grad|_K:  2.065e-05  alpha:  2.761e-02  linmin:  9.584e-06  cgtest: -9.195e-04  t[s]:   2925.46
	FillingsUpdate:  mu: +0.125518222  nElectrons: 778.000000  magneticMoment: [ Abs: 0.00245  Tot: -0.00001 ]
LCAOMinimize: Iter:  28  F: -4291.1968539121089634  |grad|_K:  1.645e-05  alpha:  3.930e-02  linmin:  4.974e-05  cgtest:  1.236e-03  t[s]:   3021.97
	FillingsUpdate:  mu: +0.124889480  nElectrons: 778.000000  magneticMoment: [ Abs: 0.00246  Tot: -0.00001 ]
LCAOMinimize: Iter:  29  F: -4291.1968827190148659  |grad|_K:  1.988e-05  alpha:  3.890e-02  linmin:  1.150e-06  cgtest:  1.085e-03  t[s]:   3117.68
	FillingsUpdate:  mu: +0.124463839  nElectrons: 778.000000  magneticMoment: [ Abs: 0.00246  Tot: -0.00001 ]
LCAOMinimize: Iter:  30  F: -4291.1968983465558267  |grad|_K:  6.930e-06  alpha:  1.443e-02  linmin: -5.320e-05  cgtest:  5.859e-04  t[s]:   3213.39
LCAOMinimize: None of the convergence criteria satisfied after 30 iterations.
----- createFluidSolver() ----- (Fluid-side solver setup)
   Initializing fluid molecule 'H2O'
     Initializing site 'O'
       Electron density: proportional to exp(-r/0.36935)*erfc((r-0.51523)/0.36823) with norm 6.826
       Charge density: gaussian nuclear width 0.478731 with net site charge 0.826
       Polarizability: cuspless exponential with width 0.32 and norm 3.73
       Hard sphere radius: 2.57003 bohrs
       Positions in reference frame:
         [ +0.000000 +0.000000 +0.000000 ]
     Initializing site 'H'
       Electron density: proportional to exp(-r/0.34641)*erfc((r-0)/0.390882) with norm 0.587
       Charge density: gaussian nuclear width 0.377945 with net site charge -0.413
       Polarizability: cuspless exponential with width 0.39 and norm 3.3
       Positions in reference frame:
         [ +0.000000 -1.441945 +1.122523 ]
         [ +0.000000 +1.441945 +1.122523 ]
     Net charge: 0   dipole magnitude: 0.927204
     Initializing spherical shell mfKernel with radius 2.61727 Bohr
     deltaS corrections:
       site 'O': -7.54299
       site 'H': -6.83917
   Initializing fluid molecule 'Na+'
     Initializing site 'Na'
       Electron density: proportional to exp(-r/0.19682)*erfc((r-0.71491)/0.41314) with norm 8.1383
       Charge density: gaussian nuclear width 0.365347 with net site charge -1
       Hard sphere radius: 1.86327 bohrs
       Positions in reference frame:
         [ +0.000000 +0.000000 +0.000000 ]
     Net charge: -1   dipole magnitude: 0
     Initializing gaussian mfKernel with width: 1.55004 Bohr
     deltaS corrections:
       site 'Na': -22.3555
   Initializing fluid molecule 'F-'
     Initializing site 'F'
       Electron density: proportional to exp(-r/0.38886)*erfc((r-0)/0.438782) with norm 8
       Charge density: gaussian nuclear width 0.374796 with net site charge 1
       Hard sphere radius: 2.39995 bohrs
       Positions in reference frame:
         [ +0.000000 +0.000000 +0.000000 ]
     Net charge: 1   dipole magnitude: 0
     Initializing gaussian mfKernel with width: 1.59012 Bohr
     deltaS corrections:
       site 'F': -9.04335

Correction to mu due to finite nuclear width = -0.0529334
   Cavity determined by nc: 0.00142 and sigma: 0.707107
   Nonlocal vdW cavity from gaussian model electron density with norm = 8 and sigma = 0.993594 bohr
   Charge asymmetry in cavity with sensitivity pCavity = 36.5 e-bohr/Eh
   Electrostatic cavity expanded by eta = 1.46 bohrs
   Weighted density cavitation model constrained by Nbulk: 0.0049383 bohr^-3, Pvap: 3.14029 kPa, Rvdw: 2.61727 bohr and sigmaBulk: 4.62e-05 Eh/bohr^2 at T: 298 K.
   Weighted density dispersion model using vdW pair potentials with single solvent site with sqrtC6eff: 0.77 SI.


---- Citations for features of the code used in this run ----

   Software package:
      R. Sundararaman, K. Letchworth-Weaver, K.A. Schwarz, D. Gunceler, Y. Ozhabes and T.A. Arias, 'JDFTx: software for joint density-functional theory', SoftwareX 6, 278 (2017)

   gga-PBE exchange-correlation functional:
      J.P. Perdew, K. Burke and M. Ernzerhof, Phys. Rev. Lett. 77, 3865 (1996)

   Pseudopotentials:
      KF Garrity, JW Bennett, KM Rabe and D Vanderbilt, Comput. Mater. Sci. 81, 446 (2014)

   DFT-D3 dispersion correction:
      S. Grimme, J. Antony, S. Ehrlich and H. Krieg, J. Chem. Phys. 132, 154104 (2010)

   DFT-D2 dispersion correction:
      S. Grimme, J. Comput. Chem. 27, 1787 (2006)

   Charge-asymmetric nonlocally-determined local-electric (CANDLE) solvation model:
      R. Sundararaman and W.A. Goddard III, J. Chem. Phys. 142, 064107 (2015)

   Total energy minimization with Auxiliary Hamiltonian:
      C. Freysoldt, S. Boeck, and J. Neugebauer, Phys. Rev. B 79, 241103(R) (2009)

   Linear-tetrahedron sampling for density of states:
      G. Lehmann and M. Taut, Phys. status solidi (b) 54, 469 (1972)

This list may not be complete. Please suggest additional citations or
report any other bugs at https://github.com/shankar1729/jdftx/issues

Initialization completed successfully at t[s]:   3245.39


Computing DFT-D3 correction:
# coordination-number Pt 5.928 5.958 5.928 6.963 7.145 7.145 7.145 7.145 9.433 9.433 9.433 9.433 9.344 9.344 9.344 9.344 9.308 9.309 9.308 9.309 7.662 7.663 7.662 7.665 7.666 7.666 7.666 7.666 9.310 9.310 9.310 9.310 9.342 9.342 9.342 9.342 9.434 9.436 9.434 9.436 7.149 7.679 7.149 7.679 5.929 5.929 5.929 5.929
# coordination-number C 3.076
# coordination-number O 1.068
# diagonal-C6 Pt 336.87 336.87 336.87 336.87 336.87 336.87 336.87 336.87 336.87 336.87 336.87 336.87 336.87 336.87 336.87 336.87 336.87 336.87 336.87 336.87 336.87 336.87 336.87 336.87 336.87 336.87 336.87 336.87 336.87 336.87 336.87 336.87 336.87 336.87 336.87 336.87 336.87 336.87 336.87 336.87 336.87 336.87 336.87 336.87 336.87 336.87 336.87 336.87
# diagonal-C6 C 25.51
# diagonal-C6 O 12.76
EvdW_6 =   -0.379310
EvdW_8 =   -0.630472
Fluid solver invoked on fresh (random / LCAO) wavefunctions
Running a vacuum solve first:

-------- Initial electronic minimization -----------
	FillingsUpdate:  mu: +0.124463866  nElectrons: 778.000000  magneticMoment: [ Abs: 0.00246  Tot: -0.00001 ]
ElecMinimize: Iter:   0  F: -4291.196898346571288  |grad|_K:  5.792e-05  alpha:  1.000e+00
	FillingsUpdate:  mu: +0.163087622  nElectrons: 778.000000  magneticMoment: [ Abs: 0.00195  Tot: -0.00000 ]
	SubspaceRotationAdjust: set factor to 0.995
ElecMinimize: Iter:   1  F: -4291.873265837228246  |grad|_K:  3.263e-05  alpha:  4.360e-01  linmin:  3.280e-05  t[s]:   3507.49
	FillingsUpdate:  mu: +0.161998580  nElectrons: 778.000000  magneticMoment: [ Abs: 0.00185  Tot: -0.00002 ]
	SubspaceRotationAdjust: set factor to 0.556
ElecMinimize: Iter:   2  F: -4291.910732905210352  |grad|_K:  7.394e-05  alpha:  8.224e-02  linmin:  1.346e-04  t[s]:   3679.09
	FillingsUpdate:  mu: +0.128711377  nElectrons: 778.000000  magneticMoment: [ Abs: 0.00165  Tot: -0.00006 ]
	SubspaceRotationAdjust: set factor to 0.319
ElecMinimize: Iter:   3  F: -4291.975685626935046  |grad|_K:  5.084e-05  alpha:  2.836e-02  linmin:  6.978e-05  t[s]:   3850.08
	FillingsUpdate:  mu: +0.129921158  nElectrons: 778.000000  magneticMoment: [ Abs: 0.00147  Tot: -0.00009 ]
	SubspaceRotationAdjust: set factor to 0.223
ElecMinimize: Iter:   4  F: -4292.032868780023819  |grad|_K:  2.737e-05  alpha:  4.842e-02  linmin: -2.986e-05  t[s]:   4021.42
	FillingsUpdate:  mu: +0.142570681  nElectrons: 778.000000  magneticMoment: [ Abs: 0.00137  Tot: -0.00010 ]
	SubspaceRotationAdjust: set factor to 0.182
ElecMinimize: Iter:   5  F: -4292.054593817073510  |grad|_K:  1.677e-05  alpha:  6.144e-02  linmin:  8.160e-06  t[s]:   4192.51
	FillingsUpdate:  mu: +0.151151191  nElectrons: 778.000000  magneticMoment: [ Abs: 0.00126  Tot: -0.00011 ]
	SubspaceRotationAdjust: set factor to 0.153
ElecMinimize: Iter:   6  F: -4292.067088042736941  |grad|_K:  1.578e-05  alpha:  9.534e-02  linmin: -3.102e-06  t[s]:   4363.59
	FillingsUpdate:  mu: +0.149326020  nElectrons: 778.000000  magneticMoment: [ Abs: 0.00103  Tot: -0.00012 ]
	SubspaceRotationAdjust: set factor to 0.123
	SubspaceRotationAdjust: resetting CG because factor has changed by 0.12272
ElecMinimize: 	State modified externally: resetting search direction.
ElecMinimize: Iter:   7  F: -4292.085862737701063  |grad|_K:  1.058e-05  alpha:  1.612e-01
	FillingsUpdate:  mu: +0.143716020  nElectrons: 778.000000  magneticMoment: [ Abs: 0.00100  Tot: -0.00012 ]
	SubspaceRotationAdjust: set factor to 0.0785
ElecMinimize: Iter:   8  F: -4292.092024475327889  |grad|_K:  6.986e-06  alpha:  1.180e-01  linmin: -1.073e-05  t[s]:   4786.29
	FillingsUpdate:  mu: +0.137834899  nElectrons: 778.000000  magneticMoment: [ Abs: 0.00093  Tot: -0.00012 ]
	SubspaceRotationAdjust: set factor to 0.0544
ElecMinimize: Iter:   9  F: -4292.096327843591098  |grad|_K:  4.229e-06  alpha:  1.886e-01  linmin: -7.602e-05  t[s]:   4957.28
	FillingsUpdate:  mu: +0.141541893  nElectrons: 778.000000  magneticMoment: [ Abs: 0.00079  Tot: -0.00013 ]
	SubspaceRotationAdjust: set factor to 0.0478
ElecMinimize: Iter:  10  F: -4292.099776584589563  |grad|_K:  3.658e-06  alpha:  4.117e-01  linmin: -7.924e-06  t[s]:   5128.39
	FillingsUpdate:  mu: +0.144595474  nElectrons: 778.000000  magneticMoment: [ Abs: 0.00067  Tot: -0.00013 ]
	SubspaceRotationAdjust: set factor to 0.0475
ElecMinimize: Iter:  11  F: -4292.101975647479776  |grad|_K:  2.405e-06  alpha:  3.517e-01  linmin: -3.617e-06  t[s]:   5298.98
	FillingsUpdate:  mu: +0.143515923  nElectrons: 778.000000  magneticMoment: [ Abs: 0.00062  Tot: -0.00013 ]
	SubspaceRotationAdjust: set factor to 0.0413
ElecMinimize: Iter:  12  F: -4292.102908021954136  |grad|_K:  1.777e-06  alpha:  3.451e-01  linmin:  3.400e-06  t[s]:   5469.80
	FillingsUpdate:  mu: +0.142938409  nElectrons: 778.000000  magneticMoment: [ Abs: 0.00058  Tot: -0.00013 ]
	SubspaceRotationAdjust: set factor to 0.0405
ElecMinimize: Iter:  13  F: -4292.103409106129220  |grad|_K:  1.186e-06  alpha:  3.399e-01  linmin:  2.015e-06  t[s]:   5640.20
	FillingsUpdate:  mu: +0.144030524  nElectrons: 778.000000  magneticMoment: [ Abs: 0.00056  Tot: -0.00013 ]
	SubspaceRotationAdjust: set factor to 0.0498
ElecMinimize: Iter:  14  F: -4292.103678578850122  |grad|_K:  8.512e-07  alpha:  4.104e-01  linmin: -1.535e-07  t[s]:   5811.05
	FillingsUpdate:  mu: +0.144065839  nElectrons: 778.000000  magneticMoment: [ Abs: 0.00055  Tot: -0.00013 ]
	SubspaceRotationAdjust: set factor to 0.0479
ElecMinimize: Iter:  15  F: -4292.103818219841742  |grad|_K:  8.364e-07  alpha:  4.126e-01  linmin:  1.056e-06  t[s]:   5981.64
	FillingsUpdate:  mu: +0.143341333  nElectrons: 778.000000  magneticMoment: [ Abs: 0.00052  Tot: -0.00013 ]
	SubspaceRotationAdjust: set factor to 0.0549
ElecMinimize: Iter:  16  F: -4292.103983417287964  |grad|_K:  7.590e-07  alpha:  5.058e-01  linmin:  5.322e-06  t[s]:   6152.56
	FillingsUpdate:  mu: +0.143407567  nElectrons: 778.000000  magneticMoment: [ Abs: 0.00050  Tot: -0.00013 ]
	SubspaceRotationAdjust: set factor to 0.0612
ElecMinimize: Iter:  17  F: -4292.104114219398980  |grad|_K:  7.215e-07  alpha:  4.867e-01  linmin:  2.285e-06  t[s]:   6322.77
	FillingsUpdate:  mu: +0.143830914  nElectrons: 778.000000  magneticMoment: [ Abs: 0.00048  Tot: -0.00013 ]
	SubspaceRotationAdjust: set factor to 0.0613
ElecMinimize: Iter:  18  F: -4292.104226455480784  |grad|_K:  7.377e-07  alpha:  4.618e-01  linmin:  7.334e-07  t[s]:   6492.98
	FillingsUpdate:  mu: +0.143921201  nElectrons: 778.000000  magneticMoment: [ Abs: 0.00044  Tot: -0.00013 ]
	SubspaceRotationAdjust: set factor to 0.0599
ElecMinimize: Iter:  19  F: -4292.104339584107947  |grad|_K:  7.882e-07  alpha:  4.452e-01  linmin:  8.418e-07  t[s]:   6663.26
	FillingsUpdate:  mu: +0.143769967  nElectrons: 778.000000  magneticMoment: [ Abs: 0.00040  Tot: -0.00013 ]
	SubspaceRotationAdjust: set factor to 0.0527
ElecMinimize: Iter:  20  F: -4292.104455144279200  |grad|_K:  7.680e-07  alpha:  3.983e-01  linmin:  5.666e-07  t[s]:   6833.58
	FillingsUpdate:  mu: +0.143894612  nElectrons: 778.000000  magneticMoment: [ Abs: 0.00034  Tot: -0.00013 ]
	SubspaceRotationAdjust: set factor to 0.0587
ElecMinimize: Iter:  21  F: -4292.104590147650924  |grad|_K:  6.416e-07  alpha:  4.901e-01  linmin: -5.972e-07  t[s]:   7004.53
	FillingsUpdate:  mu: +0.143900732  nElectrons: 778.000000  magneticMoment: [ Abs: 0.00030  Tot: -0.00013 ]
	SubspaceRotationAdjust: set factor to 0.0563
ElecMinimize: Iter:  22  F: -4292.104673445456683  |grad|_K:  5.537e-07  alpha:  4.330e-01  linmin: -9.372e-07  t[s]:   7174.91
	FillingsUpdate:  mu: +0.143782757  nElectrons: 778.000000  magneticMoment: [ Abs: 0.00027  Tot: -0.00013 ]
	SubspaceRotationAdjust: set factor to 0.0464
ElecMinimize: Iter:  23  F: -4292.104718109153509  |grad|_K:  4.488e-07  alpha:  3.117e-01  linmin: -4.467e-07  t[s]:   7345.35
	FillingsUpdate:  mu: +0.143755383  nElectrons: 778.000000  magneticMoment: [ Abs: 0.00024  Tot: -0.00013 ]
	SubspaceRotationAdjust: set factor to 0.047
ElecMinimize: Iter:  24  F: -4292.104758292132829  |grad|_K:  3.634e-07  alpha:  4.269e-01  linmin: -1.529e-06  t[s]:   7515.58
	FillingsUpdate:  mu: +0.143797607  nElectrons: 778.000000  magneticMoment: [ Abs: 0.00022  Tot: -0.00013 ]
	SubspaceRotationAdjust: set factor to 0.0477
ElecMinimize: Iter:  25  F: -4292.104783251667868  |grad|_K:  2.813e-07  alpha:  4.042e-01  linmin: -7.511e-07  t[s]:   7685.81
	FillingsUpdate:  mu: +0.143796957  nElectrons: 778.000000  magneticMoment: [ Abs: 0.00021  Tot: -0.00013 ]
	SubspaceRotationAdjust: set factor to 0.0495
ElecMinimize: Iter:  26  F: -4292.104798204842155  |grad|_K:  2.237e-07  alpha:  4.045e-01  linmin: -6.754e-07  t[s]:   7856.91
	FillingsUpdate:  mu: +0.143818768  nElectrons: 778.000000  magneticMoment: [ Abs: 0.00020  Tot: -0.00013 ]
	SubspaceRotationAdjust: set factor to 0.0482
ElecMinimize: Iter:  27  F: -4292.104806721728892  |grad|_K:  1.791e-07  alpha:  3.642e-01  linmin: -2.372e-07  t[s]:   8027.20
	FillingsUpdate:  mu: +0.143852736  nElectrons: 778.000000  magneticMoment: [ Abs: 0.00019  Tot: -0.00013 ]
	SubspaceRotationAdjust: set factor to 0.0553
ElecMinimize: Iter:  28  F: -4292.104812898292948  |grad|_K:  1.428e-07  alpha:  4.120e-01  linmin: -1.349e-07  t[s]:   8198.07
	FillingsUpdate:  mu: +0.143872524  nElectrons: 778.000000  magneticMoment: [ Abs: 0.00019  Tot: -0.00013 ]
	SubspaceRotationAdjust: set factor to 0.0646
ElecMinimize: Iter:  29  F: -4292.104817749820540  |grad|_K:  1.363e-07  alpha:  5.090e-01  linmin: -4.312e-07  t[s]:   8368.46
	FillingsUpdate:  mu: +0.143894654  nElectrons: 778.000000  magneticMoment: [ Abs: 0.00018  Tot: -0.00012 ]
	SubspaceRotationAdjust: set factor to 0.0608
ElecMinimize: Iter:  30  F: -4292.104821012968387  |grad|_K:  1.323e-07  alpha:  3.761e-01  linmin:  1.986e-07  t[s]:   8539.39
	FillingsUpdate:  mu: +0.143915310  nElectrons: 778.000000  magneticMoment: [ Abs: 0.00018  Tot: -0.00012 ]
	SubspaceRotationAdjust: set factor to 0.0621
ElecMinimize: Iter:  31  F: -4292.104824016769271  |grad|_K:  1.071e-07  alpha:  3.672e-01  linmin:  3.998e-07  t[s]:   8710.26
	FillingsUpdate:  mu: +0.143930501  nElectrons: 778.000000  magneticMoment: [ Abs: 0.00017  Tot: -0.00012 ]
	SubspaceRotationAdjust: set factor to 0.0639
ElecMinimize: Iter:  32  F: -4292.104826440235229  |grad|_K:  9.896e-08  alpha:  4.523e-01  linmin: -1.514e-07  t[s]:   8880.63
	FillingsUpdate:  mu: +0.143927297  nElectrons: 778.000000  magneticMoment: [ Abs: 0.00016  Tot: -0.00012 ]
	SubspaceRotationAdjust: set factor to 0.0631
ElecMinimize: Iter:  33  F: -4292.104828377594458  |grad|_K:  8.365e-08  alpha:  4.235e-01  linmin: -6.562e-07  t[s]:   9051.36
	FillingsUpdate:  mu: +0.143932071  nElectrons: 778.000000  magneticMoment: [ Abs: 0.00016  Tot: -0.00012 ]
	SubspaceRotationAdjust: set factor to 0.0646
ElecMinimize: Iter:  34  F: -4292.104829910500484  |grad|_K:  7.550e-08  alpha:  4.686e-01  linmin: -8.996e-07  t[s]:   9221.55
	FillingsUpdate:  mu: +0.143938303  nElectrons: 778.000000  magneticMoment: [ Abs: 0.00015  Tot: -0.00012 ]
	SubspaceRotationAdjust: set factor to 0.0539
ElecMinimize: Iter:  35  F: -4292.104830794379268  |grad|_K:  6.686e-08  alpha:  3.317e-01  linmin:  1.893e-07  t[s]:   9392.38
	FillingsUpdate:  mu: +0.143930708  nElectrons: 778.000000  magneticMoment: [ Abs: 0.00015  Tot: -0.00012 ]
	SubspaceRotationAdjust: set factor to 0.0524
ElecMinimize: Iter:  36  F: -4292.104831504614594  |grad|_K:  4.869e-08  alpha:  3.403e-01  linmin: -3.782e-07  t[s]:   9562.78
	FillingsUpdate:  mu: +0.143928483  nElectrons: 778.000000  magneticMoment: [ Abs: 0.00014  Tot: -0.00011 ]
	SubspaceRotationAdjust: set factor to 0.058
ElecMinimize: Iter:  37  F: -4292.104832013345003  |grad|_K:  4.168e-08  alpha:  4.593e-01  linmin:  7.175e-07  t[s]:   9733.09
	FillingsUpdate:  mu: +0.143932799  nElectrons: 778.000000  magneticMoment: [ Abs: 0.00014  Tot: -0.00011 ]
	SubspaceRotationAdjust: set factor to 0.0606
ElecMinimize: Iter:  38  F: -4292.104832364781942  |grad|_K:  3.642e-08  alpha:  4.345e-01  linmin:  9.739e-08  t[s]:   9903.54
	FillingsUpdate:  mu: +0.143924891  nElectrons: 778.000000  magneticMoment: [ Abs: 0.00013  Tot: -0.00011 ]
	SubspaceRotationAdjust: set factor to 0.0621
ElecMinimize: Iter:  39  F: -4292.104832620275374  |grad|_K:  3.406e-08  alpha:  4.122e-01  linmin:  3.122e-06  t[s]:  10074.05
	FillingsUpdate:  mu: +0.143915380  nElectrons: 778.000000  magneticMoment: [ Abs: 0.00013  Tot: -0.00011 ]
	SubspaceRotationAdjust: set factor to 0.0593
ElecMinimize: Iter:  40  F: -4292.104832806773629  |grad|_K:  2.982e-08  alpha:  3.461e-01  linmin:  5.715e-07  t[s]:  10245.78
	FillingsUpdate:  mu: +0.143907605  nElectrons: 778.000000  magneticMoment: [ Abs: 0.00013  Tot: -0.00011 ]
	SubspaceRotationAdjust: set factor to 0.0672
ElecMinimize: Iter:  41  F: -4292.104832999724749  |grad|_K:  2.590e-08  alpha:  4.653e-01  linmin:  4.073e-06  t[s]:  10416.40
	FillingsUpdate:  mu: +0.143903395  nElectrons: 778.000000  magneticMoment: [ Abs: 0.00012  Tot: -0.00011 ]
	SubspaceRotationAdjust: set factor to 0.0759
ElecMinimize: Iter:  42  F: -4292.104833167103607  |grad|_K:  2.516e-08  alpha:  5.349e-01  linmin: -2.002e-06  t[s]:  10587.16
	FillingsUpdate:  mu: +0.143887709  nElectrons: 778.000000  magneticMoment: [ Abs: 0.00012  Tot: -0.00010 ]
	SubspaceRotationAdjust: set factor to 0.0702
ElecMinimize: Iter:  43  F: -4292.104833289889939  |grad|_K:  2.611e-08  alpha:  4.141e-01  linmin:  1.904e-06  t[s]:  10757.39
	FillingsUpdate:  mu: +0.143874436  nElectrons: 778.000000  magneticMoment: [ Abs: 0.00011  Tot: -0.00010 ]
	SubspaceRotationAdjust: set factor to 0.0598
ElecMinimize: Iter:  44  F: -4292.104833386774771  |grad|_K:  2.269e-08  alpha:  3.058e-01  linmin:  1.117e-06  t[s]:  10927.97
	FillingsUpdate:  mu: +0.143876029  nElectrons: 778.000000  magneticMoment: [ Abs: 0.00011  Tot: -0.00010 ]
	SubspaceRotationAdjust: set factor to 0.0549
ElecMinimize: Iter:  45  F: -4292.104833471757956  |grad|_K:  1.899e-08  alpha:  3.551e-01  linmin:  1.026e-06  t[s]:  11098.88
ElecMinimize: Converged (|Delta F|<1.000000e-07 for 2 iters).
Setting wave functions to eigenvectors of Hamiltonian
Converging empty states (this may take a while): |deigs|: 2.809e-03
Vacuum energy after initial minimize, F = -4292.104833471757956


-------- Electronic minimization -----------
	Linear fluid (dielectric constant: 78.4, screening length: 8.12261 Bohr) occupying 0.496741 of unit cell:	Completed after 25 iterations at t[s]:  12145.25
	FillingsUpdate:  mu: -0.199232965  nElectrons: 778.000000  magneticMoment: [ Abs: 0.00009  Tot: -0.00008 ]
ElecMinimize: Iter:   0  F: -4292.116442793723763  |grad|_K:  9.462e-07  alpha:  1.000e+00
	Linear fluid (dielectric constant: 78.4, screening length: 8.12261 Bohr) occupying 0.497385 of unit cell:	Completed after 18 iterations at t[s]:  12291.48
	Linear fluid (dielectric constant: 78.4, screening length: 8.12261 Bohr) occupying 0.496991 of unit cell:	Completed after 16 iterations at t[s]:  12342.72
	FillingsUpdate:  mu: -0.198224973  nElectrons: 778.000000  magneticMoment: [ Abs: 0.00009  Tot: -0.00008 ]
	SubspaceRotationAdjust: set factor to 0.0453
ElecMinimize: Iter:   1  F: -4292.116605007568978  |grad|_K:  8.494e-07  alpha:  3.876e-01  linmin:  8.685e-08  t[s]:  12407.86
	Linear fluid (dielectric constant: 78.4, screening length: 8.12261 Bohr) occupying 0.497388 of unit cell:	Completed after 14 iterations at t[s]:  12477.15
	Linear fluid (dielectric constant: 78.4, screening length: 8.12261 Bohr) occupying 0.497697 of unit cell:	Completed after 13 iterations at t[s]:  12527.14
	FillingsUpdate:  mu: -0.196765302  nElectrons: 778.000000  magneticMoment: [ Abs: 0.00009  Tot: -0.00008 ]
	SubspaceRotationAdjust: set factor to 0.0497
ElecMinimize: Iter:   2  F: -4292.116838318811460  |grad|_K:  6.103e-07  alpha:  6.927e-01  linmin:  4.068e-08  t[s]:  12592.55
	Linear fluid (dielectric constant: 78.4, screening length: 8.12261 Bohr) occupying 0.498142 of unit cell:	Completed after 12 iterations at t[s]:  12661.36
	Linear fluid (dielectric constant: 78.4, screening length: 8.12261 Bohr) occupying 0.498041 of unit cell:	Completed after 9 iterations at t[s]:  12710.11
	FillingsUpdate:  mu: -0.196781843  nElectrons: 778.000000  magneticMoment: [ Abs: 0.00009  Tot: -0.00008 ]
	SubspaceRotationAdjust: set factor to 0.0528
ElecMinimize: Iter:   3  F: -4292.116931368655059  |grad|_K:  4.491e-07  alpha:  5.352e-01  linmin: -5.230e-08  t[s]:  12775.57
	Linear fluid (dielectric constant: 78.4, screening length: 8.12261 Bohr) occupying 0.498223 of unit cell:	Completed after 11 iterations at t[s]:  12843.92
	Linear fluid (dielectric constant: 78.4, screening length: 8.12261 Bohr) occupying 0.498248 of unit cell:	Completed after 2 iterations at t[s]:  12891.31
	FillingsUpdate:  mu: -0.196455886  nElectrons: 778.000000  magneticMoment: [ Abs: 0.00009  Tot: -0.00008 ]
	SubspaceRotationAdjust: set factor to 0.0613
ElecMinimize: Iter:   4  F: -4292.116988669728926  |grad|_K:  3.863e-07  alpha:  6.080e-01  linmin: -2.612e-07  t[s]:  12956.60
	Linear fluid (dielectric constant: 78.4, screening length: 8.12261 Bohr) occupying 0.498378 of unit cell:	Completed after 11 iterations at t[s]:  13024.73
	Linear fluid (dielectric constant: 78.4, screening length: 8.12261 Bohr) occupying 0.498406 of unit cell:	Completed after 4 iterations at t[s]:  13072.42
	FillingsUpdate:  mu: -0.195917757  nElectrons: 778.000000  magneticMoment: [ Abs: 0.00009  Tot: -0.00008 ]
	SubspaceRotationAdjust: set factor to 0.071
ElecMinimize: Iter:   5  F: -4292.117040645474844  |grad|_K:  3.787e-07  alpha:  7.429e-01  linmin: -4.367e-07  t[s]:  13137.64
	Linear fluid (dielectric constant: 78.4, screening length: 8.12261 Bohr) occupying 0.498533 of unit cell:	Completed after 11 iterations at t[s]:  13206.55
	Linear fluid (dielectric constant: 78.4, screening length: 8.12261 Bohr) occupying 0.498534 of unit cell:	Completed after 0 iterations at t[s]:  13252.66
	FillingsUpdate:  mu: -0.195793936  nElectrons: 778.000000  magneticMoment: [ Abs: 0.00008  Tot: -0.00008 ]
	SubspaceRotationAdjust: set factor to 0.0751
ElecMinimize: Iter:   6  F: -4292.117090930543782  |grad|_K:  4.048e-07  alpha:  7.460e-01  linmin: -1.832e-07  t[s]:  13317.77
	Linear fluid (dielectric constant: 78.4, screening length: 8.12261 Bohr) occupying 0.498665 of unit cell:	Completed after 14 iterations at t[s]:  13386.91
	Linear fluid (dielectric constant: 78.4, screening length: 8.12261 Bohr) occupying 0.498631 of unit cell:	Completed after 7 iterations at t[s]:  13435.35
	FillingsUpdate:  mu: -0.195444433  nElectrons: 778.000000  magneticMoment: [ Abs: 0.00008  Tot: -0.00008 ]
	SubspaceRotationAdjust: set factor to 0.0674
ElecMinimize: Iter:   7  F: -4292.117132865753774  |grad|_K:  4.054e-07  alpha:  5.466e-01  linmin: -1.474e-08  t[s]:  13500.60
	Linear fluid (dielectric constant: 78.4, screening length: 8.12261 Bohr) occupying 0.498721 of unit cell:	Completed after 11 iterations at t[s]:  13568.89
	Linear fluid (dielectric constant: 78.4, screening length: 8.12261 Bohr) occupying 0.498707 of unit cell:	Completed after 3 iterations at t[s]:  13616.21
	FillingsUpdate:  mu: -0.195315270  nElectrons: 778.000000  magneticMoment: [ Abs: 0.00008  Tot: -0.00008 ]
	SubspaceRotationAdjust: set factor to 0.0551
ElecMinimize: Iter:   8  F: -4292.117167933004566  |grad|_K:  3.443e-07  alpha:  4.565e-01  linmin:  8.213e-08  t[s]:  13681.52
	Linear fluid (dielectric constant: 78.4, screening length: 8.12261 Bohr) occupying 0.498761 of unit cell:	Completed after 8 iterations at t[s]:  13748.74
	Linear fluid (dielectric constant: 78.4, screening length: 8.12261 Bohr) occupying 0.498770 of unit cell:	Completed after 3 iterations at t[s]:  13796.62
	FillingsUpdate:  mu: -0.195348002  nElectrons: 778.000000  magneticMoment: [ Abs: 0.00008  Tot: -0.00007 ]
	SubspaceRotationAdjust: set factor to 0.0531
ElecMinimize: Iter:   9  F: -4292.117197302525710  |grad|_K:  2.544e-07  alpha:  5.311e-01  linmin: -1.600e-07  t[s]:  13862.04
	Linear fluid (dielectric constant: 78.4, screening length: 8.12261 Bohr) occupying 0.498805 of unit cell:	Completed after 7 iterations at t[s]:  13929.01
	Linear fluid (dielectric constant: 78.4, screening length: 8.12261 Bohr) occupying 0.498808 of unit cell:	Completed after 1 iterations at t[s]:  13975.75
	FillingsUpdate:  mu: -0.195199713  nElectrons: 778.000000  magneticMoment: [ Abs: 0.00008  Tot: -0.00007 ]
	SubspaceRotationAdjust: set factor to 0.0568
ElecMinimize: Iter:  10  F: -4292.117214920527658  |grad|_K:  1.918e-07  alpha:  5.804e-01  linmin: -1.438e-07  t[s]:  14040.99
	Linear fluid (dielectric constant: 78.4, screening length: 8.12261 Bohr) occupying 0.498832 of unit cell:	Completed after 6 iterations at t[s]:  14108.40
	Linear fluid (dielectric constant: 78.4, screening length: 8.12261 Bohr) occupying 0.498830 of unit cell:	Completed after 2 iterations at t[s]:  14155.38
	FillingsUpdate:  mu: -0.195123600  nElectrons: 778.000000  magneticMoment: [ Abs: 0.00008  Tot: -0.00007 ]
	SubspaceRotationAdjust: set factor to 0.0599
ElecMinimize: Iter:  11  F: -4292.117224065233131  |grad|_K:  1.454e-07  alpha:  5.307e-01  linmin:  2.841e-08  t[s]:  14220.46
	Linear fluid (dielectric constant: 78.4, screening length: 8.12261 Bohr) occupying 0.498843 of unit cell:	Completed after 5 iterations at t[s]:  14286.91
	Linear fluid (dielectric constant: 78.4, screening length: 8.12261 Bohr) occupying 0.498842 of unit cell:	Completed after 2 iterations at t[s]:  14333.95
	FillingsUpdate:  mu: -0.195096371  nElectrons: 778.000000  magneticMoment: [ Abs: 0.00007  Tot: -0.00007 ]
	SubspaceRotationAdjust: set factor to 0.0601
ElecMinimize: Iter:  12  F: -4292.117228767524466  |grad|_K:  1.144e-07  alpha:  4.769e-01  linmin:  1.513e-08  t[s]:  14399.21
	Linear fluid (dielectric constant: 78.4, screening length: 8.12261 Bohr) occupying 0.498850 of unit cell:	Completed after 5 iterations at t[s]:  14465.85
	Linear fluid (dielectric constant: 78.4, screening length: 8.12261 Bohr) occupying 0.498850 of unit cell:	Completed after 0 iterations at t[s]:  14511.96
	FillingsUpdate:  mu: -0.195078137  nElectrons: 778.000000  magneticMoment: [ Abs: 0.00007  Tot: -0.00007 ]
	SubspaceRotationAdjust: set factor to 0.0598
ElecMinimize: Iter:  13  F: -4292.117231626571083  |grad|_K:  8.843e-08  alpha:  4.681e-01  linmin:  3.908e-08  t[s]:  14577.19
	Linear fluid (dielectric constant: 78.4, screening length: 8.12261 Bohr) occupying 0.498854 of unit cell:	Completed after 2 iterations at t[s]:  14642.87
	Linear fluid (dielectric constant: 78.4, screening length: 8.12261 Bohr) occupying 0.498855 of unit cell:	Completed after 2 iterations at t[s]:  14690.60
	FillingsUpdate:  mu: -0.195075535  nElectrons: 778.000000  magneticMoment: [ Abs: 0.00007  Tot: -0.00007 ]
	SubspaceRotationAdjust: set factor to 0.0634
ElecMinimize: Iter:  14  F: -4292.117233599710744  |grad|_K:  7.131e-08  alpha:  5.419e-01  linmin: -3.241e-07  t[s]:  14755.90
	Linear fluid (dielectric constant: 78.4, screening length: 8.12261 Bohr) occupying 0.498860 of unit cell:	Completed after 3 iterations at t[s]:  14821.87
	Linear fluid (dielectric constant: 78.4, screening length: 8.12261 Bohr) occupying 0.498860 of unit cell:	Completed after 0 iterations at t[s]:  14867.70
	FillingsUpdate:  mu: -0.195073277  nElectrons: 778.000000  magneticMoment: [ Abs: 0.00007  Tot: -0.00007 ]
	SubspaceRotationAdjust: set factor to 0.0727
ElecMinimize: Iter:  15  F: -4292.117234993879720  |grad|_K:  6.212e-08  alpha:  5.839e-01  linmin: -7.173e-07  t[s]:  14932.89
	Linear fluid (dielectric constant: 78.4, screening length: 8.12261 Bohr) occupying 0.498864 of unit cell:	Completed after 2 iterations at t[s]:  14999.00
	Linear fluid (dielectric constant: 78.4, screening length: 8.12261 Bohr) occupying 0.498864 of unit cell:	Completed after 0 iterations at t[s]:  15044.90
	FillingsUpdate:  mu: -0.195077677  nElectrons: 778.000000  magneticMoment: [ Abs: 0.00007  Tot: -0.00007 ]
	SubspaceRotationAdjust: set factor to 0.0835
ElecMinimize: Iter:  16  F: -4292.117236001344281  |grad|_K:  5.886e-08  alpha:  5.524e-01  linmin:  1.280e-07  t[s]:  15110.20
	Linear fluid (dielectric constant: 78.4, screening length: 8.12261 Bohr) occupying 0.498868 of unit cell:	Completed after 2 iterations at t[s]:  15175.91
	Linear fluid (dielectric constant: 78.4, screening length: 8.12261 Bohr) occupying 0.498868 of unit cell:	Completed after 0 iterations at t[s]:  15221.64
	FillingsUpdate:  mu: -0.195088130  nElectrons: 778.000000  magneticMoment: [ Abs: 0.00007  Tot: -0.00007 ]
	SubspaceRotationAdjust: set factor to 0.0898
ElecMinimize: Iter:  17  F: -4292.117236854197472  |grad|_K:  5.328e-08  alpha:  5.273e-01  linmin:  3.493e-07  t[s]:  15287.85
	Linear fluid (dielectric constant: 78.4, screening length: 8.12261 Bohr) occupying 0.498872 of unit cell:	Completed after 3 iterations at t[s]:  15353.86
	Linear fluid (dielectric constant: 78.4, screening length: 8.12261 Bohr) occupying 0.498872 of unit cell:	Completed after 0 iterations at t[s]:  15399.48
	FillingsUpdate:  mu: -0.195088517  nElectrons: 778.000000  magneticMoment: [ Abs: 0.00007  Tot: -0.00006 ]
	SubspaceRotationAdjust: set factor to 0.0808
ElecMinimize: Iter:  18  F: -4292.117237490261687  |grad|_K:  5.551e-08  alpha:  4.823e-01  linmin:  1.219e-06  t[s]:  15464.86
	Linear fluid (dielectric constant: 78.4, screening length: 8.12261 Bohr) occupying 0.498876 of unit cell:	Completed after 3 iterations at t[s]:  15530.76
	Linear fluid (dielectric constant: 78.4, screening length: 8.12261 Bohr) occupying 0.498875 of unit cell:	Completed after 2 iterations at t[s]:  15577.54
	FillingsUpdate:  mu: -0.195094056  nElectrons: 778.000000  magneticMoment: [ Abs: 0.00007  Tot: -0.00006 ]
	SubspaceRotationAdjust: set factor to 0.0667
ElecMinimize: Iter:  19  F: -4292.117237946560635  |grad|_K:  4.277e-08  alpha:  3.311e-01  linmin:  3.474e-07  t[s]:  15642.77
	Linear fluid (dielectric constant: 78.4, screening length: 8.12261 Bohr) occupying 0.498877 of unit cell:	Completed after 2 iterations at t[s]:  15708.21
	Linear fluid (dielectric constant: 78.4, screening length: 8.12261 Bohr) occupying 0.498878 of unit cell:	Completed after 1 iterations at t[s]:  15754.59
	FillingsUpdate:  mu: -0.195099026  nElectrons: 778.000000  magneticMoment: [ Abs: 0.00007  Tot: -0.00006 ]
	SubspaceRotationAdjust: set factor to 0.0714
ElecMinimize: Iter:  20  F: -4292.117238377470130  |grad|_K:  3.096e-08  alpha:  5.014e-01  linmin: -2.822e-06  t[s]:  15819.82
	Linear fluid (dielectric constant: 78.4, screening length: 8.12261 Bohr) occupying 0.498880 of unit cell:	Completed after 2 iterations at t[s]:  15886.68
	Linear fluid (dielectric constant: 78.4, screening length: 8.12261 Bohr) occupying 0.498881 of unit cell:	Completed after 0 iterations at t[s]:  15932.61
	FillingsUpdate:  mu: -0.195101702  nElectrons: 778.000000  magneticMoment: [ Abs: 0.00006  Tot: -0.00006 ]
	SubspaceRotationAdjust: set factor to 0.0791
ElecMinimize: Iter:  21  F: -4292.117238647173508  |grad|_K:  2.552e-08  alpha:  5.718e-01  linmin: -2.596e-06  t[s]:  15997.99
	Linear fluid (dielectric constant: 78.4, screening length: 8.12261 Bohr) occupying 0.498882 of unit cell:	Completed after 2 iterations at t[s]:  16063.70
	Linear fluid (dielectric constant: 78.4, screening length: 8.12261 Bohr) occupying 0.498882 of unit cell:	Completed after 0 iterations at t[s]:  16109.52
	FillingsUpdate:  mu: -0.195109143  nElectrons: 778.000000  magneticMoment: [ Abs: 0.00006  Tot: -0.00006 ]
	SubspaceRotationAdjust: set factor to 0.0729
ElecMinimize: Iter:  22  F: -4292.117238785675909  |grad|_K:  2.727e-08  alpha:  4.255e-01  linmin:  7.492e-06  t[s]:  16174.88
	Linear fluid (dielectric constant: 78.4, screening length: 8.12261 Bohr) occupying 0.498883 of unit cell:	Completed after 2 iterations at t[s]:  16240.48
	Linear fluid (dielectric constant: 78.4, screening length: 8.12261 Bohr) occupying 0.498883 of unit cell:	Completed after 1 iterations at t[s]:  16287.20
	FillingsUpdate:  mu: -0.195111032  nElectrons: 778.000000  magneticMoment: [ Abs: 0.00006  Tot: -0.00006 ]
	SubspaceRotationAdjust: set factor to 0.0556
ElecMinimize: Iter:  23  F: -4292.117238855512369  |grad|_K:  1.948e-08  alpha:  2.464e-01  linmin:  4.166e-06  t[s]:  16352.48
	Linear fluid (dielectric constant: 78.4, screening length: 8.12261 Bohr) occupying 0.498883 of unit cell:	Completed after 0 iterations at t[s]:  16417.31
	Linear fluid (dielectric constant: 78.4, screening length: 8.12261 Bohr) occupying 0.498883 of unit cell:	Completed after 1 iterations at t[s]:  16463.85
	FillingsUpdate:  mu: -0.195111747  nElectrons: 778.000000  magneticMoment: [ Abs: 0.00006  Tot: -0.00006 ]
	SubspaceRotationAdjust: set factor to 0.0656
ElecMinimize: Iter:  24  F: -4292.117238911887398  |grad|_K:  1.473e-08  alpha:  3.933e-01  linmin:  7.307e-06  t[s]:  16529.19
ElecMinimize: Converged (|Delta F|<1.000000e-07 for 2 iters).
Setting wave functions to eigenvectors of Hamiltonian
Converging empty states (this may take a while): |deigs|: 7.987e-05
Single-point solvation energy estimate, DeltaF = -0.012405440129442

Computing DFT-D3 correction:
# coordination-number Pt 5.928 5.958 5.928 6.963 7.145 7.145 7.145 7.145 9.433 9.433 9.433 9.433 9.344 9.344 9.344 9.344 9.308 9.309 9.308 9.309 7.662 7.663 7.662 7.665 7.666 7.666 7.666 7.666 9.310 9.310 9.310 9.310 9.342 9.342 9.342 9.342 9.434 9.436 9.434 9.436 7.149 7.679 7.149 7.679 5.929 5.929 5.929 5.929
# coordination-number C 3.076
# coordination-number O 1.068
# diagonal-C6 Pt 336.87 336.87 336.87 336.87 336.87 336.87 336.87 336.87 336.87 336.87 336.87 336.87 336.87 336.87 336.87 336.87 336.87 336.87 336.87 336.87 336.87 336.87 336.87 336.87 336.87 336.87 336.87 336.87 336.87 336.87 336.87 336.87 336.87 336.87 336.87 336.87 336.87 336.87 336.87 336.87 336.87 336.87 336.87 336.87 336.87 336.87 336.87 336.87
# diagonal-C6 C 25.51
# diagonal-C6 O 12.76
EvdW_6 =   -0.379310
EvdW_8 =   -0.630472

# Ionic positions in cartesian coordinates:
ion Pt   0.000220000000000   0.307628000000000  17.100908000000000 0
ion Pt   0.000220000000000  13.123347000000001  17.100908000000000 0
ion Pt   5.232205000000001   0.307628000000000  17.100908000000000 0
ion Pt   5.232205000000001  13.123347000000001  17.100908000000000 0
ion Pt  10.463699000000000   4.022239000000000   2.178053000000000 0
ion Pt  10.463699000000000  16.837956999999999   2.178053000000000 0
ion Pt   5.231692000000000   4.022239000000000   2.178053000000000 0
ion Pt   5.231692000000000  16.837956999999999   2.178053000000000 0
ion Pt  10.463981000000000   8.528655000000001   5.417403000000000 0
ion Pt  10.463981000000000  21.344373999999998   5.417403000000000 0
ion Pt   5.231975000000000   8.528655000000001   5.417403000000000 0
ion Pt   5.231975000000000  21.344373999999998   5.417403000000000 0
ion Pt  10.463844999999999  25.622132000000001   8.238791000000001 0
ion Pt  10.463844999999999  12.806414000000000   8.238791000000001 0
ion Pt   5.231849000000001  25.622132000000001   8.238791000000001 0
ion Pt   5.231849000000001  12.806414000000000   8.238791000000001 0
ion Pt   0.000157000000000   4.349296000000000  11.332694000000000 0
ion Pt   0.000157000000000  17.165013999999999  11.332694000000000 0
ion Pt   5.232153000000001   4.349296000000000  11.332694000000000 0
ion Pt   5.232153000000001  17.165013999999999  11.332694000000000 0
ion Pt   0.000303000000000   8.653275000000001  14.682311000000000 0
ion Pt   0.000303000000000  21.469018999999999  14.682311000000000 0
ion Pt   5.232310000000000   8.653275000000001  14.682311000000000 0
ion Pt   5.232310000000000  21.469018999999999  14.682311000000000 0
ion Pt   2.615715000000000  25.523040999999999   3.443627000000001 0
ion Pt   2.615715000000000  12.707296999999999   3.443627000000001 0
ion Pt   7.847711000000000  25.523040999999999   3.443627000000001 0
ion Pt   7.847711000000000  12.707296999999999   3.443627000000001 0
ion Pt   2.615810000000000   4.193175000000000   6.787100000000000 0
ion Pt   2.615810000000000  17.008893000000000   6.787100000000000 0
ion Pt   7.847806000000000   4.193175000000000   6.787100000000000 0
ion Pt   7.847806000000000  17.008893000000000   6.787100000000000 0
ion Pt   2.616155000000000   8.553081999999998   9.886386000000000 0
ion Pt   2.616155000000000  21.368799999999997   9.886386000000000 0
ion Pt   7.848151000000000   8.553081999999998   9.886386000000000 0
ion Pt   7.848151000000000  21.368799999999997   9.886386000000000 0
ion Pt   2.615998000000000   0.014841000000000  12.709460000000000 0
ion Pt   2.615998000000000  12.830558999999997  12.709460000000000 0
ion Pt   7.847994000000001   0.014841000000000  12.709460000000000 0
ion Pt   7.847994000000001  12.830558999999997  12.709460000000000 0
ion Pt   2.616322000000000   4.520642000000000  15.941687000000002 0
ion Pt   2.616322000000000  17.336386000000001  15.941687000000002 0
ion Pt   7.848318000000000   4.520642000000000  15.941687000000002 0
ion Pt   7.848318000000000  17.336386000000001  15.941687000000002 0
ion Pt   2.615768000000000   8.237738999999999   1.026553000000000 0
ion Pt   2.615768000000000  21.053457000000002   1.026553000000000 0
ion Pt   7.847764000000001   8.237738999999999   1.026553000000000 0
ion Pt   7.847764000000001  21.053457000000002   1.026553000000000 0
ion C   5.232278000000000  15.932038999999998  19.563818999999999 1  Linear 0 0 1
ion O   5.292373000000000  15.932038999999998  21.719144000000000 1  Linear 0 0 1

# Forces in Cartesian coordinates:
force Pt  -0.000003719963418  -0.000428409855329  -0.000373717683007 0
force Pt  -0.000044356712837  -0.006759008236862  -0.003108126325246 0
force Pt   0.000002795880020   0.000049313561765  -0.000186981886810 0
force Pt  -0.000411284142387  -0.006875291875644   0.002656316083839 0
force Pt   0.000007068410534   0.001134443897524  -0.000130804731143 0
force Pt   0.000007921092598   0.000373076810144   0.000146055188408 0
force Pt  -0.000003155205357   0.000357815315390  -0.000279629744866 0
force Pt  -0.000017760734878   0.000766503622968  -0.001566549271907 0
force Pt   0.000008440747970   0.000991291963172  -0.000243737531961 0
force Pt   0.000003733217806   0.000442826511188  -0.000546784294872 0
force Pt  -0.000009546255763   0.000794230843667  -0.000366119478954 0
force Pt  -0.000001553293209  -0.000253516300805  -0.000490629028790 0
force Pt  -0.000002506448671   0.000260011985262  -0.000301043630994 0
force Pt   0.000040765795307   0.001488457892523  -0.003931040050126 0
force Pt  -0.000000131461726  -0.000065953999513  -0.000504124326911 0
force Pt  -0.000026002491221   0.000868066839989   0.000953595619376 0
force Pt  -0.000002640153372  -0.000275464806021   0.000000558928091 0
force Pt   0.000102061029960  -0.001734810620772   0.004444285679703 0
force Pt   0.000002014339068   0.000332549420723  -0.000426397237210 0
force Pt   0.000003824225516  -0.000482646990144  -0.003192496602545 0
force Pt   0.000009989610280   0.000057323741769  -0.001013427330195 0
force Pt  -0.000001578380675  -0.000995060296051  -0.000555363253078 0
force Pt   0.000017870902342   0.002899770491011  -0.001370909474492 0
force Pt   0.000009894667298   0.004077276476716  -0.002775306318014 0
force Pt  -0.000098252960517  -0.000580752455854   0.000241946863617 0
force Pt   0.000141826130079  -0.000649068901138  -0.000454940274672 0
force Pt   0.000099686706321  -0.000574507780902   0.000250920400924 0
force Pt  -0.000140807732298  -0.000654594707241  -0.000404487071834 0
force Pt   0.000167550524418   0.000391889854692   0.000406650058980 0
force Pt   0.000790361881639  -0.000242625209509  -0.000333904654039 0
force Pt  -0.000172427081549   0.000386692952578   0.000404451691915 0
force Pt  -0.000802893185380  -0.000225817861657  -0.000368221761102 0
force Pt  -0.000228662740082  -0.000235823409632   0.000658693910768 0
force Pt   0.000307937738578  -0.000137948248823   0.000423121682674 0
force Pt   0.000227041651712  -0.000231414685779   0.000682108648059 0
force Pt  -0.000297527432193  -0.000149874090799   0.000429459237563 0
force Pt  -0.000107880144552  -0.000890807905739   0.000540262880092 0
force Pt  -0.001476518930058  -0.003201200840835  -0.003414820730006 0
force Pt   0.000107942951528  -0.000881143876863   0.000543771580728 0
force Pt   0.001443276885901  -0.003159524700663  -0.003265553565143 0
force Pt   0.000172849050396  -0.000394022361192   0.000346414788918 0
force Pt  -0.002488769282523   0.007023444321681   0.011248026558491 0
force Pt  -0.000164105371320  -0.000395791753353   0.000362140107422 0
force Pt   0.002644096757742   0.007122930731186   0.010448141152649 0
force Pt   0.000553802808033  -0.000309912762610   0.000289934857904 0
force Pt   0.000523398213024  -0.000122294199777   0.000256102822104 0
force Pt  -0.000558760954974  -0.000307453498532   0.000296691569644 0
force Pt  -0.000530422168372  -0.000115161998716   0.000253495884466 0
force C  -0.000708625459004  -0.019307406784316  -0.076404803491573 1  Linear 0 0 1
force O   0.000888596662848   0.020697389482733   0.069962932887811 1  Linear 0 0 1

# Energy components:
   A_diel =       -0.0133556994697067
   Eewald =    24311.3243090531941561
       EH =    28205.1361250236477645
     Eloc =   -57557.5809124575753231
      Enl =      -47.4073286190796352
     EvdW =       -1.0097821106858440
      Exc =    -1370.5973477430611638
 Exc_core =      786.8850507838450312
       KE =     1381.1541123027536742
-------------------------------------
     Etot =    -4292.1091294664302040
       TS =        0.0081094454572443
-------------------------------------
[...]

Computing DFT-D3 correction:
# coordination-number Pt 5.928 5.960 5.928 6.971 7.145 7.145 7.145 7.145 9.433 9.433 9.433 9.433 9.344 9.344 9.344 9.344 9.308 9.309 9.308 9.309 7.662 7.663 7.662 7.665 7.666 7.666 7.666 7.666 9.310 9.310 9.310 9.310 9.342 9.342 9.342 9.342 9.434 9.436 9.434 9.436 7.149 7.752 7.149 7.752 5.929 5.929 5.929 5.929
# coordination-number C 3.228
# coordination-number O 1.072
# diagonal-C6 Pt 336.87 336.87 336.87 336.87 336.87 336.87 336.87 336.87 336.87 336.87 336.87 336.87 336.87 336.87 336.87 336.87 336.87 336.87 336.87 336.87 336.87 336.87 336.87 336.87 336.87 336.87 336.87 336.87 336.87 336.87 336.87 336.87 336.87 336.87 336.87 336.87 336.87 336.87 336.87 336.87 336.87 336.87 336.87 336.87 336.87 336.87 336.87 336.87
# diagonal-C6 C 24.86
# diagonal-C6 O 12.75
EvdW_6 =   -0.379311
EvdW_8 =   -0.630534

-------- Electronic minimization -----------
	Linear fluid (dielectric constant: 78.4, screening length: 8.12261 Bohr) occupying 0.499206 of unit cell:	Completed after 9 iterations at t[s]:  57043.13
	FillingsUpdate:  mu: -0.196510861  nElectrons: 778.000000  magneticMoment: [ Abs: 0.00000  Tot: -0.00000 ]
ElecMinimize: Iter:   0  F: -4292.120079382827498  |grad|_K:  3.559e-07  alpha:  1.000e+00
	Linear fluid (dielectric constant: 78.4, screening length: 8.12261 Bohr) occupying 0.499208 of unit cell:	Completed after 15 iterations at t[s]:  57188.97
	Linear fluid (dielectric constant: 78.4, screening length: 8.12261 Bohr) occupying 0.499207 of unit cell:	Completed after 15 iterations at t[s]:  57240.25
	FillingsUpdate:  mu: -0.196459236  nElectrons: 778.000000  magneticMoment: [ Abs: 0.00000  Tot: -0.00000 ]
	SubspaceRotationAdjust: set factor to 0.117
ElecMinimize: Iter:   1  F: -4292.120086549484768  |grad|_K:  3.815e-08  alpha:  1.214e-01  linmin:  4.269e-04  t[s]:  57306.17
	Linear fluid (dielectric constant: 78.4, screening length: 8.12261 Bohr) occupying 0.499207 of unit cell:	Completed after 2 iterations at t[s]:  57372.51
	Linear fluid (dielectric constant: 78.4, screening length: 8.12261 Bohr) occupying 0.499207 of unit cell:	Completed after 2 iterations at t[s]:  57419.92
	FillingsUpdate:  mu: -0.196430615  nElectrons: 778.000000  magneticMoment: [ Abs: 0.00000  Tot: -0.00000 ]
	SubspaceRotationAdjust: set factor to 0.0892
ElecMinimize: Iter:   2  F: -4292.120086719103710  |grad|_K:  1.847e-08  alpha:  2.486e-01  linmin: -2.683e-03  t[s]:  57485.29
	Linear fluid (dielectric constant: 78.4, screening length: 8.12261 Bohr) occupying 0.499207 of unit cell:	Completed after 1 iterations at t[s]:  57551.28
	Linear fluid (dielectric constant: 78.4, screening length: 8.12261 Bohr) occupying 0.499207 of unit cell:	Completed after 0 iterations at t[s]:  57598.51
	FillingsUpdate:  mu: -0.196429727  nElectrons: 778.000000  magneticMoment: [ Abs: 0.00000  Tot: -0.00000 ]
	SubspaceRotationAdjust: set factor to 0.117
ElecMinimize: Iter:   3  F: -4292.120086772415561  |grad|_K:  8.768e-09  alpha:  3.157e-01  linmin: -2.118e-02  t[s]:  57663.90
	Linear fluid (dielectric constant: 78.4, screening length: 8.12261 Bohr) occupying 0.499208 of unit cell:	Completed after 1 iterations at t[s]:  57729.82
	Linear fluid (dielectric constant: 78.4, screening length: 8.12261 Bohr) occupying 0.499208 of unit cell:	Completed after 0 iterations at t[s]:  57776.38
	FillingsUpdate:  mu: -0.196433538  nElectrons: 778.000000  magneticMoment: [ Abs: 0.00000  Tot: -0.00000 ]
	SubspaceRotationAdjust: set factor to 0.122
ElecMinimize: Iter:   4  F: -4292.120086783405895  |grad|_K:  8.794e-09  alpha:  2.796e-01  linmin: -1.799e-02  t[s]:  57841.73
ElecMinimize: Converged (|Delta F|<1.000000e-07 for 2 iters).
Setting wave functions to eigenvectors of Hamiltonian
Converging empty states (this may take a while): |deigs|: 2.720e-10

Computing DFT-D3 correction:
# coordination-number Pt 5.928 5.960 5.928 6.971 7.145 7.145 7.145 7.145 9.433 9.433 9.433 9.433 9.344 9.344 9.344 9.344 9.308 9.309 9.308 9.309 7.662 7.663 7.662 7.665 7.666 7.666 7.666 7.666 9.310 9.310 9.310 9.310 9.342 9.342 9.342 9.342 9.434 9.436 9.434 9.436 7.149 7.752 7.149 7.752 5.929 5.929 5.929 5.929
# coordination-number C 3.228
# coordination-number O 1.072
# diagonal-C6 Pt 336.87 336.87 336.87 336.87 336.87 336.87 336.87 336.87 336.87 336.87 336.87 336.87 336.87 336.87 336.87 336.87 336.87 336.87 336.87 336.87 336.87 336.87 336.87 336.87 336.87 336.87 336.87 336.87 336.87 336.87 336.87 336.87 336.87 336.87 336.87 336.87 336.87 336.87 336.87 336.87 336.87 336.87 336.87 336.87 336.87 336.87 336.87 336.87
# diagonal-C6 C 24.86
# diagonal-C6 O 12.75
EvdW_6 =   -0.379311
EvdW_8 =   -0.630534
IonicMinimize: 	Wolfe criterion not satisfied: alpha: 2.02797e-07  (E-E0)/|gdotd0|: -0.00480906  gdotd/gdotd0: 1.27578 (taking cubic step)

Computing DFT-D3 correction:
# coordination-number Pt 5.928 5.960 5.928 6.971 7.145 7.145 7.145 7.145 9.433 9.433 9.433 9.433 9.344 9.344 9.344 9.344 9.308 9.309 9.308 9.309 7.662 7.663 7.662 7.665 7.666 7.666 7.666 7.666 9.310 9.310 9.310 9.310 9.342 9.342 9.342 9.342 9.434 9.436 9.434 9.436 7.149 7.752 7.149 7.752 5.929 5.929 5.929 5.929
# coordination-number C 3.228
# coordination-number O 1.072
# diagonal-C6 Pt 336.87 336.87 336.87 336.87 336.87 336.87 336.87 336.87 336.87 336.87 336.87 336.87 336.87 336.87 336.87 336.87 336.87 336.87 336.87 336.87 336.87 336.87 336.87 336.87 336.87 336.87 336.87 336.87 336.87 336.87 336.87 336.87 336.87 336.87 336.87 336.87 336.87 336.87 336.87 336.87 336.87 336.87 336.87 336.87 336.87 336.87 336.87 336.87
# diagonal-C6 C 24.86
# diagonal-C6 O 12.75
EvdW_6 =   -0.379311
EvdW_8 =   -0.630534

-------- Electronic minimization -----------
	Linear fluid (dielectric constant: 78.4, screening length: 8.12261 Bohr) occupying 0.499213 of unit cell:	Completed after 10 iterations at t[s]:  58111.39
	FillingsUpdate:  mu: -0.196381950  nElectrons: 778.000000  magneticMoment: [ Abs: 0.00000  Tot: -0.00000 ]
ElecMinimize: Iter:   0  F: -4292.120079934022215  |grad|_K:  3.473e-07  alpha:  1.000e+00
	Linear fluid (dielectric constant: 78.4, screening length: 8.12261 Bohr) occupying 0.499181 of unit cell:	Completed after 16 iterations at t[s]:  58257.71
	Linear fluid (dielectric constant: 78.4, screening length: 8.12261 Bohr) occupying 0.499209 of unit cell:	Completed after 15 iterations at t[s]:  58308.95
	FillingsUpdate:  mu: -0.196454286  nElectrons: 778.000000  magneticMoment: [ Abs: 0.00000  Tot: -0.00000 ]
	SubspaceRotationAdjust: set factor to 0.107
ElecMinimize: Iter:   1  F: -4292.120086576198446  |grad|_K:  4.329e-08  alpha:  1.180e-01  linmin:  2.501e-04  t[s]:  58374.44
	Linear fluid (dielectric constant: 78.4, screening length: 8.12261 Bohr) occupying 0.499209 of unit cell:	Completed after 2 iterations at t[s]:  58440.73
	Linear fluid (dielectric constant: 78.4, screening length: 8.12261 Bohr) occupying 0.499209 of unit cell:	Completed after 2 iterations at t[s]:  58488.98
	FillingsUpdate:  mu: -0.196452548  nElectrons: 778.000000  magneticMoment: [ Abs: 0.00000  Tot: -0.00000 ]
	SubspaceRotationAdjust: set factor to 0.0738
ElecMinimize: Iter:   2  F: -4292.120086709402131  |grad|_K:  1.972e-08  alpha:  1.551e-01  linmin: -5.869e-03  t[s]:  58554.45
	Linear fluid (dielectric constant: 78.4, screening length: 8.12261 Bohr) occupying 0.499209 of unit cell:	Completed after 0 iterations at t[s]:  58619.77
ElecMinimize: 	Predicted alpha/alphaT>3.000000, increasing alphaT to 4.652746e-01.
	Linear fluid (dielectric constant: 78.4, screening length: 8.12261 Bohr) occupying 0.499208 of unit cell:	Completed after 2 iterations at t[s]:  58666.92
	Linear fluid (dielectric constant: 78.4, screening length: 8.12261 Bohr) occupying 0.499208 of unit cell:	Completed after 0 iterations at t[s]:  58713.44
	FillingsUpdate:  mu: -0.196450872  nElectrons: 778.000000  magneticMoment: [ Abs: 0.00000  Tot: -0.00000 ]
	SubspaceRotationAdjust: set factor to 0.0761
ElecMinimize: Iter:   3  F: -4292.120086776946664  |grad|_K:  1.171e-08  alpha:  3.341e-01  linmin:  1.022e-02  t[s]:  58778.81
	Linear fluid (dielectric constant: 78.4, screening length: 8.12261 Bohr) occupying 0.499208 of unit cell:	Completed after 1 iterations at t[s]:  58844.77
	Linear fluid (dielectric constant: 78.4, screening length: 8.12261 Bohr) occupying 0.499208 of unit cell:	Completed after 0 iterations at t[s]:  58891.06
	FillingsUpdate:  mu: -0.196447921  nElectrons: 778.000000  magneticMoment: [ Abs: 0.00000  Tot: -0.00000 ]
	SubspaceRotationAdjust: set factor to 0.086
ElecMinimize: Iter:   4  F: -4292.120086791506765  |grad|_K:  5.714e-09  alpha:  3.062e-01  linmin: -1.520e-02  t[s]:  58956.38
ElecMinimize: Converged (|Delta F|<1.000000e-07 for 2 iters).
Setting wave functions to eigenvectors of Hamiltonian
Converging empty states (this may take a while): |deigs|: 1.186e-10

Computing DFT-D3 correction:
# coordination-number Pt 5.928 5.960 5.928 6.971 7.145 7.145 7.145 7.145 9.433 9.433 9.433 9.433 9.344 9.344 9.344 9.344 9.308 9.309 9.308 9.309 7.662 7.663 7.662 7.665 7.666 7.666 7.666 7.666 9.310 9.310 9.310 9.310 9.342 9.342 9.342 9.342 9.434 9.436 9.434 9.436 7.149 7.752 7.149 7.752 5.929 5.929 5.929 5.929
# coordination-number C 3.228
# coordination-number O 1.072
# diagonal-C6 Pt 336.87 336.87 336.87 336.87 336.87 336.87 336.87 336.87 336.87 336.87 336.87 336.87 336.87 336.87 336.87 336.87 336.87 336.87 336.87 336.87 336.87 336.87 336.87 336.87 336.87 336.87 336.87 336.87 336.87 336.87 336.87 336.87 336.87 336.87 336.87 336.87 336.87 336.87 336.87 336.87 336.87 336.87 336.87 336.87 336.87 336.87 336.87 336.87
# diagonal-C6 C 24.86
# diagonal-C6 O 12.75
EvdW_6 =   -0.379311
EvdW_8 =   -0.630534

# Ionic positions in cartesian coordinates:
ion Pt   0.000220000000000   0.307628000000000  17.100908000000000 0
ion Pt   0.000220000000000  13.123347000000001  17.100908000000000 0
ion Pt   5.232205000000001   0.307628000000000  17.100908000000000 0
ion Pt   5.232205000000001  13.123347000000001  17.100908000000000 0
ion Pt  10.463699000000000   4.022239000000000   2.178053000000000 0
ion Pt  10.463699000000000  16.837956999999999   2.178053000000000 0
ion Pt   5.231692000000000   4.022239000000000   2.178053000000000 0
ion Pt   5.231692000000000  16.837956999999999   2.178053000000000 0
ion Pt  10.463981000000000   8.528655000000001   5.417403000000000 0
ion Pt  10.463981000000000  21.344373999999998   5.417403000000000 0
ion Pt   5.231975000000000   8.528655000000001   5.417403000000000 0
ion Pt   5.231975000000000  21.344373999999998   5.417403000000000 0
ion Pt  10.463844999999999  25.622132000000001   8.238791000000001 0
ion Pt  10.463844999999999  12.806414000000000   8.238791000000001 0
ion Pt   5.231849000000001  25.622132000000001   8.238791000000001 0
ion Pt   5.231849000000001  12.806414000000000   8.238791000000001 0
ion Pt   0.000157000000000   4.349296000000000  11.332694000000000 0
ion Pt   0.000157000000000  17.165013999999999  11.332694000000000 0
ion Pt   5.232153000000001   4.349296000000000  11.332694000000000 0
ion Pt   5.232153000000001  17.165013999999999  11.332694000000000 0
ion Pt   0.000303000000000   8.653275000000001  14.682311000000000 0
ion Pt   0.000303000000000  21.469018999999999  14.682311000000000 0
ion Pt   5.232310000000000   8.653275000000001  14.682311000000000 0
ion Pt   5.232310000000000  21.469018999999999  14.682311000000000 0
ion Pt   2.615715000000000  25.523040999999999   3.443627000000001 0
ion Pt   2.615715000000000  12.707296999999999   3.443627000000001 0
ion Pt   7.847711000000000  25.523040999999999   3.443627000000001 0
ion Pt   7.847711000000000  12.707296999999999   3.443627000000001 0
ion Pt   2.615810000000000   4.193175000000000   6.787100000000000 0
ion Pt   2.615810000000000  17.008893000000000   6.787100000000000 0
ion Pt   7.847806000000000   4.193175000000000   6.787100000000000 0
ion Pt   7.847806000000000  17.008893000000000   6.787100000000000 0
ion Pt   2.616155000000000   8.553081999999998   9.886386000000000 0
ion Pt   2.616155000000000  21.368799999999997   9.886386000000000 0
ion Pt   7.848151000000000   8.553081999999998   9.886386000000000 0
ion Pt   7.848151000000000  21.368799999999997   9.886386000000000 0
ion Pt   2.615998000000000   0.014841000000000  12.709460000000000 0
ion Pt   2.615998000000000  12.830558999999997  12.709460000000000 0
ion Pt   7.847994000000001   0.014841000000000  12.709460000000000 0
ion Pt   7.847994000000001  12.830558999999997  12.709460000000000 0
ion Pt   2.616322000000000   4.520642000000000  15.941687000000002 0
ion Pt   2.616322000000000  17.336386000000001  15.941687000000002 0
ion Pt   7.848318000000000   4.520642000000000  15.941687000000002 0
ion Pt   7.848318000000000  17.336386000000001  15.941687000000002 0
ion Pt   2.615768000000000   8.237738999999999   1.026553000000000 0
ion Pt   2.615768000000000  21.053457000000002   1.026553000000000 0
ion Pt   7.847764000000001   8.237738999999999   1.026553000000000 0
ion Pt   7.847764000000001  21.053457000000002   1.026553000000000 0
ion C   5.232278000000000  15.932038999999998  19.454551578044690 1  Linear 0 0 1
ion O   5.292373000000000  15.932038999999998  21.683654293105796 1  Linear 0 0 1

# Forces in Cartesian coordinates:
force Pt  -0.000004217417484  -0.000456273121788  -0.000430827158288 0
force Pt  -0.000042329188361  -0.007188354187855  -0.003042746644107 0
force Pt   0.000002735837966   0.000062338478030  -0.000236039191544 0
force Pt  -0.000419489708893  -0.014737020497299  -0.003537422712589 0
force Pt   0.000007454303286   0.001124952208671  -0.000101583300504 0
force Pt   0.000009158966860   0.000342515784914   0.000161938521737 0
force Pt  -0.000003376840551   0.000366940665336  -0.000292462194056 0
force Pt  -0.000019298384812   0.000740689862154  -0.001598938542666 0
force Pt   0.000009175996721   0.001049785061234  -0.000149250441618 0
force Pt   0.000004249234746   0.000357966091918  -0.000542696154174 0
force Pt  -0.000010023377260   0.000877652231873  -0.000342525549496 0
force Pt  -0.000001037540111  -0.000260502164560  -0.000408719159147 0
force Pt  -0.000002514627818   0.000204300405278  -0.000152025991568 0
force Pt   0.000044881780586   0.001580432586303  -0.003832432968802 0
force Pt  -0.000000197340375  -0.000037840439059  -0.000419152746377 0
force Pt  -0.000026396521192   0.000905751888915   0.000910037555905 0
force Pt  -0.000002344576787  -0.000255711018176   0.000094438332386 0
force Pt   0.000103965293428  -0.001700124897512   0.004645230423269 0
force Pt   0.000002274121880   0.000155686097102  -0.000493757148916 0
force Pt   0.000005731595021  -0.000438889917666  -0.003460870112274 0
force Pt   0.000008314412515   0.000070808523703  -0.001110482564465 0
force Pt   0.000000415744192  -0.001127433160787  -0.000658849835188 0
force Pt   0.000020090536155   0.002186989003802  -0.001876309676056 0
force Pt   0.000009739806410   0.004408855308712  -0.003028474879406 0
force Pt  -0.000102599624857  -0.000598009051677   0.000221612400149 0
force Pt   0.000237088735448  -0.000617012727024  -0.000400745570198 0
force Pt   0.000104352410142  -0.000591558937259   0.000230789158137 0
force Pt  -0.000235680787077  -0.000623755446713  -0.000350830834775 0
force Pt   0.000174179325615   0.000388610260258   0.000464241753621 0
force Pt   0.000864397244629  -0.000284357107703  -0.000461415606582 0
force Pt  -0.000179493090172   0.000384367461246   0.000461639716070 0
force Pt  -0.000878690109725  -0.000267802419463  -0.000500810804976 0
force Pt  -0.000171581852716  -0.000193484542331   0.000771344597685 0
force Pt   0.000312525639725  -0.000222190391574   0.000489567808223 0
force Pt   0.000168912043668  -0.000187073753336   0.000796406138023 0
force Pt  -0.000302005571359  -0.000233473895697   0.000497485673974 0
force Pt  -0.000103638603638  -0.000896729955452   0.000641326658382 0
force Pt  -0.001524690963938  -0.003351155377379  -0.003510292255517 0
force Pt   0.000102785786443  -0.000886552136327   0.000645323955585 0
force Pt   0.001497635570187  -0.003312907491243  -0.003373740398201 0
force Pt   0.000204650126998  -0.000322254819586   0.000242689200647 0
force Pt  -0.002492967086759   0.007260694791715   0.011845780690482 0
force Pt  -0.000195852341575  -0.000322981419555   0.000259074810306 0
force Pt   0.002651169398135   0.007370318703752   0.011015685394282 0
force Pt   0.000547769782302  -0.000257686362086   0.000159888910073 0
force Pt   0.000528282034305  -0.000131946774866   0.000135371156347 0
force Pt  -0.000552445245972  -0.000255264488166   0.000168459312858 0
force Pt  -0.000535442451763  -0.000124506702583   0.000133491167879 0
force C   0.001205565725674  -0.010307579742851  -0.000421226106683 1  Linear 0 0 1
force O  -0.001038140769898   0.020311871541770  -0.000103523535976 1  Linear 0 0 1

# Energy components:
   A_diel =       -0.0142307736094524
   Eewald =    24317.8940092224074760
       EH =    28210.5185321767421556
     Eloc =   -57569.4835936220042640
      Enl =      -47.4311195611489751
     EvdW =       -1.0098451556952450
      Exc =    -1370.5863049717099784
 Exc_core =      786.8850480415308084
       KE =     1381.1155136853121803
-------------------------------------
     Etot =    -4292.1119909581757383
       TS =        0.0080958333305979
-------------------------------------
        F =    -4292.1200867915067647


Dumping 'jdft.fillings' ... done
Dumping 'jdft.wfns' ... done
Dumping 'jdft.fluidState' ... done
Dumping 'jdft.ionpos' ... done
Dumping 'jdft.lattice' ... done
Dumping 'jdft.eigenvals' ... done
Dumping 'jdft.eigStats' ... 
	eMin: -2.148812 at state 8 ( [ +0.000000 +0.000000 +0.000000 ] spin -1 )
	HOMO: -0.196494 at state 7 ( [ +0.500000 +0.500000 +0.000000 ] spin 1 )
	mu  : -0.196448
	LUMO: -0.196435 at state 15 ( [ +0.500000 +0.500000 +0.000000 ] spin -1 )
	eMax: +0.086206 at state 7 ( [ +0.500000 +0.500000 +0.000000 ] spin 1 )
	HOMO-LUMO gap: +0.000059
	Optical gap  : +0.000059 at state 15 ( [ +0.500000 +0.500000 +0.000000 ] spin -1 )
Dumping 'jdft.Ecomponents' ... done
IonicMinimize: Iter:   8  F: -4292.120086791506765  |grad|_K:  3.067e-04  alpha:  2.028e-07  linmin: -1.940e-03  t[s]:  59145.37
IonicMinimize: Converged (|Delta F|<1.000000e-06 for 2 iters).

#--- Lowdin population analysis ---
# oxidation-state Pt +0.058 +0.048 +0.058 -0.029 +0.014 +0.015 +0.013 +0.014 -0.012 -0.011 -0.011 -0.010 +0.017 +0.012 +0.016 +0.018 +0.012 -0.000 +0.009 +0.010 -0.007 -0.008 -0.029 -0.004 -0.009 -0.009 -0.009 -0.009 +0.011 +0.008 +0.011 +0.008 +0.018 +0.016 +0.018 +0.016 -0.011 -0.022 -0.011 -0.023 +0.012 -0.042 +0.012 -0.041 +0.058 +0.060 +0.058 +0.060
# magnetic-moments Pt -0.000 -0.000 -0.000 -0.000 -0.000 -0.000 -0.000 -0.000 -0.000 -0.000 -0.000 -0.000 -0.000 -0.000 -0.000 -0.000 -0.000 -0.000 -0.000 -0.000 -0.000 -0.000 -0.000 -0.000 -0.000 -0.000 -0.000 -0.000 -0.000 -0.000 -0.000 -0.000 -0.000 -0.000 -0.000 -0.000 -0.000 -0.000 -0.000 -0.000 -0.000 -0.000 -0.000 -0.000 -0.000 -0.000 -0.000 -0.000
# oxidation-state C +0.423
# magnetic-moments C +0.000
# oxidation-state O -0.144
# magnetic-moments O -0.000


Dumping 'jdft.n_up' ... done
Dumping 'jdft.n_dn' ... done
Dumping 'jdft.tau_up' ... done
Dumping 'jdft.tau_dn' ... done
Dumping 'jdft.eigenvals' ... done
Dumping 'jdft.eigStats' ... 
	eMin: -2.148812 at state 8 ( [ +0.000000 +0.000000 +0.000000 ] spin -1 )
	HOMO: -0.196494 at state 7 ( [ +0.500000 +0.500000 +0.000000 ] spin 1 )
	mu  : -0.196448
	LUMO: -0.196435 at state 15 ( [ +0.500000 +0.500000 +0.000000 ] spin -1 )
	eMax: +0.086206 at state 7 ( [ +0.500000 +0.500000 +0.000000 ] spin 1 )
	HOMO-LUMO gap: +0.000059
	Optical gap  : +0.000059 at state 15 ( [ +0.500000 +0.500000 +0.000000 ] spin -1 )
Dumping 'jdft.kPts' ... done
Dumping 'jdft.kMap' ... done
Dumping 'jdft.dosUp' ... done.
Dumping 'jdft.dosDn' ... done.
End date and time: Thu Feb 17 19:31:05 2022  (Duration: 0-16:27:26.75)
Done!
