
*************** JDFTx 1.7.0 (git hash 5f12716a) ***************

Start date and time: Sat Sep 10 11:30:09 2022
Executable /home/nisi6161/jdftx_alpine/build/jdftx with command-line: -i in
Running on hosts (process indices):  c3cpu-a2-u9-2.rc.int.colorado.edu (0-23)
Divided in process groups (process indices):  0 (0)  1 (1)  2 (2)  3 (3)  4 (4)  5 (5)  6 (6)  7 (7)  8 (8)  9 (9)  10 (10)  11 (11)  12 (12)  13 (13)  14 (14)  15 (15)  16 (16)  17 (17)  18 (18)  19 (19)  20 (20)  21 (21)  22 (22)  23 (23)
Resource initialization completed at t[s]:      0.00
Run totals: 24 processes, 64 threads, 0 GPUs


Input parsed successfully to the following command list (including defaults):

basis kpoint-dependent
converge-empty-states yes
coords-type Cartesian
core-overlap-check none
coulomb-interaction Periodic
davidson-band-ratio 1.1
density-of-states Etol 1.000000e-06 Esigma 1.000000e-03 \
		Complete \
	Total \
	OrthoOrbital Ag 1   s \
	OrthoOrbital Ag 1   p \
	OrthoOrbital Ag 1   px \
	OrthoOrbital Ag 1   py \
	OrthoOrbital Ag 1   pz \
	OrthoOrbital Ag 1   d \
	OrthoOrbital Ag 1   dxy \
	OrthoOrbital Ag 1   dyz \
	OrthoOrbital Ag 1   dz2 \
	OrthoOrbital Ag 1   dxz \
	OrthoOrbital Ag 1   dx2-y2 \
	OrthoOrbital Ag 2   s \
	OrthoOrbital Ag 2   p \
	OrthoOrbital Ag 2   px \
	OrthoOrbital Ag 2   py \
	OrthoOrbital Ag 2   pz \
	OrthoOrbital Ag 2   d \
	OrthoOrbital Ag 2   dxy \
	OrthoOrbital Ag 2   dyz \
	OrthoOrbital Ag 2   dz2 \
	OrthoOrbital Ag 2   dxz \
	OrthoOrbital Ag 2   dx2-y2 \
	OrthoOrbital Ag 3   s \
	OrthoOrbital Ag 3   p \
	OrthoOrbital Ag 3   px \
	OrthoOrbital Ag 3   py \
	OrthoOrbital Ag 3   pz \
	OrthoOrbital Ag 3   d \
	OrthoOrbital Ag 3   dxy \
	OrthoOrbital Ag 3   dyz \
	OrthoOrbital Ag 3   dz2 \
	OrthoOrbital Ag 3   dxz \
	OrthoOrbital Ag 3   dx2-y2 \
	OrthoOrbital Ag 4   s \
	OrthoOrbital Ag 4   p \
	OrthoOrbital Ag 4   px \
	OrthoOrbital Ag 4   py \
	OrthoOrbital Ag 4   pz \
	OrthoOrbital Ag 4   d \
	OrthoOrbital Ag 4   dxy \
	OrthoOrbital Ag 4   dyz \
	OrthoOrbital Ag 4   dz2 \
	OrthoOrbital Ag 4   dxz \
	OrthoOrbital Ag 4   dx2-y2 \
	OrthoOrbital Ag 5   s \
	OrthoOrbital Ag 5   p \
	OrthoOrbital Ag 5   px \
	OrthoOrbital Ag 5   py \
	OrthoOrbital Ag 5   pz \
	OrthoOrbital Ag 5   d \
	OrthoOrbital Ag 5   dxy \
	OrthoOrbital Ag 5   dyz \
	OrthoOrbital Ag 5   dz2 \
	OrthoOrbital Ag 5   dxz \
	OrthoOrbital Ag 5   dx2-y2 \
	OrthoOrbital Ag 6   s \
	OrthoOrbital Ag 6   p \
	OrthoOrbital Ag 6   px \
	OrthoOrbital Ag 6   py \
	OrthoOrbital Ag 6   pz \
	OrthoOrbital Ag 6   d \
	OrthoOrbital Ag 6   dxy \
	OrthoOrbital Ag 6   dyz \
	OrthoOrbital Ag 6   dz2 \
	OrthoOrbital Ag 6   dxz \
	OrthoOrbital Ag 6   dx2-y2 \
	OrthoOrbital Ag 7   s \
	OrthoOrbital Ag 7   p \
	OrthoOrbital Ag 7   px \
	OrthoOrbital Ag 7   py \
	OrthoOrbital Ag 7   pz \
	OrthoOrbital Ag 7   d \
	OrthoOrbital Ag 7   dxy \
	OrthoOrbital Ag 7   dyz \
	OrthoOrbital Ag 7   dz2 \
	OrthoOrbital Ag 7   dxz \
	OrthoOrbital Ag 7   dx2-y2 \
	OrthoOrbital Ag 8   s \
	OrthoOrbital Ag 8   p \
	OrthoOrbital Ag 8   px \
	OrthoOrbital Ag 8   py \
	OrthoOrbital Ag 8   pz \
	OrthoOrbital Ag 8   d \
	OrthoOrbital Ag 8   dxy \
	OrthoOrbital Ag 8   dyz \
	OrthoOrbital Ag 8   dz2 \
	OrthoOrbital Ag 8   dxz \
	OrthoOrbital Ag 8   dx2-y2 \
	OrthoOrbital Ag 9   s \
	OrthoOrbital Ag 9   p \
	OrthoOrbital Ag 9   px \
	OrthoOrbital Ag 9   py \
	OrthoOrbital Ag 9   pz \
	OrthoOrbital Ag 9   d \
	OrthoOrbital Ag 9   dxy \
	OrthoOrbital Ag 9   dyz \
	OrthoOrbital Ag 9   dz2 \
	OrthoOrbital Ag 9   dxz \
	OrthoOrbital Ag 9   dx2-y2 \
	OrthoOrbital Ag 10   s \
	OrthoOrbital Ag 10   p \
	OrthoOrbital Ag 10   px \
	OrthoOrbital Ag 10   py \
	OrthoOrbital Ag 10   pz \
	OrthoOrbital Ag 10   d \
	OrthoOrbital Ag 10   dxy \
	OrthoOrbital Ag 10   dyz \
	OrthoOrbital Ag 10   dz2 \
	OrthoOrbital Ag 10   dxz \
	OrthoOrbital Ag 10   dx2-y2
dump End ElecDensity KEdensity BandEigs EigStats RhoAtom DOS Kpoints
dump Ionic State IonicPositions Lattice EigStats Ecomponents
dump 
dump 
dump 
dump 
dump 
dump 
dump 
dump 
dump-name jdft.$VAR
elec-cutoff 20
elec-eigen-algo Davidson
elec-ex-corr gga-PBE
elec-initial-magnetization 0.000000 no
elec-n-bands 114
elec-smearing Fermi 0.001
electronic-minimize  \
	dirUpdateScheme      FletcherReeves \
	linminMethod         DirUpdateRecommended \
	nIterations          100 \
	history              15 \
	knormThreshold       0 \
	energyDiffThreshold  1e-07 \
	nEnergyDiff          2 \
	alphaTstart          1 \
	alphaTmin            1e-10 \
	updateTestStepSize   yes \
	alphaTreduceFactor   0.1 \
	alphaTincreaseFactor 3 \
	nAlphaAdjustMax      3 \
	wolfeEnergy          0.0001 \
	wolfeGradient        0.9 \
	fdTest               no
exchange-regularization WignerSeitzTruncated
fluid LinearPCM 298.000000 1.013250
fluid-anion F- 0.5 MeanFieldLJ \
	epsBulk 1 \
	pMol 0 \
	epsInf 1 \
	Pvap 0 \
	sigmaBulk 0 \
	Rvdw 2.24877 \
	Res 0 \
	tauNuc 343133
fluid-cation Na+ 0.5 MeanFieldLJ \
	epsBulk 1 \
	pMol 0 \
	epsInf 1 \
	Pvap 0 \
	sigmaBulk 0 \
	Rvdw 2.19208 \
	Res 0 \
	tauNuc 343133
fluid-ex-corr lda-TF lda-PZ
fluid-gummel-loop 10 1.000000e-05
fluid-minimize  \
	dirUpdateScheme      PolakRibiere \
	linminMethod         DirUpdateRecommended \
	nIterations          400 \
	history              15 \
	knormThreshold       1e-11 \
	energyDiffThreshold  0 \
	nEnergyDiff          2 \
	alphaTstart          1 \
	alphaTmin            1e-10 \
	updateTestStepSize   yes \
	alphaTreduceFactor   0.1 \
	alphaTincreaseFactor 3 \
	nAlphaAdjustMax      6 \
	wolfeEnergy          0.0001 \
	wolfeGradient        0.9 \
	fdTest               no
fluid-solvent H2O 55.338 ScalarEOS \
	epsBulk 78.4 \
	pMol 0.92466 \
	epsInf 1.77 \
	Pvap 1.06736e-10 \
	sigmaBulk 4.62e-05 \
	Rvdw 2.61727 \
	Res 1.42 \
	tauNuc 343133 \
	poleEl 15 7 1
forces-output-coords Positions
initial-state jdft.$VAR
ion Ag   3.837514000000001   1.716110000000000  13.037701999999998 1
ion Ag  -0.001005000000000   3.403183000000000   9.425451000000001 1
ion Ag   3.830185000000001   5.173321000000000   5.969989000000000 1
ion Ag  -0.003266000000000   6.911731000000001   2.408493000000000 1
ion Ag   0.007420000000000  -0.075523000000000  16.315035999999999 1
ion Ag   3.836379000000000   6.825246000000000  11.171514999999999 1
ion Ag   3.833401000000000   0.024340000000000   7.715487000000001 1
ion Ag  -0.006083000000000   1.711876000000000   4.102876000000000 1
ion Ag   3.825249000000000   3.504700000000001   0.826160000000000 1
ion Ag   0.004377000000000   5.086922000000001  14.732136999999998 1
ion-species /projects/musgravc/apps/jdftx-1.6.0/build/pseudopotentials/GBRV_v1.5/$ID_pbe_v1.uspp
ion-species /projects/musgravc/apps/jdftx-1.6.0/build/pseudopotentials/GBRV_v1.5/$ID_pbe_v1.2.uspp
ion-species /projects/musgravc/apps/jdftx-1.6.0/build/pseudopotentials/GBRV_v1.5/$ID_pbe_v1.4.uspp
ion-species /projects/musgravc/apps/jdftx-1.6.0/build/pseudopotentials/GBRV_v1.5/$ID_pbe_v1.5.uspp
ion-width Ecut
ionic-minimize  \
	dirUpdateScheme      L-BFGS \
	linminMethod         DirUpdateRecommended \
	nIterations          100 \
	history              15 \
	knormThreshold       0.0001 \
	energyDiffThreshold  0.0001 \
	nEnergyDiff          2 \
	alphaTstart          1 \
	alphaTmin            1e-10 \
	updateTestStepSize   yes \
	alphaTreduceFactor   0.1 \
	alphaTincreaseFactor 3 \
	nAlphaAdjustMax      3 \
	wolfeEnergy          0.0001 \
	wolfeGradient        0.9 \
	fdTest               no
kpoint   0.000000000000   0.000000000000   0.000000000000  1.00000000000000
kpoint-folding 9 7 1 
latt-move-scale 0 0 0
latt-scale 1 1 1 
lattice  \
	   7.665668000000000   -3.832835000000000    0.000000000000000  \
	   0.000000000000000    8.570479000000001    0.000000000000000  \
	   0.000000000000000    0.000000000000000   51.422865999999999 
lattice-minimize  \
	dirUpdateScheme      L-BFGS \
	linminMethod         DirUpdateRecommended \
	nIterations          0 \
	history              15 \
	knormThreshold       0 \
	energyDiffThreshold  1e-06 \
	nEnergyDiff          2 \
	alphaTstart          1 \
	alphaTmin            1e-10 \
	updateTestStepSize   yes \
	alphaTreduceFactor   0.1 \
	alphaTincreaseFactor 3 \
	nAlphaAdjustMax      3 \
	wolfeEnergy          0.0001 \
	wolfeGradient        0.9 \
	fdTest               no
lcao-params 30 1e-06 0.001
pcm-variant CANDLE
spintype z-spin
subspace-rotation-factor 1 yes
symmetries automatic
symmetry-threshold 0.0001
target-mu -0.1345 no

van-der-waals D3



---------- Setting up symmetries ----------

Found 8 point-group symmetries of the bravais lattice
Found 1 space-group symmetries with basis
Applied RMS atom displacement 0 bohrs to make symmetries exact.

---------- Initializing the Grid ----------
R = 
[      7.66567     -3.83284            0  ]
[            0      8.57048            0  ]
[            0            0      51.4229  ]
unit cell volume = 3378.4
G =
[   0.819653    0.36656         -0  ]
[          0    0.73312          0  ]
[          0         -0   0.122187  ]
Minimum fftbox size, Smin = [  32  40  208  ]
Chosen fftbox size, S = [  32  40  210  ]

---------- Exchange Correlation functional ----------
Initalized PBE GGA exchange.
Initalized PBE GGA correlation.

---------- Setting up pseudopotentials ----------
Width of ionic core gaussian charges (only for fluid interactions / plotting) set to 0.397384

Reading pseudopotential file '/projects/musgravc/apps/jdftx-1.6.0/build/pseudopotentials/GBRV_v1.5/ag_pbe_v1.4.uspp':
  Title: Ag.  Created by USPP 7.3.6 on 1-4-15
  Reference state energy: -147.606242.  19 valence electrons in orbitals:
    |400>  occupation: 2  eigenvalue: -3.637437
    |410>  occupation: 6  eigenvalue: -2.297267
    |420>  occupation: 10  eigenvalue: -0.417763
    |500>  occupation: 0.5  eigenvalue: -0.283525
    |510>  occupation: 0  eigenvalue: -0.122889
  lMax: 2  lLocal: 0  QijEcut: 5.5
  6 projectors sampled on a log grid with 717 points:
    l: 0  eig: -0.283528  rCut: 1.5
    l: 0  eig: -3.637440  rCut: 1.5
    l: 1  eig: -0.122892  rCut: 1.5
    l: 1  eig: -2.297267  rCut: 1.5
    l: 2  eig: -0.417762  rCut: 1.7
    l: 2  eig: -1.000000  rCut: 1.7
  Partial core density with radius 1.2
  Transforming core density to a uniform radial grid of dG=0.02 with 1382 points.
  Transforming local potential to a uniform radial grid of dG=0.02 with 1382 points.
  Transforming nonlocal projectors to a uniform radial grid of dG=0.02 with 432 points.
  Transforming density augmentations to a uniform radial grid of dG=0.02 with 1382 points.
  Transforming atomic orbitals to a uniform radial grid of dG=0.02 with 432 points.
  Core radius for overlap checks: 1.70 bohrs.

Initialized 1 species with 10 total atoms.

Folded 1 k-points by 9x7x1 to 63 k-points.

---------- Setting up k-points, bands, fillings ----------
Adding inversion symmetry to k-mesh for non-inversion-symmetric unit cell.
Reduced to 32 k-points under symmetry. 
Computing the number of bands and number of electrons
Reading initial fillings from file jdft.fillings.
nElectrons: 189.048782   nBands: 114   nStates: 64

----- Setting up reduced wavefunction bases (one per k-point) -----
average nbasis = 14428.778 , ideal nbasis = 14432.793

----- Initializing Supercell corresponding to k-point mesh -----
Lattice vector linear combinations in supercell:
[   9   0   0  ]
[   0   7   0  ]
[   0   0   1  ]
Supercell lattice vectors:
[  68.991  -26.8298  0  ]
[  0  59.9934  0  ]
[  0  0  51.4229  ]

Initializing DFT-D3 calculator:
	Parameters set for gga-PBE functional
	s6:  1.000  s_r6:  1.217
	s8:  0.722  s_r8:  1.000
	Per-atom parameters loaded for:
	Ag:  sqrtQ[a0]:  5.443  Rcov[a0]:  2.173  CN: [ 0.00 0.97 ]

Initializing DFT-D2 calculator for fluid / solvation:
	Ag:  C6:  427.91 Eh-a0^6  R0: 3.097 a0

---------- Setting up ewald sum ----------
Optimum gaussian width for ewald sums = 4.078313 bohr.
Real space sum over 975 unit cells with max indices [  7  6  2  ]
Reciprocal space sum over 4257 terms with max indices [  4  5  21  ]

Computing DFT-D3 correction:
# coordination-number Ag 8.164 8.803 8.880 6.765 4.791 8.881 8.803 8.163 4.792 6.766
# diagonal-C6 Ag 268.61 268.61 268.61 268.61 268.61 268.61 268.61 268.61 268.61 268.61
EvdW_6 =   -0.054353
EvdW_8 =   -0.078019

---------- Allocating electronic variables ----------
Initializing wave functions:  reading from 'jdft.wfns'
----- createFluidSolver() ----- (Fluid-side solver setup)
   Initializing fluid molecule 'H2O'
     Initializing site 'O'
       Electron density: proportional to exp(-r/0.36935)*erfc((r-0.51523)/0.36823) with norm 6.826
       Charge density: gaussian nuclear width 0.478731 with net site charge 0.826
       Polarizability: cuspless exponential with width 0.32 and norm 3.73
       Hard sphere radius: 2.57003 bohrs
       Positions in reference frame:
         [ +0.000000 +0.000000 +0.000000 ]
     Initializing site 'H'
       Electron density: proportional to exp(-r/0.34641)*erfc((r-0)/0.390882) with norm 0.587
       Charge density: gaussian nuclear width 0.377945 with net site charge -0.413
       Polarizability: cuspless exponential with width 0.39 and norm 3.3
       Positions in reference frame:
         [ +0.000000 -1.441945 +1.122523 ]
         [ +0.000000 +1.441945 +1.122523 ]
     Net charge: 0   dipole magnitude: 0.927204
     Initializing spherical shell mfKernel with radius 2.61727 Bohr
     deltaS corrections:
       site 'O': -7.54299
       site 'H': -6.83917
   Initializing fluid molecule 'Na+'
     Initializing site 'Na'
       Electron density: proportional to exp(-r/0.19682)*erfc((r-0.71491)/0.41314) with norm 8.1383
       Charge density: gaussian nuclear width 0.365347 with net site charge -1
       Hard sphere radius: 1.86327 bohrs
       Positions in reference frame:
         [ +0.000000 +0.000000 +0.000000 ]
     Net charge: -1   dipole magnitude: 0
     Initializing gaussian mfKernel with width: 1.55004 Bohr
     deltaS corrections:
       site 'Na': -22.3555
   Initializing fluid molecule 'F-'
     Initializing site 'F'
       Electron density: proportional to exp(-r/0.38886)*erfc((r-0)/0.438782) with norm 8
       Charge density: gaussian nuclear width 0.374796 with net site charge 1
       Hard sphere radius: 2.39995 bohrs
       Positions in reference frame:
         [ +0.000000 +0.000000 +0.000000 ]
     Net charge: 1   dipole magnitude: 0
     Initializing gaussian mfKernel with width: 1.59012 Bohr
     deltaS corrections:
       site 'F': -9.04335

Correction to mu due to finite nuclear width = -0.055801
   Cavity determined by nc: 0.00142 and sigma: 0.707107
   Nonlocal vdW cavity from gaussian model electron density with norm = 8 and sigma = 0.993594 bohr
   Charge asymmetry in cavity with sensitivity pCavity = 36.5 e-bohr/Eh
   Electrostatic cavity expanded by eta = 1.46 bohrs
   Weighted density cavitation model constrained by Nbulk: 0.0049383 bohr^-3, Pvap: 3.14029 kPa, Rvdw: 2.61727 bohr and sigmaBulk: 4.62e-05 Eh/bohr^2 at T: 298 K.
   Weighted density dispersion model using vdW pair potentials with single solvent site with sqrtC6eff: 0.77 SI.
Reading fluid state from 'jdft.fluidState'


---- Citations for features of the code used in this run ----

   Software package:
      R. Sundararaman, K. Letchworth-Weaver, K.A. Schwarz, D. Gunceler, Y. Ozhabes and T.A. Arias, 'JDFTx: software for joint density-functional theory', SoftwareX 6, 278 (2017)

   gga-PBE exchange-correlation functional:
      J.P. Perdew, K. Burke and M. Ernzerhof, Phys. Rev. Lett. 77, 3865 (1996)

   Pseudopotentials:
      KF Garrity, JW Bennett, KM Rabe and D Vanderbilt, Comput. Mater. Sci. 81, 446 (2014)

   DFT-D3 dispersion correction:
      S. Grimme, J. Antony, S. Ehrlich and H. Krieg, J. Chem. Phys. 132, 154104 (2010)

   DFT-D2 dispersion correction:
      S. Grimme, J. Comput. Chem. 27, 1787 (2006)

   Charge-asymmetric nonlocally-determined local-electric (CANDLE) solvation model:
      R. Sundararaman and W.A. Goddard III, J. Chem. Phys. 142, 064107 (2015)

   Total energy minimization with Auxiliary Hamiltonian:
      C. Freysoldt, S. Boeck, and J. Neugebauer, Phys. Rev. B 79, 241103(R) (2009)

   Grand-canonical (fixed-potential) DFT:
      R. Sundararaman, W. A. Goddard III and T. A. Arias, J. Chem. Phys. 146, 114104 (2017)

   Linear-tetrahedron sampling for density of states:
      G. Lehmann and M. Taut, Phys. status solidi (b) 54, 469 (1972)

This list may not be complete. Please suggest additional citations or
report any other bugs at https://github.com/shankar1729/jdftx/issues

Initialization completed successfully at t[s]:      8.30


Computing DFT-D3 correction:
# coordination-number Ag 8.164 8.803 8.880 6.765 4.791 8.881 8.803 8.163 4.792 6.766
# diagonal-C6 Ag 268.61 268.61 268.61 268.61 268.61 268.61 268.61 268.61 268.61 268.61
EvdW_6 =   -0.054353
EvdW_8 =   -0.078019
Shifting auxilliary hamiltonian by 0.110279 to set nElectrons=189.048782

-------- Electronic minimization -----------
	Linear fluid (dielectric constant: 78.4, screening length: 8.12261 Bohr) occupying 0.528061 of unit cell:	Completed after 21 iterations at t[s]:     17.06
	FillingsUpdate:  mu: -0.134500000  nElectrons: 189.048782  magneticMoment: [ Abs: 0.00000  Tot: -0.00000 ]
ElecMinimize: Iter:   0  G: -1448.960913805901100  |grad|_K:  2.557e-04  alpha:  1.000e+00
	Linear fluid (dielectric constant: 78.4, screening length: 8.12261 Bohr) occupying 0.507808 of unit cell:	Completed after 197 iterations at t[s]:     61.61
	Linear fluid (dielectric constant: 78.4, screening length: 8.12261 Bohr) occupying 0.527911 of unit cell:	Completed after 40 iterations at t[s]:     74.56
	FillingsUpdate:  mu: -0.134500000  nElectrons: 189.010609  magneticMoment: [ Abs: 0.00000  Tot: -0.00000 ]
	SubspaceRotationAdjust: set factor to 1.3
ElecMinimize: Iter:   1  G: -1449.029961534551148  |grad|_K:  2.451e-04  alpha:  4.142e-03  linmin: -1.325e-02  t[s]:     88.76
	Linear fluid (dielectric constant: 78.4, screening length: 8.12261 Bohr) occupying 0.527838 of unit cell:	Completed after 18 iterations at t[s]:    100.79
ElecMinimize: 	Predicted alpha/alphaT>3.000000, increasing alphaT to 1.242623e-02.
	Linear fluid (dielectric constant: 78.4, screening length: 8.12261 Bohr) occupying 0.527669 of unit cell:	Completed after 19 iterations at t[s]:    111.36
ElecMinimize: 	Predicted alpha/alphaT>3.000000, increasing alphaT to 3.727868e-02.
	Linear fluid (dielectric constant: 78.4, screening length: 8.12261 Bohr) occupying 0.527042 of unit cell:	Completed after 21 iterations at t[s]:    122.15
	Linear fluid (dielectric constant: 78.4, screening length: 8.12261 Bohr) occupying 0.526616 of unit cell:	Completed after 20 iterations at t[s]:    132.84
	FillingsUpdate:  mu: -0.134500000  nElectrons: 188.187830  magneticMoment: [ Abs: 0.00000  Tot: +0.00000 ]
	SubspaceRotationAdjust: set factor to 0.735
ElecMinimize: Iter:   2  G: -1449.655020261624259  |grad|_K:  3.463e-04  alpha:  4.987e-02  linmin:  1.827e-03  t[s]:    147.11
	Linear fluid (dielectric constant: 78.4, screening length: 8.12261 Bohr) occupying 0.522733 of unit cell:	Completed after 21 iterations at t[s]:    159.52
	Linear fluid (dielectric constant: 78.4, screening length: 8.12261 Bohr) occupying 0.525070 of unit cell:	Completed after 21 iterations at t[s]:    170.44
	FillingsUpdate:  mu: -0.134500000  nElectrons: 188.215620  magneticMoment: [ Abs: 0.00000  Tot: +0.00000 ]
	SubspaceRotationAdjust: set factor to 0.38
ElecMinimize: Iter:   3  G: -1449.857148917456698  |grad|_K:  3.719e-04  alpha:  2.033e-02  linmin:  1.202e-03  t[s]:    184.76
	Linear fluid (dielectric constant: 78.4, screening length: 8.12261 Bohr) occupying 0.522547 of unit cell:	Completed after 21 iterations at t[s]:    197.21
	Linear fluid (dielectric constant: 78.4, screening length: 8.12261 Bohr) occupying 0.522829 of unit cell:	Completed after 16 iterations at t[s]:    207.61
	FillingsUpdate:  mu: -0.134500000  nElectrons: 188.836379  magneticMoment: [ Abs: 0.00000  Tot: -0.00000 ]
	SubspaceRotationAdjust: set factor to 0.24
ElecMinimize: Iter:   4  G: -1450.093669152570556  |grad|_K:  1.590e-04  alpha:  1.722e-02  linmin:  2.340e-03  t[s]:    221.90
	Linear fluid (dielectric constant: 78.4, screening length: 8.12261 Bohr) occupying 0.522482 of unit cell:	Completed after 19 iterations at t[s]:    234.16
ElecMinimize: 	Wrong curvature in test step, increasing alphaT to 5.164892e-02.
	Linear fluid (dielectric constant: 78.4, screening length: 8.12261 Bohr) occupying 0.522482 of unit cell:	Completed after 0 iterations at t[s]:    240.60
	FillingsUpdate:  mu: -0.134500000  nElectrons: 189.087769  magneticMoment: [ Abs: 0.00000  Tot: -0.00000 ]
	SubspaceRotationAdjust: set factor to 0.177
ElecMinimize: Iter:   5  G: -1450.193028345216135  |grad|_K:  1.264e-04  alpha: -3.504e-02  linmin: -1.074e-02  t[s]:    254.95
	Linear fluid (dielectric constant: 78.4, screening length: 8.12261 Bohr) occupying 0.575464 of unit cell:	Completed after 95 iterations at t[s]:    274.53
	Linear fluid (dielectric constant: 78.4, screening length: 8.12261 Bohr) occupying 0.521236 of unit cell:	Completed after 30 iterations at t[s]:    286.44
	FillingsUpdate:  mu: -0.134500000  nElectrons: 189.978113  magneticMoment: [ Abs: 0.00000  Tot: -0.00000 ]
	SubspaceRotationAdjust: set factor to 0.173
ElecMinimize: Iter:   6  G: -1450.375835615930100  |grad|_K:  6.103e-05  alpha:  4.978e-02  linmin:  6.906e-05  t[s]:    300.90
	Linear fluid (dielectric constant: 78.4, screening length: 8.12261 Bohr) occupying 0.527979 of unit cell:	Completed after 17 iterations at t[s]:    313.02
	Linear fluid (dielectric constant: 78.4, screening length: 8.12261 Bohr) occupying 0.533244 of unit cell:	Completed after 18 iterations at t[s]:    323.63
	FillingsUpdate:  mu: -0.134500000  nElectrons: 190.260981  magneticMoment: [ Abs: 0.00000  Tot: -0.00000 ]
	SubspaceRotationAdjust: set factor to 0.197
ElecMinimize: Iter:   7  G: -1450.401959891713432  |grad|_K:  5.096e-05  alpha:  6.502e-02  linmin: -1.736e-03  t[s]:    338.14
	Linear fluid (dielectric constant: 78.4, screening length: 8.12261 Bohr) occupying 0.540986 of unit cell:	Completed after 20 iterations at t[s]:    350.58
	Linear fluid (dielectric constant: 78.4, screening length: 8.12261 Bohr) occupying 0.543827 of unit cell:	Completed after 18 iterations at t[s]:    361.24
	FillingsUpdate:  mu: -0.134500000  nElectrons: 190.398077  magneticMoment: [ Abs: 0.00000  Tot: -0.00000 ]
	SubspaceRotationAdjust: set factor to 0.144
ElecMinimize: Iter:   8  G: -1450.428045112538030  |grad|_K:  4.451e-05  alpha:  8.716e-02  linmin:  2.115e-03  t[s]:    375.72
	Linear fluid (dielectric constant: 78.4, screening length: 8.12261 Bohr) occupying 0.535566 of unit cell:	Completed after 19 iterations at t[s]:    388.07
	Linear fluid (dielectric constant: 78.4, screening length: 8.12261 Bohr) occupying 0.536351 of unit cell:	Completed after 15 iterations at t[s]:    398.46
	FillingsUpdate:  mu: -0.134500000  nElectrons: 190.328211  magneticMoment: [ Abs: 0.00000  Tot: -0.00000 ]
	SubspaceRotationAdjust: set factor to 0.168
ElecMinimize: Iter:   9  G: -1450.443431799502605  |grad|_K:  3.881e-05  alpha:  7.913e-02  linmin:  5.633e-06  t[s]:    412.81
	Linear fluid (dielectric constant: 78.4, screening length: 8.12261 Bohr) occupying 0.522784 of unit cell:	Completed after 19 iterations at t[s]:    425.16
	Linear fluid (dielectric constant: 78.4, screening length: 8.12261 Bohr) occupying 0.519605 of unit cell:	Completed after 16 iterations at t[s]:    435.64
	FillingsUpdate:  mu: -0.134500000  nElectrons: 190.122258  magneticMoment: [ Abs: 0.00000  Tot: -0.00000 ]
	SubspaceRotationAdjust: set factor to 0.199
ElecMinimize: Iter:  10  G: -1450.460257252250585  |grad|_K:  3.759e-05  alpha:  1.085e-01  linmin:  8.517e-04  t[s]:    450.11
	Linear fluid (dielectric constant: 78.4, screening length: 8.12261 Bohr) occupying 0.514380 of unit cell:	Completed after 17 iterations at t[s]:    462.31
	Linear fluid (dielectric constant: 78.4, screening length: 8.12261 Bohr) occupying 0.514996 of unit cell:	Completed after 15 iterations at t[s]:    472.65
	FillingsUpdate:  mu: -0.134500000  nElectrons: 189.993648  magneticMoment: [ Abs: 0.00000  Tot: -0.00000 ]
	SubspaceRotationAdjust: set factor to 0.202
ElecMinimize: Iter:  11  G: -1450.471146770673613  |grad|_K:  3.323e-05  alpha:  8.333e-02  linmin: -4.299e-04  t[s]:    487.13
	Linear fluid (dielectric constant: 78.4, screening length: 8.12261 Bohr) occupying 0.513281 of unit cell:	Completed after 16 iterations at t[s]:    499.23
	Linear fluid (dielectric constant: 78.4, screening length: 8.12261 Bohr) occupying 0.512921 of unit cell:	Completed after 14 iterations at t[s]:    509.52
	FillingsUpdate:  mu: -0.134500000  nElectrons: 189.919718  magneticMoment: [ Abs: 0.00000  Tot: -0.00000 ]
	SubspaceRotationAdjust: set factor to 0.244
ElecMinimize: Iter:  12  G: -1450.483446262990128  |grad|_K:  2.796e-05  alpha:  1.025e-01  linmin:  6.978e-04  t[s]:    523.99
	Linear fluid (dielectric constant: 78.4, screening length: 8.12261 Bohr) occupying 0.511310 of unit cell:	Completed after 15 iterations at t[s]:    536.00
	Linear fluid (dielectric constant: 78.4, screening length: 8.12261 Bohr) occupying 0.511356 of unit cell:	Completed after 6 iterations at t[s]:    545.43
	FillingsUpdate:  mu: -0.134500000  nElectrons: 189.913006  magneticMoment: [ Abs: 0.00000  Tot: -0.00000 ]
	SubspaceRotationAdjust: set factor to 0.333
ElecMinimize: Iter:  13  G: -1450.491268803450794  |grad|_K:  2.596e-05  alpha:  9.960e-02  linmin: -4.070e-05  t[s]:    559.90
	Linear fluid (dielectric constant: 78.4, screening length: 8.12261 Bohr) occupying 0.509813 of unit cell:	Completed after 16 iterations at t[s]:    571.97
	Linear fluid (dielectric constant: 78.4, screening length: 8.12261 Bohr) occupying 0.509950 of unit cell:	Completed after 14 iterations at t[s]:    582.28
	FillingsUpdate:  mu: -0.134500000  nElectrons: 189.956935  magneticMoment: [ Abs: 0.00000  Tot: -0.00000 ]
	SubspaceRotationAdjust: set factor to 0.37
ElecMinimize: Iter:  14  G: -1450.497727513400378  |grad|_K:  2.235e-05  alpha:  9.059e-02  linmin: -1.129e-04  t[s]:    596.76
	Linear fluid (dielectric constant: 78.4, screening length: 8.12261 Bohr) occupying 0.508863 of unit cell:	Completed after 16 iterations at t[s]:    608.75
	Linear fluid (dielectric constant: 78.4, screening length: 8.12261 Bohr) occupying 0.508902 of unit cell:	Completed after 13 iterations at t[s]:    618.96
	FillingsUpdate:  mu: -0.134500000  nElectrons: 190.007781  magneticMoment: [ Abs: 0.00000  Tot: -0.00000 ]
	SubspaceRotationAdjust: set factor to 0.363
ElecMinimize: Iter:  15  G: -1450.502366342000641  |grad|_K:  2.192e-05  alpha:  8.647e-02  linmin:  3.166e-04  t[s]:    633.41
	Linear fluid (dielectric constant: 78.4, screening length: 8.12261 Bohr) occupying 0.507365 of unit cell:	Completed after 14 iterations at t[s]:    645.29
	Linear fluid (dielectric constant: 78.4, screening length: 8.12261 Bohr) occupying 0.507371 of unit cell:	Completed after 2 iterations at t[s]:    654.42
	FillingsUpdate:  mu: -0.134500000  nElectrons: 190.003825  magneticMoment: [ Abs: 0.00000  Tot: -0.00000 ]
	SubspaceRotationAdjust: set factor to 0.322
ElecMinimize: Iter:  16  G: -1450.506582701433445  |grad|_K:  2.079e-05  alpha:  8.614e-02  linmin:  4.324e-05  t[s]:    668.87
	Linear fluid (dielectric constant: 78.4, screening length: 8.12261 Bohr) occupying 0.505572 of unit cell:	Completed after 16 iterations at t[s]:    680.88
	Linear fluid (dielectric constant: 78.4, screening length: 8.12261 Bohr) occupying 0.506050 of unit cell:	Completed after 15 iterations at t[s]:    691.29
	FillingsUpdate:  mu: -0.134500000  nElectrons: 189.946559  magneticMoment: [ Abs: 0.00000  Tot: -0.00000 ]
	SubspaceRotationAdjust: set factor to 0.464
ElecMinimize: Iter:  17  G: -1450.509394452545166  |grad|_K:  1.504e-05  alpha:  6.217e-02  linmin:  8.970e-06  t[s]:    705.75
	Linear fluid (dielectric constant: 78.4, screening length: 8.12261 Bohr) occupying 0.505285 of unit cell:	Completed after 15 iterations at t[s]:    717.74
	Linear fluid (dielectric constant: 78.4, screening length: 8.12261 Bohr) occupying 0.505014 of unit cell:	Completed after 14 iterations at t[s]:    728.05
	FillingsUpdate:  mu: -0.134500000  nElectrons: 189.895172  magneticMoment: [ Abs: 0.00000  Tot: -0.00000 ]
	SubspaceRotationAdjust: set factor to 0.449
ElecMinimize: Iter:  18  G: -1450.511396457953651  |grad|_K:  1.517e-05  alpha:  8.335e-02  linmin: -7.562e-05  t[s]:    742.44
	Linear fluid (dielectric constant: 78.4, screening length: 8.12261 Bohr) occupying 0.503695 of unit cell:	Completed after 15 iterations at t[s]:    754.45
	Linear fluid (dielectric constant: 78.4, screening length: 8.12261 Bohr) occupying 0.503094 of unit cell:	Completed after 12 iterations at t[s]:    764.56
	FillingsUpdate:  mu: -0.134500000  nElectrons: 189.891541  magneticMoment: [ Abs: 0.00000  Tot: -0.00000 ]
	SubspaceRotationAdjust: set factor to 0.371
ElecMinimize: Iter:  19  G: -1450.514320694273010  |grad|_K:  1.707e-05  alpha:  1.182e-01  linmin: -1.048e-04  t[s]:    779.04
	Linear fluid (dielectric constant: 78.4, screening length: 8.12261 Bohr) occupying 0.499962 of unit cell:	Completed after 16 iterations at t[s]:    791.10
	Linear fluid (dielectric constant: 78.4, screening length: 8.12261 Bohr) occupying 0.501438 of unit cell:	Completed after 16 iterations at t[s]:    801.59
	FillingsUpdate:  mu: -0.134500000  nElectrons: 189.966640  magneticMoment: [ Abs: 0.00000  Tot: -0.00000 ]
	SubspaceRotationAdjust: set factor to 0.509
ElecMinimize: Iter:  20  G: -1450.516429469671721  |grad|_K:  1.108e-05  alpha:  6.087e-02  linmin: -1.953e-04  t[s]:    816.06
	Linear fluid (dielectric constant: 78.4, screening length: 8.12261 Bohr) occupying 0.500636 of unit cell:	Completed after 15 iterations at t[s]:    828.08
	Linear fluid (dielectric constant: 78.4, screening length: 8.12261 Bohr) occupying 0.500465 of unit cell:	Completed after 14 iterations at t[s]:    838.37
	FillingsUpdate:  mu: -0.134500000  nElectrons: 190.027467  magneticMoment: [ Abs: 0.00000  Tot: -0.00000 ]
	SubspaceRotationAdjust: set factor to 0.478
ElecMinimize: Iter:  21  G: -1450.517461950142433  |grad|_K:  1.191e-05  alpha:  7.705e-02  linmin: -1.756e-05  t[s]:    852.82
	Linear fluid (dielectric constant: 78.4, screening length: 8.12261 Bohr) occupying 0.499161 of unit cell:	Completed after 14 iterations at t[s]:    864.74
	Linear fluid (dielectric constant: 78.4, screening length: 8.12261 Bohr) occupying 0.498929 of unit cell:	Completed after 12 iterations at t[s]:    874.82
	FillingsUpdate:  mu: -0.134500000  nElectrons: 190.058628  magneticMoment: [ Abs: 0.00000  Tot: -0.00000 ]
	SubspaceRotationAdjust: set factor to 0.437
ElecMinimize: Iter:  22  G: -1450.518827079861921  |grad|_K:  1.091e-05  alpha:  9.071e-02  linmin: -3.391e-05  t[s]:    889.25
	Linear fluid (dielectric constant: 78.4, screening length: 8.12261 Bohr) occupying 0.496746 of unit cell:	Completed after 15 iterations at t[s]:    901.26
	Linear fluid (dielectric constant: 78.4, screening length: 8.12261 Bohr) occupying 0.497522 of unit cell:	Completed after 14 iterations at t[s]:    911.55
	FillingsUpdate:  mu: -0.134500000  nElectrons: 190.039989  magneticMoment: [ Abs: 0.00000  Tot: -0.00000 ]
	SubspaceRotationAdjust: set factor to 0.505
ElecMinimize: Iter:  23  G: -1450.519567021005741  |grad|_K:  7.722e-06  alpha:  5.832e-02  linmin: -1.740e-05  t[s]:    926.01
	Linear fluid (dielectric constant: 78.4, screening length: 8.12261 Bohr) occupying 0.496767 of unit cell:	Completed after 14 iterations at t[s]:    937.89
	Linear fluid (dielectric constant: 78.4, screening length: 8.12261 Bohr) occupying 0.496413 of unit cell:	Completed after 13 iterations at t[s]:    947.99
	FillingsUpdate:  mu: -0.134500000  nElectrons: 190.020186  magneticMoment: [ Abs: 0.00000  Tot: +0.00000 ]
	SubspaceRotationAdjust: set factor to 0.482
ElecMinimize: Iter:  24  G: -1450.520104682422698  |grad|_K:  8.914e-06  alpha:  8.600e-02  linmin:  1.844e-04  t[s]:    962.47
	Linear fluid (dielectric constant: 78.4, screening length: 8.12261 Bohr) occupying 0.494960 of unit cell:	Completed after 12 iterations at t[s]:    974.17
	Linear fluid (dielectric constant: 78.4, screening length: 8.12261 Bohr) occupying 0.495092 of unit cell:	Completed after 4 iterations at t[s]:    983.52
	FillingsUpdate:  mu: -0.134500000  nElectrons: 190.034437  magneticMoment: [ Abs: 0.00000  Tot: +0.00000 ]
	SubspaceRotationAdjust: set factor to 0.489
ElecMinimize: Iter:  25  G: -1450.520745341123302  |grad|_K:  7.599e-06  alpha:  7.853e-02  linmin: -2.251e-06  t[s]:    998.02
	Linear fluid (dielectric constant: 78.4, screening length: 8.12261 Bohr) occupying 0.494518 of unit cell:	Completed after 15 iterations at t[s]:   1009.94
	Linear fluid (dielectric constant: 78.4, screening length: 8.12261 Bohr) occupying 0.494657 of unit cell:	Completed after 14 iterations at t[s]:   1020.25
	FillingsUpdate:  mu: -0.134500000  nElectrons: 190.063593  magneticMoment: [ Abs: 0.00000  Tot: +0.00000 ]
	SubspaceRotationAdjust: set factor to 0.536
ElecMinimize: Iter:  26  G: -1450.521055390623133  |grad|_K:  4.979e-06  alpha:  5.150e-02  linmin: -6.823e-06  t[s]:   1034.73
	Linear fluid (dielectric constant: 78.4, screening length: 8.12261 Bohr) occupying 0.494576 of unit cell:	Completed after 14 iterations at t[s]:   1046.66
	Linear fluid (dielectric constant: 78.4, screening length: 8.12261 Bohr) occupying 0.494556 of unit cell:	Completed after 12 iterations at t[s]:   1056.73
	FillingsUpdate:  mu: -0.134500000  nElectrons: 190.085682  magneticMoment: [ Abs: 0.00000  Tot: +0.00000 ]
	SubspaceRotationAdjust: set factor to 0.521
ElecMinimize: Iter:  27  G: -1450.521268662401553  |grad|_K:  5.320e-06  alpha:  8.108e-02  linmin: -8.723e-05  t[s]:   1071.22
	Linear fluid (dielectric constant: 78.4, screening length: 8.12261 Bohr) occupying 0.493975 of unit cell:	Completed after 13 iterations at t[s]:   1082.92
	Linear fluid (dielectric constant: 78.4, screening length: 8.12261 Bohr) occupying 0.493961 of unit cell:	Completed after 2 iterations at t[s]:   1092.08
	FillingsUpdate:  mu: -0.134500000  nElectrons: 190.087866  magneticMoment: [ Abs: 0.00000  Tot: +0.00000 ]
	SubspaceRotationAdjust: set factor to 0.634
ElecMinimize: Iter:  28  G: -1450.521518792773350  |grad|_K:  4.313e-06  alpha:  8.297e-02  linmin: -6.473e-06  t[s]:   1106.51
	Linear fluid (dielectric constant: 78.4, screening length: 8.12261 Bohr) occupying 0.493178 of unit cell:	Completed after 14 iterations at t[s]:   1118.41
	Linear fluid (dielectric constant: 78.4, screening length: 8.12261 Bohr) occupying 0.493421 of unit cell:	Completed after 12 iterations at t[s]:   1128.51
	FillingsUpdate:  mu: -0.134500000  nElectrons: 190.076358  magneticMoment: [ Abs: 0.00000  Tot: +0.00000 ]
	SubspaceRotationAdjust: set factor to 0.591
ElecMinimize: Iter:  29  G: -1450.521630132069276  |grad|_K:  3.157e-06  alpha:  5.631e-02  linmin: -4.417e-06  t[s]:   1142.93
	Linear fluid (dielectric constant: 78.4, screening length: 8.12261 Bohr) occupying 0.493212 of unit cell:	Completed after 13 iterations at t[s]:   1154.74
	Linear fluid (dielectric constant: 78.4, screening length: 8.12261 Bohr) occupying 0.493070 of unit cell:	Completed after 12 iterations at t[s]:   1164.85
	FillingsUpdate:  mu: -0.134500000  nElectrons: 190.069736  magneticMoment: [ Abs: 0.00000  Tot: +0.00000 ]
	SubspaceRotationAdjust: set factor to 0.495
ElecMinimize: Iter:  30  G: -1450.521730041353067  |grad|_K:  3.602e-06  alpha:  9.489e-02  linmin:  2.624e-05  t[s]:   1179.36
	Linear fluid (dielectric constant: 78.4, screening length: 8.12261 Bohr) occupying 0.493068 of unit cell:	Completed after 14 iterations at t[s]:   1191.25
	Linear fluid (dielectric constant: 78.4, screening length: 8.12261 Bohr) occupying 0.493064 of unit cell:	Completed after 12 iterations at t[s]:   1201.37
	FillingsUpdate:  mu: -0.134500000  nElectrons: 190.079305  magneticMoment: [ Abs: 0.00000  Tot: +0.00000 ]
	SubspaceRotationAdjust: set factor to 0.847
ElecMinimize: Iter:  31  G: -1450.521818284949404  |grad|_K:  2.331e-06  alpha:  6.463e-02  linmin: -1.476e-05  t[s]:   1215.75
	Linear fluid (dielectric constant: 78.4, screening length: 8.12261 Bohr) occupying 0.493216 of unit cell:	Completed after 13 iterations at t[s]:   1227.57
	Linear fluid (dielectric constant: 78.4, screening length: 8.12261 Bohr) occupying 0.493231 of unit cell:	Completed after 9 iterations at t[s]:   1237.36
	FillingsUpdate:  mu: -0.134500000  nElectrons: 190.089180  magneticMoment: [ Abs: 0.00000  Tot: +0.00000 ]
	SubspaceRotationAdjust: set factor to 0.761
ElecMinimize: Iter:  32  G: -1450.521858923606715  |grad|_K:  2.230e-06  alpha:  7.059e-02  linmin: -8.928e-05  t[s]:   1251.82
	Linear fluid (dielectric constant: 78.4, screening length: 8.12261 Bohr) occupying 0.493245 of unit cell:	Completed after 9 iterations at t[s]:   1263.27
	Linear fluid (dielectric constant: 78.4, screening length: 8.12261 Bohr) occupying 0.493254 of unit cell:	Completed after 8 iterations at t[s]:   1272.95
	FillingsUpdate:  mu: -0.134500000  nElectrons: 190.089853  magneticMoment: [ Abs: 0.00000  Tot: +0.00000 ]
	SubspaceRotationAdjust: set factor to 0.981
ElecMinimize: Iter:  33  G: -1450.521923001443611  |grad|_K:  2.029e-06  alpha:  1.207e-01  linmin:  1.884e-05  t[s]:   1287.37
	Linear fluid (dielectric constant: 78.4, screening length: 8.12261 Bohr) occupying 0.493028 of unit cell:	Completed after 14 iterations at t[s]:   1299.30
	Linear fluid (dielectric constant: 78.4, screening length: 8.12261 Bohr) occupying 0.493119 of unit cell:	Completed after 12 iterations at t[s]:   1309.40
	FillingsUpdate:  mu: -0.134500000  nElectrons: 190.081916  magneticMoment: [ Abs: 0.00000  Tot: +0.00000 ]
	SubspaceRotationAdjust: set factor to 0.833
ElecMinimize: Iter:  34  G: -1450.521952255116958  |grad|_K:  1.775e-06  alpha:  6.687e-02  linmin:  8.085e-07  t[s]:   1323.86
	Linear fluid (dielectric constant: 78.4, screening length: 8.12261 Bohr) occupying 0.493194 of unit cell:	Completed after 10 iterations at t[s]:   1335.39
	Linear fluid (dielectric constant: 78.4, screening length: 8.12261 Bohr) occupying 0.493246 of unit cell:	Completed after 5 iterations at t[s]:   1344.71
	FillingsUpdate:  mu: -0.134500000  nElectrons: 190.080142  magneticMoment: [ Abs: 0.00000  Tot: +0.00000 ]
	SubspaceRotationAdjust: set factor to 1.14
ElecMinimize: Iter:  35  G: -1450.521989793881630  |grad|_K:  1.358e-06  alpha:  1.129e-01  linmin:  2.263e-05  t[s]:   1359.15
	Linear fluid (dielectric constant: 78.4, screening length: 8.12261 Bohr) occupying 0.493495 of unit cell:	Completed after 13 iterations at t[s]:   1370.96
	Linear fluid (dielectric constant: 78.4, screening length: 8.12261 Bohr) occupying 0.493434 of unit cell:	Completed after 10 iterations at t[s]:   1380.86
	FillingsUpdate:  mu: -0.134500000  nElectrons: 190.082973  magneticMoment: [ Abs: 0.00000  Tot: +0.00000 ]
	SubspaceRotationAdjust: set factor to 0.996
ElecMinimize: Iter:  36  G: -1450.522006303400303  |grad|_K:  1.456e-06  alpha:  8.529e-02  linmin: -9.272e-06  t[s]:   1395.34
	Linear fluid (dielectric constant: 78.4, screening length: 8.12261 Bohr) occupying 0.493492 of unit cell:	Completed after 11 iterations at t[s]:   1406.88
	Linear fluid (dielectric constant: 78.4, screening length: 8.12261 Bohr) occupying 0.493485 of unit cell:	Completed after 8 iterations at t[s]:   1416.56
	FillingsUpdate:  mu: -0.134500000  nElectrons: 190.076365  magneticMoment: [ Abs: 0.00000  Tot: +0.00000 ]
	SubspaceRotationAdjust: set factor to 0.877
ElecMinimize: Iter:  37  G: -1450.522023513711247  |grad|_K:  1.016e-06  alpha:  7.659e-02  linmin:  2.446e-05  t[s]:   1431.01
	Linear fluid (dielectric constant: 78.4, screening length: 8.12261 Bohr) occupying 0.493582 of unit cell:	Completed after 8 iterations at t[s]:   1442.35
	Linear fluid (dielectric constant: 78.4, screening length: 8.12261 Bohr) occupying 0.493666 of unit cell:	Completed after 8 iterations at t[s]:   1452.01
	FillingsUpdate:  mu: -0.134500000  nElectrons: 190.073244  magneticMoment: [ Abs: 0.00000  Tot: +0.00000 ]
	SubspaceRotationAdjust: set factor to 0.993
ElecMinimize: Iter:  38  G: -1450.522038887718281  |grad|_K:  8.440e-07  alpha:  1.421e-01  linmin:  3.597e-05  t[s]:   1466.47
	Linear fluid (dielectric constant: 78.4, screening length: 8.12261 Bohr) occupying 0.493900 of unit cell:	Completed after 11 iterations at t[s]:   1477.99
	Linear fluid (dielectric constant: 78.4, screening length: 8.12261 Bohr) occupying 0.493842 of unit cell:	Completed after 10 iterations at t[s]:   1487.89
	FillingsUpdate:  mu: -0.134500000  nElectrons: 190.074447  magneticMoment: [ Abs: 0.00000  Tot: +0.00000 ]
	SubspaceRotationAdjust: set factor to 0.866
ElecMinimize: Iter:  39  G: -1450.522046899699717  |grad|_K:  8.152e-07  alpha:  1.071e-01  linmin:  1.944e-05  t[s]:   1502.33
	Linear fluid (dielectric constant: 78.4, screening length: 8.12261 Bohr) occupying 0.493925 of unit cell:	Completed after 12 iterations at t[s]:   1514.03
	Linear fluid (dielectric constant: 78.4, screening length: 8.12261 Bohr) occupying 0.493899 of unit cell:	Completed after 10 iterations at t[s]:   1523.95
	FillingsUpdate:  mu: -0.134500000  nElectrons: 190.071230  magneticMoment: [ Abs: 0.00000  Tot: +0.00000 ]
	SubspaceRotationAdjust: set factor to 0.685
ElecMinimize: Iter:  40  G: -1450.522052148573039  |grad|_K:  6.019e-07  alpha:  7.471e-02  linmin:  5.861e-05  t[s]:   1538.40
	Linear fluid (dielectric constant: 78.4, screening length: 8.12261 Bohr) occupying 0.493969 of unit cell:	Completed after 8 iterations at t[s]:   1549.68
	Linear fluid (dielectric constant: 78.4, screening length: 8.12261 Bohr) occupying 0.494020 of unit cell:	Completed after 8 iterations at t[s]:   1559.36
	FillingsUpdate:  mu: -0.134500000  nElectrons: 190.071075  magneticMoment: [ Abs: 0.00000  Tot: +0.00000 ]
	SubspaceRotationAdjust: set factor to 0.777
ElecMinimize: Iter:  41  G: -1450.522057049444356  |grad|_K:  4.694e-07  alpha:  1.292e-01  linmin:  5.460e-05  t[s]:   1573.84
	Linear fluid (dielectric constant: 78.4, screening length: 8.12261 Bohr) occupying 0.494108 of unit cell:	Completed after 9 iterations at t[s]:   1585.24
	Linear fluid (dielectric constant: 78.4, screening length: 8.12261 Bohr) occupying 0.494110 of unit cell:	Completed after 0 iterations at t[s]:   1594.07
	FillingsUpdate:  mu: -0.134500000  nElectrons: 190.071471  magneticMoment: [ Abs: 0.00000  Tot: +0.00000 ]
	SubspaceRotationAdjust: set factor to 0.791
ElecMinimize: Iter:  42  G: -1450.522060117639057  |grad|_K:  4.318e-07  alpha:  1.324e-01  linmin: -9.655e-05  t[s]:   1608.45
	Linear fluid (dielectric constant: 78.4, screening length: 8.12261 Bohr) occupying 0.494138 of unit cell:	Completed after 10 iterations at t[s]:   1619.96
	Linear fluid (dielectric constant: 78.4, screening length: 8.12261 Bohr) occupying 0.494130 of unit cell:	Completed after 9 iterations at t[s]:   1629.76
	FillingsUpdate:  mu: -0.134500000  nElectrons: 190.069583  magneticMoment: [ Abs: 0.00000  Tot: +0.00000 ]
	SubspaceRotationAdjust: set factor to 0.712
ElecMinimize: Iter:  43  G: -1450.522062045486564  |grad|_K:  3.581e-07  alpha:  9.691e-02  linmin: -2.007e-05  t[s]:   1644.23
	Linear fluid (dielectric constant: 78.4, screening length: 8.12261 Bohr) occupying 0.494163 of unit cell:	Completed after 10 iterations at t[s]:   1655.76
	Linear fluid (dielectric constant: 78.4, screening length: 8.12261 Bohr) occupying 0.494174 of unit cell:	Completed after 2 iterations at t[s]:   1664.87
	FillingsUpdate:  mu: -0.134500000  nElectrons: 190.069457  magneticMoment: [ Abs: 0.00000  Tot: +0.00000 ]
	SubspaceRotationAdjust: set factor to 0.806
ElecMinimize: Iter:  44  G: -1450.522063778151505  |grad|_K:  2.880e-07  alpha:  1.271e-01  linmin: -7.372e-05  t[s]:   1679.23
	Linear fluid (dielectric constant: 78.4, screening length: 8.12261 Bohr) occupying 0.494199 of unit cell:	Completed after 9 iterations at t[s]:   1690.65
	Linear fluid (dielectric constant: 78.4, screening length: 8.12261 Bohr) occupying 0.494203 of unit cell:	Completed after 2 iterations at t[s]:   1699.78
	FillingsUpdate:  mu: -0.134500000  nElectrons: 190.069516  magneticMoment: [ Abs: 0.00000  Tot: -0.00000 ]
	SubspaceRotationAdjust: set factor to 0.844
ElecMinimize: Iter:  45  G: -1450.522065059207534  |grad|_K:  2.688e-07  alpha:  1.441e-01  linmin: -2.562e-05  t[s]:   1714.22
	Linear fluid (dielectric constant: 78.4, screening length: 8.12261 Bohr) occupying 0.494194 of unit cell:	Completed after 10 iterations at t[s]:   1725.72
	Linear fluid (dielectric constant: 78.4, screening length: 8.12261 Bohr) occupying 0.494197 of unit cell:	Completed after 9 iterations at t[s]:   1735.52
	FillingsUpdate:  mu: -0.134500000  nElectrons: 190.068539  magneticMoment: [ Abs: 0.00000  Tot: -0.00000 ]
	SubspaceRotationAdjust: set factor to 0.706
ElecMinimize: Iter:  46  G: -1450.522065785503855  |grad|_K:  2.331e-07  alpha:  9.344e-02  linmin:  5.927e-05  t[s]:   1749.90
	Linear fluid (dielectric constant: 78.4, screening length: 8.12261 Bohr) occupying 0.494207 of unit cell:	Completed after 9 iterations at t[s]:   1761.31
	Linear fluid (dielectric constant: 78.4, screening length: 8.12261 Bohr) occupying 0.494209 of unit cell:	Completed after 2 iterations at t[s]:   1770.48
	FillingsUpdate:  mu: -0.134500000  nElectrons: 190.069151  magneticMoment: [ Abs: 0.00000  Tot: -0.00000 ]
	SubspaceRotationAdjust: set factor to 0.747
ElecMinimize: Iter:  47  G: -1450.522066396554237  |grad|_K:  1.715e-07  alpha:  1.081e-01  linmin: -8.874e-06  t[s]:   1784.92
	Linear fluid (dielectric constant: 78.4, screening length: 8.12261 Bohr) occupying 0.494211 of unit cell:	Completed after 7 iterations at t[s]:   1796.16
	Linear fluid (dielectric constant: 78.4, screening length: 8.12261 Bohr) occupying 0.494212 of unit cell:	Completed after 2 iterations at t[s]:   1805.25
	FillingsUpdate:  mu: -0.134500000  nElectrons: 190.069661  magneticMoment: [ Abs: 0.00000  Tot: -0.00000 ]
	SubspaceRotationAdjust: set factor to 0.79
ElecMinimize: Iter:  48  G: -1450.522066813945457  |grad|_K:  1.561e-07  alpha:  1.326e-01  linmin: -1.896e-04  t[s]:   1819.68
	Linear fluid (dielectric constant: 78.4, screening length: 8.12261 Bohr) occupying 0.494194 of unit cell:	Completed after 10 iterations at t[s]:   1831.19
	Linear fluid (dielectric constant: 78.4, screening length: 8.12261 Bohr) occupying 0.494199 of unit cell:	Completed after 7 iterations at t[s]:   1840.79
	FillingsUpdate:  mu: -0.134500000  nElectrons: 190.069345  magneticMoment: [ Abs: 0.00000  Tot: -0.00000 ]
	SubspaceRotationAdjust: set factor to 0.67
ElecMinimize: Iter:  49  G: -1450.522067074563665  |grad|_K:  1.310e-07  alpha:  9.670e-02  linmin: -9.020e-05  t[s]:   1855.24
	Linear fluid (dielectric constant: 78.4, screening length: 8.12261 Bohr) occupying 0.494195 of unit cell:	Completed after 7 iterations at t[s]:   1866.49
	Linear fluid (dielectric constant: 78.4, screening length: 8.12261 Bohr) occupying 0.494194 of unit cell:	Completed after 0 iterations at t[s]:   1875.24
	FillingsUpdate:  mu: -0.134500000  nElectrons: 190.069691  magneticMoment: [ Abs: 0.00000  Tot: -0.00000 ]
	SubspaceRotationAdjust: set factor to 0.765
ElecMinimize: Iter:  50  G: -1450.522067282632406  |grad|_K:  9.787e-08  alpha:  1.098e-01  linmin: -3.580e-04  t[s]:   1889.69
	Linear fluid (dielectric constant: 78.4, screening length: 8.12261 Bohr) occupying 0.494191 of unit cell:	Completed after 7 iterations at t[s]:   1900.92
	Linear fluid (dielectric constant: 78.4, screening length: 8.12261 Bohr) occupying 0.494191 of unit cell:	Completed after 0 iterations at t[s]:   1909.75
	FillingsUpdate:  mu: -0.134500000  nElectrons: 190.070011  magneticMoment: [ Abs: 0.00000  Tot: -0.00000 ]
	SubspaceRotationAdjust: set factor to 0.763
ElecMinimize: Iter:  51  G: -1450.522067416833124  |grad|_K:  9.158e-08  alpha:  1.169e-01  linmin: -3.277e-04  t[s]:   1924.23
	Linear fluid (dielectric constant: 78.4, screening length: 8.12261 Bohr) occupying 0.494175 of unit cell:	Completed after 8 iterations at t[s]:   1935.51
	Linear fluid (dielectric constant: 78.4, screening length: 8.12261 Bohr) occupying 0.494178 of unit cell:	Completed after 2 iterations at t[s]:   1944.64
	FillingsUpdate:  mu: -0.134500000  nElectrons: 190.069784  magneticMoment: [ Abs: 0.00000  Tot: -0.00000 ]
	SubspaceRotationAdjust: set factor to 0.61
ElecMinimize: Iter:  52  G: -1450.522067510897386  |grad|_K:  7.444e-08  alpha:  9.360e-02  linmin:  1.009e-04  t[s]:   1959.07
	Linear fluid (dielectric constant: 78.4, screening length: 8.12261 Bohr) occupying 0.494173 of unit cell:	Completed after 6 iterations at t[s]:   1970.23
	Linear fluid (dielectric constant: 78.4, screening length: 8.12261 Bohr) occupying 0.494172 of unit cell:	Completed after 2 iterations at t[s]:   1979.35
	FillingsUpdate:  mu: -0.134500000  nElectrons: 190.070014  magneticMoment: [ Abs: 0.00000  Tot: -0.00000 ]
	SubspaceRotationAdjust: set factor to 0.641
ElecMinimize: Iter:  53  G: -1450.522067579084023  |grad|_K:  6.078e-08  alpha:  1.226e-01  linmin:  3.394e-05  t[s]:   1993.80
ElecMinimize: Converged (|Delta G|<1.000000e-07 for 2 iters).
Setting wave functions to eigenvectors of Hamiltonian
Converging empty states (this may take a while): |deigs|: 5.051e-03

Computing DFT-D3 correction:
# coordination-number Ag 8.164 8.803 8.880 6.765 4.791 8.881 8.803 8.163 4.792 6.766
# diagonal-C6 Ag 268.61 268.61 268.61 268.61 268.61 268.61 268.61 268.61 268.61 268.61
EvdW_6 =   -0.054353
EvdW_8 =   -0.078019

# Ionic positions in cartesian coordinates:
ion Ag   3.837514000000001   1.716110000000000  13.037701999999998 1
ion Ag  -0.001005000000000   3.403183000000000   9.425451000000001 1
ion Ag   3.830185000000001   5.173321000000000   5.969989000000000 1
ion Ag  -0.003266000000000   6.911731000000001   2.408493000000000 1
ion Ag   0.007420000000000  -0.075523000000000  16.315035999999999 1
ion Ag   3.836379000000000   6.825246000000000  11.171514999999999 1
ion Ag   3.833401000000000   0.024340000000000   7.715487000000001 1
ion Ag  -0.006083000000000   1.711876000000000   4.102876000000000 1
ion Ag   3.825249000000000   3.504700000000001   0.826160000000000 1
ion Ag   0.004377000000000   5.086922000000001  14.732136999999998 1

# Forces in Cartesian coordinates:
force Ag   0.000017693808764  -0.000316449785924   0.000085081805771 1
force Ag   0.003929503838608   0.002665708663229   0.001187945752304 1
force Ag   0.001940356703942   0.000608150922222   0.000923322012646 1
force Ag  -0.000096044878598  -0.000201539929577  -0.000929948414137 1
force Ag  -0.000093949895050  -0.000357376929648  -0.000967448824439 1
force Ag   0.000762694456661  -0.001139311047499  -0.000120918862204 1
force Ag  -0.001443540728062  -0.000936304418958  -0.000381031816413 1
force Ag   0.000118983600776   0.000219664842873  -0.000017359073189 1
force Ag   0.000174758825177   0.000412567816692   0.000958421626436 1
force Ag  -0.000162769208359   0.000267418110688   0.000902427492005 1

# Energy components:
   A_diel =       -0.0154022561420856
   Eewald =     5445.3037628160127497
       EH =     6779.9509365122157760
     Eloc =   -13933.2333100812993507
      Enl =       39.4664498187799708
     EvdW =       -0.1323720401601881
      Exc =     -144.8598726388771922
 Exc_core =        2.0817048462047794
       KE =      335.3557786787181385
  MuShift =       -0.0039068514734640
-------------------------------------
     Etot =    -1476.0862311960208899
       TS =        0.0002532702369679
-------------------------------------
        F =    -1476.0864844662578435
      muN =      -25.5644168871738735
-------------------------------------
        G =    -1450.5220675790840232


Dumping 'jdft.fillings' ... done
Dumping 'jdft.wfns' ... done
Dumping 'jdft.fluidState' ... done
Dumping 'jdft.ionpos' ... done
Dumping 'jdft.lattice' ... done
Dumping 'jdft.eigenvals' ... done
Dumping 'jdft.eigStats' ... 
	eMin: -3.516831 at state 0 ( [ +0.000000 +0.000000 +0.000000 ] spin 1 )
	HOMO: -0.135305 at state 21 ( [ +0.333333 +0.428571 +0.000000 ] spin 1 )
	mu  : -0.134500
	LUMO: -0.133935 at state 24 ( [ +0.333333 -0.142857 +0.000000 ] spin 1 )
	eMax: +0.156610 at state 1 ( [ +0.000000 +0.142857 +0.000000 ] spin 1 )
	HOMO-LUMO gap: +0.001371
	Optical gap  : +0.005450 at state 31 ( [ +0.444444 -0.142857 +0.000000 ] spin 1 )
Dumping 'jdft.Ecomponents' ... done
IonicMinimize: Iter:   0  G: -1450.522067579084023  |grad|_K:  1.081e-03  t[s]:   2065.75

#--- Lowdin population analysis ---
# oxidation-state Ag -0.069 +0.001 -0.030 -0.042 +0.132 -0.030 +0.001 -0.069 +0.132 -0.042
# magnetic-moments Ag +0.000 +0.000 +0.000 -0.000 -0.000 +0.000 +0.000 +0.000 -0.000 -0.000


Computing DFT-D3 correction:
# coordination-number Ag 8.163 8.803 8.881 6.764 4.793 8.883 8.802 8.161 4.793 6.767
# diagonal-C6 Ag 268.61 268.61 268.61 268.61 268.61 268.61 268.61 268.61 268.61 268.61
EvdW_6 =   -0.054354
EvdW_8 =   -0.078019
Shifting auxilliary hamiltonian by 0.000002 to set nElectrons=190.070014

-------- Electronic minimization -----------
	Linear fluid (dielectric constant: 78.4, screening length: 8.12261 Bohr) occupying 0.494176 of unit cell:	Completed after 10 iterations at t[s]:   2078.44
	FillingsUpdate:  mu: -0.134500000  nElectrons: 190.070014  magneticMoment: [ Abs: 0.00000  Tot: +0.00000 ]
ElecMinimize: Iter:   0  G: -1450.522070014178098  |grad|_K:  1.639e-07  alpha:  1.000e+00
	Linear fluid (dielectric constant: 78.4, screening length: 8.12261 Bohr) occupying 0.494328 of unit cell:	Completed after 12 iterations at t[s]:   2105.98
	Linear fluid (dielectric constant: 78.4, screening length: 8.12261 Bohr) occupying 0.494191 of unit cell:	Completed after 13 iterations at t[s]:   2116.15
	FillingsUpdate:  mu: -0.134500000  nElectrons: 190.070903  magneticMoment: [ Abs: 0.00000  Tot: +0.00000 ]
	SubspaceRotationAdjust: set factor to 0.447
ElecMinimize: Iter:   1  G: -1450.522070299633697  |grad|_K:  1.651e-07  alpha:  1.082e-01  linmin:  3.222e-06  t[s]:   2130.60
	Linear fluid (dielectric constant: 78.4, screening length: 8.12261 Bohr) occupying 0.494184 of unit cell:	Completed after 8 iterations at t[s]:   2141.91
	Linear fluid (dielectric constant: 78.4, screening length: 8.12261 Bohr) occupying 0.494179 of unit cell:	Completed after 7 iterations at t[s]:   2151.53
	FillingsUpdate:  mu: -0.134500000  nElectrons: 190.070212  magneticMoment: [ Abs: 0.00000  Tot: +0.00000 ]
	SubspaceRotationAdjust: set factor to 0.711
ElecMinimize: Iter:   2  G: -1450.522070853073046  |grad|_K:  6.519e-08  alpha:  1.854e-01  linmin: -9.250e-05  t[s]:   2166.02
	Linear fluid (dielectric constant: 78.4, screening length: 8.12261 Bohr) occupying 0.494176 of unit cell:	Completed after 7 iterations at t[s]:   2177.27
	Linear fluid (dielectric constant: 78.4, screening length: 8.12261 Bohr) occupying 0.494173 of unit cell:	Completed after 8 iterations at t[s]:   2187.02
	FillingsUpdate:  mu: -0.134500000  nElectrons: 190.069906  magneticMoment: [ Abs: 0.00000  Tot: +0.00000 ]
	SubspaceRotationAdjust: set factor to 0.445
ElecMinimize: Iter:   3  G: -1450.522071047743793  |grad|_K:  1.020e-07  alpha:  4.180e-01  linmin:  4.500e-05  t[s]:   2201.38
	Linear fluid (dielectric constant: 78.4, screening length: 8.12261 Bohr) occupying 0.494219 of unit cell:	Completed after 10 iterations at t[s]:   2212.92
	Linear fluid (dielectric constant: 78.4, screening length: 8.12261 Bohr) occupying 0.494180 of unit cell:	Completed after 10 iterations at t[s]:   2222.93
	FillingsUpdate:  mu: -0.134500000  nElectrons: 190.070327  magneticMoment: [ Abs: 0.00000  Tot: +0.00000 ]
	SubspaceRotationAdjust: set factor to 0.421
ElecMinimize: Iter:   4  G: -1450.522071104923270  |grad|_K:  5.579e-08  alpha:  6.293e-02  linmin: -1.849e-06  t[s]:   2237.42
	Linear fluid (dielectric constant: 78.4, screening length: 8.12261 Bohr) occupying 0.494181 of unit cell:	Completed after 2 iterations at t[s]:   2248.16
	Linear fluid (dielectric constant: 78.4, screening length: 8.12261 Bohr) occupying 0.494182 of unit cell:	Completed after 3 iterations at t[s]:   2257.39
	FillingsUpdate:  mu: -0.134500000  nElectrons: 190.070476  magneticMoment: [ Abs: 0.00000  Tot: +0.00000 ]
	SubspaceRotationAdjust: set factor to 0.445
ElecMinimize: Iter:   5  G: -1450.522071144481060  |grad|_K:  4.634e-08  alpha:  1.025e-01  linmin: -1.614e-04  t[s]:   2271.77
ElecMinimize: Converged (|Delta G|<1.000000e-07 for 2 iters).
Setting wave functions to eigenvectors of Hamiltonian
Converging empty states (this may take a while): |deigs|: 4.948e-08

Computing DFT-D3 correction:
# coordination-number Ag 8.163 8.803 8.881 6.764 4.793 8.883 8.802 8.161 4.793 6.767
# diagonal-C6 Ag 268.61 268.61 268.61 268.61 268.61 268.61 268.61 268.61 268.61 268.61
EvdW_6 =   -0.054354
EvdW_8 =   -0.078019
IonicMinimize: 	Wolfe criterion not satisfied: alpha: 1  (E-E0)/|gdotd0|: -0.101676  gdotd/gdotd0: 0.926528 (taking cubic step)

Computing DFT-D3 correction:
# coordination-number Ag 8.164 8.803 8.880 6.765 4.792 8.881 8.803 8.162 4.792 6.766
# diagonal-C6 Ag 268.61 268.61 268.61 268.61 268.61 268.61 268.61 268.61 268.61 268.61
EvdW_6 =   -0.054354
EvdW_8 =   -0.078019
Shifting auxilliary hamiltonian by -0.000066 to set nElectrons=190.070476

-------- Electronic minimization -----------
	Linear fluid (dielectric constant: 78.4, screening length: 8.12261 Bohr) occupying 0.494142 of unit cell:	Completed after 10 iterations at t[s]:   2316.82
	FillingsUpdate:  mu: -0.134500000  nElectrons: 190.070476  magneticMoment: [ Abs: 0.00000  Tot: +0.00000 ]
ElecMinimize: Iter:   0  G: -1450.522067696858130  |grad|_K:  2.195e-07  alpha:  1.000e+00
	Linear fluid (dielectric constant: 78.4, screening length: 8.12261 Bohr) occupying 0.494375 of unit cell:	Completed after 18 iterations at t[s]:   2344.92
	Linear fluid (dielectric constant: 78.4, screening length: 8.12261 Bohr) occupying 0.494162 of unit cell:	Completed after 17 iterations at t[s]:   2355.56
	FillingsUpdate:  mu: -0.134500000  nElectrons: 190.071508  magneticMoment: [ Abs: 0.00000  Tot: +0.00000 ]
	SubspaceRotationAdjust: set factor to 0.289
ElecMinimize: Iter:   1  G: -1450.522068154637054  |grad|_K:  1.129e-07  alpha:  9.115e-02  linmin:  3.553e-04  t[s]:   2370.07
	Linear fluid (dielectric constant: 78.4, screening length: 8.12261 Bohr) occupying 0.494158 of unit cell:	Completed after 7 iterations at t[s]:   2381.31
ElecMinimize: 	Predicted alpha/alphaT>3.000000, increasing alphaT to 2.734495e-01.
	Linear fluid (dielectric constant: 78.4, screening length: 8.12261 Bohr) occupying 0.494150 of unit cell:	Completed after 8 iterations at t[s]:   2391.07
	Linear fluid (dielectric constant: 78.4, screening length: 8.12261 Bohr) occupying 0.494150 of unit cell:	Completed after 1 iterations at t[s]:   2400.03
	FillingsUpdate:  mu: -0.134500000  nElectrons: 190.070592  magneticMoment: [ Abs: 0.00000  Tot: -0.00000 ]
	SubspaceRotationAdjust: set factor to 0.214
ElecMinimize: Iter:   2  G: -1450.522068527541251  |grad|_K:  5.902e-08  alpha:  2.796e-01  linmin:  2.557e-03  t[s]:   2414.51
	Linear fluid (dielectric constant: 78.4, screening length: 8.12261 Bohr) occupying 0.494149 of unit cell:	Completed after 6 iterations at t[s]:   2425.65
	Linear fluid (dielectric constant: 78.4, screening length: 8.12261 Bohr) occupying 0.494149 of unit cell:	Completed after 5 iterations at t[s]:   2435.07
	FillingsUpdate:  mu: -0.134500000  nElectrons: 190.070336  magneticMoment: [ Abs: 0.00000  Tot: -0.00000 ]
	SubspaceRotationAdjust: set factor to 0.264
ElecMinimize: Iter:   3  G: -1450.522068690865581  |grad|_K:  4.109e-08  alpha:  4.798e-01  linmin:  2.131e-03  t[s]:   2449.54
	Linear fluid (dielectric constant: 78.4, screening length: 8.12261 Bohr) occupying 0.494151 of unit cell:	Completed after 5 iterations at t[s]:   2460.51
	Linear fluid (dielectric constant: 78.4, screening length: 8.12261 Bohr) occupying 0.494151 of unit cell:	Completed after 2 iterations at t[s]:   2469.62
	FillingsUpdate:  mu: -0.134500000  nElectrons: 190.070308  magneticMoment: [ Abs: 0.00000  Tot: -0.00000 ]
	SubspaceRotationAdjust: set factor to 0.305
ElecMinimize: Iter:   4  G: -1450.522068759947388  |grad|_K:  3.162e-08  alpha:  4.079e-01  linmin:  1.778e-03  t[s]:   2484.12
	Linear fluid (dielectric constant: 78.4, screening length: 8.12261 Bohr) occupying 0.494153 of unit cell:	Completed after 1 iterations at t[s]:   2494.79
	Linear fluid (dielectric constant: 78.4, screening length: 8.12261 Bohr) occupying 0.494153 of unit cell:	Completed after 0 iterations at t[s]:   2503.62
	FillingsUpdate:  mu: -0.134500000  nElectrons: 190.070322  magneticMoment: [ Abs: 0.00000  Tot: -0.00000 ]
	SubspaceRotationAdjust: set factor to 0.403
ElecMinimize: Iter:   5  G: -1450.522068800042234  |grad|_K:  1.941e-08  alpha:  3.965e-01  linmin: -2.973e-03  t[s]:   2518.12
ElecMinimize: Converged (|Delta G|<1.000000e-07 for 2 iters).
Setting wave functions to eigenvectors of Hamiltonian
Converging empty states (this may take a while): |deigs|: 4.109e-09

Computing DFT-D3 correction:
# coordination-number Ag 8.164 8.803 8.880 6.765 4.792 8.881 8.803 8.162 4.792 6.766
# diagonal-C6 Ag 268.61 268.61 268.61 268.61 268.61 268.61 268.61 268.61 268.61 268.61
EvdW_6 =   -0.054354
EvdW_8 =   -0.078019
IonicMinimize: 	Wolfe criterion not satisfied: alpha: 0.254687  (E-E0)/|gdotd0|: -0.0348185  gdotd/gdotd0: 1.02412 (taking cubic step)

Computing DFT-D3 correction:
# coordination-number Ag 8.164 8.803 8.880 6.765 4.792 8.882 8.803 8.162 4.792 6.766
# diagonal-C6 Ag 268.61 268.61 268.61 268.61 268.61 268.61 268.61 268.61 268.61 268.61
EvdW_6 =   -0.054354
EvdW_8 =   -0.078019
Shifting auxilliary hamiltonian by 0.000002 to set nElectrons=190.070322

-------- Electronic minimization -----------
	Linear fluid (dielectric constant: 78.4, screening length: 8.12261 Bohr) occupying 0.494163 of unit cell:	Completed after 6 iterations at t[s]:   2562.68
	FillingsUpdate:  mu: -0.134500000  nElectrons: 190.070322  magneticMoment: [ Abs: 0.00000  Tot: -0.00000 ]
ElecMinimize: Iter:   0  G: -1450.522069518886155  |grad|_K:  3.725e-08  alpha:  1.000e+00
	Linear fluid (dielectric constant: 78.4, screening length: 8.12261 Bohr) occupying 0.494174 of unit cell:	Completed after 10 iterations at t[s]:   2590.04
	Linear fluid (dielectric constant: 78.4, screening length: 8.12261 Bohr) occupying 0.494166 of unit cell:	Completed after 10 iterations at t[s]:   2599.94
	FillingsUpdate:  mu: -0.134500000  nElectrons: 190.070448  magneticMoment: [ Abs: 0.00000  Tot: -0.00000 ]
	SubspaceRotationAdjust: set factor to 0.261
ElecMinimize: Iter:   1  G: -1450.522069547125511  |grad|_K:  3.090e-08  alpha:  2.266e-01  linmin: -1.029e-03  t[s]:   2614.48
	Linear fluid (dielectric constant: 78.4, screening length: 8.12261 Bohr) occupying 0.494160 of unit cell:	Completed after 8 iterations at t[s]:   2625.81
	Linear fluid (dielectric constant: 78.4, screening length: 8.12261 Bohr) occupying 0.494163 of unit cell:	Completed after 8 iterations at t[s]:   2635.51
	FillingsUpdate:  mu: -0.134500000  nElectrons: 190.070290  magneticMoment: [ Abs: 0.00000  Tot: -0.00000 ]
	SubspaceRotationAdjust: set factor to 0.16
ElecMinimize: Iter:   2  G: -1450.522069555277767  |grad|_K:  1.483e-08  alpha:  1.012e-01  linmin:  2.250e-05  t[s]:   2650.02
ElecMinimize: Converged (|Delta G|<1.000000e-07 for 2 iters).
Setting wave functions to eigenvectors of Hamiltonian
Converging empty states (this may take a while): |deigs|: 1.282e-09

Computing DFT-D3 correction:
# coordination-number Ag 8.164 8.803 8.880 6.765 4.792 8.882 8.803 8.162 4.792 6.766
# diagonal-C6 Ag 268.61 268.61 268.61 268.61 268.61 268.61 268.61 268.61 268.61 268.61
EvdW_6 =   -0.054354
EvdW_8 =   -0.078019
IonicMinimize: 	Wolfe criterion not satisfied: alpha: 0.441937  (E-E0)/|gdotd0|: -0.0563558  gdotd/gdotd0: 0.970523 (taking cubic step)

Computing DFT-D3 correction:
# coordination-number Ag 8.164 8.803 8.880 6.765 4.792 8.882 8.802 8.162 4.792 6.766
# diagonal-C6 Ag 268.61 268.61 268.61 268.61 268.61 268.61 268.61 268.61 268.61 268.61
EvdW_6 =   -0.054354
EvdW_8 =   -0.078019
Shifting auxilliary hamiltonian by 0.000015 to set nElectrons=190.070290

-------- Electronic minimization -----------
	Linear fluid (dielectric constant: 78.4, screening length: 8.12261 Bohr) occupying 0.494173 of unit cell:	Completed after 8 iterations at t[s]:   2694.77
	FillingsUpdate:  mu: -0.134500000  nElectrons: 190.070290  magneticMoment: [ Abs: 0.00000  Tot: -0.00000 ]
ElecMinimize: Iter:   0  G: -1450.522069926370932  |grad|_K:  5.522e-08  alpha:  1.000e+00
	Linear fluid (dielectric constant: 78.4, screening length: 8.12261 Bohr) occupying 0.494159 of unit cell:	Completed after 14 iterations at t[s]:   2722.47
	Linear fluid (dielectric constant: 78.4, screening length: 8.12261 Bohr) occupying 0.494169 of unit cell:	Completed after 10 iterations at t[s]:   2732.47
	FillingsUpdate:  mu: -0.134500000  nElectrons: 190.070073  magneticMoment: [ Abs: 0.00000  Tot: +0.00000 ]
	SubspaceRotationAdjust: set factor to 0.141
ElecMinimize: Iter:   1  G: -1450.522070013606708  |grad|_K:  2.711e-08  alpha:  2.746e-01  linmin: -1.078e-04  t[s]:   2746.90
	Linear fluid (dielectric constant: 78.4, screening length: 8.12261 Bohr) occupying 0.494171 of unit cell:	Completed after 7 iterations at t[s]:   2758.09
	Linear fluid (dielectric constant: 78.4, screening length: 8.12261 Bohr) occupying 0.494171 of unit cell:	Completed after 2 iterations at t[s]:   2767.24
	FillingsUpdate:  mu: -0.134500000  nElectrons: 190.070187  magneticMoment: [ Abs: 0.00000  Tot: -0.00000 ]
	SubspaceRotationAdjust: set factor to 0.187
ElecMinimize: Iter:   2  G: -1450.522070027777090  |grad|_K:  1.162e-08  alpha:  2.063e-01  linmin: -1.035e-02  t[s]:   2781.67
ElecMinimize: Converged (|Delta G|<1.000000e-07 for 2 iters).
Setting wave functions to eigenvectors of Hamiltonian
Converging empty states (this may take a while): |deigs|: 6.523e-10

Computing DFT-D3 correction:
# coordination-number Ag 8.164 8.803 8.880 6.765 4.792 8.882 8.802 8.162 4.792 6.766
# diagonal-C6 Ag 268.61 268.61 268.61 268.61 268.61 268.61 268.61 268.61 268.61 268.61
EvdW_6 =   -0.054354
EvdW_8 =   -0.078019
IonicMinimize: 	Wolfe criterion not satisfied: alpha: 0.578075  (E-E0)/|gdotd0|: -0.0698302  gdotd/gdotd0: 0.961898 (taking cubic step)

Computing DFT-D3 correction:
# coordination-number Ag 8.164 8.803 8.881 6.765 4.792 8.882 8.802 8.162 4.793 6.766
# diagonal-C6 Ag 268.61 268.61 268.61 268.61 268.61 268.61 268.61 268.61 268.61 268.61
EvdW_6 =   -0.054354
EvdW_8 =   -0.078019
Shifting auxilliary hamiltonian by -0.000003 to set nElectrons=190.070187

-------- Electronic minimization -----------
	Linear fluid (dielectric constant: 78.4, screening length: 8.12261 Bohr) occupying 0.494168 of unit cell:	Completed after 8 iterations at t[s]:   2826.55
	FillingsUpdate:  mu: -0.134500000  nElectrons: 190.070187  magneticMoment: [ Abs: 0.00000  Tot: -0.00000 ]
ElecMinimize: Iter:   0  G: -1450.522070290027159  |grad|_K:  5.036e-08  alpha:  1.000e+00
	Linear fluid (dielectric constant: 78.4, screening length: 8.12261 Bohr) occupying 0.494194 of unit cell:	Completed after 13 iterations at t[s]:   2854.14
	Linear fluid (dielectric constant: 78.4, screening length: 8.12261 Bohr) occupying 0.494173 of unit cell:	Completed after 10 iterations at t[s]:   2864.08
	FillingsUpdate:  mu: -0.134500000  nElectrons: 190.070479  magneticMoment: [ Abs: 0.00000  Tot: -0.00000 ]
	SubspaceRotationAdjust: set factor to 0.126
ElecMinimize: Iter:   1  G: -1450.522070338817230  |grad|_K:  2.369e-08  alpha:  1.947e-01  linmin: -1.427e-03  t[s]:   2878.58
	Linear fluid (dielectric constant: 78.4, screening length: 8.12261 Bohr) occupying 0.494172 of unit cell:	Completed after 5 iterations at t[s]:   2889.60
	Linear fluid (dielectric constant: 78.4, screening length: 8.12261 Bohr) occupying 0.494172 of unit cell:	Completed after 2 iterations at t[s]:   2898.83
	FillingsUpdate:  mu: -0.134500000  nElectrons: 190.070387  magneticMoment: [ Abs: 0.00000  Tot: -0.00000 ]
	SubspaceRotationAdjust: set factor to 0.187
ElecMinimize: Iter:   2  G: -1450.522070355949154  |grad|_K:  9.606e-09  alpha:  2.623e-01  linmin: -1.435e-02  t[s]:   2913.29
ElecMinimize: Converged (|Delta G|<1.000000e-07 for 2 iters).
Setting wave functions to eigenvectors of Hamiltonian
Converging empty states (this may take a while): |deigs|: 5.048e-10

Computing DFT-D3 correction:
# coordination-number Ag 8.164 8.803 8.881 6.765 4.792 8.882 8.802 8.162 4.793 6.766
# diagonal-C6 Ag 268.61 268.61 268.61 268.61 268.61 268.61 268.61 268.61 268.61 268.61
EvdW_6 =   -0.054354
EvdW_8 =   -0.078019

# Ionic positions in cartesian coordinates:
ion Ag   3.837176114920126   1.715811793264263  13.037648322179704 1
ion Ag   0.001316155628676   3.404911906200511   9.426146990519285 1
ion Ag   3.831154039046833   5.173651287721651   5.970505113354793 1
ion Ag  -0.003681198599071   6.911510902881935   2.407749358542782 1
ion Ag   0.007006225459485  -0.075849026834468  16.314266867755443 1
ion Ag   3.836547526794820   6.824388455879438  11.171321293865969 1
ion Ag   3.832069845285733   0.023620449004177   7.715116482893868 1
ion Ag  -0.006352033658597   1.711942215516760   4.102752688310654 1
ion Ag   3.825017879376821   3.504897340713607   0.826699972208166 1
ion Ag   0.003916445745177   5.087020675652124  14.732638910369332 1

# Forces in Cartesian coordinates:
force Ag   0.000062273194780  -0.000288905219946   0.000223362811764 1
force Ag   0.003711508134285   0.002527941794889   0.001018634506879 1
force Ag   0.001916438204192   0.000590913587729   0.000743050626057 1
force Ag  -0.000071076834656  -0.000228802794413  -0.001052134545937 1
force Ag  -0.000094737071774  -0.000315555912337  -0.000952858822919 1
force Ag   0.000759150858557  -0.001064617090034  -0.000099280814479 1
force Ag  -0.001153340517817  -0.000830300540537  -0.000414874182129 1
force Ag   0.000110378442050   0.000194243673766  -0.000180076930808 1
force Ag   0.000167449827477   0.000374646610918   0.001106811669492 1
force Ag  -0.000153065717148   0.000287829339958   0.001131163630198 1

# Energy components:
   A_diel =       -0.0154816282611879
   Eewald =     5445.3684594692949759
       EH =     6780.0171423302699623
     Eloc =   -13933.3639713121465320
      Enl =       39.4662884063092179
     EvdW =       -0.1323725388705396
      Exc =     -144.8598931502440621
 Exc_core =        2.0817048444658273
       KE =      335.3557668517680099
  MuShift =       -0.0039276845864492
-------------------------------------
     Etot =    -1476.0862844119999409
       TS =        0.0002530462583048
-------------------------------------
        F =    -1476.0865374582581353
      muN =      -25.5644671023089494
-------------------------------------
        G =    -1450.5220703559491540


Dumping 'jdft.fillings' ... done
Dumping 'jdft.wfns' ... done
Dumping 'jdft.fluidState' ... done
Dumping 'jdft.ionpos' ... done
Dumping 'jdft.lattice' ... done
Dumping 'jdft.eigenvals' ... done
Dumping 'jdft.eigStats' ... 
	eMin: -3.516838 at state 32 ( [ +0.000000 +0.000000 +0.000000 ] spin -1 )
	HOMO: -0.135282 at state 21 ( [ +0.333333 +0.428571 +0.000000 ] spin 1 )
	mu  : -0.134500
	LUMO: -0.133918 at state 24 ( [ +0.333333 -0.142857 +0.000000 ] spin 1 )
	eMax: +0.156626 at state 1 ( [ +0.000000 +0.142857 +0.000000 ] spin 1 )
	HOMO-LUMO gap: +0.001364
	Optical gap  : +0.005450 at state 31 ( [ +0.444444 -0.142857 +0.000000 ] spin 1 )
Dumping 'jdft.Ecomponents' ... done
IonicMinimize: Iter:   1  G: -1450.522070355949154  |grad|_K:  1.028e-03  alpha:  6.797e-01  linmin: -9.496e-01  t[s]:   2946.18

#--- Lowdin population analysis ---
# oxidation-state Ag -0.069 +0.001 -0.030 -0.042 +0.132 -0.030 +0.001 -0.069 +0.132 -0.042
# magnetic-moments Ag -0.000 -0.000 -0.000 +0.000 +0.000 -0.000 -0.000 +0.000 +0.000 +0.000


Computing DFT-D3 correction:
# coordination-number Ag 8.121 8.744 8.884 6.744 4.855 8.879 8.738 8.121 4.865 6.756
# diagonal-C6 Ag 268.61 268.61 268.61 268.61 268.61 268.61 268.61 268.61 268.61 268.61
EvdW_6 =   -0.054328
EvdW_8 =   -0.078005
Shifting auxilliary hamiltonian by -0.000019 to set nElectrons=190.070387

-------- Electronic minimization -----------
	Linear fluid (dielectric constant: 78.4, screening length: 8.12261 Bohr) occupying 0.494014 of unit cell:	Completed after 20 iterations at t[s]:   2958.97
	FillingsUpdate:  mu: -0.134500000  nElectrons: 190.070387  magneticMoment: [ Abs: 0.00001  Tot: +0.00001 ]
ElecMinimize: Iter:   0  G: -1449.893455750050407  |grad|_K:  1.394e-04  alpha:  1.000e+00
	Linear fluid (dielectric constant: 78.4, screening length: 8.12261 Bohr) occupying 0.493301 of unit cell:	Completed after 22 iterations at t[s]:   2987.52
	Linear fluid (dielectric constant: 78.4, screening length: 8.12261 Bohr) occupying 0.493608 of unit cell:	Completed after 22 iterations at t[s]:   2998.68
	FillingsUpdate:  mu: -0.134500000  nElectrons: 190.020016  magneticMoment: [ Abs: 0.00001  Tot: +0.00000 ]
	SubspaceRotationAdjust: set factor to 0.188
ElecMinimize: Iter:   1  G: -1450.448598953025567  |grad|_K:  4.483e-05  alpha:  2.801e-01  linmin:  6.582e-03  t[s]:   3013.20
	Linear fluid (dielectric constant: 78.4, screening length: 8.12261 Bohr) occupying 0.495777 of unit cell:	Completed after 17 iterations at t[s]:   3025.39
	Linear fluid (dielectric constant: 78.4, screening length: 8.12261 Bohr) occupying 0.495406 of unit cell:	Completed after 14 iterations at t[s]:   3035.69
	FillingsUpdate:  mu: -0.134500000  nElectrons: 190.122629  magneticMoment: [ Abs: 0.00001  Tot: +0.00001 ]
	SubspaceRotationAdjust: set factor to 0.182
ElecMinimize: Iter:   2  G: -1450.500818421906388  |grad|_K:  1.381e-05  alpha:  2.544e-01  linmin: -9.616e-04  t[s]:   3050.11
	Linear fluid (dielectric constant: 78.4, screening length: 8.12261 Bohr) occupying 0.494251 of unit cell:	Completed after 14 iterations at t[s]:   3062.03
	Linear fluid (dielectric constant: 78.4, screening length: 8.12261 Bohr) occupying 0.493953 of unit cell:	Completed after 15 iterations at t[s]:   3072.43
	FillingsUpdate:  mu: -0.134500000  nElectrons: 190.062281  magneticMoment: [ Abs: 0.00001  Tot: +0.00000 ]
	SubspaceRotationAdjust: set factor to 0.192
ElecMinimize: Iter:   3  G: -1450.508136012799469  |grad|_K:  8.910e-06  alpha:  3.619e-01  linmin:  4.112e-04  t[s]:   3086.95
	Linear fluid (dielectric constant: 78.4, screening length: 8.12261 Bohr) occupying 0.494782 of unit cell:	Completed after 14 iterations at t[s]:   3098.87
	Linear fluid (dielectric constant: 78.4, screening length: 8.12261 Bohr) occupying 0.494986 of unit cell:	Completed after 13 iterations at t[s]:   3109.00
	FillingsUpdate:  mu: -0.134500000  nElectrons: 190.104119  magneticMoment: [ Abs: 0.00001  Tot: +0.00001 ]
	SubspaceRotationAdjust: set factor to 0.216
ElecMinimize: Iter:   4  G: -1450.511704574954365  |grad|_K:  7.702e-06  alpha:  4.304e-01  linmin: -1.669e-04  t[s]:   3123.53
	Linear fluid (dielectric constant: 78.4, screening length: 8.12261 Bohr) occupying 0.494444 of unit cell:	Completed after 14 iterations at t[s]:   3135.43
	Linear fluid (dielectric constant: 78.4, screening length: 8.12261 Bohr) occupying 0.494300 of unit cell:	Completed after 14 iterations at t[s]:   3145.74
	FillingsUpdate:  mu: -0.134500000  nElectrons: 190.063251  magneticMoment: [ Abs: 0.00000  Tot: +0.00000 ]
	SubspaceRotationAdjust: set factor to 0.24
ElecMinimize: Iter:   5  G: -1450.515502573929780  |grad|_K:  7.093e-06  alpha:  5.976e-01  linmin:  9.329e-05  t[s]:   3160.25
	Linear fluid (dielectric constant: 78.4, screening length: 8.12261 Bohr) occupying 0.495011 of unit cell:	Completed after 15 iterations at t[s]:   3172.18
	Linear fluid (dielectric constant: 78.4, screening length: 8.12261 Bohr) occupying 0.494880 of unit cell:	Completed after 12 iterations at t[s]:   3182.38
	FillingsUpdate:  mu: -0.134500000  nElectrons: 190.084166  magneticMoment: [ Abs: 0.00000  Tot: +0.00000 ]
	SubspaceRotationAdjust: set factor to 0.255
ElecMinimize: Iter:   6  G: -1450.518057823969684  |grad|_K:  6.442e-06  alpha:  4.919e-01  linmin: -2.786e-05  t[s]:   3196.92
	Linear fluid (dielectric constant: 78.4, screening length: 8.12261 Bohr) occupying 0.494479 of unit cell:	Completed after 15 iterations at t[s]:   3208.97
	Linear fluid (dielectric constant: 78.4, screening length: 8.12261 Bohr) occupying 0.494507 of unit cell:	Completed after 12 iterations at t[s]:   3219.17
	FillingsUpdate:  mu: -0.134500000  nElectrons: 190.052959  magneticMoment: [ Abs: 0.00000  Tot: +0.00000 ]
	SubspaceRotationAdjust: set factor to 0.228
ElecMinimize: Iter:   7  G: -1450.519991860367099  |grad|_K:  5.307e-06  alpha:  4.352e-01  linmin:  5.893e-05  t[s]:   3233.74
	Linear fluid (dielectric constant: 78.4, screening length: 8.12261 Bohr) occupying 0.495436 of unit cell:	Completed after 14 iterations at t[s]:   3245.71
	Linear fluid (dielectric constant: 78.4, screening length: 8.12261 Bohr) occupying 0.495116 of unit cell:	Completed after 14 iterations at t[s]:   3256.04
	FillingsUpdate:  mu: -0.134500000  nElectrons: 190.085981  magneticMoment: [ Abs: 0.00000  Tot: +0.00000 ]
	SubspaceRotationAdjust: set factor to 0.158
ElecMinimize: Iter:   8  G: -1450.520899304399791  |grad|_K:  3.829e-06  alpha:  3.145e-01  linmin: -3.002e-05  t[s]:   3270.38
	Linear fluid (dielectric constant: 78.4, screening length: 8.12261 Bohr) occupying 0.494729 of unit cell:	Completed after 14 iterations at t[s]:   3282.00
	Linear fluid (dielectric constant: 78.4, screening length: 8.12261 Bohr) occupying 0.494747 of unit cell:	Completed after 11 iterations at t[s]:   3291.60
	FillingsUpdate:  mu: -0.134500000  nElectrons: 190.067354  magneticMoment: [ Abs: 0.00000  Tot: +0.00000 ]
	SubspaceRotationAdjust: set factor to 0.116
ElecMinimize: Iter:   9  G: -1450.521363042596931  |grad|_K:  2.155e-06  alpha:  2.972e-01  linmin:  4.605e-05  t[s]:   3305.27
	Linear fluid (dielectric constant: 78.4, screening length: 8.12261 Bohr) occupying 0.494746 of unit cell:	Completed after 10 iterations at t[s]:   3316.59
	Linear fluid (dielectric constant: 78.4, screening length: 8.12261 Bohr) occupying 0.494746 of unit cell:	Completed after 10 iterations at t[s]:   3326.51
	FillingsUpdate:  mu: -0.134500000  nElectrons: 190.069515  magneticMoment: [ Abs: 0.00000  Tot: +0.00000 ]
	SubspaceRotationAdjust: set factor to 0.127
ElecMinimize: Iter:  10  G: -1450.521568776899130  |grad|_K:  1.426e-06  alpha:  4.223e-01  linmin:  2.361e-05  t[s]:   3340.99
	Linear fluid (dielectric constant: 78.4, screening length: 8.12261 Bohr) occupying 0.494804 of unit cell:	Completed after 13 iterations at t[s]:   3352.79
	Linear fluid (dielectric constant: 78.4, screening length: 8.12261 Bohr) occupying 0.494792 of unit cell:	Completed after 10 iterations at t[s]:   3362.63
	FillingsUpdate:  mu: -0.134500000  nElectrons: 190.074041  magneticMoment: [ Abs: 0.00000  Tot: +0.00000 ]
	SubspaceRotationAdjust: set factor to 0.118
ElecMinimize: Iter:  11  G: -1450.521642510421998  |grad|_K:  7.979e-07  alpha:  3.442e-01  linmin: -5.380e-05  t[s]:   3377.11
	Linear fluid (dielectric constant: 78.4, screening length: 8.12261 Bohr) occupying 0.494749 of unit cell:	Completed after 11 iterations at t[s]:   3388.73
	Linear fluid (dielectric constant: 78.4, screening length: 8.12261 Bohr) occupying 0.494742 of unit cell:	Completed after 8 iterations at t[s]:   3398.46
	FillingsUpdate:  mu: -0.134500000  nElectrons: 190.072600  magneticMoment: [ Abs: 0.00000  Tot: +0.00000 ]
	SubspaceRotationAdjust: set factor to 0.115
ElecMinimize: Iter:  12  G: -1450.521669127348105  |grad|_K:  4.778e-07  alpha:  3.947e-01  linmin:  1.883e-04  t[s]:   3412.91
	Linear fluid (dielectric constant: 78.4, screening length: 8.12261 Bohr) occupying 0.494736 of unit cell:	Completed after 8 iterations at t[s]:   3424.22
[...]
	Linear fluid (dielectric constant: 78.4, screening length: 8.12261 Bohr) occupying 0.494740 of unit cell:	Completed after 7 iterations at t[s]:   3670.24
	Linear fluid (dielectric constant: 78.4, screening length: 8.12261 Bohr) occupying 0.494739 of unit cell:	Completed after 2 iterations at t[s]:   3679.45
	FillingsUpdate:  mu: -0.134500000  nElectrons: 190.073798  magneticMoment: [ Abs: 0.00005  Tot: +0.00002 ]
	SubspaceRotationAdjust: set factor to 0.229
ElecMinimize: Iter:  20  G: -1450.521690380638347  |grad|_K:  7.644e-08  alpha:  3.277e-01  linmin: -4.810e-04  t[s]:   3693.85
	Linear fluid (dielectric constant: 78.4, screening length: 8.12261 Bohr) occupying 0.494737 of unit cell:	Completed after 7 iterations at t[s]:   3704.96
	Linear fluid (dielectric constant: 78.4, screening length: 8.12261 Bohr) occupying 0.494736 of unit cell:	Completed after 2 iterations at t[s]:   3714.07
	FillingsUpdate:  mu: -0.134500000  nElectrons: 190.073522  magneticMoment: [ Abs: 0.00006  Tot: +0.00002 ]
	SubspaceRotationAdjust: set factor to 0.227
ElecMinimize: Iter:  21  G: -1450.521690667879284  |grad|_K:  6.672e-08  alpha:  4.222e-01  linmin:  2.258e-04  t[s]:   3728.55
	Linear fluid (dielectric constant: 78.4, screening length: 8.12261 Bohr) occupying 0.494745 of unit cell:	Completed after 9 iterations at t[s]:   3739.94
	Linear fluid (dielectric constant: 78.4, screening length: 8.12261 Bohr) occupying 0.494743 of unit cell:	Completed after 7 iterations at t[s]:   3749.58
	FillingsUpdate:  mu: -0.134500000  nElectrons: 190.073829  magneticMoment: [ Abs: 0.00006  Tot: +0.00002 ]
	SubspaceRotationAdjust: set factor to 0.185
ElecMinimize: Iter:  22  G: -1450.521690803671845  |grad|_K:  4.834e-08  alpha:  2.993e-01  linmin:  1.509e-04  t[s]:   3763.97
	Linear fluid (dielectric constant: 78.4, screening length: 8.12261 Bohr) occupying 0.494741 of unit cell:	Completed after 7 iterations at t[s]:   3775.20
	Linear fluid (dielectric constant: 78.4, screening length: 8.12261 Bohr) occupying 0.494741 of unit cell:	Completed after 0 iterations at t[s]:   3784.03
	FillingsUpdate:  mu: -0.134500000  nElectrons: 190.073687  magneticMoment: [ Abs: 0.00003  Tot: +0.00002 ]
	SubspaceRotationAdjust: set factor to 0.202
ElecMinimize: Iter:  23  G: -1450.521690877863421  |grad|_K:  3.260e-08  alpha:  3.076e-01  linmin: -5.651e-05  t[s]:   3798.49
	Linear fluid (dielectric constant: 78.4, screening length: 8.12261 Bohr) occupying 0.494740 of unit cell:	Completed after 2 iterations at t[s]:   3809.22
	Linear fluid (dielectric constant: 78.4, screening length: 8.12261 Bohr) occupying 0.494740 of unit cell:	Completed after 0 iterations at t[s]:   3818.09
	FillingsUpdate:  mu: -0.134500000  nElectrons: 190.073608  magneticMoment: [ Abs: 0.00003  Tot: +0.00002 ]
	SubspaceRotationAdjust: set factor to 0.237
ElecMinimize: Iter:  24  G: -1450.521690921433674  |grad|_K:  2.404e-08  alpha:  3.865e-01  linmin:  3.106e-04  t[s]:   3832.45
ElecMinimize: Converged (|Delta G|<1.000000e-07 for 2 iters).
Setting wave functions to eigenvectors of Hamiltonian
Converging empty states (this may take a while): |deigs|: 1.378e-06

Computing DFT-D3 correction:
# coordination-number Ag 8.121 8.744 8.884 6.744 4.855 8.879 8.738 8.121 4.865 6.756
# diagonal-C6 Ag 268.61 268.61 268.61 268.61 268.61 268.61 268.61 268.61 268.61 268.61
EvdW_6 =   -0.054328
EvdW_8 =   -0.078005
IonicMinimize: 	Wolfe criterion not satisfied: alpha: 1  (E-E0)/|gdotd0|: 0.517368  gdotd/gdotd0: -1.05967 (taking cubic step)

Computing DFT-D3 correction:
# coordination-number Ag 8.154 8.793 8.882 6.760 4.807 8.883 8.789 8.153 4.810 6.764
# diagonal-C6 Ag 268.61 268.61 268.61 268.61 268.61 268.61 268.61 268.61 268.61 268.61
EvdW_6 =   -0.054348
EvdW_8 =   -0.078009
Shifting auxilliary hamiltonian by 0.000017 to set nElectrons=190.073608

-------- Electronic minimization -----------
	Linear fluid (dielectric constant: 78.4, screening length: 8.12261 Bohr) occupying 0.494454 of unit cell:	Completed after 14 iterations at t[s]:   3884.58
	FillingsUpdate:  mu: -0.134500000  nElectrons: 190.073608  magneticMoment: [ Abs: 0.00131  Tot: +0.00001 ]
ElecMinimize: Iter:   0  G: -1450.521713278114930  |grad|_K:  2.105e-06  alpha:  1.000e+00
	Linear fluid (dielectric constant: 78.4, screening length: 8.12261 Bohr) occupying 0.494454 of unit cell:	Completed after 18 iterations at t[s]:   3912.73
	Linear fluid (dielectric constant: 78.4, screening length: 8.12261 Bohr) occupying 0.494454 of unit cell:	Completed after 16 iterations at t[s]:   3923.24
	FillingsUpdate:  mu: -0.134500000  nElectrons: 190.073731  magneticMoment: [ Abs: 0.00063  Tot: +0.00001 ]
	SubspaceRotationAdjust: set factor to 0.28
ElecMinimize: Iter:   1  G: -1450.521913218659165  |grad|_K:  1.179e-06  alpha:  4.279e-01  linmin: -1.918e-04  t[s]:   3937.81
	Linear fluid (dielectric constant: 78.4, screening length: 8.12261 Bohr) occupying 0.494310 of unit cell:	Completed after 15 iterations at t[s]:   3949.76
	Linear fluid (dielectric constant: 78.4, screening length: 8.12261 Bohr) occupying 0.494321 of unit cell:	Completed after 10 iterations at t[s]:   3959.66
	FillingsUpdate:  mu: -0.134500000  nElectrons: 190.066293  magneticMoment: [ Abs: 0.00026  Tot: +0.00001 ]
	SubspaceRotationAdjust: set factor to 0.224
ElecMinimize: Iter:   2  G: -1450.521971313881295  |grad|_K:  1.084e-06  alpha:  3.945e-01  linmin:  2.031e-04  t[s]:   3974.13
	Linear fluid (dielectric constant: 78.4, screening length: 8.12261 Bohr) occupying 0.494500 of unit cell:	Completed after 15 iterations at t[s]:   3986.14
	Linear fluid (dielectric constant: 78.4, screening length: 8.12261 Bohr) occupying 0.494436 of unit cell:	Completed after 12 iterations at t[s]:   3996.19
	FillingsUpdate:  mu: -0.134500000  nElectrons: 190.073619  magneticMoment: [ Abs: 0.00030  Tot: +0.00001 ]
	SubspaceRotationAdjust: set factor to 0.166
ElecMinimize: Iter:   3  G: -1450.522003977123859  |grad|_K:  8.312e-07  alpha:  2.643e-01  linmin:  1.718e-05  t[s]:   4010.76
	Linear fluid (dielectric constant: 78.4, screening length: 8.12261 Bohr) occupying 0.494394 of unit cell:	Completed after 11 iterations at t[s]:   4022.29
	Linear fluid (dielectric constant: 78.4, screening length: 8.12261 Bohr) occupying 0.494371 of unit cell:	Completed after 10 iterations at t[s]:   4032.23
	FillingsUpdate:  mu: -0.134500000  nElectrons: 190.070886  magneticMoment: [ Abs: 0.00017  Tot: +0.00001 ]
	SubspaceRotationAdjust: set factor to 0.208
ElecMinimize: Iter:   4  G: -1450.522033541451947  |grad|_K:  5.880e-07  alpha:  4.061e-01  linmin:  1.894e-04  t[s]:   4046.73
	Linear fluid (dielectric constant: 78.4, screening length: 8.12261 Bohr) occupying 0.494329 of unit cell:	Completed after 11 iterations at t[s]:   4058.34
	Linear fluid (dielectric constant: 78.4, screening length: 8.12261 Bohr) occupying 0.494324 of unit cell:	Completed after 7 iterations at t[s]:   4067.98
	FillingsUpdate:  mu: -0.134500000  nElectrons: 190.069008  magneticMoment: [ Abs: 0.00009  Tot: +0.00001 ]
	SubspaceRotationAdjust: set factor to 0.232
ElecMinimize: Iter:   5  G: -1450.522050261416553  |grad|_K:  4.663e-07  alpha:  4.601e-01  linmin: -2.932e-04  t[s]:   4082.32
	Linear fluid (dielectric constant: 78.4, screening length: 8.12261 Bohr) occupying 0.494383 of unit cell:	Completed after 12 iterations at t[s]:   4094.05
	Linear fluid (dielectric constant: 78.4, screening length: 8.12261 Bohr) occupying 0.494367 of unit cell:	Completed after 10 iterations at t[s]:   4103.97
	FillingsUpdate:  mu: -0.134500000  nElectrons: 190.072209  magneticMoment: [ Abs: 0.00008  Tot: +0.00000 ]
	SubspaceRotationAdjust: set factor to 0.187
ElecMinimize: Iter:   6  G: -1450.522058150645535  |grad|_K:  4.070e-07  alpha:  3.392e-01  linmin:  2.654e-04  t[s]:   4118.50
	Linear fluid (dielectric constant: 78.4, screening length: 8.12261 Bohr) occupying 0.494317 of unit cell:	Completed after 11 iterations at t[s]:   4130.01
	Linear fluid (dielectric constant: 78.4, screening length: 8.12261 Bohr) occupying 0.494315 of unit cell:	Completed after 2 iterations at t[s]:   4139.14
	FillingsUpdate:  mu: -0.134500000  nElectrons: 190.070034  magneticMoment: [ Abs: 0.00009  Tot: +0.00000 ]
	SubspaceRotationAdjust: set factor to 0.156
ElecMinimize: Iter:   7  G: -1450.522064254481165  |grad|_K:  2.873e-07  alpha:  3.525e-01  linmin:  5.705e-04  t[s]:   4153.69
	Linear fluid (dielectric constant: 78.4, screening length: 8.12261 Bohr) occupying 0.494315 of unit cell:	Completed after 8 iterations at t[s]:   4165.04
	Linear fluid (dielectric constant: 78.4, screening length: 8.12261 Bohr) occupying 0.494315 of unit cell:	Completed after 2 iterations at t[s]:   4174.19
	FillingsUpdate:  mu: -0.134500000  nElectrons: 190.070497  magneticMoment: [ Abs: 0.00006  Tot: +0.00000 ]
	SubspaceRotationAdjust: set factor to 0.184
ElecMinimize: Iter:   8  G: -1450.522067435140116  |grad|_K:  2.034e-07  alpha:  3.730e-01  linmin: -8.289e-04  t[s]:   4188.67
	Linear fluid (dielectric constant: 78.4, screening length: 8.12261 Bohr) occupying 0.494325 of unit cell:	Completed after 10 iterations at t[s]:   4200.12
	Linear fluid (dielectric constant: 78.4, screening length: 8.12261 Bohr) occupying 0.494327 of unit cell:	Completed after 2 iterations at t[s]:   4209.23
	FillingsUpdate:  mu: -0.134500000  nElectrons: 190.071485  magneticMoment: [ Abs: 0.00003  Tot: +0.00000 ]
	SubspaceRotationAdjust: set factor to 0.173
ElecMinimize: Iter:   9  G: -1450.522069312047734  |grad|_K:  1.506e-07  alpha:  4.176e-01  linmin:  1.101e-03  t[s]:   4223.67
	Linear fluid (dielectric constant: 78.4, screening length: 8.12261 Bohr) occupying 0.494308 of unit cell:	Completed after 10 iterations at t[s]:   4235.19
	Linear fluid (dielectric constant: 78.4, screening length: 8.12261 Bohr) occupying 0.494311 of unit cell:	Completed after 7 iterations at t[s]:   4244.75
	FillingsUpdate:  mu: -0.134500000  nElectrons: 190.070655  magneticMoment: [ Abs: 0.00003  Tot: +0.00000 ]
	SubspaceRotationAdjust: set factor to 0.133
ElecMinimize: Iter:  10  G: -1450.522070146363149  |grad|_K:  1.046e-07  alpha:  3.594e-01  linmin:  2.082e-04  t[s]:   4259.24
	Linear fluid (dielectric constant: 78.4, screening length: 8.12261 Bohr) occupying 0.494316 of unit cell:	Completed after 8 iterations at t[s]:   4270.49
	Linear fluid (dielectric constant: 78.4, screening length: 8.12261 Bohr) occupying 0.494316 of unit cell:	Completed after 2 iterations at t[s]:   4279.81
	FillingsUpdate:  mu: -0.134500000  nElectrons: 190.070997  magneticMoment: [ Abs: 0.00002  Tot: +0.00000 ]
	SubspaceRotationAdjust: set factor to 0.134
ElecMinimize: Iter:  11  G: -1450.522070520732541  |grad|_K:  6.435e-08  alpha:  3.282e-01  linmin: -2.600e-03  t[s]:   4294.25
	Linear fluid (dielectric constant: 78.4, screening length: 8.12261 Bohr) occupying 0.494317 of unit cell:	Completed after 2 iterations at t[s]:   4304.97
	Linear fluid (dielectric constant: 78.4, screening length: 8.12261 Bohr) occupying 0.494318 of unit cell:	Completed after 2 iterations at t[s]:   4314.11
	FillingsUpdate:  mu: -0.134500000  nElectrons: 190.071102  magneticMoment: [ Abs: 0.00005  Tot: -0.00001 ]
	SubspaceRotationAdjust: set factor to 0.14
ElecMinimize: Iter:  12  G: -1450.522070733671853  |grad|_K:  6.311e-08  alpha:  5.252e-01  linmin:  1.050e-02  t[s]:   4328.53
	Linear fluid (dielectric constant: 78.4, screening length: 8.12261 Bohr) occupying 0.494315 of unit cell:	Completed after 2 iterations at t[s]:   4339.22
	Linear fluid (dielectric constant: 78.4, screening length: 8.12261 Bohr) occupying 0.494316 of unit cell:	Completed after 2 iterations at t[s]:   4348.42
	FillingsUpdate:  mu: -0.134500000  nElectrons: 190.071042  magneticMoment: [ Abs: 0.00005  Tot: -0.00001 ]
	SubspaceRotationAdjust: set factor to 0.15
ElecMinimize: Iter:  13  G: -1450.522070800717756  |grad|_K:  4.043e-08  alpha:  2.805e-01  linmin: -2.208e-03  t[s]:   4362.86
	Linear fluid (dielectric constant: 78.4, screening length: 8.12261 Bohr) occupying 0.494314 of unit cell:	Completed after 2 iterations at t[s]:   4373.59
	Linear fluid (dielectric constant: 78.4, screening length: 8.12261 Bohr) occupying 0.494315 of unit cell:	Completed after 1 iterations at t[s]:   4382.70
	FillingsUpdate:  mu: -0.134500000  nElectrons: 190.070992  magneticMoment: [ Abs: 0.00004  Tot: -0.00001 ]
	SubspaceRotationAdjust: set factor to 0.161
ElecMinimize: Iter:  14  G: -1450.522070829573067  |grad|_K:  2.695e-08  alpha:  1.857e-01  linmin: -1.245e-02  t[s]:   4397.15
ElecMinimize: Converged (|Delta G|<1.000000e-07 for 2 iters).
Setting wave functions to eigenvectors of Hamiltonian
Converging empty states (this may take a while): |deigs|: 9.878e-07

Computing DFT-D3 correction:
# coordination-number Ag 8.154 8.793 8.882 6.760 4.807 8.883 8.789 8.153 4.810 6.764
# diagonal-C6 Ag 268.61 268.61 268.61 268.61 268.61 268.61 268.61 268.61 268.61 268.61
EvdW_6 =   -0.054348
EvdW_8 =   -0.078009

# Ionic positions in cartesian coordinates:
ion Ag   3.834798527740313   1.713641774396578  13.039420572282125 1
ion Ag   0.017706095290259   3.417567702023990   9.429737040575425 1
ion Ag   3.838901302756804   5.176174170756052   5.972398450276390 1
ion Ag  -0.007009642924267   6.909191836554212   2.399765186127815 1
ion Ag   0.003306913691298  -0.078043946657050  16.308099366095856 1
ion Ag   3.837772218209767   6.818150410433879  11.170164977444374 1
ion Ag   3.824875804647874   0.019024616859696   7.711627529705806 1
ion Ag  -0.008933474163751   1.712091782980002   4.099455006518382 1
ion Ag   3.822778979899809   3.505979057729326   0.833684314293593 1
ion Ag  -0.000025725148103   5.088128594923315  14.740493556680230 1

# Forces in Cartesian coordinates:
force Ag   0.000298874922944  -0.000213302006351   0.000043832497901 1
force Ag   0.002084449362958   0.001531274569165   0.000630917428712 1
force Ag   0.001675252184390   0.000395293635854   0.000695295626627 1
force Ag   0.000115042432459  -0.000019867815162  -0.000901985589248 1
force Ag  -0.000079091996544  -0.000221643481300  -0.000760717977957 1
force Ag   0.000772055115730  -0.000437877227385   0.000094343797531 1
force Ag   0.000479625222889  -0.000150757716083   0.000121946999409 1
force Ag   0.000159808276781   0.000084648871598   0.000100518137671 1
force Ag   0.000155802548755   0.000298020512144   0.000654940729260 1
force Ag  -0.000064191860298   0.000074327712140   0.000928605656998 1

# Energy components:
   A_diel =       -0.0156126748363131
   Eewald =     5444.7926497771568393
       EH =     6779.4426830807533406
     Eloc =   -13932.2136703249179845
      Enl =       39.4658698437231763
     EvdW =       -0.1323571004710412
      Exc =     -144.8602181949053147
 Exc_core =        2.0817048603687063
       KE =      335.3565438942281389
  MuShift =       -0.0039614422277432
-------------------------------------
     Etot =    -1476.0863682811275339
       TS =        0.0002510185520868
-------------------------------------
        F =    -1476.0866192996795689
      muN =      -25.5645484701063914
-------------------------------------
        G =    -1450.5220708295730674


Dumping 'jdft.fillings' ... done
Dumping 'jdft.wfns' ... done
Dumping 'jdft.fluidState' ... done
Dumping 'jdft.ionpos' ... done
Dumping 'jdft.lattice' ... done
Dumping 'jdft.eigenvals' ... done
Dumping 'jdft.eigStats' ... 
	eMin: -3.516804 at state 0 ( [ +0.000000 +0.000000 +0.000000 ] spin 1 )
	HOMO: -0.135327 at state 21 ( [ +0.333333 +0.428571 +0.000000 ] spin 1 )
	mu  : -0.134500
	LUMO: -0.133897 at state 56 ( [ +0.333333 -0.142857 +0.000000 ] spin -1 )
	eMax: +0.156644 at state 1 ( [ +0.000000 +0.142857 +0.000000 ] spin 1 )
	HOMO-LUMO gap: +0.001431
	Optical gap  : +0.005465 at state 31 ( [ +0.444444 -0.142857 +0.000000 ] spin 1 )
Dumping 'jdft.Ecomponents' ... done
IonicMinimize: Iter:   2  G: -1450.522070829573067  |grad|_K:  6.078e-04  alpha:  2.323e-01  linmin: -8.104e-01  t[s]:   4437.09
IonicMinimize: Converged (|Delta G|<1.000000e-04 for 2 iters).

#--- Lowdin population analysis ---
# oxidation-state Ag -0.069 +0.002 -0.031 -0.042 +0.131 -0.031 +0.002 -0.069 +0.131 -0.042
# magnetic-moments Ag -0.000 -0.000 -0.000 -0.000 -0.000 -0.000 -0.000 -0.000 -0.000 -0.000


Dumping 'jdft.n_up' ... done
Dumping 'jdft.n_dn' ... done
Dumping 'jdft.tau_up' ... done
Dumping 'jdft.tau_dn' ... done
Dumping 'jdft.eigenvals' ... done
Dumping 'jdft.eigStats' ... 
	eMin: -3.516804 at state 0 ( [ +0.000000 +0.000000 +0.000000 ] spin 1 )
	HOMO: -0.135327 at state 21 ( [ +0.333333 +0.428571 +0.000000 ] spin 1 )
	mu  : -0.134500
	LUMO: -0.133897 at state 56 ( [ +0.333333 -0.142857 +0.000000 ] spin -1 )
	eMax: +0.156644 at state 1 ( [ +0.000000 +0.142857 +0.000000 ] spin 1 )
	HOMO-LUMO gap: +0.001431
	Optical gap  : +0.005465 at state 31 ( [ +0.444444 -0.142857 +0.000000 ] spin 1 )
Dumping 'jdft.kPts' ... done
Dumping 'jdft.kMap' ... done
Dumping 'jdft.dosUp' ... done.
Dumping 'jdft.dosDn' ... done.
End date and time: Sat Sep 10 12:44:29 2022  (Duration: 0-1:14:19.45)
Done!

PROFILER:             augmentDensityGrid     2.028632 +/-     0.016065 s,  225 calls,    456.442279 s total
PROFILER:         augmentDensityGridGrad     0.127384 +/-     0.043260 s,  123 calls,     15.668233 s total
PROFILER:        augmentDensitySpherical     0.000995 +/-     0.000054 s,  450 calls,      0.447900 s total
PROFILER:    augmentDensitySphericalGrad     0.000988 +/-     0.000119 s,  302 calls,      0.298493 s total
PROFILER:                 augmentOverlap     0.449661 +/-     0.044328 s, 1006 calls,    452.358944 s total
PROFILER:                     diagouterI     1.695074 +/-     0.020585 s,  456 calls,    772.953792 s total
PROFILER:              EdensityAndVscloc     2.087774 +/-     1.431899 s,  225 calls,    469.749131 s total
PROFILER:                     EnlAndGrad     0.002090 +/-     0.000420 s,  522 calls,      1.091049 s total
PROFILER:            ExCorrCommunication     0.019197 +/-     0.059068 s, 1440 calls,     27.643281 s total
PROFILER:               ExCorrFunctional     0.003750 +/-     0.000864 s,  250 calls,      0.937601 s total
PROFILER:                    ExCorrTotal     0.152714 +/-     0.123548 s,  250 calls,     38.178599 s total
PROFILER:                   Idag_DiagV_I     3.140694 +/-     0.756456 s,  286 calls,    898.238451 s total
PROFILER:                    initWeights     1.945790 +/-     0.000000 s,    1 calls,      1.945790 s total
PROFILER:                    inv(matrix)     0.001219 +/-     0.000111 s,  444 calls,      0.541156 s total
PROFILER:            matrix::diagonalize     0.004852 +/-     0.002696 s,  726 calls,      3.522913 s total
PROFILER:                    matrix::set     0.000004 +/-     0.000006 s, 8584 calls,      0.038189 s total
PROFILER:            orthoMatrix(matrix)     0.000826 +/-     0.000572 s,  488 calls,      0.403140 s total
PROFILER:     RadialFunctionR::transform     0.029586 +/-     0.205524 s,   57 calls,      1.686416 s total
PROFILER:                    reduceKmesh     0.001532 +/-     0.000000 s,    1 calls,      0.001532 s total
PROFILER:   VanDerWaalsD3::energyAndGrad     0.003815 +/-     0.000189 s,   17 calls,      0.064852 s total
PROFILER:               WavefunctionDrag     4.559757 +/-     0.746758 s,    8 calls,     36.478059 s total
PROFILER:                            Y*M     0.131087 +/-     0.035833 s, 3284 calls,    430.490814 s total
PROFILER:                          Y1^Y2     0.142900 +/-     0.042836 s, 2176 calls,    310.951084 s total

MEMUSAGE:                   ColumnBundle     0.260194 GB
MEMUSAGE:        complexScalarFieldTilde     0.008011 GB
MEMUSAGE:                    IndexArrays     0.013761 GB
MEMUSAGE:                         matrix     0.012834 GB
MEMUSAGE:                           misc     0.008064 GB
MEMUSAGE:                    ScalarField     0.058079 GB
MEMUSAGE:               ScalarFieldTilde     0.042458 GB
MEMUSAGE:                          Total     0.320547 GB
