
*************** JDFTx 1.6.0  ***************

Start date and time: Mon Dec  6 16:19:09 2021
Executable /projects/musgravc/apps/jdftx-1.6.1/build/jdftx with command-line: -i in
Running on hosts (process indices):  shas0509.rc.int.colorado.edu (0-23)
Divided in process groups (process indices):  0 (0)  1 (1)  2 (2)  3 (3)  4 (4)  5 (5)  6 (6)  7 (7)  8 (8)  9 (9)  10 (10)  11 (11)  12 (12)  13 (13)  14 (14)  15 (15)  16 (16)  17 (17)  18 (18)  19 (19)  20 (20)  21 (21)  22 (22)  23 (23)
Resource initialization completed at t[s]:      0.00
Run totals: 24 processes, 24 threads, 0 GPUs


Input parsed successfully to the following command list (including defaults):

basis kpoint-dependent
converge-empty-states yes
coords-type Cartesian
core-overlap-check none
coulomb-interaction Periodic
davidson-band-ratio 1.1
density-of-states Etol 1.000000e-06 Esigma 1.000000e-03 \
		Complete \
	Total \
	OrthoOrbital Pt 1   s \
	OrthoOrbital Pt 1   p \
	OrthoOrbital Pt 1   px \
	OrthoOrbital Pt 1   py \
	OrthoOrbital Pt 1   pz \
	OrthoOrbital Pt 1   d \
	OrthoOrbital Pt 1   dxy \
	OrthoOrbital Pt 1   dyz \
	OrthoOrbital Pt 1   dz2 \
	OrthoOrbital Pt 1   dxz \
	OrthoOrbital Pt 1   dx2-y2 \
	OrthoOrbital Pt 2   s \
	OrthoOrbital Pt 2   p \
	OrthoOrbital Pt 2   px \
	OrthoOrbital Pt 2   py \
	OrthoOrbital Pt 2   pz \
	OrthoOrbital Pt 2   d \
	OrthoOrbital Pt 2   dxy \
	OrthoOrbital Pt 2   dyz \
	OrthoOrbital Pt 2   dz2 \
	OrthoOrbital Pt 2   dxz \
	OrthoOrbital Pt 2   dx2-y2 \
	OrthoOrbital Pt 3   s \
	OrthoOrbital Pt 3   p \
	OrthoOrbital Pt 3   px \
	OrthoOrbital Pt 3   py \
	OrthoOrbital Pt 3   pz \
	OrthoOrbital Pt 3   d \
	OrthoOrbital Pt 3   dxy \
	OrthoOrbital Pt 3   dyz \
	OrthoOrbital Pt 3   dz2 \
	OrthoOrbital Pt 3   dxz \
	OrthoOrbital Pt 3   dx2-y2 \
	OrthoOrbital Pt 4   s \
	OrthoOrbital Pt 4   p \
	OrthoOrbital Pt 4   px \
	OrthoOrbital Pt 4   py \
	OrthoOrbital Pt 4   pz \
	OrthoOrbital Pt 4   d \
	OrthoOrbital Pt 4   dxy \
	OrthoOrbital Pt 4   dyz \
	OrthoOrbital Pt 4   dz2 \
	OrthoOrbital Pt 4   dxz \
	OrthoOrbital Pt 4   dx2-y2 \
	OrthoOrbital Pt 5   s \
	OrthoOrbital Pt 5   p \
	OrthoOrbital Pt 5   px \
	OrthoOrbital Pt 5   py \
	OrthoOrbital Pt 5   pz \
	OrthoOrbital Pt 5   d \
	OrthoOrbital Pt 5   dxy \
	OrthoOrbital Pt 5   dyz \
	OrthoOrbital Pt 5   dz2 \
	OrthoOrbital Pt 5   dxz \
	OrthoOrbital Pt 5   dx2-y2 \
	OrthoOrbital Pt 6   s \
	OrthoOrbital Pt 6   p \
	OrthoOrbital Pt 6   px \
	OrthoOrbital Pt 6   py \
	OrthoOrbital Pt 6   pz \
	OrthoOrbital Pt 6   d \
	OrthoOrbital Pt 6   dxy \
	OrthoOrbital Pt 6   dyz \
	OrthoOrbital Pt 6   dz2 \
	OrthoOrbital Pt 6   dxz \
	OrthoOrbital Pt 6   dx2-y2 \
	OrthoOrbital Pt 7   s \
	OrthoOrbital Pt 7   p \
	OrthoOrbital Pt 7   px \
	OrthoOrbital Pt 7   py \
	OrthoOrbital Pt 7   pz \
	OrthoOrbital Pt 7   d \
	OrthoOrbital Pt 7   dxy \
	OrthoOrbital Pt 7   dyz \
	OrthoOrbital Pt 7   dz2 \
	OrthoOrbital Pt 7   dxz \
	OrthoOrbital Pt 7   dx2-y2 \
	OrthoOrbital Pt 8   s \
	OrthoOrbital Pt 8   p \
	OrthoOrbital Pt 8   px \
	OrthoOrbital Pt 8   py \
	OrthoOrbital Pt 8   pz \
	OrthoOrbital Pt 8   d \
	OrthoOrbital Pt 8   dxy \
	OrthoOrbital Pt 8   dyz \
	OrthoOrbital Pt 8   dz2 \
	OrthoOrbital Pt 8   dxz \
	OrthoOrbital Pt 8   dx2-y2 \
	OrthoOrbital Pt 9   s \
	OrthoOrbital Pt 9   p \
	OrthoOrbital Pt 9   px \
	OrthoOrbital Pt 9   py \
	OrthoOrbital Pt 9   pz \
	OrthoOrbital Pt 9   d \
	OrthoOrbital Pt 9   dxy \
	OrthoOrbital Pt 9   dyz \
	OrthoOrbital Pt 9   dz2 \
	OrthoOrbital Pt 9   dxz \
	OrthoOrbital Pt 9   dx2-y2 \
	OrthoOrbital Pt 10   s \
	OrthoOrbital Pt 10   p \
	OrthoOrbital Pt 10   px \
	OrthoOrbital Pt 10   py \
	OrthoOrbital Pt 10   pz \
	OrthoOrbital Pt 10   d \
	OrthoOrbital Pt 10   dxy \
	OrthoOrbital Pt 10   dyz \
	OrthoOrbital Pt 10   dz2 \
	OrthoOrbital Pt 10   dxz \
	OrthoOrbital Pt 10   dx2-y2 \
	OrthoOrbital Pt 11   s \
	OrthoOrbital Pt 11   p \
	OrthoOrbital Pt 11   px \
	OrthoOrbital Pt 11   py \
	OrthoOrbital Pt 11   pz \
	OrthoOrbital Pt 11   d \
	OrthoOrbital Pt 11   dxy \
	OrthoOrbital Pt 11   dyz \
	OrthoOrbital Pt 11   dz2 \
	OrthoOrbital Pt 11   dxz \
	OrthoOrbital Pt 11   dx2-y2 \
	OrthoOrbital Pt 12   s \
	OrthoOrbital Pt 12   p \
	OrthoOrbital Pt 12   px \
	OrthoOrbital Pt 12   py \
	OrthoOrbital Pt 12   pz \
	OrthoOrbital Pt 12   d \
	OrthoOrbital Pt 12   dxy \
	OrthoOrbital Pt 12   dyz \
	OrthoOrbital Pt 12   dz2 \
	OrthoOrbital Pt 12   dxz \
	OrthoOrbital Pt 12   dx2-y2 \
	OrthoOrbital Pt 13   s \
	OrthoOrbital Pt 13   p \
	OrthoOrbital Pt 13   px \
	OrthoOrbital Pt 13   py \
	OrthoOrbital Pt 13   pz \
	OrthoOrbital Pt 13   d \
	OrthoOrbital Pt 13   dxy \
	OrthoOrbital Pt 13   dyz \
	OrthoOrbital Pt 13   dz2 \
	OrthoOrbital Pt 13   dxz \
	OrthoOrbital Pt 13   dx2-y2 \
	OrthoOrbital Pt 14   s \
	OrthoOrbital Pt 14   p \
	OrthoOrbital Pt 14   px \
	OrthoOrbital Pt 14   py \
	OrthoOrbital Pt 14   pz \
	OrthoOrbital Pt 14   d \
	OrthoOrbital Pt 14   dxy \
	OrthoOrbital Pt 14   dyz \
	OrthoOrbital Pt 14   dz2 \
	OrthoOrbital Pt 14   dxz \
	OrthoOrbital Pt 14   dx2-y2 \
	OrthoOrbital Pt 15   s \
	OrthoOrbital Pt 15   p \
	OrthoOrbital Pt 15   px \
	OrthoOrbital Pt 15   py \
	OrthoOrbital Pt 15   pz \
	OrthoOrbital Pt 15   d \
	OrthoOrbital Pt 15   dxy \
	OrthoOrbital Pt 15   dyz \
	OrthoOrbital Pt 15   dz2 \
	OrthoOrbital Pt 15   dxz \
	OrthoOrbital Pt 15   dx2-y2 \
	OrthoOrbital Pt 16   s \
	OrthoOrbital Pt 16   p \
	OrthoOrbital Pt 16   px \
	OrthoOrbital Pt 16   py \
	OrthoOrbital Pt 16   pz \
	OrthoOrbital Pt 16   d \
	OrthoOrbital Pt 16   dxy \
	OrthoOrbital Pt 16   dyz \
	OrthoOrbital Pt 16   dz2 \
	OrthoOrbital Pt 16   dxz \
	OrthoOrbital Pt 16   dx2-y2 \
	OrthoOrbital Pt 17   s \
	OrthoOrbital Pt 17   p \
	OrthoOrbital Pt 17   px \
	OrthoOrbital Pt 17   py \
	OrthoOrbital Pt 17   pz \
	OrthoOrbital Pt 17   d \
	OrthoOrbital Pt 17   dxy \
	OrthoOrbital Pt 17   dyz \
	OrthoOrbital Pt 17   dz2 \
	OrthoOrbital Pt 17   dxz \
	OrthoOrbital Pt 17   dx2-y2 \
	OrthoOrbital Pt 18   s \
	OrthoOrbital Pt 18   p \
	OrthoOrbital Pt 18   px \
	OrthoOrbital Pt 18   py \
	OrthoOrbital Pt 18   pz \
	OrthoOrbital Pt 18   d \
	OrthoOrbital Pt 18   dxy \
	OrthoOrbital Pt 18   dyz \
	OrthoOrbital Pt 18   dz2 \
	OrthoOrbital Pt 18   dxz \
	OrthoOrbital Pt 18   dx2-y2 \
	OrthoOrbital Pt 19   s \
	OrthoOrbital Pt 19   p \
	OrthoOrbital Pt 19   px \
	OrthoOrbital Pt 19   py \
	OrthoOrbital Pt 19   pz \
	OrthoOrbital Pt 19   d \
	OrthoOrbital Pt 19   dxy \
	OrthoOrbital Pt 19   dyz \
	OrthoOrbital Pt 19   dz2 \
	OrthoOrbital Pt 19   dxz \
	OrthoOrbital Pt 19   dx2-y2 \
	OrthoOrbital Pt 20   s \
	OrthoOrbital Pt 20   p \
	OrthoOrbital Pt 20   px \
	OrthoOrbital Pt 20   py \
	OrthoOrbital Pt 20   pz \
	OrthoOrbital Pt 20   d \
	OrthoOrbital Pt 20   dxy \
	OrthoOrbital Pt 20   dyz \
	OrthoOrbital Pt 20   dz2 \
	OrthoOrbital Pt 20   dxz \
	OrthoOrbital Pt 20   dx2-y2 \
	OrthoOrbital Pt 21   s \
	OrthoOrbital Pt 21   p \
	OrthoOrbital Pt 21   px \
	OrthoOrbital Pt 21   py \
	OrthoOrbital Pt 21   pz \
	OrthoOrbital Pt 21   d \
	OrthoOrbital Pt 21   dxy \
	OrthoOrbital Pt 21   dyz \
	OrthoOrbital Pt 21   dz2 \
	OrthoOrbital Pt 21   dxz \
	OrthoOrbital Pt 21   dx2-y2 \
	OrthoOrbital Pt 22   s \
	OrthoOrbital Pt 22   p \
	OrthoOrbital Pt 22   px \
	OrthoOrbital Pt 22   py \
	OrthoOrbital Pt 22   pz \
	OrthoOrbital Pt 22   d \
	OrthoOrbital Pt 22   dxy \
	OrthoOrbital Pt 22   dyz \
	OrthoOrbital Pt 22   dz2 \
	OrthoOrbital Pt 22   dxz \
	OrthoOrbital Pt 22   dx2-y2 \
	OrthoOrbital Pt 23   s \
	OrthoOrbital Pt 23   p \
	OrthoOrbital Pt 23   px \
	OrthoOrbital Pt 23   py \
	OrthoOrbital Pt 23   pz \
	OrthoOrbital Pt 23   d \
	OrthoOrbital Pt 23   dxy \
	OrthoOrbital Pt 23   dyz \
	OrthoOrbital Pt 23   dz2 \
	OrthoOrbital Pt 23   dxz \
	OrthoOrbital Pt 23   dx2-y2 \
	OrthoOrbital Pt 24   s \
	OrthoOrbital Pt 24   p \
	OrthoOrbital Pt 24   px \
	OrthoOrbital Pt 24   py \
	OrthoOrbital Pt 24   pz \
	OrthoOrbital Pt 24   d \
	OrthoOrbital Pt 24   dxy \
	OrthoOrbital Pt 24   dyz \
	OrthoOrbital Pt 24   dz2 \
	OrthoOrbital Pt 24   dxz \
	OrthoOrbital Pt 24   dx2-y2 \
	OrthoOrbital Pt 25   s \
	OrthoOrbital Pt 25   p \
	OrthoOrbital Pt 25   px \
	OrthoOrbital Pt 25   py \
	OrthoOrbital Pt 25   pz \
	OrthoOrbital Pt 25   d \
	OrthoOrbital Pt 25   dxy \
	OrthoOrbital Pt 25   dyz \
	OrthoOrbital Pt 25   dz2 \
	OrthoOrbital Pt 25   dxz \
	OrthoOrbital Pt 25   dx2-y2 \
	OrthoOrbital Pt 26   s \
	OrthoOrbital Pt 26   p \
	OrthoOrbital Pt 26   px \
	OrthoOrbital Pt 26   py \
	OrthoOrbital Pt 26   pz \
	OrthoOrbital Pt 26   d \
	OrthoOrbital Pt 26   dxy \
	OrthoOrbital Pt 26   dyz \
	OrthoOrbital Pt 26   dz2 \
	OrthoOrbital Pt 26   dxz \
	OrthoOrbital Pt 26   dx2-y2
dump End ElecDensity KEdensity BandEigs EigStats RhoAtom DOS Kpoints
dump Ionic State IonicPositions Lattice EigStats Ecomponents
dump 
dump 
dump 
dump 
dump 
dump 
dump 
dump 
dump-name jdft.$VAR
elec-cutoff 20
elec-eigen-algo Davidson
elec-ex-corr gga-PBE
elec-initial-magnetization 0.000000 no
elec-n-bands 250
elec-smearing Fermi 0.001
electronic-minimize  \
	dirUpdateScheme      FletcherReeves \
	linminMethod         DirUpdateRecommended \
	nIterations          100 \
	history              15 \
	knormThreshold       0 \
	energyDiffThreshold  1e-07 \
	nEnergyDiff          2 \
	alphaTstart          1 \
	alphaTmin            1e-10 \
	updateTestStepSize   yes \
	alphaTreduceFactor   0.1 \
	alphaTincreaseFactor 3 \
	nAlphaAdjustMax      3 \
	wolfeEnergy          0.0001 \
	wolfeGradient        0.9 \
	fdTest               no
exchange-regularization WignerSeitzTruncated
fluid None
fluid-ex-corr lda-TF lda-PZ
fluid-gummel-loop 10 1.000000e-05
fluid-minimize  \
	dirUpdateScheme      PolakRibiere \
	linminMethod         DirUpdateRecommended \
	nIterations          100 \
	history              15 \
	knormThreshold       0 \
	energyDiffThreshold  0 \
	nEnergyDiff          2 \
	alphaTstart          1 \
	alphaTmin            1e-10 \
	updateTestStepSize   yes \
	alphaTreduceFactor   0.1 \
	alphaTincreaseFactor 3 \
	nAlphaAdjustMax      3 \
	wolfeEnergy          0.0001 \
	wolfeGradient        0.9 \
	fdTest               no
fluid-solvent H2O 55.338 ScalarEOS \
	epsBulk 78.4 \
	pMol 0.92466 \
	epsInf 1.77 \
	Pvap 1.06736e-10 \
	sigmaBulk 4.62e-05 \
	Rvdw 2.61727 \
	Res 1.42 \
	tauNuc 343133 \
	poleEl 15 7 1
forces-output-coords Positions
ion Pt  -0.000004000000000  10.260789999999998  24.112843999999996 1
ion Pt   0.000000000000000   4.104311000000000  20.008534000000001 1
ion Pt   3.699579000000000   7.182556999999998  22.060688999999996 1
ion Pt   3.699583000000000   1.026078000000000  17.956378000000001 1
ion Pt  -0.000004000000000   8.208634999999999  13.852067999999997 1
ion Pt   0.000000000000000   2.052155000000000   9.747757000000000 1
ion Pt   3.699579000000000  11.286867999999998  15.904222999999998 1
ion Pt   3.699583000000000   5.130387999999999  11.799912999999998 1
ion Pt  -0.000004000000000  12.312944999999997   7.695601999999999 1
ion Pt   0.000000000000000   6.156465999999998   3.591292000000000 1
ion Pt   0.000000000000000   0.000000000000000  26.164998999999998 1
ion Pt   3.699579000000000   9.234711999999998   5.643447000000000 1
ion Pt   3.699583000000000   3.078232999999999   1.539136000000000 1
ion Pt   3.699574999999999  12.312944999999997  21.034651000000000 1
ion Pt   3.699579000000000   6.156465999999998  16.930260999999998 1
ion Pt   0.000000000000000   9.234711999999998  18.982415999999997 1
ion Pt   0.000004000000000   3.078232999999999  14.878104999999998 1
ion Pt   3.699575000000000  10.260789999999998  10.773795000000000 1
ion Pt   3.699578999999999   4.104311000000000   6.669484999999999 1
ion Pt   0.000000000000000  13.339022999999996  12.825950000000001 1
ion Pt   0.000000000000000   7.182556999999998   8.721639999999999 1
ion Pt   0.000004000000000   1.026078000000000   4.617329000000000 1
ion Pt   3.699575000000000   8.208634999999999   0.513019000000000 1
ion Pt   3.699579000000000   2.052155000000000  23.086805999999999 1
ion Pt   0.000000000000000  11.286867999999998   2.565174000000000 1
ion Pt   0.000004000000000   5.130387999999999  25.138961999999996 1
ion-species /projects/musgravc/apps/jdftx-1.6.0/build/pseudopotentials/GBRV_v1.5/$ID_pbe_v1.uspp
ion-species /projects/musgravc/apps/jdftx-1.6.0/build/pseudopotentials/GBRV_v1.5/$ID_pbe_v1.2.uspp
ion-species /projects/musgravc/apps/jdftx-1.6.0/build/pseudopotentials/GBRV_v1.5/$ID_pbe_v1.4.uspp
ion-species /projects/musgravc/apps/jdftx-1.6.0/build/pseudopotentials/GBRV_v1.5/$ID_pbe_v1.5.uspp
ion-width 0
ionic-minimize  \
	dirUpdateScheme      L-BFGS \
	linminMethod         DirUpdateRecommended \
	nIterations          100 \
	history              15 \
	knormThreshold       0.0001 \
	energyDiffThreshold  1e-06 \
	nEnergyDiff          2 \
	alphaTstart          1 \
	alphaTmin            1e-10 \
	updateTestStepSize   yes \
	alphaTreduceFactor   0.1 \
	alphaTincreaseFactor 3 \
	nAlphaAdjustMax      3 \
	wolfeEnergy          0.0001 \
	wolfeGradient        0.9 \
	fdTest               no
kpoint   0.000000000000   0.000000000000   0.000000000000  1.00000000000000
kpoint-folding 9 4 1 
latt-move-scale 0 0 0
latt-scale 1 1 1 
lattice  \
	   7.399158000000000   -3.699579000000000    0.000000000000000  \
	   0.000000000000000   13.339022999999999    0.000000000000000  \
	   0.000000000000000    0.000000000000000   80.034133999999995 
lattice-minimize  \
	dirUpdateScheme      L-BFGS \
	linminMethod         DirUpdateRecommended \
	nIterations          0 \
	history              15 \
	knormThreshold       0 \
	energyDiffThreshold  1e-06 \
	nEnergyDiff          2 \
	alphaTstart          1 \
	alphaTmin            1e-10 \
	updateTestStepSize   yes \
	alphaTreduceFactor   0.1 \
	alphaTincreaseFactor 3 \
	nAlphaAdjustMax      3 \
	wolfeEnergy          0.0001 \
	wolfeGradient        0.9 \
	fdTest               no
lcao-params 30 1e-06 0.001
pcm-variant GLSSA13
spintype z-spin
subspace-rotation-factor 1 yes
symmetries none
symmetry-threshold 0.0001
van-der-waals D3


Applied RMS atom displacement 0 bohrs to make symmetries exact.

---------- Initializing the Grid ----------
R = 
[      7.39916     -3.69958            0  ]
[            0       13.339            0  ]
[            0            0      80.0341  ]
unit cell volume = 7899.17
G =
[   0.849176   0.235519         -0  ]
[          0   0.471038          0  ]
[          0         -0  0.0785063  ]
Minimum fftbox size, Smin = [  32  56  324  ]
Chosen fftbox size, S = [  32  56  324  ]

---------- Exchange Correlation functional ----------
Initalized PBE GGA exchange.
Initalized PBE GGA correlation.

---------- Setting up pseudopotentials ----------
Width of ionic core gaussian charges (only for fluid interactions / plotting) set to 0

Reading pseudopotential file '/projects/musgravc/apps/jdftx-1.6.0/build/pseudopotentials/GBRV_v1.5/pt_pbe_v1.4.uspp':
  Title: Pt.  Created by USPP 7.3.6 on 31-3-15
  Reference state energy: -105.002503.  16 valence electrons in orbitals:
    |510>  occupation: 6  eigenvalue: -2.158104
    |520>  occupation: 9.5  eigenvalue: -0.335376
    |600>  occupation: 0  eigenvalue: -0.319640
    |610>  occupation: 0  eigenvalue: -0.122947
  lMax: 2  lLocal: 3  QijEcut: 5.5
  6 projectors sampled on a log grid with 745 points:
    l: 0  eig: -0.319640  rCut: 2.45
    l: 0  eig: 1.500000  rCut: 2.45
    l: 1  eig: -2.158104  rCut: 1.6
    l: 1  eig: -0.122947  rCut: 1.6
    l: 2  eig: -0.500000  rCut: 1.6
    l: 2  eig: -0.335375  rCut: 1.6
  Partial core density with radius 1.1
  Transforming core density to a uniform radial grid of dG=0.02 with 1264 points.
  Transforming local potential to a uniform radial grid of dG=0.02 with 1264 points.
  Transforming nonlocal projectors to a uniform radial grid of dG=0.02 with 432 points.
  Transforming density augmentations to a uniform radial grid of dG=0.02 with 1264 points.
  Transforming atomic orbitals to a uniform radial grid of dG=0.02 with 432 points.
  Core radius for overlap checks: 2.45 bohrs.

Initialized 1 species with 26 total atoms.

Folded 1 k-points by 9x4x1 to 36 k-points.

---------- Setting up k-points, bands, fillings ----------
No reducable k-points. 
Computing the number of bands and number of electrons
Calculating initial fillings.
nElectrons: 416.000000   nBands: 250   nStates: 72

----- Setting up reduced wavefunction bases (one per k-point) -----
average nbasis = 33742.806 , ideal nbasis = 33745.865

----- Initializing Supercell corresponding to k-point mesh -----
Lattice vector linear combinations in supercell:
[   9   0   0  ]
[   0   4   0  ]
[   0   0   1  ]
Supercell lattice vectors:
[  66.5924  -14.7983  0  ]
[  0  53.3561  0  ]
[  0  0  80.0341  ]

Initializing DFT-D3 calculator:
	Parameters set for gga-PBE functional
	s6:  1.000  s_r6:  1.217
	s8:  0.722  s_r8:  1.000
	Per-atom parameters loaded for:
	Pt:  sqrtQ[a0]:  5.888  Rcov[a0]:  2.116  CN: [ 0.00 1.92 6.67 ]

---------- Setting up ewald sum ----------
Optimum gaussian width for ewald sums = 4.616098 bohr.
Real space sum over 935 unit cells with max indices [  8  5  2  ]
Reciprocal space sum over 6669 terms with max indices [  4  6  28  ]

Computing DFT-D3 correction:
# coordination-number Pt 7.154 9.549 8.741 9.560 9.562 9.561 9.562 9.562 9.555 8.713 4.805 9.525 5.594 9.525 9.561 9.555 9.562 9.562 9.549 9.562 9.560 8.741 4.805 8.713 7.154 5.594
# diagonal-C6 Pt 336.87 336.87 336.87 336.87 336.87 336.87 336.87 336.87 336.87 336.87 336.87 336.87 336.87 336.87 336.87 336.87 336.87 336.87 336.87 336.87 336.87 336.87 336.87 336.87 336.87 336.87
EvdW_6 =   -0.233255
EvdW_8 =   -0.376272

---------- Allocating electronic variables ----------
Initializing wave functions:  linear combination of atomic orbitals
Pt pseudo-atom occupations:   s ( 0 )  p ( 6 0 )  d ( 10 )
	FillingsUpdate:  mu: -1.644943754  nElectrons: 416.000000  magneticMoment: [ Abs: 0.00180  Tot: +0.00000 ]
LCAOMinimize: Iter:   0  F: -2297.3708731833958154  |grad|_K:  1.469e-02  alpha:  1.000e+00
LCAOMinimize: 	Step increased F by 6.093654e+02, reducing alpha to 2.102834e-02.
	FillingsUpdate:  mu: +0.909451069  nElectrons: 416.000000  magneticMoment: [ Abs: 0.00141  Tot: -0.00002 ]
LCAOMinimize: Iter:   1  F: -2304.7298498184927666  |grad|_K:  1.050e-02  alpha:  2.103e-02  linmin:  1.665e-01  cgtest: -9.354e-01  t[s]:    253.73
LCAOMinimize: 	Bad step direction: g.d > 0.
LCAOMinimize: 	Undoing step.
LCAOMinimize: 	Step failed: resetting search direction.
	FillingsUpdate:  mu: +0.909451069  nElectrons: 416.000000  magneticMoment: [ Abs: 0.00141  Tot: -0.00002 ]
LCAOMinimize: Iter:   2  F: -2304.7298498184927666  |grad|_K:  1.050e-02  alpha:  0.000e+00
	FillingsUpdate:  mu: -0.293887252  nElectrons: 416.000000  magneticMoment: [ Abs: 0.00139  Tot: +0.00011 ]
LCAOMinimize: Iter:   3  F: -2310.3277083815423794  |grad|_K:  2.321e-03  alpha:  1.227e-02  linmin: -2.491e-02  cgtest: -5.146e-02  t[s]:    387.57
LCAOMinimize: 	Predicted alpha/alphaT>3.000000, increasing alphaT to 3.681394e-02.
	FillingsUpdate:  mu: -0.171309730  nElectrons: 416.000000  magneticMoment: [ Abs: 0.00121  Tot: +0.00002 ]
LCAOMinimize: Iter:   4  F: -2311.2552999621152594  |grad|_K:  2.908e-03  alpha:  4.843e-02  linmin:  8.118e-03  cgtest:  2.607e-01  t[s]:    484.40
	FillingsUpdate:  mu: +0.002271737  nElectrons: 416.000000  magneticMoment: [ Abs: 0.00114  Tot: +0.00001 ]
LCAOMinimize: Iter:   5  F: -2311.6240300589324761  |grad|_K:  1.289e-03  alpha:  1.120e-02  linmin: -4.753e-02  cgtest:  5.012e-01  t[s]:    561.14
LCAOMinimize: Encountered beta<0, resetting CG.
	FillingsUpdate:  mu: +0.127154378  nElectrons: 416.000000  magneticMoment: [ Abs: 0.00109  Tot: +0.00003 ]
LCAOMinimize: Iter:   6  F: -2311.8083182619448053  |grad|_K:  2.801e-03  alpha:  3.103e-02  linmin: -1.539e-03  cgtest:  1.094e-02  t[s]:    638.21
	FillingsUpdate:  mu: +0.103405528  nElectrons: 416.000000  magneticMoment: [ Abs: 0.00102  Tot: +0.00003 ]
LCAOMinimize: Iter:   7  F: -2312.0234843895864287  |grad|_K:  1.735e-03  alpha:  9.225e-03  linmin:  1.301e-02  cgtest: -4.155e-01  t[s]:    714.92
	FillingsUpdate:  mu: +0.046404388  nElectrons: 416.000000  magneticMoment: [ Abs: 0.00096  Tot: -0.00000 ]
LCAOMinimize: Iter:   8  F: -2312.1229659379782788  |grad|_K:  1.235e-03  alpha:  1.212e-02  linmin: -4.343e-03  cgtest:  6.103e-01  t[s]:    792.38
LCAOMinimize: 	Predicted alpha/alphaT>3.000000, increasing alphaT to 3.636531e-02.
	FillingsUpdate:  mu: +0.016121331  nElectrons: 416.000000  magneticMoment: [ Abs: 0.00091  Tot: -0.00004 ]
LCAOMinimize: Iter:   9  F: -2312.3437085110840599  |grad|_K:  1.529e-03  alpha:  4.145e-02  linmin:  9.046e-03  cgtest: -3.394e-02  t[s]:    888.84
	FillingsUpdate:  mu: +0.129783797  nElectrons: 416.000000  magneticMoment: [ Abs: 0.00086  Tot: -0.00006 ]
LCAOMinimize: Iter:  10  F: -2312.4872971699910522  |grad|_K:  9.483e-04  alpha:  1.792e-02  linmin: -3.663e-03  cgtest:  2.946e-01  t[s]:    965.95
	FillingsUpdate:  mu: +0.132704225  nElectrons: 416.000000  magneticMoment: [ Abs: 0.00086  Tot: -0.00006 ]
LCAOMinimize: Iter:  11  F: -2312.5046099689375296  |grad|_K:  7.370e-04  alpha:  5.351e-03  linmin: -6.461e-04  cgtest: -1.474e-02  t[s]:   1042.59
LCAOMinimize: 	Predicted alpha/alphaT>3.000000, increasing alphaT to 1.605174e-02.
	FillingsUpdate:  mu: +0.206730578  nElectrons: 416.000000  magneticMoment: [ Abs: 0.00083  Tot: -0.00007 ]
LCAOMinimize: Iter:  12  F: -2312.5584460085797218  |grad|_K:  9.910e-04  alpha:  2.774e-02  linmin: -1.318e-03  cgtest:  1.710e-02  t[s]:   1139.89
	FillingsUpdate:  mu: +0.130282160  nElectrons: 416.000000  magneticMoment: [ Abs: 0.00077  Tot: -0.00007 ]
LCAOMinimize: Iter:  13  F: -2312.6690384339790398  |grad|_K:  7.728e-04  alpha:  3.097e-02  linmin: -4.108e-03  cgtest:  5.067e-02  t[s]:   1216.61
	FillingsUpdate:  mu: +0.114153797  nElectrons: 416.000000  magneticMoment: [ Abs: 0.00077  Tot: -0.00007 ]
LCAOMinimize: Iter:  14  F: -2312.6828816759607435  |grad|_K:  6.875e-04  alpha:  6.263e-03  linmin:  5.871e-04  cgtest: -9.813e-02  t[s]:   1293.48
LCAOMinimize: 	Predicted alpha/alphaT>3.000000, increasing alphaT to 1.879007e-02.
	FillingsUpdate:  mu: +0.112624808  nElectrons: 416.000000  magneticMoment: [ Abs: 0.00072  Tot: -0.00005 ]
LCAOMinimize: Iter:  15  F: -2312.7393179819327997  |grad|_K:  9.792e-04  alpha:  3.522e-02  linmin:  2.161e-03  cgtest:  2.913e-01  t[s]:   1390.28
	FillingsUpdate:  mu: +0.183748016  nElectrons: 416.000000  magneticMoment: [ Abs: 0.00069  Tot: -0.00004 ]
LCAOMinimize: Iter:  16  F: -2312.7877527501964323  |grad|_K:  1.141e-03  alpha:  1.487e-02  linmin: -2.249e-04  cgtest:  6.334e-02  t[s]:   1467.16
	FillingsUpdate:  mu: +0.168620033  nElectrons: 416.000000  magneticMoment: [ Abs: 0.00068  Tot: -0.00004 ]
LCAOMinimize: Iter:  17  F: -2312.8092201091531024  |grad|_K:  1.794e-04  alpha:  4.478e-03  linmin: -9.932e-03  cgtest: -8.254e-02  t[s]:   1543.93
LCAOMinimize: 	Predicted alpha/alphaT>3.000000, increasing alphaT to 1.343444e-02.
LCAOMinimize: 	Predicted alpha/alphaT>3.000000, increasing alphaT to 4.030332e-02.
	FillingsUpdate:  mu: +0.146577763  nElectrons: 416.000000  magneticMoment: [ Abs: 0.00067  Tot: -0.00005 ]
LCAOMinimize: Iter:  18  F: -2312.8222299477561137  |grad|_K:  3.229e-04  alpha:  1.101e-01  linmin:  2.571e-04  cgtest: -4.812e-02  t[s]:   1659.81
	FillingsUpdate:  mu: +0.140882202  nElectrons: 416.000000  magneticMoment: [ Abs: 0.00067  Tot: -0.00005 ]
LCAOMinimize: Iter:  19  F: -2312.8237380227305948  |grad|_K:  1.650e-04  alpha:  3.959e-03  linmin: -3.735e-03  cgtest:  1.061e-01  t[s]:   1736.95
LCAOMinimize: 	Predicted alpha/alphaT>3.000000, increasing alphaT to 1.187679e-02.
	FillingsUpdate:  mu: +0.159473514  nElectrons: 416.000000  magneticMoment: [ Abs: 0.00067  Tot: -0.00005 ]
LCAOMinimize: Iter:  20  F: -2312.8263372183496358  |grad|_K:  1.877e-04  alpha:  2.646e-02  linmin:  1.331e-03  cgtest: -8.573e-02  t[s]:   1833.35
	FillingsUpdate:  mu: +0.156363909  nElectrons: 416.000000  magneticMoment: [ Abs: 0.00066  Tot: -0.00005 ]
LCAOMinimize: Iter:  21  F: -2312.8317726632903941  |grad|_K:  1.099e-04  alpha:  4.468e-02  linmin:  3.009e-04  cgtest:  3.346e-01  t[s]:   1910.14
	FillingsUpdate:  mu: +0.150395189  nElectrons: 416.000000  magneticMoment: [ Abs: 0.00066  Tot: -0.00005 ]
LCAOMinimize: Iter:  22  F: -2312.8321790823424635  |grad|_K:  1.218e-04  alpha:  9.586e-03  linmin:  2.726e-04  cgtest: -2.348e-03  t[s]:   1987.38
	FillingsUpdate:  mu: +0.142695287  nElectrons: 416.000000  magneticMoment: [ Abs: 0.00066  Tot: -0.00005 ]
LCAOMinimize: Iter:  23  F: -2312.8326024384582524  |grad|_K:  8.838e-05  alpha:  8.116e-03  linmin: -1.066e-04  cgtest:  5.729e-03  t[s]:   2064.21
LCAOMinimize: 	Predicted alpha/alphaT>3.000000, increasing alphaT to 2.434884e-02.
	FillingsUpdate:  mu: +0.140362784  nElectrons: 416.000000  magneticMoment: [ Abs: 0.00066  Tot: -0.00005 ]
LCAOMinimize: Iter:  24  F: -2312.8334188177027499  |grad|_K:  2.769e-05  alpha:  2.961e-02  linmin:  2.467e-05  cgtest: -8.860e-03  t[s]:   2160.96
	FillingsUpdate:  mu: +0.143355461  nElectrons: 416.000000  magneticMoment: [ Abs: 0.00066  Tot: -0.00005 ]
LCAOMinimize: Iter:  25  F: -2312.8336155579781916  |grad|_K:  6.555e-05  alpha:  7.274e-02  linmin: -9.267e-06  cgtest: -9.938e-04  t[s]:   2237.99
	FillingsUpdate:  mu: +0.142735205  nElectrons: 416.000000  magneticMoment: [ Abs: 0.00066  Tot: -0.00006 ]
LCAOMinimize: Iter:  26  F: -2312.8337137409703246  |grad|_K:  5.250e-05  alpha:  6.285e-03  linmin: -1.489e-03  cgtest:  4.327e-02  t[s]:   2315.26
	FillingsUpdate:  mu: +0.138792732  nElectrons: 416.000000  magneticMoment: [ Abs: 0.00066  Tot: -0.00006 ]
LCAOMinimize: Iter:  27  F: -2312.8338344848407360  |grad|_K:  2.446e-05  alpha:  1.210e-02  linmin:  2.860e-04  cgtest: -1.309e-01  t[s]:   2392.21
	FillingsUpdate:  mu: +0.137809598  nElectrons: 416.000000  magneticMoment: [ Abs: 0.00066  Tot: -0.00006 ]
LCAOMinimize: Iter:  28  F: -2312.8339091044013003  |grad|_K:  3.840e-05  alpha:  3.549e-02  linmin:  2.770e-06  cgtest:  2.337e-02  t[s]:   2469.46
	FillingsUpdate:  mu: +0.137754814  nElectrons: 416.000000  magneticMoment: [ Abs: 0.00066  Tot: -0.00006 ]
LCAOMinimize: Iter:  29  F: -2312.8339339257026950  |grad|_K:  1.931e-05  alpha:  4.724e-03  linmin: -8.185e-04  cgtest:  2.060e-02  t[s]:   2546.18
LCAOMinimize: 	Predicted alpha/alphaT>3.000000, increasing alphaT to 1.417307e-02.
	FillingsUpdate:  mu: +0.138800094  nElectrons: 416.000000  magneticMoment: [ Abs: 0.00066  Tot: -0.00006 ]
LCAOMinimize: Iter:  30  F: -2312.8339649866184118  |grad|_K:  2.059e-05  alpha:  2.340e-02  linmin: -1.434e-05  cgtest: -1.864e-02  t[s]:   2644.00
LCAOMinimize: None of the convergence criteria satisfied after 30 iterations.


---- Citations for features of the code used in this run ----

   Software package:
      R. Sundararaman, K. Letchworth-Weaver, K.A. Schwarz, D. Gunceler, Y. Ozhabes and T.A. Arias, 'JDFTx: software for joint density-functional theory', SoftwareX 6, 278 (2017)

   gga-PBE exchange-correlation functional:
      J.P. Perdew, K. Burke and M. Ernzerhof, Phys. Rev. Lett. 77, 3865 (1996)

   Pseudopotentials:
      KF Garrity, JW Bennett, KM Rabe and D Vanderbilt, Comput. Mater. Sci. 81, 446 (2014)

   DFT-D3 dispersion correction:
      S. Grimme, J. Antony, S. Ehrlich and H. Krieg, J. Chem. Phys. 132, 154104 (2010)

   Total energy minimization with Auxiliary Hamiltonian:
      C. Freysoldt, S. Boeck, and J. Neugebauer, Phys. Rev. B 79, 241103(R) (2009)

   Linear-tetrahedron sampling for density of states:
      G. Lehmann and M. Taut, Phys. status solidi (b) 54, 469 (1972)

This list may not be complete. Please suggest additional citations or
report any other bugs at https://github.com/shankar1729/jdftx/issues

Initialization completed successfully at t[s]:   2659.71


Computing DFT-D3 correction:
# coordination-number Pt 7.154 9.549 8.741 9.560 9.562 9.561 9.562 9.562 9.555 8.713 4.805 9.525 5.594 9.525 9.561 9.555 9.562 9.562 9.549 9.562 9.560 8.741 4.805 8.713 7.154 5.594
# diagonal-C6 Pt 336.87 336.87 336.87 336.87 336.87 336.87 336.87 336.87 336.87 336.87 336.87 336.87 336.87 336.87 336.87 336.87 336.87 336.87 336.87 336.87 336.87 336.87 336.87 336.87 336.87 336.87
EvdW_6 =   -0.233255
EvdW_8 =   -0.376272

-------- Electronic minimization -----------
	FillingsUpdate:  mu: +0.138800322  nElectrons: 416.000000  magneticMoment: [ Abs: 0.00066  Tot: -0.00006 ]
ElecMinimize: Iter:   0  F: -2312.833964986618867  |grad|_K:  3.248e-05  alpha:  1.000e+00
	FillingsUpdate:  mu: +0.173206910  nElectrons: 416.000000  magneticMoment: [ Abs: 0.00053  Tot: -0.00007 ]
	SubspaceRotationAdjust: set factor to 0.519
ElecMinimize: Iter:   1  F: -2313.086380091886440  |grad|_K:  8.600e-05  alpha:  3.927e-01  linmin:  2.211e-06  t[s]:   2839.57
	FillingsUpdate:  mu: +0.207337160  nElectrons: 416.000000  magneticMoment: [ Abs: 0.00051  Tot: -0.00007 ]
	SubspaceRotationAdjust: set factor to 0.243
ElecMinimize: Iter:   2  F: -2313.090580835619221  |grad|_K:  7.620e-05  alpha:  7.323e-03  linmin:  3.257e-03  t[s]:   2953.26
	FillingsUpdate:  mu: +0.218931191  nElectrons: 416.000000  magneticMoment: [ Abs: 0.00050  Tot: -0.00007 ]
	SubspaceRotationAdjust: set factor to 0.136
ElecMinimize: Iter:   3  F: -2313.092240403538653  |grad|_K:  5.461e-05  alpha:  3.843e-03  linmin:  1.033e-07  t[s]:   3066.74
ElecMinimize: 	Predicted alpha/alphaT>3.000000, increasing alphaT to 1.152803e-02.
	FillingsUpdate:  mu: +0.187415705  nElectrons: 416.000000  magneticMoment: [ Abs: 0.00049  Tot: -0.00007 ]
	SubspaceRotationAdjust: set factor to 0.207
ElecMinimize: Iter:   4  F: -2313.113263516721418  |grad|_K:  1.871e-05  alpha:  1.156e-02  linmin:  1.806e-05  t[s]:   3208.88
ElecMinimize: 	Predicted alpha/alphaT>3.000000, increasing alphaT to 3.469383e-02.
	FillingsUpdate:  mu: +0.210487076  nElectrons: 416.000000  magneticMoment: [ Abs: 0.00047  Tot: -0.00007 ]
	SubspaceRotationAdjust: set factor to 0.125
	SubspaceRotationAdjust: resetting CG because factor has changed by 0.125383
ElecMinimize: 	State modified externally: resetting search direction.
ElecMinimize: Iter:   5  F: -2313.125556601324206  |grad|_K:  2.911e-05  alpha:  5.781e-02
	FillingsUpdate:  mu: +0.179726043  nElectrons: 416.000000  magneticMoment: [ Abs: 0.00046  Tot: -0.00007 ]
	SubspaceRotationAdjust: set factor to 0.151
ElecMinimize: Iter:   6  F: -2313.141137654045451  |grad|_K:  1.568e-05  alpha:  3.023e-02  linmin:  8.768e-05  t[s]:   3522.45
ElecMinimize: 	Predicted alpha/alphaT>3.000000, increasing alphaT to 9.067515e-02.
	FillingsUpdate:  mu: +0.142722469  nElectrons: 416.000000  magneticMoment: [ Abs: 0.00041  Tot: -0.00007 ]
	SubspaceRotationAdjust: set factor to 0.112
ElecMinimize: Iter:   7  F: -2313.169902516270213  |grad|_K:  1.195e-05  alpha:  1.921e-01  linmin: -4.168e-05  t[s]:   3664.19
	FillingsUpdate:  mu: +0.162304533  nElectrons: 416.000000  magneticMoment: [ Abs: 0.00037  Tot: -0.00008 ]
	SubspaceRotationAdjust: set factor to 0.0645
ElecMinimize: Iter:   8  F: -2313.179098902519399  |grad|_K:  6.381e-06  alpha:  1.057e-01  linmin:  3.405e-06  t[s]:   3778.36
ElecMinimize: 	Predicted alpha/alphaT>3.000000, increasing alphaT to 3.170910e-01.
	FillingsUpdate:  mu: +0.172947997  nElectrons: 416.000000  magneticMoment: [ Abs: 0.00028  Tot: -0.00008 ]
	SubspaceRotationAdjust: set factor to 0.0402
ElecMinimize: Iter:   9  F: -2313.189868632509388  |grad|_K:  8.617e-06  alpha:  4.340e-01  linmin: -1.781e-06  t[s]:   3920.10
	FillingsUpdate:  mu: +0.159560762  nElectrons: 416.000000  magneticMoment: [ Abs: 0.00025  Tot: -0.00008 ]
	SubspaceRotationAdjust: set factor to 0.0237
ElecMinimize: Iter:  10  F: -2313.192822352958956  |grad|_K:  3.928e-06  alpha:  6.595e-02  linmin:  9.465e-05  t[s]:   4033.23
ElecMinimize: 	Predicted alpha/alphaT>3.000000, increasing alphaT to 1.978520e-01.
	FillingsUpdate:  mu: +0.151727612  nElectrons: 416.000000  magneticMoment: [ Abs: 0.00022  Tot: -0.00008 ]
	SubspaceRotationAdjust: set factor to 0.0233
ElecMinimize: Iter:  11  F: -2313.195388273375556  |grad|_K:  2.524e-06  alpha:  2.756e-01  linmin:  7.514e-06  t[s]:   4175.76
	FillingsUpdate:  mu: +0.152031559  nElectrons: 416.000000  magneticMoment: [ Abs: 0.00021  Tot: -0.00008 ]
	SubspaceRotationAdjust: set factor to 0.0182
ElecMinimize: Iter:  12  F: -2313.196067445577683  |grad|_K:  1.805e-06  alpha:  1.751e-01  linmin:  2.169e-07  t[s]:   4289.17
	FillingsUpdate:  mu: +0.157836506  nElectrons: 416.000000  magneticMoment: [ Abs: 0.00019  Tot: -0.00008 ]
	SubspaceRotationAdjust: set factor to 0.0224
ElecMinimize: Iter:  13  F: -2313.196759494347589  |grad|_K:  1.382e-06  alpha:  3.482e-01  linmin: -4.982e-06  t[s]:   4403.02
	FillingsUpdate:  mu: +0.157144379  nElectrons: 416.000000  magneticMoment: [ Abs: 0.00018  Tot: -0.00008 ]
	SubspaceRotationAdjust: set factor to 0.0203
ElecMinimize: Iter:  14  F: -2313.197094797196769  |grad|_K:  1.272e-06  alpha:  2.878e-01  linmin: -3.477e-07  t[s]:   4516.03
	FillingsUpdate:  mu: +0.153547202  nElectrons: 416.000000  magneticMoment: [ Abs: 0.00017  Tot: -0.00008 ]
	SubspaceRotationAdjust: set factor to 0.0236
ElecMinimize: Iter:  15  F: -2313.197348178070115  |grad|_K:  7.815e-07  alpha:  2.567e-01  linmin:  1.422e-06  t[s]:   4629.64
	FillingsUpdate:  mu: +0.153222593  nElectrons: 416.000000  magneticMoment: [ Abs: 0.00017  Tot: -0.00008 ]
	SubspaceRotationAdjust: set factor to 0.0218
ElecMinimize: Iter:  16  F: -2313.197503132664224  |grad|_K:  8.917e-07  alpha:  4.163e-01  linmin:  1.358e-06  t[s]:   4744.05
	FillingsUpdate:  mu: +0.153710364  nElectrons: 416.000000  magneticMoment: [ Abs: 0.00016  Tot: -0.00008 ]
	SubspaceRotationAdjust: set factor to 0.0192
ElecMinimize: Iter:  17  F: -2313.197633301644146  |grad|_K:  8.405e-07  alpha:  2.687e-01  linmin:  6.013e-08  t[s]:   4857.64
	FillingsUpdate:  mu: +0.154235256  nElectrons: 416.000000  magneticMoment: [ Abs: 0.00016  Tot: -0.00008 ]
	SubspaceRotationAdjust: set factor to 0.0249
ElecMinimize: Iter:  18  F: -2313.197841100121423  |grad|_K:  8.565e-07  alpha:  4.827e-01  linmin:  1.929e-06  t[s]:   4972.07
	FillingsUpdate:  mu: +0.152881830  nElectrons: 416.000000  magneticMoment: [ Abs: 0.00016  Tot: -0.00008 ]
	SubspaceRotationAdjust: set factor to 0.0222
ElecMinimize: Iter:  19  F: -2313.197996298160888  |grad|_K:  9.728e-07  alpha:  3.473e-01  linmin:  7.338e-07  t[s]:   5085.46
	FillingsUpdate:  mu: +0.150741514  nElectrons: 416.000000  magneticMoment: [ Abs: 0.00016  Tot: -0.00008 ]
	SubspaceRotationAdjust: set factor to 0.0217
ElecMinimize: Iter:  20  F: -2313.198182968019410  |grad|_K:  8.693e-07  alpha:  3.237e-01  linmin:  1.612e-06  t[s]:   5199.05
	FillingsUpdate:  mu: +0.151413791  nElectrons: 416.000000  magneticMoment: [ Abs: 0.00016  Tot: -0.00008 ]
	SubspaceRotationAdjust: set factor to 0.0233
ElecMinimize: Iter:  21  F: -2313.198496860050454  |grad|_K:  1.130e-06  alpha:  6.822e-01  linmin:  6.869e-07  t[s]:   5312.76
	FillingsUpdate:  mu: +0.151007575  nElectrons: 416.000000  magneticMoment: [ Abs: 0.00015  Tot: -0.00008 ]
	SubspaceRotationAdjust: set factor to 0.0186
ElecMinimize: Iter:  22  F: -2313.198729501633352  |grad|_K:  1.047e-06  alpha:  2.991e-01  linmin:  1.821e-07  t[s]:   5426.25
	FillingsUpdate:  mu: +0.148741250  nElectrons: 416.000000  magneticMoment: [ Abs: 0.00015  Tot: -0.00008 ]
	SubspaceRotationAdjust: set factor to 0.0179
ElecMinimize: Iter:  23  F: -2313.198945959430148  |grad|_K:  8.096e-07  alpha:  3.239e-01  linmin: -9.500e-08  t[s]:   5539.91
	FillingsUpdate:  mu: +0.147279339  nElectrons: 416.000000  magneticMoment: [ Abs: 0.00013  Tot: -0.00008 ]
	SubspaceRotationAdjust: set factor to 0.019
ElecMinimize: Iter:  24  F: -2313.199130387718469  |grad|_K:  7.506e-07  alpha:  4.615e-01  linmin: -9.455e-07  t[s]:   5653.80
	FillingsUpdate:  mu: +0.147384227  nElectrons: 416.000000  magneticMoment: [ Abs: 0.00012  Tot: -0.00008 ]
	SubspaceRotationAdjust: set factor to 0.0154
	SubspaceRotationAdjust: resetting CG because factor has changed by 0.122777
ElecMinimize: 	State modified externally: resetting search direction.
ElecMinimize: Iter:  25  F: -2313.199241868935133  |grad|_K:  6.154e-07  alpha:  3.245e-01
	FillingsUpdate:  mu: +0.147507671  nElectrons: 416.000000  magneticMoment: [ Abs: 0.00012  Tot: -0.00008 ]
	SubspaceRotationAdjust: set factor to 0.021
ElecMinimize: Iter:  26  F: -2313.199300684926584  |grad|_K:  3.436e-07  alpha:  2.547e-01  linmin:  1.297e-07  t[s]:   5940.08
	FillingsUpdate:  mu: +0.147765099  nElectrons: 416.000000  magneticMoment: [ Abs: 0.00012  Tot: -0.00008 ]
	SubspaceRotationAdjust: set factor to 0.0176
ElecMinimize: Iter:  27  F: -2313.199335004280783  |grad|_K:  3.224e-07  alpha:  4.769e-01  linmin:  5.839e-07  t[s]:   6053.87
	FillingsUpdate:  mu: +0.147882616  nElectrons: 416.000000  magneticMoment: [ Abs: 0.00011  Tot: -0.00008 ]
	SubspaceRotationAdjust: set factor to 0.0147
ElecMinimize: Iter:  28  F: -2313.199363705190081  |grad|_K:  2.614e-07  alpha:  4.530e-01  linmin:  1.203e-08  t[s]:   6167.49
	FillingsUpdate:  mu: +0.147793072  nElectrons: 416.000000  magneticMoment: [ Abs: 0.00011  Tot: -0.00008 ]
	SubspaceRotationAdjust: set factor to 0.012
ElecMinimize: Iter:  29  F: -2313.199383506208505  |grad|_K:  2.017e-07  alpha:  4.755e-01  linmin: -1.075e-07  t[s]:   6281.31
	FillingsUpdate:  mu: +0.147880922  nElectrons: 416.000000  magneticMoment: [ Abs: 0.00011  Tot: -0.00008 ]
	SubspaceRotationAdjust: set factor to 0.0105
ElecMinimize: Iter:  30  F: -2313.199394958117864  |grad|_K:  1.699e-07  alpha:  4.615e-01  linmin:  1.495e-08  t[s]:   6394.76
	FillingsUpdate:  mu: +0.148008479  nElectrons: 416.000000  magneticMoment: [ Abs: 0.00011  Tot: -0.00007 ]
	SubspaceRotationAdjust: set factor to 0.012
ElecMinimize: Iter:  31  F: -2313.199405167682016  |grad|_K:  1.353e-07  alpha:  5.801e-01  linmin:  4.113e-07  t[s]:   6508.70
	FillingsUpdate:  mu: +0.147924432  nElectrons: 416.000000  magneticMoment: [ Abs: 0.00011  Tot: -0.00007 ]
	SubspaceRotationAdjust: set factor to 0.0141
ElecMinimize: Iter:  32  F: -2313.199413029195966  |grad|_K:  1.222e-07  alpha:  7.050e-01  linmin:  2.393e-07  t[s]:   6622.40
	FillingsUpdate:  mu: +0.148271914  nElectrons: 416.000000  magneticMoment: [ Abs: 0.00011  Tot: -0.00007 ]
	SubspaceRotationAdjust: set factor to 0.0145
ElecMinimize: Iter:  33  F: -2313.199420785264465  |grad|_K:  1.537e-07  alpha:  8.526e-01  linmin:  3.840e-07  t[s]:   6735.97
	FillingsUpdate:  mu: +0.148451276  nElectrons: 416.000000  magneticMoment: [ Abs: 0.00011  Tot: -0.00007 ]
	SubspaceRotationAdjust: set factor to 0.0127
ElecMinimize: Iter:  34  F: -2313.199429680201774  |grad|_K:  1.797e-07  alpha:  6.174e-01  linmin: -2.165e-08  t[s]:   6849.87
	FillingsUpdate:  mu: +0.148259582  nElectrons: 416.000000  magneticMoment: [ Abs: 0.00010  Tot: -0.00007 ]
	SubspaceRotationAdjust: set factor to 0.0113
ElecMinimize: Iter:  35  F: -2313.199441498734814  |grad|_K:  1.735e-07  alpha:  6.000e-01  linmin: -2.261e-07  t[s]:   6963.45
	FillingsUpdate:  mu: +0.148328724  nElectrons: 416.000000  magneticMoment: [ Abs: 0.00010  Tot: -0.00007 ]
	SubspaceRotationAdjust: set factor to 0.0123
ElecMinimize: Iter:  36  F: -2313.199454614601564  |grad|_K:  1.676e-07  alpha:  7.142e-01  linmin: -6.992e-07  t[s]:   7078.19
	FillingsUpdate:  mu: +0.148807305  nElectrons: 416.000000  magneticMoment: [ Abs: 0.00010  Tot: -0.00007 ]
	SubspaceRotationAdjust: set factor to 0.0126
ElecMinimize: Iter:  37  F: -2313.199465920054990  |grad|_K:  1.352e-07  alpha:  6.598e-01  linmin: -3.949e-07  t[s]:   7191.91
	FillingsUpdate:  mu: +0.148809891  nElectrons: 416.000000  magneticMoment: [ Abs: 0.00009  Tot: -0.00007 ]
	SubspaceRotationAdjust: set factor to 0.0125
ElecMinimize: Iter:  38  F: -2313.199472010558111  |grad|_K:  1.167e-07  alpha:  5.463e-01  linmin: -1.904e-07  t[s]:   7305.22
	FillingsUpdate:  mu: +0.148748303  nElectrons: 416.000000  magneticMoment: [ Abs: 0.00009  Tot: -0.00007 ]
	SubspaceRotationAdjust: set factor to 0.0118
ElecMinimize: Iter:  39  F: -2313.199476835266978  |grad|_K:  1.143e-07  alpha:  5.805e-01  linmin: -3.988e-08  t[s]:   7419.89
	FillingsUpdate:  mu: +0.148812134  nElectrons: 416.000000  magneticMoment: [ Abs: 0.00009  Tot: -0.00007 ]
	SubspaceRotationAdjust: set factor to 0.0127
ElecMinimize: Iter:  40  F: -2313.199481075386302  |grad|_K:  9.562e-08  alpha:  5.323e-01  linmin:  3.499e-08  t[s]:   7533.29
	FillingsUpdate:  mu: +0.148815196  nElectrons: 416.000000  magneticMoment: [ Abs: 0.00009  Tot: -0.00007 ]
	SubspaceRotationAdjust: set factor to 0.0147
ElecMinimize: Iter:  41  F: -2313.199485405591531  |grad|_K:  9.596e-08  alpha:  7.766e-01  linmin: -2.308e-07  t[s]:   7647.11
	FillingsUpdate:  mu: +0.148649033  nElectrons: 416.000000  magneticMoment: [ Abs: 0.00009  Tot: -0.00007 ]
	SubspaceRotationAdjust: set factor to 0.016
ElecMinimize: Iter:  42  F: -2313.199489713536423  |grad|_K:  1.093e-07  alpha:  7.671e-01  linmin: -6.843e-08  t[s]:   7761.57
	FillingsUpdate:  mu: +0.148602342  nElectrons: 416.000000  magneticMoment: [ Abs: 0.00009  Tot: -0.00007 ]
	SubspaceRotationAdjust: set factor to 0.0148
ElecMinimize: Iter:  43  F: -2313.199494992430573  |grad|_K:  1.370e-07  alpha:  7.253e-01  linmin: -1.469e-07  t[s]:   7875.08
	FillingsUpdate:  mu: +0.148564278  nElectrons: 416.000000  magneticMoment: [ Abs: 0.00009  Tot: -0.00006 ]
	SubspaceRotationAdjust: set factor to 0.0116
ElecMinimize: Iter:  44  F: -2313.199499954759176  |grad|_K:  1.137e-07  alpha:  4.337e-01  linmin:  1.996e-07  t[s]:   7989.18
	FillingsUpdate:  mu: +0.148442600  nElectrons: 416.000000  magneticMoment: [ Abs: 0.00008  Tot: -0.00006 ]
	SubspaceRotationAdjust: set factor to 0.012
ElecMinimize: Iter:  45  F: -2313.199503835041924  |grad|_K:  8.038e-08  alpha:  4.923e-01  linmin: -1.414e-08  t[s]:   8102.55
	FillingsUpdate:  mu: +0.148398652  nElectrons: 416.000000  magneticMoment: [ Abs: 0.00008  Tot: -0.00006 ]
	SubspaceRotationAdjust: set factor to 0.013
ElecMinimize: Iter:  46  F: -2313.199506450256195  |grad|_K:  7.364e-08  alpha:  6.642e-01  linmin:  1.665e-07  t[s]:   8216.29
	FillingsUpdate:  mu: +0.148398163  nElectrons: 416.000000  magneticMoment: [ Abs: 0.00008  Tot: -0.00006 ]
	SubspaceRotationAdjust: set factor to 0.0127
ElecMinimize: Iter:  47  F: -2313.199508399873594  |grad|_K:  6.879e-08  alpha:  5.897e-01  linmin:  2.921e-07  t[s]:   8330.98
	FillingsUpdate:  mu: +0.148367351  nElectrons: 416.000000  magneticMoment: [ Abs: 0.00007  Tot: -0.00006 ]
	SubspaceRotationAdjust: set factor to 0.0111
ElecMinimize: Iter:  48  F: -2313.199509735532956  |grad|_K:  5.575e-08  alpha:  4.632e-01  linmin: -7.215e-08  t[s]:   8444.34
	FillingsUpdate:  mu: +0.148337710  nElectrons: 416.000000  magneticMoment: [ Abs: 0.00007  Tot: -0.00006 ]
	SubspaceRotationAdjust: set factor to 0.0117
ElecMinimize: Iter:  49  F: -2313.199510732648832  |grad|_K:  4.310e-08  alpha:  5.265e-01  linmin:  1.661e-07  t[s]:   8558.20
	FillingsUpdate:  mu: +0.148343302  nElectrons: 416.000000  magneticMoment: [ Abs: 0.00007  Tot: -0.00006 ]
	SubspaceRotationAdjust: set factor to 0.0138
ElecMinimize: Iter:  50  F: -2313.199511446604447  |grad|_K:  3.906e-08  alpha:  6.309e-01  linmin:  4.348e-07  t[s]:   8673.08
	FillingsUpdate:  mu: +0.148324911  nElectrons: 416.000000  magneticMoment: [ Abs: 0.00007  Tot: -0.00006 ]
	SubspaceRotationAdjust: set factor to 0.0147
ElecMinimize: Iter:  51  F: -2313.199511999332572  |grad|_K:  3.687e-08  alpha:  5.945e-01  linmin: -1.670e-07  t[s]:   8786.54
	FillingsUpdate:  mu: +0.148310237  nElectrons: 416.000000  magneticMoment: [ Abs: 0.00007  Tot: -0.00006 ]
	SubspaceRotationAdjust: set factor to 0.0134
ElecMinimize: Iter:  52  F: -2313.199512435239285  |grad|_K:  3.848e-08  alpha:  5.260e-01  linmin:  3.641e-07  t[s]:   8899.92
	FillingsUpdate:  mu: +0.148317786  nElectrons: 416.000000  magneticMoment: [ Abs: 0.00007  Tot: -0.00006 ]
	SubspaceRotationAdjust: set factor to 0.0125
ElecMinimize: Iter:  53  F: -2313.199512952186979  |grad|_K:  3.465e-08  alpha:  5.731e-01  linmin: -6.227e-08  t[s]:   9013.20
	FillingsUpdate:  mu: +0.148334377  nElectrons: 416.000000  magneticMoment: [ Abs: 0.00007  Tot: -0.00006 ]
	SubspaceRotationAdjust: set factor to 0.0134
ElecMinimize: Iter:  54  F: -2313.199513417082017  |grad|_K:  2.889e-08  alpha:  6.350e-01  linmin:  3.245e-07  t[s]:   9127.00
	FillingsUpdate:  mu: +0.148343663  nElectrons: 416.000000  magneticMoment: [ Abs: 0.00007  Tot: -0.00006 ]
	SubspaceRotationAdjust: set factor to 0.0139
ElecMinimize: Iter:  55  F: -2313.199513729493447  |grad|_K:  2.411e-08  alpha:  6.142e-01  linmin:  4.570e-07  t[s]:   9240.52
	FillingsUpdate:  mu: +0.148350014  nElectrons: 416.000000  magneticMoment: [ Abs: 0.00007  Tot: -0.00006 ]
	SubspaceRotationAdjust: set factor to 0.012
ElecMinimize: Iter:  56  F: -2313.199513889973787  |grad|_K:  1.930e-08  alpha:  4.538e-01  linmin: -6.217e-07  t[s]:   9354.08
	FillingsUpdate:  mu: +0.148354480  nElectrons: 416.000000  magneticMoment: [ Abs: 0.00007  Tot: -0.00006 ]
	SubspaceRotationAdjust: set factor to 0.01
ElecMinimize: Iter:  57  F: -2313.199513988737181  |grad|_K:  1.426e-08  alpha:  4.343e-01  linmin:  1.447e-07  t[s]:   9467.26
	FillingsUpdate:  mu: +0.148358651  nElectrons: 416.000000  magneticMoment: [ Abs: 0.00006  Tot: -0.00006 ]
	SubspaceRotationAdjust: set factor to 0.0113
ElecMinimize: Iter:  58  F: -2313.199514053855637  |grad|_K:  1.102e-08  alpha:  5.276e-01  linmin:  2.243e-06  t[s]:   9581.71
ElecMinimize: Converged (|Delta F|<1.000000e-07 for 2 iters).
Setting wave functions to eigenvectors of Hamiltonian
Converging empty states (this may take a while): |deigs|: 2.430e-03

Computing DFT-D3 correction:
# coordination-number Pt 7.154 9.549 8.741 9.560 9.562 9.561 9.562 9.562 9.555 8.713 4.805 9.525 5.594 9.525 9.561 9.555 9.562 9.562 9.549 9.562 9.560 8.741 4.805 8.713 7.154 5.594
# diagonal-C6 Pt 336.87 336.87 336.87 336.87 336.87 336.87 336.87 336.87 336.87 336.87 336.87 336.87 336.87 336.87 336.87 336.87 336.87 336.87 336.87 336.87 336.87 336.87 336.87 336.87 336.87 336.87
EvdW_6 =   -0.233255
EvdW_8 =   -0.376272

# Ionic positions in cartesian coordinates:
ion Pt  -0.000004000000000  10.260789999999998  24.112843999999996 1
ion Pt   0.000000000000000   4.104311000000000  20.008534000000001 1
ion Pt   3.699579000000000   7.182556999999998  22.060688999999996 1
ion Pt   3.699583000000000   1.026078000000000  17.956378000000001 1
ion Pt  -0.000004000000000   8.208634999999999  13.852067999999997 1
ion Pt   0.000000000000000   2.052155000000000   9.747757000000000 1
ion Pt   3.699579000000000  11.286867999999998  15.904222999999998 1
ion Pt   3.699583000000000   5.130387999999999  11.799912999999998 1
ion Pt  -0.000004000000000  12.312944999999997   7.695601999999999 1
ion Pt   0.000000000000000   6.156465999999998   3.591292000000000 1
ion Pt   0.000000000000000   0.000000000000000  26.164998999999998 1
ion Pt   3.699579000000000   9.234711999999998   5.643447000000000 1
ion Pt   3.699583000000000   3.078232999999999   1.539136000000000 1
ion Pt   3.699574999999999  12.312944999999997  21.034651000000000 1
ion Pt   3.699579000000000   6.156465999999998  16.930260999999998 1
ion Pt   0.000000000000000   9.234711999999998  18.982415999999997 1
ion Pt   0.000004000000000   3.078232999999999  14.878104999999998 1
ion Pt   3.699575000000000  10.260789999999998  10.773795000000000 1
ion Pt   3.699578999999999   4.104311000000000   6.669484999999999 1
ion Pt   0.000000000000000  13.339022999999996  12.825950000000001 1
ion Pt   0.000000000000000   7.182556999999998   8.721639999999999 1
ion Pt   0.000004000000000   1.026078000000000   4.617329000000000 1
ion Pt   3.699575000000000   8.208634999999999   0.513019000000000 1
ion Pt   3.699579000000000   2.052155000000000  23.086805999999999 1
ion Pt   0.000000000000000  11.286867999999998   2.565174000000000 1
ion Pt   0.000004000000000   5.130387999999999  25.138961999999996 1

# Forces in Cartesian coordinates:
force Pt  -0.000155981179044  -0.003858336867312   0.012987751848851 1
force Pt   0.000073850115670   0.000340658262631  -0.002283037239958 1
force Pt   0.000098574890608   0.005213874278864   0.017329749370939 1
force Pt  -0.000094222460318  -0.000561663080712  -0.003451316175055 1
force Pt   0.000020855560461   0.000394107132187   0.000602161134441 1
force Pt   0.000300817669269   0.001225231901155   0.004341001026599 1
force Pt  -0.000115185629569  -0.000833794919110   0.000602077269879 1
force Pt   0.000096099851209  -0.000119076796777  -0.001678316361684 1
force Pt  -0.000165485153644   0.000869689566360   0.002540099046422 1
force Pt   0.000263337912281   0.000080001938775  -0.016322116276649 1
force Pt   0.000214380447366  -0.000642962835375  -0.021669711074288 1
force Pt  -0.000199408147653  -0.000113093339157   0.002537436671143 1
force Pt  -0.000023869044768  -0.002239421753943   0.012036855687778 1
force Pt   0.000194334038694   0.000136877496435  -0.002578481417737 1
force Pt  -0.000293478004409  -0.001200066341920  -0.004345683904284 1
force Pt   0.000158905236605  -0.000844040886700  -0.002558484334201 1
force Pt  -0.000097487335553   0.000131501430424   0.001689471743411 1
force Pt   0.000123507341651   0.000818019190287  -0.000594132141471 1
force Pt  -0.000082649722566  -0.000367895277504   0.002261410252186 1
force Pt  -0.000027531801797  -0.000403282997598  -0.000585276375996 1
force Pt   0.000095750233293   0.000536200908532   0.003436436358872 1
force Pt  -0.000097361816490  -0.005226384184237  -0.017374563161523 1
force Pt  -0.000219162888301   0.000628265293095   0.021587480771643 1
force Pt  -0.000247052485648  -0.000048247540945   0.016279386329997 1
force Pt   0.000160126732890   0.003840502273387  -0.013020713486941 1
force Pt   0.000021169878135   0.002242491134691  -0.012106741306136 1

# Energy components:
   Eewald =    30657.9513292106094013
       EH =    32755.6514478099670669
     Eloc =   -66128.0957976536301430
      Enl =      -27.5290548280230354
     EvdW =       -0.6095272310142550
      Exc =     -739.6535502170399923
 Exc_core =      426.1759184226523871
       KE =      742.9141574541923774
-------------------------------------
     Etot =    -2313.1950770322864628
       TS =        0.0044370215691372
-------------------------------------
        F =    -2313.1995140538556370


Dumping 'jdft.fillings' ... done
Dumping 'jdft.wfns' ... done
Dumping 'jdft.ionpos' ... done
Dumping 'jdft.lattice' ... done
Dumping 'jdft.eigenvals' ... done
Dumping 'jdft.eigStats' ... 
	eMin: -1.801557 at state 54 ( [ +0.444444 +0.500000 +0.000000 ] spin -1 )
	HOMO: +0.148315 at state 4 ( [ +0.111111 +0.000000 +0.000000 ] spin 1 )
	mu  : +0.148359
	LUMO: +0.148455 at state 71 ( [ -0.111111 -0.250000 +0.000000 ] spin -1 )
	eMax: +0.433043 at state 68 ( [ -0.111111 +0.000000 +0.000000 ] spin -1 )
	HOMO-LUMO gap: +0.000141
	Optical gap  : +0.000279 at state 13 ( [ +0.333333 +0.250000 +0.000000 ] spin 1 )
Dumping 'jdft.Ecomponents' ... done
IonicMinimize: Iter:   0  F: -2313.199514053855637  |grad|_K:  6.104e-03  t[s]:  10093.25

#--- Lowdin population analysis ---
# oxidation-state Pt -0.026 +0.011 -0.027 +0.011 +0.006 +0.006 +0.010 +0.011 +0.010 -0.054 +0.092 -0.008 +0.079 -0.007 +0.008 +0.012 +0.012 +0.009 +0.010 +0.006 +0.010 -0.027 +0.095 -0.055 -0.025 +0.077
# magnetic-moments Pt -0.000 -0.000 -0.000 -0.000 -0.000 -0.000 -0.000 -0.000 -0.000 -0.000 -0.000 -0.000 -0.000 -0.000 -0.000 -0.000 -0.000 -0.000 -0.000 -0.000 -0.000 -0.000 -0.000 -0.000 -0.000 -0.000


Computing DFT-D3 correction:
# coordination-number Pt 7.158 9.531 8.729 9.552 9.567 9.554 9.566 9.568 9.538 8.710 4.855 9.517 5.635 9.517 9.554 9.538 9.568 9.566 9.531 9.567 9.552 8.729 4.855 8.710 7.157 5.635
# diagonal-C6 Pt 336.87 336.87 336.87 336.87 336.87 336.87 336.87 336.87 336.87 336.87 336.87 336.87 336.87 336.87 336.87 336.87 336.87 336.87 336.87 336.87 336.87 336.87 336.87 336.87 336.87 336.87
EvdW_6 =   -0.233255
EvdW_8 =   -0.376207

-------- Electronic minimization -----------
	FillingsUpdate:  mu: +0.148610501  nElectrons: 416.000000  magneticMoment: [ Abs: 0.00005  Tot: -0.00005 ]
ElecMinimize: Iter:   0  F: -2313.091983305330814  |grad|_K:  2.246e-05  alpha:  1.000e+00
	FillingsUpdate:  mu: +0.141177114  nElectrons: 416.000000  magneticMoment: [ Abs: 0.00005  Tot: -0.00005 ]
	SubspaceRotationAdjust: set factor to 0.0112
ElecMinimize: Iter:   1  F: -2313.189816844274446  |grad|_K:  5.642e-06  alpha:  3.188e-01  linmin:  4.119e-03  t[s]:  10299.50
	FillingsUpdate:  mu: +0.146370471  nElectrons: 416.000000  magneticMoment: [ Abs: 0.00005  Tot: -0.00005 ]
	SubspaceRotationAdjust: set factor to 0.0116
ElecMinimize: Iter:   2  F: -2313.196562206180715  |grad|_K:  1.933e-06  alpha:  3.482e-01  linmin: -1.355e-04  t[s]:  10413.29
	FillingsUpdate:  mu: +0.147173719  nElectrons: 416.000000  magneticMoment: [ Abs: 0.00005  Tot: -0.00005 ]
	SubspaceRotationAdjust: set factor to 0.0132
ElecMinimize: Iter:   3  F: -2313.197453098233382  |grad|_K:  8.366e-07  alpha:  3.909e-01  linmin: -6.368e-06  t[s]:  10527.09
	FillingsUpdate:  mu: +0.147385700  nElectrons: 416.000000  magneticMoment: [ Abs: 0.00005  Tot: -0.00005 ]
	SubspaceRotationAdjust: set factor to 0.0159
ElecMinimize: Iter:   4  F: -2313.197724016139091  |grad|_K:  6.946e-07  alpha:  6.350e-01  linmin: -9.546e-07  t[s]:  10640.57
	FillingsUpdate:  mu: +0.148021473  nElectrons: 416.000000  magneticMoment: [ Abs: 0.00005  Tot: -0.00005 ]
	SubspaceRotationAdjust: set factor to 0.0212
ElecMinimize: Iter:   5  F: -2313.197902595341930  |grad|_K:  5.761e-07  alpha:  6.071e-01  linmin:  5.702e-07  t[s]:  10754.56
	FillingsUpdate:  mu: +0.148393781  nElectrons: 416.000000  magneticMoment: [ Abs: 0.00005  Tot: -0.00005 ]
	SubspaceRotationAdjust: set factor to 0.0253
ElecMinimize: Iter:   6  F: -2313.198087067866709  |grad|_K:  7.743e-07  alpha:  9.119e-01  linmin:  5.109e-07  t[s]:  10868.31
	FillingsUpdate:  mu: +0.148222090  nElectrons: 416.000000  magneticMoment: [ Abs: 0.00005  Tot: -0.00005 ]
	SubspaceRotationAdjust: set factor to 0.0255
ElecMinimize: Iter:   7  F: -2313.198474950266245  |grad|_K:  1.376e-06  alpha:  1.061e+00  linmin: -6.039e-06  t[s]:  10982.98
	FillingsUpdate:  mu: +0.148352784  nElectrons: 416.000000  magneticMoment: [ Abs: 0.00005  Tot: -0.00004 ]
	SubspaceRotationAdjust: set factor to 0.0195
ElecMinimize: Iter:   8  F: -2313.198830311524489  |grad|_K:  1.473e-06  alpha:  3.073e-01  linmin: -8.067e-06  t[s]:  11096.73
	FillingsUpdate:  mu: +0.149982635  nElectrons: 416.000000  magneticMoment: [ Abs: 0.00005  Tot: -0.00004 ]
	SubspaceRotationAdjust: set factor to 0.0181
ElecMinimize: Iter:   9  F: -2313.199635038721226  |grad|_K:  1.462e-06  alpha:  6.101e-01  linmin:  4.069e-05  t[s]:  11210.19
	FillingsUpdate:  mu: +0.150318659  nElectrons: 416.000000  magneticMoment: [ Abs: 0.00004  Tot: -0.00004 ]
	SubspaceRotationAdjust: set factor to 0.0184
ElecMinimize: Iter:  10  F: -2313.200634608655946  |grad|_K:  1.398e-06  alpha:  7.741e-01  linmin: -8.372e-06  t[s]:  11324.47
	FillingsUpdate:  mu: +0.150470001  nElectrons: 416.000000  magneticMoment: [ Abs: 0.00004  Tot: -0.00004 ]
	SubspaceRotationAdjust: set factor to 0.019
ElecMinimize: Iter:  11  F: -2313.201348759766006  |grad|_K:  1.059e-06  alpha:  5.985e-01  linmin: -7.540e-07  t[s]:  11438.22
	FillingsUpdate:  mu: +0.150445264  nElectrons: 416.000000  magneticMoment: [ Abs: 0.00004  Tot: -0.00004 ]
	SubspaceRotationAdjust: set factor to 0.0199
ElecMinimize: Iter:  12  F: -2313.201742444062802  |grad|_K:  8.005e-07  alpha:  5.762e-01  linmin: -4.224e-07  t[s]:  11552.25
	FillingsUpdate:  mu: +0.149812596  nElectrons: 416.000000  magneticMoment: [ Abs: 0.00004  Tot: -0.00004 ]
	SubspaceRotationAdjust: set factor to 0.0212
ElecMinimize: Iter:  13  F: -2313.201956084616995  |grad|_K:  5.445e-07  alpha:  5.469e-01  linmin: -5.503e-06  t[s]:  11666.61
	FillingsUpdate:  mu: +0.149657902  nElectrons: 416.000000  magneticMoment: [ Abs: 0.00004  Tot: -0.00004 ]
	SubspaceRotationAdjust: set factor to 0.0205
ElecMinimize: Iter:  14  F: -2313.202044284830663  |grad|_K:  4.548e-07  alpha:  4.878e-01  linmin:  1.364e-07  t[s]:  11780.10
	FillingsUpdate:  mu: +0.149534491  nElectrons: 416.000000  magneticMoment: [ Abs: 0.00004  Tot: -0.00004 ]
	SubspaceRotationAdjust: set factor to 0.0159
ElecMinimize: Iter:  15  F: -2313.202080924154870  |grad|_K:  3.838e-07  alpha:  2.906e-01  linmin:  7.445e-07  t[s]:  11894.31
	FillingsUpdate:  mu: +0.149335928  nElectrons: 416.000000  magneticMoment: [ Abs: 0.00004  Tot: -0.00004 ]
	SubspaceRotationAdjust: set factor to 0.0169
ElecMinimize: Iter:  16  F: -2313.202116640178701  |grad|_K:  2.558e-07  alpha:  3.977e-01  linmin: -4.007e-07  t[s]:  12007.69
	FillingsUpdate:  mu: +0.149253450  nElectrons: 416.000000  magneticMoment: [ Abs: 0.00004  Tot: -0.00004 ]
	SubspaceRotationAdjust: set factor to 0.0217
ElecMinimize: Iter:  17  F: -2313.202138826686678  |grad|_K:  2.044e-07  alpha:  5.562e-01  linmin:  4.836e-08  t[s]:  12121.29
	FillingsUpdate:  mu: +0.149100472  nElectrons: 416.000000  magneticMoment: [ Abs: 0.00004  Tot: -0.00004 ]
	SubspaceRotationAdjust: set factor to 0.0225
ElecMinimize: Iter:  18  F: -2313.202154552583579  |grad|_K:  2.254e-07  alpha:  6.173e-01  linmin: -5.726e-06  t[s]:  12236.46
	FillingsUpdate:  mu: +0.148969693  nElectrons: 416.000000  magneticMoment: [ Abs: 0.00004  Tot: -0.00004 ]
	SubspaceRotationAdjust: set factor to 0.0195
ElecMinimize: Iter:  19  F: -2313.202164683463707  |grad|_K:  2.236e-07  alpha:  3.270e-01  linmin:  4.314e-07  t[s]:  12350.30
	FillingsUpdate:  mu: +0.148789490  nElectrons: 416.000000  magneticMoment: [ Abs: 0.00004  Tot: -0.00004 ]
	SubspaceRotationAdjust: set factor to 0.0202
ElecMinimize: Iter:  20  F: -2313.202178007641578  |grad|_K:  1.814e-07  alpha:  4.372e-01  linmin: -1.011e-05  t[s]:  12463.98
	FillingsUpdate:  mu: +0.148618512  nElectrons: 416.000000  magneticMoment: [ Abs: 0.00004  Tot: -0.00003 ]
	SubspaceRotationAdjust: set factor to 0.0227
ElecMinimize: Iter:  21  F: -2313.202192079213546  |grad|_K:  1.714e-07  alpha:  7.015e-01  linmin: -5.523e-06  t[s]:  12578.80
	FillingsUpdate:  mu: +0.148491298  nElectrons: 416.000000  magneticMoment: [ Abs: 0.00004  Tot: -0.00003 ]
	SubspaceRotationAdjust: set factor to 0.0248
ElecMinimize: Iter:  22  F: -2313.202204268767673  |grad|_K:  1.573e-07  alpha:  6.801e-01  linmin: -4.615e-07  t[s]:  12692.67
	FillingsUpdate:  mu: +0.148433796  nElectrons: 416.000000  magneticMoment: [ Abs: 0.00004  Tot: -0.00003 ]
	SubspaceRotationAdjust: set factor to 0.0221
ElecMinimize: Iter:  23  F: -2313.202210780739733  |grad|_K:  1.769e-07  alpha:  4.318e-01  linmin: -9.827e-08  t[s]:  12807.17
	FillingsUpdate:  mu: +0.148367270  nElectrons: 416.000000  magneticMoment: [ Abs: 0.00004  Tot: -0.00003 ]
	SubspaceRotationAdjust: set factor to 0.0176
ElecMinimize: Iter:  24  F: -2313.202215785262524  |grad|_K:  1.305e-07  alpha:  2.624e-01  linmin:  5.763e-08  t[s]:  12920.73
	FillingsUpdate:  mu: +0.148283652  nElectrons: 416.000000  magneticMoment: [ Abs: 0.00004  Tot: -0.00003 ]
	SubspaceRotationAdjust: set factor to 0.0218
ElecMinimize: Iter:  25  F: -2313.202221338490745  |grad|_K:  1.000e-07  alpha:  5.353e-01  linmin:  4.083e-06  t[s]:  13034.30
	FillingsUpdate:  mu: +0.148280923  nElectrons: 416.000000  magneticMoment: [ Abs: 0.00004  Tot: -0.00003 ]
	SubspaceRotationAdjust: set factor to 0.0259
ElecMinimize: Iter:  26  F: -2313.202225173842180  |grad|_K:  9.778e-08  alpha:  6.288e-01  linmin:  1.453e-06  t[s]:  13148.79
	FillingsUpdate:  mu: +0.148283769  nElectrons: 416.000000  magneticMoment: [ Abs: 0.00003  Tot: -0.00003 ]
	SubspaceRotationAdjust: set factor to 0.0206
ElecMinimize: Iter:  27  F: -2313.202227817471339  |grad|_K:  1.235e-07  alpha:  4.535e-01  linmin:  5.275e-07  t[s]:  13262.23
	FillingsUpdate:  mu: +0.148276520  nElectrons: 416.000000  magneticMoment: [ Abs: 0.00003  Tot: -0.00003 ]
	SubspaceRotationAdjust: set factor to 0.0186
ElecMinimize: Iter:  28  F: -2313.202230522552782  |grad|_K:  9.778e-08  alpha:  2.911e-01  linmin:  6.466e-07  t[s]:  13377.39
	FillingsUpdate:  mu: +0.148282275  nElectrons: 416.000000  magneticMoment: [ Abs: 0.00003  Tot: -0.00003 ]
	SubspaceRotationAdjust: set factor to 0.0226
ElecMinimize: Iter:  29  F: -2313.202234505063643  |grad|_K:  9.548e-08  alpha:  6.834e-01  linmin:  3.923e-07  t[s]:  13490.93
	FillingsUpdate:  mu: +0.148319470  nElectrons: 416.000000  magneticMoment: [ Abs: 0.00003  Tot: -0.00003 ]
	SubspaceRotationAdjust: set factor to 0.0236
ElecMinimize: Iter:  30  F: -2313.202238620172011  |grad|_K:  1.204e-07  alpha:  7.404e-01  linmin:  2.455e-08  t[s]:  13604.46
	FillingsUpdate:  mu: +0.148320162  nElectrons: 416.000000  magneticMoment: [ Abs: 0.00003  Tot: -0.00003 ]
	SubspaceRotationAdjust: set factor to 0.0192
ElecMinimize: Iter:  31  F: -2313.202241580207101  |grad|_K:  1.275e-07  alpha:  3.351e-01  linmin:  2.937e-07  t[s]:  13719.31
	FillingsUpdate:  mu: +0.148300602  nElectrons: 416.000000  magneticMoment: [ Abs: 0.00003  Tot: -0.00003 ]
	SubspaceRotationAdjust: set factor to 0.0186
ElecMinimize: Iter:  32  F: -2313.202245638781733  |grad|_K:  1.029e-07  alpha:  4.098e-01  linmin:  2.427e-06  t[s]:  13832.79
	FillingsUpdate:  mu: +0.148353902  nElectrons: 416.000000  magneticMoment: [ Abs: 0.00003  Tot: -0.00003 ]
	SubspaceRotationAdjust: set factor to 0.0212
ElecMinimize: Iter:  33  F: -2313.202250162313703  |grad|_K:  9.494e-08  alpha:  7.009e-01  linmin:  2.302e-06  t[s]:  13946.55
	FillingsUpdate:  mu: +0.148383716  nElectrons: 416.000000  magneticMoment: [ Abs: 0.00003  Tot: -0.00003 ]
	SubspaceRotationAdjust: set factor to 0.0217
ElecMinimize: Iter:  34  F: -2313.202253187806491  |grad|_K:  9.570e-08  alpha:  5.508e-01  linmin: -2.449e-07  t[s]:  14061.44
	FillingsUpdate:  mu: +0.148386683  nElectrons: 416.000000  magneticMoment: [ Abs: 0.00003  Tot: -0.00003 ]
	SubspaceRotationAdjust: set factor to 0.0178
ElecMinimize: Iter:  35  F: -2313.202254941723368  |grad|_K:  8.877e-08  alpha:  3.142e-01  linmin:  6.373e-07  t[s]:  14174.88
	FillingsUpdate:  mu: +0.148379689  nElectrons: 416.000000  magneticMoment: [ Abs: 0.00003  Tot: -0.00003 ]
	SubspaceRotationAdjust: set factor to 0.0188
ElecMinimize: Iter:  36  F: -2313.202256977390789  |grad|_K:  6.666e-08  alpha:  4.239e-01  linmin:  5.228e-06  t[s]:  14288.76
	FillingsUpdate:  mu: +0.148377077  nElectrons: 416.000000  magneticMoment: [ Abs: 0.00003  Tot: -0.00003 ]
	SubspaceRotationAdjust: set factor to 0.0228
ElecMinimize: Iter:  37  F: -2313.202258694916054  |grad|_K:  5.656e-08  alpha:  6.340e-01  linmin: -9.829e-06  t[s]:  14402.41
	FillingsUpdate:  mu: +0.148372773  nElectrons: 416.000000  magneticMoment: [ Abs: 0.00003  Tot: -0.00003 ]
	SubspaceRotationAdjust: set factor to 0.0243
ElecMinimize: Iter:  38  F: -2313.202259813367618  |grad|_K:  5.852e-08  alpha:  5.731e-01  linmin: -3.964e-07  t[s]:  14516.03
	FillingsUpdate:  mu: +0.148371461  nElectrons: 416.000000  magneticMoment: [ Abs: 0.00003  Tot: -0.00003 ]
	SubspaceRotationAdjust: set factor to 0.02
ElecMinimize: Iter:  39  F: -2313.202260463119728  |grad|_K:  5.765e-08  alpha:  3.112e-01  linmin: -1.862e-06  t[s]:  14630.52
	FillingsUpdate:  mu: +0.148369424  nElectrons: 416.000000  magneticMoment: [ Abs: 0.00003  Tot: -0.00003 ]
	SubspaceRotationAdjust: set factor to 0.0196
ElecMinimize: Iter:  40  F: -2313.202261215596081  |grad|_K:  4.085e-08  alpha:  3.712e-01  linmin:  7.497e-07  t[s]:  14744.11
	FillingsUpdate:  mu: +0.148360855  nElectrons: 416.000000  magneticMoment: [ Abs: 0.00003  Tot: -0.00002 ]
	SubspaceRotationAdjust: set factor to 0.0222
ElecMinimize: Iter:  41  F: -2313.202261842679491  |grad|_K:  3.469e-08  alpha:  6.172e-01  linmin:  1.910e-05  t[s]:  14857.81
	FillingsUpdate:  mu: +0.148357987  nElectrons: 416.000000  magneticMoment: [ Abs: 0.00003  Tot: -0.00002 ]
	SubspaceRotationAdjust: set factor to 0.0256
ElecMinimize: Iter:  42  F: -2313.202262292618798  |grad|_K:  2.904e-08  alpha:  6.141e-01  linmin: -9.777e-06  t[s]:  14972.60
	FillingsUpdate:  mu: +0.148358392  nElectrons: 416.000000  magneticMoment: [ Abs: 0.00003  Tot: -0.00002 ]
	SubspaceRotationAdjust: set factor to 0.0299
ElecMinimize: Iter:  43  F: -2313.202262610406706  |grad|_K:  2.540e-08  alpha:  6.179e-01  linmin:  3.707e-05  t[s]:  15086.48
	FillingsUpdate:  mu: +0.148358290  nElectrons: 416.000000  magneticMoment: [ Abs: 0.00003  Tot: -0.00002 ]
	SubspaceRotationAdjust: set factor to 0.0252
ElecMinimize: Iter:  44  F: -2313.202262800526114  |grad|_K:  3.015e-08  alpha:  4.840e-01  linmin: -1.007e-05  t[s]:  15200.08
	FillingsUpdate:  mu: +0.148358017  nElectrons: 416.000000  magneticMoment: [ Abs: 0.00003  Tot: -0.00002 ]
	SubspaceRotationAdjust: set factor to 0.0192
ElecMinimize: Iter:  45  F: -2313.202262913167033  |grad|_K:  2.255e-08  alpha:  2.033e-01  linmin: -1.640e-05  t[s]:  15313.74
	FillingsUpdate:  mu: +0.148359791  nElectrons: 416.000000  magneticMoment: [ Abs: 0.00003  Tot: -0.00002 ]
	SubspaceRotationAdjust: set factor to 0.0248
ElecMinimize: Iter:  46  F: -2313.202263069847959  |grad|_K:  1.748e-08  alpha:  5.017e-01  linmin: -1.660e-04  t[s]:  15427.34
	FillingsUpdate:  mu: +0.148366025  nElectrons: 416.000000  magneticMoment: [ Abs: 0.00002  Tot: -0.00002 ]
	SubspaceRotationAdjust: set factor to 0.0268
ElecMinimize: Iter:  47  F: -2313.202263177794521  |grad|_K:  1.900e-08  alpha:  5.767e-01  linmin: -6.010e-05  t[s]:  15541.72
	FillingsUpdate:  mu: +0.148368085  nElectrons: 416.000000  magneticMoment: [ Abs: 0.00002  Tot: -0.00002 ]
	SubspaceRotationAdjust: set factor to 0.0223
ElecMinimize: Iter:  48  F: -2313.202263238864816  |grad|_K:  1.905e-08  alpha:  2.749e-01  linmin:  2.199e-06  t[s]:  15655.37
	FillingsUpdate:  mu: +0.148369197  nElectrons: 416.000000  magneticMoment: [ Abs: 0.00002  Tot: -0.00002 ]
	SubspaceRotationAdjust: set factor to 0.0241
ElecMinimize: Iter:  49  F: -2313.202263326549200  |grad|_K:  1.436e-08  alpha:  3.945e-01  linmin: -1.922e-04  t[s]:  15769.59
ElecMinimize: Converged (|Delta F|<1.000000e-07 for 2 iters).
Setting wave functions to eigenvectors of Hamiltonian
Converging empty states (this may take a while): |deigs|: 1.290e-08

Computing DFT-D3 correction:
# coordination-number Pt 7.158 9.531 8.729 9.552 9.567 9.554 9.566 9.568 9.538 8.710 4.855 9.517 5.635 9.517 9.554 9.538 9.568 9.566 9.531 9.567 9.552 8.729 4.855 8.710 7.157 5.635
# diagonal-C6 Pt 336.87 336.87 336.87 336.87 336.87 336.87 336.87 336.87 336.87 336.87 336.87 336.87 336.87 336.87 336.87 336.87 336.87 336.87 336.87 336.87 336.87 336.87 336.87 336.87 336.87 336.87
EvdW_6 =   -0.233255
EvdW_8 =   -0.376207

# Ionic positions in cartesian coordinates:
ion Pt  -0.000160090188212  10.256931695671705  24.125844723223608 1
ion Pt   0.000073741106502   4.104651690801647  20.006263934134800 1
ion Pt   3.699677465881440   7.187770906817881  22.078031720745695 1
ion Pt   3.699488668530514   1.025516369458306  17.952939655199707 1
ion Pt   0.000016746551293   8.209029139671204  13.852683132509197 1
ion Pt   0.000300708660100   2.053380264440172   9.752110972401358 1
ion Pt   3.699463705361263  11.286034237619907  15.904838048644637 1
ion Pt   3.699678990842040   5.130268955742240  11.798247655013075 1
ion Pt  -0.000169594162812  12.313814722105375   7.698155070421182 1
ion Pt   0.000263228903113   6.156546034477791   3.574982855098110 1
ion Pt   0.000214271438198  -0.000642930296357  26.143342260300468 1
ion Pt   3.699379482843178   9.234598939199859   5.645997408045903 1
ion Pt   3.699559021946064   3.075993610785074   1.551185827062538 1
ion Pt   3.699769225029525  12.313081910035450  21.032085489957023 1
ion Pt   3.699285412986423   6.155265966197097  16.925928287470477 1
ion Pt   0.000158796227436   9.233867991652318  18.979870487040557 1
ion Pt  -0.000093596344721   3.078364533969442  14.879807443118169 1
ion Pt   3.699698398332482  10.261608051729304  10.773213839233289 1
ion Pt   3.699496241268266   4.103943137261513   6.671759381626945 1
ion Pt  -0.000027640810965  13.338619749541417  12.825377694998764 1
ion Pt   0.000095641224125   7.183093233447548   8.725089407733632 1
ion Pt  -0.000093470825658   1.020851648354781   4.599967408213237 1
ion Pt   3.699355728102532   8.209263297832111   0.534619452146403 1
ion Pt   3.699331838505183   2.052106784998073  23.103098357704756 1
ion Pt   0.000160017723722  11.290708534812405   2.552166257887819 1
ion Pt   0.000025060868967   5.132630523673709  25.126868230068620 1

# Forces in Cartesian coordinates:
force Pt  -0.000126400331419  -0.003373324849816   0.011563944291623 1
force Pt   0.000043960146338   0.000295883126486  -0.001944461329787 1
force Pt   0.000103962317062   0.004862558327489   0.014838497911554 1
force Pt  -0.000072407013280  -0.000439549470039  -0.002331961374950 1
force Pt   0.000006675131791   0.000370102715664   0.000481774686027 1
force Pt   0.000257193153678   0.000941256964689   0.003158733320355 1
force Pt  -0.000109473152922  -0.000713966061971   0.000520457816569 1
force Pt   0.000106737156463  -0.000121931271395  -0.001527178841138 1
force Pt  -0.000140398860133   0.001115188452353   0.001476790573474 1
force Pt   0.000210582827274  -0.000030268647628  -0.013835230752782 1
force Pt   0.000185374597646  -0.000701376349763  -0.019519742523653 1
force Pt  -0.000151893735326  -0.000022073385122   0.002695511675575 1
force Pt  -0.000028081926840  -0.002094150279247   0.010860383987160 1
force Pt   0.000147645932397   0.000037715067984  -0.002721432859626 1
force Pt  -0.000252427393238  -0.000918903076123  -0.003081009823233 1
force Pt   0.000134550400019  -0.001093661411692  -0.001450615051939 1
force Pt  -0.000107288925269   0.000131579796418   0.001629006731039 1
force Pt   0.000115591263820   0.000702892428364  -0.000430136020006 1
force Pt  -0.000050614981505  -0.000320080111758   0.001942514723914 1
force Pt  -0.000011622133028  -0.000375567793612  -0.000364701970728 1
force Pt   0.000073445592187   0.000420916348030   0.002387537129678 1
force Pt  -0.000104442766108  -0.004879567418801  -0.014877084454052 1
force Pt  -0.000186305418372   0.000688185897781   0.019553454478691 1
force Pt  -0.000198022696356   0.000047010404669   0.013792301373574 1
force Pt   0.000129429281348   0.003365819078472  -0.011597008277716 1
force Pt   0.000022881728924   0.002106325734084  -0.010860827981385 1

# Energy components:
   Eewald =    30658.8589803131508233
       EH =    32756.5361254477102193
     Eloc =   -66129.8871263840555912
      Enl =      -27.5236615628354819
     EvdW =       -0.6094618691767983
      Exc =     -739.6570971627709241
 Exc_core =      426.1759231919078275
       KE =      742.9084927645828884
-------------------------------------
     Etot =    -2313.1978252614835583
       TS =        0.0044380650656960
-------------------------------------
        F =    -2313.2022633265492004


Dumping 'jdft.fillings' ... done
Dumping 'jdft.wfns' ... done
Dumping 'jdft.ionpos' ... done
Dumping 'jdft.lattice' ... done
Dumping 'jdft.eigenvals' ... done
Dumping 'jdft.eigStats' ... 
	eMin: -1.801512 at state 54 ( [ +0.444444 +0.500000 +0.000000 ] spin -1 )
	HOMO: +0.148347 at state 24 ( [ -0.333333 +0.000000 +0.000000 ] spin 1 )
	mu  : +0.148369
	LUMO: +0.148383 at state 41 ( [ +0.111111 +0.250000 +0.000000 ] spin -1 )
	eMax: +0.433061 at state 4 ( [ +0.111111 +0.000000 +0.000000 ] spin 1 )
	HOMO-LUMO gap: +0.000036
	Optical gap  : +0.000286 at state 13 ( [ +0.333333 +0.250000 +0.000000 ] spin 1 )
Dumping 'jdft.Ecomponents' ... done
IonicMinimize: Iter:   1  F: -2313.202263326549200  |grad|_K:  5.359e-03  alpha:  1.000e+00  linmin: -9.987e-01  t[s]:  15889.35

#--- Lowdin population analysis ---
# oxidation-state Pt -0.022 +0.010 -0.028 +0.012 +0.008 +0.006 +0.010 +0.012 +0.009 -0.055 +0.095 -0.008 +0.077 -0.006 +0.007 +0.010 +0.013 +0.009 +0.008 +0.008 +0.010 -0.029 +0.094 -0.053 -0.024 +0.079
# magnetic-moments Pt -0.000 -0.000 -0.000 -0.000 -0.000 -0.000 -0.000 -0.000 -0.000 -0.000 -0.000 -0.000 -0.000 -0.000 -0.000 -0.000 -0.000 -0.000 -0.000 -0.000 -0.000 -0.000 -0.000 -0.000 -0.000 -0.000


Computing DFT-D3 correction:
# coordination-number Pt 7.168 9.501 8.716 9.535 9.552 9.521 9.565 9.556 9.497 8.701 5.036 9.505 5.780 9.507 9.525 9.501 9.558 9.562 9.498 9.552 9.531 8.714 5.040 8.701 7.167 5.778
# diagonal-C6 Pt 336.87 336.87 336.87 336.87 336.87 336.87 336.87 336.87 336.87 336.87 336.87 336.87 336.87 336.87 336.87 336.87 336.87 336.87 336.87 336.87 336.87 336.87 336.87 336.87 336.87 336.87
EvdW_6 =   -0.233285
EvdW_8 =   -0.376261

-------- Electronic minimization -----------
	FillingsUpdate:  mu: +0.140692102  nElectrons: 416.000000  magneticMoment: [ Abs: 0.00002  Tot: -0.00002 ]
ElecMinimize: Iter:   0  F: -2311.463687346177721  |grad|_K:  8.888e-05  alpha:  1.000e+00
	FillingsUpdate:  mu: +0.117995668  nElectrons: 416.000000  magneticMoment: [ Abs: 0.00002  Tot: -0.00002 ]
	SubspaceRotationAdjust: set factor to 0.0233
ElecMinimize: Iter:   1  F: -2313.003990705200522  |grad|_K:  2.435e-05  alpha:  3.282e-01  linmin:  3.356e-02  t[s]:  16096.02
	FillingsUpdate:  mu: +0.158206296  nElectrons: 416.000000  magneticMoment: [ Abs: 0.00002  Tot: -0.00002 ]
	SubspaceRotationAdjust: set factor to 0.0203
ElecMinimize: Iter:   2  F: -2313.119105012401178  |grad|_K:  9.521e-06  alpha:  3.264e-01  linmin: -8.755e-04  t[s]:  16209.93
	FillingsUpdate:  mu: +0.156334140  nElectrons: 416.000000  magneticMoment: [ Abs: 0.00002  Tot: -0.00002 ]
	SubspaceRotationAdjust: set factor to 0.0137
ElecMinimize: Iter:   3  F: -2313.133048851612330  |grad|_K:  6.656e-06  alpha:  2.519e-01  linmin: -2.576e-05  t[s]:  16323.46
	FillingsUpdate:  mu: +0.139990673  nElectrons: 416.000000  magneticMoment: [ Abs: 0.00002  Tot: -0.00002 ]
	SubspaceRotationAdjust: set factor to 0.0134
ElecMinimize: Iter:   4  F: -2313.139725085722148  |grad|_K:  3.326e-06  alpha:  2.471e-01  linmin: -2.990e-05  t[s]:  16438.17
	FillingsUpdate:  mu: +0.147421962  nElectrons: 416.000000  magneticMoment: [ Abs: 0.00002  Tot: -0.00002 ]
	SubspaceRotationAdjust: set factor to 0.0169
ElecMinimize: Iter:   5  F: -2313.144027251262742  |grad|_K:  3.051e-06  alpha:  6.379e-01  linmin:  2.380e-05  t[s]:  16552.21
	FillingsUpdate:  mu: +0.148049938  nElectrons: 416.000000  magneticMoment: [ Abs: 0.00002  Tot: -0.00002 ]
	SubspaceRotationAdjust: set factor to 0.0158
ElecMinimize: Iter:   6  F: -2313.146347554024032  |grad|_K:  2.779e-06  alpha:  4.091e-01  linmin:  7.077e-07  t[s]:  16665.71
	FillingsUpdate:  mu: +0.145404869  nElectrons: 416.000000  magneticMoment: [ Abs: 0.00002  Tot: -0.00002 ]
	SubspaceRotationAdjust: set factor to 0.0165
ElecMinimize: Iter:   7  F: -2313.148652576634504  |grad|_K:  2.947e-06  alpha:  4.894e-01  linmin: -1.827e-05  t[s]:  16780.21
	FillingsUpdate:  mu: +0.147240926  nElectrons: 416.000000  magneticMoment: [ Abs: 0.00002  Tot: -0.00002 ]
	SubspaceRotationAdjust: set factor to 0.0183
ElecMinimize: Iter:   8  F: -2313.153862686598586  |grad|_K:  4.071e-06  alpha:  9.841e-01  linmin:  2.278e-05  t[s]:  16893.70
	FillingsUpdate:  mu: +0.156487818  nElectrons: 416.000000  magneticMoment: [ Abs: 0.00002  Tot: -0.00002 ]
	SubspaceRotationAdjust: set factor to 0.0189
ElecMinimize: Iter:   9  F: -2313.162728524180238  |grad|_K:  5.391e-06  alpha:  8.795e-01  linmin:  1.329e-05  t[s]:  17007.30
	FillingsUpdate:  mu: +0.163862527  nElectrons: 416.000000  magneticMoment: [ Abs: 0.00002  Tot: -0.00002 ]
	SubspaceRotationAdjust: set factor to 0.0153
ElecMinimize: Iter:  10  F: -2313.171001768591395  |grad|_K:  6.414e-06  alpha:  4.666e-01  linmin: -2.069e-05  t[s]:  17121.14
	FillingsUpdate:  mu: +0.162272663  nElectrons: 416.000000  magneticMoment: [ Abs: 0.00002  Tot: -0.00002 ]
	SubspaceRotationAdjust: set factor to 0.0141
ElecMinimize: Iter:  11  F: -2313.183071159146493  |grad|_K:  5.429e-06  alpha:  4.797e-01  linmin:  8.475e-05  t[s]:  17234.61
	FillingsUpdate:  mu: +0.168989725  nElectrons: 416.000000  magneticMoment: [ Abs: 0.00002  Tot: -0.00002 ]
	SubspaceRotationAdjust: set factor to 0.0168
ElecMinimize: Iter:  12  F: -2313.193411360970913  |grad|_K:  4.473e-06  alpha:  5.882e-01  linmin:  9.107e-05  t[s]:  17348.68
	FillingsUpdate:  mu: +0.168133725  nElectrons: 416.000000  magneticMoment: [ Abs: 0.00002  Tot: -0.00002 ]
	SubspaceRotationAdjust: set factor to 0.0162
ElecMinimize: Iter:  13  F: -2313.198893250834772  |grad|_K:  4.141e-06  alpha:  4.574e-01  linmin: -1.581e-05  t[s]:  17462.46
	FillingsUpdate:  mu: +0.161732069  nElectrons: 416.000000  magneticMoment: [ Abs: 0.00002  Tot: -0.00001 ]
	SubspaceRotationAdjust: set factor to 0.014
ElecMinimize: Iter:  14  F: -2313.202698761371266  |grad|_K:  3.136e-06  alpha:  3.637e-01  linmin: -1.330e-05  t[s]:  17577.28
	FillingsUpdate:  mu: +0.158546887  nElectrons: 416.000000  magneticMoment: [ Abs: 0.00002  Tot: -0.00001 ]
	SubspaceRotationAdjust: set factor to 0.0157
ElecMinimize: Iter:  15  F: -2313.205649660980271  |grad|_K:  2.190e-06  alpha:  4.910e-01  linmin: -2.467e-05  t[s]:  17691.14
	FillingsUpdate:  mu: +0.156856334  nElectrons: 416.000000  magneticMoment: [ Abs: 0.00002  Tot: -0.00001 ]
	SubspaceRotationAdjust: set factor to 0.0179
ElecMinimize: Iter:  16  F: -2313.207308494191693  |grad|_K:  1.789e-06  alpha:  5.660e-01  linmin: -1.274e-05  t[s]:  17804.71
	FillingsUpdate:  mu: +0.155239503  nElectrons: 416.000000  magneticMoment: [ Abs: 0.00002  Tot: -0.00001 ]
	SubspaceRotationAdjust: set factor to 0.017
ElecMinimize: Iter:  17  F: -2313.208248279375766  |grad|_K:  1.595e-06  alpha:  4.813e-01  linmin: -7.569e-06  t[s]:  17919.05
	FillingsUpdate:  mu: +0.153680015  nElectrons: 416.000000  magneticMoment: [ Abs: 0.00002  Tot: -0.00001 ]
	SubspaceRotationAdjust: set factor to 0.0136
ElecMinimize: Iter:  18  F: -2313.208773384527376  |grad|_K:  1.236e-06  alpha:  3.385e-01  linmin: -2.273e-06  t[s]:  18032.73
	FillingsUpdate:  mu: +0.152552446  nElectrons: 416.000000  magneticMoment: [ Abs: 0.00002  Tot: -0.00001 ]
	SubspaceRotationAdjust: set factor to 0.0145
ElecMinimize: Iter:  19  F: -2313.209193765654618  |grad|_K:  9.157e-07  alpha:  4.514e-01  linmin: -7.875e-06  t[s]:  18146.66
	FillingsUpdate:  mu: +0.151614605  nElectrons: 416.000000  magneticMoment: [ Abs: 0.00002  Tot: -0.00001 ]
	SubspaceRotationAdjust: set factor to 0.0169
ElecMinimize: Iter:  20  F: -2313.209508593664850  |grad|_K:  7.580e-07  alpha:  6.156e-01  linmin: -4.325e-06  t[s]:  18261.29
	FillingsUpdate:  mu: +0.150805561  nElectrons: 416.000000  magneticMoment: [ Abs: 0.00002  Tot: -0.00001 ]
	SubspaceRotationAdjust: set factor to 0.0172
ElecMinimize: Iter:  21  F: -2313.209693991239419  |grad|_K:  7.285e-07  alpha:  5.293e-01  linmin: -5.375e-06  t[s]:  18374.83
	FillingsUpdate:  mu: +0.150489170  nElectrons: 416.000000  magneticMoment: [ Abs: 0.00002  Tot: -0.00001 ]
	SubspaceRotationAdjust: set factor to 0.0152
ElecMinimize: Iter:  22  F: -2313.209825541610371  |grad|_K:  6.807e-07  alpha:  4.066e-01  linmin: -1.492e-06  t[s]:  18489.15
	FillingsUpdate:  mu: +0.150353159  nElectrons: 416.000000  magneticMoment: [ Abs: 0.00002  Tot: -0.00001 ]
	SubspaceRotationAdjust: set factor to 0.0157
ElecMinimize: Iter:  23  F: -2313.209969262393315  |grad|_K:  5.682e-07  alpha:  5.088e-01  linmin:  2.662e-06  t[s]:  18602.72
	FillingsUpdate:  mu: +0.149701214  nElectrons: 416.000000  magneticMoment: [ Abs: 0.00001  Tot: -0.00001 ]
	SubspaceRotationAdjust: set factor to 0.0177
ElecMinimize: Iter:  24  F: -2313.210095001447826  |grad|_K:  4.984e-07  alpha:  6.388e-01  linmin: -2.469e-06  t[s]:  18716.65
	FillingsUpdate:  mu: +0.149426454  nElectrons: 416.000000  magneticMoment: [ Abs: 0.00001  Tot: -0.00001 ]
	SubspaceRotationAdjust: set factor to 0.0183
ElecMinimize: Iter:  25  F: -2313.210190513563248  |grad|_K:  4.916e-07  alpha:  6.306e-01  linmin:  2.467e-06  t[s]:  18831.21
	FillingsUpdate:  mu: +0.149426205  nElectrons: 416.000000  magneticMoment: [ Abs: 0.00001  Tot: -0.00001 ]
	SubspaceRotationAdjust: set factor to 0.0151
[...]
# diagonal-C6 Pt 336.87 336.87 336.87 336.87 336.87 336.87 336.87 336.87 336.87 336.87 336.87 336.87 336.87 336.87 336.87 336.87 336.87 336.87 336.87 336.87 336.87 336.87 336.87 336.87 336.87 336.87
EvdW_6 =   -0.233281
EvdW_8 =   -0.376353

# Ionic positions in cartesian coordinates:
ion Pt   0.002784733425599  10.239442252862094  24.331742447886445 1
ion Pt   0.001614659566172   4.102233638896855  19.964227893429165 1
ion Pt   3.704560373896604   7.304203976262460  22.268914466617503 1
ion Pt   3.698438343905430   1.001191754381065  17.913068879076818 1
ion Pt  -0.001442047645585   8.214924860809113  13.883665449717817 1
ion Pt   0.001997505401711   2.053796046655046   9.731025926297882 1
ion Pt   3.696805910192205  11.265884470979969  15.901118620074044 1
ion Pt   3.700749359978161   5.133052169809883  11.795506919306662 1
ion Pt  -0.000927248842789  12.348904164779555   7.635938645055687 1
ion Pt  -0.001231959416763   6.115179617932702   3.511467448668557 1
ion Pt   0.004147986471447  -0.017394278121773  25.886667001884103 1
ion Pt   3.698505078268523   9.237659288886494   5.729246003418712 1
ion Pt   3.695671172100575   3.050510743722263   1.682150587904588 1
ion Pt   3.700686722868636  12.309991599157826  20.946728234589369 1
ion Pt   3.697484635106658   6.154360064801984  16.947991320341682 1
ion Pt   0.000979466923142   9.198123248672818  19.043541674788070 1
ion Pt  -0.001314903343383   3.074920089422936  14.881208891800787 1
ion Pt   3.702295485275122  10.281046682487178  10.777258355777372 1
ion Pt   3.697879079913780   4.105514225722469   6.712980096262664 1
ion Pt   0.001371782066645  13.332655579689446  12.792680415532091 1
ion Pt   0.001087726904886   7.206444475554042   8.766146495807213 1
ion Pt  -0.004900123700350   0.905590844068836   4.408337083246734 1
ion Pt   3.695660124456487   8.226734993377528   0.794842091421263 1
ion Pt   3.700776105159009   2.094446315263134  23.164616851013502 1
ion Pt  -0.002615841247367  11.308317325279607   2.347161474468380 1
ion Pt   0.003883872315447   5.159564848646441  24.996241725612851 1

# Forces in Cartesian coordinates:
force Pt   0.000034847043972  -0.000001662248009   0.000022073915182 1
force Pt   0.000010453633243   0.000131966011253   0.000096788013436 1
force Pt  -0.000003774188272  -0.000244824461285   0.000092736233302 1
force Pt  -0.000011212536441   0.000259373549268  -0.000003689570238 1
force Pt   0.000013893615562  -0.000466965175050   0.000272491946189 1
force Pt   0.000021232969070  -0.000024022445462  -0.000394819296772 1
force Pt   0.000017281705296   0.000007053020671   0.000348988641083 1
force Pt  -0.000019548474870  -0.000275264454035  -0.000225229737069 1
force Pt  -0.000036065982565   0.000288853495533  -0.000056108706840 1
force Pt   0.000009363014305  -0.000387853667244   0.000096507779887 1
force Pt   0.000012260179102   0.000213930907994  -0.000541390759695 1
force Pt  -0.000030112066285  -0.000110439673994   0.000319694480159 1
force Pt  -0.000018274847238  -0.000179195041336   0.000179582048639 1
force Pt   0.000024499117178   0.000172599893870   0.000153742018775 1
force Pt  -0.000011353350717   0.000047012871320  -0.000060295505665 1
force Pt   0.000020928124629  -0.000302463720218  -0.000346710577911 1
force Pt   0.000021176779156   0.000321463689735   0.000179275667356 1
force Pt  -0.000005922193760  -0.000036132000916  -0.000736565980832 1
force Pt  -0.000017128351626  -0.000078430130385  -0.000162357664614 1
force Pt  -0.000021887212559   0.000405785044717  -0.000154803185627 1
force Pt   0.000007557956997  -0.000213845838800  -0.000566178590317 1
force Pt  -0.000005652215491   0.000205857993627  -0.000025206944540 1
force Pt  -0.000020258121443  -0.000172033040368  -0.000092219648780 1
force Pt   0.000003088614038   0.000247511728537   0.000119502778885 1
force Pt  -0.000028613868601   0.000188123727840  -0.000010216814950 1
force Pt   0.000023205590050   0.000072249660660  -0.000317823226439 1

# Energy components:
   Eewald =    30688.7349213774286909
       EH =    32785.9407678191273590
     Eloc =   -66189.1841147552768234
      Enl =      -27.4229129476269193
     EvdW =       -0.6096334879953356
      Exc =     -739.7196089503332814
 Exc_core =      426.1759335574658962
       KE =      742.8731629286008911
-------------------------------------
     Etot =    -2313.2114844586099025
       TS =        0.0045028429435409
-------------------------------------
        F =    -2313.2159873015534686


Dumping 'jdft.fillings' ... done
Dumping 'jdft.wfns' ... done
Dumping 'jdft.ionpos' ... done
Dumping 'jdft.lattice' ... done
Dumping 'jdft.eigenvals' ... done
Dumping 'jdft.eigStats' ... 
	eMin: -1.801647 at state 52 ( [ +0.444444 +0.000000 +0.000000 ] spin -1 )
	HOMO: +0.147974 at state 21 ( [ -0.444444 +0.250000 +0.000000 ] spin 1 )
	mu  : +0.148107
	LUMO: +0.148143 at state 52 ( [ +0.444444 +0.000000 +0.000000 ] spin -1 )
	eMax: +0.434309 at state 4 ( [ +0.111111 +0.000000 +0.000000 ] spin 1 )
	HOMO-LUMO gap: +0.000170
	Optical gap  : +0.000752 at state 52 ( [ +0.444444 +0.000000 +0.000000 ] spin -1 )
Dumping 'jdft.Ecomponents' ... done
IonicMinimize: Iter:   9  F: -2313.215987301553469  |grad|_K:  2.070e-04  alpha:  1.000e+00  linmin:  2.609e-01  t[s]:  55490.44

#--- Lowdin population analysis ---
# oxidation-state Pt -0.011 +0.005 -0.032 +0.006 +0.007 +0.009 +0.006 +0.013 +0.012 -0.054 +0.085 -0.002 +0.085 -0.008 +0.004 +0.007 +0.010 +0.010 +0.010 +0.008 +0.012 -0.028 +0.090 -0.058 -0.007 +0.081
# magnetic-moments Pt -0.000 -0.000 -0.000 -0.000 -0.000 -0.000 -0.000 -0.000 -0.000 -0.000 -0.000 -0.000 -0.000 -0.000 -0.000 -0.000 -0.000 -0.000 -0.000 -0.000 -0.000 -0.000 -0.000 -0.000 -0.000 -0.000


Computing DFT-D3 correction:
# coordination-number Pt 7.049 9.403 8.598 9.513 9.546 9.462 9.574 9.557 9.418 8.632 5.265 9.418 5.959 9.417 9.461 9.415 9.557 9.575 9.406 9.546 9.516 8.601 5.265 8.632 7.049 5.958
# diagonal-C6 Pt 336.87 336.87 336.87 336.87 336.87 336.87 336.87 336.87 336.87 336.87 336.87 336.87 336.87 336.87 336.87 336.87 336.87 336.87 336.87 336.87 336.87 336.87 336.87 336.87 336.87 336.87
EvdW_6 =   -0.233283
EvdW_8 =   -0.376365

-------- Electronic minimization -----------
	FillingsUpdate:  mu: +0.150364946  nElectrons: 416.000000  magneticMoment: [ Abs: 0.00000  Tot: -0.00000 ]
ElecMinimize: Iter:   0  F: -2313.215590010258438  |grad|_K:  2.067e-06  alpha:  1.000e+00
	FillingsUpdate:  mu: +0.147900453  nElectrons: 416.000000  magneticMoment: [ Abs: 0.00000  Tot: -0.00000 ]
	SubspaceRotationAdjust: set factor to 0.0396
ElecMinimize: Iter:   1  F: -2313.215959148200000  |grad|_K:  2.385e-07  alpha:  1.417e-01  linmin:  4.323e-05  t[s]:  55703.37
	FillingsUpdate:  mu: +0.148038955  nElectrons: 416.000000  magneticMoment: [ Abs: 0.00000  Tot: -0.00000 ]
	SubspaceRotationAdjust: set factor to 0.0483
ElecMinimize: Iter:   2  F: -2313.215973439427216  |grad|_K:  1.232e-07  alpha:  4.122e-01  linmin: -7.856e-05  t[s]:  55817.07
	FillingsUpdate:  mu: +0.148087149  nElectrons: 416.000000  magneticMoment: [ Abs: 0.00000  Tot: -0.00000 ]
	SubspaceRotationAdjust: set factor to 0.046
ElecMinimize: Iter:   3  F: -2313.215977882338393  |grad|_K:  1.197e-07  alpha:  4.800e-01  linmin:  5.485e-06  t[s]:  55931.06
	FillingsUpdate:  mu: +0.148090968  nElectrons: 416.000000  magneticMoment: [ Abs: 0.00000  Tot: -0.00000 ]
	SubspaceRotationAdjust: set factor to 0.0326
ElecMinimize: Iter:   4  F: -2313.215978998094215  |grad|_K:  1.089e-07  alpha:  1.278e-01  linmin:  8.409e-07  t[s]:  56045.55
	FillingsUpdate:  mu: +0.148086906  nElectrons: 416.000000  magneticMoment: [ Abs: 0.00000  Tot: -0.00000 ]
	SubspaceRotationAdjust: set factor to 0.0401
ElecMinimize: Iter:   5  F: -2313.215981639047186  |grad|_K:  7.028e-08  alpha:  3.656e-01  linmin:  2.881e-05  t[s]:  56159.20
	FillingsUpdate:  mu: +0.148138451  nElectrons: 416.000000  magneticMoment: [ Abs: 0.00000  Tot: -0.00000 ]
	SubspaceRotationAdjust: set factor to 0.0327
ElecMinimize: Iter:   6  F: -2313.215983638779107  |grad|_K:  8.227e-08  alpha:  6.646e-01  linmin:  1.152e-05  t[s]:  56272.98
	FillingsUpdate:  mu: +0.148135786  nElectrons: 416.000000  magneticMoment: [ Abs: 0.00000  Tot: -0.00000 ]
	SubspaceRotationAdjust: set factor to 0.0237
ElecMinimize: Iter:   7  F: -2313.215984275412666  |grad|_K:  7.543e-08  alpha:  1.542e-01  linmin: -1.622e-06  t[s]:  56387.58
ElecMinimize: 	Predicted alpha/alphaT>3.000000, increasing alphaT to 4.627315e-01.
	FillingsUpdate:  mu: +0.148091180  nElectrons: 416.000000  magneticMoment: [ Abs: 0.00000  Tot: -0.00000 ]
	SubspaceRotationAdjust: set factor to 0.0323
ElecMinimize: Iter:   8  F: -2313.215986040831922  |grad|_K:  6.771e-08  alpha:  5.089e-01  linmin: -1.165e-05  t[s]:  56529.72
	FillingsUpdate:  mu: +0.148132732  nElectrons: 416.000000  magneticMoment: [ Abs: 0.00000  Tot: -0.00000 ]
	SubspaceRotationAdjust: set factor to 0.0228
ElecMinimize: Iter:   9  F: -2313.215987080008290  |grad|_K:  9.529e-08  alpha:  3.715e-01  linmin:  3.084e-07  t[s]:  56644.14
	FillingsUpdate:  mu: +0.148186165  nElectrons: 416.000000  magneticMoment: [ Abs: 0.00000  Tot: -0.00000 ]
	SubspaceRotationAdjust: set factor to 0.0205
ElecMinimize: Iter:  10  F: -2313.215988398286299  |grad|_K:  6.261e-08  alpha:  2.382e-01  linmin: -4.210e-06  t[s]:  56757.91
	FillingsUpdate:  mu: +0.148123361  nElectrons: 416.000000  magneticMoment: [ Abs: 0.00000  Tot: -0.00000 ]
	SubspaceRotationAdjust: set factor to 0.0237
ElecMinimize: Iter:  11  F: -2313.215990024788880  |grad|_K:  6.694e-08  alpha:  6.775e-01  linmin: -1.094e-04  t[s]:  56871.92
	FillingsUpdate:  mu: +0.148138501  nElectrons: 416.000000  magneticMoment: [ Abs: 0.00000  Tot: -0.00000 ]
	SubspaceRotationAdjust: set factor to 0.0188
ElecMinimize: Iter:  12  F: -2313.215990898451309  |grad|_K:  7.023e-08  alpha:  3.184e-01  linmin:  2.577e-06  t[s]:  56986.27
	FillingsUpdate:  mu: +0.148201219  nElectrons: 416.000000  magneticMoment: [ Abs: 0.00000  Tot: -0.00000 ]
	SubspaceRotationAdjust: set factor to 0.0187
ElecMinimize: Iter:  13  F: -2313.215992130819814  |grad|_K:  5.375e-08  alpha:  4.101e-01  linmin:  2.174e-05  t[s]:  57099.81
	FillingsUpdate:  mu: +0.148146102  nElectrons: 416.000000  magneticMoment: [ Abs: 0.00000  Tot: -0.00000 ]
	SubspaceRotationAdjust: set factor to 0.021
ElecMinimize: Iter:  14  F: -2313.215993291502855  |grad|_K:  5.119e-08  alpha:  6.597e-01  linmin:  2.239e-06  t[s]:  57213.59
	FillingsUpdate:  mu: +0.148154203  nElectrons: 416.000000  magneticMoment: [ Abs: 0.00000  Tot: -0.00000 ]
	SubspaceRotationAdjust: set factor to 0.0178
ElecMinimize: Iter:  15  F: -2313.215993979306404  |grad|_K:  5.463e-08  alpha:  4.308e-01  linmin: -8.835e-06  t[s]:  57327.39
	FillingsUpdate:  mu: +0.148172960  nElectrons: 416.000000  magneticMoment: [ Abs: 0.00000  Tot: -0.00000 ]
	SubspaceRotationAdjust: set factor to 0.014
ElecMinimize: Iter:  16  F: -2313.215994559840510  |grad|_K:  3.986e-08  alpha:  3.190e-01  linmin: -5.285e-07  t[s]:  57441.30
	FillingsUpdate:  mu: +0.148150858  nElectrons: 416.000000  magneticMoment: [ Abs: 0.00000  Tot: -0.00000 ]
	SubspaceRotationAdjust: set factor to 0.0163
ElecMinimize: Iter:  17  F: -2313.215995105183083  |grad|_K:  3.196e-08  alpha:  5.628e-01  linmin:  1.386e-05  t[s]:  57555.24
	FillingsUpdate:  mu: +0.148144733  nElectrons: 416.000000  magneticMoment: [ Abs: 0.00000  Tot: -0.00000 ]
	SubspaceRotationAdjust: set factor to 0.0156
ElecMinimize: Iter:  18  F: -2313.215995440931692  |grad|_K:  2.942e-08  alpha:  5.384e-01  linmin: -4.462e-05  t[s]:  57668.87
	FillingsUpdate:  mu: +0.148145707  nElectrons: 416.000000  magneticMoment: [ Abs: 0.00000  Tot: -0.00000 ]
	SubspaceRotationAdjust: set factor to 0.0123
ElecMinimize: Iter:  19  F: -2313.215995635588115  |grad|_K:  2.479e-08  alpha:  3.682e-01  linmin: -4.391e-05  t[s]:  57783.19
	FillingsUpdate:  mu: +0.148142072  nElectrons: 416.000000  magneticMoment: [ Abs: 0.00000  Tot: -0.00000 ]
	SubspaceRotationAdjust: set factor to 0.0137
ElecMinimize: Iter:  20  F: -2313.215995818883584  |grad|_K:  1.864e-08  alpha:  4.896e-01  linmin: -9.736e-05  t[s]:  57896.96
	FillingsUpdate:  mu: +0.148134867  nElectrons: 416.000000  magneticMoment: [ Abs: 0.00000  Tot: -0.00000 ]
	SubspaceRotationAdjust: set factor to 0.015
ElecMinimize: Iter:  21  F: -2313.215995947482952  |grad|_K:  1.650e-08  alpha:  6.097e-01  linmin:  3.957e-04  t[s]:  58010.67
	FillingsUpdate:  mu: +0.148130293  nElectrons: 416.000000  magneticMoment: [ Abs: 0.00000  Tot: -0.00000 ]
	SubspaceRotationAdjust: set factor to 0.0134
ElecMinimize: Iter:  22  F: -2313.215996027000983  |grad|_K:  1.593e-08  alpha:  4.851e-01  linmin:  1.334e-04  t[s]:  58124.74
	FillingsUpdate:  mu: +0.148126887  nElectrons: 416.000000  magneticMoment: [ Abs: 0.00000  Tot: -0.00000 ]
	SubspaceRotationAdjust: set factor to 0.0125
ElecMinimize: Iter:  23  F: -2313.215996094988895  |grad|_K:  1.307e-08  alpha:  4.423e-01  linmin:  1.757e-04  t[s]:  58238.50
ElecMinimize: Converged (|Delta F|<1.000000e-07 for 2 iters).
Setting wave functions to eigenvectors of Hamiltonian
Converging empty states (this may take a while): |deigs|: 4.304e-09

Computing DFT-D3 correction:
# coordination-number Pt 7.049 9.403 8.598 9.513 9.546 9.462 9.574 9.557 9.418 8.632 5.265 9.418 5.959 9.417 9.461 9.415 9.557 9.575 9.406 9.546 9.516 8.601 5.265 8.632 7.049 5.958
# diagonal-C6 Pt 336.87 336.87 336.87 336.87 336.87 336.87 336.87 336.87 336.87 336.87 336.87 336.87 336.87 336.87 336.87 336.87 336.87 336.87 336.87 336.87 336.87 336.87 336.87 336.87 336.87 336.87
EvdW_6 =   -0.233283
EvdW_8 =   -0.376365

# Ionic positions in cartesian coordinates:
ion Pt   0.002963767183827  10.239491873462386  24.331662752116369 1
ion Pt   0.001653117851532   4.102885476466993  19.965053312893357 1
ion Pt   3.704535862262423   7.302831279952915  22.269372769196107 1
ion Pt   3.698362474662768   1.003134602609000  17.913591930608320 1
ion Pt  -0.001357586099589   8.212314937756107  13.884843162650958 1
ion Pt   0.002136834803777   2.053637101558812   9.729444179690928 1
ion Pt   3.696922062013491  11.266202190098914  15.902752891224702 1
ion Pt   3.700636254285180   5.131555608907856  11.794003517064329 1
ion Pt  -0.001119778240582  12.351040751328819   7.636445635050136 1
ion Pt  -0.001158031962554   6.112915114561786   3.511342938565579 1
ion Pt   0.004179009529775  -0.016740458738360  25.883782596396941 1
ion Pt   3.698340943347782   9.237206692421340   5.731175582881441 1
ion Pt   3.695581029879169   3.049267925356081   1.683311640027175 1
ion Pt   3.700822342585762  12.310800176324292  20.948603413837823 1
ion Pt   3.697413447072989   6.154629295186030  16.947789624355188 1
ion Pt   0.001081529177207   9.195879575566883  19.041556634977269 1
ion Pt  -0.001180028542407   3.076667800904417  14.883373934648070 1
ion Pt   3.702253957420191  10.280547388174753  10.774150653976402 1
ion Pt   3.697795767457475   4.105146002917942   6.712743309926035 1
ion Pt   0.001252650196632  13.334824528148003  12.793208229919831 1
ion Pt   0.001143907694567   7.204814098014573   8.763191446276295 1
ion Pt  -0.004929314956084   0.906562133567938   4.408940615120640 1
ion Pt   3.695592751726910   8.226257789532708   0.794821021011341 1
ion Pt   3.700778645750508   2.095753733581946  23.166641159477301 1
ion Pt  -0.002759782189840  11.309476388172119   2.347680656659526 1
ion Pt   0.004006167089090   5.160196994165712  24.994991391447915 1

# Forces in Cartesian coordinates:
force Pt   0.000021651499935  -0.000041376055433   0.000006765080380 1
force Pt  -0.000000057791255  -0.000012763078898   0.000081448560308 1
force Pt   0.000015857699011   0.000046297591927   0.000002551772362 1
force Pt   0.000015041308107  -0.000061602176477   0.000111975635158 1
force Pt  -0.000005202770328   0.000018265268784  -0.000173528708891 1
force Pt  -0.000016877109168  -0.000062087597767  -0.000082858025447 1
force Pt   0.000004273618673   0.000062516320153   0.000098172824339 1
force Pt   0.000009095343555  -0.000054252140116  -0.000121890631517 1
force Pt  -0.000009300903974  -0.000008970967739  -0.000094004586353 1
force Pt  -0.000014032065392  -0.000063877792932  -0.000033500825692 1
force Pt   0.000010591836166   0.000136305328123  -0.000231578228580 1
force Pt  -0.000018370081002  -0.000031847100487  -0.000119858095382 1
force Pt  -0.000013770723645  -0.000091191444777  -0.000004491438345 1
force Pt   0.000015949886739  -0.000008245871552  -0.000246569346711 1
force Pt   0.000013436525091   0.000047183028843  -0.000039759508658 1
force Pt   0.000011431323473   0.000118194450980  -0.000002807144299 1
force Pt  -0.000010724152732   0.000065223943964  -0.000081867826775 1
force Pt  -0.000006501412830  -0.000033090867042  -0.000135052395992 1
force Pt   0.000001022439064   0.000015654669318  -0.000204902735317 1
force Pt   0.000005593459942  -0.000023357177701  -0.000136817948897 1
force Pt  -0.000014127835113   0.000003960305165  -0.000150081623762 1
force Pt  -0.000019612182263  -0.000029726672846  -0.000074498941034 1
force Pt  -0.000019090104828  -0.000112523326572   0.000116817761009 1
force Pt   0.000016320624997   0.000182083972019  -0.000038649027896 1
force Pt  -0.000017810773691  -0.000070451971747  -0.000057477606826 1
force Pt   0.000014531980537   0.000072809517658  -0.000156318724117 1

# Energy components:
   Eewald =    30689.0865356945141684
       EH =    32786.2953865638191928
     Eloc =   -66189.8912177267775405
      Enl =      -27.4222657841541881
     EvdW =       -0.6096471147934540
      Exc =     -739.7205128239652367
 Exc_core =      426.1759337429763264
       KE =      742.8742980761188619
-------------------------------------
     Etot =    -2313.2114893722618945
       TS =        0.0045067227268189
-------------------------------------
        F =    -2313.2159960949888955


Dumping 'jdft.fillings' ... done
Dumping 'jdft.wfns' ... done
Dumping 'jdft.ionpos' ... done
Dumping 'jdft.lattice' ... done
Dumping 'jdft.eigenvals' ... done
Dumping 'jdft.eigStats' ... 
	eMin: -1.801600 at state 52 ( [ +0.444444 +0.000000 +0.000000 ] spin -1 )
	HOMO: +0.148009 at state 19 ( [ +0.444444 -0.250000 +0.000000 ] spin 1 )
	mu  : +0.148127
	LUMO: +0.148155 at state 52 ( [ +0.444444 +0.000000 +0.000000 ] spin -1 )
	eMax: +0.434320 at state 4 ( [ +0.111111 +0.000000 +0.000000 ] spin 1 )
	HOMO-LUMO gap: +0.000146
	Optical gap  : +0.000757 at state 56 ( [ -0.444444 +0.000000 +0.000000 ] spin -1 )
Dumping 'jdft.Ecomponents' ... done
IonicMinimize: Iter:  10  F: -2313.215996094988895  |grad|_K:  7.091e-05  alpha:  1.000e+00  linmin: -1.730e-01  t[s]:  58358.41
IonicMinimize: Converged (|grad|_K<1.000000e-04).

#--- Lowdin population analysis ---
# oxidation-state Pt -0.011 +0.006 -0.032 +0.009 +0.008 +0.006 +0.008 +0.012 +0.010 -0.053 +0.085 -0.004 +0.086 -0.006 +0.006 +0.009 +0.011 +0.009 +0.008 +0.008 +0.009 -0.029 +0.091 -0.058 -0.007 +0.080
# magnetic-moments Pt -0.000 -0.000 -0.000 -0.000 -0.000 -0.000 -0.000 -0.000 -0.000 -0.000 -0.000 -0.000 -0.000 -0.000 -0.000 -0.000 -0.000 -0.000 -0.000 -0.000 -0.000 -0.000 -0.000 -0.000 -0.000 -0.000


Dumping 'jdft.n_up' ... done
Dumping 'jdft.n_dn' ... done
Dumping 'jdft.tau_up' ... done
Dumping 'jdft.tau_dn' ... done
Dumping 'jdft.eigenvals' ... done
Dumping 'jdft.eigStats' ... 
	eMin: -1.801600 at state 52 ( [ +0.444444 +0.000000 +0.000000 ] spin -1 )
	HOMO: +0.148009 at state 19 ( [ +0.444444 -0.250000 +0.000000 ] spin 1 )
	mu  : +0.148127
	LUMO: +0.148155 at state 52 ( [ +0.444444 +0.000000 +0.000000 ] spin -1 )
	eMax: +0.434320 at state 4 ( [ +0.111111 +0.000000 +0.000000 ] spin 1 )
	HOMO-LUMO gap: +0.000146
	Optical gap  : +0.000757 at state 56 ( [ -0.444444 +0.000000 +0.000000 ] spin -1 )
Dumping 'jdft.kPts' ... done
Dumping 'jdft.dosUp' ... done.
Dumping 'jdft.dosDn' ... done.
End date and time: Tue Dec  7 08:33:01 2021  (Duration: 0-16:13:52.24)
Done!
