
*************** JDFTx 1.6.0  ***************

Start date and time: Mon Dec  6 17:16:38 2021
Executable /projects/musgravc/apps/jdftx-1.6.1/build/jdftx with command-line: -i in
Running on hosts (process indices):  shas0811.rc.int.colorado.edu (0-23)
Divided in process groups (process indices):  0 (0)  1 (1)  2 (2)  3 (3)  4 (4)  5 (5)  6 (6)  7 (7)  8 (8)  9 (9)  10 (10)  11 (11)  12 (12)  13 (13)  14 (14)  15 (15)  16 (16)  17 (17)  18 (18)  19 (19)  20 (20)  21 (21)  22 (22)  23 (23)
Resource initialization completed at t[s]:      0.00
Run totals: 24 processes, 24 threads, 0 GPUs


Input parsed successfully to the following command list (including defaults):

basis kpoint-dependent
converge-empty-states yes
coords-type Cartesian
core-overlap-check none
coulomb-interaction Periodic
davidson-band-ratio 1.1
density-of-states Etol 1.000000e-06 Esigma 1.000000e-03 \
		Complete \
	Total \
	OrthoOrbital Ag 1   s \
	OrthoOrbital Ag 1   p \
	OrthoOrbital Ag 1   px \
	OrthoOrbital Ag 1   py \
	OrthoOrbital Ag 1   pz \
	OrthoOrbital Ag 1   d \
	OrthoOrbital Ag 1   dxy \
	OrthoOrbital Ag 1   dyz \
	OrthoOrbital Ag 1   dz2 \
	OrthoOrbital Ag 1   dxz \
	OrthoOrbital Ag 1   dx2-y2 \
	OrthoOrbital Ag 2   s \
	OrthoOrbital Ag 2   p \
	OrthoOrbital Ag 2   px \
	OrthoOrbital Ag 2   py \
	OrthoOrbital Ag 2   pz \
	OrthoOrbital Ag 2   d \
	OrthoOrbital Ag 2   dxy \
	OrthoOrbital Ag 2   dyz \
	OrthoOrbital Ag 2   dz2 \
	OrthoOrbital Ag 2   dxz \
	OrthoOrbital Ag 2   dx2-y2 \
	OrthoOrbital Ag 3   s \
	OrthoOrbital Ag 3   p \
	OrthoOrbital Ag 3   px \
	OrthoOrbital Ag 3   py \
	OrthoOrbital Ag 3   pz \
	OrthoOrbital Ag 3   d \
	OrthoOrbital Ag 3   dxy \
	OrthoOrbital Ag 3   dyz \
	OrthoOrbital Ag 3   dz2 \
	OrthoOrbital Ag 3   dxz \
	OrthoOrbital Ag 3   dx2-y2 \
	OrthoOrbital Ag 4   s \
	OrthoOrbital Ag 4   p \
	OrthoOrbital Ag 4   px \
	OrthoOrbital Ag 4   py \
	OrthoOrbital Ag 4   pz \
	OrthoOrbital Ag 4   d \
	OrthoOrbital Ag 4   dxy \
	OrthoOrbital Ag 4   dyz \
	OrthoOrbital Ag 4   dz2 \
	OrthoOrbital Ag 4   dxz \
	OrthoOrbital Ag 4   dx2-y2 \
	OrthoOrbital Ag 5   s \
	OrthoOrbital Ag 5   p \
	OrthoOrbital Ag 5   px \
	OrthoOrbital Ag 5   py \
	OrthoOrbital Ag 5   pz \
	OrthoOrbital Ag 5   d \
	OrthoOrbital Ag 5   dxy \
	OrthoOrbital Ag 5   dyz \
	OrthoOrbital Ag 5   dz2 \
	OrthoOrbital Ag 5   dxz \
	OrthoOrbital Ag 5   dx2-y2 \
	OrthoOrbital Ag 6   s \
	OrthoOrbital Ag 6   p \
	OrthoOrbital Ag 6   px \
	OrthoOrbital Ag 6   py \
	OrthoOrbital Ag 6   pz \
	OrthoOrbital Ag 6   d \
	OrthoOrbital Ag 6   dxy \
	OrthoOrbital Ag 6   dyz \
	OrthoOrbital Ag 6   dz2 \
	OrthoOrbital Ag 6   dxz \
	OrthoOrbital Ag 6   dx2-y2 \
	OrthoOrbital Ag 7   s \
	OrthoOrbital Ag 7   p \
	OrthoOrbital Ag 7   px \
	OrthoOrbital Ag 7   py \
	OrthoOrbital Ag 7   pz \
	OrthoOrbital Ag 7   d \
	OrthoOrbital Ag 7   dxy \
	OrthoOrbital Ag 7   dyz \
	OrthoOrbital Ag 7   dz2 \
	OrthoOrbital Ag 7   dxz \
	OrthoOrbital Ag 7   dx2-y2 \
	OrthoOrbital Ag 8   s \
	OrthoOrbital Ag 8   p \
	OrthoOrbital Ag 8   px \
	OrthoOrbital Ag 8   py \
	OrthoOrbital Ag 8   pz \
	OrthoOrbital Ag 8   d \
	OrthoOrbital Ag 8   dxy \
	OrthoOrbital Ag 8   dyz \
	OrthoOrbital Ag 8   dz2 \
	OrthoOrbital Ag 8   dxz \
	OrthoOrbital Ag 8   dx2-y2 \
	OrthoOrbital Ag 9   s \
	OrthoOrbital Ag 9   p \
	OrthoOrbital Ag 9   px \
	OrthoOrbital Ag 9   py \
	OrthoOrbital Ag 9   pz \
	OrthoOrbital Ag 9   d \
	OrthoOrbital Ag 9   dxy \
	OrthoOrbital Ag 9   dyz \
	OrthoOrbital Ag 9   dz2 \
	OrthoOrbital Ag 9   dxz \
	OrthoOrbital Ag 9   dx2-y2 \
	OrthoOrbital Ag 10   s \
	OrthoOrbital Ag 10   p \
	OrthoOrbital Ag 10   px \
	OrthoOrbital Ag 10   py \
	OrthoOrbital Ag 10   pz \
	OrthoOrbital Ag 10   d \
	OrthoOrbital Ag 10   dxy \
	OrthoOrbital Ag 10   dyz \
	OrthoOrbital Ag 10   dz2 \
	OrthoOrbital Ag 10   dxz \
	OrthoOrbital Ag 10   dx2-y2 \
	OrthoOrbital Ag 11   s \
	OrthoOrbital Ag 11   p \
	OrthoOrbital Ag 11   px \
	OrthoOrbital Ag 11   py \
	OrthoOrbital Ag 11   pz \
	OrthoOrbital Ag 11   d \
	OrthoOrbital Ag 11   dxy \
	OrthoOrbital Ag 11   dyz \
	OrthoOrbital Ag 11   dz2 \
	OrthoOrbital Ag 11   dxz \
	OrthoOrbital Ag 11   dx2-y2 \
	OrthoOrbital Ag 12   s \
	OrthoOrbital Ag 12   p \
	OrthoOrbital Ag 12   px \
	OrthoOrbital Ag 12   py \
	OrthoOrbital Ag 12   pz \
	OrthoOrbital Ag 12   d \
	OrthoOrbital Ag 12   dxy \
	OrthoOrbital Ag 12   dyz \
	OrthoOrbital Ag 12   dz2 \
	OrthoOrbital Ag 12   dxz \
	OrthoOrbital Ag 12   dx2-y2 \
	OrthoOrbital Ag 13   s \
	OrthoOrbital Ag 13   p \
	OrthoOrbital Ag 13   px \
	OrthoOrbital Ag 13   py \
	OrthoOrbital Ag 13   pz \
	OrthoOrbital Ag 13   d \
	OrthoOrbital Ag 13   dxy \
	OrthoOrbital Ag 13   dyz \
	OrthoOrbital Ag 13   dz2 \
	OrthoOrbital Ag 13   dxz \
	OrthoOrbital Ag 13   dx2-y2 \
	OrthoOrbital Ag 14   s \
	OrthoOrbital Ag 14   p \
	OrthoOrbital Ag 14   px \
	OrthoOrbital Ag 14   py \
	OrthoOrbital Ag 14   pz \
	OrthoOrbital Ag 14   d \
	OrthoOrbital Ag 14   dxy \
	OrthoOrbital Ag 14   dyz \
	OrthoOrbital Ag 14   dz2 \
	OrthoOrbital Ag 14   dxz \
	OrthoOrbital Ag 14   dx2-y2 \
	OrthoOrbital Ag 15   s \
	OrthoOrbital Ag 15   p \
	OrthoOrbital Ag 15   px \
	OrthoOrbital Ag 15   py \
	OrthoOrbital Ag 15   pz \
	OrthoOrbital Ag 15   d \
	OrthoOrbital Ag 15   dxy \
	OrthoOrbital Ag 15   dyz \
	OrthoOrbital Ag 15   dz2 \
	OrthoOrbital Ag 15   dxz \
	OrthoOrbital Ag 15   dx2-y2 \
	OrthoOrbital Ag 16   s \
	OrthoOrbital Ag 16   p \
	OrthoOrbital Ag 16   px \
	OrthoOrbital Ag 16   py \
	OrthoOrbital Ag 16   pz \
	OrthoOrbital Ag 16   d \
	OrthoOrbital Ag 16   dxy \
	OrthoOrbital Ag 16   dyz \
	OrthoOrbital Ag 16   dz2 \
	OrthoOrbital Ag 16   dxz \
	OrthoOrbital Ag 16   dx2-y2 \
	OrthoOrbital Ag 17   s \
	OrthoOrbital Ag 17   p \
	OrthoOrbital Ag 17   px \
	OrthoOrbital Ag 17   py \
	OrthoOrbital Ag 17   pz \
	OrthoOrbital Ag 17   d \
	OrthoOrbital Ag 17   dxy \
	OrthoOrbital Ag 17   dyz \
	OrthoOrbital Ag 17   dz2 \
	OrthoOrbital Ag 17   dxz \
	OrthoOrbital Ag 17   dx2-y2 \
	OrthoOrbital Ag 18   s \
	OrthoOrbital Ag 18   p \
	OrthoOrbital Ag 18   px \
	OrthoOrbital Ag 18   py \
	OrthoOrbital Ag 18   pz \
	OrthoOrbital Ag 18   d \
	OrthoOrbital Ag 18   dxy \
	OrthoOrbital Ag 18   dyz \
	OrthoOrbital Ag 18   dz2 \
	OrthoOrbital Ag 18   dxz \
	OrthoOrbital Ag 18   dx2-y2 \
	OrthoOrbital Ag 19   s \
	OrthoOrbital Ag 19   p \
	OrthoOrbital Ag 19   px \
	OrthoOrbital Ag 19   py \
	OrthoOrbital Ag 19   pz \
	OrthoOrbital Ag 19   d \
	OrthoOrbital Ag 19   dxy \
	OrthoOrbital Ag 19   dyz \
	OrthoOrbital Ag 19   dz2 \
	OrthoOrbital Ag 19   dxz \
	OrthoOrbital Ag 19   dx2-y2 \
	OrthoOrbital Ag 20   s \
	OrthoOrbital Ag 20   p \
	OrthoOrbital Ag 20   px \
	OrthoOrbital Ag 20   py \
	OrthoOrbital Ag 20   pz \
	OrthoOrbital Ag 20   d \
	OrthoOrbital Ag 20   dxy \
	OrthoOrbital Ag 20   dyz \
	OrthoOrbital Ag 20   dz2 \
	OrthoOrbital Ag 20   dxz \
	OrthoOrbital Ag 20   dx2-y2 \
	OrthoOrbital Ag 21   s \
	OrthoOrbital Ag 21   p \
	OrthoOrbital Ag 21   px \
	OrthoOrbital Ag 21   py \
	OrthoOrbital Ag 21   pz \
	OrthoOrbital Ag 21   d \
	OrthoOrbital Ag 21   dxy \
	OrthoOrbital Ag 21   dyz \
	OrthoOrbital Ag 21   dz2 \
	OrthoOrbital Ag 21   dxz \
	OrthoOrbital Ag 21   dx2-y2 \
	OrthoOrbital Ag 22   s \
	OrthoOrbital Ag 22   p \
	OrthoOrbital Ag 22   px \
	OrthoOrbital Ag 22   py \
	OrthoOrbital Ag 22   pz \
	OrthoOrbital Ag 22   d \
	OrthoOrbital Ag 22   dxy \
	OrthoOrbital Ag 22   dyz \
	OrthoOrbital Ag 22   dz2 \
	OrthoOrbital Ag 22   dxz \
	OrthoOrbital Ag 22   dx2-y2 \
	OrthoOrbital Ag 23   s \
	OrthoOrbital Ag 23   p \
	OrthoOrbital Ag 23   px \
	OrthoOrbital Ag 23   py \
	OrthoOrbital Ag 23   pz \
	OrthoOrbital Ag 23   d \
	OrthoOrbital Ag 23   dxy \
	OrthoOrbital Ag 23   dyz \
	OrthoOrbital Ag 23   dz2 \
	OrthoOrbital Ag 23   dxz \
	OrthoOrbital Ag 23   dx2-y2 \
	OrthoOrbital Ag 24   s \
	OrthoOrbital Ag 24   p \
	OrthoOrbital Ag 24   px \
	OrthoOrbital Ag 24   py \
	OrthoOrbital Ag 24   pz \
	OrthoOrbital Ag 24   d \
	OrthoOrbital Ag 24   dxy \
	OrthoOrbital Ag 24   dyz \
	OrthoOrbital Ag 24   dz2 \
	OrthoOrbital Ag 24   dxz \
	OrthoOrbital Ag 24   dx2-y2 \
	OrthoOrbital Ag 25   s \
	OrthoOrbital Ag 25   p \
	OrthoOrbital Ag 25   px \
	OrthoOrbital Ag 25   py \
	OrthoOrbital Ag 25   pz \
	OrthoOrbital Ag 25   d \
	OrthoOrbital Ag 25   dxy \
	OrthoOrbital Ag 25   dyz \
	OrthoOrbital Ag 25   dz2 \
	OrthoOrbital Ag 25   dxz \
	OrthoOrbital Ag 25   dx2-y2 \
	OrthoOrbital Ag 26   s \
	OrthoOrbital Ag 26   p \
	OrthoOrbital Ag 26   px \
	OrthoOrbital Ag 26   py \
	OrthoOrbital Ag 26   pz \
	OrthoOrbital Ag 26   d \
	OrthoOrbital Ag 26   dxy \
	OrthoOrbital Ag 26   dyz \
	OrthoOrbital Ag 26   dz2 \
	OrthoOrbital Ag 26   dxz \
	OrthoOrbital Ag 26   dx2-y2 \
	OrthoOrbital Ag 27   s \
	OrthoOrbital Ag 27   p \
	OrthoOrbital Ag 27   px \
	OrthoOrbital Ag 27   py \
	OrthoOrbital Ag 27   pz \
	OrthoOrbital Ag 27   d \
	OrthoOrbital Ag 27   dxy \
	OrthoOrbital Ag 27   dyz \
	OrthoOrbital Ag 27   dz2 \
	OrthoOrbital Ag 27   dxz \
	OrthoOrbital Ag 27   dx2-y2 \
	OrthoOrbital Ag 28   s \
	OrthoOrbital Ag 28   p \
	OrthoOrbital Ag 28   px \
	OrthoOrbital Ag 28   py \
	OrthoOrbital Ag 28   pz \
	OrthoOrbital Ag 28   d \
	OrthoOrbital Ag 28   dxy \
	OrthoOrbital Ag 28   dyz \
	OrthoOrbital Ag 28   dz2 \
	OrthoOrbital Ag 28   dxz \
	OrthoOrbital Ag 28   dx2-y2
dump End ElecDensity KEdensity BandEigs EigStats RhoAtom DOS Kpoints
dump Ionic State IonicPositions Lattice EigStats Ecomponents
dump 
dump 
dump 
dump 
dump 
dump 
dump 
dump 
dump-name jdft.$VAR
elec-cutoff 20
elec-eigen-algo Davidson
elec-ex-corr gga-PBE
elec-initial-magnetization 0.000000 no
elec-n-bands 320
elec-smearing Fermi 0.001
electronic-minimize  \
	dirUpdateScheme      FletcherReeves \
	linminMethod         DirUpdateRecommended \
	nIterations          100 \
	history              15 \
	knormThreshold       0 \
	energyDiffThreshold  1e-07 \
	nEnergyDiff          2 \
	alphaTstart          1 \
	alphaTmin            1e-10 \
	updateTestStepSize   yes \
	alphaTreduceFactor   0.1 \
	alphaTincreaseFactor 3 \
	nAlphaAdjustMax      3 \
	wolfeEnergy          0.0001 \
	wolfeGradient        0.9 \
	fdTest               no
exchange-regularization WignerSeitzTruncated
fluid LinearPCM 298.000000 1.013250
fluid-anion F- 0.5 MeanFieldLJ \
	epsBulk 1 \
	pMol 0 \
	epsInf 1 \
	Pvap 0 \
	sigmaBulk 0 \
	Rvdw 2.24877 \
	Res 0 \
	tauNuc 343133
fluid-cation Na+ 0.5 MeanFieldLJ \
	epsBulk 1 \
	pMol 0 \
	epsInf 1 \
	Pvap 0 \
	sigmaBulk 0 \
	Rvdw 2.19208 \
	Res 0 \
	tauNuc 343133
fluid-ex-corr lda-TF lda-PZ
fluid-gummel-loop 10 1.000000e-05
fluid-minimize  \
	dirUpdateScheme      PolakRibiere \
	linminMethod         DirUpdateRecommended \
	nIterations          400 \
	history              15 \
	knormThreshold       1e-11 \
	energyDiffThreshold  0 \
	nEnergyDiff          2 \
	alphaTstart          1 \
	alphaTmin            1e-10 \
	updateTestStepSize   yes \
	alphaTreduceFactor   0.1 \
	alphaTincreaseFactor 3 \
	nAlphaAdjustMax      6 \
	wolfeEnergy          0.0001 \
	wolfeGradient        0.9 \
	fdTest               no
fluid-solvent H2O 55.338 ScalarEOS \
	epsBulk 78.4 \
	pMol 0.92466 \
	epsInf 1.77 \
	Pvap 1.06736e-10 \
	sigmaBulk 4.62e-05 \
	Rvdw 2.61727 \
	Res 1.42 \
	tauNuc 343133 \
	poleEl 15 7 1
forces-output-coords Positions
ion Ag   9.388487999999999   0.000000000000000  28.170096000000001 1
ion Ag   6.258991999999999   6.691149000000000   1.536568000000000 1
ion Ag   6.258994999999999   1.672784000000000   3.585288000000000 1
ion Ag   3.129499000000000   8.363934000000000   5.634008000000000 1
ion Ag   3.129493000000000   3.345569000000000   7.682785000000000 1
ion Ag  -0.000003000000000  10.036718000000002   9.731503999999999 1
ion Ag   0.000000000000000   5.018353000000001  11.780224000000000 1
ion Ag   6.258991999999999   6.691149000000000  15.877720999999999 1
ion Ag   0.000000000000000   0.000000000000000  13.828944000000000 1
ion Ag   6.258994999999999   1.672784000000000  17.926439999999999 1
ion Ag   3.129499000000000   8.363934000000000  19.975159999999995 1
ion Ag   3.129493000000000   3.345569000000000  22.023937000000000 1
ion Ag  -0.000003000000000  10.036718000000002  24.072657000000000 1
ion Ag   0.000000000000000   5.018353000000001  26.121376000000001 1
ion Ag   1.564745000000000   4.181967000000000   2.560928000000000 1
ion Ag  -1.564748000000000  10.873105000000002   4.609648000000000 1
ion Ag   7.823739999999999   5.854751000000001   6.658368000000000 1
ion Ag   7.823739999999999   0.836398000000000   8.707145000000001 1
ion Ag   4.694246999999999   7.527536000000000  10.755864000000001 1
ion Ag   4.694246999999999   2.509183000000000  12.804584000000000 1
ion Ag   1.564744999999999   9.200320000000001  14.853361000000000 1
ion Ag  -1.564748000000000  10.873105000000002  18.950800000000001 1
ion Ag   1.564745000000000   4.181967000000000  16.902080999999999 1
ion Ag   7.823739999999999   5.854751000000001  20.999520000000000 1
ion Ag   7.823739999999999   0.836398000000000  23.048297000000002 1
ion Ag   4.694246999999999   7.527536000000000  25.097016999999997 1
ion Ag   4.694246999999999   2.509183000000000  27.145735999999999 1
ion Ag   1.564744999999999   9.200320000000001   0.512209000000000 1
ion-species /projects/musgravc/apps/jdftx-1.6.0/build/pseudopotentials/GBRV_v1.5/$ID_pbe_v1.uspp
ion-species /projects/musgravc/apps/jdftx-1.6.0/build/pseudopotentials/GBRV_v1.5/$ID_pbe_v1.2.uspp
ion-species /projects/musgravc/apps/jdftx-1.6.0/build/pseudopotentials/GBRV_v1.5/$ID_pbe_v1.4.uspp
ion-species /projects/musgravc/apps/jdftx-1.6.0/build/pseudopotentials/GBRV_v1.5/$ID_pbe_v1.5.uspp
ion-width Ecut
ionic-minimize  \
	dirUpdateScheme      L-BFGS \
	linminMethod         DirUpdateRecommended \
	nIterations          100 \
	history              15 \
	knormThreshold       0.0001 \
	energyDiffThreshold  1e-06 \
	nEnergyDiff          2 \
	alphaTstart          1 \
	alphaTmin            1e-10 \
	updateTestStepSize   yes \
	alphaTreduceFactor   0.1 \
	alphaTincreaseFactor 3 \
	nAlphaAdjustMax      3 \
	wolfeEnergy          0.0001 \
	wolfeGradient        0.9 \
	fdTest               no
kpoint   0.000000000000   0.000000000000   0.000000000000  1.00000000000000
kpoint-folding 6 5 1 
latt-move-scale 0 0 0
latt-scale 1 1 1 
lattice  \
	   9.388488000000001   -3.129496000000000    0.000000000000000  \
	   0.000000000000000   11.709503000000000    0.000000000000000  \
	   0.000000000000000    0.000000000000000   57.364609000000002 
lattice-minimize  \
	dirUpdateScheme      L-BFGS \
	linminMethod         DirUpdateRecommended \
	nIterations          0 \
	history              15 \
	knormThreshold       0 \
	energyDiffThreshold  1e-06 \
	nEnergyDiff          2 \
	alphaTstart          1 \
	alphaTmin            1e-10 \
	updateTestStepSize   yes \
	alphaTreduceFactor   0.1 \
	alphaTincreaseFactor 3 \
	nAlphaAdjustMax      3 \
	wolfeEnergy          0.0001 \
	wolfeGradient        0.9 \
	fdTest               no
lcao-params 30 1e-06 0.001
pcm-variant CANDLE
spintype z-spin
subspace-rotation-factor 1 yes
symmetries none
symmetry-threshold 0.0001
target-mu -0.0978 no

van-der-waals D3


Applied RMS atom displacement 0 bohrs to make symmetries exact.

---------- Initializing the Grid ----------
R = 
[      9.38849      -3.1295            0  ]
[            0      11.7095            0  ]
[            0            0      57.3646  ]
unit cell volume = 6306.35
G =
[   0.669244   0.178863         -0  ]
[          0   0.536589          0  ]
[          0         -0   0.109531  ]
Minimum fftbox size, Smin = [  40  52  232  ]
Chosen fftbox size, S = [  40  54  240  ]

---------- Exchange Correlation functional ----------
Initalized PBE GGA exchange.
Initalized PBE GGA correlation.

---------- Setting up pseudopotentials ----------
Width of ionic core gaussian charges (only for fluid interactions / plotting) set to 0.397384

Reading pseudopotential file '/projects/musgravc/apps/jdftx-1.6.0/build/pseudopotentials/GBRV_v1.5/ag_pbe_v1.4.uspp':
  Title: Ag.  Created by USPP 7.3.6 on 1-4-15
  Reference state energy: -147.606242.  19 valence electrons in orbitals:
    |400>  occupation: 2  eigenvalue: -3.637437
    |410>  occupation: 6  eigenvalue: -2.297267
    |420>  occupation: 10  eigenvalue: -0.417763
    |500>  occupation: 0.5  eigenvalue: -0.283525
    |510>  occupation: 0  eigenvalue: -0.122889
  lMax: 2  lLocal: 0  QijEcut: 5.5
  6 projectors sampled on a log grid with 717 points:
    l: 0  eig: -0.283528  rCut: 1.5
    l: 0  eig: -3.637440  rCut: 1.5
    l: 1  eig: -0.122892  rCut: 1.5
    l: 1  eig: -2.297267  rCut: 1.5
    l: 2  eig: -0.417762  rCut: 1.7
    l: 2  eig: -1.000000  rCut: 1.7
  Partial core density with radius 1.2
  Transforming core density to a uniform radial grid of dG=0.02 with 1308 points.
  Transforming local potential to a uniform radial grid of dG=0.02 with 1308 points.
  Transforming nonlocal projectors to a uniform radial grid of dG=0.02 with 432 points.
  Transforming density augmentations to a uniform radial grid of dG=0.02 with 1308 points.
  Transforming atomic orbitals to a uniform radial grid of dG=0.02 with 432 points.
  Core radius for overlap checks: 1.70 bohrs.

Initialized 1 species with 28 total atoms.

Folded 1 k-points by 6x5x1 to 30 k-points.

---------- Setting up k-points, bands, fillings ----------
No reducable k-points. 
Computing the number of bands and number of electrons
Calculating initial fillings.
nElectrons: 532.000000   nBands: 320   nStates: 60

----- Setting up reduced wavefunction bases (one per k-point) -----
average nbasis = 26935.233 , ideal nbasis = 26941.213

----- Initializing Supercell corresponding to k-point mesh -----
Lattice vector linear combinations in supercell:
[   6   0   0  ]
[   0   5   0  ]
[   0   0   1  ]
Supercell lattice vectors:
[  56.3309  -15.6475  0  ]
[  0  58.5475  0  ]
[  0  0  57.3646  ]

Initializing DFT-D3 calculator:
	Parameters set for gga-PBE functional
	s6:  1.000  s_r6:  1.217
	s8:  0.722  s_r8:  1.000
	Per-atom parameters loaded for:
	Ag:  sqrtQ[a0]:  5.443  Rcov[a0]:  2.173  CN: [ 0.00 0.97 ]

Initializing DFT-D2 calculator for fluid / solvation:
	Ag:  C6:  427.91 Eh-a0^6  R0: 3.097 a0

---------- Setting up ewald sum ----------
Optimum gaussian width for ewald sums = 4.229702 bohr.
Real space sum over 715 unit cells with max indices [  6  5  2  ]
Reciprocal space sum over 6435 terms with max indices [  5  6  22  ]

Computing DFT-D3 correction:
# coordination-number Ag 4.611 6.116 7.649 9.176 9.204 9.210 9.211 9.211 9.212 9.211 9.207 9.199 8.421 6.891 6.891 8.421 9.199 9.207 9.211 9.211 9.212 9.210 9.211 9.204 9.176 7.649 6.116 4.611
# diagonal-C6 Ag 268.61 268.61 268.61 268.61 268.61 268.61 268.61 268.61 268.61 268.61 268.61 268.61 268.61 268.61 268.61 268.61 268.61 268.61 268.61 268.61 268.61 268.61 268.61 268.61 268.61 268.61 268.61 268.61
EvdW_6 =   -0.185551
EvdW_8 =   -0.247994

---------- Allocating electronic variables ----------
Initializing wave functions:  linear combination of atomic orbitals
Ag pseudo-atom occupations:   s ( 2 1 )  p ( 6 0 )  d ( 10 )
	FillingsUpdate:  mu: -0.097800000  nElectrons: 532.000000  magneticMoment: [ Abs: 0.00203  Tot: +0.00005 ]
LCAOMinimize: Iter:   0  G: -4080.5638948910827821  |grad|_K:  8.170e-04  alpha:  1.000e+00
	FillingsUpdate:  mu: -0.097800000  nElectrons: 532.000000  magneticMoment: [ Abs: 0.00185  Tot: -0.00000 ]
LCAOMinimize: Iter:   1  G: -4080.6863272641380718  |grad|_K:  6.320e-04  alpha:  7.289e-02  linmin:  5.377e-02  cgtest: -4.429e-01  t[s]:    181.51
	FillingsUpdate:  mu: -0.097800000  nElectrons: 532.000000  magneticMoment: [ Abs: 0.00145  Tot: +0.00002 ]
LCAOMinimize: Iter:   2  G: -4080.8089437416529108  |grad|_K:  7.246e-04  alpha:  1.453e-01  linmin: -6.062e-03  cgtest:  9.374e-01  t[s]:    252.04
	FillingsUpdate:  mu: -0.097800000  nElectrons: 532.000000  magneticMoment: [ Abs: 0.00144  Tot: +0.00005 ]
LCAOMinimize: Iter:   3  G: -4080.9198561651992350  |grad|_K:  1.696e-04  alpha:  5.340e-02  linmin:  1.557e-02  cgtest: -2.205e-01  t[s]:    322.41
LCAOMinimize: 	Predicted alpha/alphaT>3.000000, increasing alphaT to 1.601913e-01.
	FillingsUpdate:  mu: -0.097800000  nElectrons: 532.000000  magneticMoment: [ Abs: 0.00135  Tot: +0.00002 ]
LCAOMinimize: Iter:   4  G: -4080.9454574055807825  |grad|_K:  1.018e-04  alpha:  2.311e-01  linmin: -3.531e-03  cgtest:  2.461e-01  t[s]:    411.75
	FillingsUpdate:  mu: -0.097800000  nElectrons: 532.000000  magneticMoment: [ Abs: 0.00132  Tot: +0.00001 ]
LCAOMinimize: Iter:   5  G: -4080.9493796405749890  |grad|_K:  8.781e-05  alpha:  9.555e-02  linmin:  1.554e-03  cgtest: -2.389e-02  t[s]:    482.51
	FillingsUpdate:  mu: -0.097800000  nElectrons: 532.000000  magneticMoment: [ Abs: 0.00128  Tot: +0.00000 ]
LCAOMinimize: Iter:   6  G: -4080.9537623771002472  |grad|_K:  4.421e-05  alpha:  1.435e-01  linmin: -1.448e-03  cgtest:  4.430e-02  t[s]:    553.23
	FillingsUpdate:  mu: -0.097800000  nElectrons: 532.000000  magneticMoment: [ Abs: 0.00127  Tot: +0.00000 ]
LCAOMinimize: Iter:   7  G: -4080.9540225033711067  |grad|_K:  2.546e-05  alpha:  3.303e-02  linmin:  8.339e-05  cgtest: -2.073e-02  t[s]:    624.26
LCAOMinimize: 	Predicted alpha/alphaT>3.000000, increasing alphaT to 9.907608e-02.
	FillingsUpdate:  mu: -0.097800000  nElectrons: 532.000000  magneticMoment: [ Abs: 0.00127  Tot: +0.00000 ]
LCAOMinimize: Iter:   8  G: -4080.9544399990213606  |grad|_K:  1.824e-05  alpha:  1.605e-01  linmin: -1.360e-03  cgtest:  4.168e-02  t[s]:    713.20
	FillingsUpdate:  mu: -0.097800000  nElectrons: 532.000000  magneticMoment: [ Abs: 0.00127  Tot: -0.00000 ]
LCAOMinimize: Iter:   9  G: -4080.9545211737899990  |grad|_K:  5.478e-06  alpha:  6.038e-02  linmin: -1.902e-05  cgtest: -4.694e-02  t[s]:    783.83
LCAOMinimize: 	Predicted alpha/alphaT>3.000000, increasing alphaT to 1.811524e-01.
	FillingsUpdate:  mu: -0.097800000  nElectrons: 532.000000  magneticMoment: [ Abs: 0.00126  Tot: -0.00000 ]
LCAOMinimize: Iter:  10  G: -4080.9545529620909292  |grad|_K:  5.313e-06  alpha:  2.646e-01  linmin: -3.889e-04  cgtest:  7.649e-03  t[s]:    872.96
	FillingsUpdate:  mu: -0.097800000  nElectrons: 532.000000  magneticMoment: [ Abs: 0.00126  Tot: -0.00000 ]
LCAOMinimize: Iter:  11  G: -4080.9545562647704173  |grad|_K:  2.024e-06  alpha:  2.928e-02  linmin: -3.247e-04  cgtest: -9.387e-03  t[s]:    943.65
LCAOMinimize: 	Predicted alpha/alphaT>3.000000, increasing alphaT to 8.785306e-02.
	FillingsUpdate:  mu: -0.097800000  nElectrons: 532.000000  magneticMoment: [ Abs: 0.00126  Tot: -0.00000 ]
LCAOMinimize: Iter:  12  G: -4080.9545583617064040  |grad|_K:  1.990e-06  alpha:  1.276e-01  linmin: -5.108e-04  cgtest:  6.290e-03  t[s]:   1032.71
	FillingsUpdate:  mu: -0.097800000  nElectrons: 532.000000  magneticMoment: [ Abs: 0.00126  Tot: -0.00000 ]
LCAOMinimize: Iter:  13  G: -4080.9545600035453390  |grad|_K:  6.346e-07  alpha:  1.016e-01  linmin:  1.948e-02  cgtest: -2.314e-01  t[s]:   1103.28
LCAOMinimize: 	Predicted alpha/alphaT>3.000000, increasing alphaT to 3.047403e-01.
	FillingsUpdate:  mu: -0.097800000  nElectrons: 532.000000  magneticMoment: [ Abs: 0.00127  Tot: -0.00000 ]
LCAOMinimize: Iter:  14  G: -4080.9545605024304677  |grad|_K:  1.561e-06  alpha:  3.803e-01  linmin:  1.085e-02  cgtest: -7.455e-02  t[s]:   1192.07
	FillingsUpdate:  mu: -0.097800000  nElectrons: 532.000000  magneticMoment: [ Abs: 0.00127  Tot: -0.00000 ]
LCAOMinimize: Iter:  15  G: -4080.9545606858664542  |grad|_K:  7.591e-07  alpha:  2.090e-02  linmin:  1.053e-03  cgtest:  9.473e-01  t[s]:   1262.62
LCAOMinimize: Encountered beta<0, resetting CG.
LCAOMinimize: Converged (|Delta G|<1.000000e-06 for 2 iters).
----- createFluidSolver() ----- (Fluid-side solver setup)
   Initializing fluid molecule 'H2O'
     Initializing site 'O'
       Electron density: proportional to exp(-r/0.36935)*erfc((r-0.51523)/0.36823) with norm 6.826
       Charge density: gaussian nuclear width 0.478731 with net site charge 0.826
       Polarizability: cuspless exponential with width 0.32 and norm 3.73
       Hard sphere radius: 2.57003 bohrs
       Positions in reference frame:
         [ +0.000000 +0.000000 +0.000000 ]
     Initializing site 'H'
       Electron density: proportional to exp(-r/0.34641)*erfc((r-0)/0.390882) with norm 0.587
       Charge density: gaussian nuclear width 0.377945 with net site charge -0.413
       Polarizability: cuspless exponential with width 0.39 and norm 3.3
       Positions in reference frame:
         [ +0.000000 -1.441945 +1.122523 ]
         [ +0.000000 +1.441945 +1.122523 ]
     Net charge: 0   dipole magnitude: 0.927204
     Initializing spherical shell mfKernel with radius 2.61727 Bohr
     deltaS corrections:
       site 'O': -7.54299
       site 'H': -6.83917
   Initializing fluid molecule 'Na+'
     Initializing site 'Na'
       Electron density: proportional to exp(-r/0.19682)*erfc((r-0.71491)/0.41314) with norm 8.1383
       Charge density: gaussian nuclear width 0.365347 with net site charge -1
       Hard sphere radius: 1.86327 bohrs
       Positions in reference frame:
         [ +0.000000 +0.000000 +0.000000 ]
     Net charge: -1   dipole magnitude: 0
     Initializing gaussian mfKernel with width: 1.55004 Bohr
     deltaS corrections:
       site 'Na': -22.3555
   Initializing fluid molecule 'F-'
     Initializing site 'F'
       Electron density: proportional to exp(-r/0.38886)*erfc((r-0)/0.438782) with norm 8
       Charge density: gaussian nuclear width 0.374796 with net site charge 1
       Hard sphere radius: 2.39995 bohrs
       Positions in reference frame:
         [ +0.000000 +0.000000 +0.000000 ]
     Net charge: 1   dipole magnitude: 0
     Initializing gaussian mfKernel with width: 1.59012 Bohr
     deltaS corrections:
       site 'F': -9.04335

Correction to mu due to finite nuclear width = -0.0837015
   Cavity determined by nc: 0.00142 and sigma: 0.707107
   Nonlocal vdW cavity from gaussian model electron density with norm = 8 and sigma = 0.993594 bohr
   Charge asymmetry in cavity with sensitivity pCavity = 36.5 e-bohr/Eh
   Electrostatic cavity expanded by eta = 1.46 bohrs
   Weighted density cavitation model constrained by Nbulk: 0.0049383 bohr^-3, Pvap: 3.14029 kPa, Rvdw: 2.61727 bohr and sigmaBulk: 4.62e-05 Eh/bohr^2 at T: 298 K.
   Weighted density dispersion model using vdW pair potentials with single solvent site with sqrtC6eff: 0.77 SI.


---- Citations for features of the code used in this run ----

   Software package:
      R. Sundararaman, K. Letchworth-Weaver, K.A. Schwarz, D. Gunceler, Y. Ozhabes and T.A. Arias, 'JDFTx: software for joint density-functional theory', SoftwareX 6, 278 (2017)

   gga-PBE exchange-correlation functional:
      J.P. Perdew, K. Burke and M. Ernzerhof, Phys. Rev. Lett. 77, 3865 (1996)

   Pseudopotentials:
      KF Garrity, JW Bennett, KM Rabe and D Vanderbilt, Comput. Mater. Sci. 81, 446 (2014)

   DFT-D3 dispersion correction:
      S. Grimme, J. Antony, S. Ehrlich and H. Krieg, J. Chem. Phys. 132, 154104 (2010)

   DFT-D2 dispersion correction:
      S. Grimme, J. Comput. Chem. 27, 1787 (2006)

   Charge-asymmetric nonlocally-determined local-electric (CANDLE) solvation model:
      R. Sundararaman and W.A. Goddard III, J. Chem. Phys. 142, 064107 (2015)

   Total energy minimization with Auxiliary Hamiltonian:
      C. Freysoldt, S. Boeck, and J. Neugebauer, Phys. Rev. B 79, 241103(R) (2009)

   Grand-canonical (fixed-potential) DFT:
      R. Sundararaman, W. A. Goddard III and T. A. Arias, J. Chem. Phys. 146, 114104 (2017)

   Linear-tetrahedron sampling for density of states:
      G. Lehmann and M. Taut, Phys. status solidi (b) 54, 469 (1972)

This list may not be complete. Please suggest additional citations or
report any other bugs at https://github.com/shankar1729/jdftx/issues

Initialization completed successfully at t[s]:   1282.02


Computing DFT-D3 correction:
# coordination-number Ag 4.611 6.116 7.649 9.176 9.204 9.210 9.211 9.211 9.212 9.211 9.207 9.199 8.421 6.891 6.891 8.421 9.199 9.207 9.211 9.211 9.212 9.210 9.211 9.204 9.176 7.649 6.116 4.611
# diagonal-C6 Ag 268.61 268.61 268.61 268.61 268.61 268.61 268.61 268.61 268.61 268.61 268.61 268.61 268.61 268.61 268.61 268.61 268.61 268.61 268.61 268.61 268.61 268.61 268.61 268.61 268.61 268.61 268.61 268.61
EvdW_6 =   -0.185551
EvdW_8 =   -0.247994
Fluid solver invoked on fresh (random / LCAO) wavefunctions
Running a vacuum solve first:

-------- Initial electronic minimization -----------
	FillingsUpdate:  mu: +0.249619991  nElectrons: 532.000000  magneticMoment: [ Abs: 0.00127  Tot: -0.00000 ]
ElecMinimize: Iter:   0  G: -4080.955353203699815  |grad|_K:  2.294e-05  alpha:  1.000e+00
	FillingsUpdate:  mu: +0.256614430  nElectrons: 532.000000  magneticMoment: [ Abs: 0.00098  Tot: -0.00000 ]
	SubspaceRotationAdjust: set factor to 1
ElecMinimize: Iter:   1  G: -4081.072769842141042  |grad|_K:  1.573e-05  alpha:  4.301e-01  linmin:  2.349e-05  t[s]:   1467.68
	FillingsUpdate:  mu: +0.242956766  nElectrons: 532.000000  magneticMoment: [ Abs: 0.00077  Tot: +0.00000 ]
	SubspaceRotationAdjust: set factor to 0.659
ElecMinimize: Iter:   2  G: -4081.106292610681066  |grad|_K:  1.396e-05  alpha:  2.600e-01  linmin: -1.681e-05  t[s]:   1586.49
	FillingsUpdate:  mu: +0.246795433  nElectrons: 532.000000  magneticMoment: [ Abs: 0.00073  Tot: +0.00000 ]
	SubspaceRotationAdjust: set factor to 0.38
ElecMinimize: Iter:   3  G: -4081.109813876046701  |grad|_K:  7.676e-06  alpha:  3.418e-02  linmin: -1.173e-04  t[s]:   1705.16
ElecMinimize: 	Predicted alpha/alphaT>3.000000, increasing alphaT to 1.025334e-01.
	FillingsUpdate:  mu: +0.262387701  nElectrons: 532.000000  magneticMoment: [ Abs: 0.00060  Tot: +0.00000 ]
	SubspaceRotationAdjust: set factor to 0.263
ElecMinimize: Iter:   4  G: -4081.115599123922948  |grad|_K:  7.532e-06  alpha:  1.862e-01  linmin:  2.642e-05  t[s]:   1853.64
	FillingsUpdate:  mu: +0.259841420  nElectrons: 532.000000  magneticMoment: [ Abs: 0.00049  Tot: -0.00000 ]
	SubspaceRotationAdjust: set factor to 0.212
ElecMinimize: Iter:   5  G: -4081.119160277701212  |grad|_K:  5.232e-06  alpha:  1.210e-01  linmin: -1.098e-06  t[s]:   1972.28
	FillingsUpdate:  mu: +0.250041053  nElectrons: 532.000000  magneticMoment: [ Abs: 0.00041  Tot: -0.00000 ]
	SubspaceRotationAdjust: set factor to 0.23
ElecMinimize: Iter:   6  G: -4081.121334565475991  |grad|_K:  3.222e-06  alpha:  1.526e-01  linmin: -5.342e-06  t[s]:   2091.41
	FillingsUpdate:  mu: +0.247191960  nElectrons: 532.000000  magneticMoment: [ Abs: 0.00034  Tot: -0.00000 ]
	SubspaceRotationAdjust: set factor to 0.192
ElecMinimize: Iter:   7  G: -4081.122414580428540  |grad|_K:  3.070e-06  alpha:  1.999e-01  linmin:  5.394e-06  t[s]:   2210.10
	FillingsUpdate:  mu: +0.251200150  nElectrons: 532.000000  magneticMoment: [ Abs: 0.00028  Tot: -0.00000 ]
	SubspaceRotationAdjust: set factor to 0.286
ElecMinimize: Iter:   8  G: -4081.123320474934644  |grad|_K:  2.002e-06  alpha:  1.848e-01  linmin:  1.613e-06  t[s]:   2328.70
	FillingsUpdate:  mu: +0.254346749  nElectrons: 532.000000  magneticMoment: [ Abs: 0.00024  Tot: -0.00000 ]
	SubspaceRotationAdjust: set factor to 0.255
ElecMinimize: Iter:   9  G: -4081.123734311721819  |grad|_K:  1.831e-06  alpha:  1.985e-01  linmin:  5.480e-07  t[s]:   2447.49
	FillingsUpdate:  mu: +0.254791216  nElectrons: 532.000000  magneticMoment: [ Abs: 0.00021  Tot: -0.00000 ]
	SubspaceRotationAdjust: set factor to 0.288
ElecMinimize: Iter:  10  G: -4081.124034466491594  |grad|_K:  1.271e-06  alpha:  1.720e-01  linmin:  2.175e-06  t[s]:   2566.11
	FillingsUpdate:  mu: +0.252015677  nElectrons: 532.000000  magneticMoment: [ Abs: 0.00019  Tot: -0.00000 ]
	SubspaceRotationAdjust: set factor to 0.297
ElecMinimize: Iter:  11  G: -4081.124241943246034  |grad|_K:  1.127e-06  alpha:  2.472e-01  linmin:  2.054e-05  t[s]:   2684.94
	FillingsUpdate:  mu: +0.252112541  nElectrons: 532.000000  magneticMoment: [ Abs: 0.00017  Tot: -0.00000 ]
	SubspaceRotationAdjust: set factor to 0.273
ElecMinimize: Iter:  12  G: -4081.124363395225828  |grad|_K:  1.058e-06  alpha:  1.841e-01  linmin:  1.802e-06  t[s]:   2803.51
	FillingsUpdate:  mu: +0.254219323  nElectrons: 532.000000  magneticMoment: [ Abs: 0.00015  Tot: -0.00000 ]
	SubspaceRotationAdjust: set factor to 0.288
ElecMinimize: Iter:  13  G: -4081.124477524799659  |grad|_K:  7.600e-07  alpha:  1.961e-01  linmin:  2.530e-06  t[s]:   2922.42
	FillingsUpdate:  mu: +0.254566217  nElectrons: 532.000000  magneticMoment: [ Abs: 0.00013  Tot: -0.00000 ]
	SubspaceRotationAdjust: set factor to 0.256
ElecMinimize: Iter:  14  G: -4081.124549844597823  |grad|_K:  7.196e-07  alpha:  2.409e-01  linmin:  5.959e-06  t[s]:   3041.56
	FillingsUpdate:  mu: +0.253904076  nElectrons: 532.000000  magneticMoment: [ Abs: 0.00012  Tot: -0.00000 ]
	SubspaceRotationAdjust: set factor to 0.214
ElecMinimize: Iter:  15  G: -4081.124590428431475  |grad|_K:  5.345e-07  alpha:  1.506e-01  linmin: -7.673e-07  t[s]:   3160.94
	FillingsUpdate:  mu: +0.253107509  nElectrons: 532.000000  magneticMoment: [ Abs: 0.00010  Tot: -0.00000 ]
	SubspaceRotationAdjust: set factor to 0.228
ElecMinimize: Iter:  16  G: -4081.124629045333677  |grad|_K:  4.356e-07  alpha:  2.604e-01  linmin:  1.686e-05  t[s]:   3279.71
	FillingsUpdate:  mu: +0.253534632  nElectrons: 532.000000  magneticMoment: [ Abs: 0.00009  Tot: -0.00000 ]
	SubspaceRotationAdjust: set factor to 0.22
ElecMinimize: Iter:  17  G: -4081.124647121083854  |grad|_K:  3.515e-07  alpha:  1.840e-01  linmin:  1.730e-07  t[s]:   3399.13
	FillingsUpdate:  mu: +0.254390921  nElectrons: 532.000000  magneticMoment: [ Abs: 0.00007  Tot: -0.00000 ]
	SubspaceRotationAdjust: set factor to 0.221
ElecMinimize: Iter:  18  G: -4081.124662192546111  |grad|_K:  2.739e-07  alpha:  2.345e-01  linmin: -1.357e-06  t[s]:   3517.85
	FillingsUpdate:  mu: +0.254286018  nElectrons: 532.000000  magneticMoment: [ Abs: 0.00006  Tot: -0.00000 ]
	SubspaceRotationAdjust: set factor to 0.236
ElecMinimize: Iter:  19  G: -4081.124670403462460  |grad|_K:  2.278e-07  alpha:  2.102e-01  linmin:  2.413e-07  t[s]:   3636.52
	FillingsUpdate:  mu: +0.253874943  nElectrons: 532.000000  magneticMoment: [ Abs: 0.00005  Tot: -0.00000 ]
	SubspaceRotationAdjust: set factor to 0.218
ElecMinimize: Iter:  20  G: -4081.124675596189718  |grad|_K:  1.679e-07  alpha:  1.923e-01  linmin:  4.252e-07  t[s]:   3755.57
	FillingsUpdate:  mu: +0.253793846  nElectrons: 532.000000  magneticMoment: [ Abs: 0.00004  Tot: -0.00000 ]
	SubspaceRotationAdjust: set factor to 0.226
ElecMinimize: Iter:  21  G: -4081.124679335649034  |grad|_K:  1.454e-07  alpha:  2.552e-01  linmin:  5.449e-07  t[s]:   3874.34
	FillingsUpdate:  mu: +0.253972966  nElectrons: 532.000000  magneticMoment: [ Abs: 0.00003  Tot: -0.00000 ]
	SubspaceRotationAdjust: set factor to 0.201
ElecMinimize: Iter:  22  G: -4081.124681233907722  |grad|_K:  1.018e-07  alpha:  1.726e-01  linmin: -2.435e-08  t[s]:   3993.36
	FillingsUpdate:  mu: +0.254147417  nElectrons: 532.000000  magneticMoment: [ Abs: 0.00003  Tot: -0.00000 ]
	SubspaceRotationAdjust: set factor to 0.238
ElecMinimize: Iter:  23  G: -4081.124682616258724  |grad|_K:  8.445e-08  alpha:  2.561e-01  linmin: -7.436e-07  t[s]:   4111.93
	FillingsUpdate:  mu: +0.254069839  nElectrons: 532.000000  magneticMoment: [ Abs: 0.00002  Tot: -0.00000 ]
	SubspaceRotationAdjust: set factor to 0.242
ElecMinimize: Iter:  24  G: -4081.124683424843170  |grad|_K:  7.232e-08  alpha:  2.178e-01  linmin: -2.685e-07  t[s]:   4230.71
	FillingsUpdate:  mu: +0.253923026  nElectrons: 532.000000  magneticMoment: [ Abs: 0.00002  Tot: -0.00000 ]
	SubspaceRotationAdjust: set factor to 0.252
ElecMinimize: Iter:  25  G: -4081.124683993543840  |grad|_K:  5.296e-08  alpha:  2.088e-01  linmin: -9.818e-08  t[s]:   4349.60
	FillingsUpdate:  mu: +0.253949860  nElectrons: 532.000000  magneticMoment: [ Abs: 0.00001  Tot: -0.00000 ]
	SubspaceRotationAdjust: set factor to 0.293
ElecMinimize: Iter:  26  G: -4081.124684375160996  |grad|_K:  5.134e-08  alpha:  2.613e-01  linmin: -2.035e-07  t[s]:   4468.52
	FillingsUpdate:  mu: +0.254018645  nElectrons: 532.000000  magneticMoment: [ Abs: 0.00001  Tot: -0.00000 ]
	SubspaceRotationAdjust: set factor to 0.249
ElecMinimize: Iter:  27  G: -4081.124684627233819  |grad|_K:  4.049e-08  alpha:  1.837e-01  linmin: -3.065e-07  t[s]:   4587.17
	FillingsUpdate:  mu: +0.254019196  nElectrons: 532.000000  magneticMoment: [ Abs: 0.00001  Tot: -0.00000 ]
	SubspaceRotationAdjust: set factor to 0.344
ElecMinimize: Iter:  28  G: -4081.124684833699121  |grad|_K:  3.020e-08  alpha:  2.417e-01  linmin: -4.573e-07  t[s]:   4706.27
	FillingsUpdate:  mu: +0.253965336  nElectrons: 532.000000  magneticMoment: [ Abs: 0.00001  Tot: -0.00000 ]
	SubspaceRotationAdjust: set factor to 0.316
ElecMinimize: Iter:  29  G: -4081.124684956352667  |grad|_K:  3.056e-08  alpha:  2.582e-01  linmin:  5.235e-07  t[s]:   4825.61
	FillingsUpdate:  mu: +0.253959988  nElectrons: 532.000000  magneticMoment: [ Abs: 0.00001  Tot: -0.00000 ]
	SubspaceRotationAdjust: set factor to 0.274
ElecMinimize: Iter:  30  G: -4081.124685031884837  |grad|_K:  2.279e-08  alpha:  1.563e-01  linmin: -9.179e-08  t[s]:   4944.86
	FillingsUpdate:  mu: +0.253997223  nElectrons: 532.000000  magneticMoment: [ Abs: 0.00000  Tot: -0.00000 ]
	SubspaceRotationAdjust: set factor to 0.251
ElecMinimize: Iter:  31  G: -4081.124685088824663  |grad|_K:  1.761e-08  alpha:  2.129e-01  linmin:  2.310e-06  t[s]:   5063.72
ElecMinimize: Converged (|Delta G|<1.000000e-07 for 2 iters).
Setting wave functions to eigenvectors of Hamiltonian
Converging empty states (this may take a while): |deigs|: 7.841e-03
Vacuum energy after initial minimize, F = -4081.124685088824663

Shifting auxilliary hamiltonian by -0.351797 to set nElectrons=532.000000

-------- Electronic minimization -----------
	Linear fluid (dielectric constant: 78.4, screening length: 8.12261 Bohr) occupying 0.348978 of unit cell:	Completed after 23 iterations at t[s]:   5513.87
	FillingsUpdate:  mu: -0.097800000  nElectrons: 532.000000  magneticMoment: [ Abs: 0.00000  Tot: -0.00000 ]
ElecMinimize: Iter:   0  G: -4081.125989545446373  |grad|_K:  1.211e-05  alpha:  1.000e+00
	Linear fluid (dielectric constant: 78.4, screening length: 8.12261 Bohr) occupying 0.415455 of unit cell:	Completed after 37 iterations at t[s]:   5614.81
	Linear fluid (dielectric constant: 78.4, screening length: 8.12261 Bohr) occupying 0.350224 of unit cell:	Completed after 27 iterations at t[s]:   5648.79
ElecMinimize: 	Step increased G by 1.858996e-04, reducing alpha to 8.810959e-03.
	Linear fluid (dielectric constant: 78.4, screening length: 8.12261 Bohr) occupying 0.348981 of unit cell:	Completed after 17 iterations at t[s]:   5728.50
	FillingsUpdate:  mu: -0.097800000  nElectrons: 532.026633  magneticMoment: [ Abs: 0.00000  Tot: -0.00000 ]
	SubspaceRotationAdjust: set factor to 0.126
ElecMinimize: Iter:   1  G: -4081.127180759948260  |grad|_K:  9.485e-06  alpha:  8.811e-03  linmin: -4.737e-02  t[s]:   5776.46
	Linear fluid (dielectric constant: 78.4, screening length: 8.12261 Bohr) occupying 0.349009 of unit cell:	Completed after 15 iterations at t[s]:   5820.50
	Linear fluid (dielectric constant: 78.4, screening length: 8.12261 Bohr) occupying 0.349169 of unit cell:	Completed after 16 iterations at t[s]:   5853.12
	FillingsUpdate:  mu: -0.097800000  nElectrons: 532.123661  magneticMoment: [ Abs: 0.00000  Tot: -0.00000 ]
	SubspaceRotationAdjust: set factor to 0.0934
ElecMinimize: Iter:   2  G: -4081.129197733934689  |grad|_K:  3.373e-06  alpha:  2.358e-02  linmin: -3.677e-03  t[s]:   5900.99
	Linear fluid (dielectric constant: 78.4, screening length: 8.12261 Bohr) occupying 0.349202 of unit cell:	Completed after 11 iterations at t[s]:   5944.69
ElecMinimize: 	Predicted alpha/alphaT>3.000000, increasing alphaT to 7.074501e-02.
	Linear fluid (dielectric constant: 78.4, screening length: 8.12261 Bohr) occupying 0.349293 of unit cell:	Completed after 12 iterations at t[s]:   5976.89
ElecMinimize: 	Predicted alpha/alphaT>3.000000, increasing alphaT to 2.122350e-01.
	Linear fluid (dielectric constant: 78.4, screening length: 8.12261 Bohr) occupying 0.349783 of unit cell:	Completed after 15 iterations at t[s]:   6009.70
	Linear fluid (dielectric constant: 78.4, screening length: 8.12261 Bohr) occupying 0.350078 of unit cell:	Completed after 13 iterations at t[s]:   6042.23
	FillingsUpdate:  mu: -0.097800000  nElectrons: 532.268655  magneticMoment: [ Abs: 0.00000  Tot: -0.00000 ]
	SubspaceRotationAdjust: set factor to 0.055
ElecMinimize: Iter:   3  G: -4081.130982408049476  |grad|_K:  5.140e-06  alpha:  2.698e-01  linmin: -1.434e-03  t[s]:   6090.21
	Linear fluid (dielectric constant: 78.4, screening length: 8.12261 Bohr) occupying 0.352661 of unit cell:	Completed after 19 iterations at t[s]:   6134.90
	Linear fluid (dielectric constant: 78.4, screening length: 8.12261 Bohr) occupying 0.351212 of unit cell:	Completed after 17 iterations at t[s]:   6167.67
	FillingsUpdate:  mu: -0.097800000  nElectrons: 532.376477  magneticMoment: [ Abs: 0.00000  Tot: -0.00000 ]
	SubspaceRotationAdjust: set factor to 0.0656
ElecMinimize: Iter:   4  G: -4081.133208396909595  |grad|_K:  2.740e-06  alpha:  1.514e-01  linmin:  6.392e-05  t[s]:   6215.47
	Linear fluid (dielectric constant: 78.4, screening length: 8.12261 Bohr) occupying 0.351135 of unit cell:	Completed after 16 iterations at t[s]:   6259.90
	Linear fluid (dielectric constant: 78.4, screening length: 8.12261 Bohr) occupying 0.351092 of unit cell:	Completed after 15 iterations at t[s]:   6292.61
	FillingsUpdate:  mu: -0.097800000  nElectrons: 532.393016  magneticMoment: [ Abs: 0.00000  Tot: -0.00000 ]
	SubspaceRotationAdjust: set factor to 0.0599
ElecMinimize: Iter:   5  G: -4081.134230967511030  |grad|_K:  2.731e-06  alpha:  2.609e-01  linmin: -2.681e-04  t[s]:   6340.43
	Linear fluid (dielectric constant: 78.4, screening length: 8.12261 Bohr) occupying 0.351534 of unit cell:	Completed after 15 iterations at t[s]:   6384.89
	Linear fluid (dielectric constant: 78.4, screening length: 8.12261 Bohr) occupying 0.351639 of unit cell:	Completed after 12 iterations at t[s]:   6417.24
	FillingsUpdate:  mu: -0.097800000  nElectrons: 532.448199  magneticMoment: [ Abs: 0.00000  Tot: -0.00000 ]
	SubspaceRotationAdjust: set factor to 0.0794
ElecMinimize: Iter:   6  G: -4081.135450958300680  |grad|_K:  2.183e-06  alpha:  3.101e-01  linmin:  2.266e-05  t[s]:   6464.79
	Linear fluid (dielectric constant: 78.4, screening length: 8.12261 Bohr) occupying 0.352705 of unit cell:	Completed after 16 iterations at t[s]:   6509.25
	Linear fluid (dielectric constant: 78.4, screening length: 8.12261 Bohr) occupying 0.352468 of unit cell:	Completed after 13 iterations at t[s]:   6541.46
	FillingsUpdate:  mu: -0.097800000  nElectrons: 532.500151  magneticMoment: [ Abs: 0.00000  Tot: -0.00000 ]
	SubspaceRotationAdjust: set factor to 0.0762
ElecMinimize: Iter:   7  G: -4081.136067054069827  |grad|_K:  2.034e-06  alpha:  2.484e-01  linmin:  3.898e-05  t[s]:   6589.36
	Linear fluid (dielectric constant: 78.4, screening length: 8.12261 Bohr) occupying 0.352419 of unit cell:	Completed after 10 iterations at t[s]:   6633.18
	Linear fluid (dielectric constant: 78.4, screening length: 8.12261 Bohr) occupying 0.352422 of unit cell:	Completed after 12 iterations at t[s]:   6665.28
	FillingsUpdate:  mu: -0.097800000  nElectrons: 532.531009  magneticMoment: [ Abs: 0.00000  Tot: -0.00000 ]
	SubspaceRotationAdjust: set factor to 0.1
ElecMinimize: Iter:   8  G: -4081.136808711986760  |grad|_K:  1.926e-06  alpha:  3.450e-01  linmin: -1.000e-05  t[s]:   6713.10
	Linear fluid (dielectric constant: 78.4, screening length: 8.12261 Bohr) occupying 0.351488 of unit cell:	Completed after 16 iterations at t[s]:   6757.54
	Linear fluid (dielectric constant: 78.4, screening length: 8.12261 Bohr) occupying 0.351709 of unit cell:	Completed after 14 iterations at t[s]:   6789.90
	FillingsUpdate:  mu: -0.097800000  nElectrons: 532.534954  magneticMoment: [ Abs: 0.00000  Tot: -0.00000 ]
	SubspaceRotationAdjust: set factor to 0.0966
ElecMinimize: Iter:   9  G: -4081.137309820132941  |grad|_K:  1.849e-06  alpha:  2.602e-01  linmin: -2.442e-05  t[s]:   6837.94
	Linear fluid (dielectric constant: 78.4, screening length: 8.12261 Bohr) occupying 0.351954 of unit cell:	Completed after 16 iterations at t[s]:   6882.29
	Linear fluid (dielectric constant: 78.4, screening length: 8.12261 Bohr) occupying 0.352006 of unit cell:	Completed after 12 iterations at t[s]:   6914.57
	FillingsUpdate:  mu: -0.097800000  nElectrons: 532.582373  magneticMoment: [ Abs: 0.00000  Tot: -0.00000 ]
	SubspaceRotationAdjust: set factor to 0.11
ElecMinimize: Iter:  10  G: -4081.137841446405673  |grad|_K:  1.703e-06  alpha:  2.990e-01  linmin:  1.302e-04  t[s]:   6962.26
	Linear fluid (dielectric constant: 78.4, screening length: 8.12261 Bohr) occupying 0.352214 of unit cell:	Completed after 16 iterations at t[s]:   7006.69
	Linear fluid (dielectric constant: 78.4, screening length: 8.12261 Bohr) occupying 0.352290 of unit cell:	Completed after 13 iterations at t[s]:   7039.03
	FillingsUpdate:  mu: -0.097800000  nElectrons: 532.635975  magneticMoment: [ Abs: 0.00000  Tot: -0.00000 ]
	SubspaceRotationAdjust: set factor to 0.119
ElecMinimize: Iter:  11  G: -4081.138384276174747  |grad|_K:  1.851e-06  alpha:  3.651e-01  linmin:  2.013e-04  t[s]:   7086.86
	Linear fluid (dielectric constant: 78.4, screening length: 8.12261 Bohr) occupying 0.350697 of unit cell:	Completed after 17 iterations at t[s]:   7131.43
	Linear fluid (dielectric constant: 78.4, screening length: 8.12261 Bohr) occupying 0.351369 of unit cell:	Completed after 16 iterations at t[s]:   7164.27
	FillingsUpdate:  mu: -0.097800000  nElectrons: 532.643040  magneticMoment: [ Abs: 0.00000  Tot: -0.00000 ]
	SubspaceRotationAdjust: set factor to 0.102
ElecMinimize: Iter:  12  G: -4081.138747567547398  |grad|_K:  1.626e-06  alpha:  2.084e-01  linmin:  1.578e-05  t[s]:   7211.91
	Linear fluid (dielectric constant: 78.4, screening length: 8.12261 Bohr) occupying 0.351303 of unit cell:	Completed after 13 iterations at t[s]:   7256.06
	Linear fluid (dielectric constant: 78.4, screening length: 8.12261 Bohr) occupying 0.351304 of unit cell:	Completed after 12 iterations at t[s]:   7288.47
	FillingsUpdate:  mu: -0.097800000  nElectrons: 532.690508  magneticMoment: [ Abs: 0.00000  Tot: -0.00000 ]
	SubspaceRotationAdjust: set factor to 0.122
ElecMinimize: Iter:  13  G: -4081.139231619477869  |grad|_K:  1.334e-06  alpha:  3.542e-01  linmin:  1.226e-04  t[s]:   7336.26
	Linear fluid (dielectric constant: 78.4, screening length: 8.12261 Bohr) occupying 0.351794 of unit cell:	Completed after 15 iterations at t[s]:   7380.69
	Linear fluid (dielectric constant: 78.4, screening length: 8.12261 Bohr) occupying 0.351702 of unit cell:	Completed after 12 iterations at t[s]:   7412.97
	FillingsUpdate:  mu: -0.097800000  nElectrons: 532.729689  magneticMoment: [ Abs: 0.00000  Tot: -0.00000 ]
	SubspaceRotationAdjust: set factor to 0.117
ElecMinimize: Iter:  14  G: -4081.139500219822366  |grad|_K:  1.305e-06  alpha:  2.931e-01  linmin:  1.296e-05  t[s]:   7460.87
	Linear fluid (dielectric constant: 78.4, screening length: 8.12261 Bohr) occupying 0.350649 of unit cell:	Completed after 15 iterations at t[s]:   7505.22
	Linear fluid (dielectric constant: 78.4, screening length: 8.12261 Bohr) occupying 0.351006 of unit cell:	Completed after 14 iterations at t[s]:   7537.93
	FillingsUpdate:  mu: -0.097800000  nElectrons: 532.731057  magneticMoment: [ Abs: 0.00000  Tot: -0.00000 ]
	SubspaceRotationAdjust: set factor to 0.0953
ElecMinimize: Iter:  15  G: -4081.139674436609312  |grad|_K:  1.038e-06  alpha:  1.957e-01  linmin: -1.441e-06  t[s]:   7585.60
	Linear fluid (dielectric constant: 78.4, screening length: 8.12261 Bohr) occupying 0.351053 of unit cell:	Completed after 14 iterations at t[s]:   7629.72
	Linear fluid (dielectric constant: 78.4, screening length: 8.12261 Bohr) occupying 0.351077 of unit cell:	Completed after 12 iterations at t[s]:   7661.90
	FillingsUpdate:  mu: -0.097800000  nElectrons: 532.752641  magneticMoment: [ Abs: 0.00000  Tot: -0.00000 ]
	SubspaceRotationAdjust: set factor to 0.119
ElecMinimize: Iter:  16  G: -4081.139845217101083  |grad|_K:  7.851e-07  alpha:  3.046e-01  linmin: -1.642e-05  t[s]:   7709.60
	Linear fluid (dielectric constant: 78.4, screening length: 8.12261 Bohr) occupying 0.351265 of unit cell:	Completed after 14 iterations at t[s]:   7753.77
	Linear fluid (dielectric constant: 78.4, screening length: 8.12261 Bohr) occupying 0.351265 of unit cell:	Completed after 0 iterations at t[s]:   7784.47
	FillingsUpdate:  mu: -0.097800000  nElectrons: 532.768804  magneticMoment: [ Abs: 0.00000  Tot: -0.00000 ]
	SubspaceRotationAdjust: set factor to 0.125
ElecMinimize: Iter:  17  G: -4081.139942504049941  |grad|_K:  7.308e-07  alpha:  3.031e-01  linmin: -2.248e-05  t[s]:   7832.17
	Linear fluid (dielectric constant: 78.4, screening length: 8.12261 Bohr) occupying 0.350601 of unit cell:	Completed after 15 iterations at t[s]:   7876.42
	Linear fluid (dielectric constant: 78.4, screening length: 8.12261 Bohr) occupying 0.350790 of unit cell:	Completed after 13 iterations at t[s]:   7908.78
	FillingsUpdate:  mu: -0.097800000  nElectrons: 532.764678  magneticMoment: [ Abs: 0.00000  Tot: -0.00000 ]
	SubspaceRotationAdjust: set factor to 0.112
ElecMinimize: Iter:  18  G: -4081.140003203993274  |grad|_K:  6.618e-07  alpha:  2.179e-01  linmin:  1.186e-06  t[s]:   7956.49
	Linear fluid (dielectric constant: 78.4, screening length: 8.12261 Bohr) occupying 0.350831 of unit cell:	Completed after 13 iterations at t[s]:   8000.51
	Linear fluid (dielectric constant: 78.4, screening length: 8.12261 Bohr) occupying 0.350842 of unit cell:	Completed after 11 iterations at t[s]:   8032.68
	FillingsUpdate:  mu: -0.097800000  nElectrons: 532.773981  magneticMoment: [ Abs: 0.00000  Tot: -0.00000 ]
	SubspaceRotationAdjust: set factor to 0.132
ElecMinimize: Iter:  19  G: -4081.140066424551605  |grad|_K:  4.991e-07  alpha:  2.773e-01  linmin: -2.717e-05  t[s]:   8080.56
	Linear fluid (dielectric constant: 78.4, screening length: 8.12261 Bohr) occupying 0.350774 of unit cell:	Completed after 12 iterations at t[s]:   8125.63
	Linear fluid (dielectric constant: 78.4, screening length: 8.12261 Bohr) occupying 0.350747 of unit cell:	Completed after 10 iterations at t[s]:   8157.93
	FillingsUpdate:  mu: -0.097800000  nElectrons: 532.778049  magneticMoment: [ Abs: 0.00000  Tot: -0.00000 ]
	SubspaceRotationAdjust: set factor to 0.151
ElecMinimize: Iter:  20  G: -4081.140116124476663  |grad|_K:  4.834e-07  alpha:  3.827e-01  linmin: -7.381e-06  t[s]:   8205.62
	Linear fluid (dielectric constant: 78.4, screening length: 8.12261 Bohr) occupying 0.350140 of unit cell:	Completed after 14 iterations at t[s]:   8249.82
	Linear fluid (dielectric constant: 78.4, screening length: 8.12261 Bohr) occupying 0.350347 of unit cell:	Completed after 14 iterations at t[s]:   8282.46
	FillingsUpdate:  mu: -0.097800000  nElectrons: 532.772312  magneticMoment: [ Abs: 0.00000  Tot: -0.00000 ]
	SubspaceRotationAdjust: set factor to 0.135
ElecMinimize: Iter:  21  G: -4081.140146918558003  |grad|_K:  4.863e-07  alpha:  2.529e-01  linmin: -1.595e-06  t[s]:   8330.09
	Linear fluid (dielectric constant: 78.4, screening length: 8.12261 Bohr) occupying 0.350462 of unit cell:	Completed after 13 iterations at t[s]:   8374.08
	Linear fluid (dielectric constant: 78.4, screening length: 8.12261 Bohr) occupying 0.350424 of unit cell:	Completed after 12 iterations at t[s]:   8406.51
	FillingsUpdate:  mu: -0.097800000  nElectrons: 532.776680  magneticMoment: [ Abs: 0.00000  Tot: -0.00000 ]
	SubspaceRotationAdjust: set factor to 0.109
ElecMinimize: Iter:  22  G: -4081.140167766874129  |grad|_K:  3.663e-07  alpha:  1.696e-01  linmin:  3.284e-07  t[s]:   8454.38
	Linear fluid (dielectric constant: 78.4, screening length: 8.12261 Bohr) occupying 0.350272 of unit cell:	Completed after 11 iterations at t[s]:   8498.27
	Linear fluid (dielectric constant: 78.4, screening length: 8.12261 Bohr) occupying 0.350130 of unit cell:	Completed after 11 iterations at t[s]:   8530.47
	FillingsUpdate:  mu: -0.097800000  nElectrons: 532.772131  magneticMoment: [ Abs: 0.00000  Tot: -0.00000 ]
	SubspaceRotationAdjust: set factor to 0.125
ElecMinimize: Iter:  23  G: -4081.140190685289781  |grad|_K:  2.861e-07  alpha:  3.287e-01  linmin:  1.089e-05  t[s]:   8578.31
	Linear fluid (dielectric constant: 78.4, screening length: 8.12261 Bohr) occupying 0.349886 of unit cell:	Completed after 13 iterations at t[s]:   8622.24
	Linear fluid (dielectric constant: 78.4, screening length: 8.12261 Bohr) occupying 0.349899 of unit cell:	Completed after 2 iterations at t[s]:   8653.28
	FillingsUpdate:  mu: -0.097800000  nElectrons: 532.767807  magneticMoment: [ Abs: 0.00000  Tot: -0.00000 ]
	SubspaceRotationAdjust: set factor to 0.133
ElecMinimize: Iter:  24  G: -4081.140203927628136  |grad|_K:  2.498e-07  alpha:  3.112e-01  linmin:  1.967e-05  t[s]:   8701.00
	Linear fluid (dielectric constant: 78.4, screening length: 8.12261 Bohr) occupying 0.349922 of unit cell:	Completed after 11 iterations at t[s]:   8744.83
	Linear fluid (dielectric constant: 78.4, screening length: 8.12261 Bohr) occupying 0.349916 of unit cell:	Completed after 10 iterations at t[s]:   8776.94
	FillingsUpdate:  mu: -0.097800000  nElectrons: 532.768715  magneticMoment: [ Abs: 0.00000  Tot: -0.00000 ]
	SubspaceRotationAdjust: set factor to 0.115
ElecMinimize: Iter:  25  G: -4081.140211261514196  |grad|_K:  2.350e-07  alpha:  2.271e-01  linmin: -2.197e-05  t[s]:   8824.78
	Linear fluid (dielectric constant: 78.4, screening length: 8.12261 Bohr) occupying 0.349703 of unit cell:	Completed after 13 iterations at t[s]:   8868.89
	Linear fluid (dielectric constant: 78.4, screening length: 8.12261 Bohr) occupying 0.349718 of unit cell:	Completed after 6 iterations at t[s]:   8900.22
	FillingsUpdate:  mu: -0.097800000  nElectrons: 532.764140  magneticMoment: [ Abs: 0.00000  Tot: -0.00000 ]
	SubspaceRotationAdjust: set factor to 0.111
ElecMinimize: Iter:  26  G: -4081.140217330409541  |grad|_K:  1.723e-07  alpha:  2.107e-01  linmin:  2.474e-05  t[s]:   8948.16
	Linear fluid (dielectric constant: 78.4, screening length: 8.12261 Bohr) occupying 0.349665 of unit cell:	Completed after 4 iterations at t[s]:   8991.27
	Linear fluid (dielectric constant: 78.4, screening length: 8.12261 Bohr) occupying 0.349625 of unit cell:	Completed after 4 iterations at t[s]:   9023.05
	FillingsUpdate:  mu: -0.097800000  nElectrons: 532.761763  magneticMoment: [ Abs: 0.00000  Tot: -0.00000 ]
	SubspaceRotationAdjust: set factor to 0.137
ElecMinimize: Iter:  27  G: -4081.140223003315441  |grad|_K:  1.493e-07  alpha:  3.686e-01  linmin:  1.053e-05  t[s]:   9070.70
	Linear fluid (dielectric constant: 78.4, screening length: 8.12261 Bohr) occupying 0.349597 of unit cell:	Completed after 11 iterations at t[s]:   9114.63
	Linear fluid (dielectric constant: 78.4, screening length: 8.12261 Bohr) occupying 0.349602 of unit cell:	Completed after 5 iterations at t[s]:   9146.14
	FillingsUpdate:  mu: -0.097800000  nElectrons: 532.760887  magneticMoment: [ Abs: 0.00000  Tot: -0.00000 ]
	SubspaceRotationAdjust: set factor to 0.148
ElecMinimize: Iter:  28  G: -4081.140226547397106  |grad|_K:  1.444e-07  alpha:  3.064e-01  linmin: -2.360e-06  t[s]:   9194.35
	Linear fluid (dielectric constant: 78.4, screening length: 8.12261 Bohr) occupying 0.349418 of unit cell:	Completed after 12 iterations at t[s]:   9238.42
	Linear fluid (dielectric constant: 78.4, screening length: 8.12261 Bohr) occupying 0.349473 of unit cell:	Completed after 10 iterations at t[s]:   9270.57
	FillingsUpdate:  mu: -0.097800000  nElectrons: 532.757353  magneticMoment: [ Abs: 0.00000  Tot: -0.00000 ]
	SubspaceRotationAdjust: set factor to 0.131
ElecMinimize: Iter:  29  G: -4081.140228860835123  |grad|_K:  1.488e-07  alpha:  2.137e-01  linmin: -1.075e-05  t[s]:   9318.45
	Linear fluid (dielectric constant: 78.4, screening length: 8.12261 Bohr) occupying 0.349469 of unit cell:	Completed after 11 iterations at t[s]:   9362.65
	Linear fluid (dielectric constant: 78.4, screening length: 8.12261 Bohr) occupying 0.349469 of unit cell:	Completed after 2 iterations at t[s]:   9393.62
	FillingsUpdate:  mu: -0.097800000  nElectrons: 532.756466  magneticMoment: [ Abs: 0.00000  Tot: -0.00000 ]
	SubspaceRotationAdjust: set factor to 0.138
ElecMinimize: Iter:  30  G: -4081.140231734133522  |grad|_K:  1.168e-07  alpha:  2.491e-01  linmin: -2.240e-05  t[s]:   9441.49
	Linear fluid (dielectric constant: 78.4, screening length: 8.12261 Bohr) occupying 0.349437 of unit cell:	Completed after 3 iterations at t[s]:   9484.27
	Linear fluid (dielectric constant: 78.4, screening length: 8.12261 Bohr) occupying 0.349423 of unit cell:	Completed after 7 iterations at t[s]:   9515.82
	FillingsUpdate:  mu: -0.097800000  nElectrons: 532.754390  magneticMoment: [ Abs: 0.00000  Tot: -0.00000 ]
	SubspaceRotationAdjust: set factor to 0.157
ElecMinimize: Iter:  31  G: -4081.140234312414577  |grad|_K:  1.087e-07  alpha:  3.633e-01  linmin:  3.530e-05  t[s]:   9563.56
	Linear fluid (dielectric constant: 78.4, screening length: 8.12261 Bohr) occupying 0.349321 of unit cell:	Completed after 12 iterations at t[s]:   9607.66
	Linear fluid (dielectric constant: 78.4, screening length: 8.12261 Bohr) occupying 0.349346 of unit cell:	Completed after 9 iterations at t[s]:   9639.71
	FillingsUpdate:  mu: -0.097800000  nElectrons: 532.751699  magneticMoment: [ Abs: 0.00000  Tot: -0.00000 ]
	SubspaceRotationAdjust: set factor to 0.146
ElecMinimize: Iter:  32  G: -4081.140235978320106  |grad|_K:  1.224e-07  alpha:  2.731e-01  linmin: -1.309e-05  t[s]:   9688.00
	Linear fluid (dielectric constant: 78.4, screening length: 8.12261 Bohr) occupying 0.349423 of unit cell:	Completed after 13 iterations at t[s]:   9732.28
	Linear fluid (dielectric constant: 78.4, screening length: 8.12261 Bohr) occupying 0.349388 of unit cell:	Completed after 10 iterations at t[s]:   9764.20
	FillingsUpdate:  mu: -0.097800000  nElectrons: 532.752063  magneticMoment: [ Abs: 0.00000  Tot: -0.00000 ]
	SubspaceRotationAdjust: set factor to 0.113
ElecMinimize: Iter:  33  G: -4081.140237134355175  |grad|_K:  8.789e-08  alpha:  1.477e-01  linmin:  9.368e-06  t[s]:   9811.98
	Linear fluid (dielectric constant: 78.4, screening length: 8.12261 Bohr) occupying 0.349376 of unit cell:	Completed after 4 iterations at t[s]:   9854.86
	Linear fluid (dielectric constant: 78.4, screening length: 8.12261 Bohr) occupying 0.349362 of unit cell:	Completed after 7 iterations at t[s]:   9886.36
	FillingsUpdate:  mu: -0.097800000  nElectrons: 532.750581  magneticMoment: [ Abs: 0.00000  Tot: +0.00000 ]
	SubspaceRotationAdjust: set factor to 0.135
ElecMinimize: Iter:  34  G: -4081.140238355539168  |grad|_K:  6.905e-08  alpha:  3.072e-01  linmin:  9.912e-05  t[s]:   9934.00
	Linear fluid (dielectric constant: 78.4, screening length: 8.12261 Bohr) occupying 0.349325 of unit cell:	Completed after 10 iterations at t[s]:   9977.58
	Linear fluid (dielectric constant: 78.4, screening length: 8.12261 Bohr) occupying 0.349327 of unit cell:	Completed after 0 iterations at t[s]:  10008.33
	FillingsUpdate:  mu: -0.097800000  nElectrons: 532.749133  magneticMoment: [ Abs: 0.00000  Tot: +0.00000 ]
	SubspaceRotationAdjust: set factor to 0.133
ElecMinimize: Iter:  35  G: -4081.140239070143707  |grad|_K:  6.846e-08  alpha:  2.911e-01  linmin:  1.563e-04  t[s]:  10056.18
	Linear fluid (dielectric constant: 78.4, screening length: 8.12261 Bohr) occupying 0.349382 of unit cell:	Completed after 11 iterations at t[s]:  10100.01
	Linear fluid (dielectric constant: 78.4, screening length: 8.12261 Bohr) occupying 0.349357 of unit cell:	Completed after 9 iterations at t[s]:  10131.90
	FillingsUpdate:  mu: -0.097800000  nElectrons: 532.749495  magneticMoment: [ Abs: 0.00000  Tot: +0.00000 ]
	SubspaceRotationAdjust: set factor to 0.108
ElecMinimize: Iter:  36  G: -4081.140239441123413  |grad|_K:  5.426e-08  alpha:  1.576e-01  linmin: -1.220e-05  t[s]:  10179.82
	Linear fluid (dielectric constant: 78.4, screening length: 8.12261 Bohr) occupying 0.349350 of unit cell:	Completed after 4 iterations at t[s]:  10223.07
	Linear fluid (dielectric constant: 78.4, screening length: 8.12261 Bohr) occupying 0.349344 of unit cell:	Completed after 7 iterations at t[s]:  10255.73
	FillingsUpdate:  mu: -0.097800000  nElectrons: 532.748675  magneticMoment: [ Abs: 0.00000  Tot: +0.00000 ]
	SubspaceRotationAdjust: set factor to 0.132
ElecMinimize: Iter:  37  G: -4081.140239886332893  |grad|_K:  4.337e-08  alpha:  2.944e-01  linmin:  2.137e-04  t[s]:  10303.44
	Linear fluid (dielectric constant: 78.4, screening length: 8.12261 Bohr) occupying 0.349332 of unit cell:	Completed after 7 iterations at t[s]:  10346.92
	Linear fluid (dielectric constant: 78.4, screening length: 8.12261 Bohr) occupying 0.349330 of unit cell:	Completed after 0 iterations at t[s]:  10377.58
	FillingsUpdate:  mu: -0.097800000  nElectrons: 532.747891  magneticMoment: [ Abs: 0.00000  Tot: +0.00000 ]
	SubspaceRotationAdjust: set factor to 0.15
ElecMinimize: Iter:  38  G: -4081.140240216547681  |grad|_K:  4.061e-08  alpha:  3.420e-01  linmin: -1.811e-04  t[s]:  10425.55
	Linear fluid (dielectric constant: 78.4, screening length: 8.12261 Bohr) occupying 0.349355 of unit cell:	Completed after 10 iterations at t[s]:  10469.60
	Linear fluid (dielectric constant: 78.4, screening length: 8.12261 Bohr) occupying 0.349349 of unit cell:	Completed after 4 iterations at t[s]:  10500.77
	FillingsUpdate:  mu: -0.097800000  nElectrons: 532.748011  magneticMoment: [ Abs: 0.00000  Tot: +0.00000 ]
	SubspaceRotationAdjust: set factor to 0.139
ElecMinimize: Iter:  39  G: -4081.140240438431647  |grad|_K:  4.369e-08  alpha:  2.525e-01  linmin:  1.910e-04  t[s]:  10548.66
	Linear fluid (dielectric constant: 78.4, screening length: 8.12261 Bohr) occupying 0.349322 of unit cell:	Completed after 10 iterations at t[s]:  10592.37
	Linear fluid (dielectric constant: 78.4, screening length: 8.12261 Bohr) occupying 0.349328 of unit cell:	Completed after 2 iterations at t[s]:  10623.34
	FillingsUpdate:  mu: -0.097800000  nElectrons: 532.747170  magneticMoment: [ Abs: 0.00000  Tot: +0.00000 ]
	SubspaceRotationAdjust: set factor to 0.115
ElecMinimize: Iter:  40  G: -4081.140240624820308  |grad|_K:  3.794e-08  alpha:  1.932e-01  linmin:  1.003e-04  t[s]:  10671.09
	Linear fluid (dielectric constant: 78.4, screening length: 8.12261 Bohr) occupying 0.349338 of unit cell:	Completed after 9 iterations at t[s]:  10714.68
	Linear fluid (dielectric constant: 78.4, screening length: 8.12261 Bohr) occupying 0.349341 of unit cell:	Completed after 2 iterations at t[s]:  10745.67
	FillingsUpdate:  mu: -0.097800000  nElectrons: 532.747118  magneticMoment: [ Abs: 0.00000  Tot: +0.00000 ]
	SubspaceRotationAdjust: set factor to 0.112
ElecMinimize: Iter:  41  G: -4081.140240807310875  |grad|_K:  3.166e-08  alpha:  2.433e-01  linmin: -3.483e-04  t[s]:  10793.61
	Linear fluid (dielectric constant: 78.4, screening length: 8.12261 Bohr) occupying 0.349337 of unit cell:	Completed after 2 iterations at t[s]:  10836.34
	Linear fluid (dielectric constant: 78.4, screening length: 8.12261 Bohr) occupying 0.349335 of unit cell:	Completed after 2 iterations at t[s]:  10867.34
	FillingsUpdate:  mu: -0.097800000  nElectrons: 532.746571  magneticMoment: [ Abs: 0.00000  Tot: +0.00000 ]
	SubspaceRotationAdjust: set factor to 0.128
ElecMinimize: Iter:  42  G: -4081.140241004523432  |grad|_K:  2.833e-08  alpha:  3.593e-01  linmin:  5.462e-05  t[s]:  10915.57
	Linear fluid (dielectric constant: 78.4, screening length: 8.12261 Bohr) occupying 0.349321 of unit cell:	Completed after 9 iterations at t[s]:  10959.21
	Linear fluid (dielectric constant: 78.4, screening length: 8.12261 Bohr) occupying 0.349325 of unit cell:	Completed after 2 iterations at t[s]:  10990.23
	FillingsUpdate:  mu: -0.097800000  nElectrons: 532.746025  magneticMoment: [ Abs: 0.00000  Tot: +0.00000 ]
	SubspaceRotationAdjust: set factor to 0.124
ElecMinimize: Iter:  43  G: -4081.140241116068410  |grad|_K:  3.160e-08  alpha:  2.737e-01  linmin:  1.484e-05  t[s]:  11038.20
	Linear fluid (dielectric constant: 78.4, screening length: 8.12261 Bohr) occupying 0.349350 of unit cell:	Completed after 10 iterations at t[s]:  11081.86
	Linear fluid (dielectric constant: 78.4, screening length: 8.12261 Bohr) occupying 0.349337 of unit cell:	Completed after 8 iterations at t[s]:  11113.60
	FillingsUpdate:  mu: -0.097800000  nElectrons: 532.746154  magneticMoment: [ Abs: 0.00000  Tot: +0.00000 ]
	SubspaceRotationAdjust: set factor to 0.0982
ElecMinimize: Iter:  44  G: -4081.140241184055867  |grad|_K:  2.484e-08  alpha:  1.369e-01  linmin:  5.446e-05  t[s]:  11161.20
	Linear fluid (dielectric constant: 78.4, screening length: 8.12261 Bohr) occupying 0.349337 of unit cell:	Completed after 2 iterations at t[s]:  11203.90
	Linear fluid (dielectric constant: 78.4, screening length: 8.12261 Bohr) occupying 0.349336 of unit cell:	Completed after 2 iterations at t[s]:  11234.92
	FillingsUpdate:  mu: -0.097800000  nElectrons: 532.745879  magneticMoment: [ Abs: 0.00000  Tot: +0.00000 ]
	SubspaceRotationAdjust: set factor to 0.13
ElecMinimize: Iter:  45  G: -4081.140241269013586  |grad|_K:  2.028e-08  alpha:  2.569e-01  linmin: -3.200e-04  t[s]:  11282.59
ElecMinimize: Converged (|Delta G|<1.000000e-07 for 2 iters).
Setting wave functions to eigenvectors of Hamiltonian
Converging empty states (this may take a while): |deigs|: 3.233e-04
Single-point solvation energy estimate, DeltaG = -0.015556180188923

Computing DFT-D3 correction:
# coordination-number Ag 4.611 6.116 7.649 9.176 9.204 9.210 9.211 9.211 9.212 9.211 9.207 9.199 8.421 6.891 6.891 8.421 9.199 9.207 9.211 9.211 9.212 9.210 9.211 9.204 9.176 7.649 6.116 4.611
# diagonal-C6 Ag 268.61 268.61 268.61 268.61 268.61 268.61 268.61 268.61 268.61 268.61 268.61 268.61 268.61 268.61 268.61 268.61 268.61 268.61 268.61 268.61 268.61 268.61 268.61 268.61 268.61 268.61 268.61 268.61
EvdW_6 =   -0.185551
EvdW_8 =   -0.247994

# Ionic positions in cartesian coordinates:
ion Ag   9.388487999999999   0.000000000000000  28.170096000000001 1
ion Ag   6.258991999999999   6.691149000000000   1.536568000000000 1
ion Ag   6.258994999999999   1.672784000000000   3.585288000000000 1
ion Ag   3.129499000000000   8.363934000000000   5.634008000000000 1
ion Ag   3.129493000000000   3.345569000000000   7.682785000000000 1
ion Ag  -0.000003000000000  10.036718000000002   9.731503999999999 1
ion Ag   0.000000000000000   5.018353000000001  11.780224000000000 1
ion Ag   6.258991999999999   6.691149000000000  15.877720999999999 1
ion Ag   0.000000000000000   0.000000000000000  13.828944000000000 1
ion Ag   6.258994999999999   1.672784000000000  17.926439999999999 1
ion Ag   3.129499000000000   8.363934000000000  19.975159999999995 1
ion Ag   3.129493000000000   3.345569000000000  22.023937000000000 1
ion Ag  -0.000003000000000  10.036718000000002  24.072657000000000 1
ion Ag   0.000000000000000   5.018353000000001  26.121376000000001 1
ion Ag   1.564745000000000   4.181967000000000   2.560928000000000 1
ion Ag  -1.564748000000000  10.873105000000002   4.609648000000000 1
ion Ag   7.823739999999999   5.854751000000001   6.658368000000000 1
ion Ag   7.823739999999999   0.836398000000000   8.707145000000001 1
ion Ag   4.694246999999999   7.527536000000000  10.755864000000001 1
ion Ag   4.694246999999999   2.509183000000000  12.804584000000000 1
ion Ag   1.564744999999999   9.200320000000001  14.853361000000000 1
ion Ag  -1.564748000000000  10.873105000000002  18.950800000000001 1
ion Ag   1.564745000000000   4.181967000000000  16.902080999999999 1
ion Ag   7.823739999999999   5.854751000000001  20.999520000000000 1
ion Ag   7.823739999999999   0.836398000000000  23.048297000000002 1
ion Ag   4.694246999999999   7.527536000000000  25.097016999999997 1
ion Ag   4.694246999999999   2.509183000000000  27.145735999999999 1
ion Ag   1.564744999999999   9.200320000000001   0.512209000000000 1

# Forces in Cartesian coordinates:
force Ag  -0.000079262796317  -0.000110076608817  -0.005823938387818 1
force Ag  -0.000116446730494   0.000950442537229  -0.001710710365913 1
force Ag   0.001238879376197  -0.000646437936957  -0.006290065321459 1
force Ag   0.000590977079135   0.001423200601879   0.000833781647957 1
force Ag  -0.000524379074618  -0.000205530586628   0.002097521973434 1
force Ag   0.000262168197156  -0.000603906664847   0.000950254053448 1
force Ag   0.000152331699539  -0.000139488589740   0.000470115295510 1
force Ag  -0.000107481754607   0.000248173148342  -0.000028727065825 1
force Ag   0.000328533201264  -0.000028815589266   0.000200666939782 1
force Ag   0.000100535704156   0.000397692404704  -0.000248815437683 1
force Ag  -0.000220498829221   0.000429030543754  -0.000962730510238 1
force Ag   0.000396061142553   0.000268264555340  -0.002072879969095 1
force Ag   0.001505439171198  -0.002685252906485   0.004954416370626 1
force Ag  -0.000196465971501   0.002669227021422   0.004444907440228 1
force Ag   0.000219223525579  -0.002717674941373  -0.004435069971519 1
force Ag  -0.001483599028475   0.002645663584423  -0.004958298551978 1
force Ag  -0.000424702817332  -0.000302299986174   0.002085023009434 1
force Ag   0.000207389693543  -0.000392033843556   0.000957520216479 1
force Ag  -0.000048434642811  -0.000327458810904   0.000247018272799 1
force Ag   0.000091334369173  -0.000217304999559   0.000027356018236 1
force Ag  -0.000356012447697   0.000003743223383  -0.000189869734934 1
force Ag  -0.000239995262048   0.000562990753569  -0.000956212588240 1
force Ag  -0.000132016778043   0.000097889522675  -0.000474868824533 1
force Ag   0.000498039709330   0.000171956652931  -0.002086385199072 1
force Ag  -0.000605965259656  -0.001385914056940  -0.000831512061875 1
force Ag  -0.001179730893602   0.000720738862830   0.006291543927299 1
force Ag   0.000101472834018  -0.000907401564229   0.001724773056165 1
force Ag   0.000044454649678   0.000083121563963   0.005869388019636 1

# Energy components:
   A_diel =       -0.2500026720621403
   Eewald =    16392.5782773926512164
       EH =    20182.8214495483298379
     Eloc =   -41357.4557726614875719
      Enl =      110.3712214777762028
     EvdW =       -0.4335451827211857
      Exc =     -405.9585839430250758
 Exc_core =        5.8287727497397848
       KE =      939.3187283780089274
  MuShift =       -0.0624311987756376
-------------------------------------
     Etot =    -4133.2418861115620530
       TS =        0.0009021607752180
-------------------------------------
        F =    -4133.2427882723368384
      muN =      -52.1025470033233731
-------------------------------------
        G =    -4081.1402412690135861


Dumping 'jdft.fillings' ... done
Dumping 'jdft.wfns' ... done
Dumping 'jdft.fluidState' ... done
Dumping 'jdft.ionpos' ... done
Dumping 'jdft.lattice' ... done
Dumping 'jdft.eigenvals' ... done
Dumping 'jdft.eigStats' ... 
	eMin: -3.482372 at state 0 ( [ +0.000000 +0.000000 +0.000000 ] spin 1 )
	HOMO: -0.098398 at state 40 ( [ +0.333333 +0.000000 +0.000000 ] spin -1 )
	mu  : -0.097800
	LUMO: -0.097591 at state 7 ( [ +0.166667 +0.400000 +0.000000 ] spin 1 )
	eMax: +0.243337 at state 45 ( [ +0.500000 +0.000000 +0.000000 ] spin -1 )
	HOMO-LUMO gap: +0.000807
	Optical gap  : +0.003054 at state 56 ( [ -0.166667 +0.200000 +0.000000 ] spin -1 )
Dumping 'jdft.Ecomponents' ... done
IonicMinimize: Iter:   0  G: -4081.140241269013586  |grad|_K:  1.926e-03  t[s]:  11711.57

#--- Lowdin population analysis ---
# oxidation-state Ag +0.013 -0.089 -0.075 -0.039 +0.000 +0.003 +0.002 +0.000 -0.002 +0.004 +0.004 -0.007 -0.056 -0.064 -0.064 -0.056 -0.007 +0.004 +0.004 +0.000 -0.002 +0.003 +0.002 +0.000 -0.039 -0.075 -0.089 +0.012
# magnetic-moments Ag +0.000 -0.000 +0.000 +0.000 +0.000 -0.000 +0.000 +0.000 +0.000 +0.000 -0.000 -0.000 -0.000 +0.000 +0.000 +0.000 +0.000 -0.000 +0.000 +0.000 +0.000 +0.000 +0.000 +0.000 +0.000 +0.000 +0.000 +0.000


Computing DFT-D3 correction:
# coordination-number Ag 4.625 6.114 7.645 9.170 9.196 9.208 9.214 9.214 9.214 9.213 9.204 9.188 8.418 6.884 6.884 8.418 9.188 9.204 9.213 9.214 9.214 9.208 9.214 9.196 9.170 7.645 6.114 4.625
# diagonal-C6 Ag 268.61 268.61 268.61 268.61 268.61 268.61 268.61 268.61 268.61 268.61 268.61 268.61 268.61 268.61 268.61 268.61 268.61 268.61 268.61 268.61 268.61 268.61 268.61 268.61 268.61 268.61 268.61 268.61
EvdW_6 =   -0.185540
EvdW_8 =   -0.247975
Shifting auxilliary hamiltonian by -0.000049 to set nElectrons=532.745879

-------- Electronic minimization -----------
	Linear fluid (dielectric constant: 78.4, screening length: 8.12261 Bohr) occupying 0.349431 of unit cell:	Completed after 15 iterations at t[s]:  11760.95
	FillingsUpdate:  mu: -0.097800000  nElectrons: 532.745879  magneticMoment: [ Abs: 0.00000  Tot: +0.00000 ]
ElecMinimize: Iter:   0  G: -4081.140462717183709  |grad|_K:  2.707e-07  alpha:  1.000e+00
	Linear fluid (dielectric constant: 78.4, screening length: 8.12261 Bohr) occupying 0.350732 of unit cell:	Completed after 15 iterations at t[s]:  11859.73
	Linear fluid (dielectric constant: 78.4, screening length: 8.12261 Bohr) occupying 0.349617 of unit cell:	Completed after 14 iterations at t[s]:  11892.21
	FillingsUpdate:  mu: -0.097800000  nElectrons: 532.750430  magneticMoment: [ Abs: 0.00000  Tot: +0.00000 ]
	SubspaceRotationAdjust: set factor to 0.0824
ElecMinimize: Iter:   1  G: -4081.140468095840333  |grad|_K:  2.346e-07  alpha:  1.436e-01  linmin:  7.531e-04  t[s]:  11940.39
	Linear fluid (dielectric constant: 78.4, screening length: 8.12261 Bohr) occupying 0.349599 of unit cell:	Completed after 10 iterations at t[s]:  11984.06
ElecMinimize: 	Predicted alpha/alphaT>3.000000, increasing alphaT to 4.306654e-01.
	Linear fluid (dielectric constant: 78.4, screening length: 8.12261 Bohr) occupying 0.349564 of unit cell:	Completed after 11 iterations at t[s]:  12016.44
	Linear fluid (dielectric constant: 78.4, screening length: 8.12261 Bohr) occupying 0.349545 of unit cell:	Completed after 10 iterations at t[s]:  12049.34
	FillingsUpdate:  mu: -0.097800000  nElectrons: 532.748602  magneticMoment: [ Abs: 0.00000  Tot: +0.00000 ]
	SubspaceRotationAdjust: set factor to 0.106
ElecMinimize: Iter:   2  G: -4081.140484442513753  |grad|_K:  2.156e-07  alpha:  5.794e-01  linmin:  6.633e-06  t[s]:  12097.41
	Linear fluid (dielectric constant: 78.4, screening length: 8.12261 Bohr) occupying 0.349541 of unit cell:	Completed after 6 iterations at t[s]:  12140.43
	Linear fluid (dielectric constant: 78.4, screening length: 8.12261 Bohr) occupying 0.349539 of unit cell:	Completed after 2 iterations at t[s]:  12171.49
	FillingsUpdate:  mu: -0.097800000  nElectrons: 532.748361  magneticMoment: [ Abs: 0.00000  Tot: +0.00000 ]
	SubspaceRotationAdjust: set factor to 0.117
ElecMinimize: Iter:   3  G: -4081.140504567482822  |grad|_K:  2.701e-07  alpha:  8.327e-01  linmin: -5.281e-07  t[s]:  12219.50
	Linear fluid (dielectric constant: 78.4, screening length: 8.12261 Bohr) occupying 0.349695 of unit cell:	Completed after 13 iterations at t[s]:  12263.80
	Linear fluid (dielectric constant: 78.4, screening length: 8.12261 Bohr) occupying 0.349628 of unit cell:	Completed after 11 iterations at t[s]:  12295.83
	FillingsUpdate:  mu: -0.097800000  nElectrons: 532.750486  magneticMoment: [ Abs: 0.00000  Tot: +0.00000 ]
	SubspaceRotationAdjust: set factor to 0.117
ElecMinimize: Iter:   4  G: -4081.140522631033491  |grad|_K:  2.470e-07  alpha:  4.753e-01  linmin:  3.471e-06  t[s]:  12344.05
	Linear fluid (dielectric constant: 78.4, screening length: 8.12261 Bohr) occupying 0.349317 of unit cell:	Completed after 14 iterations at t[s]:  12388.43
	Linear fluid (dielectric constant: 78.4, screening length: 8.12261 Bohr) occupying 0.349450 of unit cell:	Completed after 12 iterations at t[s]:  12420.83
	FillingsUpdate:  mu: -0.097800000  nElectrons: 532.746104  magneticMoment: [ Abs: 0.00000  Tot: +0.00000 ]
	SubspaceRotationAdjust: set factor to 0.0852
ElecMinimize: Iter:   5  G: -4081.140531279825154  |grad|_K:  2.532e-07  alpha:  2.720e-01  linmin: -2.679e-06  t[s]:  12468.50
	Linear fluid (dielectric constant: 78.4, screening length: 8.12261 Bohr) occupying 0.349608 of unit cell:	Completed after 13 iterations at t[s]:  12512.73
	Linear fluid (dielectric constant: 78.4, screening length: 8.12261 Bohr) occupying 0.349573 of unit cell:	Completed after 10 iterations at t[s]:  12544.81
	FillingsUpdate:  mu: -0.097800000  nElectrons: 532.749163  magneticMoment: [ Abs: 0.00000  Tot: +0.00000 ]
	SubspaceRotationAdjust: set factor to 0.0613
ElecMinimize: Iter:   6  G: -4081.140538331282642  |grad|_K:  1.327e-07  alpha:  2.113e-01  linmin:  8.420e-06  t[s]:  12592.53
	Linear fluid (dielectric constant: 78.4, screening length: 8.12261 Bohr) occupying 0.349569 of unit cell:	Completed after 2 iterations at t[s]:  12635.46
	Linear fluid (dielectric constant: 78.4, screening length: 8.12261 Bohr) occupying 0.349564 of unit cell:	Completed after 2 iterations at t[s]:  12666.64
	FillingsUpdate:  mu: -0.097800000  nElectrons: 532.749000  magneticMoment: [ Abs: 0.00000  Tot: +0.00000 ]
	SubspaceRotationAdjust: set factor to 0.0711
ElecMinimize: Iter:   7  G: -4081.140542203652785  |grad|_K:  9.008e-08  alpha:  4.218e-01  linmin: -7.594e-05  t[s]:  12715.04
	Linear fluid (dielectric constant: 78.4, screening length: 8.12261 Bohr) occupying 0.349504 of unit cell:	Completed after 11 iterations at t[s]:  12759.05
	Linear fluid (dielectric constant: 78.4, screening length: 8.12261 Bohr) occupying 0.349514 of unit cell:	Completed after 6 iterations at t[s]:  12790.77
	FillingsUpdate:  mu: -0.097800000  nElectrons: 532.747820  magneticMoment: [ Abs: 0.00000  Tot: +0.00000 ]
	SubspaceRotationAdjust: set factor to 0.0585
ElecMinimize: Iter:   8  G: -4081.140543700812486  |grad|_K:  6.326e-08  alpha:  3.538e-01  linmin: -5.101e-05  t[s]:  12838.51
	Linear fluid (dielectric constant: 78.4, screening length: 8.12261 Bohr) occupying 0.349557 of unit cell:	Completed after 11 iterations at t[s]:  12882.32
	Linear fluid (dielectric constant: 78.4, screening length: 8.12261 Bohr) occupying 0.349548 of unit cell:	Completed after 7 iterations at t[s]:  12914.16
	FillingsUpdate:  mu: -0.097800000  nElectrons: 532.748707  magneticMoment: [ Abs: 0.00000  Tot: +0.00000 ]
	SubspaceRotationAdjust: set factor to 0.0392
ElecMinimize: Iter:   9  G: -4081.140544288966794  |grad|_K:  4.399e-08  alpha:  2.823e-01  linmin:  7.665e-05  t[s]:  12962.06
	Linear fluid (dielectric constant: 78.4, screening length: 8.12261 Bohr) occupying 0.349533 of unit cell:	Completed after 7 iterations at t[s]:  13005.53
	Linear fluid (dielectric constant: 78.4, screening length: 8.12261 Bohr) occupying 0.349529 of unit cell:	Completed after 2 iterations at t[s]:  13036.81
	FillingsUpdate:  mu: -0.097800000  nElectrons: 532.748298  magneticMoment: [ Abs: 0.00000  Tot: +0.00000 ]
	SubspaceRotationAdjust: set factor to 0.0529
ElecMinimize: Iter:  10  G: -4081.140544650584616  |grad|_K:  2.615e-08  alpha:  3.591e-01  linmin: -7.424e-04  t[s]:  13084.57
	Linear fluid (dielectric constant: 78.4, screening length: 8.12261 Bohr) occupying 0.349514 of unit cell:	Completed after 9 iterations at t[s]:  13128.59
	Linear fluid (dielectric constant: 78.4, screening length: 8.12261 Bohr) occupying 0.349513 of unit cell:	Completed after 0 iterations at t[s]:  13159.26
	FillingsUpdate:  mu: -0.097800000  nElectrons: 532.747943  magneticMoment: [ Abs: 0.00000  Tot: +0.00000 ]
	SubspaceRotationAdjust: set factor to 0.0504
ElecMinimize: Iter:  11  G: -4081.140544784373105  |grad|_K:  1.995e-08  alpha:  3.688e-01  linmin: -2.216e-03  t[s]:  13207.63
[...]
force Ag  -0.000154782007365  -0.000135867030795   0.000031504896211 1
force Ag   0.000117307548885   0.000001899028115  -0.000093961557145 1
force Ag  -0.000130449978907  -0.000339091297748  -0.000358246250213 1
force Ag   0.000016379463133   0.000155727582389   0.000142448272544 1
force Ag  -0.000066699620060  -0.000012534151773   0.000015935126580 1
force Ag  -0.000041572726542   0.000125944122088  -0.000083916949434 1
force Ag   0.000070055429595   0.000004096443293   0.000018692809251 1
force Ag   0.000020454681425   0.000040664748200   0.000193921973675 1
force Ag   0.000054923596978   0.000062596254589   0.000121603465763 1
force Ag   0.000024162902676   0.000040892117450   0.000206524659708 1
force Ag   0.000055664227865  -0.000017916388036   0.000114720000579 1
force Ag  -0.000009657084693  -0.000026472456379   0.000072321670714 1
force Ag  -0.000114739139427   0.000027008924393   0.000041681506785 1
force Ag   0.000054764852525  -0.000099233803070  -0.000206537646985 1
force Ag   0.000180745606448  -0.000139150786201  -0.000072262872659 1
force Ag  -0.000046034633888  -0.000055706487948  -0.000255950219344 1
force Ag   0.000023678281684   0.000046612078543  -0.000271007419965 1

# Energy components:
   A_diel =       -0.3224375860709141
   Eewald =    16029.2630406563712313
       EH =    19817.3493920036635245
     Eloc =   -40628.5269725076432223
      Enl =      110.3818876294591860
     EvdW =       -0.4298666847627196
      Exc =     -405.9278460249589102
 Exc_core =        5.8287728985887348
       KE =      939.1981377146271370
  MuShift =       -0.0730541047427827
-------------------------------------
     Etot =    -4133.2589460054650772
       TS =        0.0008176865137602
-------------------------------------
        F =    -4133.2597636919790602
      muN =      -52.1149592134376505
-------------------------------------
        G =    -4081.1448044785415732


Dumping 'jdft.fillings' ... done
Dumping 'jdft.wfns' ... done
Dumping 'jdft.fluidState' ... done
Dumping 'jdft.ionpos' ... done
Dumping 'jdft.lattice' ... done
Dumping 'jdft.eigenvals' ... done
Dumping 'jdft.eigStats' ... 
	eMin: -3.481368 at state 0 ( [ +0.000000 +0.000000 +0.000000 ] spin 1 )
	HOMO: -0.098265 at state 16 ( [ +0.500000 +0.200000 +0.000000 ] spin 1 )
	mu  : -0.097800
	LUMO: -0.097370 at state 54 ( [ -0.333333 -0.200000 +0.000000 ] spin -1 )
	eMax: +0.242314 at state 15 ( [ +0.500000 +0.000000 +0.000000 ] spin 1 )
	HOMO-LUMO gap: +0.000895
	Optical gap  : +0.003145 at state 39 ( [ +0.166667 -0.200000 +0.000000 ] spin -1 )
Dumping 'jdft.Ecomponents' ... done
IonicMinimize: Iter:  10  G: -4081.144804478541573  |grad|_K:  1.228e-04  alpha:  2.061e-01  linmin:  1.929e-01  t[s]:  65665.84

#--- Lowdin population analysis ---
# oxidation-state Ag +0.042 -0.162 -0.101 -0.030 +0.004 +0.002 +0.001 -0.000 -0.002 +0.002 +0.004 +0.001 -0.060 -0.035 -0.120 -0.063 +0.001 +0.005 +0.002 -0.000 -0.001 +0.003 +0.003 +0.005 -0.033 -0.069 -0.048 -0.088
# magnetic-moments Ag -0.000 +0.000 +0.000 +0.000 -0.000 -0.000 +0.000 +0.000 +0.000 +0.000 +0.000 -0.000 +0.000 +0.000 +0.000 +0.000 +0.000 -0.000 +0.000 -0.000 +0.000 -0.000 +0.000 +0.000 -0.000 +0.000 +0.000 +0.000


Computing DFT-D3 correction:
# coordination-number Ag 4.913 6.138 7.419 8.933 8.910 9.058 9.105 9.116 9.118 9.107 9.021 8.889 8.299 6.648 6.624 8.299 8.867 9.006 9.110 9.110 9.118 9.057 9.107 8.935 8.950 7.482 6.117 4.960
# diagonal-C6 Ag 268.61 268.61 268.61 268.61 268.61 268.61 268.61 268.61 268.61 268.61 268.61 268.61 268.61 268.61 268.61 268.61 268.61 268.61 268.61 268.61 268.61 268.61 268.61 268.61 268.61 268.61 268.61 268.61
EvdW_6 =   -0.183957
EvdW_8 =   -0.245965
Shifting auxilliary hamiltonian by -0.000053 to set nElectrons=532.872794

-------- Electronic minimization -----------
	Linear fluid (dielectric constant: 78.4, screening length: 8.12261 Bohr) occupying 0.355586 of unit cell:	Completed after 17 iterations at t[s]:  65715.35
	FillingsUpdate:  mu: -0.097800000  nElectrons: 532.872794  magneticMoment: [ Abs: 0.00000  Tot: -0.00000 ]
ElecMinimize: Iter:   0  G: -4081.144680198212427  |grad|_K:  2.445e-07  alpha:  1.000e+00
	Linear fluid (dielectric constant: 78.4, screening length: 8.12261 Bohr) occupying 0.355768 of unit cell:	Completed after 19 iterations at t[s]:  65814.85
	Linear fluid (dielectric constant: 78.4, screening length: 8.12261 Bohr) occupying 0.355664 of unit cell:	Completed after 18 iterations at t[s]:  65847.96
	FillingsUpdate:  mu: -0.097800000  nElectrons: 532.875644  magneticMoment: [ Abs: 0.00000  Tot: +0.00000 ]
	SubspaceRotationAdjust: set factor to 0.0381
ElecMinimize: Iter:   1  G: -4081.144693480230671  |grad|_K:  1.796e-07  alpha:  4.263e-01  linmin:  6.013e-06  t[s]:  65896.01
	Linear fluid (dielectric constant: 78.4, screening length: 8.12261 Bohr) occupying 0.355610 of unit cell:	Completed after 14 iterations at t[s]:  65940.29
	Linear fluid (dielectric constant: 78.4, screening length: 8.12261 Bohr) occupying 0.355597 of unit cell:	Completed after 11 iterations at t[s]:  65972.60
	FillingsUpdate:  mu: -0.097800000  nElectrons: 532.873127  magneticMoment: [ Abs: 0.00000  Tot: +0.00000 ]
	SubspaceRotationAdjust: set factor to 0.044
ElecMinimize: Iter:   2  G: -4081.144702326281731  |grad|_K:  1.705e-07  alpha:  5.273e-01  linmin: -2.421e-06  t[s]:  66020.43
	Linear fluid (dielectric constant: 78.4, screening length: 8.12261 Bohr) occupying 0.355609 of unit cell:	Completed after 12 iterations at t[s]:  66064.40
	Linear fluid (dielectric constant: 78.4, screening length: 8.12261 Bohr) occupying 0.355623 of unit cell:	Completed after 11 iterations at t[s]:  66096.65
	FillingsUpdate:  mu: -0.097800000  nElectrons: 532.873885  magneticMoment: [ Abs: 0.00000  Tot: -0.00000 ]
	SubspaceRotationAdjust: set factor to 0.0496
ElecMinimize: Iter:   3  G: -4081.144719357081613  |grad|_K:  2.373e-07  alpha:  1.126e+00  linmin:  9.870e-07  t[s]:  66144.97
	Linear fluid (dielectric constant: 78.4, screening length: 8.12261 Bohr) occupying 0.355628 of unit cell:	Completed after 12 iterations at t[s]:  66189.08
	Linear fluid (dielectric constant: 78.4, screening length: 8.12261 Bohr) occupying 0.355627 of unit cell:	Completed after 7 iterations at t[s]:  66221.01
	FillingsUpdate:  mu: -0.097800000  nElectrons: 532.873899  magneticMoment: [ Abs: 0.00000  Tot: -0.00000 ]
	SubspaceRotationAdjust: set factor to 0.0532
ElecMinimize: Iter:   4  G: -4081.144742804967336  |grad|_K:  3.029e-07  alpha:  8.005e-01  linmin:  2.837e-06  t[s]:  66268.82
	Linear fluid (dielectric constant: 78.4, screening length: 8.12261 Bohr) occupying 0.355525 of unit cell:	Completed after 17 iterations at t[s]:  66313.40
	Linear fluid (dielectric constant: 78.4, screening length: 8.12261 Bohr) occupying 0.355556 of unit cell:	Completed after 12 iterations at t[s]:  66346.43
	FillingsUpdate:  mu: -0.097800000  nElectrons: 532.870946  magneticMoment: [ Abs: 0.00000  Tot: -0.00000 ]
	SubspaceRotationAdjust: set factor to 0.0529
ElecMinimize: Iter:   5  G: -4081.144769182876644  |grad|_K:  2.869e-07  alpha:  5.532e-01  linmin: -3.074e-06  t[s]:  66395.17
	Linear fluid (dielectric constant: 78.4, screening length: 8.12261 Bohr) occupying 0.355627 of unit cell:	Completed after 14 iterations at t[s]:  66439.90
	Linear fluid (dielectric constant: 78.4, screening length: 8.12261 Bohr) occupying 0.355635 of unit cell:	Completed after 9 iterations at t[s]:  66472.16
	FillingsUpdate:  mu: -0.097800000  nElectrons: 532.873313  magneticMoment: [ Abs: 0.00000  Tot: -0.00000 ]
	SubspaceRotationAdjust: set factor to 0.0481
ElecMinimize: Iter:   6  G: -4081.144795302886450  |grad|_K:  2.436e-07  alpha:  6.098e-01  linmin: -6.244e-06  t[s]:  66520.31
	Linear fluid (dielectric constant: 78.4, screening length: 8.12261 Bohr) occupying 0.355544 of unit cell:	Completed after 15 iterations at t[s]:  66564.77
	Linear fluid (dielectric constant: 78.4, screening length: 8.12261 Bohr) occupying 0.355570 of unit cell:	Completed after 11 iterations at t[s]:  66597.09
	FillingsUpdate:  mu: -0.097800000  nElectrons: 532.870730  magneticMoment: [ Abs: 0.00000  Tot: -0.00000 ]
	SubspaceRotationAdjust: set factor to 0.0402
ElecMinimize: Iter:   7  G: -4081.144808829985323  |grad|_K:  1.833e-07  alpha:  4.379e-01  linmin:  3.282e-06  t[s]:  66645.16
	Linear fluid (dielectric constant: 78.4, screening length: 8.12261 Bohr) occupying 0.355618 of unit cell:	Completed after 13 iterations at t[s]:  66689.48
	Linear fluid (dielectric constant: 78.4, screening length: 8.12261 Bohr) occupying 0.355613 of unit cell:	Completed after 6 iterations at t[s]:  66721.17
	FillingsUpdate:  mu: -0.097800000  nElectrons: 532.872350  magneticMoment: [ Abs: 0.00000  Tot: -0.00000 ]
	SubspaceRotationAdjust: set factor to 0.0358
ElecMinimize: Iter:   8  G: -4081.144815745568849  |grad|_K:  1.131e-07  alpha:  3.958e-01  linmin:  1.780e-05  t[s]:  66769.31
	Linear fluid (dielectric constant: 78.4, screening length: 8.12261 Bohr) occupying 0.355610 of unit cell:	Completed after 7 iterations at t[s]:  66812.86
	Linear fluid (dielectric constant: 78.4, screening length: 8.12261 Bohr) occupying 0.355610 of unit cell:	Completed after 0 iterations at t[s]:  66843.65
	FillingsUpdate:  mu: -0.097800000  nElectrons: 532.872280  magneticMoment: [ Abs: 0.00000  Tot: -0.00000 ]
	SubspaceRotationAdjust: set factor to 0.0375
ElecMinimize: Iter:   9  G: -4081.144818358006887  |grad|_K:  7.256e-08  alpha:  3.930e-01  linmin:  3.596e-05  t[s]:  66891.77
	Linear fluid (dielectric constant: 78.4, screening length: 8.12261 Bohr) occupying 0.355601 of unit cell:	Completed after 10 iterations at t[s]:  66935.87
	Linear fluid (dielectric constant: 78.4, screening length: 8.12261 Bohr) occupying 0.355601 of unit cell:	Completed after 0 iterations at t[s]:  66966.68
	FillingsUpdate:  mu: -0.097800000  nElectrons: 532.872019  magneticMoment: [ Abs: 0.00000  Tot: -0.00000 ]
	SubspaceRotationAdjust: set factor to 0.0364
ElecMinimize: Iter:  10  G: -4081.144819394703063  |grad|_K:  4.384e-08  alpha:  3.790e-01  linmin:  1.186e-04  t[s]:  67014.89
	Linear fluid (dielectric constant: 78.4, screening length: 8.12261 Bohr) occupying 0.355609 of unit cell:	Completed after 10 iterations at t[s]:  67058.68
	Linear fluid (dielectric constant: 78.4, screening length: 8.12261 Bohr) occupying 0.355609 of unit cell:	Completed after 0 iterations at t[s]:  67089.53
	FillingsUpdate:  mu: -0.097800000  nElectrons: 532.872385  magneticMoment: [ Abs: 0.00000  Tot: -0.00000 ]
	SubspaceRotationAdjust: set factor to 0.0344
ElecMinimize: Iter:  11  G: -4081.144819804793769  |grad|_K:  2.577e-08  alpha:  4.103e-01  linmin: -1.769e-03  t[s]:  67138.25
	Linear fluid (dielectric constant: 78.4, screening length: 8.12261 Bohr) occupying 0.355606 of unit cell:	Completed after 2 iterations at t[s]:  67181.20
	Linear fluid (dielectric constant: 78.4, screening length: 8.12261 Bohr) occupying 0.355605 of unit cell:	Completed after 0 iterations at t[s]:  67212.03
	FillingsUpdate:  mu: -0.097800000  nElectrons: 532.872321  magneticMoment: [ Abs: 0.00000  Tot: -0.00000 ]
	SubspaceRotationAdjust: set factor to 0.0396
ElecMinimize: Iter:  12  G: -4081.144819972508685  |grad|_K:  1.912e-08  alpha:  4.735e-01  linmin: -8.586e-04  t[s]:  67260.48
	Linear fluid (dielectric constant: 78.4, screening length: 8.12261 Bohr) occupying 0.355600 of unit cell:	Completed after 6 iterations at t[s]:  67303.93
	Linear fluid (dielectric constant: 78.4, screening length: 8.12261 Bohr) occupying 0.355601 of unit cell:	Completed after 2 iterations at t[s]:  67335.04
	FillingsUpdate:  mu: -0.097800000  nElectrons: 532.872230  magneticMoment: [ Abs: 0.00000  Tot: -0.00000 ]
	SubspaceRotationAdjust: set factor to 0.04
ElecMinimize: Iter:  13  G: -4081.144820034415261  |grad|_K:  1.448e-08  alpha:  3.341e-01  linmin: -1.428e-03  t[s]:  67383.06
	Linear fluid (dielectric constant: 78.4, screening length: 8.12261 Bohr) occupying 0.355605 of unit cell:	Completed after 5 iterations at t[s]:  67426.36
	Linear fluid (dielectric constant: 78.4, screening length: 8.12261 Bohr) occupying 0.355605 of unit cell:	Completed after 0 iterations at t[s]:  67457.05
	FillingsUpdate:  mu: -0.097800000  nElectrons: 532.872428  magneticMoment: [ Abs: 0.00000  Tot: -0.00000 ]
	SubspaceRotationAdjust: set factor to 0.0476
ElecMinimize: Iter:  14  G: -4081.144820077543500  |grad|_K:  1.147e-08  alpha:  3.793e-01  linmin: -1.957e-03  t[s]:  67505.19
ElecMinimize: Converged (|Delta G|<1.000000e-07 for 2 iters).
Setting wave functions to eigenvectors of Hamiltonian
Converging empty states (this may take a while): |deigs|: 5.071e-08

Computing DFT-D3 correction:
# coordination-number Ag 4.913 6.138 7.419 8.933 8.910 9.058 9.105 9.116 9.118 9.107 9.021 8.889 8.299 6.648 6.624 8.299 8.867 9.006 9.110 9.110 9.118 9.057 9.107 8.935 8.950 7.482 6.117 4.960
# diagonal-C6 Ag 268.61 268.61 268.61 268.61 268.61 268.61 268.61 268.61 268.61 268.61 268.61 268.61 268.61 268.61 268.61 268.61 268.61 268.61 268.61 268.61 268.61 268.61 268.61 268.61 268.61 268.61 268.61 268.61
EvdW_6 =   -0.183957
EvdW_8 =   -0.245965

# Ionic positions in cartesian coordinates:
ion Ag   9.383486322792841  -0.023548700124428  28.086603076298822 1
ion Ag   6.258300535854911   6.741917038607216   1.443360796633504 1
ion Ag   6.292844124349413   1.712037977558115   3.300240216855840 1
ion Ag   3.139148397157324   8.400632876804005   5.642746084117995 1
ion Ag   3.140727275719297   3.346229605801276   7.609407015558906 1
ion Ag  -0.015890477081785  10.036535428233908   9.701937344193604 1
ion Ag   0.005817456248156   5.015966440377360  11.763292772619099 1
ion Ag   6.258482324326377   6.706522421134077  15.893310713363480 1
ion Ag   0.000946459505124   0.006637421530577  13.828676042155893 1
ion Ag   6.263416645823965   1.694401879350992  17.945530926099469 1
ion Ag   3.136274575974729   8.366827501769590  20.020479401036035 1
ion Ag   3.118311090696797   3.349942627825260  22.090539668847079 1
ion Ag   0.044886619219915   9.940454881080299  24.215774864302098 1
ion Ag  -0.030196607440150   5.057138052111023  26.375881739863292 1
ion Ag   1.591449095849822   4.118271880257755   2.284997791541149 1
ion Ag  -1.611213174968625  10.968271863912952   4.472853110281671 1
ion Ag   7.840587368472182   5.852106419600624   6.593360125200611 1
ion Ag   7.818103630499690   0.852843719099181   8.656890289598611 1
ion Ag   4.694737121411036   7.520040790966713  10.745778796956683 1
ion Ag   4.696036568028366   2.507600961322270  12.787101801108985 1
ion Ag   1.558463483628524   9.209491511098454  14.856336286720746 1
ion Ag  -1.552406381146315  10.888080698347448  18.986828558376526 1
ion Ag   1.565161729112461   4.196788581344893  16.917163140319282 1
ion Ag   7.821733275361579   5.864199299430031  21.059038800669551 1
ion Ag   7.817601476841268   0.807272212981601  23.069836391371609 1
ion Ag   4.659565018830159   7.471373691307530  25.335414554240831 1
ion Ag   4.686672813306417   2.445032463393965  27.249288799235767 1
ion Ag   1.560825231626501   9.170464454877326   0.619596892432848 1

# Forces in Cartesian coordinates:
force Ag  -0.000074963842154   0.000019294253561   0.000069494486108 1
force Ag   0.000027525600800   0.000083188659021  -0.000217929682604 1
force Ag  -0.000104339122924   0.000080505435799   0.000084630198009 1
force Ag  -0.000044981601264  -0.000002772401983  -0.000086224007880 1
force Ag  -0.000007582158598  -0.000000893670822  -0.000087738360155 1
force Ag  -0.000028800726827   0.000011267904630  -0.000016733683777 1
force Ag  -0.000042128717003   0.000016827720880   0.000031907872785 1
force Ag  -0.000059012755232  -0.000001720596898  -0.000039758631424 1
force Ag  -0.000026162840567   0.000006996643812  -0.000029234694455 1
force Ag  -0.000071952594083  -0.000044611463454  -0.000112957559929 1
force Ag  -0.000059010896078  -0.000084802629670   0.000074043574617 1
force Ag  -0.000079432896150  -0.000033022354614   0.000104363267505 1
force Ag  -0.000034719004273  -0.000018073185480  -0.000107496792100 1
force Ag  -0.000024541857753  -0.000131408841864  -0.000189331177751 1
force Ag   0.000015987418197   0.000273219792030  -0.000011617710212 1
force Ag   0.000030038696636  -0.000103081441300   0.000084607105192 1
force Ag   0.000062194470274   0.000047692163840  -0.000127864620967 1
force Ag   0.000036253087327   0.000083771752242  -0.000019850136576 1
force Ag   0.000063585601388   0.000034591632353   0.000150903994462 1
force Ag   0.000071526373751   0.000023719451152   0.000053872678827 1
force Ag   0.000080580419755   0.000012735323691   0.000025027598626 1
force Ag   0.000103120729671  -0.000060768685193   0.000048218734328 1
force Ag   0.000042375326885   0.000020786997908   0.000012654308895 1
force Ag  -0.000038699704094   0.000032616886474   0.000200973600480 1
force Ag   0.000041509426859  -0.000105756790986   0.000000662099850 1
force Ag   0.000097794307283  -0.000013377848189  -0.000131785606285 1
force Ag  -0.000051881433722  -0.000151697868799  -0.000146084757576 1
force Ag   0.000057087232625  -0.000063914154719  -0.000177225969943 1

# Energy components:
   A_diel =       -0.3222714094666054
   Eewald =    16035.2387056598818162
       EH =    19823.2983155269648705
     Eloc =   -40640.4531299945156206
      Enl =      110.3822899058698681
     EvdW =       -0.4299219350032543
      Exc =     -405.9286407471258258
 Exc_core =        5.8287729351083133
       KE =      939.1999770937054564
  MuShift =       -0.0730234695227685
-------------------------------------
     Etot =    -4133.2589264340995214
       TS =        0.0008170615170502
-------------------------------------
        F =    -4133.2597434956169309
      muN =      -52.1149234180734737
-------------------------------------
        G =    -4081.1448200775434998


Dumping 'jdft.fillings' ... done
Dumping 'jdft.wfns' ... done
Dumping 'jdft.fluidState' ... done
Dumping 'jdft.ionpos' ... done
Dumping 'jdft.lattice' ... done
Dumping 'jdft.eigenvals' ... done
Dumping 'jdft.eigStats' ... 
	eMin: -3.481460 at state 0 ( [ +0.000000 +0.000000 +0.000000 ] spin 1 )
	HOMO: -0.098320 at state 46 ( [ +0.500000 +0.200000 +0.000000 ] spin -1 )
	mu  : -0.097800
	LUMO: -0.097393 at state 24 ( [ -0.333333 -0.200000 +0.000000 ] spin 1 )
	eMax: +0.242289 at state 45 ( [ +0.500000 +0.000000 +0.000000 ] spin -1 )
	HOMO-LUMO gap: +0.000927
	Optical gap  : +0.003147 at state 26 ( [ -0.166667 +0.200000 +0.000000 ] spin 1 )
Dumping 'jdft.Ecomponents' ... done
IonicMinimize: Iter:  11  G: -4081.144820077543500  |grad|_K:  8.346e-05  alpha:  1.000e+00  linmin: -2.750e-01  t[s]:  67703.86
IonicMinimize: Converged (|grad|_K<1.000000e-04).

#--- Lowdin population analysis ---
# oxidation-state Ag +0.041 -0.162 -0.101 -0.030 +0.004 +0.003 +0.002 -0.000 -0.002 +0.002 +0.004 +0.001 -0.060 -0.036 -0.120 -0.062 +0.001 +0.005 +0.002 -0.000 -0.001 +0.003 +0.003 +0.005 -0.033 -0.069 -0.048 -0.087
# magnetic-moments Ag -0.000 -0.000 +0.000 -0.000 -0.000 +0.000 +0.000 +0.000 -0.000 -0.000 -0.000 -0.000 +0.000 +0.000 -0.000 +0.000 -0.000 +0.000 -0.000 -0.000 -0.000 +0.000 -0.000 +0.000 -0.000 +0.000 -0.000 +0.000


Dumping 'jdft.n_up' ... done
Dumping 'jdft.n_dn' ... done
Dumping 'jdft.tau_up' ... done
Dumping 'jdft.tau_dn' ... done
Dumping 'jdft.eigenvals' ... done
Dumping 'jdft.eigStats' ... 
	eMin: -3.481460 at state 0 ( [ +0.000000 +0.000000 +0.000000 ] spin 1 )
	HOMO: -0.098320 at state 46 ( [ +0.500000 +0.200000 +0.000000 ] spin -1 )
	mu  : -0.097800
	LUMO: -0.097393 at state 24 ( [ -0.333333 -0.200000 +0.000000 ] spin 1 )
	eMax: +0.242289 at state 45 ( [ +0.500000 +0.000000 +0.000000 ] spin -1 )
	HOMO-LUMO gap: +0.000927
	Optical gap  : +0.003147 at state 26 ( [ -0.166667 +0.200000 +0.000000 ] spin 1 )
Dumping 'jdft.kPts' ... done
Dumping 'jdft.dosUp' ... done.
Dumping 'jdft.dosDn' ... done.
End date and time: Tue Dec  7 12:06:16 2021  (Duration: 0-18:49:38.19)
Done!
