
*************** JDFTx 1.7.0 (git hash 5f12716a) ***************

Start date and time: Thu Sep  8 21:30:22 2022
Executable /home/nisi6161/jdftx_alpine/build/jdftx with command-line: -i in
Running on hosts (process indices):  c3cpu-a2-u9-2.rc.int.colorado.edu (0-17)
Divided in process groups (process indices):  0 (0)  1 (1)  2 (2)  3 (3)  4 (4)  5 (5)  6 (6)  7 (7)  8 (8)  9 (9)  10 (10)  11 (11)  12 (12)  13 (13)  14 (14)  15 (15)  16 (16)  17 (17)
Resource initialization completed at t[s]:      0.00
Run totals: 18 processes, 64 threads, 0 GPUs


Input parsed successfully to the following command list (including defaults):

basis kpoint-dependent
converge-empty-states yes
coords-type Cartesian
core-overlap-check none
coulomb-interaction Periodic
davidson-band-ratio 1.1
density-of-states Etol 1.000000e-06 Esigma 1.000000e-03 \
		Complete \
	Total \
	OrthoOrbital Pt 1   s \
	OrthoOrbital Pt 1   p \
	OrthoOrbital Pt 1   px \
	OrthoOrbital Pt 1   py \
	OrthoOrbital Pt 1   pz \
	OrthoOrbital Pt 1   d \
	OrthoOrbital Pt 1   dxy \
	OrthoOrbital Pt 1   dyz \
	OrthoOrbital Pt 1   dz2 \
	OrthoOrbital Pt 1   dxz \
	OrthoOrbital Pt 1   dx2-y2 \
	OrthoOrbital Pt 2   s \
	OrthoOrbital Pt 2   p \
	OrthoOrbital Pt 2   px \
	OrthoOrbital Pt 2   py \
	OrthoOrbital Pt 2   pz \
	OrthoOrbital Pt 2   d \
	OrthoOrbital Pt 2   dxy \
	OrthoOrbital Pt 2   dyz \
	OrthoOrbital Pt 2   dz2 \
	OrthoOrbital Pt 2   dxz \
	OrthoOrbital Pt 2   dx2-y2 \
	OrthoOrbital Pt 3   s \
	OrthoOrbital Pt 3   p \
	OrthoOrbital Pt 3   px \
	OrthoOrbital Pt 3   py \
	OrthoOrbital Pt 3   pz \
	OrthoOrbital Pt 3   d \
	OrthoOrbital Pt 3   dxy \
	OrthoOrbital Pt 3   dyz \
	OrthoOrbital Pt 3   dz2 \
	OrthoOrbital Pt 3   dxz \
	OrthoOrbital Pt 3   dx2-y2 \
	OrthoOrbital Pt 4   s \
	OrthoOrbital Pt 4   p \
	OrthoOrbital Pt 4   px \
	OrthoOrbital Pt 4   py \
	OrthoOrbital Pt 4   pz \
	OrthoOrbital Pt 4   d \
	OrthoOrbital Pt 4   dxy \
	OrthoOrbital Pt 4   dyz \
	OrthoOrbital Pt 4   dz2 \
	OrthoOrbital Pt 4   dxz \
	OrthoOrbital Pt 4   dx2-y2 \
	OrthoOrbital Pt 5   s \
	OrthoOrbital Pt 5   p \
	OrthoOrbital Pt 5   px \
	OrthoOrbital Pt 5   py \
	OrthoOrbital Pt 5   pz \
	OrthoOrbital Pt 5   d \
	OrthoOrbital Pt 5   dxy \
	OrthoOrbital Pt 5   dyz \
	OrthoOrbital Pt 5   dz2 \
	OrthoOrbital Pt 5   dxz \
	OrthoOrbital Pt 5   dx2-y2 \
	OrthoOrbital Pt 6   s \
	OrthoOrbital Pt 6   p \
	OrthoOrbital Pt 6   px \
	OrthoOrbital Pt 6   py \
	OrthoOrbital Pt 6   pz \
	OrthoOrbital Pt 6   d \
	OrthoOrbital Pt 6   dxy \
	OrthoOrbital Pt 6   dyz \
	OrthoOrbital Pt 6   dz2 \
	OrthoOrbital Pt 6   dxz \
	OrthoOrbital Pt 6   dx2-y2 \
	OrthoOrbital Pt 7   s \
	OrthoOrbital Pt 7   p \
	OrthoOrbital Pt 7   px \
	OrthoOrbital Pt 7   py \
	OrthoOrbital Pt 7   pz \
	OrthoOrbital Pt 7   d \
	OrthoOrbital Pt 7   dxy \
	OrthoOrbital Pt 7   dyz \
	OrthoOrbital Pt 7   dz2 \
	OrthoOrbital Pt 7   dxz \
	OrthoOrbital Pt 7   dx2-y2 \
	OrthoOrbital Pt 8   s \
	OrthoOrbital Pt 8   p \
	OrthoOrbital Pt 8   px \
	OrthoOrbital Pt 8   py \
	OrthoOrbital Pt 8   pz \
	OrthoOrbital Pt 8   d \
	OrthoOrbital Pt 8   dxy \
	OrthoOrbital Pt 8   dyz \
	OrthoOrbital Pt 8   dz2 \
	OrthoOrbital Pt 8   dxz \
	OrthoOrbital Pt 8   dx2-y2 \
	OrthoOrbital Pt 9   s \
	OrthoOrbital Pt 9   p \
	OrthoOrbital Pt 9   px \
	OrthoOrbital Pt 9   py \
	OrthoOrbital Pt 9   pz \
	OrthoOrbital Pt 9   d \
	OrthoOrbital Pt 9   dxy \
	OrthoOrbital Pt 9   dyz \
	OrthoOrbital Pt 9   dz2 \
	OrthoOrbital Pt 9   dxz \
	OrthoOrbital Pt 9   dx2-y2 \
	OrthoOrbital Pt 10   s \
	OrthoOrbital Pt 10   p \
	OrthoOrbital Pt 10   px \
	OrthoOrbital Pt 10   py \
	OrthoOrbital Pt 10   pz \
	OrthoOrbital Pt 10   d \
	OrthoOrbital Pt 10   dxy \
	OrthoOrbital Pt 10   dyz \
	OrthoOrbital Pt 10   dz2 \
	OrthoOrbital Pt 10   dxz \
	OrthoOrbital Pt 10   dx2-y2
dump End ElecDensity KEdensity BandEigs EigStats RhoAtom DOS Kpoints
dump Ionic State IonicPositions Lattice EigStats Ecomponents
dump 
dump 
dump 
dump 
dump 
dump 
dump 
dump 
dump-name jdft.$VAR
elec-cutoff 20
elec-eigen-algo Davidson
elec-ex-corr gga-PBE
elec-initial-magnetization 0.000000 no
elec-n-bands 96
elec-smearing Fermi 0.001
electronic-minimize  \
	dirUpdateScheme      FletcherReeves \
	linminMethod         DirUpdateRecommended \
	nIterations          100 \
	history              15 \
	knormThreshold       0 \
	energyDiffThreshold  1e-07 \
	nEnergyDiff          2 \
	alphaTstart          1 \
	alphaTmin            1e-10 \
	updateTestStepSize   yes \
	alphaTreduceFactor   0.1 \
	alphaTincreaseFactor 3 \
	nAlphaAdjustMax      3 \
	wolfeEnergy          0.0001 \
	wolfeGradient        0.9 \
	fdTest               no
exchange-regularization WignerSeitzTruncated
fluid LinearPCM 298.000000 1.013250
fluid-anion F- 0.5 MeanFieldLJ \
	epsBulk 1 \
	pMol 0 \
	epsInf 1 \
	Pvap 0 \
	sigmaBulk 0 \
	Rvdw 2.24877 \
	Res 0 \
	tauNuc 343133
fluid-cation Na+ 0.5 MeanFieldLJ \
	epsBulk 1 \
	pMol 0 \
	epsInf 1 \
	Pvap 0 \
	sigmaBulk 0 \
	Rvdw 2.19208 \
	Res 0 \
	tauNuc 343133
fluid-ex-corr lda-TF lda-PZ
fluid-gummel-loop 10 1.000000e-05
fluid-minimize  \
	dirUpdateScheme      PolakRibiere \
	linminMethod         DirUpdateRecommended \
	nIterations          400 \
	history              15 \
	knormThreshold       1e-11 \
	energyDiffThreshold  0 \
	nEnergyDiff          2 \
	alphaTstart          1 \
	alphaTmin            1e-10 \
	updateTestStepSize   yes \
	alphaTreduceFactor   0.1 \
	alphaTincreaseFactor 3 \
	nAlphaAdjustMax      6 \
	wolfeEnergy          0.0001 \
	wolfeGradient        0.9 \
	fdTest               no
fluid-solvent H2O 55.338 ScalarEOS \
	epsBulk 78.4 \
	pMol 0.92466 \
	epsInf 1.77 \
	Pvap 1.06736e-10 \
	sigmaBulk 4.62e-05 \
	Rvdw 2.61727 \
	Res 1.42 \
	tauNuc 343133 \
	poleEl 15 7 1
forces-output-coords Positions
ion Pt   3.704059000000000   1.815113000000000  12.571568999999998 1
ion Pt  -0.001040000000000   3.270926000000000   9.140345999999999 1
ion Pt   3.697843999999999   4.972532000000000   5.876096999999999 1
ion Pt  -0.004388000000000   6.545111000000000   2.253630000000000 1
ion Pt  -3.697681000000000   8.269474000000001  15.435163999999999 1
ion Pt   3.701373000000000   6.609264000000000  10.669056999999999 1
ion Pt   3.700841000000000   0.038393000000000   7.404359999999999 1
ion Pt  -0.004484000000000   1.493602000000000   3.974031000000000 1
ion Pt   3.697641000000000   3.311767000000000   1.112222000000000 1
ion Pt   0.004151000000000   5.036371000000000  14.288593999999996 1
ion-species /projects/musgravc/apps/jdftx-1.6.0/build/pseudopotentials/GBRV_v1.5/$ID_pbe_v1.uspp
ion-species /projects/musgravc/apps/jdftx-1.6.0/build/pseudopotentials/GBRV_v1.5/$ID_pbe_v1.2.uspp
ion-species /projects/musgravc/apps/jdftx-1.6.0/build/pseudopotentials/GBRV_v1.5/$ID_pbe_v1.4.uspp
ion-species /projects/musgravc/apps/jdftx-1.6.0/build/pseudopotentials/GBRV_v1.5/$ID_pbe_v1.5.uspp
ion-width Ecut
ionic-minimize  \
	dirUpdateScheme      L-BFGS \
	linminMethod         DirUpdateRecommended \
	nIterations          100 \
	history              15 \
	knormThreshold       0.0001 \
	energyDiffThreshold  0.0001 \
	nEnergyDiff          2 \
	alphaTstart          1 \
	alphaTmin            1e-10 \
	updateTestStepSize   yes \
	alphaTreduceFactor   0.1 \
	alphaTincreaseFactor 3 \
	nAlphaAdjustMax      3 \
	wolfeEnergy          0.0001 \
	wolfeGradient        0.9 \
	fdTest               no
kpoint   0.000000000000   0.000000000000   0.000000000000  1.00000000000000
kpoint-folding 9 7 1 
latt-move-scale 0 0 0
latt-scale 1 1 1 
lattice  \
	   7.399158000000000   -3.699579000000000    0.000000000000000  \
	   0.000000000000000    8.272510000000000    0.000000000000000  \
	   0.000000000000000    0.000000000000000   49.635063000000002 
lattice-minimize  \
	dirUpdateScheme      L-BFGS \
	linminMethod         DirUpdateRecommended \
	nIterations          0 \
	history              15 \
	knormThreshold       0 \
	energyDiffThreshold  1e-06 \
	nEnergyDiff          2 \
	alphaTstart          1 \
	alphaTmin            1e-10 \
	updateTestStepSize   yes \
	alphaTreduceFactor   0.1 \
	alphaTincreaseFactor 3 \
	nAlphaAdjustMax      3 \
	wolfeEnergy          0.0001 \
	wolfeGradient        0.9 \
	fdTest               no
lcao-params 30 1e-06 0.001
pcm-variant CANDLE
spintype z-spin
subspace-rotation-factor 1 yes
symmetries automatic
symmetry-threshold 0.0001
target-mu -0.24475 no

van-der-waals D3



---------- Setting up symmetries ----------

Found 8 point-group symmetries of the bravais lattice
Found 1 space-group symmetries with basis
Applied RMS atom displacement 0 bohrs to make symmetries exact.

---------- Initializing the Grid ----------
R = 
[      7.39916     -3.69958            0  ]
[            0      8.27251            0  ]
[            0            0      49.6351  ]
unit cell volume = 3038.14
G =
[   0.849176   0.379763         -0  ]
[          0   0.759526          0  ]
[          0         -0   0.126588  ]
Minimum fftbox size, Smin = [  32  40  200  ]
Chosen fftbox size, S = [  32  40  200  ]

---------- Exchange Correlation functional ----------
Initalized PBE GGA exchange.
Initalized PBE GGA correlation.

---------- Setting up pseudopotentials ----------
Width of ionic core gaussian charges (only for fluid interactions / plotting) set to 0.397384

Reading pseudopotential file '/projects/musgravc/apps/jdftx-1.6.0/build/pseudopotentials/GBRV_v1.5/pt_pbe_v1.4.uspp':
  Title: Pt.  Created by USPP 7.3.6 on 31-3-15
  Reference state energy: -105.002503.  16 valence electrons in orbitals:
    |510>  occupation: 6  eigenvalue: -2.158104
    |520>  occupation: 9.5  eigenvalue: -0.335376
    |600>  occupation: 0  eigenvalue: -0.319640
    |610>  occupation: 0  eigenvalue: -0.122947
  lMax: 2  lLocal: 3  QijEcut: 5.5
  6 projectors sampled on a log grid with 745 points:
    l: 0  eig: -0.319640  rCut: 2.45
    l: 0  eig: 1.500000  rCut: 2.45
    l: 1  eig: -2.158104  rCut: 1.6
    l: 1  eig: -0.122947  rCut: 1.6
    l: 2  eig: -0.500000  rCut: 1.6
    l: 2  eig: -0.335375  rCut: 1.6
  Partial core density with radius 1.1
  Transforming core density to a uniform radial grid of dG=0.02 with 1417 points.
  Transforming local potential to a uniform radial grid of dG=0.02 with 1417 points.
  Transforming nonlocal projectors to a uniform radial grid of dG=0.02 with 432 points.
  Transforming density augmentations to a uniform radial grid of dG=0.02 with 1417 points.
  Transforming atomic orbitals to a uniform radial grid of dG=0.02 with 432 points.
  Core radius for overlap checks: 2.45 bohrs.

Initialized 1 species with 10 total atoms.

Folded 1 k-points by 9x7x1 to 63 k-points.

---------- Setting up k-points, bands, fillings ----------
Adding inversion symmetry to k-mesh for non-inversion-symmetric unit cell.
Reduced to 32 k-points under symmetry. 
Computing the number of bands and number of electrons
Calculating initial fillings.
nElectrons: 160.000000   nBands: 96   nStates: 64

----- Setting up reduced wavefunction bases (one per k-point) -----
average nbasis = 12976.429 , ideal nbasis = 12979.177

----- Initializing Supercell corresponding to k-point mesh -----
Lattice vector linear combinations in supercell:
[   9   0   0  ]
[   0   7   0  ]
[   0   0   1  ]
Supercell lattice vectors:
[  66.5924  -25.8971  0  ]
[  0  57.9076  0  ]
[  0  0  49.6351  ]

Initializing DFT-D3 calculator:
	Parameters set for gga-PBE functional
	s6:  1.000  s_r6:  1.217
	s8:  0.722  s_r8:  1.000
	Per-atom parameters loaded for:
	Pt:  sqrtQ[a0]:  5.888  Rcov[a0]:  2.116  CN: [ 0.00 1.92 6.67 ]

Initializing DFT-D2 calculator for fluid / solvation:
	Pt:  C6:  815.23 Eh-a0^6  R0: 3.326 a0 (WARNING: beyond Grimme's data set)

---------- Setting up ewald sum ----------
Optimum gaussian width for ewald sums = 3.936523 bohr.
Real space sum over 975 unit cells with max indices [  7  6  2  ]
Reciprocal space sum over 4257 terms with max indices [  4  5  21  ]

Computing DFT-D3 correction:
# coordination-number Pt 8.543 9.283 9.337 6.963 5.354 9.338 9.282 8.543 5.357 6.968
# diagonal-C6 Pt 336.87 336.87 336.87 336.87 336.87 336.87 336.87 336.87 336.87 336.87
EvdW_6 =   -0.074787
EvdW_8 =   -0.128267

---------- Allocating electronic variables ----------
Initializing wave functions:  linear combination of atomic orbitals
Pt pseudo-atom occupations:   s ( 0 )  p ( 6 0 )  d ( 10 )
	FillingsUpdate:  mu: -0.244750000  nElectrons: 160.000000  magneticMoment: [ Abs: 0.00243  Tot: -0.00008 ]
LCAOMinimize: Iter:   0  G: -846.2140447465430952  |grad|_K:  1.285e-02  alpha:  1.000e+00
LCAOMinimize: 	Step increased G by 2.935873e+01, reducing alpha to 2.106762e-02.
	FillingsUpdate:  mu: -0.244750000  nElectrons: 160.000000  magneticMoment: [ Abs: 0.00198  Tot: +0.00010 ]
LCAOMinimize: Iter:   1  G: -848.7584623624137521  |grad|_K:  6.155e-03  alpha:  2.107e-02  linmin: -2.289e-01  cgtest:  8.543e-01  t[s]:     96.57
LCAOMinimize: Encountered beta<0, resetting CG.
	FillingsUpdate:  mu: -0.244750000  nElectrons: 160.000000  magneticMoment: [ Abs: 0.00165  Tot: +0.00031 ]
LCAOMinimize: Iter:   2  G: -849.3899374961403055  |grad|_K:  4.170e-03  alpha:  4.344e-02  linmin:  8.413e-02  cgtest: -3.268e-01  t[s]:    126.35
	FillingsUpdate:  mu: -0.244750000  nElectrons: 160.000000  magneticMoment: [ Abs: 0.00119  Tot: +0.00008 ]
LCAOMinimize: Iter:   3  G: -849.8810492575114495  |grad|_K:  4.024e-03  alpha:  9.137e-02  linmin: -2.551e-02  cgtest:  8.672e-01  t[s]:    156.31
	FillingsUpdate:  mu: -0.244750000  nElectrons: 160.000000  magneticMoment: [ Abs: 0.00118  Tot: +0.00004 ]
LCAOMinimize: Iter:   4  G: -850.0989422903951436  |grad|_K:  1.458e-03  alpha:  3.483e-02  linmin:  7.471e-02  cgtest: -4.082e-01  t[s]:    186.69
	FillingsUpdate:  mu: -0.244750000  nElectrons: 160.000000  magneticMoment: [ Abs: 0.00113  Tot: +0.00003 ]
LCAOMinimize: Iter:   5  G: -850.1313965840369065  |grad|_K:  2.195e-03  alpha:  4.484e-02  linmin: -1.212e-03  cgtest:  1.902e-01  t[s]:    216.43
	FillingsUpdate:  mu: -0.244750000  nElectrons: 160.000000  magneticMoment: [ Abs: 0.00104  Tot: -0.00000 ]
LCAOMinimize: Iter:   6  G: -850.2202751134832397  |grad|_K:  1.384e-03  alpha:  3.855e-02  linmin:  2.032e-03  cgtest: -6.978e-01  t[s]:    247.13
	FillingsUpdate:  mu: -0.244750000  nElectrons: 160.000000  magneticMoment: [ Abs: 0.00099  Tot: -0.00004 ]
LCAOMinimize: Iter:   7  G: -850.2408018652071178  |grad|_K:  9.411e-04  alpha:  2.361e-02  linmin: -1.624e-04  cgtest:  1.292e-01  t[s]:    277.05
LCAOMinimize: 	Predicted alpha/alphaT>3.000000, increasing alphaT to 7.083633e-02.
	FillingsUpdate:  mu: -0.244750000  nElectrons: 160.000000  magneticMoment: [ Abs: 0.00094  Tot: -0.00007 ]
LCAOMinimize: Iter:   8  G: -850.2740824753270772  |grad|_K:  7.018e-04  alpha:  8.015e-02  linmin:  3.649e-04  cgtest: -1.042e-01  t[s]:    315.05
	FillingsUpdate:  mu: -0.244750000  nElectrons: 160.000000  magneticMoment: [ Abs: 0.00092  Tot: -0.00007 ]
LCAOMinimize: Iter:   9  G: -850.2844046476498079  |grad|_K:  1.015e-03  alpha:  4.429e-02  linmin: -2.038e-04  cgtest:  2.735e-02  t[s]:    345.39
	FillingsUpdate:  mu: -0.244750000  nElectrons: 160.000000  magneticMoment: [ Abs: 0.00089  Tot: -0.00007 ]
LCAOMinimize: Iter:  10  G: -850.2959458888176414  |grad|_K:  2.600e-04  alpha:  2.321e-02  linmin: -3.121e-03  cgtest: -1.013e-01  t[s]:    375.79
LCAOMinimize: 	Predicted alpha/alphaT>3.000000, increasing alphaT to 6.962677e-02.
	FillingsUpdate:  mu: -0.244750000  nElectrons: 160.000000  magneticMoment: [ Abs: 0.00088  Tot: -0.00007 ]
LCAOMinimize: Iter:  11  G: -850.2989424728386894  |grad|_K:  2.088e-04  alpha:  9.261e-02  linmin: -1.115e-03  cgtest: -2.613e-02  t[s]:    413.53
	FillingsUpdate:  mu: -0.244750000  nElectrons: 160.000000  magneticMoment: [ Abs: 0.00087  Tot: -0.00008 ]
LCAOMinimize: Iter:  12  G: -850.3005567618511122  |grad|_K:  2.562e-04  alpha:  7.782e-02  linmin:  8.089e-04  cgtest: -1.303e-02  t[s]:    443.23
	FillingsUpdate:  mu: -0.244750000  nElectrons: 160.000000  magneticMoment: [ Abs: 0.00087  Tot: -0.00008 ]
LCAOMinimize: Iter:  13  G: -850.3010158057616081  |grad|_K:  1.484e-04  alpha:  1.464e-02  linmin: -3.191e-03  cgtest:  8.058e-02  t[s]:    473.50
LCAOMinimize: 	Predicted alpha/alphaT>3.000000, increasing alphaT to 4.390513e-02.
	FillingsUpdate:  mu: -0.244750000  nElectrons: 160.000000  magneticMoment: [ Abs: 0.00087  Tot: -0.00008 ]
LCAOMinimize: Iter:  14  G: -850.3017928595191961  |grad|_K:  9.224e-05  alpha:  7.483e-02  linmin:  5.138e-03  cgtest: -1.431e-01  t[s]:    511.50
	FillingsUpdate:  mu: -0.244750000  nElectrons: 160.000000  magneticMoment: [ Abs: 0.00086  Tot: -0.00009 ]
LCAOMinimize: Iter:  15  G: -850.3020290554902658  |grad|_K:  3.470e-05  alpha:  6.152e-02  linmin:  6.463e-04  cgtest:  1.997e-01  t[s]:    541.62
	FillingsUpdate:  mu: -0.244750000  nElectrons: 160.000000  magneticMoment: [ Abs: 0.00087  Tot: -0.00009 ]
LCAOMinimize: Iter:  16  G: -850.3021063998918407  |grad|_K:  8.186e-05  alpha:  1.325e-01  linmin: -2.827e-03  cgtest:  2.881e-02  t[s]:    571.97
	FillingsUpdate:  mu: -0.244750000  nElectrons: 160.000000  magneticMoment: [ Abs: 0.00087  Tot: -0.00009 ]
LCAOMinimize: Iter:  17  G: -850.3021702012655396  |grad|_K:  3.889e-05  alpha:  1.947e-02  linmin: -1.269e-03  cgtest: -2.239e-01  t[s]:    602.08
	FillingsUpdate:  mu: -0.244750000  nElectrons: 160.000000  magneticMoment: [ Abs: 0.00087  Tot: -0.00010 ]
LCAOMinimize: Iter:  18  G: -850.3022119422462310  |grad|_K:  2.795e-05  alpha:  5.375e-02  linmin: -1.225e-02  cgtest:  2.542e-01  t[s]:    631.70
	FillingsUpdate:  mu: -0.244750000  nElectrons: 160.000000  magneticMoment: [ Abs: 0.00088  Tot: -0.00011 ]
LCAOMinimize: Iter:  19  G: -850.3022660315285748  |grad|_K:  5.763e-05  alpha:  1.443e-01  linmin:  2.717e-03  cgtest: -1.093e-01  t[s]:    662.04
	FillingsUpdate:  mu: -0.244750000  nElectrons: 160.000000  magneticMoment: [ Abs: 0.00088  Tot: -0.00011 ]
LCAOMinimize: Iter:  20  G: -850.3022825965598486  |grad|_K:  1.074e-05  alpha:  1.136e-02  linmin:  1.521e-05  cgtest:  7.976e-01  t[s]:    692.02
LCAOMinimize: Encountered beta<0, resetting CG.
	FillingsUpdate:  mu: -0.244750000  nElectrons: 160.000000  magneticMoment: [ Abs: 0.00088  Tot: -0.00011 ]
LCAOMinimize: Iter:  21  G: -850.3022832098205299  |grad|_K:  5.321e-06  alpha:  1.135e-02  linmin: -5.599e-02  cgtest:  2.750e-01  t[s]:    721.81
	FillingsUpdate:  mu: -0.244750000  nElectrons: 160.000000  magneticMoment: [ Abs: 0.00088  Tot: -0.00011 ]
LCAOMinimize: Iter:  22  G: -850.3022834327633745  |grad|_K:  3.555e-06  alpha:  1.409e-02  linmin: -2.012e-01  cgtest:  9.079e-01  t[s]:    752.04
LCAOMinimize: Encountered beta<0, resetting CG.
LCAOMinimize: Converged (|Delta G|<1.000000e-06 for 2 iters).
----- createFluidSolver() ----- (Fluid-side solver setup)
   Initializing fluid molecule 'H2O'
     Initializing site 'O'
       Electron density: proportional to exp(-r/0.36935)*erfc((r-0.51523)/0.36823) with norm 6.826
       Charge density: gaussian nuclear width 0.478731 with net site charge 0.826
       Polarizability: cuspless exponential with width 0.32 and norm 3.73
       Hard sphere radius: 2.57003 bohrs
       Positions in reference frame:
         [ +0.000000 +0.000000 +0.000000 ]
     Initializing site 'H'
       Electron density: proportional to exp(-r/0.34641)*erfc((r-0)/0.390882) with norm 0.587
       Charge density: gaussian nuclear width 0.377945 with net site charge -0.413
       Polarizability: cuspless exponential with width 0.39 and norm 3.3
       Positions in reference frame:
         [ +0.000000 -1.441945 +1.122523 ]
         [ +0.000000 +1.441945 +1.122523 ]
     Net charge: 0   dipole magnitude: 0.927204
     Initializing spherical shell mfKernel with radius 2.61727 Bohr
     deltaS corrections:
       site 'O': -7.54299
       site 'H': -6.83917
   Initializing fluid molecule 'Na+'
     Initializing site 'Na'
       Electron density: proportional to exp(-r/0.19682)*erfc((r-0.71491)/0.41314) with norm 8.1383
       Charge density: gaussian nuclear width 0.365347 with net site charge -1
       Hard sphere radius: 1.86327 bohrs
       Positions in reference frame:
         [ +0.000000 +0.000000 +0.000000 ]
     Net charge: -1   dipole magnitude: 0
     Initializing gaussian mfKernel with width: 1.55004 Bohr
     deltaS corrections:
       site 'Na': -22.3555
   Initializing fluid molecule 'F-'
     Initializing site 'F'
       Electron density: proportional to exp(-r/0.38886)*erfc((r-0)/0.438782) with norm 8
       Charge density: gaussian nuclear width 0.374796 with net site charge 1
       Hard sphere radius: 2.39995 bohrs
       Positions in reference frame:
         [ +0.000000 +0.000000 +0.000000 ]
     Net charge: 1   dipole magnitude: 0
     Initializing gaussian mfKernel with width: 1.59012 Bohr
     deltaS corrections:
       site 'F': -9.04335

Correction to mu due to finite nuclear width = -0.052253
   Cavity determined by nc: 0.00142 and sigma: 0.707107
   Nonlocal vdW cavity from gaussian model electron density with norm = 8 and sigma = 0.993594 bohr
   Charge asymmetry in cavity with sensitivity pCavity = 36.5 e-bohr/Eh
   Electrostatic cavity expanded by eta = 1.46 bohrs
   Weighted density cavitation model constrained by Nbulk: 0.0049383 bohr^-3, Pvap: 3.14029 kPa, Rvdw: 2.61727 bohr and sigmaBulk: 4.62e-05 Eh/bohr^2 at T: 298 K.
   Weighted density dispersion model using vdW pair potentials with single solvent site with sqrtC6eff: 0.77 SI.


---- Citations for features of the code used in this run ----

   Software package:
      R. Sundararaman, K. Letchworth-Weaver, K.A. Schwarz, D. Gunceler, Y. Ozhabes and T.A. Arias, 'JDFTx: software for joint density-functional theory', SoftwareX 6, 278 (2017)

   gga-PBE exchange-correlation functional:
      J.P. Perdew, K. Burke and M. Ernzerhof, Phys. Rev. Lett. 77, 3865 (1996)

   Pseudopotentials:
      KF Garrity, JW Bennett, KM Rabe and D Vanderbilt, Comput. Mater. Sci. 81, 446 (2014)

   DFT-D3 dispersion correction:
      S. Grimme, J. Antony, S. Ehrlich and H. Krieg, J. Chem. Phys. 132, 154104 (2010)

   DFT-D2 dispersion correction:
      S. Grimme, J. Comput. Chem. 27, 1787 (2006)

   Charge-asymmetric nonlocally-determined local-electric (CANDLE) solvation model:
      R. Sundararaman and W.A. Goddard III, J. Chem. Phys. 142, 064107 (2015)

   Total energy minimization with Auxiliary Hamiltonian:
      C. Freysoldt, S. Boeck, and J. Neugebauer, Phys. Rev. B 79, 241103(R) (2009)

   Grand-canonical (fixed-potential) DFT:
      R. Sundararaman, W. A. Goddard III and T. A. Arias, J. Chem. Phys. 146, 114104 (2017)

   Linear-tetrahedron sampling for density of states:
      G. Lehmann and M. Taut, Phys. status solidi (b) 54, 469 (1972)

This list may not be complete. Please suggest additional citations or
report any other bugs at https://github.com/shankar1729/jdftx/issues

Initialization completed successfully at t[s]:    757.16


Computing DFT-D3 correction:
# coordination-number Pt 8.543 9.283 9.337 6.963 5.354 9.338 9.282 8.543 5.357 6.968
# diagonal-C6 Pt 336.87 336.87 336.87 336.87 336.87 336.87 336.87 336.87 336.87 336.87
EvdW_6 =   -0.074787
EvdW_8 =   -0.128267
Fluid solver invoked on fresh (random / LCAO) wavefunctions
Running a vacuum solve first:

-------- Initial electronic minimization -----------
	FillingsUpdate:  mu: +0.130834984  nElectrons: 160.000000  magneticMoment: [ Abs: 0.00088  Tot: -0.00011 ]
ElecMinimize: Iter:   0  G: -850.303677731476114  |grad|_K:  5.635e-05  alpha:  1.000e+00
	FillingsUpdate:  mu: +0.165799060  nElectrons: 160.000000  magneticMoment: [ Abs: 0.00068  Tot: -0.00012 ]
	SubspaceRotationAdjust: set factor to 0.997
ElecMinimize: Iter:   1  G: -850.415187057930439  |grad|_K:  3.200e-05  alpha:  4.404e-01  linmin:  1.890e-05  t[s]:    811.60
	FillingsUpdate:  mu: +0.134134236  nElectrons: 160.000000  magneticMoment: [ Abs: 0.00060  Tot: -0.00012 ]
	SubspaceRotationAdjust: set factor to 0.583
ElecMinimize: Iter:   2  G: -850.429344285003594  |grad|_K:  5.483e-05  alpha:  1.730e-01  linmin: -5.854e-06  t[s]:    843.81
	FillingsUpdate:  mu: +0.145344180  nElectrons: 160.000000  magneticMoment: [ Abs: 0.00052  Tot: -0.00011 ]
	SubspaceRotationAdjust: set factor to 0.32
ElecMinimize: Iter:   3  G: -850.440021106997733  |grad|_K:  5.108e-05  alpha:  4.377e-02  linmin: -4.514e-05  t[s]:    876.31
	FillingsUpdate:  mu: +0.138391508  nElectrons: 160.000000  magneticMoment: [ Abs: 0.00048  Tot: -0.00011 ]
	SubspaceRotationAdjust: set factor to 0.183
ElecMinimize: Iter:   4  G: -850.446075080110973  |grad|_K:  1.387e-05  alpha:  2.858e-02  linmin: -3.332e-07  t[s]:    908.69
ElecMinimize: 	Predicted alpha/alphaT>3.000000, increasing alphaT to 8.574566e-02.
ElecMinimize: 	Predicted alpha/alphaT>3.000000, increasing alphaT to 2.572370e-01.
	FillingsUpdate:  mu: +0.152260154  nElectrons: 160.000000  magneticMoment: [ Abs: 0.00037  Tot: -0.00011 ]
	SubspaceRotationAdjust: set factor to 0.124
	SubspaceRotationAdjust: resetting CG because factor has changed by 0.123793
ElecMinimize: 	State modified externally: resetting search direction.
ElecMinimize: Iter:   5  G: -850.451248017568560  |grad|_K:  1.244e-05  alpha:  3.361e-01
	FillingsUpdate:  mu: +0.145396820  nElectrons: 160.000000  magneticMoment: [ Abs: 0.00035  Tot: -0.00011 ]
	SubspaceRotationAdjust: set factor to 0.115
ElecMinimize: Iter:   6  G: -850.452566085772901  |grad|_K:  7.606e-06  alpha:  1.074e-01  linmin:  9.973e-04  t[s]:   1009.68
	FillingsUpdate:  mu: +0.137645689  nElectrons: 160.000000  magneticMoment: [ Abs: 0.00032  Tot: -0.00011 ]
	SubspaceRotationAdjust: set factor to 0.0802
ElecMinimize: Iter:   7  G: -850.453694070175061  |grad|_K:  5.115e-06  alpha:  2.453e-01  linmin: -8.671e-05  t[s]:   1042.03
	FillingsUpdate:  mu: +0.145631911  nElectrons: 160.000000  magneticMoment: [ Abs: 0.00024  Tot: -0.00010 ]
	SubspaceRotationAdjust: set factor to 0.0715
ElecMinimize: Iter:   8  G: -850.454746053905637  |grad|_K:  3.355e-06  alpha:  5.015e-01  linmin:  2.082e-06  t[s]:   1074.38
	FillingsUpdate:  mu: +0.145501288  nElectrons: 160.000000  magneticMoment: [ Abs: 0.00020  Tot: -0.00010 ]
	SubspaceRotationAdjust: set factor to 0.0759
ElecMinimize: Iter:   9  G: -850.455178952119923  |grad|_K:  2.031e-06  alpha:  4.806e-01  linmin:  5.458e-05  t[s]:   1106.67
	FillingsUpdate:  mu: +0.144743817  nElectrons: 160.000000  magneticMoment: [ Abs: 0.00018  Tot: -0.00010 ]
	SubspaceRotationAdjust: set factor to 0.072
ElecMinimize: Iter:  10  G: -850.455332502456031  |grad|_K:  1.497e-06  alpha:  4.662e-01  linmin:  6.554e-05  t[s]:   1139.20
	FillingsUpdate:  mu: +0.145155141  nElectrons: 160.000000  magneticMoment: [ Abs: 0.00017  Tot: -0.00010 ]
	SubspaceRotationAdjust: set factor to 0.0514
ElecMinimize: Iter:  11  G: -850.455376683922623  |grad|_K:  1.213e-06  alpha:  2.473e-01  linmin:  3.190e-05  t[s]:   1171.43
	FillingsUpdate:  mu: +0.145740276  nElectrons: 160.000000  magneticMoment: [ Abs: 0.00016  Tot: -0.00009 ]
	SubspaceRotationAdjust: set factor to 0.0503
ElecMinimize: Iter:  12  G: -850.455417405473668  |grad|_K:  8.659e-07  alpha:  3.469e-01  linmin:  4.565e-05  t[s]:   1204.00
	FillingsUpdate:  mu: +0.144965994  nElectrons: 160.000000  magneticMoment: [ Abs: 0.00015  Tot: -0.00009 ]
	SubspaceRotationAdjust: set factor to 0.0621
ElecMinimize: Iter:  13  G: -850.455455027114567  |grad|_K:  7.010e-07  alpha:  6.307e-01  linmin:  9.514e-05  t[s]:   1236.17
	FillingsUpdate:  mu: +0.144914708  nElectrons: 160.000000  magneticMoment: [ Abs: 0.00015  Tot: -0.00009 ]
	SubspaceRotationAdjust: set factor to 0.0561
ElecMinimize: Iter:  14  G: -850.455471842462543  |grad|_K:  7.332e-07  alpha:  4.324e-01  linmin:  3.727e-05  t[s]:   1268.31
	FillingsUpdate:  mu: +0.145171669  nElectrons: 160.000000  magneticMoment: [ Abs: 0.00014  Tot: -0.00009 ]
	SubspaceRotationAdjust: set factor to 0.0498
ElecMinimize: Iter:  15  G: -850.455487326767525  |grad|_K:  5.906e-07  alpha:  3.619e-01  linmin:  2.310e-05  t[s]:   1300.74
	FillingsUpdate:  mu: +0.145404870  nElectrons: 160.000000  magneticMoment: [ Abs: 0.00013  Tot: -0.00008 ]
	SubspaceRotationAdjust: set factor to 0.0576
ElecMinimize: Iter:  16  G: -850.455504616836834  |grad|_K:  5.670e-07  alpha:  6.224e-01  linmin:  9.366e-06  t[s]:   1333.16
	FillingsUpdate:  mu: +0.145367077  nElectrons: 160.000000  magneticMoment: [ Abs: 0.00011  Tot: -0.00007 ]
	SubspaceRotationAdjust: set factor to 0.0601
ElecMinimize: Iter:  17  G: -850.455525714566420  |grad|_K:  6.568e-07  alpha:  8.219e-01  linmin: -1.132e-05  t[s]:   1365.44
	FillingsUpdate:  mu: +0.145243478  nElectrons: 160.000000  magneticMoment: [ Abs: 0.00010  Tot: -0.00007 ]
	SubspaceRotationAdjust: set factor to 0.0468
ElecMinimize: Iter:  18  G: -850.455539058009776  |grad|_K:  6.148e-07  alpha:  3.875e-01  linmin: -1.250e-05  t[s]:   1398.29
	FillingsUpdate:  mu: +0.145195026  nElectrons: 160.000000  magneticMoment: [ Abs: 0.00009  Tot: -0.00006 ]
	SubspaceRotationAdjust: set factor to 0.0386
ElecMinimize: Iter:  19  G: -850.455550059490292  |grad|_K:  4.617e-07  alpha:  3.624e-01  linmin: -1.504e-05  t[s]:   1430.42
	FillingsUpdate:  mu: +0.145229141  nElectrons: 160.000000  magneticMoment: [ Abs: 0.00008  Tot: -0.00006 ]
	SubspaceRotationAdjust: set factor to 0.0424
ElecMinimize: Iter:  20  G: -850.455560290791936  |grad|_K:  3.762e-07  alpha:  5.957e-01  linmin: -2.644e-05  t[s]:   1462.62
	FillingsUpdate:  mu: +0.145114331  nElectrons: 160.000000  magneticMoment: [ Abs: 0.00007  Tot: -0.00006 ]
	SubspaceRotationAdjust: set factor to 0.0377
ElecMinimize: Iter:  21  G: -850.455565794331164  |grad|_K:  3.020e-07  alpha:  4.824e-01  linmin: -1.064e-05  t[s]:   1495.01
	FillingsUpdate:  mu: +0.145072919  nElectrons: 160.000000  magneticMoment: [ Abs: 0.00007  Tot: -0.00005 ]
	SubspaceRotationAdjust: set factor to 0.0291
ElecMinimize: Iter:  22  G: -850.455568663266718  |grad|_K:  2.124e-07  alpha:  3.923e-01  linmin: -5.286e-06  t[s]:   1527.23
	FillingsUpdate:  mu: +0.145135139  nElectrons: 160.000000  magneticMoment: [ Abs: 0.00006  Tot: -0.00005 ]
	SubspaceRotationAdjust: set factor to 0.0315
ElecMinimize: Iter:  23  G: -850.455570182777024  |grad|_K:  1.344e-07  alpha:  4.206e-01  linmin: -4.154e-06  t[s]:   1559.49
	FillingsUpdate:  mu: +0.145169394  nElectrons: 160.000000  magneticMoment: [ Abs: 0.00006  Tot: -0.00005 ]
	SubspaceRotationAdjust: set factor to 0.0314
ElecMinimize: Iter:  24  G: -850.455570943060025  |grad|_K:  1.039e-07  alpha:  5.252e-01  linmin: -9.312e-08  t[s]:   1592.13
	FillingsUpdate:  mu: +0.145164133  nElectrons: 160.000000  magneticMoment: [ Abs: 0.00006  Tot: -0.00005 ]
	SubspaceRotationAdjust: set factor to 0.0281
ElecMinimize: Iter:  25  G: -850.455571318718853  |grad|_K:  7.188e-08  alpha:  4.345e-01  linmin:  4.397e-06  t[s]:   1624.48
	FillingsUpdate:  mu: +0.145163668  nElectrons: 160.000000  magneticMoment: [ Abs: 0.00006  Tot: -0.00005 ]
	SubspaceRotationAdjust: set factor to 0.031
ElecMinimize: Iter:  26  G: -850.455571514671306  |grad|_K:  5.213e-08  alpha:  4.741e-01  linmin:  4.525e-06  t[s]:   1656.60
	FillingsUpdate:  mu: +0.145166886  nElectrons: 160.000000  magneticMoment: [ Abs: 0.00006  Tot: -0.00005 ]
	SubspaceRotationAdjust: set factor to 0.0358
ElecMinimize: Iter:  27  G: -850.455571626709457  |grad|_K:  4.084e-08  alpha:  5.155e-01  linmin:  4.208e-06  t[s]:   1689.10
	FillingsUpdate:  mu: +0.145166293  nElectrons: 160.000000  magneticMoment: [ Abs: 0.00006  Tot: -0.00005 ]
	SubspaceRotationAdjust: set factor to 0.0384
ElecMinimize: Iter:  28  G: -850.455571699630582  |grad|_K:  3.771e-08  alpha:  5.463e-01  linmin:  5.744e-06  t[s]:   1721.55
	FillingsUpdate:  mu: +0.145170843  nElectrons: 160.000000  magneticMoment: [ Abs: 0.00005  Tot: -0.00005 ]
	SubspaceRotationAdjust: set factor to 0.0426
ElecMinimize: Iter:  29  G: -850.455571765891023  |grad|_K:  3.646e-08  alpha:  5.841e-01  linmin:  2.108e-06  t[s]:   1753.85
ElecMinimize: Converged (|Delta G|<1.000000e-07 for 2 iters).
Setting wave functions to eigenvectors of Hamiltonian
Converging empty states (this may take a while): |deigs|: 3.658e-03
Vacuum energy after initial minimize, F = -850.455571765891023

Shifting auxilliary hamiltonian by -0.389921 to set nElectrons=160.000000

-------- Electronic minimization -----------
	Linear fluid (dielectric constant: 78.4, screening length: 8.12261 Bohr) occupying 0.492486 of unit cell:	Completed after 24 iterations at t[s]:   1836.80
	FillingsUpdate:  mu: -0.244750000  nElectrons: 160.000000  magneticMoment: [ Abs: 0.00003  Tot: -0.00003 ]
ElecMinimize: Iter:   0  G: -850.458706811422530  |grad|_K:  1.697e-05  alpha:  1.000e+00
	Linear fluid (dielectric constant: 78.4, screening length: 8.12261 Bohr) occupying 0.493768 of unit cell:	Completed after 23 iterations at t[s]:   1866.05
	Linear fluid (dielectric constant: 78.4, screening length: 8.12261 Bohr) occupying 0.492618 of unit cell:	Completed after 23 iterations at t[s]:   1876.82
	FillingsUpdate:  mu: -0.244750000  nElectrons: 159.907457  magneticMoment: [ Abs: 0.00003  Tot: -0.00003 ]
	SubspaceRotationAdjust: set factor to 0.0567
ElecMinimize: Iter:   1  G: -850.461334442192424  |grad|_K:  6.564e-06  alpha:  1.052e-01  linmin: -2.991e-02  t[s]:   1891.35
	Linear fluid (dielectric constant: 78.4, screening length: 8.12261 Bohr) occupying 0.492797 of unit cell:	Completed after 15 iterations at t[s]:   1902.92
ElecMinimize: 	Predicted alpha/alphaT>3.000000, increasing alphaT to 3.154636e-01.
	Linear fluid (dielectric constant: 78.4, screening length: 8.12261 Bohr) occupying 0.493154 of unit cell:	Completed after 18 iterations at t[s]:   1913.39
	Linear fluid (dielectric constant: 78.4, screening length: 8.12261 Bohr) occupying 0.493538 of unit cell:	Completed after 18 iterations at t[s]:   1923.72
	FillingsUpdate:  mu: -0.244750000  nElectrons: 159.799949  magneticMoment: [ Abs: 0.00003  Tot: -0.00003 ]
	SubspaceRotationAdjust: set factor to 0.0395
ElecMinimize: Iter:   2  G: -850.463363541141348  |grad|_K:  7.826e-06  alpha:  5.437e-01  linmin: -1.132e-04  t[s]:   1938.25
	Linear fluid (dielectric constant: 78.4, screening length: 8.12261 Bohr) occupying 0.495922 of unit cell:	Completed after 17 iterations at t[s]:   1950.28
	Linear fluid (dielectric constant: 78.4, screening length: 8.12261 Bohr) occupying 0.494090 of unit cell:	Completed after 16 iterations at t[s]:   1960.36
	FillingsUpdate:  mu: -0.244750000  nElectrons: 159.807424  magneticMoment: [ Abs: 0.00003  Tot: -0.00003 ]
	SubspaceRotationAdjust: set factor to 0.0305
ElecMinimize: Iter:   3  G: -850.463966894692135  |grad|_K:  5.548e-06  alpha:  1.246e-01  linmin:  1.026e-03  t[s]:   1974.86
	Linear fluid (dielectric constant: 78.4, screening length: 8.12261 Bohr) occupying 0.494583 of unit cell:	Completed after 16 iterations at t[s]:   1986.59
ElecMinimize: 	Predicted alpha/alphaT>3.000000, increasing alphaT to 3.736984e-01.
	Linear fluid (dielectric constant: 78.4, screening length: 8.12261 Bohr) occupying 0.495563 of unit cell:	Completed after 18 iterations at t[s]:   1996.96
	Linear fluid (dielectric constant: 78.4, screening length: 8.12261 Bohr) occupying 0.495987 of unit cell:	Completed after 16 iterations at t[s]:   2007.17
	FillingsUpdate:  mu: -0.244750000  nElectrons: 159.781532  magneticMoment: [ Abs: 0.00003  Tot: -0.00003 ]
	SubspaceRotationAdjust: set factor to 0.0338
ElecMinimize: Iter:   4  G: -850.465144532022464  |grad|_K:  6.013e-06  alpha:  4.821e-01  linmin: -4.413e-04  t[s]:   2021.69
	Linear fluid (dielectric constant: 78.4, screening length: 8.12261 Bohr) occupying 0.498773 of unit cell:	Completed after 20 iterations at t[s]:   2034.14
	Linear fluid (dielectric constant: 78.4, screening length: 8.12261 Bohr) occupying 0.497170 of unit cell:	Completed after 17 iterations at t[s]:   2044.35
	FillingsUpdate:  mu: -0.244750000  nElectrons: 159.734414  magneticMoment: [ Abs: 0.00003  Tot: -0.00003 ]
	SubspaceRotationAdjust: set factor to 0.0276
ElecMinimize: Iter:   5  G: -850.465737145561661  |grad|_K:  4.567e-06  alpha:  2.027e-01  linmin: -5.150e-04  t[s]:   2059.01
	Linear fluid (dielectric constant: 78.4, screening length: 8.12261 Bohr) occupying 0.498071 of unit cell:	Completed after 16 iterations at t[s]:   2070.69
	Linear fluid (dielectric constant: 78.4, screening length: 8.12261 Bohr) occupying 0.498936 of unit cell:	Completed after 16 iterations at t[s]:   2080.77
	FillingsUpdate:  mu: -0.244750000  nElectrons: 159.706550  magneticMoment: [ Abs: 0.00003  Tot: -0.00003 ]
	SubspaceRotationAdjust: set factor to 0.0321
ElecMinimize: Iter:   6  G: -850.466409369160829  |grad|_K:  4.099e-06  alpha:  3.998e-01  linmin: -6.072e-04  t[s]:   2095.25
	Linear fluid (dielectric constant: 78.4, screening length: 8.12261 Bohr) occupying 0.500558 of unit cell:	Completed after 17 iterations at t[s]:   2107.28
	Linear fluid (dielectric constant: 78.4, screening length: 8.12261 Bohr) occupying 0.500011 of unit cell:	Completed after 14 iterations at t[s]:   2117.36
	FillingsUpdate:  mu: -0.244750000  nElectrons: 159.716753  magneticMoment: [ Abs: 0.00003  Tot: -0.00003 ]
	SubspaceRotationAdjust: set factor to 0.0275
ElecMinimize: Iter:   7  G: -850.466765914561506  |grad|_K:  3.602e-06  alpha:  2.631e-01  linmin: -2.986e-04  t[s]:   2131.74
	Linear fluid (dielectric constant: 78.4, screening length: 8.12261 Bohr) occupying 0.500879 of unit cell:	Completed after 15 iterations at t[s]:   2143.69
	Linear fluid (dielectric constant: 78.4, screening length: 8.12261 Bohr) occupying 0.501252 of unit cell:	Completed after 12 iterations at t[s]:   2153.48
	FillingsUpdate:  mu: -0.244750000  nElectrons: 159.702783  magneticMoment: [ Abs: 0.00003  Tot: -0.00003 ]
	SubspaceRotationAdjust: set factor to 0.0352
ElecMinimize: Iter:   8  G: -850.467161920551689  |grad|_K:  3.012e-06  alpha:  3.792e-01  linmin: -4.662e-04  t[s]:   2167.74
	Linear fluid (dielectric constant: 78.4, screening length: 8.12261 Bohr) occupying 0.502015 of unit cell:	Completed after 15 iterations at t[s]:   2179.80
	Linear fluid (dielectric constant: 78.4, screening length: 8.12261 Bohr) occupying 0.502079 of unit cell:	Completed after 10 iterations at t[s]:   2189.62
	FillingsUpdate:  mu: -0.244750000  nElectrons: 159.679881  magneticMoment: [ Abs: 0.00003  Tot: -0.00002 ]
	SubspaceRotationAdjust: set factor to 0.0312
ElecMinimize: Iter:   9  G: -850.467463821114848  |grad|_K:  3.701e-06  alpha:  4.121e-01  linmin: -2.739e-04  t[s]:   2204.37
	Linear fluid (dielectric constant: 78.4, screening length: 8.12261 Bohr) occupying 0.503130 of unit cell:	Completed after 14 iterations at t[s]:   2216.10
	Linear fluid (dielectric constant: 78.4, screening length: 8.12261 Bohr) occupying 0.502834 of unit cell:	Completed after 14 iterations at t[s]:   2226.06
	FillingsUpdate:  mu: -0.244750000  nElectrons: 159.688656  magneticMoment: [ Abs: 0.00003  Tot: -0.00002 ]
	SubspaceRotationAdjust: set factor to 0.0309
ElecMinimize: Iter:  10  G: -850.467782778873357  |grad|_K:  2.845e-06  alpha:  2.894e-01  linmin: -2.916e-04  t[s]:   2240.48
	Linear fluid (dielectric constant: 78.4, screening length: 8.12261 Bohr) occupying 0.503136 of unit cell:	Completed after 15 iterations at t[s]:   2252.26
	Linear fluid (dielectric constant: 78.4, screening length: 8.12261 Bohr) occupying 0.503439 of unit cell:	Completed after 14 iterations at t[s]:   2262.28
	FillingsUpdate:  mu: -0.244750000  nElectrons: 159.687129  magneticMoment: [ Abs: 0.00003  Tot: -0.00002 ]
	SubspaceRotationAdjust: set factor to 0.0324
ElecMinimize: Iter:  11  G: -850.468182681874850  |grad|_K:  3.505e-06  alpha:  6.109e-01  linmin: -2.719e-04  t[s]:   2276.63
	Linear fluid (dielectric constant: 78.4, screening length: 8.12261 Bohr) occupying 0.504002 of unit cell:	Completed after 16 iterations at t[s]:   2288.45
	Linear fluid (dielectric constant: 78.4, screening length: 8.12261 Bohr) occupying 0.503727 of unit cell:	Completed after 15 iterations at t[s]:   2298.67
	FillingsUpdate:  mu: -0.244750000  nElectrons: 159.659375  magneticMoment: [ Abs: 0.00002  Tot: -0.00002 ]
	SubspaceRotationAdjust: set factor to 0.026
ElecMinimize: Iter:  12  G: -850.468463461843044  |grad|_K:  3.176e-06  alpha:  2.811e-01  linmin: -2.027e-04  t[s]:   2313.26
	Linear fluid (dielectric constant: 78.4, screening length: 8.12261 Bohr) occupying 0.503957 of unit cell:	Completed after 15 iterations at t[s]:   2325.11
	Linear fluid (dielectric constant: 78.4, screening length: 8.12261 Bohr) occupying 0.504117 of unit cell:	Completed after 13 iterations at t[s]:   2334.76
	FillingsUpdate:  mu: -0.244750000  nElectrons: 159.650628  magneticMoment: [ Abs: 0.00002  Tot: -0.00002 ]
	SubspaceRotationAdjust: set factor to 0.0315
ElecMinimize: Iter:  13  G: -850.468876112689941  |grad|_K:  2.841e-06  alpha:  5.059e-01  linmin: -1.968e-04  t[s]:   2349.26
	Linear fluid (dielectric constant: 78.4, screening length: 8.12261 Bohr) occupying 0.504526 of unit cell:	Completed after 15 iterations at t[s]:   2361.07
	Linear fluid (dielectric constant: 78.4, screening length: 8.12261 Bohr) occupying 0.504471 of unit cell:	Completed after 11 iterations at t[s]:   2370.76
	FillingsUpdate:  mu: -0.244750000  nElectrons: 159.656797  magneticMoment: [ Abs: 0.00002  Tot: -0.00002 ]
	SubspaceRotationAdjust: set factor to 0.0287
ElecMinimize: Iter:  14  G: -850.469158590238521  |grad|_K:  3.186e-06  alpha:  4.339e-01  linmin: -5.517e-05  t[s]:   2385.11
	Linear fluid (dielectric constant: 78.4, screening length: 8.12261 Bohr) occupying 0.504982 of unit cell:	Completed after 15 iterations at t[s]:   2397.02
	Linear fluid (dielectric constant: 78.4, screening length: 8.12261 Bohr) occupying 0.504824 of unit cell:	Completed after 15 iterations at t[s]:   2407.12
	FillingsUpdate:  mu: -0.244750000  nElectrons: 159.633708  magneticMoment: [ Abs: 0.00002  Tot: -0.00002 ]
	SubspaceRotationAdjust: set factor to 0.0247
ElecMinimize: Iter:  15  G: -850.469398856870384  |grad|_K:  2.267e-06  alpha:  2.945e-01  linmin: -1.586e-05  t[s]:   2421.68
	Linear fluid (dielectric constant: 78.4, screening length: 8.12261 Bohr) occupying 0.505104 of unit cell:	Completed after 11 iterations at t[s]:   2433.24
	Linear fluid (dielectric constant: 78.4, screening length: 8.12261 Bohr) occupying 0.505328 of unit cell:	Completed after 12 iterations at t[s]:   2443.19
	FillingsUpdate:  mu: -0.244750000  nElectrons: 159.623590  magneticMoment: [ Abs: 0.00002  Tot: -0.00002 ]
	SubspaceRotationAdjust: set factor to 0.0286
ElecMinimize: Iter:  16  G: -850.469620326383165  |grad|_K:  1.999e-06  alpha:  5.381e-01  linmin: -3.413e-05  t[s]:   2457.69
	Linear fluid (dielectric constant: 78.4, screening length: 8.12261 Bohr) occupying 0.505841 of unit cell:	Completed after 14 iterations at t[s]:   2469.37
	Linear fluid (dielectric constant: 78.4, screening length: 8.12261 Bohr) occupying 0.505665 of unit cell:	Completed after 13 iterations at t[s]:   2479.32
	FillingsUpdate:  mu: -0.244750000  nElectrons: 159.629423  magneticMoment: [ Abs: 0.00002  Tot: -0.00002 ]
	SubspaceRotationAdjust: set factor to 0.0236
ElecMinimize: Iter:  17  G: -850.469732815651696  |grad|_K:  1.809e-06  alpha:  3.517e-01  linmin:  3.371e-07  t[s]:   2493.68
	Linear fluid (dielectric constant: 78.4, screening length: 8.12261 Bohr) occupying 0.505966 of unit cell:	Completed after 15 iterations at t[s]:   2505.62
	Linear fluid (dielectric constant: 78.4, screening length: 8.12261 Bohr) occupying 0.505974 of unit cell:	Completed after 7 iterations at t[s]:   2515.09
	FillingsUpdate:  mu: -0.244750000  nElectrons: 159.617992  magneticMoment: [ Abs: 0.00002  Tot: -0.00002 ]
	SubspaceRotationAdjust: set factor to 0.0218
ElecMinimize: Iter:  18  G: -850.469827297668530  |grad|_K:  1.278e-06  alpha:  3.610e-01  linmin:  4.539e-05  t[s]:   2529.78
	Linear fluid (dielectric constant: 78.4, screening length: 8.12261 Bohr) occupying 0.506149 of unit cell:	Completed after 11 iterations at t[s]:   2541.00
	Linear fluid (dielectric constant: 78.4, screening length: 8.12261 Bohr) occupying 0.506222 of unit cell:	Completed after 10 iterations at t[s]:   2550.44
	FillingsUpdate:  mu: -0.244750000  nElectrons: 159.614075  magneticMoment: [ Abs: 0.00002  Tot: -0.00002 ]
	SubspaceRotationAdjust: set factor to 0.0254
ElecMinimize: Iter:  19  G: -850.469894301932300  |grad|_K:  1.072e-06  alpha:  5.135e-01  linmin:  2.373e-05  t[s]:   2564.93
	Linear fluid (dielectric constant: 78.4, screening length: 8.12261 Bohr) occupying 0.506406 of unit cell:	Completed after 14 iterations at t[s]:   2576.64
	Linear fluid (dielectric constant: 78.4, screening length: 8.12261 Bohr) occupying 0.506371 of unit cell:	Completed after 11 iterations at t[s]:   2586.43
	FillingsUpdate:  mu: -0.244750000  nElectrons: 159.617503  magneticMoment: [ Abs: 0.00002  Tot: -0.00002 ]
	SubspaceRotationAdjust: set factor to 0.0226
ElecMinimize: Iter:  20  G: -850.469932355776109  |grad|_K:  9.789e-07  alpha:  4.144e-01  linmin: -1.802e-06  t[s]:   2600.88
	Linear fluid (dielectric constant: 78.4, screening length: 8.12261 Bohr) occupying 0.506483 of unit cell:	Completed after 13 iterations at t[s]:   2612.77
	Linear fluid (dielectric constant: 78.4, screening length: 8.12261 Bohr) occupying 0.506480 of unit cell:	Completed after 7 iterations at t[s]:   2622.24
	FillingsUpdate:  mu: -0.244750000  nElectrons: 159.611531  magneticMoment: [ Abs: 0.00002  Tot: -0.00002 ]
	SubspaceRotationAdjust: set factor to 0.021
ElecMinimize: Iter:  21  G: -850.469963323155298  |grad|_K:  7.909e-07  alpha:  4.038e-01  linmin:  6.554e-05  t[s]:   2636.46
	Linear fluid (dielectric constant: 78.4, screening length: 8.12261 Bohr) occupying 0.506552 of unit cell:	Completed after 9 iterations at t[s]:   2648.16
	Linear fluid (dielectric constant: 78.4, screening length: 8.12261 Bohr) occupying 0.506582 of unit cell:	Completed after 8 iterations at t[s]:   2657.76
	FillingsUpdate:  mu: -0.244750000  nElectrons: 159.610392  magneticMoment: [ Abs: 0.00002  Tot: -0.00002 ]
	SubspaceRotationAdjust: set factor to 0.0252
ElecMinimize: Iter:  22  G: -850.469991947770382  |grad|_K:  7.120e-07  alpha:  5.728e-01  linmin:  1.483e-05  t[s]:   2672.43
	Linear fluid (dielectric constant: 78.4, screening length: 8.12261 Bohr) occupying 0.506662 of unit cell:	Completed after 13 iterations at t[s]:   2684.01
	Linear fluid (dielectric constant: 78.4, screening length: 8.12261 Bohr) occupying 0.506660 of unit cell:	Completed after 3 iterations at t[s]:   2693.12
	FillingsUpdate:  mu: -0.244750000  nElectrons: 159.612643  magneticMoment: [ Abs: 0.00002  Tot: -0.00002 ]
	SubspaceRotationAdjust: set factor to 0.0244
ElecMinimize: Iter:  23  G: -850.470014544790274  |grad|_K:  7.522e-07  alpha:  5.574e-01  linmin:  9.407e-06  t[s]:   2707.66
	Linear fluid (dielectric constant: 78.4, screening length: 8.12261 Bohr) occupying 0.506733 of unit cell:	Completed after 14 iterations at t[s]:   2719.33
	Linear fluid (dielectric constant: 78.4, screening length: 8.12261 Bohr) occupying 0.506712 of unit cell:	Completed after 11 iterations at t[s]:   2729.16
	FillingsUpdate:  mu: -0.244750000  nElectrons: 159.607836  magneticMoment: [ Abs: 0.00002  Tot: -0.00002 ]
	SubspaceRotationAdjust: set factor to 0.0207
ElecMinimize: Iter:  24  G: -850.470032709613974  |grad|_K:  6.856e-07  alpha:  4.016e-01  linmin: -2.013e-05  t[s]:   2743.69
	Linear fluid (dielectric constant: 78.4, screening length: 8.12261 Bohr) occupying 0.506759 of unit cell:	Completed after 11 iterations at t[s]:   2755.38
	Linear fluid (dielectric constant: 78.4, screening length: 8.12261 Bohr) occupying 0.506780 of unit cell:	Completed after 10 iterations at t[s]:   2765.06
	FillingsUpdate:  mu: -0.244750000  nElectrons: 159.608271  magneticMoment: [ Abs: 0.00002  Tot: -0.00002 ]
	SubspaceRotationAdjust: set factor to 0.0228
ElecMinimize: Iter:  25  G: -850.470054452734075  |grad|_K:  6.105e-07  alpha:  5.775e-01  linmin: -3.095e-05  t[s]:   2779.50
	Linear fluid (dielectric constant: 78.4, screening length: 8.12261 Bohr) occupying 0.506834 of unit cell:	Completed after 12 iterations at t[s]:   2791.36
	Linear fluid (dielectric constant: 78.4, screening length: 8.12261 Bohr) occupying 0.506836 of unit cell:	Completed after 2 iterations at t[s]:   2800.32
	FillingsUpdate:  mu: -0.244750000  nElectrons: 159.609020  magneticMoment: [ Abs: 0.00002  Tot: -0.00001 ]
	SubspaceRotationAdjust: set factor to 0.0233
ElecMinimize: Iter:  26  G: -850.470072365463011  |grad|_K:  5.804e-07  alpha:  5.998e-01  linmin: -5.541e-05  t[s]:   2814.43
	Linear fluid (dielectric constant: 78.4, screening length: 8.12261 Bohr) occupying 0.506884 of unit cell:	Completed after 13 iterations at t[s]:   2826.38
	Linear fluid (dielectric constant: 78.4, screening length: 8.12261 Bohr) occupying 0.506872 of unit cell:	Completed after 10 iterations at t[s]:   2836.03
	FillingsUpdate:  mu: -0.244750000  nElectrons: 159.605381  magneticMoment: [ Abs: 0.00002  Tot: -0.00001 ]
	SubspaceRotationAdjust: set factor to 0.0195
ElecMinimize: Iter:  27  G: -850.470084559002089  |grad|_K:  5.297e-07  alpha:  4.506e-01  linmin:  2.116e-05  t[s]:   2850.48
	Linear fluid (dielectric constant: 78.4, screening length: 8.12261 Bohr) occupying 0.506912 of unit cell:	Completed after 11 iterations at t[s]:   2862.24
	Linear fluid (dielectric constant: 78.4, screening length: 8.12261 Bohr) occupying 0.506909 of unit cell:	Completed after 6 iterations at t[s]:   2871.61
	FillingsUpdate:  mu: -0.244750000  nElectrons: 159.606657  magneticMoment: [ Abs: 0.00001  Tot: -0.00001 ]
	SubspaceRotationAdjust: set factor to 0.0181
ElecMinimize: Iter:  28  G: -850.470094041788570  |grad|_K:  3.926e-07  alpha:  4.227e-01  linmin: -6.049e-06  t[s]:   2886.09
	Linear fluid (dielectric constant: 78.4, screening length: 8.12261 Bohr) occupying 0.506933 of unit cell:	Completed after 4 iterations at t[s]:   2896.89
	Linear fluid (dielectric constant: 78.4, screening length: 8.12261 Bohr) occupying 0.506939 of unit cell:	Completed after 2 iterations at t[s]:   2905.69
	FillingsUpdate:  mu: -0.244750000  nElectrons: 159.606188  magneticMoment: [ Abs: 0.00001  Tot: -0.00001 ]
	SubspaceRotationAdjust: set factor to 0.0201
ElecMinimize: Iter:  29  G: -850.470100562483935  |grad|_K:  3.110e-07  alpha:  5.284e-01  linmin: -3.569e-05  t[s]:   2920.07
	Linear fluid (dielectric constant: 78.4, screening length: 8.12261 Bohr) occupying 0.506963 of unit cell:	Completed after 11 iterations at t[s]:   2931.57
	Linear fluid (dielectric constant: 78.4, screening length: 8.12261 Bohr) occupying 0.506961 of unit cell:	Completed after 5 iterations at t[s]:   2940.82
	FillingsUpdate:  mu: -0.244750000  nElectrons: 159.604758  magneticMoment: [ Abs: 0.00001  Tot: -0.00001 ]
	SubspaceRotationAdjust: set factor to 0.0194
ElecMinimize: Iter:  30  G: -850.470104315844424  |grad|_K:  2.540e-07  alpha:  4.843e-01  linmin:  2.627e-05  t[s]:   2955.38
	Linear fluid (dielectric constant: 78.4, screening length: 8.12261 Bohr) occupying 0.506984 of unit cell:	Completed after 11 iterations at t[s]:   2966.78
	Linear fluid (dielectric constant: 78.4, screening length: 8.12261 Bohr) occupying 0.506983 of unit cell:	Completed after 2 iterations at t[s]:   2975.75
	FillingsUpdate:  mu: -0.244750000  nElectrons: 159.605462  magneticMoment: [ Abs: 0.00001  Tot: -0.00001 ]
	SubspaceRotationAdjust: set factor to 0.0181
ElecMinimize: Iter:  31  G: -850.470106648770297  |grad|_K:  2.134e-07  alpha:  4.523e-01  linmin:  7.839e-05  t[s]:   2990.26
	Linear fluid (dielectric constant: 78.4, screening length: 8.12261 Bohr) occupying 0.507002 of unit cell:	Completed after 10 iterations at t[s]:   3001.48
	Linear fluid (dielectric constant: 78.4, screening length: 8.12261 Bohr) occupying 0.507004 of unit cell:	Completed after 2 iterations at t[s]:   3010.54
	FillingsUpdate:  mu: -0.244750000  nElectrons: 159.604676  magneticMoment: [ Abs: 0.00001  Tot: -0.00001 ]
	SubspaceRotationAdjust: set factor to 0.0207
ElecMinimize: Iter:  32  G: -850.470108469912816  |grad|_K:  1.771e-07  alpha:  5.009e-01  linmin: -1.736e-04  t[s]:   3024.94
	Linear fluid (dielectric constant: 78.4, screening length: 8.12261 Bohr) occupying 0.507025 of unit cell:	Completed after 8 iterations at t[s]:   3035.91
	Linear fluid (dielectric constant: 78.4, screening length: 8.12261 Bohr) occupying 0.507030 of unit cell:	Completed after 2 iterations at t[s]:   3044.95
	FillingsUpdate:  mu: -0.244750000  nElectrons: 159.603997  magneticMoment: [ Abs: 0.00001  Tot: -0.00001 ]
	SubspaceRotationAdjust: set factor to 0.0234
ElecMinimize: Iter:  33  G: -850.470110105176445  |grad|_K:  1.772e-07  alpha:  6.468e-01  linmin: -1.000e-04  t[s]:   3059.57
	Linear fluid (dielectric constant: 78.4, screening length: 8.12261 Bohr) occupying 0.507063 of unit cell:	Completed after 10 iterations at t[s]:   3071.33
	Linear fluid (dielectric constant: 78.4, screening length: 8.12261 Bohr) occupying 0.507062 of unit cell:	Completed after 0 iterations at t[s]:   3080.17
	FillingsUpdate:  mu: -0.244750000  nElectrons: 159.604270  magneticMoment: [ Abs: 0.00001  Tot: -0.00001 ]
	SubspaceRotationAdjust: set factor to 0.0237
ElecMinimize: Iter:  34  G: -850.470111692658975  |grad|_K:  2.051e-07  alpha:  6.282e-01  linmin:  1.225e-04  t[s]:   3094.34
	Linear fluid (dielectric constant: 78.4, screening length: 8.12261 Bohr) occupying 0.507107 of unit cell:	Completed after 11 iterations at t[s]:   3105.73
	Linear fluid (dielectric constant: 78.4, screening length: 8.12261 Bohr) occupying 0.507101 of unit cell:	Completed after 8 iterations at t[s]:   3115.27
	FillingsUpdate:  mu: -0.244750000  nElectrons: 159.602764  magneticMoment: [ Abs: 0.00001  Tot: -0.00001 ]
	SubspaceRotationAdjust: set factor to 0.0219
ElecMinimize: Iter:  35  G: -850.470113468234217  |grad|_K:  2.200e-07  alpha:  5.333e-01  linmin: -6.032e-05  t[s]:   3129.73
	Linear fluid (dielectric constant: 78.4, screening length: 8.12261 Bohr) occupying 0.507148 of unit cell:	Completed after 10 iterations at t[s]:   3141.28
	Linear fluid (dielectric constant: 78.4, screening length: 8.12261 Bohr) occupying 0.507158 of unit cell:	Completed after 6 iterations at t[s]:   3150.57
	FillingsUpdate:  mu: -0.244750000  nElectrons: 159.602731  magneticMoment: [ Abs: 0.00001  Tot: -0.00001 ]
	SubspaceRotationAdjust: set factor to 0.0221
ElecMinimize: Iter:  36  G: -850.470116021248032  |grad|_K:  2.271e-07  alpha:  6.552e-01  linmin: -3.526e-05  t[s]:   3165.06
	Linear fluid (dielectric constant: 78.4, screening length: 8.12261 Bohr) occupying 0.507217 of unit cell:	Completed after 4 iterations at t[s]:   3176.23
	Linear fluid (dielectric constant: 78.4, screening length: 8.12261 Bohr) occupying 0.507222 of unit cell:	Completed after 2 iterations at t[s]:   3185.29
	FillingsUpdate:  mu: -0.244750000  nElectrons: 159.601922  magneticMoment: [ Abs: 0.00001  Tot: -0.00001 ]
	SubspaceRotationAdjust: set factor to 0.0232
ElecMinimize: Iter:  37  G: -850.470118964806716  |grad|_K:  2.321e-07  alpha:  7.104e-01  linmin: -1.578e-05  t[s]:   3199.62
	Linear fluid (dielectric constant: 78.4, screening length: 8.12261 Bohr) occupying 0.507281 of unit cell:	Completed after 10 iterations at t[s]:   3210.84
	Linear fluid (dielectric constant: 78.4, screening length: 8.12261 Bohr) occupying 0.507270 of unit cell:	Completed after 8 iterations at t[s]:   3220.26
	FillingsUpdate:  mu: -0.244750000  nElectrons: 159.600588  magneticMoment: [ Abs: 0.00001  Tot: -0.00001 ]
	SubspaceRotationAdjust: set factor to 0.0225
ElecMinimize: Iter:  38  G: -850.470121482402988  |grad|_K:  2.150e-07  alpha:  5.826e-01  linmin:  1.081e-05  t[s]:   3234.60
	Linear fluid (dielectric constant: 78.4, screening length: 8.12261 Bohr) occupying 0.507310 of unit cell:	Completed after 11 iterations at t[s]:   3246.06
	Linear fluid (dielectric constant: 78.4, screening length: 8.12261 Bohr) occupying 0.507302 of unit cell:	Completed after 8 iterations at t[s]:   3255.58
	FillingsUpdate:  mu: -0.244750000  nElectrons: 159.601020  magneticMoment: [ Abs: 0.00001  Tot: -0.00001 ]
	SubspaceRotationAdjust: set factor to 0.019
ElecMinimize: Iter:  39  G: -850.470123184665113  |grad|_K:  1.804e-07  alpha:  4.607e-01  linmin:  2.179e-06  t[s]:   3270.01
	Linear fluid (dielectric constant: 78.4, screening length: 8.12261 Bohr) occupying 0.507319 of unit cell:	Completed after 10 iterations at t[s]:   3281.26
	Linear fluid (dielectric constant: 78.4, screening length: 8.12261 Bohr) occupying 0.507317 of unit cell:	Completed after 2 iterations at t[s]:   3290.30
	FillingsUpdate:  mu: -0.244750000  nElectrons: 159.600053  magneticMoment: [ Abs: 0.00001  Tot: -0.00001 ]
	SubspaceRotationAdjust: set factor to 0.0159
ElecMinimize: Iter:  40  G: -850.470124277853643  |grad|_K:  1.298e-07  alpha:  4.196e-01  linmin:  6.987e-05  t[s]:   3304.68
	Linear fluid (dielectric constant: 78.4, screening length: 8.12261 Bohr) occupying 0.507325 of unit cell:	Completed after 7 iterations at t[s]:   3315.77
	Linear fluid (dielectric constant: 78.4, screening length: 8.12261 Bohr) occupying 0.507326 of unit cell:	Completed after 1 iterations at t[s]:   3324.69
	FillingsUpdate:  mu: -0.244750000  nElectrons: 159.600098  magneticMoment: [ Abs: 0.00001  Tot: -0.00001 ]
	SubspaceRotationAdjust: set factor to 0.0169
ElecMinimize: Iter:  41  G: -850.470124926389531  |grad|_K:  9.005e-08  alpha:  4.831e-01  linmin: -1.301e-04  t[s]:   3339.17
	Linear fluid (dielectric constant: 78.4, screening length: 8.12261 Bohr) occupying 0.507330 of unit cell:	Completed after 8 iterations at t[s]:   3350.47
	Linear fluid (dielectric constant: 78.4, screening length: 8.12261 Bohr) occupying 0.507330 of unit cell:	Completed after 0 iterations at t[s]:   3359.20
	FillingsUpdate:  mu: -0.244750000  nElectrons: 159.600217  magneticMoment: [ Abs: 0.00001  Tot: -0.00001 ]
	SubspaceRotationAdjust: set factor to 0.0167
ElecMinimize: Iter:  42  G: -850.470125232198370  |grad|_K:  6.512e-08  alpha:  4.675e-01  linmin: -7.406e-05  t[s]:   3373.72
	Linear fluid (dielectric constant: 78.4, screening length: 8.12261 Bohr) occupying 0.507331 of unit cell:	Completed after 9 iterations at t[s]:   3385.21
	Linear fluid (dielectric constant: 78.4, screening length: 8.12261 Bohr) occupying 0.507331 of unit cell:	Completed after 0 iterations at t[s]:   3393.86
	FillingsUpdate:  mu: -0.244750000  nElectrons: 159.599974  magneticMoment: [ Abs: 0.00001  Tot: -0.00001 ]
	SubspaceRotationAdjust: set factor to 0.0147
ElecMinimize: Iter:  43  G: -850.470125378462399  |grad|_K:  4.889e-08  alpha:  4.289e-01  linmin:  2.398e-04  t[s]:   3408.40
	Linear fluid (dielectric constant: 78.4, screening length: 8.12261 Bohr) occupying 0.507332 of unit cell:	Completed after 8 iterations at t[s]:   3419.88
	Linear fluid (dielectric constant: 78.4, screening length: 8.12261 Bohr) occupying 0.507332 of unit cell:	Completed after 0 iterations at t[s]:   3428.33
	FillingsUpdate:  mu: -0.244750000  nElectrons: 159.600076  magneticMoment: [ Abs: 0.00001  Tot: -0.00001 ]
	SubspaceRotationAdjust: set factor to 0.0147
ElecMinimize: Iter:  44  G: -850.470125455866764  |grad|_K:  3.340e-08  alpha:  4.115e-01  linmin: -2.898e-04  t[s]:   3442.79
	Linear fluid (dielectric constant: 78.4, screening length: 8.12261 Bohr) occupying 0.507332 of unit cell:	Completed after 0 iterations at t[s]:   3453.07
	Linear fluid (dielectric constant: 78.4, screening length: 8.12261 Bohr) occupying 0.507332 of unit cell:	Completed after 1 iterations at t[s]:   3461.98
	FillingsUpdate:  mu: -0.244750000  nElectrons: 159.600059  magneticMoment: [ Abs: 0.00001  Tot: -0.00001 ]
	SubspaceRotationAdjust: set factor to 0.0166
ElecMinimize: Iter:  45  G: -850.470125501400503  |grad|_K:  2.576e-08  alpha:  5.067e-01  linmin:  1.105e-04  t[s]:   3476.45
ElecMinimize: Converged (|Delta G|<1.000000e-07 for 2 iters).
Setting wave functions to eigenvectors of Hamiltonian
Converging empty states (this may take a while): |deigs|: 5.139e-04
Single-point solvation energy estimate, DeltaG = -0.014553735509480

Computing DFT-D3 correction:
# coordination-number Pt 8.543 9.283 9.337 6.963 5.354 9.338 9.282 8.543 5.357 6.968
# diagonal-C6 Pt 336.87 336.87 336.87 336.87 336.87 336.87 336.87 336.87 336.87 336.87
EvdW_6 =   -0.074787
EvdW_8 =   -0.128267

# Ionic positions in cartesian coordinates:
ion Pt   3.704059000000000   1.815113000000000  12.571568999999998 1
ion Pt  -0.001040000000000   3.270926000000000   9.140345999999999 1
ion Pt   3.697843999999999   4.972532000000000   5.876096999999999 1
ion Pt  -0.004388000000000   6.545111000000000   2.253630000000000 1
ion Pt  -3.697681000000000   8.269474000000001  15.435163999999999 1
ion Pt   3.701373000000000   6.609264000000000  10.669056999999999 1
ion Pt   3.700841000000000   0.038393000000000   7.404359999999999 1
ion Pt  -0.004484000000000   1.493602000000000   3.974031000000000 1
ion Pt   3.697641000000000   3.311767000000000   1.112222000000000 1
ion Pt   0.004151000000000   5.036371000000000  14.288593999999996 1

# Forces in Cartesian coordinates:
force Pt  -0.000157403452837  -0.000013564799361  -0.000355446524202 1
force Pt   0.000038712767029   0.000266374781434   0.000273784368158 1
force Pt  -0.000109615351823  -0.002238994570151  -0.000645781352216 1
force Pt  -0.000057317201271   0.000445967140985   0.003696408229536 1
force Pt   0.000016559488338  -0.000337262320261   0.002263393624709 1
force Pt   0.000108586609297   0.002281762361529   0.000709679926040 1
force Pt  -0.000046170806154  -0.000297958300322  -0.000253847524983 1
force Pt   0.000158569917387  -0.000025190345960   0.000379398646002 1
force Pt  -0.000019050092296   0.000316994426519  -0.002289457655685 1
force Pt   0.000061021606894  -0.000403462002300  -0.003599272324307 1

# Energy components:
   A_diel =        0.0992640668613125
   Eewald =     4085.3089447937441037
       EH =     4884.7085749213792951
     Eloc =   -10014.0595002045793080
      Enl =      -10.5178263330806523
     EvdW =       -0.2030539436147283
      Exc =     -284.2746195542126770
 Exc_core =      163.9138237787978483
       KE =      285.4726369837763400
  MuShift =        0.0208981005381695
-------------------------------------
     Etot =     -889.5308573903902243
       TS =        0.0013826670032894
-------------------------------------
        F =     -889.5322400573935511
      muN =      -39.0621145559930127
-------------------------------------
        G =     -850.4701255014005028


Dumping 'jdft.fillings' ... done
Dumping 'jdft.wfns' ... done
Dumping 'jdft.fluidState' ... done
Dumping 'jdft.ionpos' ... done
Dumping 'jdft.lattice' ... done
Dumping 'jdft.eigenvals' ... done
Dumping 'jdft.eigStats' ... 
	eMin: -2.193810 at state 59 ( [ +0.444444 +0.285714 +0.000000 ] spin -1 )
	HOMO: -0.244735 at state 47 ( [ +0.222222 -0.428571 +0.000000 ] spin -1 )
	mu  : -0.244750
	LUMO: -0.244570 at state 14 ( [ +0.222222 +0.428571 +0.000000 ] spin 1 )
	eMax: +0.077644 at state 0 ( [ +0.000000 +0.000000 +0.000000 ] spin 1 )
	HOMO-LUMO gap: +0.000165
	Optical gap  : +0.001664 at state 4 ( [ +0.111111 +0.000000 +0.000000 ] spin 1 )
Dumping 'jdft.Ecomponents' ... done
IonicMinimize: Iter:   0  G: -850.470125501400503  |grad|_K:  1.283e-03  t[s]:   3550.61

#--- Lowdin population analysis ---
# oxidation-state Pt -0.026 +0.010 -0.001 +0.038 +0.241 -0.001 +0.010 -0.026 +0.241 +0.038
# magnetic-moments Pt -0.000 -0.000 -0.000 -0.000 -0.000 -0.000 -0.000 -0.000 -0.000 -0.000


Computing DFT-D3 correction:
# coordination-number Pt 8.546 9.285 9.340 6.969 5.350 9.341 9.284 8.546 5.353 6.974
# diagonal-C6 Pt 336.87 336.87 336.87 336.87 336.87 336.87 336.87 336.87 336.87 336.87
EvdW_6 =   -0.074789
EvdW_8 =   -0.128272
Shifting auxilliary hamiltonian by -0.000020 to set nElectrons=159.600059

-------- Electronic minimization -----------
	Linear fluid (dielectric constant: 78.4, screening length: 8.12261 Bohr) occupying 0.507332 of unit cell:	Completed after 11 iterations at t[s]:   3563.90
	FillingsUpdate:  mu: -0.244750000  nElectrons: 159.600059  magneticMoment: [ Abs: 0.00001  Tot: -0.00000 ]
ElecMinimize: Iter:   0  G: -850.470166500936102  |grad|_K:  2.776e-07  alpha:  1.000e+00
	Linear fluid (dielectric constant: 78.4, screening length: 8.12261 Bohr) occupying 0.507329 of unit cell:	Completed after 10 iterations at t[s]:   3591.55
	Linear fluid (dielectric constant: 78.4, screening length: 8.12261 Bohr) occupying 0.507331 of unit cell:	Completed after 10 iterations at t[s]:   3601.11
	FillingsUpdate:  mu: -0.244750000  nElectrons: 159.599645  magneticMoment: [ Abs: 0.00001  Tot: -0.00000 ]
	SubspaceRotationAdjust: set factor to 0.0178
ElecMinimize: Iter:   1  G: -850.470168937350650  |grad|_K:  1.192e-07  alpha:  3.945e-01  linmin: -1.758e-04  t[s]:   3615.22
	Linear fluid (dielectric constant: 78.4, screening length: 8.12261 Bohr) occupying 0.507331 of unit cell:	Completed after 2 iterations at t[s]:   3625.87
	Linear fluid (dielectric constant: 78.4, screening length: 8.12261 Bohr) occupying 0.507331 of unit cell:	Completed after 2 iterations at t[s]:   3634.56
	FillingsUpdate:  mu: -0.244750000  nElectrons: 159.599540  magneticMoment: [ Abs: 0.00001  Tot: -0.00000 ]
	SubspaceRotationAdjust: set factor to 0.0202
ElecMinimize: Iter:   2  G: -850.470169486861778  |grad|_K:  7.772e-08  alpha:  4.834e-01  linmin: -3.933e-04  t[s]:   3649.12
	Linear fluid (dielectric constant: 78.4, screening length: 8.12261 Bohr) occupying 0.507331 of unit cell:	Completed after 2 iterations at t[s]:   3659.87
	Linear fluid (dielectric constant: 78.4, screening length: 8.12261 Bohr) occupying 0.507331 of unit cell:	Completed after 1 iterations at t[s]:   3668.93
	FillingsUpdate:  mu: -0.244750000  nElectrons: 159.599446  magneticMoment: [ Abs: 0.00001  Tot: -0.00000 ]
	SubspaceRotationAdjust: set factor to 0.025
ElecMinimize: Iter:   3  G: -850.470169757513418  |grad|_K:  5.831e-08  alpha:  5.591e-01  linmin: -4.003e-04  t[s]:   3683.30
	Linear fluid (dielectric constant: 78.4, screening length: 8.12261 Bohr) occupying 0.507331 of unit cell:	Completed after 2 iterations at t[s]:   3693.79
	Linear fluid (dielectric constant: 78.4, screening length: 8.12261 Bohr) occupying 0.507331 of unit cell:	Completed after 0 iterations at t[s]:   3702.51
	FillingsUpdate:  mu: -0.244750000  nElectrons: 159.599399  magneticMoment: [ Abs: 0.00000  Tot: -0.00000 ]
	SubspaceRotationAdjust: set factor to 0.032
ElecMinimize: Iter:   4  G: -850.470169963830472  |grad|_K:  5.531e-08  alpha:  7.534e-01  linmin: -4.118e-04  t[s]:   3716.90
	Linear fluid (dielectric constant: 78.4, screening length: 8.12261 Bohr) occupying 0.507332 of unit cell:	Completed after 2 iterations at t[s]:   3727.33
	Linear fluid (dielectric constant: 78.4, screening length: 8.12261 Bohr) occupying 0.507332 of unit cell:	Completed after 0 iterations at t[s]:   3736.04
	FillingsUpdate:  mu: -0.244750000  nElectrons: 159.599423  magneticMoment: [ Abs: 0.00001  Tot: -0.00000 ]
	SubspaceRotationAdjust: set factor to 0.0384
ElecMinimize: Iter:   5  G: -850.470170194604407  |grad|_K:  6.821e-08  alpha:  9.320e-01  linmin: -2.451e-04  t[s]:   3750.49
	Linear fluid (dielectric constant: 78.4, screening length: 8.12261 Bohr) occupying 0.507335 of unit cell:	Completed after 2 iterations at t[s]:   3761.32
	Linear fluid (dielectric constant: 78.4, screening length: 8.12261 Bohr) occupying 0.507335 of unit cell:	Completed after 0 iterations at t[s]:   3770.02
	FillingsUpdate:  mu: -0.244750000  nElectrons: 159.599403  magneticMoment: [ Abs: 0.00000  Tot: -0.00000 ]
	SubspaceRotationAdjust: set factor to 0.0436
ElecMinimize: Iter:   6  G: -850.470170557626261  |grad|_K:  8.153e-08  alpha:  9.629e-01  linmin: -6.211e-05  t[s]:   3784.44
	Linear fluid (dielectric constant: 78.4, screening length: 8.12261 Bohr) occupying 0.507340 of unit cell:	Completed after 2 iterations at t[s]:   3795.10
	Linear fluid (dielectric constant: 78.4, screening length: 8.12261 Bohr) occupying 0.507340 of unit cell:	Completed after 0 iterations at t[s]:   3803.80
	FillingsUpdate:  mu: -0.244750000  nElectrons: 159.599281  magneticMoment: [ Abs: 0.00000  Tot: +0.00000 ]
	SubspaceRotationAdjust: set factor to 0.0466
ElecMinimize: Iter:   7  G: -850.470171075958319  |grad|_K:  9.637e-08  alpha:  9.698e-01  linmin: -1.251e-05  t[s]:   3818.15
	Linear fluid (dielectric constant: 78.4, screening length: 8.12261 Bohr) occupying 0.507346 of unit cell:	Completed after 8 iterations at t[s]:   3829.28
	Linear fluid (dielectric constant: 78.4, screening length: 8.12261 Bohr) occupying 0.507345 of unit cell:	Completed after 3 iterations at t[s]:   3838.41
	FillingsUpdate:  mu: -0.244750000  nElectrons: 159.599387  magneticMoment: [ Abs: 0.00000  Tot: +0.00000 ]
	SubspaceRotationAdjust: set factor to 0.0469
ElecMinimize: Iter:   8  G: -850.470171590121481  |grad|_K:  9.929e-08  alpha:  6.893e-01  linmin:  4.211e-05  t[s]:   3852.76
	Linear fluid (dielectric constant: 78.4, screening length: 8.12261 Bohr) occupying 0.507348 of unit cell:	Completed after 11 iterations at t[s]:   3863.93
	Linear fluid (dielectric constant: 78.4, screening length: 8.12261 Bohr) occupying 0.507346 of unit cell:	Completed after 10 iterations at t[s]:   3873.49
	FillingsUpdate:  mu: -0.244750000  nElectrons: 159.598714  magneticMoment: [ Abs: 0.00000  Tot: +0.00000 ]
	SubspaceRotationAdjust: set factor to 0.0357
ElecMinimize: Iter:   9  G: -850.470171793162535  |grad|_K:  1.135e-07  alpha:  2.696e-01  linmin:  4.739e-05  t[s]:   3887.94
	Linear fluid (dielectric constant: 78.4, screening length: 8.12261 Bohr) occupying 0.507348 of unit cell:	Completed after 10 iterations at t[s]:   3899.66
	Linear fluid (dielectric constant: 78.4, screening length: 8.12261 Bohr) occupying 0.507348 of unit cell:	Completed after 0 iterations at t[s]:   3908.10
	FillingsUpdate:  mu: -0.244750000  nElectrons: 159.599050  magneticMoment: [ Abs: 0.00000  Tot: +0.00000 ]
	SubspaceRotationAdjust: set factor to 0.0322
ElecMinimize: Iter:  10  G: -850.470172068560032  |grad|_K:  7.026e-08  alpha:  2.690e-01  linmin:  1.595e-05  t[s]:   3922.55
	Linear fluid (dielectric constant: 78.4, screening length: 8.12261 Bohr) occupying 0.507349 of unit cell:	Completed after 2 iterations at t[s]:   3933.18
	Linear fluid (dielectric constant: 78.4, screening length: 8.12261 Bohr) occupying 0.507350 of unit cell:	Completed after 2 iterations at t[s]:   3942.26
	FillingsUpdate:  mu: -0.244750000  nElectrons: 159.599076  magneticMoment: [ Abs: 0.00000  Tot: +0.00000 ]
	SubspaceRotationAdjust: set factor to 0.0379
ElecMinimize: Iter:  11  G: -850.470172278615337  |grad|_K:  5.232e-08  alpha:  5.325e-01  linmin:  4.497e-07  t[s]:   3956.73
	Linear fluid (dielectric constant: 78.4, screening length: 8.12261 Bohr) occupying 0.507351 of unit cell:	Completed after 9 iterations at t[s]:   3967.69
	Linear fluid (dielectric constant: 78.4, screening length: 8.12261 Bohr) occupying 0.507351 of unit cell:	Completed after 2 iterations at t[s]:   3976.65
	FillingsUpdate:  mu: -0.244750000  nElectrons: 159.598740  magneticMoment: [ Abs: 0.00000  Tot: +0.00000 ]
	SubspaceRotationAdjust: set factor to 0.0312
ElecMinimize: Iter:  12  G: -850.470172375390121  |grad|_K:  5.727e-08  alpha:  4.351e-01  linmin:  6.161e-04  t[s]:   3991.12
	Linear fluid (dielectric constant: 78.4, screening length: 8.12261 Bohr) occupying 0.507353 of unit cell:	Completed after 10 iterations at t[s]:   4002.37
	Linear fluid (dielectric constant: 78.4, screening length: 8.12261 Bohr) occupying 0.507352 of unit cell:	Completed after 8 iterations at t[s]:   4011.89
	FillingsUpdate:  mu: -0.244750000  nElectrons: 159.598971  magneticMoment: [ Abs: 0.00000  Tot: +0.00000 ]
	SubspaceRotationAdjust: set factor to 0.0246
ElecMinimize: Iter:  13  G: -850.470172427433795  |grad|_K:  3.589e-08  alpha:  2.180e-01  linmin:  4.692e-05  t[s]:   4026.30
ElecMinimize: Converged (|Delta G|<1.000000e-07 for 2 iters).
Setting wave functions to eigenvectors of Hamiltonian
Converging empty states (this may take a while): |deigs|: 2.845e-07

Computing DFT-D3 correction:
# coordination-number Pt 8.546 9.285 9.340 6.969 5.350 9.341 9.284 8.546 5.353 6.974
# diagonal-C6 Pt 336.87 336.87 336.87 336.87 336.87 336.87 336.87 336.87 336.87 336.87
EvdW_6 =   -0.074789
EvdW_8 =   -0.128272
IonicMinimize: 	Wolfe criterion not satisfied: alpha: 1  (E-E0)/|gdotd0|: -0.950865  gdotd/gdotd0: 0.938011 (taking cubic step)

Computing DFT-D3 correction:
# coordination-number Pt 8.551 9.290 9.345 6.981 5.343 9.346 9.289 8.551 5.346 6.986
# diagonal-C6 Pt 336.87 336.87 336.87 336.87 336.87 336.87 336.87 336.87 336.87 336.87
EvdW_6 =   -0.074794
EvdW_8 =   -0.128281
Shifting auxilliary hamiltonian by -0.000046 to set nElectrons=159.598971

-------- Electronic minimization -----------
	Linear fluid (dielectric constant: 78.4, screening length: 8.12261 Bohr) occupying 0.507305 of unit cell:	Completed after 13 iterations at t[s]:   4074.25
	FillingsUpdate:  mu: -0.244750000  nElectrons: 159.598971  magneticMoment: [ Abs: 0.00003  Tot: -0.00002 ]
ElecMinimize: Iter:   0  G: -850.470229437435705  |grad|_K:  5.929e-07  alpha:  1.000e+00
	Linear fluid (dielectric constant: 78.4, screening length: 8.12261 Bohr) occupying 0.507294 of unit cell:	Completed after 14 iterations at t[s]:   4101.78
	Linear fluid (dielectric constant: 78.4, screening length: 8.12261 Bohr) occupying 0.507302 of unit cell:	Completed after 13 iterations at t[s]:   4111.63
	FillingsUpdate:  mu: -0.244750000  nElectrons: 159.600476  magneticMoment: [ Abs: 0.00003  Tot: -0.00002 ]
	SubspaceRotationAdjust: set factor to 0.0206
ElecMinimize: Iter:   1  G: -850.470238845481276  |grad|_K:  3.386e-07  alpha:  3.343e-01  linmin: -6.743e-05  t[s]:   4125.90
	Linear fluid (dielectric constant: 78.4, screening length: 8.12261 Bohr) occupying 0.507295 of unit cell:	Completed after 12 iterations at t[s]:   4137.45
	Linear fluid (dielectric constant: 78.4, screening length: 8.12261 Bohr) occupying 0.507296 of unit cell:	Completed after 10 iterations at t[s]:   4146.93
	FillingsUpdate:  mu: -0.244750000  nElectrons: 159.598384  magneticMoment: [ Abs: 0.00002  Tot: -0.00002 ]
	SubspaceRotationAdjust: set factor to 0.0141
ElecMinimize: Iter:   2  G: -850.470241445121360  |grad|_K:  1.953e-07  alpha:  2.832e-01  linmin:  3.403e-04  t[s]:   4161.50
	Linear fluid (dielectric constant: 78.4, screening length: 8.12261 Bohr) occupying 0.507294 of unit cell:	Completed after 9 iterations at t[s]:   4172.88
	Linear fluid (dielectric constant: 78.4, screening length: 8.12261 Bohr) occupying 0.507293 of unit cell:	Completed after 9 iterations at t[s]:   4182.57
	FillingsUpdate:  mu: -0.244750000  nElectrons: 159.598629  magneticMoment: [ Abs: 0.00002  Tot: -0.00002 ]
	SubspaceRotationAdjust: set factor to 0.0176
ElecMinimize: Iter:   3  G: -850.470243011615935  |grad|_K:  1.366e-07  alpha:  5.143e-01  linmin:  4.160e-04  t[s]:   4197.12
	Linear fluid (dielectric constant: 78.4, screening length: 8.12261 Bohr) occupying 0.507291 of unit cell:	Completed after 8 iterations at t[s]:   4208.26
	Linear fluid (dielectric constant: 78.4, screening length: 8.12261 Bohr) occupying 0.507291 of unit cell:	Completed after 0 iterations at t[s]:   4216.61
	FillingsUpdate:  mu: -0.244750000  nElectrons: 159.598794  magneticMoment: [ Abs: 0.00002  Tot: -0.00002 ]
	SubspaceRotationAdjust: set factor to 0.0206
ElecMinimize: Iter:   4  G: -850.470243829822948  |grad|_K:  1.153e-07  alpha:  5.483e-01  linmin: -7.116e-04  t[s]:   4231.12
	Linear fluid (dielectric constant: 78.4, screening length: 8.12261 Bohr) occupying 0.507290 of unit cell:	Completed after 10 iterations at t[s]:   4242.92
	Linear fluid (dielectric constant: 78.4, screening length: 8.12261 Bohr) occupying 0.507290 of unit cell:	Completed after 2 iterations at t[s]:   4251.96
	FillingsUpdate:  mu: -0.244750000  nElectrons: 159.598350  magneticMoment: [ Abs: 0.00002  Tot: -0.00002 ]
	SubspaceRotationAdjust: set factor to 0.0234
ElecMinimize: Iter:   5  G: -850.470244509041436  |grad|_K:  1.142e-07  alpha:  6.367e-01  linmin: -2.917e-04  t[s]:   4266.60
	Linear fluid (dielectric constant: 78.4, screening length: 8.12261 Bohr) occupying 0.507291 of unit cell:	Completed after 10 iterations at t[s]:   4277.92
	Linear fluid (dielectric constant: 78.4, screening length: 8.12261 Bohr) occupying 0.507291 of unit cell:	Completed after 2 iterations at t[s]:   4287.04
	FillingsUpdate:  mu: -0.244750000  nElectrons: 159.598862  magneticMoment: [ Abs: 0.00002  Tot: -0.00002 ]
	SubspaceRotationAdjust: set factor to 0.0241
ElecMinimize: Iter:   6  G: -850.470245258364457  |grad|_K:  1.408e-07  alpha:  7.177e-01  linmin:  1.268e-04  t[s]:   4301.50
	Linear fluid (dielectric constant: 78.4, screening length: 8.12261 Bohr) occupying 0.507294 of unit cell:	Completed after 9 iterations at t[s]:   4312.53
	Linear fluid (dielectric constant: 78.4, screening length: 8.12261 Bohr) occupying 0.507294 of unit cell:	Completed after 0 iterations at t[s]:   4321.28
	FillingsUpdate:  mu: -0.244750000  nElectrons: 159.598073  magneticMoment: [ Abs: 0.00002  Tot: -0.00002 ]
	SubspaceRotationAdjust: set factor to 0.0242
ElecMinimize: Iter:   7  G: -850.470246363528076  |grad|_K:  1.570e-07  alpha:  6.979e-01  linmin:  5.851e-04  t[s]:   4335.79
	Linear fluid (dielectric constant: 78.4, screening length: 8.12261 Bohr) occupying 0.507302 of unit cell:	Completed after 10 iterations at t[s]:   4346.91
	Linear fluid (dielectric constant: 78.4, screening length: 8.12261 Bohr) occupying 0.507303 of unit cell:	Completed after 2 iterations at t[s]:   4356.17
	FillingsUpdate:  mu: -0.244750000  nElectrons: 159.598334  magneticMoment: [ Abs: 0.00002  Tot: -0.00002 ]
	SubspaceRotationAdjust: set factor to 0.0239
ElecMinimize: Iter:   8  G: -850.470248006295492  |grad|_K:  1.806e-07  alpha:  8.401e-01  linmin: -3.730e-04  t[s]:   4370.49
	Linear fluid (dielectric constant: 78.4, screening length: 8.12261 Bohr) occupying 0.507318 of unit cell:	Completed after 10 iterations at t[s]:   4381.94
	Linear fluid (dielectric constant: 78.4, screening length: 8.12261 Bohr) occupying 0.507316 of unit cell:	Completed after 7 iterations at t[s]:   4391.39
	FillingsUpdate:  mu: -0.244750000  nElectrons: 159.597227  magneticMoment: [ Abs: 0.00002  Tot: -0.00001 ]
	SubspaceRotationAdjust: set factor to 0.0227
ElecMinimize: Iter:   9  G: -850.470249890260902  |grad|_K:  1.778e-07  alpha:  7.135e-01  linmin:  2.205e-04  t[s]:   4405.78
	Linear fluid (dielectric constant: 78.4, screening length: 8.12261 Bohr) occupying 0.507331 of unit cell:	Completed after 10 iterations at t[s]:   4417.46
	Linear fluid (dielectric constant: 78.4, screening length: 8.12261 Bohr) occupying 0.507328 of unit cell:	Completed after 8 iterations at t[s]:   4427.01
	FillingsUpdate:  mu: -0.244750000  nElectrons: 159.597725  magneticMoment: [ Abs: 0.00002  Tot: -0.00001 ]
	SubspaceRotationAdjust: set factor to 0.0198
ElecMinimize: Iter:  10  G: -850.470251259643646  |grad|_K:  1.659e-07  alpha:  5.447e-01  linmin:  8.896e-06  t[s]:   4441.49
	Linear fluid (dielectric constant: 78.4, screening length: 8.12261 Bohr) occupying 0.507336 of unit cell:	Completed after 10 iterations at t[s]:   4452.98
	Linear fluid (dielectric constant: 78.4, screening length: 8.12261 Bohr) occupying 0.507335 of unit cell:	Completed after 7 iterations at t[s]:   4462.35
	FillingsUpdate:  mu: -0.244750000  nElectrons: 159.596700  magneticMoment: [ Abs: 0.00001  Tot: -0.00001 ]
	SubspaceRotationAdjust: set factor to 0.0166
ElecMinimize: Iter:  11  G: -850.470252282545175  |grad|_K:  1.335e-07  alpha:  4.644e-01  linmin:  8.145e-05  t[s]:   4476.91
	Linear fluid (dielectric constant: 78.4, screening length: 8.12261 Bohr) occupying 0.507341 of unit cell:	Completed after 9 iterations at t[s]:   4488.34
	Linear fluid (dielectric constant: 78.4, screening length: 8.12261 Bohr) occupying 0.507341 of unit cell:	Completed after 1 iterations at t[s]:   4497.26
	FillingsUpdate:  mu: -0.244750000  nElectrons: 159.596957  magneticMoment: [ Abs: 0.00001  Tot: -0.00001 ]
	SubspaceRotationAdjust: set factor to 0.0178
[...]
	Linear fluid (dielectric constant: 78.4, screening length: 8.12261 Bohr) occupying 0.507581 of unit cell:	Completed after 15 iterations at t[s]:   7949.67
	Linear fluid (dielectric constant: 78.4, screening length: 8.12261 Bohr) occupying 0.507558 of unit cell:	Completed after 15 iterations at t[s]:   7959.43
	FillingsUpdate:  mu: -0.244750000  nElectrons: 159.582065  magneticMoment: [ Abs: 0.00031  Tot: +0.00005 ]
	SubspaceRotationAdjust: set factor to 0.012
ElecMinimize: Iter:   1  G: -850.470467319380646  |grad|_K:  6.029e-07  alpha:  2.211e-01  linmin: -7.244e-04  t[s]:   7974.33
	Linear fluid (dielectric constant: 78.4, screening length: 8.12261 Bohr) occupying 0.507573 of unit cell:	Completed after 10 iterations at t[s]:   7986.30
	Linear fluid (dielectric constant: 78.4, screening length: 8.12261 Bohr) occupying 0.507585 of unit cell:	Completed after 10 iterations at t[s]:   7996.09
	FillingsUpdate:  mu: -0.244750000  nElectrons: 159.585272  magneticMoment: [ Abs: 0.00017  Tot: +0.00005 ]
	SubspaceRotationAdjust: set factor to 0.0126
ElecMinimize: Iter:   2  G: -850.470479001450940  |grad|_K:  2.915e-07  alpha:  4.012e-01  linmin:  2.847e-05  t[s]:   8009.61
	Linear fluid (dielectric constant: 78.4, screening length: 8.12261 Bohr) occupying 0.507599 of unit cell:	Completed after 9 iterations at t[s]:   8020.54
	Linear fluid (dielectric constant: 78.4, screening length: 8.12261 Bohr) occupying 0.507604 of unit cell:	Completed after 2 iterations at t[s]:   8030.01
	FillingsUpdate:  mu: -0.244750000  nElectrons: 159.585933  magneticMoment: [ Abs: 0.00010  Tot: +0.00005 ]
	SubspaceRotationAdjust: set factor to 0.0156
ElecMinimize: Iter:   3  G: -850.470482762694587  |grad|_K:  2.097e-07  alpha:  5.528e-01  linmin: -8.988e-04  t[s]:   8044.10
	Linear fluid (dielectric constant: 78.4, screening length: 8.12261 Bohr) occupying 0.507613 of unit cell:	Completed after 10 iterations at t[s]:   8055.33
	Linear fluid (dielectric constant: 78.4, screening length: 8.12261 Bohr) occupying 0.507614 of unit cell:	Completed after 2 iterations at t[s]:   8064.57
	FillingsUpdate:  mu: -0.244750000  nElectrons: 159.585921  magneticMoment: [ Abs: 0.00008  Tot: +0.00005 ]
	SubspaceRotationAdjust: set factor to 0.0184
ElecMinimize: Iter:   4  G: -850.470484940141887  |grad|_K:  1.850e-07  alpha:  6.174e-01  linmin: -4.940e-04  t[s]:   8079.84
	Linear fluid (dielectric constant: 78.4, screening length: 8.12261 Bohr) occupying 0.507614 of unit cell:	Completed after 9 iterations at t[s]:   8090.99
	Linear fluid (dielectric constant: 78.4, screening length: 8.12261 Bohr) occupying 0.507614 of unit cell:	Completed after 2 iterations at t[s]:   8099.48
	FillingsUpdate:  mu: -0.244750000  nElectrons: 159.586663  magneticMoment: [ Abs: 0.00009  Tot: +0.00005 ]
	SubspaceRotationAdjust: set factor to 0.0221
ElecMinimize: Iter:   5  G: -850.470486869089882  |grad|_K:  1.756e-07  alpha:  7.034e-01  linmin: -7.562e-06  t[s]:   8113.53
	Linear fluid (dielectric constant: 78.4, screening length: 8.12261 Bohr) occupying 0.507600 of unit cell:	Completed after 9 iterations at t[s]:   8125.14
	Linear fluid (dielectric constant: 78.4, screening length: 8.12261 Bohr) occupying 0.507597 of unit cell:	Completed after 2 iterations at t[s]:   8133.86
	FillingsUpdate:  mu: -0.244750000  nElectrons: 159.586950  magneticMoment: [ Abs: 0.00009  Tot: +0.00005 ]
	SubspaceRotationAdjust: set factor to 0.0248
ElecMinimize: Iter:   6  G: -850.470489008253139  |grad|_K:  1.913e-07  alpha:  8.669e-01  linmin:  3.689e-05  t[s]:   8148.13
	Linear fluid (dielectric constant: 78.4, screening length: 8.12261 Bohr) occupying 0.507563 of unit cell:	Completed after 10 iterations at t[s]:   8159.98
	Linear fluid (dielectric constant: 78.4, screening length: 8.12261 Bohr) occupying 0.507570 of unit cell:	Completed after 8 iterations at t[s]:   8168.78
	FillingsUpdate:  mu: -0.244750000  nElectrons: 159.588497  magneticMoment: [ Abs: 0.00008  Tot: +0.00005 ]
	SubspaceRotationAdjust: set factor to 0.0258
ElecMinimize: Iter:   7  G: -850.470491048254416  |grad|_K:  2.102e-07  alpha:  6.958e-01  linmin:  1.940e-04  t[s]:   8183.94
	Linear fluid (dielectric constant: 78.4, screening length: 8.12261 Bohr) occupying 0.507530 of unit cell:	Completed after 11 iterations at t[s]:   8196.02
	Linear fluid (dielectric constant: 78.4, screening length: 8.12261 Bohr) occupying 0.507538 of unit cell:	Completed after 9 iterations at t[s]:   8206.14
	FillingsUpdate:  mu: -0.244750000  nElectrons: 159.588162  magneticMoment: [ Abs: 0.00007  Tot: +0.00005 ]
	SubspaceRotationAdjust: set factor to 0.0231
ElecMinimize: Iter:   8  G: -850.470493023141557  |grad|_K:  2.324e-07  alpha:  5.601e-01  linmin:  4.085e-05  t[s]:   8219.67
	Linear fluid (dielectric constant: 78.4, screening length: 8.12261 Bohr) occupying 0.507502 of unit cell:	Completed after 11 iterations at t[s]:   8230.36
	Linear fluid (dielectric constant: 78.4, screening length: 8.12261 Bohr) occupying 0.507509 of unit cell:	Completed after 8 iterations at t[s]:   8240.52
	FillingsUpdate:  mu: -0.244750000  nElectrons: 159.590264  magneticMoment: [ Abs: 0.00007  Tot: +0.00004 ]
	SubspaceRotationAdjust: set factor to 0.0201
ElecMinimize: Iter:   9  G: -850.470494977166823  |grad|_K:  2.039e-07  alpha:  4.530e-01  linmin: -1.136e-05  t[s]:   8255.26
	Linear fluid (dielectric constant: 78.4, screening length: 8.12261 Bohr) occupying 0.507489 of unit cell:	Completed after 10 iterations at t[s]:   8266.19
	Linear fluid (dielectric constant: 78.4, screening length: 8.12261 Bohr) occupying 0.507481 of unit cell:	Completed after 8 iterations at t[s]:   8276.21
	FillingsUpdate:  mu: -0.244750000  nElectrons: 159.590220  magneticMoment: [ Abs: 0.00007  Tot: +0.00004 ]
	SubspaceRotationAdjust: set factor to 0.0217
ElecMinimize: Iter:  10  G: -850.470497029604530  |grad|_K:  1.863e-07  alpha:  6.176e-01  linmin:  1.258e-04  t[s]:   8291.53
	Linear fluid (dielectric constant: 78.4, screening length: 8.12261 Bohr) occupying 0.507465 of unit cell:	Completed after 9 iterations at t[s]:   8302.39
	Linear fluid (dielectric constant: 78.4, screening length: 8.12261 Bohr) occupying 0.507463 of unit cell:	Completed after 2 iterations at t[s]:   8310.98
	FillingsUpdate:  mu: -0.244750000  nElectrons: 159.590922  magneticMoment: [ Abs: 0.00006  Tot: +0.00004 ]
	SubspaceRotationAdjust: set factor to 0.0258
ElecMinimize: Iter:  11  G: -850.470499017576572  |grad|_K:  1.823e-07  alpha:  7.175e-01  linmin: -7.080e-05  t[s]:   8325.36
	Linear fluid (dielectric constant: 78.4, screening length: 8.12261 Bohr) occupying 0.507453 of unit cell:	Completed after 3 iterations at t[s]:   8336.23
	Linear fluid (dielectric constant: 78.4, screening length: 8.12261 Bohr) occupying 0.507453 of unit cell:	Completed after 0 iterations at t[s]:   8344.61
	FillingsUpdate:  mu: -0.244750000  nElectrons: 159.591177  magneticMoment: [ Abs: 0.00006  Tot: +0.00004 ]
	SubspaceRotationAdjust: set factor to 0.0303
ElecMinimize: Iter:  12  G: -850.470501059144681  |grad|_K:  1.920e-07  alpha:  7.666e-01  linmin: -3.993e-05  t[s]:   8359.13
	Linear fluid (dielectric constant: 78.4, screening length: 8.12261 Bohr) occupying 0.507451 of unit cell:	Completed after 9 iterations at t[s]:   8370.71
	Linear fluid (dielectric constant: 78.4, screening length: 8.12261 Bohr) occupying 0.507451 of unit cell:	Completed after 0 iterations at t[s]:   8380.24
	FillingsUpdate:  mu: -0.244750000  nElectrons: 159.590634  magneticMoment: [ Abs: 0.00007  Tot: +0.00003 ]
	SubspaceRotationAdjust: set factor to 0.034
ElecMinimize: Iter:  13  G: -850.470503468046786  |grad|_K:  2.039e-07  alpha:  8.162e-01  linmin: -1.962e-05  t[s]:   8394.34
	Linear fluid (dielectric constant: 78.4, screening length: 8.12261 Bohr) occupying 0.507462 of unit cell:	Completed after 10 iterations at t[s]:   8405.61
	Linear fluid (dielectric constant: 78.4, screening length: 8.12261 Bohr) occupying 0.507459 of unit cell:	Completed after 8 iterations at t[s]:   8415.05
	FillingsUpdate:  mu: -0.244750000  nElectrons: 159.591146  magneticMoment: [ Abs: 0.00006  Tot: +0.00003 ]
	SubspaceRotationAdjust: set factor to 0.0314
ElecMinimize: Iter:  14  G: -850.470505524718305  |grad|_K:  2.323e-07  alpha:  6.177e-01  linmin:  1.880e-05  t[s]:   8429.50
	Linear fluid (dielectric constant: 78.4, screening length: 8.12261 Bohr) occupying 0.507475 of unit cell:	Completed after 12 iterations at t[s]:   8441.40
	Linear fluid (dielectric constant: 78.4, screening length: 8.12261 Bohr) occupying 0.507466 of unit cell:	Completed after 11 iterations at t[s]:   8451.67
	FillingsUpdate:  mu: -0.244750000  nElectrons: 159.589419  magneticMoment: [ Abs: 0.00006  Tot: +0.00003 ]
	SubspaceRotationAdjust: set factor to 0.0217
ElecMinimize: Iter:  15  G: -850.470506717569265  |grad|_K:  1.912e-07  alpha:  2.755e-01  linmin: -6.780e-05  t[s]:   8465.95
	Linear fluid (dielectric constant: 78.4, screening length: 8.12261 Bohr) occupying 0.507476 of unit cell:	Completed after 9 iterations at t[s]:   8477.08
	Linear fluid (dielectric constant: 78.4, screening length: 8.12261 Bohr) occupying 0.507482 of unit cell:	Completed after 7 iterations at t[s]:   8485.86
	FillingsUpdate:  mu: -0.244750000  nElectrons: 159.589500  magneticMoment: [ Abs: 0.00005  Tot: +0.00003 ]
	SubspaceRotationAdjust: set factor to 0.0207
ElecMinimize: Iter:  16  G: -850.470507969368327  |grad|_K:  1.308e-07  alpha:  4.269e-01  linmin: -2.289e-05  t[s]:   8501.10
	Linear fluid (dielectric constant: 78.4, screening length: 8.12261 Bohr) occupying 0.507493 of unit cell:	Completed after 7 iterations at t[s]:   8512.07
	Linear fluid (dielectric constant: 78.4, screening length: 8.12261 Bohr) occupying 0.507495 of unit cell:	Completed after 2 iterations at t[s]:   8520.49
	FillingsUpdate:  mu: -0.244750000  nElectrons: 159.589375  magneticMoment: [ Abs: 0.00004  Tot: +0.00003 ]
	SubspaceRotationAdjust: set factor to 0.0212
ElecMinimize: Iter:  17  G: -850.470508673874861  |grad|_K:  9.338e-08  alpha:  5.140e-01  linmin: -1.446e-04  t[s]:   8535.54
	Linear fluid (dielectric constant: 78.4, screening length: 8.12261 Bohr) occupying 0.507505 of unit cell:	Completed after 9 iterations at t[s]:   8547.39
	Linear fluid (dielectric constant: 78.4, screening length: 8.12261 Bohr) occupying 0.507504 of unit cell:	Completed after 0 iterations at t[s]:   8556.13
	FillingsUpdate:  mu: -0.244750000  nElectrons: 159.588887  magneticMoment: [ Abs: 0.00004  Tot: +0.00002 ]
	SubspaceRotationAdjust: set factor to 0.0184
ElecMinimize: Iter:  18  G: -850.470509004646942  |grad|_K:  7.353e-08  alpha:  4.720e-01  linmin:  1.462e-03  t[s]:   8570.45
	Linear fluid (dielectric constant: 78.4, screening length: 8.12261 Bohr) occupying 0.507512 of unit cell:	Completed after 9 iterations at t[s]:   8581.66
	Linear fluid (dielectric constant: 78.4, screening length: 8.12261 Bohr) occupying 0.507510 of unit cell:	Completed after 8 iterations at t[s]:   8591.55
	FillingsUpdate:  mu: -0.244750000  nElectrons: 159.589105  magneticMoment: [ Abs: 0.00003  Tot: +0.00002 ]
	SubspaceRotationAdjust: set factor to 0.0139
ElecMinimize: Iter:  19  G: -850.470509141199500  |grad|_K:  5.085e-08  alpha:  3.292e-01  linmin: -9.475e-04  t[s]:   8605.43
	Linear fluid (dielectric constant: 78.4, screening length: 8.12261 Bohr) occupying 0.507512 of unit cell:	Completed after 2 iterations at t[s]:   8616.34
	Linear fluid (dielectric constant: 78.4, screening length: 8.12261 Bohr) occupying 0.507513 of unit cell:	Completed after 4 iterations at t[s]:   8626.27
	FillingsUpdate:  mu: -0.244750000  nElectrons: 159.588919  magneticMoment: [ Abs: 0.00003  Tot: +0.00002 ]
	SubspaceRotationAdjust: set factor to 0.0163
ElecMinimize: Iter:  20  G: -850.470509232463769  |grad|_K:  3.470e-08  alpha:  4.471e-01  linmin:  1.482e-03  t[s]:   8641.09
	Linear fluid (dielectric constant: 78.4, screening length: 8.12261 Bohr) occupying 0.507515 of unit cell:	Completed after 6 iterations at t[s]:   8651.87
	Linear fluid (dielectric constant: 78.4, screening length: 8.12261 Bohr) occupying 0.507515 of unit cell:	Completed after 0 iterations at t[s]:   8659.98
	FillingsUpdate:  mu: -0.244750000  nElectrons: 159.588800  magneticMoment: [ Abs: 0.00002  Tot: +0.00002 ]
	SubspaceRotationAdjust: set factor to 0.0165
ElecMinimize: Iter:  21  G: -850.470509271002243  |grad|_K:  2.730e-08  alpha:  4.072e-01  linmin: -3.415e-03  t[s]:   8674.82
ElecMinimize: Converged (|Delta G|<1.000000e-07 for 2 iters).
Setting wave functions to eigenvectors of Hamiltonian
Converging empty states (this may take a while): |deigs|: 7.407e-08

Computing DFT-D3 correction:
# coordination-number Pt 8.566 9.323 9.394 7.071 5.306 9.393 9.324 8.567 5.308 7.070
# diagonal-C6 Pt 336.87 336.87 336.87 336.87 336.87 336.87 336.87 336.87 336.87 336.87
EvdW_6 =   -0.074862
EvdW_8 =   -0.128468

# Ionic positions in cartesian coordinates:
ion Pt   3.703139864040712   1.818490693960808  12.574603164996477 1
ion Pt  -0.001436494816867   3.282006331675756   9.132653976983701 1
ion Pt   3.697089311247050   4.942712045742507   5.872549099790669 1
ion Pt  -0.004925714722202   6.542455031499615   2.320876898670871 1
ion Pt  -3.698164553151235   8.260025459678740  15.460586332527674 1
ion Pt   3.702100231593672   6.639159405951789  10.672443109301856 1
ion Pt   3.701129263102368   0.027240076749921   7.411697311457291 1
ion Pt  -0.003551534946372   1.490228144063536   3.969992645503678 1
ion Pt   3.698131189075654   3.321250935792236   1.085575685349044 1
ion Pt   0.004804438577221   5.038984874885096  14.224091775418730 1

# Forces in Cartesian coordinates:
force Pt   0.000005265510625   0.000313438686079   0.000283572584147 1
force Pt  -0.000018155978198   0.000138318597404  -0.000055495176692 1
force Pt   0.000006433916953   0.000166468985974   0.000231948846284 1
force Pt   0.000009760631909  -0.000067806686423   0.000041132846552 1
force Pt  -0.000010054240234   0.000064728260793   0.000336064635836 1
force Pt  -0.000008081747328  -0.000184565470695  -0.000168754786910 1
force Pt   0.000016691478795  -0.000122624690731   0.000123801359362 1
force Pt  -0.000007414132707  -0.000303518200878  -0.000248397307741 1
force Pt   0.000010904466829  -0.000053332770628  -0.000277140593986 1
force Pt  -0.000008860023358   0.000050984564941   0.000067542366177 1

# Energy components:
   A_diel =        0.1016946971756359
   Eewald =     4093.4349881562447990
       EH =     4892.7467676587002643
     Eloc =   -10030.2331659297960869
      Enl =      -10.5253571272255666
     EvdW =       -0.2033293363401749
      Exc =     -284.2758931380978993
 Exc_core =      163.9138262232914940
       KE =      285.4905777382418250
  MuShift =        0.0214864643338360
-------------------------------------
     Etot =     -889.5284045934714641
       TS =        0.0014633729482583
-------------------------------------
        F =     -889.5298679664197152
      muN =      -39.0593586954174867
-------------------------------------
        G =     -850.4705092710022427


Dumping 'jdft.fillings' ... done
Dumping 'jdft.wfns' ... done
Dumping 'jdft.fluidState' ... done
Dumping 'jdft.ionpos' ... done
Dumping 'jdft.lattice' ... done
Dumping 'jdft.eigenvals' ... done
Dumping 'jdft.eigStats' ... 
	eMin: -2.194100 at state 28 ( [ +0.444444 +0.428571 +0.000000 ] spin 1 )
	HOMO: -0.244908 at state 47 ( [ +0.222222 -0.428571 +0.000000 ] spin -1 )
	mu  : -0.244750
	LUMO: -0.244721 at state 46 ( [ +0.222222 +0.428571 +0.000000 ] spin -1 )
	eMax: +0.073768 at state 46 ( [ +0.222222 +0.428571 +0.000000 ] spin -1 )
	HOMO-LUMO gap: +0.000186
	Optical gap  : +0.001543 at state 22 ( [ +0.333333 -0.428571 +0.000000 ] spin 1 )
Dumping 'jdft.Ecomponents' ... done
IonicMinimize: Iter:   4  G: -850.470509271002243  |grad|_K:  1.559e-04  alpha:  1.000e+00  linmin: -5.333e-01  t[s]:   8707.44
IonicMinimize: Converged (|Delta G|<1.000000e-04 for 2 iters).

#--- Lowdin population analysis ---
# oxidation-state Pt -0.025 +0.011 -0.001 +0.033 +0.250 -0.001 +0.011 -0.025 +0.250 +0.033
# magnetic-moments Pt +0.000 +0.000 -0.000 +0.000 +0.000 +0.000 -0.000 +0.000 +0.000 +0.000


Dumping 'jdft.n_up' ... done
Dumping 'jdft.n_dn' ... done
Dumping 'jdft.tau_up' ... done
Dumping 'jdft.tau_dn' ... done
Dumping 'jdft.eigenvals' ... done
Dumping 'jdft.eigStats' ... 
	eMin: -2.194100 at state 28 ( [ +0.444444 +0.428571 +0.000000 ] spin 1 )
	HOMO: -0.244908 at state 47 ( [ +0.222222 -0.428571 +0.000000 ] spin -1 )
	mu  : -0.244750
	LUMO: -0.244721 at state 46 ( [ +0.222222 +0.428571 +0.000000 ] spin -1 )
	eMax: +0.073768 at state 46 ( [ +0.222222 +0.428571 +0.000000 ] spin -1 )
	HOMO-LUMO gap: +0.000186
	Optical gap  : +0.001543 at state 22 ( [ +0.333333 -0.428571 +0.000000 ] spin 1 )
Dumping 'jdft.kPts' ... done
Dumping 'jdft.kMap' ... done
Dumping 'jdft.dosUp' ... done.
Dumping 'jdft.dosDn' ... done.
End date and time: Thu Sep  8 23:55:53 2022  (Duration: 0-2:25:30.43)
Done!

PROFILER:             augmentDensityGrid     1.658403 +/-     0.128152 s,  484 calls,    802.666957 s total
PROFILER:         augmentDensityGridGrad     0.142730 +/-     0.031800 s,  250 calls,     35.682570 s total
PROFILER:        augmentDensitySpherical     0.000989 +/-     0.000067 s, 1452 calls,      1.436218 s total
PROFILER:    augmentDensitySphericalGrad     0.001049 +/-     0.000134 s,  842 calls,      0.883224 s total
PROFILER:                 augmentOverlap     0.354693 +/-     0.034508 s, 2776 calls,    984.628346 s total
PROFILER:        ColumnBundle::randomize     0.000838 +/-     0.000018 s,    3 calls,      0.002515 s total
PROFILER:                     diagouterI     1.358591 +/-     0.122194 s, 1461 calls,   1984.901316 s total
PROFILER:              EdensityAndVscloc     1.234441 +/-     0.750525 s,  485 calls,    598.703750 s total
PROFILER:                     EnlAndGrad     0.001718 +/-     0.000243 s, 1418 calls,      2.436429 s total
PROFILER:            ExCorrCommunication     0.010952 +/-     0.032885 s, 2978 calls,     32.614255 s total
PROFILER:               ExCorrFunctional     0.005141 +/-     0.000632 s,  504 calls,      2.590933 s total
PROFILER:                    ExCorrTotal     0.103236 +/-     0.076176 s,  504 calls,     52.030857 s total
PROFILER:                   Idag_DiagV_I     2.566516 +/-     0.591213 s,  824 calls,   2114.809122 s total
PROFILER:                    initWeights     2.000023 +/-     0.000000 s,    1 calls,      2.000023 s total
PROFILER:                    inv(matrix)     0.000839 +/-     0.000079 s, 1293 calls,      1.084250 s total
PROFILER:            matrix::diagonalize     0.003728 +/-     0.001411 s, 2270 calls,      8.462079 s total
PROFILER:                    matrix::set     0.000003 +/-     0.000003 s, 23192 calls,      0.071781 s total
PROFILER:            orthoMatrix(matrix)     0.000506 +/-     0.000299 s, 1373 calls,      0.694690 s total
PROFILER:     RadialFunctionR::transform     0.045011 +/-     0.187029 s,   56 calls,      2.520634 s total
PROFILER:                    reduceKmesh     0.000438 +/-     0.000000 s,    1 calls,      0.000438 s total
PROFILER:   VanDerWaalsD3::energyAndGrad     0.005785 +/-     0.000246 s,   13 calls,      0.075205 s total
PROFILER:               WavefunctionDrag     4.888799 +/-     0.804477 s,    6 calls,     29.332791 s total
PROFILER:                            Y*M     0.089917 +/-     0.031759 s, 9280 calls,    834.430122 s total
PROFILER:                          Y1^Y2     0.103695 +/-     0.037155 s, 5871 calls,    608.795314 s total

MEMUSAGE:                   ColumnBundle     0.276269 GB
MEMUSAGE:        complexScalarFieldTilde     0.011444 GB
MEMUSAGE:                    IndexArrays     0.012375 GB
MEMUSAGE:                         matrix     0.013322 GB
MEMUSAGE:                           misc     0.007694 GB
MEMUSAGE:                    ScalarField     0.055313 GB
MEMUSAGE:               ScalarFieldTilde     0.040455 GB
MEMUSAGE:                          Total     0.333548 GB
