
*************** JDFTx 1.6.0  ***************

Start date and time: Mon Dec  6 17:16:51 2021
Executable /projects/musgravc/apps/jdftx-1.6.1/build/jdftx with command-line: -i in
Running on hosts (process indices):  shas0822.rc.int.colorado.edu (0-23)
Divided in process groups (process indices):  0 (0)  1 (1)  2 (2)  3 (3)  4 (4)  5 (5)  6 (6)  7 (7)  8 (8)  9 (9)  10 (10)  11 (11)  12 (12)  13 (13)  14 (14)  15 (15)  16 (16)  17 (17)  18 (18)  19 (19)  20 (20)  21 (21)  22 (22)  23 (23)
Resource initialization completed at t[s]:      0.00
Run totals: 24 processes, 24 threads, 0 GPUs


Input parsed successfully to the following command list (including defaults):

basis kpoint-dependent
converge-empty-states yes
coords-type Cartesian
core-overlap-check none
coulomb-interaction Periodic
davidson-band-ratio 1.1
density-of-states Etol 1.000000e-06 Esigma 1.000000e-03 \
		Complete \
	Total \
	OrthoOrbital Ag 1   s \
	OrthoOrbital Ag 1   p \
	OrthoOrbital Ag 1   px \
	OrthoOrbital Ag 1   py \
	OrthoOrbital Ag 1   pz \
	OrthoOrbital Ag 1   d \
	OrthoOrbital Ag 1   dxy \
	OrthoOrbital Ag 1   dyz \
	OrthoOrbital Ag 1   dz2 \
	OrthoOrbital Ag 1   dxz \
	OrthoOrbital Ag 1   dx2-y2 \
	OrthoOrbital Ag 2   s \
	OrthoOrbital Ag 2   p \
	OrthoOrbital Ag 2   px \
	OrthoOrbital Ag 2   py \
	OrthoOrbital Ag 2   pz \
	OrthoOrbital Ag 2   d \
	OrthoOrbital Ag 2   dxy \
	OrthoOrbital Ag 2   dyz \
	OrthoOrbital Ag 2   dz2 \
	OrthoOrbital Ag 2   dxz \
	OrthoOrbital Ag 2   dx2-y2 \
	OrthoOrbital Ag 3   s \
	OrthoOrbital Ag 3   p \
	OrthoOrbital Ag 3   px \
	OrthoOrbital Ag 3   py \
	OrthoOrbital Ag 3   pz \
	OrthoOrbital Ag 3   d \
	OrthoOrbital Ag 3   dxy \
	OrthoOrbital Ag 3   dyz \
	OrthoOrbital Ag 3   dz2 \
	OrthoOrbital Ag 3   dxz \
	OrthoOrbital Ag 3   dx2-y2 \
	OrthoOrbital Ag 4   s \
	OrthoOrbital Ag 4   p \
	OrthoOrbital Ag 4   px \
	OrthoOrbital Ag 4   py \
	OrthoOrbital Ag 4   pz \
	OrthoOrbital Ag 4   d \
	OrthoOrbital Ag 4   dxy \
	OrthoOrbital Ag 4   dyz \
	OrthoOrbital Ag 4   dz2 \
	OrthoOrbital Ag 4   dxz \
	OrthoOrbital Ag 4   dx2-y2 \
	OrthoOrbital Ag 5   s \
	OrthoOrbital Ag 5   p \
	OrthoOrbital Ag 5   px \
	OrthoOrbital Ag 5   py \
	OrthoOrbital Ag 5   pz \
	OrthoOrbital Ag 5   d \
	OrthoOrbital Ag 5   dxy \
	OrthoOrbital Ag 5   dyz \
	OrthoOrbital Ag 5   dz2 \
	OrthoOrbital Ag 5   dxz \
	OrthoOrbital Ag 5   dx2-y2 \
	OrthoOrbital Ag 6   s \
	OrthoOrbital Ag 6   p \
	OrthoOrbital Ag 6   px \
	OrthoOrbital Ag 6   py \
	OrthoOrbital Ag 6   pz \
	OrthoOrbital Ag 6   d \
	OrthoOrbital Ag 6   dxy \
	OrthoOrbital Ag 6   dyz \
	OrthoOrbital Ag 6   dz2 \
	OrthoOrbital Ag 6   dxz \
	OrthoOrbital Ag 6   dx2-y2 \
	OrthoOrbital Ag 7   s \
	OrthoOrbital Ag 7   p \
	OrthoOrbital Ag 7   px \
	OrthoOrbital Ag 7   py \
	OrthoOrbital Ag 7   pz \
	OrthoOrbital Ag 7   d \
	OrthoOrbital Ag 7   dxy \
	OrthoOrbital Ag 7   dyz \
	OrthoOrbital Ag 7   dz2 \
	OrthoOrbital Ag 7   dxz \
	OrthoOrbital Ag 7   dx2-y2 \
	OrthoOrbital Ag 8   s \
	OrthoOrbital Ag 8   p \
	OrthoOrbital Ag 8   px \
	OrthoOrbital Ag 8   py \
	OrthoOrbital Ag 8   pz \
	OrthoOrbital Ag 8   d \
	OrthoOrbital Ag 8   dxy \
	OrthoOrbital Ag 8   dyz \
	OrthoOrbital Ag 8   dz2 \
	OrthoOrbital Ag 8   dxz \
	OrthoOrbital Ag 8   dx2-y2 \
	OrthoOrbital Ag 9   s \
	OrthoOrbital Ag 9   p \
	OrthoOrbital Ag 9   px \
	OrthoOrbital Ag 9   py \
	OrthoOrbital Ag 9   pz \
	OrthoOrbital Ag 9   d \
	OrthoOrbital Ag 9   dxy \
	OrthoOrbital Ag 9   dyz \
	OrthoOrbital Ag 9   dz2 \
	OrthoOrbital Ag 9   dxz \
	OrthoOrbital Ag 9   dx2-y2 \
	OrthoOrbital Ag 10   s \
	OrthoOrbital Ag 10   p \
	OrthoOrbital Ag 10   px \
	OrthoOrbital Ag 10   py \
	OrthoOrbital Ag 10   pz \
	OrthoOrbital Ag 10   d \
	OrthoOrbital Ag 10   dxy \
	OrthoOrbital Ag 10   dyz \
	OrthoOrbital Ag 10   dz2 \
	OrthoOrbital Ag 10   dxz \
	OrthoOrbital Ag 10   dx2-y2 \
	OrthoOrbital Ag 11   s \
	OrthoOrbital Ag 11   p \
	OrthoOrbital Ag 11   px \
	OrthoOrbital Ag 11   py \
	OrthoOrbital Ag 11   pz \
	OrthoOrbital Ag 11   d \
	OrthoOrbital Ag 11   dxy \
	OrthoOrbital Ag 11   dyz \
	OrthoOrbital Ag 11   dz2 \
	OrthoOrbital Ag 11   dxz \
	OrthoOrbital Ag 11   dx2-y2
dump End ElecDensity KEdensity BandEigs EigStats RhoAtom DOS Kpoints
dump Ionic State IonicPositions Lattice EigStats Ecomponents
dump 
dump 
dump 
dump 
dump 
dump 
dump 
dump 
dump-name jdft.$VAR
elec-cutoff 20
elec-eigen-algo Davidson
elec-ex-corr gga-PBE
elec-initial-magnetization 0.000000 no
elec-n-bands 126
elec-smearing Fermi 0.001
electronic-minimize  \
	dirUpdateScheme      FletcherReeves \
	linminMethod         DirUpdateRecommended \
	nIterations          100 \
	history              15 \
	knormThreshold       0 \
	energyDiffThreshold  1e-07 \
	nEnergyDiff          2 \
	alphaTstart          1 \
	alphaTmin            1e-10 \
	updateTestStepSize   yes \
	alphaTreduceFactor   0.1 \
	alphaTincreaseFactor 3 \
	nAlphaAdjustMax      3 \
	wolfeEnergy          0.0001 \
	wolfeGradient        0.9 \
	fdTest               no
exchange-regularization WignerSeitzTruncated
fluid LinearPCM 298.000000 1.013250
fluid-anion F- 0.5 MeanFieldLJ \
	epsBulk 1 \
	pMol 0 \
	epsInf 1 \
	Pvap 0 \
	sigmaBulk 0 \
	Rvdw 2.24877 \
	Res 0 \
	tauNuc 343133
fluid-cation Na+ 0.5 MeanFieldLJ \
	epsBulk 1 \
	pMol 0 \
	epsInf 1 \
	Pvap 0 \
	sigmaBulk 0 \
	Rvdw 2.19208 \
	Res 0 \
	tauNuc 343133
fluid-ex-corr lda-TF lda-PZ
fluid-gummel-loop 10 1.000000e-05
fluid-minimize  \
	dirUpdateScheme      PolakRibiere \
	linminMethod         DirUpdateRecommended \
	nIterations          400 \
	history              15 \
	knormThreshold       1e-11 \
	energyDiffThreshold  0 \
	nEnergyDiff          2 \
	alphaTstart          1 \
	alphaTmin            1e-10 \
	updateTestStepSize   yes \
	alphaTreduceFactor   0.1 \
	alphaTincreaseFactor 3 \
	nAlphaAdjustMax      6 \
	wolfeEnergy          0.0001 \
	wolfeGradient        0.9 \
	fdTest               no
fluid-solvent H2O 55.338 ScalarEOS \
	epsBulk 78.4 \
	pMol 0.92466 \
	epsInf 1.77 \
	Pvap 1.06736e-10 \
	sigmaBulk 4.62e-05 \
	Rvdw 2.61727 \
	Res 1.42 \
	tauNuc 343133 \
	poleEl 15 7 1
forces-output-coords Positions
ion Ag   0.000000000000000   0.000000000000000  24.268516999999999 1
ion Ag  -0.000002000000000   4.902982000000000   1.155680000000000 1
ion Ag   2.710226000000000   0.817162000000000   3.466964000000000 1
ion Ag   2.710224000000000   5.720144000000000   5.778247000000000 1
ion Ag   0.000000000000000   1.634324000000000   8.089530999999999 1
ion Ag  -0.000002000000000   6.537306000000000  10.400814999999998 1
ion Ag   2.710226000000000   2.451486000000000  12.712097999999997 1
ion Ag   2.710224000000001   7.354468000000001  15.023381999999998 1
ion Ag   0.000000000000000   3.268648000000000  17.334665999999999 1
ion Ag  -0.000002000000000   8.171630000000000  19.645949000000002 1
ion Ag   2.710227000000000   4.085811000000000  21.957232999999999 1
ion-species /projects/musgravc/apps/jdftx-1.6.0/build/pseudopotentials/GBRV_v1.5/$ID_pbe_v1.uspp
ion-species /projects/musgravc/apps/jdftx-1.6.0/build/pseudopotentials/GBRV_v1.5/$ID_pbe_v1.2.uspp
ion-species /projects/musgravc/apps/jdftx-1.6.0/build/pseudopotentials/GBRV_v1.5/$ID_pbe_v1.4.uspp
ion-species /projects/musgravc/apps/jdftx-1.6.0/build/pseudopotentials/GBRV_v1.5/$ID_pbe_v1.5.uspp
ion-width Ecut
ionic-minimize  \
	dirUpdateScheme      L-BFGS \
	linminMethod         DirUpdateRecommended \
	nIterations          100 \
	history              15 \
	knormThreshold       0.0001 \
	energyDiffThreshold  1e-06 \
	nEnergyDiff          2 \
	alphaTstart          1 \
	alphaTmin            1e-10 \
	updateTestStepSize   yes \
	alphaTreduceFactor   0.1 \
	alphaTincreaseFactor 3 \
	nAlphaAdjustMax      3 \
	wolfeEnergy          0.0001 \
	wolfeGradient        0.9 \
	fdTest               no
kpoint   0.000000000000   0.000000000000   0.000000000000  1.00000000000000
kpoint-folding 13 7 1 
latt-move-scale 0 0 0
latt-scale 1 1 1 
lattice  \
	   5.420447000000000   -2.710223000000000    0.000000000000000  \
	   0.000000000000000    8.988792000000000    0.000000000000000  \
	   0.000000000000000    0.000000000000000   76.272437999999994 
lattice-minimize  \
	dirUpdateScheme      L-BFGS \
	linminMethod         DirUpdateRecommended \
	nIterations          0 \
	history              15 \
	knormThreshold       0 \
	energyDiffThreshold  1e-06 \
	nEnergyDiff          2 \
	alphaTstart          1 \
	alphaTmin            1e-10 \
	updateTestStepSize   yes \
	alphaTreduceFactor   0.1 \
	alphaTincreaseFactor 3 \
	nAlphaAdjustMax      3 \
	wolfeEnergy          0.0001 \
	wolfeGradient        0.9 \
	fdTest               no
lcao-params 30 1e-06 0.001
pcm-variant CANDLE
spintype z-spin
subspace-rotation-factor 1 yes
symmetries none
symmetry-threshold 0.0001
target-mu -0.0978 no

van-der-waals D3


Applied RMS atom displacement 0 bohrs to make symmetries exact.

---------- Initializing the Grid ----------
R = 
[      5.42045     -2.71022            0  ]
[            0      8.98879            0  ]
[            0            0      76.2724  ]
unit cell volume = 3716.24
G =
[    1.15916   0.349501         -0  ]
[          0   0.699002          0  ]
[          0         -0  0.0823782  ]
Minimum fftbox size, Smin = [  24  40  308  ]
Chosen fftbox size, S = [  24  40  320  ]

---------- Exchange Correlation functional ----------
Initalized PBE GGA exchange.
Initalized PBE GGA correlation.

---------- Setting up pseudopotentials ----------
Width of ionic core gaussian charges (only for fluid interactions / plotting) set to 0.397384

Reading pseudopotential file '/projects/musgravc/apps/jdftx-1.6.0/build/pseudopotentials/GBRV_v1.5/ag_pbe_v1.4.uspp':
  Title: Ag.  Created by USPP 7.3.6 on 1-4-15
  Reference state energy: -147.606242.  19 valence electrons in orbitals:
    |400>  occupation: 2  eigenvalue: -3.637437
    |410>  occupation: 6  eigenvalue: -2.297267
    |420>  occupation: 10  eigenvalue: -0.417763
    |500>  occupation: 0.5  eigenvalue: -0.283525
    |510>  occupation: 0  eigenvalue: -0.122889
  lMax: 2  lLocal: 0  QijEcut: 5.5
  6 projectors sampled on a log grid with 717 points:
    l: 0  eig: -0.283528  rCut: 1.5
    l: 0  eig: -3.637440  rCut: 1.5
    l: 1  eig: -0.122892  rCut: 1.5
    l: 1  eig: -2.297267  rCut: 1.5
    l: 2  eig: -0.417762  rCut: 1.7
    l: 2  eig: -1.000000  rCut: 1.7
  Partial core density with radius 1.2
  Transforming core density to a uniform radial grid of dG=0.02 with 1326 points.
  Transforming local potential to a uniform radial grid of dG=0.02 with 1326 points.
  Transforming nonlocal projectors to a uniform radial grid of dG=0.02 with 432 points.
  Transforming density augmentations to a uniform radial grid of dG=0.02 with 1326 points.
  Transforming atomic orbitals to a uniform radial grid of dG=0.02 with 432 points.
  Core radius for overlap checks: 1.70 bohrs.

Initialized 1 species with 11 total atoms.

Folded 1 k-points by 13x7x1 to 91 k-points.

---------- Setting up k-points, bands, fillings ----------
No reducable k-points. 
Computing the number of bands and number of electrons
Calculating initial fillings.
nElectrons: 209.000000   nBands: 126   nStates: 182

----- Setting up reduced wavefunction bases (one per k-point) -----
average nbasis = 15874.978 , ideal nbasis = 15876.072

----- Initializing Supercell corresponding to k-point mesh -----
Lattice vector linear combinations in supercell:
[  13   0   0  ]
[   0   7   0  ]
[   0   0   1  ]
Supercell lattice vectors:
[  70.4658  -18.9716  0  ]
[  0  62.9215  0  ]
[  0  0  76.2724  ]

Initializing DFT-D3 calculator:
	Parameters set for gga-PBE functional
	s6:  1.000  s_r6:  1.217
	s8:  0.722  s_r8:  1.000
	Per-atom parameters loaded for:
	Ag:  sqrtQ[a0]:  5.443  Rcov[a0]:  2.173  CN: [ 0.00 0.97 ]

Initializing DFT-D2 calculator for fluid / solvation:
	Ag:  C6:  427.91 Eh-a0^6  R0: 3.097 a0

---------- Setting up ewald sum ----------
Optimum gaussian width for ewald sums = 4.143614 bohr.
Real space sum over 1235 unit cells with max indices [  9  6  2  ]
Reciprocal space sum over 4543 terms with max indices [  3  5  29  ]

Computing DFT-D3 correction:
# coordination-number Ag 5.364 5.364 7.664 9.176 9.205 9.210 9.210 9.210 9.205 9.176 7.664
# diagonal-C6 Ag 268.61 268.61 268.61 268.61 268.61 268.61 268.61 268.61 268.61 268.61 268.61
EvdW_6 =   -0.070449
EvdW_8 =   -0.095628

---------- Allocating electronic variables ----------
Initializing wave functions:  linear combination of atomic orbitals
Ag pseudo-atom occupations:   s ( 2 1 )  p ( 6 0 )  d ( 10 )
	FillingsUpdate:  mu: -0.097800000  nElectrons: 209.000000  magneticMoment: [ Abs: 0.00065  Tot: +0.00005 ]
LCAOMinimize: Iter:   0  G: -1603.0689575281542147  |grad|_K:  7.046e-04  alpha:  1.000e+00
	FillingsUpdate:  mu: -0.097800000  nElectrons: 209.000000  magneticMoment: [ Abs: 0.00054  Tot: +0.00001 ]
LCAOMinimize: Iter:   1  G: -1603.0877564297379649  |grad|_K:  8.578e-04  alpha:  1.343e-01  linmin:  8.351e-02  cgtest: -6.796e-01  t[s]:    101.39
LCAOMinimize: 	Bad step direction: g.d > 0.
LCAOMinimize: 	Undoing step.
LCAOMinimize: 	Step failed: resetting search direction.
	FillingsUpdate:  mu: -0.097800000  nElectrons: 209.000000  magneticMoment: [ Abs: 0.00054  Tot: +0.00001 ]
LCAOMinimize: Iter:   2  G: -1603.0877564297379649  |grad|_K:  8.578e-04  alpha:  0.000e+00
	FillingsUpdate:  mu: -0.097800000  nElectrons: 209.000000  magneticMoment: [ Abs: 0.00054  Tot: -0.00003 ]
LCAOMinimize: Iter:   3  G: -1603.1735505868373366  |grad|_K:  2.278e-04  alpha:  5.964e-02  linmin: -8.446e-03  cgtest:  8.140e-02  t[s]:    171.56
LCAOMinimize: 	Predicted alpha/alphaT>3.000000, increasing alphaT to 1.789183e-01.
	FillingsUpdate:  mu: -0.097800000  nElectrons: 209.000000  magneticMoment: [ Abs: 0.00040  Tot: -0.00000 ]
LCAOMinimize: Iter:   4  G: -1603.2205537300862943  |grad|_K:  1.267e-04  alpha:  4.506e-01  linmin: -2.093e-02  cgtest:  1.483e-01  t[s]:    222.30
	FillingsUpdate:  mu: -0.097800000  nElectrons: 209.000000  magneticMoment: [ Abs: 0.00040  Tot: -0.00000 ]
LCAOMinimize: Iter:   5  G: -1603.2215632813429238  |grad|_K:  4.645e-05  alpha:  3.062e-02  linmin: -5.102e-04  cgtest: -2.187e-01  t[s]:    262.44
LCAOMinimize: 	Predicted alpha/alphaT>3.000000, increasing alphaT to 9.187399e-02.
	FillingsUpdate:  mu: -0.097800000  nElectrons: 209.000000  magneticMoment: [ Abs: 0.00039  Tot: -0.00002 ]
LCAOMinimize: Iter:   6  G: -1603.2221965314015506  |grad|_K:  4.863e-05  alpha:  1.595e-01  linmin:  7.770e-03  cgtest:  6.457e-02  t[s]:    313.06
	FillingsUpdate:  mu: -0.097800000  nElectrons: 209.000000  magneticMoment: [ Abs: 0.00039  Tot: -0.00002 ]
LCAOMinimize: Iter:   7  G: -1603.2225802535585899  |grad|_K:  4.427e-05  alpha:  9.065e-02  linmin:  3.045e-03  cgtest:  7.579e-02  t[s]:    353.19
	FillingsUpdate:  mu: -0.097800000  nElectrons: 209.000000  magneticMoment: [ Abs: 0.00038  Tot: -0.00002 ]
LCAOMinimize: Iter:   8  G: -1603.2227088850249856  |grad|_K:  1.151e-05  alpha:  3.503e-02  linmin:  1.111e-02  cgtest: -8.668e-03  t[s]:    393.39
LCAOMinimize: 	Predicted alpha/alphaT>3.000000, increasing alphaT to 1.050867e-01.
	FillingsUpdate:  mu: -0.097800000  nElectrons: 209.000000  magneticMoment: [ Abs: 0.00038  Tot: -0.00002 ]
LCAOMinimize: Iter:   9  G: -1603.2227524026159244  |grad|_K:  5.486e-06  alpha:  1.677e-01  linmin: -3.542e-02  cgtest:  4.181e-01  t[s]:    443.64
	FillingsUpdate:  mu: -0.097800000  nElectrons: 209.000000  magneticMoment: [ Abs: 0.00038  Tot: -0.00002 ]
LCAOMinimize: Iter:  10  G: -1603.2227542010948582  |grad|_K:  2.932e-06  alpha:  3.372e-02  linmin: -4.894e-03  cgtest: -4.236e-03  t[s]:    483.71
	FillingsUpdate:  mu: -0.097800000  nElectrons: 209.000000  magneticMoment: [ Abs: 0.00038  Tot: -0.00002 ]
LCAOMinimize: Iter:  11  G: -1603.2227554717048861  |grad|_K:  1.971e-06  alpha:  6.096e-02  linmin: -1.341e-01  cgtest:  8.541e-01  t[s]:    523.88
LCAOMinimize: Encountered beta<0, resetting CG.
	FillingsUpdate:  mu: -0.097800000  nElectrons: 209.000000  magneticMoment: [ Abs: 0.00038  Tot: -0.00002 ]
LCAOMinimize: Iter:  12  G: -1603.2227560898286356  |grad|_K:  2.292e-06  alpha:  7.998e-02  linmin: -2.184e-02  cgtest:  1.957e-01  t[s]:    564.01
	FillingsUpdate:  mu: -0.097800000  nElectrons: 209.000000  magneticMoment: [ Abs: 0.00038  Tot: -0.00002 ]
LCAOMinimize: Iter:  13  G: -1603.2227571714520309  |grad|_K:  1.870e-06  alpha:  9.057e-02  linmin: -1.138e-02  cgtest: -3.591e-01  t[s]:    604.10
	FillingsUpdate:  mu: -0.097800000  nElectrons: 209.000000  magneticMoment: [ Abs: 0.00038  Tot: -0.00002 ]
LCAOMinimize: Iter:  14  G: -1603.2227580012972794  |grad|_K:  1.625e-06  alpha:  1.104e-01  linmin:  1.893e-02  cgtest: -5.075e-01  t[s]:    644.60
	FillingsUpdate:  mu: -0.097800000  nElectrons: 209.000000  magneticMoment: [ Abs: 0.00038  Tot: -0.00002 ]
LCAOMinimize: Iter:  15  G: -1603.2227583432409119  |grad|_K:  1.362e-06  alpha:  6.896e-02  linmin:  4.340e-02  cgtest:  3.252e-01  t[s]:    684.76
LCAOMinimize: Converged (|Delta G|<1.000000e-06 for 2 iters).
----- createFluidSolver() ----- (Fluid-side solver setup)
   Initializing fluid molecule 'H2O'
     Initializing site 'O'
       Electron density: proportional to exp(-r/0.36935)*erfc((r-0.51523)/0.36823) with norm 6.826
       Charge density: gaussian nuclear width 0.478731 with net site charge 0.826
       Polarizability: cuspless exponential with width 0.32 and norm 3.73
       Hard sphere radius: 2.57003 bohrs
       Positions in reference frame:
         [ +0.000000 +0.000000 +0.000000 ]
     Initializing site 'H'
       Electron density: proportional to exp(-r/0.34641)*erfc((r-0)/0.390882) with norm 0.587
       Charge density: gaussian nuclear width 0.377945 with net site charge -0.413
       Polarizability: cuspless exponential with width 0.39 and norm 3.3
       Positions in reference frame:
         [ +0.000000 -1.441945 +1.122523 ]
         [ +0.000000 +1.441945 +1.122523 ]
     Net charge: 0   dipole magnitude: 0.927204
     Initializing spherical shell mfKernel with radius 2.61727 Bohr
     deltaS corrections:
       site 'O': -7.54299
       site 'H': -6.83917
   Initializing fluid molecule 'Na+'
     Initializing site 'Na'
       Electron density: proportional to exp(-r/0.19682)*erfc((r-0.71491)/0.41314) with norm 8.1383
       Charge density: gaussian nuclear width 0.365347 with net site charge -1
       Hard sphere radius: 1.86327 bohrs
       Positions in reference frame:
         [ +0.000000 +0.000000 +0.000000 ]
     Net charge: -1   dipole magnitude: 0
     Initializing gaussian mfKernel with width: 1.55004 Bohr
     deltaS corrections:
       site 'Na': -22.3555
   Initializing fluid molecule 'F-'
     Initializing site 'F'
       Electron density: proportional to exp(-r/0.38886)*erfc((r-0)/0.438782) with norm 8
       Charge density: gaussian nuclear width 0.374796 with net site charge 1
       Hard sphere radius: 2.39995 bohrs
       Positions in reference frame:
         [ +0.000000 +0.000000 +0.000000 ]
     Net charge: 1   dipole magnitude: 0
     Initializing gaussian mfKernel with width: 1.59012 Bohr
     deltaS corrections:
       site 'F': -9.04335

Correction to mu due to finite nuclear width = -0.055801
   Cavity determined by nc: 0.00142 and sigma: 0.707107
   Nonlocal vdW cavity from gaussian model electron density with norm = 8 and sigma = 0.993594 bohr
   Charge asymmetry in cavity with sensitivity pCavity = 36.5 e-bohr/Eh
   Electrostatic cavity expanded by eta = 1.46 bohrs
   Weighted density cavitation model constrained by Nbulk: 0.0049383 bohr^-3, Pvap: 3.14029 kPa, Rvdw: 2.61727 bohr and sigmaBulk: 4.62e-05 Eh/bohr^2 at T: 298 K.
   Weighted density dispersion model using vdW pair potentials with single solvent site with sqrtC6eff: 0.77 SI.


---- Citations for features of the code used in this run ----

   Software package:
      R. Sundararaman, K. Letchworth-Weaver, K.A. Schwarz, D. Gunceler, Y. Ozhabes and T.A. Arias, 'JDFTx: software for joint density-functional theory', SoftwareX 6, 278 (2017)

   gga-PBE exchange-correlation functional:
      J.P. Perdew, K. Burke and M. Ernzerhof, Phys. Rev. Lett. 77, 3865 (1996)

   Pseudopotentials:
      KF Garrity, JW Bennett, KM Rabe and D Vanderbilt, Comput. Mater. Sci. 81, 446 (2014)

   DFT-D3 dispersion correction:
      S. Grimme, J. Antony, S. Ehrlich and H. Krieg, J. Chem. Phys. 132, 154104 (2010)

   DFT-D2 dispersion correction:
      S. Grimme, J. Comput. Chem. 27, 1787 (2006)

   Charge-asymmetric nonlocally-determined local-electric (CANDLE) solvation model:
      R. Sundararaman and W.A. Goddard III, J. Chem. Phys. 142, 064107 (2015)

   Total energy minimization with Auxiliary Hamiltonian:
      C. Freysoldt, S. Boeck, and J. Neugebauer, Phys. Rev. B 79, 241103(R) (2009)

   Grand-canonical (fixed-potential) DFT:
      R. Sundararaman, W. A. Goddard III and T. A. Arias, J. Chem. Phys. 146, 114104 (2017)

   Linear-tetrahedron sampling for density of states:
      G. Lehmann and M. Taut, Phys. status solidi (b) 54, 469 (1972)

This list may not be complete. Please suggest additional citations or
report any other bugs at https://github.com/shankar1729/jdftx/issues

Initialization completed successfully at t[s]:    692.59


Computing DFT-D3 correction:
# coordination-number Ag 5.364 5.364 7.664 9.176 9.205 9.210 9.210 9.210 9.205 9.176 7.664
# diagonal-C6 Ag 268.61 268.61 268.61 268.61 268.61 268.61 268.61 268.61 268.61 268.61 268.61
EvdW_6 =   -0.070449
EvdW_8 =   -0.095628
Fluid solver invoked on fresh (random / LCAO) wavefunctions
Running a vacuum solve first:

-------- Initial electronic minimization -----------
	FillingsUpdate:  mu: +0.111167536  nElectrons: 209.000000  magneticMoment: [ Abs: 0.00038  Tot: -0.00002 ]
ElecMinimize: Iter:   0  G: -1603.222818703218991  |grad|_K:  1.709e-05  alpha:  1.000e+00
	FillingsUpdate:  mu: +0.117924277  nElectrons: 209.000000  magneticMoment: [ Abs: 0.00029  Tot: -0.00002 ]
	SubspaceRotationAdjust: set factor to 1
ElecMinimize: Iter:   1  G: -1603.268898747941194  |grad|_K:  1.173e-05  alpha:  4.329e-01  linmin:  2.782e-05  t[s]:    778.77
	FillingsUpdate:  mu: +0.104469683  nElectrons: 209.000000  magneticMoment: [ Abs: 0.00022  Tot: -0.00003 ]
	SubspaceRotationAdjust: set factor to 0.912
ElecMinimize: Iter:   2  G: -1603.282716466233069  |grad|_K:  6.717e-06  alpha:  2.743e-01  linmin: -1.256e-05  t[s]:    831.08
	FillingsUpdate:  mu: +0.113623183  nElectrons: 209.000000  magneticMoment: [ Abs: 0.00020  Tot: -0.00003 ]
	SubspaceRotationAdjust: set factor to 0.652
ElecMinimize: Iter:   3  G: -1603.284014074635024  |grad|_K:  7.817e-06  alpha:  7.879e-02  linmin:  1.025e-05  t[s]:    883.42
	FillingsUpdate:  mu: +0.129064801  nElectrons: 209.000000  magneticMoment: [ Abs: 0.00016  Tot: -0.00002 ]
	SubspaceRotationAdjust: set factor to 0.437
ElecMinimize: Iter:   4  G: -1603.286211375551829  |grad|_K:  5.615e-06  alpha:  9.854e-02  linmin: -6.371e-06  t[s]:    936.00
	FillingsUpdate:  mu: +0.114385989  nElectrons: 209.000000  magneticMoment: [ Abs: 0.00013  Tot: -0.00003 ]
	SubspaceRotationAdjust: set factor to 0.526
ElecMinimize: Iter:   5  G: -1603.287849280374758  |grad|_K:  2.644e-06  alpha:  1.421e-01  linmin:  1.799e-05  t[s]:    988.36
	FillingsUpdate:  mu: +0.110407139  nElectrons: 209.000000  magneticMoment: [ Abs: 0.00011  Tot: -0.00003 ]
	SubspaceRotationAdjust: set factor to 0.334
ElecMinimize: Iter:   6  G: -1603.288358901397714  |grad|_K:  3.541e-06  alpha:  1.998e-01  linmin:  8.791e-06  t[s]:   1040.66
	FillingsUpdate:  mu: +0.111816369  nElectrons: 209.000000  magneticMoment: [ Abs: 0.00009  Tot: -0.00003 ]
	SubspaceRotationAdjust: set factor to 0.332
ElecMinimize: Iter:   7  G: -1603.288894467209730  |grad|_K:  1.633e-06  alpha:  1.168e-01  linmin: -4.163e-06  t[s]:   1093.68
	FillingsUpdate:  mu: +0.119114204  nElectrons: 209.000000  magneticMoment: [ Abs: 0.00007  Tot: -0.00003 ]
	SubspaceRotationAdjust: set factor to 0.273
ElecMinimize: Iter:   8  G: -1603.289175228676640  |grad|_K:  1.255e-06  alpha:  2.876e-01  linmin: -3.078e-05  t[s]:   1146.05
	FillingsUpdate:  mu: +0.116893649  nElectrons: 209.000000  magneticMoment: [ Abs: 0.00006  Tot: -0.00003 ]
	SubspaceRotationAdjust: set factor to 0.252
ElecMinimize: Iter:   9  G: -1603.289324613466079  |grad|_K:  1.010e-06  alpha:  2.586e-01  linmin:  1.375e-05  t[s]:   1198.42
	FillingsUpdate:  mu: +0.115272402  nElectrons: 209.000000  magneticMoment: [ Abs: 0.00005  Tot: -0.00003 ]
	SubspaceRotationAdjust: set factor to 0.171
ElecMinimize: Iter:  10  G: -1603.289384974971426  |grad|_K:  6.698e-07  alpha:  1.619e-01  linmin: -2.806e-06  t[s]:   1251.21
	FillingsUpdate:  mu: +0.115619129  nElectrons: 209.000000  magneticMoment: [ Abs: 0.00005  Tot: -0.00003 ]
	SubspaceRotationAdjust: set factor to 0.235
ElecMinimize: Iter:  11  G: -1603.289443403480846  |grad|_K:  5.146e-07  alpha:  3.570e-01  linmin:  3.229e-05  t[s]:   1303.51
	FillingsUpdate:  mu: +0.116809328  nElectrons: 209.000000  magneticMoment: [ Abs: 0.00004  Tot: -0.00002 ]
	SubspaceRotationAdjust: set factor to 0.212
ElecMinimize: Iter:  12  G: -1603.289470864845271  |grad|_K:  3.896e-07  alpha:  2.849e-01  linmin:  1.361e-06  t[s]:   1355.99
	FillingsUpdate:  mu: +0.117103883  nElectrons: 209.000000  magneticMoment: [ Abs: 0.00004  Tot: -0.00002 ]
	SubspaceRotationAdjust: set factor to 0.169
ElecMinimize: Iter:  13  G: -1603.289484269700552  |grad|_K:  3.190e-07  alpha:  2.416e-01  linmin:  1.997e-06  t[s]:   1408.69
	FillingsUpdate:  mu: +0.116713363  nElectrons: 209.000000  magneticMoment: [ Abs: 0.00004  Tot: -0.00002 ]
	SubspaceRotationAdjust: set factor to 0.205
ElecMinimize: Iter:  14  G: -1603.289496061817545  |grad|_K:  2.099e-07  alpha:  3.176e-01  linmin:  1.394e-05  t[s]:   1460.87
	FillingsUpdate:  mu: +0.116716590  nElectrons: 209.000000  magneticMoment: [ Abs: 0.00003  Tot: -0.00002 ]
	SubspaceRotationAdjust: set factor to 0.218
ElecMinimize: Iter:  15  G: -1603.289502942062427  |grad|_K:  2.030e-07  alpha:  4.295e-01  linmin:  7.882e-06  t[s]:   1513.09
	FillingsUpdate:  mu: +0.116937816  nElectrons: 209.000000  magneticMoment: [ Abs: 0.00003  Tot: -0.00001 ]
	SubspaceRotationAdjust: set factor to 0.177
ElecMinimize: Iter:  16  G: -1603.289506571999709  |grad|_K:  1.578e-07  alpha:  2.415e-01  linmin: -8.868e-07  t[s]:   1565.28
	FillingsUpdate:  mu: +0.117158348  nElectrons: 209.000000  magneticMoment: [ Abs: 0.00002  Tot: -0.00001 ]
	SubspaceRotationAdjust: set factor to 0.188
ElecMinimize: Iter:  17  G: -1603.289509860559747  |grad|_K:  1.291e-07  alpha:  3.617e-01  linmin:  3.104e-06  t[s]:   1617.65
	FillingsUpdate:  mu: +0.117079670  nElectrons: 209.000000  magneticMoment: [ Abs: 0.00002  Tot: -0.00001 ]
	SubspaceRotationAdjust: set factor to 0.213
ElecMinimize: Iter:  18  G: -1603.289512043747209  |grad|_K:  9.979e-08  alpha:  3.594e-01  linmin:  3.061e-06  t[s]:   1670.12
	FillingsUpdate:  mu: +0.117019289  nElectrons: 209.000000  magneticMoment: [ Abs: 0.00002  Tot: -0.00001 ]
	SubspaceRotationAdjust: set factor to 0.181
ElecMinimize: Iter:  19  G: -1603.289513202698345  |grad|_K:  8.443e-08  alpha:  3.190e-01  linmin:  1.038e-06  t[s]:   1722.31
	FillingsUpdate:  mu: +0.117065986  nElectrons: 209.000000  magneticMoment: [ Abs: 0.00001  Tot: -0.00000 ]
	SubspaceRotationAdjust: set factor to 0.15
ElecMinimize: Iter:  20  G: -1603.289513863788898  |grad|_K:  6.029e-08  alpha:  2.539e-01  linmin: -1.291e-07  t[s]:   1774.69
	FillingsUpdate:  mu: +0.117149386  nElectrons: 209.000000  magneticMoment: [ Abs: 0.00001  Tot: -0.00000 ]
	SubspaceRotationAdjust: set factor to 0.172
ElecMinimize: Iter:  21  G: -1603.289514352791230  |grad|_K:  4.249e-08  alpha:  3.680e-01  linmin: -4.009e-07  t[s]:   1826.60
	FillingsUpdate:  mu: +0.117130820  nElectrons: 209.000000  magneticMoment: [ Abs: 0.00001  Tot: -0.00000 ]
	SubspaceRotationAdjust: set factor to 0.165
ElecMinimize: Iter:  22  G: -1603.289514579608976  |grad|_K:  3.458e-08  alpha:  3.433e-01  linmin:  2.049e-07  t[s]:   1879.21
	FillingsUpdate:  mu: +0.117094934  nElectrons: 209.000000  magneticMoment: [ Abs: 0.00001  Tot: -0.00000 ]
	SubspaceRotationAdjust: set factor to 0.141
ElecMinimize: Iter:  23  G: -1603.289514708956176  |grad|_K:  2.427e-08  alpha:  2.956e-01  linmin: -2.275e-07  t[s]:   1931.86
	FillingsUpdate:  mu: +0.117099896  nElectrons: 209.000000  magneticMoment: [ Abs: 0.00001  Tot: -0.00000 ]
	SubspaceRotationAdjust: set factor to 0.158
ElecMinimize: Iter:  24  G: -1603.289514783562709  |grad|_K:  1.786e-08  alpha:  3.461e-01  linmin: -1.696e-06  t[s]:   1984.27
	FillingsUpdate:  mu: +0.117119532  nElectrons: 209.000000  magneticMoment: [ Abs: 0.00001  Tot: -0.00000 ]
	SubspaceRotationAdjust: set factor to 0.168
ElecMinimize: Iter:  25  G: -1603.289514823946320  |grad|_K:  1.345e-08  alpha:  3.454e-01  linmin:  1.534e-06  t[s]:   2036.51
ElecMinimize: Converged (|Delta G|<1.000000e-07 for 2 iters).
Setting wave functions to eigenvectors of Hamiltonian
Converging empty states (this may take a while): |deigs|: 1.819e-02
Vacuum energy after initial minimize, F = -1603.289514823946320

Shifting auxilliary hamiltonian by -0.214920 to set nElectrons=209.000000

-------- Electronic minimization -----------
	Linear fluid (dielectric constant: 78.4, screening length: 8.12261 Bohr) occupying 0.554648 of unit cell:	Completed after 22 iterations at t[s]:   2241.62
	FillingsUpdate:  mu: -0.097800000  nElectrons: 209.000000  magneticMoment: [ Abs: 0.00000  Tot: -0.00000 ]
ElecMinimize: Iter:   0  G: -1603.290058741427174  |grad|_K:  6.357e-06  alpha:  1.000e+00
	Linear fluid (dielectric constant: 78.4, screening length: 8.12261 Bohr) occupying 0.599694 of unit cell:	Completed after 37 iterations at t[s]:   2286.77
	Linear fluid (dielectric constant: 78.4, screening length: 8.12261 Bohr) occupying 0.555685 of unit cell:	Completed after 24 iterations at t[s]:   2302.24
	FillingsUpdate:  mu: -0.097800000  nElectrons: 209.081843  magneticMoment: [ Abs: 0.00000  Tot: -0.00000 ]
	SubspaceRotationAdjust: set factor to 0.118
ElecMinimize: Iter:   1  G: -1603.291823795306755  |grad|_K:  3.866e-06  alpha:  1.367e-01  linmin:  7.656e-03  t[s]:   2324.76
	Linear fluid (dielectric constant: 78.4, screening length: 8.12261 Bohr) occupying 0.556417 of unit cell:	Completed after 14 iterations at t[s]:   2342.85
ElecMinimize: 	Predicted alpha/alphaT>3.000000, increasing alphaT to 4.100414e-01.
	Linear fluid (dielectric constant: 78.4, screening length: 8.12261 Bohr) occupying 0.559001 of unit cell:	Completed after 16 iterations at t[s]:   2357.80
	Linear fluid (dielectric constant: 78.4, screening length: 8.12261 Bohr) occupying 0.561762 of unit cell:	Completed after 15 iterations at t[s]:   2372.79
	FillingsUpdate:  mu: -0.097800000  nElectrons: 209.187412  magneticMoment: [ Abs: 0.00000  Tot: -0.00000 ]
	SubspaceRotationAdjust: set factor to 0.112
ElecMinimize: Iter:   2  G: -1603.294787271859377  |grad|_K:  2.911e-06  alpha:  6.194e-01  linmin: -8.804e-04  t[s]:   2395.38
	Linear fluid (dielectric constant: 78.4, screening length: 8.12261 Bohr) occupying 0.571137 of unit cell:	Completed after 19 iterations at t[s]:   2414.29
	Linear fluid (dielectric constant: 78.4, screening length: 8.12261 Bohr) occupying 0.570772 of unit cell:	Completed after 12 iterations at t[s]:   2429.02
	FillingsUpdate:  mu: -0.097800000  nElectrons: 209.280989  magneticMoment: [ Abs: 0.00000  Tot: -0.00000 ]
	SubspaceRotationAdjust: set factor to 0.113
ElecMinimize: Iter:   3  G: -1603.296638916960546  |grad|_K:  2.679e-06  alpha:  5.895e-01  linmin: -2.637e-03  t[s]:   2451.63
	Linear fluid (dielectric constant: 78.4, screening length: 8.12261 Bohr) occupying 0.573456 of unit cell:	Completed after 16 iterations at t[s]:   2470.00
	Linear fluid (dielectric constant: 78.4, screening length: 8.12261 Bohr) occupying 0.572820 of unit cell:	Completed after 15 iterations at t[s]:   2484.85
	FillingsUpdate:  mu: -0.097800000  nElectrons: 209.310342  magneticMoment: [ Abs: 0.00000  Tot: -0.00000 ]
	SubspaceRotationAdjust: set factor to 0.0955
ElecMinimize: Iter:   4  G: -1603.298016336755609  |grad|_K:  2.631e-06  alpha:  4.793e-01  linmin: -3.047e-04  t[s]:   2507.36
	Linear fluid (dielectric constant: 78.4, screening length: 8.12261 Bohr) occupying 0.582892 of unit cell:	Completed after 22 iterations at t[s]:   2525.97
	Linear fluid (dielectric constant: 78.4, screening length: 8.12261 Bohr) occupying 0.594817 of unit cell:	Completed after 29 iterations at t[s]:   2541.82
ElecMinimize: 	Step increased G by 3.146936e-03, reducing alpha to 9.184643e-02.
	Linear fluid (dielectric constant: 78.4, screening length: 8.12261 Bohr) occupying 0.574411 of unit cell:	Completed after 23 iterations at t[s]:   2578.92
	FillingsUpdate:  mu: -0.097800000  nElectrons: 209.327523  magneticMoment: [ Abs: 0.00000  Tot: -0.00000 ]
	SubspaceRotationAdjust: set factor to 0.105
ElecMinimize: Iter:   5  G: -1603.298472889338427  |grad|_K:  2.141e-06  alpha:  9.185e-02  linmin: -2.012e-02  t[s]:   2601.41
	Linear fluid (dielectric constant: 78.4, screening length: 8.12261 Bohr) occupying 0.576325 of unit cell:	Completed after 16 iterations at t[s]:   2619.69
ElecMinimize: 	Predicted alpha/alphaT>3.000000, increasing alphaT to 2.755393e-01.
	Linear fluid (dielectric constant: 78.4, screening length: 8.12261 Bohr) occupying 0.580586 of unit cell:	Completed after 20 iterations at t[s]:   2635.05
	Linear fluid (dielectric constant: 78.4, screening length: 8.12261 Bohr) occupying 0.580145 of unit cell:	Completed after 15 iterations at t[s]:   2650.03
	FillingsUpdate:  mu: -0.097800000  nElectrons: 209.390575  magneticMoment: [ Abs: 0.00000  Tot: -0.00000 ]
	SubspaceRotationAdjust: set factor to 0.0905
ElecMinimize: Iter:   6  G: -1603.299327398292007  |grad|_K:  2.239e-06  alpha:  2.577e-01  linmin:  2.607e-03  t[s]:   2672.73
	Linear fluid (dielectric constant: 78.4, screening length: 8.12261 Bohr) occupying 0.586383 of unit cell:	Completed after 22 iterations at t[s]:   2691.30
	Linear fluid (dielectric constant: 78.4, screening length: 8.12261 Bohr) occupying 0.583373 of unit cell:	Completed after 20 iterations at t[s]:   2706.58
	FillingsUpdate:  mu: -0.097800000  nElectrons: 209.432386  magneticMoment: [ Abs: 0.00000  Tot: -0.00000 ]
	SubspaceRotationAdjust: set factor to 0.0788
ElecMinimize: Iter:   7  G: -1603.299587617955694  |grad|_K:  3.089e-06  alpha:  1.404e-01  linmin: -1.111e-03  t[s]:   2729.84
	Linear fluid (dielectric constant: 78.4, screening length: 8.12261 Bohr) occupying 0.588981 of unit cell:	Completed after 23 iterations at t[s]:   2748.56
	Linear fluid (dielectric constant: 78.4, screening length: 8.12261 Bohr) occupying 0.587223 of unit cell:	Completed after 20 iterations at t[s]:   2763.79
	FillingsUpdate:  mu: -0.097800000  nElectrons: 209.491730  magneticMoment: [ Abs: 0.00000  Tot: -0.00000 ]
	SubspaceRotationAdjust: set factor to 0.0541
ElecMinimize: Iter:   8  G: -1603.300003131527774  |grad|_K:  3.635e-06  alpha:  9.860e-02  linmin:  1.637e-04  t[s]:   2786.40
	Linear fluid (dielectric constant: 78.4, screening length: 8.12261 Bohr) occupying 0.591564 of unit cell:	Completed after 26 iterations at t[s]:   2805.36
	Linear fluid (dielectric constant: 78.4, screening length: 8.12261 Bohr) occupying 0.590124 of unit cell:	Completed after 22 iterations at t[s]:   2820.84
	FillingsUpdate:  mu: -0.097800000  nElectrons: 209.547325  magneticMoment: [ Abs: 0.00000  Tot: -0.00000 ]
	SubspaceRotationAdjust: set factor to 0.0366
ElecMinimize: Iter:   9  G: -1603.300294652873845  |grad|_K:  3.434e-06  alpha:  6.554e-02  linmin:  2.869e-04  t[s]:   2843.57
	Linear fluid (dielectric constant: 78.4, screening length: 8.12261 Bohr) occupying 0.591944 of unit cell:	Completed after 23 iterations at t[s]:   2862.56
	Linear fluid (dielectric constant: 78.4, screening length: 8.12261 Bohr) occupying 0.593178 of unit cell:	Completed after 23 iterations at t[s]:   2878.35
	FillingsUpdate:  mu: -0.097800000  nElectrons: 209.626820  magneticMoment: [ Abs: 0.00000  Tot: -0.00000 ]
	SubspaceRotationAdjust: set factor to 0.0506
ElecMinimize: Iter:  10  G: -1603.300823026461103  |grad|_K:  3.001e-06  alpha:  1.167e-01  linmin: -9.584e-04  t[s]:   2901.15
	Linear fluid (dielectric constant: 78.4, screening length: 8.12261 Bohr) occupying 0.594267 of unit cell:	Completed after 25 iterations at t[s]:   2920.14
	Linear fluid (dielectric constant: 78.4, screening length: 8.12261 Bohr) occupying 0.594532 of unit cell:	Completed after 18 iterations at t[s]:   2935.20
	FillingsUpdate:  mu: -0.097800000  nElectrons: 209.686737  magneticMoment: [ Abs: 0.00000  Tot: -0.00000 ]
	SubspaceRotationAdjust: set factor to 0.0573
ElecMinimize: Iter:  11  G: -1603.301383728609380  |grad|_K:  3.131e-06  alpha:  1.624e-01  linmin:  1.187e-03  t[s]:   2957.85
	Linear fluid (dielectric constant: 78.4, screening length: 8.12261 Bohr) occupying 0.594708 of unit cell:	Completed after 26 iterations at t[s]:   2976.73
	Linear fluid (dielectric constant: 78.4, screening length: 8.12261 Bohr) occupying 0.594675 of unit cell:	Completed after 22 iterations at t[s]:   2992.19
	FillingsUpdate:  mu: -0.097800000  nElectrons: 209.705516  magneticMoment: [ Abs: 0.00000  Tot: -0.00000 ]
	SubspaceRotationAdjust: set factor to 0.06
ElecMinimize: Iter:  12  G: -1603.301613011086829  |grad|_K:  2.948e-06  alpha:  7.024e-02  linmin: -2.763e-04  t[s]:   3014.77
	Linear fluid (dielectric constant: 78.4, screening length: 8.12261 Bohr) occupying 0.594690 of unit cell:	Completed after 19 iterations at t[s]:   3033.11
	Linear fluid (dielectric constant: 78.4, screening length: 8.12261 Bohr) occupying 0.594689 of unit cell:	Completed after 10 iterations at t[s]:   3047.75
	FillingsUpdate:  mu: -0.097800000  nElectrons: 209.720348  magneticMoment: [ Abs: 0.00000  Tot: -0.00000 ]
	SubspaceRotationAdjust: set factor to 0.0668
ElecMinimize: Iter:  13  G: -1603.301849032726977  |grad|_K:  2.621e-06  alpha:  7.218e-02  linmin:  9.780e-05  t[s]:   3070.36
	Linear fluid (dielectric constant: 78.4, screening length: 8.12261 Bohr) occupying 0.594751 of unit cell:	Completed after 16 iterations at t[s]:   3088.51
	Linear fluid (dielectric constant: 78.4, screening length: 8.12261 Bohr) occupying 0.594747 of unit cell:	Completed after 10 iterations at t[s]:   3103.07
	FillingsUpdate:  mu: -0.097800000  nElectrons: 209.732823  magneticMoment: [ Abs: 0.00000  Tot: -0.00000 ]
	SubspaceRotationAdjust: set factor to 0.084
ElecMinimize: Iter:  14  G: -1603.302016607243559  |grad|_K:  2.323e-06  alpha:  6.728e-02  linmin: -1.427e-05  t[s]:   3125.81
	Linear fluid (dielectric constant: 78.4, screening length: 8.12261 Bohr) occupying 0.594879 of unit cell:	Completed after 18 iterations at t[s]:   3144.27
	Linear fluid (dielectric constant: 78.4, screening length: 8.12261 Bohr) occupying 0.594874 of unit cell:	Completed after 6 iterations at t[s]:   3158.47
	FillingsUpdate:  mu: -0.097800000  nElectrons: 209.744791  magneticMoment: [ Abs: 0.00000  Tot: -0.00000 ]
	SubspaceRotationAdjust: set factor to 0.108
ElecMinimize: Iter:  15  G: -1603.302144988830378  |grad|_K:  2.051e-06  alpha:  6.505e-02  linmin:  8.323e-07  t[s]:   3181.22
	Linear fluid (dielectric constant: 78.4, screening length: 8.12261 Bohr) occupying 0.595020 of unit cell:	Completed after 18 iterations at t[s]:   3199.54
	Linear fluid (dielectric constant: 78.4, screening length: 8.12261 Bohr) occupying 0.595012 of unit cell:	Completed after 12 iterations at t[s]:   3214.29
	FillingsUpdate:  mu: -0.097800000  nElectrons: 209.755030  magneticMoment: [ Abs: 0.00000  Tot: -0.00000 ]
	SubspaceRotationAdjust: set factor to 0.13
ElecMinimize: Iter:  16  G: -1603.302239520866578  |grad|_K:  1.862e-06  alpha:  6.149e-02  linmin:  3.656e-05  t[s]:   3236.85
	Linear fluid (dielectric constant: 78.4, screening length: 8.12261 Bohr) occupying 0.595074 of unit cell:	Completed after 16 iterations at t[s]:   3255.23
	Linear fluid (dielectric constant: 78.4, screening length: 8.12261 Bohr) occupying 0.595075 of unit cell:	Completed after 7 iterations at t[s]:   3269.63
	FillingsUpdate:  mu: -0.097800000  nElectrons: 209.762392  magneticMoment: [ Abs: 0.00000  Tot: -0.00000 ]
	SubspaceRotationAdjust: set factor to 0.156
ElecMinimize: Iter:  17  G: -1603.302319406508559  |grad|_K:  1.895e-06  alpha:  6.317e-02  linmin:  3.462e-05  t[s]:   3292.24
	Linear fluid (dielectric constant: 78.4, screening length: 8.12261 Bohr) occupying 0.594959 of unit cell:	Completed after 16 iterations at t[s]:   3311.30
	Linear fluid (dielectric constant: 78.4, screening length: 8.12261 Bohr) occupying 0.594952 of unit cell:	Completed after 6 iterations at t[s]:   3325.52
	FillingsUpdate:  mu: -0.097800000  nElectrons: 209.765169  magneticMoment: [ Abs: 0.00000  Tot: -0.00000 ]
	SubspaceRotationAdjust: set factor to 0.186
ElecMinimize: Iter:  18  G: -1603.302407315396522  |grad|_K:  2.123e-06  alpha:  6.715e-02  linmin:  1.390e-05  t[s]:   3348.18
	Linear fluid (dielectric constant: 78.4, screening length: 8.12261 Bohr) occupying 0.594474 of unit cell:	Completed after 19 iterations at t[s]:   3366.98
	Linear fluid (dielectric constant: 78.4, screening length: 8.12261 Bohr) occupying 0.594522 of unit cell:	Completed after 12 iterations at t[s]:   3381.72
	FillingsUpdate:  mu: -0.097800000  nElectrons: 209.760308  magneticMoment: [ Abs: 0.00000  Tot: -0.00000 ]
	SubspaceRotationAdjust: set factor to 0.252
ElecMinimize: Iter:  19  G: -1603.302506948802602  |grad|_K:  2.227e-06  alpha:  6.052e-02  linmin:  1.501e-05  t[s]:   3404.52
	Linear fluid (dielectric constant: 78.4, screening length: 8.12261 Bohr) occupying 0.593737 of unit cell:	Completed after 22 iterations at t[s]:   3423.18
	Linear fluid (dielectric constant: 78.4, screening length: 8.12261 Bohr) occupying 0.593874 of unit cell:	Completed after 15 iterations at t[s]:   3438.00
	FillingsUpdate:  mu: -0.097800000  nElectrons: 209.749253  magneticMoment: [ Abs: 0.00000  Tot: -0.00000 ]
	SubspaceRotationAdjust: set factor to 0.289
ElecMinimize: Iter:  20  G: -1603.302598227237922  |grad|_K:  2.228e-06  alpha:  5.023e-02  linmin:  4.328e-05  t[s]:   3460.78
	Linear fluid (dielectric constant: 78.4, screening length: 8.12261 Bohr) occupying 0.593114 of unit cell:	Completed after 22 iterations at t[s]:   3479.46
	Linear fluid (dielectric constant: 78.4, screening length: 8.12261 Bohr) occupying 0.593124 of unit cell:	Completed after 4 iterations at t[s]:   3493.68
	FillingsUpdate:  mu: -0.097800000  nElectrons: 209.736067  magneticMoment: [ Abs: 0.00000  Tot: -0.00000 ]
	SubspaceRotationAdjust: set factor to 0.328
ElecMinimize: Iter:  21  G: -1603.302687718208745  |grad|_K:  2.606e-06  alpha:  4.962e-02  linmin:  8.681e-05  t[s]:   3516.30
	Linear fluid (dielectric constant: 78.4, screening length: 8.12261 Bohr) occupying 0.592342 of unit cell:	Completed after 22 iterations at t[s]:   3534.88
	Linear fluid (dielectric constant: 78.4, screening length: 8.12261 Bohr) occupying 0.592353 of unit cell:	Completed after 3 iterations at t[s]:   3549.05
	FillingsUpdate:  mu: -0.097800000  nElectrons: 209.725121  magneticMoment: [ Abs: 0.00000  Tot: -0.00000 ]
	SubspaceRotationAdjust: set factor to 0.277
ElecMinimize: Iter:  22  G: -1603.302807443118809  |grad|_K:  3.016e-06  alpha:  4.898e-02  linmin:  2.799e-05  t[s]:   3571.49
	Linear fluid (dielectric constant: 78.4, screening length: 8.12261 Bohr) occupying 0.591900 of unit cell:	Completed after 19 iterations at t[s]:   3589.92
	Linear fluid (dielectric constant: 78.4, screening length: 8.12261 Bohr) occupying 0.592053 of unit cell:	Completed after 16 iterations at t[s]:   3604.96
	FillingsUpdate:  mu: -0.097800000  nElectrons: 209.724926  magneticMoment: [ Abs: 0.00000  Tot: +0.00000 ]
	SubspaceRotationAdjust: set factor to 0.459
ElecMinimize: Iter:  23  G: -1603.302914872100700  |grad|_K:  2.322e-06  alpha:  3.241e-02  linmin: -1.169e-06  t[s]:   3627.33
	Linear fluid (dielectric constant: 78.4, screening length: 8.12261 Bohr) occupying 0.592074 of unit cell:	Completed after 17 iterations at t[s]:   3645.59
	Linear fluid (dielectric constant: 78.4, screening length: 8.12261 Bohr) occupying 0.592075 of unit cell:	Completed after 11 iterations at t[s]:   3660.27
	FillingsUpdate:  mu: -0.097800000  nElectrons: 209.729745  magneticMoment: [ Abs: 0.00000  Tot: +0.00000 ]
	SubspaceRotationAdjust: set factor to 0.474
ElecMinimize: Iter:  24  G: -1603.302982108897595  |grad|_K:  2.111e-06  alpha:  3.411e-02  linmin:  1.971e-05  t[s]:   3682.95
	Linear fluid (dielectric constant: 78.4, screening length: 8.12261 Bohr) occupying 0.592039 of unit cell:	Completed after 16 iterations at t[s]:   3701.12
	Linear fluid (dielectric constant: 78.4, screening length: 8.12261 Bohr) occupying 0.592027 of unit cell:	Completed after 13 iterations at t[s]:   3715.93
	FillingsUpdate:  mu: -0.097800000  nElectrons: 209.733198  magneticMoment: [ Abs: 0.00000  Tot: +0.00000 ]
	SubspaceRotationAdjust: set factor to 0.52
ElecMinimize: Iter:  25  G: -1603.303057076593632  |grad|_K:  2.682e-06  alpha:  4.622e-02  linmin:  2.533e-05  t[s]:   3738.57
	Linear fluid (dielectric constant: 78.4, screening length: 8.12261 Bohr) occupying 0.591371 of unit cell:	Completed after 22 iterations at t[s]:   3757.25
	Linear fluid (dielectric constant: 78.4, screening length: 8.12261 Bohr) occupying 0.591477 of unit cell:	Completed after 12 iterations at t[s]:   3772.05
	FillingsUpdate:  mu: -0.097800000  nElectrons: 209.726420  magneticMoment: [ Abs: 0.00000  Tot: +0.00000 ]
	SubspaceRotationAdjust: set factor to 0.639
ElecMinimize: Iter:  26  G: -1603.303158742666483  |grad|_K:  2.495e-06  alpha:  3.879e-02  linmin:  1.339e-05  t[s]:   3794.78
	Linear fluid (dielectric constant: 78.4, screening length: 8.12261 Bohr) occupying 0.590570 of unit cell:	Completed after 23 iterations at t[s]:   3813.42
	Linear fluid (dielectric constant: 78.4, screening length: 8.12261 Bohr) occupying 0.590898 of unit cell:	Completed after 17 iterations at t[s]:   3828.51
	FillingsUpdate:  mu: -0.097800000  nElectrons: 209.716565  magneticMoment: [ Abs: 0.00000  Tot: +0.00000 ]
	SubspaceRotationAdjust: set factor to 0.685
ElecMinimize: Iter:  27  G: -1603.303215365312099  |grad|_K:  2.024e-06  alpha:  2.495e-02  linmin:  7.696e-06  t[s]:   3851.12
	Linear fluid (dielectric constant: 78.4, screening length: 8.12261 Bohr) occupying 0.590610 of unit cell:	Completed after 16 iterations at t[s]:   3869.39
	Linear fluid (dielectric constant: 78.4, screening length: 8.12261 Bohr) occupying 0.590437 of unit cell:	Completed after 16 iterations at t[s]:   3884.43
	FillingsUpdate:  mu: -0.097800000  nElectrons: 209.709571  magneticMoment: [ Abs: 0.00000  Tot: +0.00000 ]
	SubspaceRotationAdjust: set factor to 0.554
ElecMinimize: Iter:  28  G: -1603.303275080519143  |grad|_K:  2.555e-06  alpha:  3.986e-02  linmin: -3.520e-05  t[s]:   3907.90
	Linear fluid (dielectric constant: 78.4, screening length: 8.12261 Bohr) occupying 0.590501 of unit cell:	Completed after 17 iterations at t[s]:   3926.42
	Linear fluid (dielectric constant: 78.4, screening length: 8.12261 Bohr) occupying 0.590483 of unit cell:	Completed after 15 iterations at t[s]:   3941.39
	FillingsUpdate:  mu: -0.097800000  nElectrons: 209.714075  magneticMoment: [ Abs: 0.00000  Tot: +0.00000 ]
	SubspaceRotationAdjust: set factor to 0.752
ElecMinimize: Iter:  29  G: -1603.303345009345776  |grad|_K:  1.824e-06  alpha:  2.916e-02  linmin:  2.175e-06  t[s]:   3964.20
	Linear fluid (dielectric constant: 78.4, screening length: 8.12261 Bohr) occupying 0.590783 of unit cell:	Completed after 17 iterations at t[s]:   3982.61
	Linear fluid (dielectric constant: 78.4, screening length: 8.12261 Bohr) occupying 0.590757 of unit cell:	Completed after 13 iterations at t[s]:   3997.27
	FillingsUpdate:  mu: -0.097800000  nElectrons: 209.721557  magneticMoment: [ Abs: 0.00000  Tot: +0.00000 ]
	SubspaceRotationAdjust: set factor to 0.728
ElecMinimize: Iter:  30  G: -1603.303377458828436  |grad|_K:  1.591e-06  alpha:  2.669e-02  linmin:  1.426e-05  t[s]:   4019.71
	Linear fluid (dielectric constant: 78.4, screening length: 8.12261 Bohr) occupying 0.590869 of unit cell:	Completed after 15 iterations at t[s]:   4037.74
	Linear fluid (dielectric constant: 78.4, screening length: 8.12261 Bohr) occupying 0.590956 of unit cell:	Completed after 15 iterations at t[s]:   4052.60
	FillingsUpdate:  mu: -0.097800000  nElectrons: 209.727317  magneticMoment: [ Abs: 0.00000  Tot: +0.00000 ]
	SubspaceRotationAdjust: set factor to 0.737
ElecMinimize: Iter:  31  G: -1603.303421237098746  |grad|_K:  1.926e-06  alpha:  4.746e-02  linmin:  1.348e-05  t[s]:   4075.25
	Linear fluid (dielectric constant: 78.4, screening length: 8.12261 Bohr) occupying 0.590643 of unit cell:	Completed after 19 iterations at t[s]:   4093.63
	Linear fluid (dielectric constant: 78.4, screening length: 8.12261 Bohr) occupying 0.590784 of unit cell:	Completed after 16 iterations at t[s]:   4108.56
	FillingsUpdate:  mu: -0.097800000  nElectrons: 209.724111  magneticMoment: [ Abs: 0.00000  Tot: +0.00000 ]
	SubspaceRotationAdjust: set factor to 0.871
ElecMinimize: Iter:  32  G: -1603.303456588692825  |grad|_K:  1.442e-06  alpha:  2.617e-02  linmin:  2.664e-06  t[s]:   4131.14
	Linear fluid (dielectric constant: 78.4, screening length: 8.12261 Bohr) occupying 0.590648 of unit cell:	Completed after 16 iterations at t[s]:   4149.55
	Linear fluid (dielectric constant: 78.4, screening length: 8.12261 Bohr) occupying 0.590571 of unit cell:	Completed after 15 iterations at t[s]:   4164.48
	FillingsUpdate:  mu: -0.097800000  nElectrons: 209.719314  magneticMoment: [ Abs: 0.00000  Tot: +0.00000 ]
	SubspaceRotationAdjust: set factor to 0.812
ElecMinimize: Iter:  33  G: -1603.303487871573907  |grad|_K:  1.944e-06  alpha:  4.113e-02  linmin: -1.323e-05  t[s]:   4187.06
	Linear fluid (dielectric constant: 78.4, screening length: 8.12261 Bohr) occupying 0.590754 of unit cell:	Completed after 16 iterations at t[s]:   4205.98
	Linear fluid (dielectric constant: 78.4, screening length: 8.12261 Bohr) occupying 0.590723 of unit cell:	Completed after 12 iterations at t[s]:   4220.70
	FillingsUpdate:  mu: -0.097800000  nElectrons: 209.721927  magneticMoment: [ Abs: 0.00000  Tot: +0.00000 ]
	SubspaceRotationAdjust: set factor to 1.22
ElecMinimize: Iter:  34  G: -1603.303535011612666  |grad|_K:  1.567e-06  alpha:  3.406e-02  linmin: -1.871e-07  t[s]:   4243.45
	Linear fluid (dielectric constant: 78.4, screening length: 8.12261 Bohr) occupying 0.591008 of unit cell:	Completed after 18 iterations at t[s]:   4261.73
	Linear fluid (dielectric constant: 78.4, screening length: 8.12261 Bohr) occupying 0.590967 of unit cell:	Completed after 13 iterations at t[s]:   4276.51
	FillingsUpdate:  mu: -0.097800000  nElectrons: 209.726406  magneticMoment: [ Abs: 0.00000  Tot: -0.00000 ]
	SubspaceRotationAdjust: set factor to 1.13
ElecMinimize: Iter:  35  G: -1603.303561156980550  |grad|_K:  1.753e-06  alpha:  2.914e-02  linmin: -5.334e-06  t[s]:   4299.15
	Linear fluid (dielectric constant: 78.4, screening length: 8.12261 Bohr) occupying 0.590861 of unit cell:	Completed after 15 iterations at t[s]:   4317.36
	Linear fluid (dielectric constant: 78.4, screening length: 8.12261 Bohr) occupying 0.590830 of unit cell:	Completed after 12 iterations at t[s]:   4332.21
	FillingsUpdate:  mu: -0.097800000  nElectrons: 209.720747  magneticMoment: [ Abs: 0.00000  Tot: -0.00000 ]
	SubspaceRotationAdjust: set factor to 1.54
	SubspaceRotationAdjust: resetting CG because factor has changed by 9.20386
	Linear fluid (dielectric constant: 78.4, screening length: 8.12261 Bohr) occupying 0.590830 of unit cell:	Completed after 0 iterations at t[s]:   4363.02
ElecMinimize: 	State modified externally: resetting search direction.
ElecMinimize: Iter:  36  G: -1603.303603499854262  |grad|_K:  1.464e-06  alpha:  3.762e-02
	Linear fluid (dielectric constant: 78.4, screening length: 8.12261 Bohr) occupying 0.590552 of unit cell:	Completed after 18 iterations at t[s]:   4403.88
	Linear fluid (dielectric constant: 78.4, screening length: 8.12261 Bohr) occupying 0.590313 of unit cell:	Completed after 16 iterations at t[s]:   4418.69
	FillingsUpdate:  mu: -0.097800000  nElectrons: 209.707364  magneticMoment: [ Abs: 0.00000  Tot: -0.00000 ]
	SubspaceRotationAdjust: set factor to 0.863
ElecMinimize: Iter:  37  G: -1603.303658849060639  |grad|_K:  3.306e-06  alpha:  6.970e-02  linmin: -7.515e-04  t[s]:   4441.53
	Linear fluid (dielectric constant: 78.4, screening length: 8.12261 Bohr) occupying 0.590934 of unit cell:	Completed after 25 iterations at t[s]:   4460.37
	Linear fluid (dielectric constant: 78.4, screening length: 8.12261 Bohr) occupying 0.590737 of unit cell:	Completed after 21 iterations at t[s]:   4475.63
	FillingsUpdate:  mu: -0.097800000  nElectrons: 209.707722  magneticMoment: [ Abs: 0.00000  Tot: -0.00000 ]
	SubspaceRotationAdjust: set factor to 0.429
ElecMinimize: Iter:  38  G: -1603.303857067817717  |grad|_K:  1.305e-06  alpha:  4.800e-02  linmin:  2.155e-05  t[s]:   4498.25
	Linear fluid (dielectric constant: 78.4, screening length: 8.12261 Bohr) occupying 0.590609 of unit cell:	Completed after 21 iterations at t[s]:   4517.09
	Linear fluid (dielectric constant: 78.4, screening length: 8.12261 Bohr) occupying 0.590466 of unit cell:	Completed after 21 iterations at t[s]:   4532.59
	FillingsUpdate:  mu: -0.097800000  nElectrons: 209.698345  magneticMoment: [ Abs: 0.00000  Tot: -0.00000 ]
	SubspaceRotationAdjust: set factor to 0.292
ElecMinimize: Iter:  39  G: -1603.303920513782032  |grad|_K:  1.280e-06  alpha:  1.015e-01  linmin: -1.829e-04  t[s]:   4555.23
	Linear fluid (dielectric constant: 78.4, screening length: 8.12261 Bohr) occupying 0.591098 of unit cell:	Completed after 24 iterations at t[s]:   4574.01
	Linear fluid (dielectric constant: 78.4, screening length: 8.12261 Bohr) occupying 0.590946 of unit cell:	Completed after 19 iterations at t[s]:   4589.11
	FillingsUpdate:  mu: -0.097800000  nElectrons: 209.705621  magneticMoment: [ Abs: 0.00000  Tot: -0.00000 ]
	SubspaceRotationAdjust: set factor to 0.193
	SubspaceRotationAdjust: resetting CG because factor has changed by 0.12546
	Linear fluid (dielectric constant: 78.4, screening length: 8.12261 Bohr) occupying 0.590946 of unit cell:	Completed after 0 iterations at t[s]:   4619.93
ElecMinimize: 	State modified externally: resetting search direction.
ElecMinimize: Iter:  40  G: -1603.303967165180893  |grad|_K:  7.043e-07  alpha:  7.679e-02
	Linear fluid (dielectric constant: 78.4, screening length: 8.12261 Bohr) occupying 0.590882 of unit cell:	Completed after 16 iterations at t[s]:   4660.55
	Linear fluid (dielectric constant: 78.4, screening length: 8.12261 Bohr) occupying 0.590756 of unit cell:	Completed after 20 iterations at t[s]:   4675.75
	FillingsUpdate:  mu: -0.097800000  nElectrons: 209.701138  magneticMoment: [ Abs: 0.00000  Tot: -0.00000 ]
	SubspaceRotationAdjust: set factor to 0.138
ElecMinimize: Iter:  41  G: -1603.304008130213333  |grad|_K:  6.175e-07  alpha:  2.256e-01  linmin: -1.547e-04  t[s]:   4698.37
	Linear fluid (dielectric constant: 78.4, screening length: 8.12261 Bohr) occupying 0.591245 of unit cell:	Completed after 23 iterations at t[s]:   4717.13
	Linear fluid (dielectric constant: 78.4, screening length: 8.12261 Bohr) occupying 0.591088 of unit cell:	Completed after 16 iterations at t[s]:   4732.19
	FillingsUpdate:  mu: -0.097800000  nElectrons: 209.707724  magneticMoment: [ Abs: 0.00000  Tot: -0.00000 ]
	SubspaceRotationAdjust: set factor to 0.0896
ElecMinimize: Iter:  42  G: -1603.304029488969718  |grad|_K:  4.164e-07  alpha:  1.524e-01  linmin:  4.479e-05  t[s]:   4754.76
	Linear fluid (dielectric constant: 78.4, screening length: 8.12261 Bohr) occupying 0.591162 of unit cell:	Completed after 12 iterations at t[s]:   4772.70
ElecMinimize: 	Predicted alpha/alphaT>3.000000, increasing alphaT to 4.572327e-01.
	Linear fluid (dielectric constant: 78.4, screening length: 8.12261 Bohr) occupying 0.591308 of unit cell:	Completed after 15 iterations at t[s]:   4787.64
	Linear fluid (dielectric constant: 78.4, screening length: 8.12261 Bohr) occupying 0.591365 of unit cell:	Completed after 10 iterations at t[s]:   4802.19
	FillingsUpdate:  mu: -0.097800000  nElectrons: 209.711979  magneticMoment: [ Abs: 0.00000  Tot: -0.00000 ]
	SubspaceRotationAdjust: set factor to 0.117
ElecMinimize: Iter:  43  G: -1603.304066008890459  |grad|_K:  3.998e-07  alpha:  5.769e-01  linmin: -7.411e-06  t[s]:   4824.82
	Linear fluid (dielectric constant: 78.4, screening length: 8.12261 Bohr) occupying 0.591363 of unit cell:	Completed after 20 iterations at t[s]:   4843.29
	Linear fluid (dielectric constant: 78.4, screening length: 8.12261 Bohr) occupying 0.591364 of unit cell:	Completed after 16 iterations at t[s]:   4858.30
	FillingsUpdate:  mu: -0.097800000  nElectrons: 209.710906  magneticMoment: [ Abs: 0.00000  Tot: -0.00000 ]
	SubspaceRotationAdjust: set factor to 0.0953
ElecMinimize: Iter:  44  G: -1603.304081979437569  |grad|_K:  2.745e-07  alpha:  2.734e-01  linmin:  1.154e-05  t[s]:   4880.98
	Linear fluid (dielectric constant: 78.4, screening length: 8.12261 Bohr) occupying 0.591570 of unit cell:	Completed after 16 iterations at t[s]:   4899.32
	Linear fluid (dielectric constant: 78.4, screening length: 8.12261 Bohr) occupying 0.591534 of unit cell:	Completed after 13 iterations at t[s]:   4914.20
	FillingsUpdate:  mu: -0.097800000  nElectrons: 209.713967  magneticMoment: [ Abs: 0.00000  Tot: -0.00000 ]
	SubspaceRotationAdjust: set factor to 0.0748
ElecMinimize: Iter:  45  G: -1603.304088189029017  |grad|_K:  1.472e-07  alpha:  2.257e-01  linmin: -4.837e-05  t[s]:   4936.82
	Linear fluid (dielectric constant: 78.4, screening length: 8.12261 Bohr) occupying 0.591539 of unit cell:	Completed after 9 iterations at t[s]:   4954.55
	Linear fluid (dielectric constant: 78.4, screening length: 8.12261 Bohr) occupying 0.591543 of unit cell:	Completed after 8 iterations at t[s]:   4968.96
	FillingsUpdate:  mu: -0.097800000  nElectrons: 209.713446  magneticMoment: [ Abs: 0.00000  Tot: -0.00000 ]
	SubspaceRotationAdjust: set factor to 0.108
ElecMinimize: Iter:  46  G: -1603.304091185063271  |grad|_K:  1.094e-07  alpha:  3.776e-01  linmin: -1.173e-04  t[s]:   4991.55
	Linear fluid (dielectric constant: 78.4, screening length: 8.12261 Bohr) occupying 0.591509 of unit cell:	Completed after 12 iterations at t[s]:   5009.46
	Linear fluid (dielectric constant: 78.4, screening length: 8.12261 Bohr) occupying 0.591495 of unit cell:	Completed after 10 iterations at t[s]:   5023.96
	FillingsUpdate:  mu: -0.097800000  nElectrons: 209.711440  magneticMoment: [ Abs: 0.00000  Tot: -0.00000 ]
	SubspaceRotationAdjust: set factor to 0.109
ElecMinimize: Iter:  47  G: -1603.304093523473966  |grad|_K:  1.158e-07  alpha:  5.324e-01  linmin: -1.357e-04  t[s]:   5046.59
	Linear fluid (dielectric constant: 78.4, screening length: 8.12261 Bohr) occupying 0.591558 of unit cell:	Completed after 15 iterations at t[s]:   5064.80
	Linear fluid (dielectric constant: 78.4, screening length: 8.12261 Bohr) occupying 0.591536 of unit cell:	Completed after 13 iterations at t[s]:   5079.75
	FillingsUpdate:  mu: -0.097800000  nElectrons: 209.711329  magneticMoment: [ Abs: 0.00000  Tot: -0.00000 ]
	SubspaceRotationAdjust: set factor to 0.0919
ElecMinimize: Iter:  48  G: -1603.304095242542417  |grad|_K:  1.051e-07  alpha:  3.494e-01  linmin:  2.317e-06  t[s]:   5102.41
	Linear fluid (dielectric constant: 78.4, screening length: 8.12261 Bohr) occupying 0.591492 of unit cell:	Completed after 13 iterations at t[s]:   5120.92
	Linear fluid (dielectric constant: 78.4, screening length: 8.12261 Bohr) occupying 0.591490 of unit cell:	Completed after 2 iterations at t[s]:   5135.02
	FillingsUpdate:  mu: -0.097800000  nElectrons: 209.709156  magneticMoment: [ Abs: 0.00000  Tot: -0.00000 ]
	SubspaceRotationAdjust: set factor to 0.0905
ElecMinimize: Iter:  49  G: -1603.304096715440664  |grad|_K:  8.365e-08  alpha:  3.648e-01  linmin: -2.313e-04  t[s]:   5157.65
	Linear fluid (dielectric constant: 78.4, screening length: 8.12261 Bohr) occupying 0.591494 of unit cell:	Completed after 9 iterations at t[s]:   5175.51
	Linear fluid (dielectric constant: 78.4, screening length: 8.12261 Bohr) occupying 0.591496 of unit cell:	Completed after 6 iterations at t[s]:   5189.73
	FillingsUpdate:  mu: -0.097800000  nElectrons: 209.707806  magneticMoment: [ Abs: 0.00000  Tot: -0.00000 ]
	SubspaceRotationAdjust: set factor to 0.115
ElecMinimize: Iter:  50  G: -1603.304098243461567  |grad|_K:  7.641e-08  alpha:  5.927e-01  linmin: -1.155e-05  t[s]:   5212.30
	Linear fluid (dielectric constant: 78.4, screening length: 8.12261 Bohr) occupying 0.591554 of unit cell:	Completed after 15 iterations at t[s]:   5230.65
	Linear fluid (dielectric constant: 78.4, screening length: 8.12261 Bohr) occupying 0.591540 of unit cell:	Completed after 10 iterations at t[s]:   5245.28
	FillingsUpdate:  mu: -0.097800000  nElectrons: 209.707633  magneticMoment: [ Abs: 0.00000  Tot: -0.00000 ]
	SubspaceRotationAdjust: set factor to 0.102
ElecMinimize: Iter:  51  G: -1603.304099198057884  |grad|_K:  8.610e-08  alpha:  4.504e-01  linmin: -1.738e-04  t[s]:   5267.92
	Linear fluid (dielectric constant: 78.4, screening length: 8.12261 Bohr) occupying 0.591490 of unit cell:	Completed after 15 iterations at t[s]:   5285.99
	Linear fluid (dielectric constant: 78.4, screening length: 8.12261 Bohr) occupying 0.591506 of unit cell:	Completed after 12 iterations at t[s]:   5300.75
	FillingsUpdate:  mu: -0.097800000  nElectrons: 209.705792  magneticMoment: [ Abs: 0.00000  Tot: -0.00000 ]
	SubspaceRotationAdjust: set factor to 0.0766
ElecMinimize: Iter:  52  G: -1603.304100038573097  |grad|_K:  7.002e-08  alpha:  3.091e-01  linmin:  1.376e-05  t[s]:   5323.42
	Linear fluid (dielectric constant: 78.4, screening length: 8.12261 Bohr) occupying 0.591517 of unit cell:	Completed after 10 iterations at t[s]:   5341.16
	Linear fluid (dielectric constant: 78.4, screening length: 8.12261 Bohr) occupying 0.591522 of unit cell:	Completed after 3 iterations at t[s]:   5355.17
	FillingsUpdate:  mu: -0.097800000  nElectrons: 209.705029  magneticMoment: [ Abs: 0.00000  Tot: -0.00000 ]
	SubspaceRotationAdjust: set factor to 0.0904
ElecMinimize: Iter:  53  G: -1603.304100821101883  |grad|_K:  5.447e-08  alpha:  4.368e-01  linmin: -6.560e-05  t[s]:   5377.77
	Linear fluid (dielectric constant: 78.4, screening length: 8.12261 Bohr) occupying 0.591545 of unit cell:	Completed after 12 iterations at t[s]:   5395.65
	Linear fluid (dielectric constant: 78.4, screening length: 8.12261 Bohr) occupying 0.591545 of unit cell:	Completed after 0 iterations at t[s]:   5409.64
	FillingsUpdate:  mu: -0.097800000  nElectrons: 209.704820  magneticMoment: [ Abs: 0.00000  Tot: -0.00000 ]
	SubspaceRotationAdjust: set factor to 0.0888
ElecMinimize: Iter:  54  G: -1603.304101289033952  |grad|_K:  4.799e-08  alpha:  4.303e-01  linmin: -3.003e-04  t[s]:   5433.08
	Linear fluid (dielectric constant: 78.4, screening length: 8.12261 Bohr) occupying 0.591530 of unit cell:	Completed after 13 iterations at t[s]:   5451.22
	Linear fluid (dielectric constant: 78.4, screening length: 8.12261 Bohr) occupying 0.591534 of unit cell:	Completed after 6 iterations at t[s]:   5465.49
	FillingsUpdate:  mu: -0.097800000  nElectrons: 209.704142  magneticMoment: [ Abs: 0.00000  Tot: -0.00000 ]
	SubspaceRotationAdjust: set factor to 0.069
ElecMinimize: Iter:  55  G: -1603.304101564078110  |grad|_K:  4.094e-08  alpha:  3.238e-01  linmin:  8.713e-05  t[s]:   5488.13
	Linear fluid (dielectric constant: 78.4, screening length: 8.12261 Bohr) occupying 0.591552 of unit cell:	Completed after 10 iterations at t[s]:   5505.88
	Linear fluid (dielectric constant: 78.4, screening length: 8.12261 Bohr) occupying 0.591554 of unit cell:	Completed after 0 iterations at t[s]:   5519.55
	FillingsUpdate:  mu: -0.097800000  nElectrons: 209.704214  magneticMoment: [ Abs: 0.00000  Tot: -0.00000 ]
	SubspaceRotationAdjust: set factor to 0.0811
ElecMinimize: Iter:  56  G: -1603.304101783251326  |grad|_K:  2.787e-08  alpha:  3.569e-01  linmin: -1.073e-03  t[s]:   5542.19
	Linear fluid (dielectric constant: 78.4, screening length: 8.12261 Bohr) occupying 0.591565 of unit cell:	Completed after 10 iterations at t[s]:   5560.15
	Linear fluid (dielectric constant: 78.4, screening length: 8.12261 Bohr) occupying 0.591567 of unit cell:	Completed after 0 iterations at t[s]:   5573.88
	FillingsUpdate:  mu: -0.097800000  nElectrons: 209.704286  magneticMoment: [ Abs: 0.00000  Tot: -0.00000 ]
	SubspaceRotationAdjust: set factor to 0.0736
ElecMinimize: Iter:  57  G: -1603.304101907244558  |grad|_K:  2.487e-08  alpha:  4.122e-01  linmin: -1.652e-03  t[s]:   5596.50
	Linear fluid (dielectric constant: 78.4, screening length: 8.12261 Bohr) occupying 0.591556 of unit cell:	Completed after 10 iterations at t[s]:   5614.30
	Linear fluid (dielectric constant: 78.4, screening length: 8.12261 Bohr) occupying 0.591556 of unit cell:	Completed after 0 iterations at t[s]:   5628.16
	FillingsUpdate:  mu: -0.097800000  nElectrons: 209.703851  magneticMoment: [ Abs: 0.00000  Tot: -0.00000 ]
	SubspaceRotationAdjust: set factor to 0.0685
ElecMinimize: Iter:  58  G: -1603.304102012047224  |grad|_K:  2.236e-08  alpha:  4.337e-01  linmin:  1.334e-04  t[s]:   5650.70
	Linear fluid (dielectric constant: 78.4, screening length: 8.12261 Bohr) occupying 0.591555 of unit cell:	Completed after 2 iterations at t[s]:   5667.88
	Linear fluid (dielectric constant: 78.4, screening length: 8.12261 Bohr) occupying 0.591555 of unit cell:	Completed after 0 iterations at t[s]:   5681.65
	FillingsUpdate:  mu: -0.097800000  nElectrons: 209.703692  magneticMoment: [ Abs: 0.00000  Tot: -0.00000 ]
	SubspaceRotationAdjust: set factor to 0.0868
ElecMinimize: Iter:  59  G: -1603.304102081635619  |grad|_K:  1.959e-08  alpha:  3.849e-01  linmin:  1.509e-04  t[s]:   5704.38
	Linear fluid (dielectric constant: 78.4, screening length: 8.12261 Bohr) occupying 0.591565 of unit cell:	Completed after 6 iterations at t[s]:   5722.07
	Linear fluid (dielectric constant: 78.4, screening length: 8.12261 Bohr) occupying 0.591565 of unit cell:	Completed after 0 iterations at t[s]:   5735.82
	FillingsUpdate:  mu: -0.097800000  nElectrons: 209.703802  magneticMoment: [ Abs: 0.00000  Tot: +0.00000 ]
	SubspaceRotationAdjust: set factor to 0.0854
ElecMinimize: Iter:  60  G: -1603.304102135953826  |grad|_K:  1.641e-08  alpha:  3.919e-01  linmin: -2.642e-04  t[s]:   5758.39
ElecMinimize: Converged (|Delta G|<1.000000e-07 for 2 iters).
Setting wave functions to eigenvectors of Hamiltonian
Converging empty states (this may take a while): |deigs|: 5.550e-04
Single-point solvation energy estimate, DeltaG = -0.014587312007507

Computing DFT-D3 correction:
# coordination-number Ag 5.364 5.364 7.664 9.176 9.205 9.210 9.210 9.210 9.205 9.176 7.664
# diagonal-C6 Ag 268.61 268.61 268.61 268.61 268.61 268.61 268.61 268.61 268.61 268.61 268.61
EvdW_6 =   -0.070449
EvdW_8 =   -0.095628

# Ionic positions in cartesian coordinates:
ion Ag   0.000000000000000   0.000000000000000  24.268516999999999 1
ion Ag  -0.000002000000000   4.902982000000000   1.155680000000000 1
ion Ag   2.710226000000000   0.817162000000000   3.466964000000000 1
ion Ag   2.710224000000000   5.720144000000000   5.778247000000000 1
ion Ag   0.000000000000000   1.634324000000000   8.089530999999999 1
ion Ag  -0.000002000000000   6.537306000000000  10.400814999999998 1
ion Ag   2.710226000000000   2.451486000000000  12.712097999999997 1
ion Ag   2.710224000000001   7.354468000000001  15.023381999999998 1
ion Ag   0.000000000000000   3.268648000000000  17.334665999999999 1
ion Ag  -0.000002000000000   8.171630000000000  19.645949000000002 1
ion Ag   2.710227000000000   4.085811000000000  21.957232999999999 1

# Forces in Cartesian coordinates:
force Ag   0.000012469702526  -0.000926122410668  -0.002088537129839 1
force Ag   0.000006000797924   0.000973035861209   0.002282698312483 1
force Ag  -0.000011122759113  -0.001222341082072  -0.007298181331872 1
force Ag   0.000076354852323   0.000551177726459   0.001476284623248 1
force Ag  -0.000075532366104  -0.000218890653879   0.001273006117478 1
force Ag   0.000028186765282  -0.000363627166594   0.000523605407131 1
force Ag  -0.000028013099894   0.000015198124152  -0.000025812453770 1
force Ag   0.000021453119135   0.000398031680162  -0.000437175313579 1
force Ag   0.000041175364278   0.000166099113834  -0.001213711271498 1
force Ag  -0.000055964823540  -0.000583427610106  -0.001414585020816 1
force Ag  -0.000025399584282   0.001235415668183   0.007134520807230 1

# Energy components:
   A_diel =       -0.2406582025478087
   Eewald =    14808.5158420382340410
       EH =    16315.8386482428650197
     Eloc =   -33002.8550783037062502
      Enl =       43.3417635577259404
     EvdW =       -0.1660768711704258
      Exc =     -159.5532538165522851
 Exc_core =        2.2898749859692806
       KE =      369.0554172167275055
  MuShift =       -0.0392728537534324
-------------------------------------
     Etot =    -1623.8127940062056496
       TS =        0.0003399880242801
-------------------------------------
        F =    -1623.8131339942299292
      muN =      -20.5090318582760709
-------------------------------------
        G =    -1603.3041021359538263


Dumping 'jdft.fillings' ... done
Dumping 'jdft.wfns' ... done
Dumping 'jdft.fluidState' ... done
Dumping 'jdft.ionpos' ... done
Dumping 'jdft.lattice' ... done
Dumping 'jdft.eigenvals' ... done
Dumping 'jdft.eigStats' ... 
	eMin: -3.482862 at state 0 ( [ +0.000000 +0.000000 +0.000000 ] spin 1 )
	HOMO: -0.097902 at state 154 ( [ -0.307692 +0.000000 +0.000000 ] spin -1 )
	mu  : -0.097800
	LUMO: -0.097425 at state 121 ( [ +0.307692 +0.285714 +0.000000 ] spin -1 )
	eMax: +0.208549 at state 44 ( [ +0.461538 +0.285714 +0.000000 ] spin 1 )
	HOMO-LUMO gap: +0.000478
	Optical gap  : +0.004139 at state 153 ( [ -0.384615 -0.142857 +0.000000 ] spin -1 )
Dumping 'jdft.Ecomponents' ... done
IonicMinimize: Iter:   0  G: -1603.304102135953826  |grad|_K:  1.964e-03  t[s]:   5893.91

#--- Lowdin population analysis ---
# oxidation-state Ag -0.171 -0.178 -0.121 -0.036 +0.002 +0.004 -0.003 +0.004 +0.002 -0.036 -0.120
# magnetic-moments Ag +0.000 +0.000 +0.000 -0.000 -0.000 +0.000 -0.000 +0.000 +0.000 -0.000 -0.000


Computing DFT-D3 correction:
# coordination-number Ag 5.372 5.372 7.655 9.172 9.198 9.213 9.214 9.212 9.198 9.172 7.655
# diagonal-C6 Ag 268.61 268.61 268.61 268.61 268.61 268.61 268.61 268.61 268.61 268.61 268.61
EvdW_6 =   -0.070442
EvdW_8 =   -0.095622
Shifting auxilliary hamiltonian by -0.000029 to set nElectrons=209.703802

-------- Electronic minimization -----------
	Linear fluid (dielectric constant: 78.4, screening length: 8.12261 Bohr) occupying 0.591594 of unit cell:	Completed after 16 iterations at t[s]:   5914.17
	FillingsUpdate:  mu: -0.097800000  nElectrons: 209.703802  magneticMoment: [ Abs: 0.00000  Tot: +0.00000 ]
ElecMinimize: Iter:   0  G: -1603.304204833839322  |grad|_K:  1.876e-07  alpha:  1.000e+00
	Linear fluid (dielectric constant: 78.4, screening length: 8.12261 Bohr) occupying 0.591952 of unit cell:	Completed after 19 iterations at t[s]:   5958.05
	Linear fluid (dielectric constant: 78.4, screening length: 8.12261 Bohr) occupying 0.591676 of unit cell:	Completed after 17 iterations at t[s]:   5973.03
	FillingsUpdate:  mu: -0.097800000  nElectrons: 209.705561  magneticMoment: [ Abs: 0.00000  Tot: +0.00000 ]
	SubspaceRotationAdjust: set factor to 0.0635
ElecMinimize: Iter:   1  G: -1603.304207734707461  |grad|_K:  1.192e-07  alpha:  2.260e-01  linmin:  1.283e-04  t[s]:   5995.43
	Linear fluid (dielectric constant: 78.4, screening length: 8.12261 Bohr) occupying 0.591652 of unit cell:	Completed after 11 iterations at t[s]:   6013.70
	Linear fluid (dielectric constant: 78.4, screening length: 8.12261 Bohr) occupying 0.591608 of unit cell:	Completed after 12 iterations at t[s]:   6028.26
	FillingsUpdate:  mu: -0.097800000  nElectrons: 209.704014  magneticMoment: [ Abs: 0.00000  Tot: +0.00000 ]
	SubspaceRotationAdjust: set factor to 0.0806
ElecMinimize: Iter:   2  G: -1603.304211124148651  |grad|_K:  1.085e-07  alpha:  6.517e-01  linmin: -1.820e-04  t[s]:   6050.79
	Linear fluid (dielectric constant: 78.4, screening length: 8.12261 Bohr) occupying 0.591583 of unit cell:	Completed after 7 iterations at t[s]:   6068.45
	Linear fluid (dielectric constant: 78.4, screening length: 8.12261 Bohr) occupying 0.591574 of unit cell:	Completed after 4 iterations at t[s]:   6082.67
	FillingsUpdate:  mu: -0.097800000  nElectrons: 209.703121  magneticMoment: [ Abs: 0.00000  Tot: +0.00000 ]
	SubspaceRotationAdjust: set factor to 0.0923
ElecMinimize: Iter:   3  G: -1603.304215049997765  |grad|_K:  1.394e-07  alpha:  9.083e-01  linmin: -3.036e-06  t[s]:   6105.28
	Linear fluid (dielectric constant: 78.4, screening length: 8.12261 Bohr) occupying 0.591571 of unit cell:	Completed after 13 iterations at t[s]:   6123.24
	Linear fluid (dielectric constant: 78.4, screening length: 8.12261 Bohr) occupying 0.591572 of unit cell:	Completed after 10 iterations at t[s]:   6137.77
	FillingsUpdate:  mu: -0.097800000  nElectrons: 209.702909  magneticMoment: [ Abs: 0.00000  Tot: +0.00000 ]
	SubspaceRotationAdjust: set factor to 0.0996
ElecMinimize: Iter:   4  G: -1603.304219113416593  |grad|_K:  1.448e-07  alpha:  5.730e-01  linmin: -8.230e-06  t[s]:   6160.25
	Linear fluid (dielectric constant: 78.4, screening length: 8.12261 Bohr) occupying 0.591531 of unit cell:	Completed after 13 iterations at t[s]:   6178.17
	Linear fluid (dielectric constant: 78.4, screening length: 8.12261 Bohr) occupying 0.591533 of unit cell:	Completed after 2 iterations at t[s]:   6192.42
	FillingsUpdate:  mu: -0.097800000  nElectrons: 209.701852  magneticMoment: [ Abs: 0.00000  Tot: +0.00000 ]
	SubspaceRotationAdjust: set factor to 0.0995
ElecMinimize: Iter:   5  G: -1603.304223233894618  |grad|_K:  1.270e-07  alpha:  5.371e-01  linmin:  3.340e-05  t[s]:   6215.13
	Linear fluid (dielectric constant: 78.4, screening length: 8.12261 Bohr) occupying 0.591613 of unit cell:	Completed after 15 iterations at t[s]:   6233.43
	Linear fluid (dielectric constant: 78.4, screening length: 8.12261 Bohr) occupying 0.591594 of unit cell:	Completed after 11 iterations at t[s]:   6247.95
	FillingsUpdate:  mu: -0.097800000  nElectrons: 209.703033  magneticMoment: [ Abs: 0.00000  Tot: +0.00000 ]
	SubspaceRotationAdjust: set factor to 0.0807
ElecMinimize: Iter:   6  G: -1603.304225651881097  |grad|_K:  1.145e-07  alpha:  4.120e-01  linmin: -3.015e-05  t[s]:   6270.50
	Linear fluid (dielectric constant: 78.4, screening length: 8.12261 Bohr) occupying 0.591550 of unit cell:	Completed after 14 iterations at t[s]:   6288.59
	Linear fluid (dielectric constant: 78.4, screening length: 8.12261 Bohr) occupying 0.591559 of unit cell:	Completed after 10 iterations at t[s]:   6303.10
	FillingsUpdate:  mu: -0.097800000  nElectrons: 209.702166  magneticMoment: [ Abs: 0.00000  Tot: +0.00000 ]
	SubspaceRotationAdjust: set factor to 0.0615
ElecMinimize: Iter:   7  G: -1603.304227230613378  |grad|_K:  7.839e-08  alpha:  3.290e-01  linmin:  2.645e-05  t[s]:   6325.35
	Linear fluid (dielectric constant: 78.4, screening length: 8.12261 Bohr) occupying 0.591574 of unit cell:	Completed after 10 iterations at t[s]:   6343.45
	Linear fluid (dielectric constant: 78.4, screening length: 8.12261 Bohr) occupying 0.591578 of unit cell:	Completed after 2 iterations at t[s]:   6357.37
	FillingsUpdate:  mu: -0.097800000  nElectrons: 209.702522  magneticMoment: [ Abs: 0.00000  Tot: +0.00000 ]
	SubspaceRotationAdjust: set factor to 0.0668
ElecMinimize: Iter:   8  G: -1603.304228138834787  |grad|_K:  5.359e-08  alpha:  4.044e-01  linmin: -1.305e-04  t[s]:   6380.04
	Linear fluid (dielectric constant: 78.4, screening length: 8.12261 Bohr) occupying 0.591595 of unit cell:	Completed after 10 iterations at t[s]:   6397.74
	Linear fluid (dielectric constant: 78.4, screening length: 8.12261 Bohr) occupying 0.591594 of unit cell:	Completed after 0 iterations at t[s]:   6411.53
	FillingsUpdate:  mu: -0.097800000  nElectrons: 209.702857  magneticMoment: [ Abs: 0.00000  Tot: +0.00000 ]
	SubspaceRotationAdjust: set factor to 0.0658
ElecMinimize: Iter:   9  G: -1603.304228561519494  |grad|_K:  3.623e-08  alpha:  4.005e-01  linmin: -1.816e-04  t[s]:   6434.20
	Linear fluid (dielectric constant: 78.4, screening length: 8.12261 Bohr) occupying 0.591584 of unit cell:	Completed after 11 iterations at t[s]:   6452.06
	Linear fluid (dielectric constant: 78.4, screening length: 8.12261 Bohr) occupying 0.591585 of unit cell:	Completed after 2 iterations at t[s]:   6466.09
	FillingsUpdate:  mu: -0.097800000  nElectrons: 209.702652  magneticMoment: [ Abs: 0.00000  Tot: +0.00000 ]
	SubspaceRotationAdjust: set factor to 0.0522
ElecMinimize: Iter:  10  G: -1603.304228733398986  |grad|_K:  2.595e-08  alpha:  3.576e-01  linmin:  4.039e-04  t[s]:   6488.73
	Linear fluid (dielectric constant: 78.4, screening length: 8.12261 Bohr) occupying 0.591594 of unit cell:	Completed after 7 iterations at t[s]:   6506.27
	Linear fluid (dielectric constant: 78.4, screening length: 8.12261 Bohr) occupying 0.591595 of unit cell:	Completed after 0 iterations at t[s]:   6519.99
	FillingsUpdate:  mu: -0.097800000  nElectrons: 209.702850  magneticMoment: [ Abs: 0.00000  Tot: +0.00000 ]
	SubspaceRotationAdjust: set factor to 0.0597
ElecMinimize: Iter:  11  G: -1603.304228823565836  |grad|_K:  1.658e-08  alpha:  3.696e-01  linmin: -1.183e-03  t[s]:   6542.62
	Linear fluid (dielectric constant: 78.4, screening length: 8.12261 Bohr) occupying 0.591601 of unit cell:	Completed after 4 iterations at t[s]:   6559.95
	Linear fluid (dielectric constant: 78.4, screening length: 8.12261 Bohr) occupying 0.591601 of unit cell:	Completed after 0 iterations at t[s]:   6573.65
	FillingsUpdate:  mu: -0.097800000  nElectrons: 209.702993  magneticMoment: [ Abs: 0.00000  Tot: +0.00000 ]
	SubspaceRotationAdjust: set factor to 0.0664
ElecMinimize: Iter:  12  G: -1603.304228864254355  |grad|_K:  1.125e-08  alpha:  3.933e-01  linmin: -2.450e-03  t[s]:   6596.24
ElecMinimize: Converged (|Delta G|<1.000000e-07 for 2 iters).
Setting wave functions to eigenvectors of Hamiltonian
Converging empty states (this may take a while): |deigs|: 1.531e-08

Computing DFT-D3 correction:
# coordination-number Ag 5.372 5.372 7.655 9.172 9.198 9.213 9.214 9.212 9.198 9.172 7.655
# diagonal-C6 Ag 268.61 268.61 268.61 268.61 268.61 268.61 268.61 268.61 268.61 268.61 268.61
EvdW_6 =   -0.070442
EvdW_8 =   -0.095622
IonicMinimize: 	Wolfe criterion not satisfied: alpha: 1  (E-E0)/|gdotd0|: -0.995288  gdotd/gdotd0: 0.963317 (taking cubic step)

Computing DFT-D3 correction:
# coordination-number Ag 5.386 5.387 7.637 9.163 9.184 9.218 9.221 9.218 9.184 9.163 7.637
# diagonal-C6 Ag 268.61 268.61 268.61 268.61 268.61 268.61 268.61 268.61 268.61 268.61 268.61
EvdW_6 =   -0.070428
EvdW_8 =   -0.095609
Shifting auxilliary hamiltonian by -0.000028 to set nElectrons=209.702993

-------- Electronic minimization -----------
	Linear fluid (dielectric constant: 78.4, screening length: 8.12261 Bohr) occupying 0.591643 of unit cell:	Completed after 18 iterations at t[s]:   6668.68
	FillingsUpdate:  mu: -0.097800000  nElectrons: 209.702993  magneticMoment: [ Abs: 0.00000  Tot: +0.00000 ]
ElecMinimize: Iter:   0  G: -1603.304371960778781  |grad|_K:  2.800e-07  alpha:  1.000e+00
	Linear fluid (dielectric constant: 78.4, screening length: 8.12261 Bohr) occupying 0.591925 of unit cell:	Completed after 18 iterations at t[s]:   6712.32
	Linear fluid (dielectric constant: 78.4, screening length: 8.12261 Bohr) occupying 0.591749 of unit cell:	Completed after 16 iterations at t[s]:   6727.27
	FillingsUpdate:  mu: -0.097800000  nElectrons: 209.705275  magneticMoment: [ Abs: 0.00000  Tot: +0.00000 ]
	SubspaceRotationAdjust: set factor to 0.0552
[...]
ElecMinimize: Iter:   8  G: -1603.306087186766035  |grad|_K:  4.922e-08  alpha:  4.576e-01  linmin: -1.885e-04  t[s]:  18886.82
	Linear fluid (dielectric constant: 78.4, screening length: 8.12261 Bohr) occupying 0.591208 of unit cell:	Completed after 10 iterations at t[s]:  18904.57
	Linear fluid (dielectric constant: 78.4, screening length: 8.12261 Bohr) occupying 0.591209 of unit cell:	Completed after 0 iterations at t[s]:  18918.99
	FillingsUpdate:  mu: -0.097800000  nElectrons: 209.709826  magneticMoment: [ Abs: 0.00000  Tot: -0.00000 ]
	SubspaceRotationAdjust: set factor to 0.0948
ElecMinimize: Iter:   9  G: -1603.306087581465135  |grad|_K:  3.706e-08  alpha:  4.413e-01  linmin:  1.190e-05  t[s]:  18941.86
	Linear fluid (dielectric constant: 78.4, screening length: 8.12261 Bohr) occupying 0.591217 of unit cell:	Completed after 11 iterations at t[s]:  18959.76
	Linear fluid (dielectric constant: 78.4, screening length: 8.12261 Bohr) occupying 0.591216 of unit cell:	Completed after 3 iterations at t[s]:  18973.74
	FillingsUpdate:  mu: -0.097800000  nElectrons: 209.709943  magneticMoment: [ Abs: 0.00000  Tot: -0.00000 ]
	SubspaceRotationAdjust: set factor to 0.0773
ElecMinimize: Iter:  10  G: -1603.306087754434202  |grad|_K:  3.092e-08  alpha:  3.457e-01  linmin:  3.585e-04  t[s]:  18996.40
	Linear fluid (dielectric constant: 78.4, screening length: 8.12261 Bohr) occupying 0.591198 of unit cell:	Completed after 10 iterations at t[s]:  19014.53
	Linear fluid (dielectric constant: 78.4, screening length: 8.12261 Bohr) occupying 0.591200 of unit cell:	Completed after 1 iterations at t[s]:  19028.49
	FillingsUpdate:  mu: -0.097800000  nElectrons: 209.709568  magneticMoment: [ Abs: 0.00000  Tot: -0.00000 ]
	SubspaceRotationAdjust: set factor to 0.0622
ElecMinimize: Iter:  11  G: -1603.306087860139087  |grad|_K:  2.115e-08  alpha:  3.082e-01  linmin:  1.232e-04  t[s]:  19051.16
	Linear fluid (dielectric constant: 78.4, screening length: 8.12261 Bohr) occupying 0.591199 of unit cell:	Completed after 2 iterations at t[s]:  19068.36
	Linear fluid (dielectric constant: 78.4, screening length: 8.12261 Bohr) occupying 0.591198 of unit cell:	Completed after 0 iterations at t[s]:  19082.18
	FillingsUpdate:  mu: -0.097800000  nElectrons: 209.709480  magneticMoment: [ Abs: 0.00000  Tot: -0.00000 ]
	SubspaceRotationAdjust: set factor to 0.0832
ElecMinimize: Iter:  12  G: -1603.306087930016474  |grad|_K:  1.478e-08  alpha:  4.238e-01  linmin: -1.472e-03  t[s]:  19104.75
	Linear fluid (dielectric constant: 78.4, screening length: 8.12261 Bohr) occupying 0.591200 of unit cell:	Completed after 7 iterations at t[s]:  19122.26
	Linear fluid (dielectric constant: 78.4, screening length: 8.12261 Bohr) occupying 0.591200 of unit cell:	Completed after 2 iterations at t[s]:  19136.26
	FillingsUpdate:  mu: -0.097800000  nElectrons: 209.709491  magneticMoment: [ Abs: 0.00000  Tot: -0.00000 ]
	SubspaceRotationAdjust: set factor to 0.0757
ElecMinimize: Iter:  13  G: -1603.306087955833164  |grad|_K:  1.369e-08  alpha:  3.328e-01  linmin: -1.854e-03  t[s]:  19158.97
ElecMinimize: Converged (|Delta G|<1.000000e-07 for 2 iters).
Setting wave functions to eigenvectors of Hamiltonian
Converging empty states (this may take a while): |deigs|: 2.618e-08

Computing DFT-D3 correction:
# coordination-number Ag 5.525 5.550 7.402 9.029 8.908 9.139 9.038 9.130 8.899 9.014 7.397
# diagonal-C6 Ag 268.61 268.61 268.61 268.61 268.61 268.61 268.61 268.61 268.61 268.61 268.61
EvdW_6 =   -0.069784
EvdW_8 =   -0.094900

# Ionic positions in cartesian coordinates:
ion Ag  -0.001022407645185  -0.031842287884133  24.276265659730864 1
ion Ag   0.002896004232857   4.930220489843758   1.162391164763804 1
ion Ag   2.712018098427616   0.796528858163588   3.198554361300646 1
ion Ag   2.712758513108247   5.744469536741033   5.776348521780094 1
ion Ag  -0.003559311550173   1.627770269266042   8.012414386919566 1
ion Ag   0.000508403815076   6.535794785421120  10.391567661461183 1
ion Ag   2.708786023714007   2.454080314294532  12.706647165684851 1
ion Ag   2.710999363419715   7.361273495718164  15.030967230145404 1
ion Ag   0.001863307541133   3.277129837599239  17.407281835184087 1
ion Ag  -0.001368557454854   8.146275168517237  19.650159114149915 1
ion Ag   2.707241562391562   4.102260532319423  22.220484898879587 1

# Forces in Cartesian coordinates:
force Ag   0.000000530161344  -0.000097336377835  -0.000306282837024 1
force Ag   0.000008246453559   0.000194649072443   0.000156941898756 1
force Ag   0.000002254891976  -0.000026090687536   0.000088845879973 1
force Ag   0.000005315651680   0.000065133576681  -0.000422111282385 1
force Ag   0.000004965816292  -0.000044716862016  -0.000069028584296 1
force Ag   0.000005725942268   0.000124763335313   0.000689181565039 1
force Ag   0.000003192190520   0.000010282539740   0.000165383666971 1
force Ag  -0.000001749427439  -0.000108659679411  -0.000629654923022 1
force Ag   0.000000714593332  -0.000048704129086   0.000007517903970 1
force Ag   0.000001852637772   0.000060832786024   0.000578845462172 1
force Ag   0.000004258618430  -0.000074707067630   0.000175570915403 1

# Energy components:
   A_diel =       -0.2437228048265647
   Eewald =    14653.9161663068789494
       EH =    16161.3986470135732816
     Eloc =   -32693.7954414992236707
      Enl =       43.3482587672108721
     EvdW =       -0.1646834958749883
      Exc =     -159.5360969765919208
 Exc_core =        2.2898750201787927
       KE =      369.0112255835914539
  MuShift =       -0.0395902867418490
-------------------------------------
     Etot =    -1623.8153623718246763
       TS =        0.0003137935651683
-------------------------------------
        F =    -1623.8156761653897320
      muN =      -20.5095882095564761
-------------------------------------
        G =    -1603.3060879558331635


Dumping 'jdft.fillings' ... done
Dumping 'jdft.wfns' ... done
Dumping 'jdft.fluidState' ... done
Dumping 'jdft.ionpos' ... done
Dumping 'jdft.lattice' ... done
Dumping 'jdft.eigenvals' ... done
Dumping 'jdft.eigStats' ... 
	eMin: -3.481800 at state 91 ( [ +0.000000 +0.000000 +0.000000 ] spin -1 )
	HOMO: -0.098052 at state 135 ( [ +0.461538 +0.285714 +0.000000 ] spin -1 )
	mu  : -0.097800
	LUMO: -0.097577 at state 136 ( [ +0.461538 +0.428571 +0.000000 ] spin -1 )
	eMax: +0.207965 at state 44 ( [ +0.461538 +0.285714 +0.000000 ] spin 1 )
	HOMO-LUMO gap: +0.000475
	Optical gap  : +0.006729 at state 135 ( [ +0.461538 +0.285714 +0.000000 ] spin -1 )
Dumping 'jdft.Ecomponents' ... done
IonicMinimize: Iter:   9  G: -1603.306087955833164  |grad|_K:  2.236e-04  alpha:  1.000e+00  linmin: -6.184e-02  t[s]:  19212.05

#--- Lowdin population analysis ---
# oxidation-state Ag -0.171 -0.175 -0.133 -0.032 +0.008 -0.000 +0.001 -0.000 +0.008 -0.032 -0.130
# magnetic-moments Ag +0.000 +0.000 +0.000 +0.000 +0.000 -0.000 -0.000 -0.000 +0.000 +0.000 -0.000


Computing DFT-D3 correction:
# coordination-number Ag 5.545 5.561 7.408 9.027 8.896 9.140 9.044 9.132 8.883 9.008 7.397
# diagonal-C6 Ag 268.61 268.61 268.61 268.61 268.61 268.61 268.61 268.61 268.61 268.61 268.61
EvdW_6 =   -0.069778
EvdW_8 =   -0.094893
Shifting auxilliary hamiltonian by -0.000083 to set nElectrons=209.709491

-------- Electronic minimization -----------
	Linear fluid (dielectric constant: 78.4, screening length: 8.12261 Bohr) occupying 0.591384 of unit cell:	Completed after 18 iterations at t[s]:  19232.52
	FillingsUpdate:  mu: -0.097800000  nElectrons: 209.709491  magneticMoment: [ Abs: 0.00000  Tot: +0.00000 ]
ElecMinimize: Iter:   0  G: -1603.306027871523838  |grad|_K:  2.260e-07  alpha:  1.000e+00
	Linear fluid (dielectric constant: 78.4, screening length: 8.12261 Bohr) occupying 0.591372 of unit cell:	Completed after 15 iterations at t[s]:  19275.75
	Linear fluid (dielectric constant: 78.4, screening length: 8.12261 Bohr) occupying 0.591378 of unit cell:	Completed after 13 iterations at t[s]:  19290.52
	FillingsUpdate:  mu: -0.097800000  nElectrons: 209.709323  magneticMoment: [ Abs: 0.00000  Tot: +0.00000 ]
	SubspaceRotationAdjust: set factor to 0.0907
ElecMinimize: Iter:   1  G: -1603.306037806674340  |grad|_K:  1.895e-07  alpha:  5.323e-01  linmin:  2.890e-06  t[s]:  19313.02
	Linear fluid (dielectric constant: 78.4, screening length: 8.12261 Bohr) occupying 0.591271 of unit cell:	Completed after 15 iterations at t[s]:  19331.24
	Linear fluid (dielectric constant: 78.4, screening length: 8.12261 Bohr) occupying 0.591264 of unit cell:	Completed after 4 iterations at t[s]:  19345.46
	FillingsUpdate:  mu: -0.097800000  nElectrons: 209.706753  magneticMoment: [ Abs: 0.00000  Tot: +0.00000 ]
	SubspaceRotationAdjust: set factor to 0.101
ElecMinimize: Iter:   2  G: -1603.306045240434742  |grad|_K:  2.245e-07  alpha:  5.663e-01  linmin: -7.981e-05  t[s]:  19367.94
	Linear fluid (dielectric constant: 78.4, screening length: 8.12261 Bohr) occupying 0.591282 of unit cell:	Completed after 14 iterations at t[s]:  19385.97
	Linear fluid (dielectric constant: 78.4, screening length: 8.12261 Bohr) occupying 0.591284 of unit cell:	Completed after 11 iterations at t[s]:  19400.55
	FillingsUpdate:  mu: -0.097800000  nElectrons: 209.707159  magneticMoment: [ Abs: 0.00000  Tot: +0.00000 ]
	SubspaceRotationAdjust: set factor to 0.1
ElecMinimize: Iter:   3  G: -1603.306057167172185  |grad|_K:  2.462e-07  alpha:  6.461e-01  linmin:  6.059e-05  t[s]:  19423.20
	Linear fluid (dielectric constant: 78.4, screening length: 8.12261 Bohr) occupying 0.591115 of unit cell:	Completed after 16 iterations at t[s]:  19441.28
	Linear fluid (dielectric constant: 78.4, screening length: 8.12261 Bohr) occupying 0.591133 of unit cell:	Completed after 10 iterations at t[s]:  19455.85
	FillingsUpdate:  mu: -0.097800000  nElectrons: 209.703808  magneticMoment: [ Abs: 0.00000  Tot: +0.00000 ]
	SubspaceRotationAdjust: set factor to 0.09
ElecMinimize: Iter:   4  G: -1603.306069936116046  |grad|_K:  2.710e-07  alpha:  5.787e-01  linmin: -9.337e-06  t[s]:  19478.53
	Linear fluid (dielectric constant: 78.4, screening length: 8.12261 Bohr) occupying 0.591264 of unit cell:	Completed after 15 iterations at t[s]:  19496.82
	Linear fluid (dielectric constant: 78.4, screening length: 8.12261 Bohr) occupying 0.591223 of unit cell:	Completed after 15 iterations at t[s]:  19511.84
	FillingsUpdate:  mu: -0.097800000  nElectrons: 209.705809  magneticMoment: [ Abs: 0.00000  Tot: +0.00000 ]
	SubspaceRotationAdjust: set factor to 0.0718
ElecMinimize: Iter:   5  G: -1603.306080561369299  |grad|_K:  2.102e-07  alpha:  3.957e-01  linmin: -5.299e-07  t[s]:  19535.32
	Linear fluid (dielectric constant: 78.4, screening length: 8.12261 Bohr) occupying 0.591182 of unit cell:	Completed after 14 iterations at t[s]:  19553.42
	Linear fluid (dielectric constant: 78.4, screening length: 8.12261 Bohr) occupying 0.591174 of unit cell:	Completed after 10 iterations at t[s]:  19567.90
	FillingsUpdate:  mu: -0.097800000  nElectrons: 209.704824  magneticMoment: [ Abs: 0.00000  Tot: +0.00000 ]
	SubspaceRotationAdjust: set factor to 0.065
ElecMinimize: Iter:   6  G: -1603.306088244328748  |grad|_K:  1.566e-07  alpha:  4.757e-01  linmin: -6.552e-06  t[s]:  19590.48
	Linear fluid (dielectric constant: 78.4, screening length: 8.12261 Bohr) occupying 0.591210 of unit cell:	Completed after 13 iterations at t[s]:  19608.53
	Linear fluid (dielectric constant: 78.4, screening length: 8.12261 Bohr) occupying 0.591208 of unit cell:	Completed after 2 iterations at t[s]:  19622.51
	FillingsUpdate:  mu: -0.097800000  nElectrons: 209.705680  magneticMoment: [ Abs: 0.00000  Tot: +0.00000 ]
	SubspaceRotationAdjust: set factor to 0.0654
ElecMinimize: Iter:   7  G: -1603.306092227010140  |grad|_K:  1.043e-07  alpha:  4.441e-01  linmin:  3.450e-05  t[s]:  19645.01
	Linear fluid (dielectric constant: 78.4, screening length: 8.12261 Bohr) occupying 0.591218 of unit cell:	Completed after 3 iterations at t[s]:  19662.32
	Linear fluid (dielectric constant: 78.4, screening length: 8.12261 Bohr) occupying 0.591218 of unit cell:	Completed after 2 iterations at t[s]:  19676.39
	FillingsUpdate:  mu: -0.097800000  nElectrons: 209.706018  magneticMoment: [ Abs: 0.00000  Tot: +0.00000 ]
	SubspaceRotationAdjust: set factor to 0.0709
ElecMinimize: Iter:   8  G: -1603.306094137006767  |grad|_K:  7.068e-08  alpha:  4.813e-01  linmin: -1.121e-05  t[s]:  19698.96
	Linear fluid (dielectric constant: 78.4, screening length: 8.12261 Bohr) occupying 0.591218 of unit cell:	Completed after 10 iterations at t[s]:  19716.63
	Linear fluid (dielectric constant: 78.4, screening length: 8.12261 Bohr) occupying 0.591218 of unit cell:	Completed after 2 iterations at t[s]:  19730.52
	FillingsUpdate:  mu: -0.097800000  nElectrons: 209.706096  magneticMoment: [ Abs: 0.00000  Tot: +0.00000 ]
	SubspaceRotationAdjust: set factor to 0.0741
ElecMinimize: Iter:   9  G: -1603.306094855110359  |grad|_K:  5.004e-08  alpha:  3.938e-01  linmin:  3.325e-05  t[s]:  19753.13
	Linear fluid (dielectric constant: 78.4, screening length: 8.12261 Bohr) occupying 0.591235 of unit cell:	Completed after 10 iterations at t[s]:  19771.00
	Linear fluid (dielectric constant: 78.4, screening length: 8.12261 Bohr) occupying 0.591235 of unit cell:	Completed after 0 iterations at t[s]:  19784.79
	FillingsUpdate:  mu: -0.097800000  nElectrons: 209.706533  magneticMoment: [ Abs: 0.00000  Tot: +0.00000 ]
	SubspaceRotationAdjust: set factor to 0.0776
ElecMinimize: Iter:  10  G: -1603.306095221394571  |grad|_K:  3.293e-08  alpha:  4.006e-01  linmin: -4.341e-04  t[s]:  19808.27
	Linear fluid (dielectric constant: 78.4, screening length: 8.12261 Bohr) occupying 0.591235 of unit cell:	Completed after 6 iterations at t[s]:  19825.75
	Linear fluid (dielectric constant: 78.4, screening length: 8.12261 Bohr) occupying 0.591235 of unit cell:	Completed after 0 iterations at t[s]:  19839.45
	FillingsUpdate:  mu: -0.097800000  nElectrons: 209.706595  magneticMoment: [ Abs: 0.00000  Tot: +0.00000 ]
	SubspaceRotationAdjust: set factor to 0.0886
ElecMinimize: Iter:  11  G: -1603.306095403152312  |grad|_K:  2.329e-08  alpha:  4.529e-01  linmin: -1.321e-03  t[s]:  19862.28
	Linear fluid (dielectric constant: 78.4, screening length: 8.12261 Bohr) occupying 0.591241 of unit cell:	Completed after 2 iterations at t[s]:  19879.51
	Linear fluid (dielectric constant: 78.4, screening length: 8.12261 Bohr) occupying 0.591241 of unit cell:	Completed after 0 iterations at t[s]:  19893.26
	FillingsUpdate:  mu: -0.097800000  nElectrons: 209.706794  magneticMoment: [ Abs: 0.00000  Tot: +0.00000 ]
	SubspaceRotationAdjust: set factor to 0.104
ElecMinimize: Iter:  12  G: -1603.306095492649320  |grad|_K:  1.976e-08  alpha:  4.400e-01  linmin: -8.489e-05  t[s]:  19915.98
	Linear fluid (dielectric constant: 78.4, screening length: 8.12261 Bohr) occupying 0.591251 of unit cell:	Completed after 3 iterations at t[s]:  19933.13
	Linear fluid (dielectric constant: 78.4, screening length: 8.12261 Bohr) occupying 0.591251 of unit cell:	Completed after 0 iterations at t[s]:  19946.86
	FillingsUpdate:  mu: -0.097800000  nElectrons: 209.707056  magneticMoment: [ Abs: 0.00000  Tot: +0.00000 ]
	SubspaceRotationAdjust: set factor to 0.121
ElecMinimize: Iter:  13  G: -1603.306095551449971  |grad|_K:  1.555e-08  alpha:  4.098e-01  linmin:  6.857e-04  t[s]:  19969.50
ElecMinimize: Converged (|Delta G|<1.000000e-07 for 2 iters).
Setting wave functions to eigenvectors of Hamiltonian
Converging empty states (this may take a while): |deigs|: 2.387e-08

Computing DFT-D3 correction:
# coordination-number Ag 5.545 5.561 7.408 9.027 8.896 9.140 9.044 9.132 8.883 9.008 7.397
# diagonal-C6 Ag 268.61 268.61 268.61 268.61 268.61 268.61 268.61 268.61 268.61 268.61 268.61
EvdW_6 =   -0.069778
EvdW_8 =   -0.094893

# Ionic positions in cartesian coordinates:
ion Ag  -0.000997021967529  -0.033829053446485  24.269515732163367 1
ion Ag   0.002916811403965   4.933533316520847   1.166698653097771 1
ion Ag   2.711900912903392   0.796250879869551   3.196246148720474 1
ion Ag   2.712825692912654   5.745065508813520   5.772393681911332 1
ion Ag  -0.003561180298811   1.626002807544166   8.008832805051060 1
ion Ag   0.000621573834948   6.536377795068788  10.398988997933317 1
ion Ag   2.708790452389812   2.453946930372049  12.707734028696803 1
ion Ag   2.710917290285098   7.360416037951884  15.022814895551905 1
ion Ag   0.001832941799121   3.277651028531814  17.408148610021492 1
ion Ag  -0.001423320828833   8.146978051205712  19.655196926665070 1
ion Ag   2.707296847566186   4.101567697568155  22.226511520187415 1

# Forces in Cartesian coordinates:
force Ag   0.000000033392082  -0.000056775043979   0.000078210407388 1
force Ag   0.000008638774208   0.000059402920956  -0.000032451532539 1
force Ag   0.000004953438157   0.000115581684686   0.000085485210281 1
force Ag   0.000006653990383   0.000032027885474   0.000068317618011 1
force Ag   0.000005068190993   0.000066316585810   0.000026526263173 1
force Ag   0.000003898531717   0.000008437278841  -0.000062854207502 1
force Ag   0.000003783133775   0.000005337180188   0.000050421449085 1
force Ag   0.000002018935946  -0.000019876574339   0.000177832382840 1
force Ag   0.000000904884159  -0.000038562447503   0.000107613573636 1
force Ag   0.000000571038225  -0.000057173050657  -0.000009790808178 1
force Ag   0.000001941194484  -0.000052622878707   0.000007557881565 1

# Energy components:
   A_diel =       -0.2426060841634721
   Eewald =    14653.8268663491635380
       EH =    16161.2125937124837947
     Eloc =   -32693.5212485074080178
      Enl =       43.3478737406763912
     EvdW =       -0.1646713162219290
      Exc =     -159.5359238730853235
 Exc_core =        2.2898750178925535
       KE =      369.0115590883193590
  MuShift =       -0.0394544362658271
-------------------------------------
     Etot =    -1623.8151363086080892
       TS =        0.0003093530545889
-------------------------------------
        F =    -1623.8154456616625794
      muN =      -20.5093501102125622
-------------------------------------
        G =    -1603.3060955514499710


Dumping 'jdft.fillings' ... done
Dumping 'jdft.wfns' ... done
Dumping 'jdft.fluidState' ... done
Dumping 'jdft.ionpos' ... done
Dumping 'jdft.lattice' ... done
Dumping 'jdft.eigenvals' ... done
Dumping 'jdft.eigStats' ... 
	eMin: -3.481888 at state 0 ( [ +0.000000 +0.000000 +0.000000 ] spin 1 )
	HOMO: -0.098079 at state 63 ( [ -0.307692 +0.000000 +0.000000 ] spin 1 )
	mu  : -0.097800
	LUMO: -0.097709 at state 53 ( [ -0.461538 -0.428571 +0.000000 ] spin 1 )
	eMax: +0.207955 at state 44 ( [ +0.461538 +0.285714 +0.000000 ] spin 1 )
	HOMO-LUMO gap: +0.000370
	Optical gap  : +0.006722 at state 44 ( [ +0.461538 +0.285714 +0.000000 ] spin 1 )
Dumping 'jdft.Ecomponents' ... done
IonicMinimize: Iter:  10  G: -1603.306095551449971  |grad|_K:  4.940e-05  alpha:  1.000e+00  linmin:  5.038e-01  t[s]:  20022.34
IonicMinimize: Converged (|grad|_K<1.000000e-04).

#--- Lowdin population analysis ---
# oxidation-state Ag -0.170 -0.174 -0.133 -0.032 +0.008 -0.000 +0.001 -0.000 +0.008 -0.032 -0.130
# magnetic-moments Ag -0.000 -0.000 -0.000 +0.000 +0.000 -0.000 -0.000 +0.000 -0.000 +0.000 +0.000


Dumping 'jdft.n_up' ... done
Dumping 'jdft.n_dn' ... done
Dumping 'jdft.tau_up' ... done
Dumping 'jdft.tau_dn' ... done
Dumping 'jdft.eigenvals' ... done
Dumping 'jdft.eigStats' ... 
	eMin: -3.481888 at state 0 ( [ +0.000000 +0.000000 +0.000000 ] spin 1 )
	HOMO: -0.098079 at state 63 ( [ -0.307692 +0.000000 +0.000000 ] spin 1 )
	mu  : -0.097800
	LUMO: -0.097709 at state 53 ( [ -0.461538 -0.428571 +0.000000 ] spin 1 )
	eMax: +0.207955 at state 44 ( [ +0.461538 +0.285714 +0.000000 ] spin 1 )
	HOMO-LUMO gap: +0.000370
	Optical gap  : +0.006722 at state 44 ( [ +0.461538 +0.285714 +0.000000 ] spin 1 )
Dumping 'jdft.kPts' ... done
Dumping 'jdft.dosUp' ... done.
Dumping 'jdft.dosDn' ... done.
End date and time: Mon Dec  6 22:51:10 2021  (Duration: 0-5:34:19.64)
Done!
