
*************** JDFTx 1.6.0  ***************

Start date and time: Thu Feb 17 14:48:08 2022
Executable /projects/musgravc/apps/jdftx-1.6.1/build/jdftx with command-line: -i in
Running on hosts (process indices):  shas0802.rc.int.colorado.edu (0-23)
Divided in process groups (process indices):  0 (0)  1 (1)  2 (2)  3 (3)  4 (4)  5 (5)  6 (6)  7 (7)  8 (8)  9 (9)  10 (10)  11 (11)  12 (12)  13 (13)  14 (14)  15 (15)  16 (16)  17 (17)  18 (18)  19 (19)  20 (20)  21 (21)  22 (22)  23 (23)
Resource initialization completed at t[s]:      0.00
Run totals: 24 processes, 24 threads, 0 GPUs


Input parsed successfully to the following command list (including defaults):

basis kpoint-dependent
converge-empty-states yes
coords-type Cartesian
core-overlap-check none
coulomb-interaction Periodic
davidson-band-ratio 1.1
density-of-states Etol 1.000000e-06 Esigma 1.000000e-03 \
		Complete \
	Total \
	OrthoOrbital Ag 1   s \
	OrthoOrbital Ag 1   p \
	OrthoOrbital Ag 1   px \
	OrthoOrbital Ag 1   py \
	OrthoOrbital Ag 1   pz \
	OrthoOrbital Ag 1   d \
	OrthoOrbital Ag 1   dxy \
	OrthoOrbital Ag 1   dyz \
	OrthoOrbital Ag 1   dz2 \
	OrthoOrbital Ag 1   dxz \
	OrthoOrbital Ag 1   dx2-y2 \
	OrthoOrbital Ag 2   s \
	OrthoOrbital Ag 2   p \
	OrthoOrbital Ag 2   px \
	OrthoOrbital Ag 2   py \
	OrthoOrbital Ag 2   pz \
	OrthoOrbital Ag 2   d \
	OrthoOrbital Ag 2   dxy \
	OrthoOrbital Ag 2   dyz \
	OrthoOrbital Ag 2   dz2 \
	OrthoOrbital Ag 2   dxz \
	OrthoOrbital Ag 2   dx2-y2 \
	OrthoOrbital Ag 3   s \
	OrthoOrbital Ag 3   p \
	OrthoOrbital Ag 3   px \
	OrthoOrbital Ag 3   py \
	OrthoOrbital Ag 3   pz \
	OrthoOrbital Ag 3   d \
	OrthoOrbital Ag 3   dxy \
	OrthoOrbital Ag 3   dyz \
	OrthoOrbital Ag 3   dz2 \
	OrthoOrbital Ag 3   dxz \
	OrthoOrbital Ag 3   dx2-y2 \
	OrthoOrbital Ag 4   s \
	OrthoOrbital Ag 4   p \
	OrthoOrbital Ag 4   px \
	OrthoOrbital Ag 4   py \
	OrthoOrbital Ag 4   pz \
	OrthoOrbital Ag 4   d \
	OrthoOrbital Ag 4   dxy \
	OrthoOrbital Ag 4   dyz \
	OrthoOrbital Ag 4   dz2 \
	OrthoOrbital Ag 4   dxz \
	OrthoOrbital Ag 4   dx2-y2 \
	OrthoOrbital Ag 5   s \
	OrthoOrbital Ag 5   p \
	OrthoOrbital Ag 5   px \
	OrthoOrbital Ag 5   py \
	OrthoOrbital Ag 5   pz \
	OrthoOrbital Ag 5   d \
	OrthoOrbital Ag 5   dxy \
	OrthoOrbital Ag 5   dyz \
	OrthoOrbital Ag 5   dz2 \
	OrthoOrbital Ag 5   dxz \
	OrthoOrbital Ag 5   dx2-y2 \
	OrthoOrbital Ag 6   s \
	OrthoOrbital Ag 6   p \
	OrthoOrbital Ag 6   px \
	OrthoOrbital Ag 6   py \
	OrthoOrbital Ag 6   pz \
	OrthoOrbital Ag 6   d \
	OrthoOrbital Ag 6   dxy \
	OrthoOrbital Ag 6   dyz \
	OrthoOrbital Ag 6   dz2 \
	OrthoOrbital Ag 6   dxz \
	OrthoOrbital Ag 6   dx2-y2 \
	OrthoOrbital Ag 7   s \
	OrthoOrbital Ag 7   p \
	OrthoOrbital Ag 7   px \
	OrthoOrbital Ag 7   py \
	OrthoOrbital Ag 7   pz \
	OrthoOrbital Ag 7   d \
	OrthoOrbital Ag 7   dxy \
	OrthoOrbital Ag 7   dyz \
	OrthoOrbital Ag 7   dz2 \
	OrthoOrbital Ag 7   dxz \
	OrthoOrbital Ag 7   dx2-y2 \
	OrthoOrbital Ag 8   s \
	OrthoOrbital Ag 8   p \
	OrthoOrbital Ag 8   px \
	OrthoOrbital Ag 8   py \
	OrthoOrbital Ag 8   pz \
	OrthoOrbital Ag 8   d \
	OrthoOrbital Ag 8   dxy \
	OrthoOrbital Ag 8   dyz \
	OrthoOrbital Ag 8   dz2 \
	OrthoOrbital Ag 8   dxz \
	OrthoOrbital Ag 8   dx2-y2 \
	OrthoOrbital Ag 9   s \
	OrthoOrbital Ag 9   p \
	OrthoOrbital Ag 9   px \
	OrthoOrbital Ag 9   py \
	OrthoOrbital Ag 9   pz \
	OrthoOrbital Ag 9   d \
	OrthoOrbital Ag 9   dxy \
	OrthoOrbital Ag 9   dyz \
	OrthoOrbital Ag 9   dz2 \
	OrthoOrbital Ag 9   dxz \
	OrthoOrbital Ag 9   dx2-y2 \
	OrthoOrbital Ag 10   s \
	OrthoOrbital Ag 10   p \
	OrthoOrbital Ag 10   px \
	OrthoOrbital Ag 10   py \
	OrthoOrbital Ag 10   pz \
	OrthoOrbital Ag 10   d \
	OrthoOrbital Ag 10   dxy \
	OrthoOrbital Ag 10   dyz \
	OrthoOrbital Ag 10   dz2 \
	OrthoOrbital Ag 10   dxz \
	OrthoOrbital Ag 10   dx2-y2 \
	OrthoOrbital Ag 11   s \
	OrthoOrbital Ag 11   p \
	OrthoOrbital Ag 11   px \
	OrthoOrbital Ag 11   py \
	OrthoOrbital Ag 11   pz \
	OrthoOrbital Ag 11   d \
	OrthoOrbital Ag 11   dxy \
	OrthoOrbital Ag 11   dyz \
	OrthoOrbital Ag 11   dz2 \
	OrthoOrbital Ag 11   dxz \
	OrthoOrbital Ag 11   dx2-y2 \
	OrthoOrbital Ag 12   s \
	OrthoOrbital Ag 12   p \
	OrthoOrbital Ag 12   px \
	OrthoOrbital Ag 12   py \
	OrthoOrbital Ag 12   pz \
	OrthoOrbital Ag 12   d \
	OrthoOrbital Ag 12   dxy \
	OrthoOrbital Ag 12   dyz \
	OrthoOrbital Ag 12   dz2 \
	OrthoOrbital Ag 12   dxz \
	OrthoOrbital Ag 12   dx2-y2 \
	OrthoOrbital Ag 13   s \
	OrthoOrbital Ag 13   p \
	OrthoOrbital Ag 13   px \
	OrthoOrbital Ag 13   py \
	OrthoOrbital Ag 13   pz \
	OrthoOrbital Ag 13   d \
	OrthoOrbital Ag 13   dxy \
	OrthoOrbital Ag 13   dyz \
	OrthoOrbital Ag 13   dz2 \
	OrthoOrbital Ag 13   dxz \
	OrthoOrbital Ag 13   dx2-y2 \
	OrthoOrbital Ag 14   s \
	OrthoOrbital Ag 14   p \
	OrthoOrbital Ag 14   px \
	OrthoOrbital Ag 14   py \
	OrthoOrbital Ag 14   pz \
	OrthoOrbital Ag 14   d \
	OrthoOrbital Ag 14   dxy \
	OrthoOrbital Ag 14   dyz \
	OrthoOrbital Ag 14   dz2 \
	OrthoOrbital Ag 14   dxz \
	OrthoOrbital Ag 14   dx2-y2 \
	OrthoOrbital Ag 15   s \
	OrthoOrbital Ag 15   p \
	OrthoOrbital Ag 15   px \
	OrthoOrbital Ag 15   py \
	OrthoOrbital Ag 15   pz \
	OrthoOrbital Ag 15   d \
	OrthoOrbital Ag 15   dxy \
	OrthoOrbital Ag 15   dyz \
	OrthoOrbital Ag 15   dz2 \
	OrthoOrbital Ag 15   dxz \
	OrthoOrbital Ag 15   dx2-y2 \
	OrthoOrbital Ag 16   s \
	OrthoOrbital Ag 16   p \
	OrthoOrbital Ag 16   px \
	OrthoOrbital Ag 16   py \
	OrthoOrbital Ag 16   pz \
	OrthoOrbital Ag 16   d \
	OrthoOrbital Ag 16   dxy \
	OrthoOrbital Ag 16   dyz \
	OrthoOrbital Ag 16   dz2 \
	OrthoOrbital Ag 16   dxz \
	OrthoOrbital Ag 16   dx2-y2 \
	OrthoOrbital Ag 17   s \
	OrthoOrbital Ag 17   p \
	OrthoOrbital Ag 17   px \
	OrthoOrbital Ag 17   py \
	OrthoOrbital Ag 17   pz \
	OrthoOrbital Ag 17   d \
	OrthoOrbital Ag 17   dxy \
	OrthoOrbital Ag 17   dyz \
	OrthoOrbital Ag 17   dz2 \
	OrthoOrbital Ag 17   dxz \
	OrthoOrbital Ag 17   dx2-y2 \
	OrthoOrbital Ag 18   s \
	OrthoOrbital Ag 18   p \
	OrthoOrbital Ag 18   px \
	OrthoOrbital Ag 18   py \
	OrthoOrbital Ag 18   pz \
	OrthoOrbital Ag 18   d \
	OrthoOrbital Ag 18   dxy \
	OrthoOrbital Ag 18   dyz \
	OrthoOrbital Ag 18   dz2 \
	OrthoOrbital Ag 18   dxz \
	OrthoOrbital Ag 18   dx2-y2 \
	OrthoOrbital Ag 19   s \
	OrthoOrbital Ag 19   p \
	OrthoOrbital Ag 19   px \
	OrthoOrbital Ag 19   py \
	OrthoOrbital Ag 19   pz \
	OrthoOrbital Ag 19   d \
	OrthoOrbital Ag 19   dxy \
	OrthoOrbital Ag 19   dyz \
	OrthoOrbital Ag 19   dz2 \
	OrthoOrbital Ag 19   dxz \
	OrthoOrbital Ag 19   dx2-y2 \
	OrthoOrbital Ag 20   s \
	OrthoOrbital Ag 20   p \
	OrthoOrbital Ag 20   px \
	OrthoOrbital Ag 20   py \
	OrthoOrbital Ag 20   pz \
	OrthoOrbital Ag 20   d \
	OrthoOrbital Ag 20   dxy \
	OrthoOrbital Ag 20   dyz \
	OrthoOrbital Ag 20   dz2 \
	OrthoOrbital Ag 20   dxz \
	OrthoOrbital Ag 20   dx2-y2 \
	OrthoOrbital Ag 21   s \
	OrthoOrbital Ag 21   p \
	OrthoOrbital Ag 21   px \
	OrthoOrbital Ag 21   py \
	OrthoOrbital Ag 21   pz \
	OrthoOrbital Ag 21   d \
	OrthoOrbital Ag 21   dxy \
	OrthoOrbital Ag 21   dyz \
	OrthoOrbital Ag 21   dz2 \
	OrthoOrbital Ag 21   dxz \
	OrthoOrbital Ag 21   dx2-y2 \
	OrthoOrbital Ag 22   s \
	OrthoOrbital Ag 22   p \
	OrthoOrbital Ag 22   px \
	OrthoOrbital Ag 22   py \
	OrthoOrbital Ag 22   pz \
	OrthoOrbital Ag 22   d \
	OrthoOrbital Ag 22   dxy \
	OrthoOrbital Ag 22   dyz \
	OrthoOrbital Ag 22   dz2 \
	OrthoOrbital Ag 22   dxz \
	OrthoOrbital Ag 22   dx2-y2 \
	OrthoOrbital Ag 23   s \
	OrthoOrbital Ag 23   p \
	OrthoOrbital Ag 23   px \
	OrthoOrbital Ag 23   py \
	OrthoOrbital Ag 23   pz \
	OrthoOrbital Ag 23   d \
	OrthoOrbital Ag 23   dxy \
	OrthoOrbital Ag 23   dyz \
	OrthoOrbital Ag 23   dz2 \
	OrthoOrbital Ag 23   dxz \
	OrthoOrbital Ag 23   dx2-y2 \
	OrthoOrbital Ag 24   s \
	OrthoOrbital Ag 24   p \
	OrthoOrbital Ag 24   px \
	OrthoOrbital Ag 24   py \
	OrthoOrbital Ag 24   pz \
	OrthoOrbital Ag 24   d \
	OrthoOrbital Ag 24   dxy \
	OrthoOrbital Ag 24   dyz \
	OrthoOrbital Ag 24   dz2 \
	OrthoOrbital Ag 24   dxz \
	OrthoOrbital Ag 24   dx2-y2 \
	OrthoOrbital Ag 25   s \
	OrthoOrbital Ag 25   p \
	OrthoOrbital Ag 25   px \
	OrthoOrbital Ag 25   py \
	OrthoOrbital Ag 25   pz \
	OrthoOrbital Ag 25   d \
	OrthoOrbital Ag 25   dxy \
	OrthoOrbital Ag 25   dyz \
	OrthoOrbital Ag 25   dz2 \
	OrthoOrbital Ag 25   dxz \
	OrthoOrbital Ag 25   dx2-y2 \
	OrthoOrbital Ag 26   s \
	OrthoOrbital Ag 26   p \
	OrthoOrbital Ag 26   px \
	OrthoOrbital Ag 26   py \
	OrthoOrbital Ag 26   pz \
	OrthoOrbital Ag 26   d \
	OrthoOrbital Ag 26   dxy \
	OrthoOrbital Ag 26   dyz \
	OrthoOrbital Ag 26   dz2 \
	OrthoOrbital Ag 26   dxz \
	OrthoOrbital Ag 26   dx2-y2 \
	OrthoOrbital Ag 27   s \
	OrthoOrbital Ag 27   p \
	OrthoOrbital Ag 27   px \
	OrthoOrbital Ag 27   py \
	OrthoOrbital Ag 27   pz \
	OrthoOrbital Ag 27   d \
	OrthoOrbital Ag 27   dxy \
	OrthoOrbital Ag 27   dyz \
	OrthoOrbital Ag 27   dz2 \
	OrthoOrbital Ag 27   dxz \
	OrthoOrbital Ag 27   dx2-y2 \
	OrthoOrbital Ag 28   s \
	OrthoOrbital Ag 28   p \
	OrthoOrbital Ag 28   px \
	OrthoOrbital Ag 28   py \
	OrthoOrbital Ag 28   pz \
	OrthoOrbital Ag 28   d \
	OrthoOrbital Ag 28   dxy \
	OrthoOrbital Ag 28   dyz \
	OrthoOrbital Ag 28   dz2 \
	OrthoOrbital Ag 28   dxz \
	OrthoOrbital Ag 28   dx2-y2 \
	OrthoOrbital Ag 29   s \
	OrthoOrbital Ag 29   p \
	OrthoOrbital Ag 29   px \
	OrthoOrbital Ag 29   py \
	OrthoOrbital Ag 29   pz \
	OrthoOrbital Ag 29   d \
	OrthoOrbital Ag 29   dxy \
	OrthoOrbital Ag 29   dyz \
	OrthoOrbital Ag 29   dz2 \
	OrthoOrbital Ag 29   dxz \
	OrthoOrbital Ag 29   dx2-y2 \
	OrthoOrbital Ag 30   s \
	OrthoOrbital Ag 30   p \
	OrthoOrbital Ag 30   px \
	OrthoOrbital Ag 30   py \
	OrthoOrbital Ag 30   pz \
	OrthoOrbital Ag 30   d \
	OrthoOrbital Ag 30   dxy \
	OrthoOrbital Ag 30   dyz \
	OrthoOrbital Ag 30   dz2 \
	OrthoOrbital Ag 30   dxz \
	OrthoOrbital Ag 30   dx2-y2 \
	OrthoOrbital Ag 31   s \
	OrthoOrbital Ag 31   p \
	OrthoOrbital Ag 31   px \
	OrthoOrbital Ag 31   py \
	OrthoOrbital Ag 31   pz \
	OrthoOrbital Ag 31   d \
	OrthoOrbital Ag 31   dxy \
	OrthoOrbital Ag 31   dyz \
	OrthoOrbital Ag 31   dz2 \
	OrthoOrbital Ag 31   dxz \
	OrthoOrbital Ag 31   dx2-y2 \
	OrthoOrbital Ag 32   s \
	OrthoOrbital Ag 32   p \
	OrthoOrbital Ag 32   px \
	OrthoOrbital Ag 32   py \
	OrthoOrbital Ag 32   pz \
	OrthoOrbital Ag 32   d \
	OrthoOrbital Ag 32   dxy \
	OrthoOrbital Ag 32   dyz \
	OrthoOrbital Ag 32   dz2 \
	OrthoOrbital Ag 32   dxz \
	OrthoOrbital Ag 32   dx2-y2 \
	OrthoOrbital Ag 33   s \
	OrthoOrbital Ag 33   p \
	OrthoOrbital Ag 33   px \
	OrthoOrbital Ag 33   py \
	OrthoOrbital Ag 33   pz \
	OrthoOrbital Ag 33   d \
	OrthoOrbital Ag 33   dxy \
	OrthoOrbital Ag 33   dyz \
	OrthoOrbital Ag 33   dz2 \
	OrthoOrbital Ag 33   dxz \
	OrthoOrbital Ag 33   dx2-y2 \
	OrthoOrbital Ag 34   s \
	OrthoOrbital Ag 34   p \
	OrthoOrbital Ag 34   px \
	OrthoOrbital Ag 34   py \
	OrthoOrbital Ag 34   pz \
	OrthoOrbital Ag 34   d \
	OrthoOrbital Ag 34   dxy \
	OrthoOrbital Ag 34   dyz \
	OrthoOrbital Ag 34   dz2 \
	OrthoOrbital Ag 34   dxz \
	OrthoOrbital Ag 34   dx2-y2 \
	OrthoOrbital Ag 35   s \
	OrthoOrbital Ag 35   p \
	OrthoOrbital Ag 35   px \
	OrthoOrbital Ag 35   py \
	OrthoOrbital Ag 35   pz \
	OrthoOrbital Ag 35   d \
	OrthoOrbital Ag 35   dxy \
	OrthoOrbital Ag 35   dyz \
	OrthoOrbital Ag 35   dz2 \
	OrthoOrbital Ag 35   dxz \
	OrthoOrbital Ag 35   dx2-y2 \
	OrthoOrbital Ag 36   s \
	OrthoOrbital Ag 36   p \
	OrthoOrbital Ag 36   px \
	OrthoOrbital Ag 36   py \
	OrthoOrbital Ag 36   pz \
	OrthoOrbital Ag 36   d \
	OrthoOrbital Ag 36   dxy \
	OrthoOrbital Ag 36   dyz \
	OrthoOrbital Ag 36   dz2 \
	OrthoOrbital Ag 36   dxz \
	OrthoOrbital Ag 36   dx2-y2 \
	OrthoOrbital Ag 37   s \
	OrthoOrbital Ag 37   p \
	OrthoOrbital Ag 37   px \
	OrthoOrbital Ag 37   py \
	OrthoOrbital Ag 37   pz \
	OrthoOrbital Ag 37   d \
	OrthoOrbital Ag 37   dxy \
	OrthoOrbital Ag 37   dyz \
	OrthoOrbital Ag 37   dz2 \
	OrthoOrbital Ag 37   dxz \
	OrthoOrbital Ag 37   dx2-y2 \
	OrthoOrbital Ag 38   s \
	OrthoOrbital Ag 38   p \
	OrthoOrbital Ag 38   px \
	OrthoOrbital Ag 38   py \
	OrthoOrbital Ag 38   pz \
	OrthoOrbital Ag 38   d \
	OrthoOrbital Ag 38   dxy \
	OrthoOrbital Ag 38   dyz \
	OrthoOrbital Ag 38   dz2 \
	OrthoOrbital Ag 38   dxz \
	OrthoOrbital Ag 38   dx2-y2 \
	OrthoOrbital Ag 39   s \
	OrthoOrbital Ag 39   p \
	OrthoOrbital Ag 39   px \
	OrthoOrbital Ag 39   py \
	OrthoOrbital Ag 39   pz \
	OrthoOrbital Ag 39   d \
	OrthoOrbital Ag 39   dxy \
	OrthoOrbital Ag 39   dyz \
	OrthoOrbital Ag 39   dz2 \
	OrthoOrbital Ag 39   dxz \
	OrthoOrbital Ag 39   dx2-y2 \
	OrthoOrbital Ag 40   s \
	OrthoOrbital Ag 40   p \
	OrthoOrbital Ag 40   px \
	OrthoOrbital Ag 40   py \
	OrthoOrbital Ag 40   pz \
	OrthoOrbital Ag 40   d \
	OrthoOrbital Ag 40   dxy \
	OrthoOrbital Ag 40   dyz \
	OrthoOrbital Ag 40   dz2 \
	OrthoOrbital Ag 40   dxz \
	OrthoOrbital Ag 40   dx2-y2 \
	OrthoOrbital C 1   s \
	OrthoOrbital C 1   p \
	OrthoOrbital C 1   px \
	OrthoOrbital C 1   py \
	OrthoOrbital C 1   pz \
	OrthoOrbital O 1   s \
	OrthoOrbital O 1   p \
	OrthoOrbital O 1   px \
	OrthoOrbital O 1   py \
	OrthoOrbital O 1   pz
dump End ElecDensity KEdensity BandEigs EigStats RhoAtom DOS Kpoints
dump Ionic State IonicPositions Lattice EigStats Ecomponents
dump 
dump 
dump 
dump 
dump 
dump 
dump 
dump 
dump-name jdft.$VAR
elec-cutoff 20
elec-eigen-algo Davidson
elec-ex-corr gga-PBE
elec-initial-magnetization 0.000000 no
elec-n-bands 462
elec-smearing Fermi 0.001
electronic-minimize  \
	dirUpdateScheme      FletcherReeves \
	linminMethod         DirUpdateRecommended \
	nIterations          100 \
	history              15 \
	knormThreshold       0 \
	energyDiffThreshold  1e-07 \
	nEnergyDiff          2 \
	alphaTstart          1 \
	alphaTmin            1e-10 \
	updateTestStepSize   yes \
	alphaTreduceFactor   0.1 \
	alphaTincreaseFactor 3 \
	nAlphaAdjustMax      3 \
	wolfeEnergy          0.0001 \
	wolfeGradient        0.9 \
	fdTest               no
exchange-regularization WignerSeitzTruncated
fluid LinearPCM 298.000000 1.013250
fluid-anion F- 0.5 MeanFieldLJ \
	epsBulk 1 \
	pMol 0 \
	epsInf 1 \
	Pvap 0 \
	sigmaBulk 0 \
	Rvdw 2.24877 \
	Res 0 \
	tauNuc 343133
fluid-cation Na+ 0.5 MeanFieldLJ \
	epsBulk 1 \
	pMol 0 \
	epsInf 1 \
	Pvap 0 \
	sigmaBulk 0 \
	Rvdw 2.19208 \
	Res 0 \
	tauNuc 343133
fluid-ex-corr lda-TF lda-PZ
fluid-gummel-loop 10 1.000000e-05
fluid-minimize  \
	dirUpdateScheme      PolakRibiere \
	linminMethod         DirUpdateRecommended \
	nIterations          400 \
	history              15 \
	knormThreshold       1e-11 \
	energyDiffThreshold  0 \
	nEnergyDiff          2 \
	alphaTstart          1 \
	alphaTmin            1e-10 \
	updateTestStepSize   yes \
	alphaTreduceFactor   0.1 \
	alphaTincreaseFactor 3 \
	nAlphaAdjustMax      6 \
	wolfeEnergy          0.0001 \
	wolfeGradient        0.9 \
	fdTest               no
fluid-solvent H2O 55.338 ScalarEOS \
	epsBulk 78.4 \
	pMol 0.92466 \
	epsInf 1.77 \
	Pvap 1.06736e-10 \
	sigmaBulk 4.62e-05 \
	Rvdw 2.61727 \
	Res 1.42 \
	tauNuc 343133 \
	poleEl 15 7 1
forces-output-coords Positions
ion Ag   3.835417000000000   1.682334000000000  13.043153000000000 0
ion Ag   0.002582000000000  10.252812000000002  13.043153000000000 0
ion Ag  11.501085999999999   1.682334000000000  13.043153000000000 0
ion Ag   7.668251000000000  10.252812000000002  13.043153000000000 0
ion Ag  -0.000736000000000   3.395349000000000   9.424063000000000 0
ion Ag  -3.833556000000000  11.965828000000002   9.424063000000000 0
ion Ag   7.664932000000000   3.395349000000000   9.424063000000000 0
ion Ag   3.832112000000000  11.965828000000002   9.424063000000000 0
ion Ag   3.832742000000000   5.197413000000001   5.972663000000000 0
ion Ag  -0.000094000000000  13.767891000000002   5.972663000000000 0
ion Ag  11.498410000000000   5.197413000000001   5.972663000000000 0
ion Ag   7.665575000000000  13.767891000000002   5.972663000000000 0
ion Ag  -0.002722000000000   6.958834000000002   2.379593000000000 0
ion Ag  -3.835557000000001  15.529313000000004   2.379593000000000 0
ion Ag   7.662945999999999   6.958834000000002   2.379593000000000 0
ion Ag   3.830110999999999  15.529313000000004   2.379593000000000 0
ion Ag   7.669207999999998  17.005235000000003  16.291689999999999 0
ion Ag  11.502043000000000   8.434757000000001  16.291689999999999 0
ion Ag   0.003540000000000  17.005235000000003  16.291689999999999 0
ion Ag   3.836374999999999   8.434757000000001  16.291689999999999 0
ion Ag   3.833408000000000   6.801035000000001  11.168018000000000 0
ion Ag   0.000580999999999  15.371531000000001  11.168018000000000 0
ion Ag  11.499076999999998   6.801035000000001  11.168018000000000 0
ion Ag   7.666249000000000  15.371531000000001  11.168018000000000 0
ion Ag   3.833056000000000   0.031488000000000   7.715897999999999 0
ion Ag   0.000220999999999   8.601967000000002   7.715897999999999 0
ion Ag  11.498725000000000   0.031488000000000   7.715897999999999 0
ion Ag   7.665889999999999   8.601967000000002   7.715897999999999 0
ion Ag  -0.003434000000000   1.745429000000000   4.098042000000000 0
ion Ag  -3.836277000000000  10.315891000000002   4.098042000000000 0
ion Ag   7.662233999999999   1.745429000000000   4.098042000000000 0
ion Ag   3.829406000000000  10.315891000000002   4.098042000000000 0
ion Ag   3.830595000000000   3.565593000000000   0.850020000000000 0
ion Ag  -0.002240000000000  12.136072000000002   0.850020000000000 0
ion Ag  11.496263999999998   3.565593000000000   0.850020000000000 0
ion Ag   7.663429000000000  12.136072000000002   0.850020000000000 0
ion Ag   0.002330000000000   5.040161000000001  14.761654000000000 0
ion Ag  -3.830505000000001  13.610640000000002  14.761654000000000 0
ion Ag   7.667997999999999   5.040161000000001  14.761654000000000 0
ion Ag   3.835162999999999  13.610640000000002  14.761654000000000 0
ion C   0.002728000000000   9.028518999999999  16.480000000000000 1  Linear 0 0 1
ion O   0.062827000000000   9.028518999999999  18.635338000000001 1  Linear 0 0 1
ion-species /projects/musgravc/apps/jdftx-1.6.0/build/pseudopotentials/GBRV_v1.5/$ID_pbe_v1.uspp
ion-species /projects/musgravc/apps/jdftx-1.6.0/build/pseudopotentials/GBRV_v1.5/$ID_pbe_v1.2.uspp
ion-species /projects/musgravc/apps/jdftx-1.6.0/build/pseudopotentials/GBRV_v1.5/$ID_pbe_v1.4.uspp
ion-species /projects/musgravc/apps/jdftx-1.6.0/build/pseudopotentials/GBRV_v1.5/$ID_pbe_v1.5.uspp
ion-width Ecut
ionic-minimize  \
	dirUpdateScheme      L-BFGS \
	linminMethod         DirUpdateRecommended \
	nIterations          100 \
	history              15 \
	knormThreshold       0.0001 \
	energyDiffThreshold  1e-06 \
	nEnergyDiff          2 \
	alphaTstart          1 \
	alphaTmin            1e-10 \
	updateTestStepSize   yes \
	alphaTreduceFactor   0.1 \
	alphaTincreaseFactor 3 \
	nAlphaAdjustMax      3 \
	wolfeEnergy          0.0001 \
	wolfeGradient        0.9 \
	fdTest               no
kpoint   0.000000000000   0.000000000000   0.000000000000  1.00000000000000
kpoint-folding 4 3 1 
latt-move-scale 0 0 0
latt-scale 1 1 1 
lattice  \
	  15.331337000000000   -7.665670000000000    0.000000000000000  \
	   0.000000000000000   17.140957000000000    0.000000000000000  \
	   0.000000000000000    0.000000000000000   51.422865999999999 
lattice-minimize  \
	dirUpdateScheme      L-BFGS \
	linminMethod         DirUpdateRecommended \
	nIterations          0 \
	history              15 \
	knormThreshold       0 \
	energyDiffThreshold  1e-06 \
	nEnergyDiff          2 \
	alphaTstart          1 \
	alphaTmin            1e-10 \
	updateTestStepSize   yes \
	alphaTreduceFactor   0.1 \
	alphaTincreaseFactor 3 \
	nAlphaAdjustMax      3 \
	wolfeEnergy          0.0001 \
	wolfeGradient        0.9 \
	fdTest               no
lcao-params 30 1e-06 0.001
pcm-variant CANDLE
spintype z-spin
subspace-rotation-factor 1 yes
symmetries automatic
symmetry-threshold 0.0001
van-der-waals D3



---------- Setting up symmetries ----------

Found 8 point-group symmetries of the bravais lattice
Found 1 space-group symmetries with basis
Applied RMS atom displacement 0 bohrs to make symmetries exact.

---------- Initializing the Grid ----------
R = 
[      15.3313     -7.66567            0  ]
[            0       17.141            0  ]
[            0            0      51.4229  ]
unit cell volume = 13513.6
G =
[   0.409826    0.18328         -0  ]
[          0    0.36656          0  ]
[          0         -0   0.122187  ]
Minimum fftbox size, Smin = [  64  76  208  ]
Chosen fftbox size, S = [  64  80  210  ]

---------- Exchange Correlation functional ----------
Initalized PBE GGA exchange.
Initalized PBE GGA correlation.

---------- Setting up pseudopotentials ----------
Width of ionic core gaussian charges (only for fluid interactions / plotting) set to 0.397384

Reading pseudopotential file '/projects/musgravc/apps/jdftx-1.6.0/build/pseudopotentials/GBRV_v1.5/ag_pbe_v1.4.uspp':
  Title: Ag.  Created by USPP 7.3.6 on 1-4-15
  Reference state energy: -147.606242.  19 valence electrons in orbitals:
    |400>  occupation: 2  eigenvalue: -3.637437
    |410>  occupation: 6  eigenvalue: -2.297267
    |420>  occupation: 10  eigenvalue: -0.417763
    |500>  occupation: 0.5  eigenvalue: -0.283525
    |510>  occupation: 0  eigenvalue: -0.122889
  lMax: 2  lLocal: 0  QijEcut: 5.5
  6 projectors sampled on a log grid with 717 points:
    l: 0  eig: -0.283528  rCut: 1.5
    l: 0  eig: -3.637440  rCut: 1.5
    l: 1  eig: -0.122892  rCut: 1.5
    l: 1  eig: -2.297267  rCut: 1.5
    l: 2  eig: -0.417762  rCut: 1.7
    l: 2  eig: -1.000000  rCut: 1.7
  Partial core density with radius 1.2
  Transforming core density to a uniform radial grid of dG=0.02 with 1382 points.
  Transforming local potential to a uniform radial grid of dG=0.02 with 1382 points.
  Transforming nonlocal projectors to a uniform radial grid of dG=0.02 with 432 points.
  Transforming density augmentations to a uniform radial grid of dG=0.02 with 1382 points.
  Transforming atomic orbitals to a uniform radial grid of dG=0.02 with 432 points.
  Core radius for overlap checks: 1.70 bohrs.

Reading pseudopotential file '/projects/musgravc/apps/jdftx-1.6.0/build/pseudopotentials/GBRV_v1.5/c_pbe_v1.2.uspp':
  Title: C.  Created by USPP 7.3.6 on 3-2-2014
  Reference state energy: -5.406344.  4 valence electrons in orbitals:
    |200>  occupation: 2  eigenvalue: -0.504890
    |210>  occupation: 2  eigenvalue: -0.194356
  lMax: 1  lLocal: 2  QijEcut: 5
  4 projectors sampled on a log grid with 503 points:
    l: 0  eig: -0.504890  rCut: 1.3
    l: 0  eig: 0.000000  rCut: 1.3
    l: 1  eig: -0.194357  rCut: 1.3
    l: 1  eig: 0.000000  rCut: 1.3
  Partial core density with radius 1.1
  Transforming core density to a uniform radial grid of dG=0.02 with 1382 points.
  Transforming local potential to a uniform radial grid of dG=0.02 with 1382 points.
  Transforming nonlocal projectors to a uniform radial grid of dG=0.02 with 432 points.
  Transforming density augmentations to a uniform radial grid of dG=0.02 with 1382 points.
  Transforming atomic orbitals to a uniform radial grid of dG=0.02 with 432 points.
  Core radius for overlap checks: 1.30 bohrs.

Reading pseudopotential file '/projects/musgravc/apps/jdftx-1.6.0/build/pseudopotentials/GBRV_v1.5/o_pbe_v1.2.uspp':
  Title: O.  Created by USPP 7.3.6 on 3-2-2014
  Reference state energy: -15.894388.  6 valence electrons in orbitals:
    |200>  occupation: 2  eigenvalue: -0.878823
    |210>  occupation: 4  eigenvalue: -0.332131
  lMax: 2  lLocal: 2  QijEcut: 6
  5 projectors sampled on a log grid with 511 points:
    l: 0  eig: -0.878823  rCut: 1.25
    l: 0  eig: 0.000000  rCut: 1.25
    l: 1  eig: -0.332132  rCut: 1.25
    l: 1  eig: 0.000000  rCut: 1.25
    l: 2  eig: 1.000000  rCut: 1.25
  Partial core density with radius 0.7
  Transforming core density to a uniform radial grid of dG=0.02 with 1382 points.
  Transforming local potential to a uniform radial grid of dG=0.02 with 1382 points.
  Transforming nonlocal projectors to a uniform radial grid of dG=0.02 with 432 points.
  Transforming density augmentations to a uniform radial grid of dG=0.02 with 1382 points.
  Transforming atomic orbitals to a uniform radial grid of dG=0.02 with 432 points.
  Core radius for overlap checks: 1.25 bohrs.

Initialized 3 species with 42 total atoms.

Folded 1 k-points by 4x3x1 to 12 k-points.

---------- Setting up k-points, bands, fillings ----------
Adding inversion symmetry to k-mesh for non-inversion-symmetric unit cell.
Reduced to 7 k-points under symmetry. 
Computing the number of bands and number of electrons
Calculating initial fillings.
nElectrons: 770.000000   nBands: 462   nStates: 14

----- Setting up reduced wavefunction bases (one per k-point) -----
average nbasis = 57732.917 , ideal nbasis = 57731.171

----- Initializing Supercell corresponding to k-point mesh -----
Lattice vector linear combinations in supercell:
[   4   0   0  ]
[   0   3   0  ]
[   0   0   1  ]
Supercell lattice vectors:
[  61.3253  -22.997  0  ]
[  0  51.4229  0  ]
[  0  0  51.4229  ]

Initializing DFT-D3 calculator:
	Parameters set for gga-PBE functional
	s6:  1.000  s_r6:  1.217
	s8:  0.722  s_r8:  1.000
	Per-atom parameters loaded for:
	Ag:  sqrtQ[a0]:  5.443  Rcov[a0]:  2.173  CN: [ 0.00 0.97 ]
	 C:  sqrtQ[a0]:  3.105  Rcov[a0]:  1.417  CN: [ 0.00 0.99 2.00 3.00 3.98 ]
	 O:  sqrtQ[a0]:  2.594  Rcov[a0]:  1.191  CN: [ 0.00 0.99 1.99 ]

Initializing DFT-D2 calculator for fluid / solvation:
	Ag:  C6:  427.91 Eh-a0^6  R0: 3.097 a0
	 C:  C6:   30.35 Eh-a0^6  R0: 2.744 a0
	 O:  C6:   12.14 Eh-a0^6  R0: 2.536 a0

---------- Setting up ewald sum ----------
Optimum gaussian width for ewald sums = 5.096738 bohr.
Real space sum over 495 unit cells with max indices [  5  4  2  ]
Reciprocal space sum over 6825 terms with max indices [  6  7  17  ]

Computing DFT-D3 correction:
# coordination-number Ag 8.149 9.172 8.149 8.150 8.779 8.779 8.779 8.779 8.867 8.867 8.867 8.867 6.732 6.732 6.732 6.732 4.847 6.239 4.849 6.326 8.872 8.866 8.872 8.865 8.780 8.781 8.780 8.780 8.150 8.150 8.150 8.150 4.847 4.847 4.847 4.847 7.611 6.758 6.732 6.758
# coordination-number C 4.862
# coordination-number O 2.004
# diagonal-C6 Ag 268.61 268.61 268.61 268.61 268.61 268.61 268.61 268.61 268.61 268.61 268.61 268.61 268.61 268.61 268.61 268.61 268.61 268.61 268.61 268.61 268.61 268.61 268.61 268.61 268.61 268.61 268.61 268.61 268.61 268.61 268.61 268.61 268.61 268.61 268.61 268.61 268.61 268.61 268.61 268.61
# diagonal-C6 C 18.21
# diagonal-C6 O 10.41
EvdW_6 =   -0.221866
EvdW_8 =   -0.316741

---------- Allocating electronic variables ----------
Initializing wave functions:  linear combination of atomic orbitals
Ag pseudo-atom occupations:   s ( 2 1 )  p ( 6 0 )  d ( 10 )
C pseudo-atom occupations:   s ( 2 )  p ( 2 )
O pseudo-atom occupations:   s ( 2 )  p ( 4 )
	FillingsUpdate:  mu: +0.000782119  nElectrons: 770.000000  magneticMoment: [ Abs: 0.00315  Tot: +0.00004 ]
LCAOMinimize: Iter:   0  F: -5924.6226201806266545  |grad|_K:  1.713e-03  alpha:  1.000e+00
	FillingsUpdate:  mu: +0.139479240  nElectrons: 770.000000  magneticMoment: [ Abs: 0.00270  Tot: +0.00004 ]
LCAOMinimize: Iter:   1  F: -5925.1338929337280206  |grad|_K:  1.491e-03  alpha:  1.410e-01  linmin:  3.854e-02  cgtest: -4.523e-01  t[s]:    189.18
	FillingsUpdate:  mu: +0.170853015  nElectrons: 770.000000  magneticMoment: [ Abs: 0.00247  Tot: +0.00001 ]
LCAOMinimize: Iter:   2  F: -5925.2885805554378749  |grad|_K:  9.943e-04  alpha:  5.763e-02  linmin:  7.215e-03  cgtest:  6.711e-01  t[s]:    260.00
LCAOMinimize: Encountered beta<0, resetting CG.
	FillingsUpdate:  mu: +0.092390360  nElectrons: 770.000000  magneticMoment: [ Abs: 0.00247  Tot: -0.00001 ]
LCAOMinimize: Iter:   3  F: -5925.5013954451806057  |grad|_K:  5.025e-04  alpha:  1.182e-01  linmin:  4.396e-02  cgtest: -2.279e-01  t[s]:    331.44
	FillingsUpdate:  mu: +0.083165044  nElectrons: 770.000000  magneticMoment: [ Abs: 0.00242  Tot: +0.00001 ]
LCAOMinimize: Iter:   4  F: -5925.5286151366144622  |grad|_K:  3.555e-04  alpha:  7.071e-02  linmin:  2.479e-04  cgtest:  3.831e-01  t[s]:    402.53
	FillingsUpdate:  mu: +0.118961758  nElectrons: 770.000000  magneticMoment: [ Abs: 0.00226  Tot: -0.00001 ]
LCAOMinimize: Iter:   5  F: -5925.5726013399553267  |grad|_K:  1.856e-04  alpha:  1.724e-01  linmin: -1.527e-02  cgtest: -4.914e-03  t[s]:    473.72
	FillingsUpdate:  mu: +0.116359656  nElectrons: 770.000000  magneticMoment: [ Abs: 0.00222  Tot: -0.00002 ]
LCAOMinimize: Iter:   6  F: -5925.5817127532218365  |grad|_K:  1.922e-04  alpha:  1.274e-01  linmin:  6.079e-05  cgtest: -7.679e-02  t[s]:    544.84
	FillingsUpdate:  mu: +0.108317256  nElectrons: 770.000000  magneticMoment: [ Abs: 0.00217  Tot: -0.00002 ]
LCAOMinimize: Iter:   7  F: -5925.5898225844393892  |grad|_K:  6.596e-05  alpha:  1.123e-01  linmin: -7.479e-04  cgtest:  1.851e-01  t[s]:    616.28
	FillingsUpdate:  mu: +0.112009049  nElectrons: 770.000000  magneticMoment: [ Abs: 0.00216  Tot: -0.00003 ]
LCAOMinimize: Iter:   8  F: -5925.5906425994908204  |grad|_K:  3.770e-05  alpha:  9.620e-02  linmin: -5.612e-04  cgtest: -1.930e-03  t[s]:    687.34
	FillingsUpdate:  mu: +0.113442784  nElectrons: 770.000000  magneticMoment: [ Abs: 0.00215  Tot: -0.00003 ]
LCAOMinimize: Iter:   9  F: -5925.5908291921041382  |grad|_K:  1.419e-05  alpha:  6.690e-02  linmin: -5.512e-05  cgtest: -9.591e-03  t[s]:    758.43
LCAOMinimize: 	Predicted alpha/alphaT>3.000000, increasing alphaT to 2.006972e-01.
	FillingsUpdate:  mu: +0.112361425  nElectrons: 770.000000  magneticMoment: [ Abs: 0.00215  Tot: -0.00003 ]
LCAOMinimize: Iter:  10  F: -5925.5909576778794872  |grad|_K:  1.116e-05  alpha:  3.256e-01  linmin:  3.836e-05  cgtest:  2.331e-03  t[s]:    848.20
	FillingsUpdate:  mu: +0.112453684  nElectrons: 770.000000  magneticMoment: [ Abs: 0.00215  Tot: -0.00003 ]
LCAOMinimize: Iter:  11  F: -5925.5909775092459313  |grad|_K:  7.603e-06  alpha:  8.142e-02  linmin:  2.694e-04  cgtest: -3.362e-03  t[s]:    919.46
	FillingsUpdate:  mu: +0.112815349  nElectrons: 770.000000  magneticMoment: [ Abs: 0.00215  Tot: -0.00003 ]
LCAOMinimize: Iter:  12  F: -5925.5909908168214315  |grad|_K:  3.038e-06  alpha:  1.177e-01  linmin: -1.073e-04  cgtest:  6.304e-03  t[s]:    990.92
	FillingsUpdate:  mu: +0.112609408  nElectrons: 770.000000  magneticMoment: [ Abs: 0.00216  Tot: -0.00003 ]
LCAOMinimize: Iter:  13  F: -5925.5909945874927871  |grad|_K:  2.635e-06  alpha:  2.084e-01  linmin:  2.588e-05  cgtest: -1.137e-03  t[s]:   1062.09
	FillingsUpdate:  mu: +0.112589069  nElectrons: 770.000000  magneticMoment: [ Abs: 0.00216  Tot: -0.00003 ]
LCAOMinimize: Iter:  14  F: -5925.5909956138502821  |grad|_K:  1.600e-06  alpha:  7.551e-02  linmin: -1.973e-05  cgtest:  8.133e-04  t[s]:   1133.25
	FillingsUpdate:  mu: +0.112732404  nElectrons: 770.000000  magneticMoment: [ Abs: 0.00216  Tot: -0.00004 ]
LCAOMinimize: Iter:  15  F: -5925.5909965692899277  |grad|_K:  8.889e-07  alpha:  1.898e-01  linmin: -6.500e-04  cgtest:  4.611e-03  t[s]:   1204.48
	FillingsUpdate:  mu: +0.112688196  nElectrons: 770.000000  magneticMoment: [ Abs: 0.00216  Tot: -0.00004 ]
LCAOMinimize: Iter:  16  F: -5925.5909968747455423  |grad|_K:  9.749e-07  alpha:  1.969e-01  linmin: -2.722e-05  cgtest: -3.003e-03  t[s]:   1275.85
LCAOMinimize: Converged (|Delta F|<1.000000e-06 for 2 iters).
----- createFluidSolver() ----- (Fluid-side solver setup)
   Initializing fluid molecule 'H2O'
     Initializing site 'O'
       Electron density: proportional to exp(-r/0.36935)*erfc((r-0.51523)/0.36823) with norm 6.826
       Charge density: gaussian nuclear width 0.478731 with net site charge 0.826
       Polarizability: cuspless exponential with width 0.32 and norm 3.73
       Hard sphere radius: 2.57003 bohrs
       Positions in reference frame:
         [ +0.000000 +0.000000 +0.000000 ]
     Initializing site 'H'
       Electron density: proportional to exp(-r/0.34641)*erfc((r-0)/0.390882) with norm 0.587
       Charge density: gaussian nuclear width 0.377945 with net site charge -0.413
       Polarizability: cuspless exponential with width 0.39 and norm 3.3
       Positions in reference frame:
         [ +0.000000 -1.441945 +1.122523 ]
         [ +0.000000 +1.441945 +1.122523 ]
     Net charge: 0   dipole magnitude: 0.927204
     Initializing spherical shell mfKernel with radius 2.61727 Bohr
     deltaS corrections:
       site 'O': -7.54299
       site 'H': -6.83917
   Initializing fluid molecule 'Na+'
     Initializing site 'Na'
       Electron density: proportional to exp(-r/0.19682)*erfc((r-0.71491)/0.41314) with norm 8.1383
       Charge density: gaussian nuclear width 0.365347 with net site charge -1
       Hard sphere radius: 1.86327 bohrs
       Positions in reference frame:
         [ +0.000000 +0.000000 +0.000000 ]
     Net charge: -1   dipole magnitude: 0
     Initializing gaussian mfKernel with width: 1.55004 Bohr
     deltaS corrections:
       site 'Na': -22.3555
   Initializing fluid molecule 'F-'
     Initializing site 'F'
       Electron density: proportional to exp(-r/0.38886)*erfc((r-0)/0.438782) with norm 8
       Charge density: gaussian nuclear width 0.374796 with net site charge 1
       Hard sphere radius: 2.39995 bohrs
       Positions in reference frame:
         [ +0.000000 +0.000000 +0.000000 ]
     Net charge: 1   dipole magnitude: 0
     Initializing gaussian mfKernel with width: 1.59012 Bohr
     deltaS corrections:
       site 'F': -9.04335

Correction to mu due to finite nuclear width = -0.0565352
   Cavity determined by nc: 0.00142 and sigma: 0.707107
   Nonlocal vdW cavity from gaussian model electron density with norm = 8 and sigma = 0.993594 bohr
   Charge asymmetry in cavity with sensitivity pCavity = 36.5 e-bohr/Eh
   Electrostatic cavity expanded by eta = 1.46 bohrs
   Weighted density cavitation model constrained by Nbulk: 0.0049383 bohr^-3, Pvap: 3.14029 kPa, Rvdw: 2.61727 bohr and sigmaBulk: 4.62e-05 Eh/bohr^2 at T: 298 K.
   Weighted density dispersion model using vdW pair potentials with single solvent site with sqrtC6eff: 0.77 SI.


---- Citations for features of the code used in this run ----

   Software package:
      R. Sundararaman, K. Letchworth-Weaver, K.A. Schwarz, D. Gunceler, Y. Ozhabes and T.A. Arias, 'JDFTx: software for joint density-functional theory', SoftwareX 6, 278 (2017)

   gga-PBE exchange-correlation functional:
      J.P. Perdew, K. Burke and M. Ernzerhof, Phys. Rev. Lett. 77, 3865 (1996)

   Pseudopotentials:
      KF Garrity, JW Bennett, KM Rabe and D Vanderbilt, Comput. Mater. Sci. 81, 446 (2014)

   DFT-D3 dispersion correction:
      S. Grimme, J. Antony, S. Ehrlich and H. Krieg, J. Chem. Phys. 132, 154104 (2010)

   DFT-D2 dispersion correction:
      S. Grimme, J. Comput. Chem. 27, 1787 (2006)

   Charge-asymmetric nonlocally-determined local-electric (CANDLE) solvation model:
      R. Sundararaman and W.A. Goddard III, J. Chem. Phys. 142, 064107 (2015)

   Total energy minimization with Auxiliary Hamiltonian:
      C. Freysoldt, S. Boeck, and J. Neugebauer, Phys. Rev. B 79, 241103(R) (2009)

   Linear-tetrahedron sampling for density of states:
      G. Lehmann and M. Taut, Phys. status solidi (b) 54, 469 (1972)

This list may not be complete. Please suggest additional citations or
report any other bugs at https://github.com/shankar1729/jdftx/issues

Initialization completed successfully at t[s]:   1300.77


Computing DFT-D3 correction:
# coordination-number Ag 8.149 9.172 8.149 8.150 8.779 8.779 8.779 8.779 8.867 8.867 8.867 8.867 6.732 6.732 6.732 6.732 4.847 6.239 4.849 6.326 8.872 8.866 8.872 8.865 8.780 8.781 8.780 8.780 8.150 8.150 8.150 8.150 4.847 4.847 4.847 4.847 7.611 6.758 6.732 6.758
# coordination-number C 4.862
# coordination-number O 2.004
# diagonal-C6 Ag 268.61 268.61 268.61 268.61 268.61 268.61 268.61 268.61 268.61 268.61 268.61 268.61 268.61 268.61 268.61 268.61 268.61 268.61 268.61 268.61 268.61 268.61 268.61 268.61 268.61 268.61 268.61 268.61 268.61 268.61 268.61 268.61 268.61 268.61 268.61 268.61 268.61 268.61 268.61 268.61
# diagonal-C6 C 18.21
# diagonal-C6 O 10.41
EvdW_6 =   -0.221866
EvdW_8 =   -0.316741
Fluid solver invoked on fresh (random / LCAO) wavefunctions
Running a vacuum solve first:

-------- Initial electronic minimization -----------
	FillingsUpdate:  mu: +0.112688196  nElectrons: 770.000000  magneticMoment: [ Abs: 0.00216  Tot: -0.00004 ]
ElecMinimize: Iter:   0  F: -5925.590996874747361  |grad|_K:  4.203e-05  alpha:  1.000e+00
	FillingsUpdate:  mu: +0.123816893  nElectrons: 770.000000  magneticMoment: [ Abs: 0.00164  Tot: -0.00004 ]
	SubspaceRotationAdjust: set factor to 1
ElecMinimize: Iter:   1  F: -5925.876321833651673  |grad|_K:  2.549e-05  alpha:  4.354e-01  linmin:  1.193e-04  t[s]:   1508.16
	FillingsUpdate:  mu: +0.115532911  nElectrons: 770.000000  magneticMoment: [ Abs: 0.00127  Tot: -0.00003 ]
	SubspaceRotationAdjust: set factor to 0.897
ElecMinimize: Iter:   2  F: -5925.943027830315259  |grad|_K:  1.647e-05  alpha:  2.788e-01  linmin: -3.926e-06  t[s]:   1643.72
	FillingsUpdate:  mu: +0.117525373  nElectrons: 770.000000  magneticMoment: [ Abs: 0.00113  Tot: -0.00004 ]
	SubspaceRotationAdjust: set factor to 0.594
ElecMinimize: Iter:   3  F: -5925.954005134308318  |grad|_K:  1.587e-05  alpha:  1.078e-01  linmin: -5.676e-06  t[s]:   1779.29
	FillingsUpdate:  mu: +0.121148836  nElectrons: 770.000000  magneticMoment: [ Abs: 0.00081  Tot: -0.00005 ]
	SubspaceRotationAdjust: set factor to 0.83
ElecMinimize: Iter:   4  F: -5925.972176748898164  |grad|_K:  6.793e-06  alpha:  1.924e-01  linmin:  7.348e-06  t[s]:   1915.08
	FillingsUpdate:  mu: +0.117524448  nElectrons: 770.000000  magneticMoment: [ Abs: 0.00062  Tot: -0.00005 ]
	SubspaceRotationAdjust: set factor to 0.53
ElecMinimize: Iter:   5  F: -5925.977441944868588  |grad|_K:  8.098e-06  alpha:  3.049e-01  linmin:  2.544e-05  t[s]:   2050.63
	FillingsUpdate:  mu: +0.118258427  nElectrons: 770.000000  magneticMoment: [ Abs: 0.00052  Tot: -0.00006 ]
	SubspaceRotationAdjust: set factor to 0.347
ElecMinimize: Iter:   6  F: -5925.979727002737491  |grad|_K:  4.057e-06  alpha:  9.277e-02  linmin: -2.691e-05  t[s]:   2186.54
ElecMinimize: 	Predicted alpha/alphaT>3.000000, increasing alphaT to 2.783141e-01.
	FillingsUpdate:  mu: +0.122516726  nElectrons: 770.000000  magneticMoment: [ Abs: 0.00038  Tot: -0.00007 ]
	SubspaceRotationAdjust: set factor to 0.415
ElecMinimize: Iter:   7  F: -5925.981822242914859  |grad|_K:  3.222e-06  alpha:  3.384e-01  linmin: -1.188e-06  t[s]:   2356.53
	FillingsUpdate:  mu: +0.122366371  nElectrons: 770.000000  magneticMoment: [ Abs: 0.00030  Tot: -0.00007 ]
	SubspaceRotationAdjust: set factor to 0.323
ElecMinimize: Iter:   8  F: -5925.982706158744804  |grad|_K:  2.444e-06  alpha:  2.270e-01  linmin: -1.532e-06  t[s]:   2492.22
	FillingsUpdate:  mu: +0.120810382  nElectrons: 770.000000  magneticMoment: [ Abs: 0.00024  Tot: -0.00006 ]
	SubspaceRotationAdjust: set factor to 0.32
ElecMinimize: Iter:   9  F: -5925.983269006439514  |grad|_K:  1.483e-06  alpha:  2.514e-01  linmin:  1.722e-05  t[s]:   2627.81
	FillingsUpdate:  mu: +0.120960268  nElectrons: 770.000000  magneticMoment: [ Abs: 0.00019  Tot: -0.00006 ]
	SubspaceRotationAdjust: set factor to 0.338
ElecMinimize: Iter:  10  F: -5925.983563509608757  |grad|_K:  1.241e-06  alpha:  3.583e-01  linmin:  1.419e-05  t[s]:   2764.10
	FillingsUpdate:  mu: +0.121610032  nElectrons: 770.000000  magneticMoment: [ Abs: 0.00016  Tot: -0.00005 ]
	SubspaceRotationAdjust: set factor to 0.26
ElecMinimize: Iter:  11  F: -5925.983712257420848  |grad|_K:  8.843e-07  alpha:  2.581e-01  linmin: -1.466e-07  t[s]:   2899.69
	FillingsUpdate:  mu: +0.122030740  nElectrons: 770.000000  magneticMoment: [ Abs: 0.00013  Tot: -0.00004 ]
	SubspaceRotationAdjust: set factor to 0.314
ElecMinimize: Iter:  12  F: -5925.983806095270666  |grad|_K:  6.050e-07  alpha:  3.203e-01  linmin:  4.707e-06  t[s]:   3035.18
	FillingsUpdate:  mu: +0.121826309  nElectrons: 770.000000  magneticMoment: [ Abs: 0.00011  Tot: -0.00004 ]
	SubspaceRotationAdjust: set factor to 0.302
ElecMinimize: Iter:  13  F: -5925.983857043171156  |grad|_K:  4.845e-07  alpha:  3.721e-01  linmin:  6.776e-06  t[s]:   3170.81
	FillingsUpdate:  mu: +0.121737946  nElectrons: 770.000000  magneticMoment: [ Abs: 0.00009  Tot: -0.00003 ]
	SubspaceRotationAdjust: set factor to 0.25
ElecMinimize: Iter:  14  F: -5925.983881186880353  |grad|_K:  3.540e-07  alpha:  2.748e-01  linmin:  4.193e-07  t[s]:   3306.21
	FillingsUpdate:  mu: +0.121935126  nElectrons: 770.000000  magneticMoment: [ Abs: 0.00007  Tot: -0.00002 ]
	SubspaceRotationAdjust: set factor to 0.312
ElecMinimize: Iter:  15  F: -5925.983899020473473  |grad|_K:  2.521e-07  alpha:  3.800e-01  linmin:  3.176e-06  t[s]:   3441.82
	FillingsUpdate:  mu: +0.121999994  nElectrons: 770.000000  magneticMoment: [ Abs: 0.00006  Tot: -0.00002 ]
	SubspaceRotationAdjust: set factor to 0.305
ElecMinimize: Iter:  16  F: -5925.983907849433308  |grad|_K:  2.113e-07  alpha:  3.713e-01  linmin:  1.683e-06  t[s]:   3577.41
	FillingsUpdate:  mu: +0.121953282  nElectrons: 770.000000  magneticMoment: [ Abs: 0.00005  Tot: -0.00001 ]
	SubspaceRotationAdjust: set factor to 0.257
ElecMinimize: Iter:  17  F: -5925.983912848869295  |grad|_K:  1.502e-07  alpha:  2.990e-01  linmin:  5.850e-07  t[s]:   3713.18
	FillingsUpdate:  mu: +0.121941765  nElectrons: 770.000000  magneticMoment: [ Abs: 0.00004  Tot: -0.00001 ]
	SubspaceRotationAdjust: set factor to 0.29
ElecMinimize: Iter:  18  F: -5925.983915910366704  |grad|_K:  1.079e-07  alpha:  3.626e-01  linmin:  1.479e-06  t[s]:   3848.58
	FillingsUpdate:  mu: +0.121969951  nElectrons: 770.000000  magneticMoment: [ Abs: 0.00003  Tot: -0.00001 ]
	SubspaceRotationAdjust: set factor to 0.303
ElecMinimize: Iter:  19  F: -5925.983917495365858  |grad|_K:  8.139e-08  alpha:  3.639e-01  linmin:  4.170e-07  t[s]:   3984.62
	FillingsUpdate:  mu: +0.121983924  nElectrons: 770.000000  magneticMoment: [ Abs: 0.00002  Tot: -0.00001 ]
	SubspaceRotationAdjust: set factor to 0.266
ElecMinimize: Iter:  20  F: -5925.983918278218880  |grad|_K:  6.147e-08  alpha:  3.155e-01  linmin: -3.351e-08  t[s]:   4120.05
	FillingsUpdate:  mu: +0.121981388  nElectrons: 770.000000  magneticMoment: [ Abs: 0.00002  Tot: -0.00000 ]
	SubspaceRotationAdjust: set factor to 0.279
ElecMinimize: Iter:  21  F: -5925.983918781592365  |grad|_K:  4.264e-08  alpha:  3.554e-01  linmin:  6.738e-07  t[s]:   4255.65
	FillingsUpdate:  mu: +0.121970399  nElectrons: 770.000000  magneticMoment: [ Abs: 0.00001  Tot: -0.00000 ]
	SubspaceRotationAdjust: set factor to 0.305
ElecMinimize: Iter:  22  F: -5925.983919034407336  |grad|_K:  3.337e-08  alpha:  3.718e-01  linmin:  8.241e-09  t[s]:   4391.19
	FillingsUpdate:  mu: +0.121971512  nElectrons: 770.000000  magneticMoment: [ Abs: 0.00001  Tot: -0.00000 ]
	SubspaceRotationAdjust: set factor to 0.301
ElecMinimize: Iter:  23  F: -5925.983919169431829  |grad|_K:  2.446e-08  alpha:  3.238e-01  linmin:  2.962e-07  t[s]:   4526.82
	FillingsUpdate:  mu: +0.121980251  nElectrons: 770.000000  magneticMoment: [ Abs: 0.00001  Tot: -0.00000 ]
	SubspaceRotationAdjust: set factor to 0.302
ElecMinimize: Iter:  24  F: -5925.983919248341408  |grad|_K:  1.838e-08  alpha:  3.527e-01  linmin:  5.053e-07  t[s]:   4662.53
	FillingsUpdate:  mu: +0.121977723  nElectrons: 770.000000  magneticMoment: [ Abs: 0.00001  Tot: -0.00000 ]
	SubspaceRotationAdjust: set factor to 0.342
ElecMinimize: Iter:  25  F: -5925.983919295267697  |grad|_K:  1.391e-08  alpha:  3.710e-01  linmin: -7.861e-07  t[s]:   4797.95
ElecMinimize: Converged (|Delta F|<1.000000e-07 for 2 iters).
Setting wave functions to eigenvectors of Hamiltonian
Converging empty states (this may take a while): |deigs|: 9.533e-03
Vacuum energy after initial minimize, F = -5925.983919295267697


-------- Electronic minimization -----------
	Linear fluid (dielectric constant: 78.4, screening length: 8.12261 Bohr) occupying 0.489359 of unit cell:	Completed after 25 iterations at t[s]:   5486.01
	FillingsUpdate:  mu: -0.146759369  nElectrons: 770.000000  magneticMoment: [ Abs: 0.00000  Tot: -0.00000 ]
ElecMinimize: Iter:   0  F: -5925.986163878130355  |grad|_K:  1.027e-06  alpha:  1.000e+00
	Linear fluid (dielectric constant: 78.4, screening length: 8.12261 Bohr) occupying 0.490777 of unit cell:	Completed after 17 iterations at t[s]:   5602.27
	Linear fluid (dielectric constant: 78.4, screening length: 8.12261 Bohr) occupying 0.490577 of unit cell:	Completed after 12 iterations at t[s]:   5642.62
	FillingsUpdate:  mu: -0.141621725  nElectrons: 770.000000  magneticMoment: [ Abs: 0.00000  Tot: -0.00000 ]
	SubspaceRotationAdjust: set factor to 0.347
ElecMinimize: Iter:   1  F: -5925.986500868621079  |grad|_K:  1.112e-06  alpha:  8.548e-01  linmin: -6.138e-07  t[s]:   5694.90
	Linear fluid (dielectric constant: 78.4, screening length: 8.12261 Bohr) occupying 0.492261 of unit cell:	Completed after 13 iterations at t[s]:   5750.03
	Linear fluid (dielectric constant: 78.4, screening length: 8.12261 Bohr) occupying 0.491526 of unit cell:	Completed after 12 iterations at t[s]:   5790.38
	FillingsUpdate:  mu: -0.142641762  nElectrons: 770.000000  magneticMoment: [ Abs: 0.00000  Tot: -0.00000 ]
	SubspaceRotationAdjust: set factor to 0.325
ElecMinimize: Iter:   2  F: -5925.986720176807466  |grad|_K:  6.493e-07  alpha:  4.712e-01  linmin:  6.157e-08  t[s]:   5842.88
	Linear fluid (dielectric constant: 78.4, screening length: 8.12261 Bohr) occupying 0.491947 of unit cell:	Completed after 11 iterations at t[s]:   5897.39
	Linear fluid (dielectric constant: 78.4, screening length: 8.12261 Bohr) occupying 0.491926 of unit cell:	Completed after 2 iterations at t[s]:   5935.14
	FillingsUpdate:  mu: -0.142209806  nElectrons: 770.000000  magneticMoment: [ Abs: 0.00000  Tot: -0.00000 ]
	SubspaceRotationAdjust: set factor to 0.365
ElecMinimize: Iter:   3  F: -5925.986790672744974  |grad|_K:  4.270e-07  alpha:  4.466e-01  linmin: -6.245e-08  t[s]:   5987.53
	Linear fluid (dielectric constant: 78.4, screening length: 8.12261 Bohr) occupying 0.492122 of unit cell:	Completed after 8 iterations at t[s]:   6041.08
	Linear fluid (dielectric constant: 78.4, screening length: 8.12261 Bohr) occupying 0.492086 of unit cell:	Completed after 2 iterations at t[s]:   6078.88
	FillingsUpdate:  mu: -0.142146924  nElectrons: 770.000000  magneticMoment: [ Abs: 0.00000  Tot: -0.00000 ]
	SubspaceRotationAdjust: set factor to 0.415
ElecMinimize: Iter:   4  F: -5925.986815505306367  |grad|_K:  2.769e-07  alpha:  3.629e-01  linmin:  3.696e-08  t[s]:   6131.39
	Linear fluid (dielectric constant: 78.4, screening length: 8.12261 Bohr) occupying 0.492159 of unit cell:	Completed after 3 iterations at t[s]:   6183.73
	Linear fluid (dielectric constant: 78.4, screening length: 8.12261 Bohr) occupying 0.492175 of unit cell:	Completed after 2 iterations at t[s]:   6221.55
	FillingsUpdate:  mu: -0.142258880  nElectrons: 770.000000  magneticMoment: [ Abs: 0.00000  Tot: -0.00000 ]
	SubspaceRotationAdjust: set factor to 0.477
ElecMinimize: Iter:   5  F: -5925.986828240392242  |grad|_K:  1.629e-07  alpha:  4.437e-01  linmin:  3.443e-08  t[s]:   6274.02
	Linear fluid (dielectric constant: 78.4, screening length: 8.12261 Bohr) occupying 0.492213 of unit cell:	Completed after 2 iterations at t[s]:   6326.26
	Linear fluid (dielectric constant: 78.4, screening length: 8.12261 Bohr) occupying 0.492215 of unit cell:	Completed after 0 iterations at t[s]:   6363.10
	FillingsUpdate:  mu: -0.142259164  nElectrons: 770.000000  magneticMoment: [ Abs: 0.00000  Tot: -0.00000 ]
	SubspaceRotationAdjust: set factor to 0.551
ElecMinimize: Iter:   6  F: -5925.986832890351252  |grad|_K:  1.064e-07  alpha:  4.673e-01  linmin: -2.830e-07  t[s]:   6415.53
	Linear fluid (dielectric constant: 78.4, screening length: 8.12261 Bohr) occupying 0.492235 of unit cell:	Completed after 2 iterations at t[s]:   6467.72
	Linear fluid (dielectric constant: 78.4, screening length: 8.12261 Bohr) occupying 0.492234 of unit cell:	Completed after 0 iterations at t[s]:   6504.72
	FillingsUpdate:  mu: -0.142243499  nElectrons: 770.000000  magneticMoment: [ Abs: 0.00000  Tot: -0.00000 ]
	SubspaceRotationAdjust: set factor to 0.609
ElecMinimize: Iter:   7  F: -5925.986834694565005  |grad|_K:  6.628e-08  alpha:  4.231e-01  linmin:  4.316e-07  t[s]:   6557.05
	Linear fluid (dielectric constant: 78.4, screening length: 8.12261 Bohr) occupying 0.492241 of unit cell:	Completed after 2 iterations at t[s]:   6609.00
	Linear fluid (dielectric constant: 78.4, screening length: 8.12261 Bohr) occupying 0.492241 of unit cell:	Completed after 0 iterations at t[s]:   6645.82
	FillingsUpdate:  mu: -0.142266098  nElectrons: 770.000000  magneticMoment: [ Abs: 0.00000  Tot: -0.00000 ]
	SubspaceRotationAdjust: set factor to 0.616
ElecMinimize: Iter:   8  F: -5925.986835378205797  |grad|_K:  4.040e-08  alpha:  4.182e-01  linmin: -6.620e-07  t[s]:   6698.31
	Linear fluid (dielectric constant: 78.4, screening length: 8.12261 Bohr) occupying 0.492245 of unit cell:	Completed after 2 iterations at t[s]:   6750.16
	Linear fluid (dielectric constant: 78.4, screening length: 8.12261 Bohr) occupying 0.492244 of unit cell:	Completed after 0 iterations at t[s]:   6786.98
	FillingsUpdate:  mu: -0.142260175  nElectrons: 770.000000  magneticMoment: [ Abs: 0.00000  Tot: -0.00000 ]
	SubspaceRotationAdjust: set factor to 0.61
ElecMinimize: Iter:   9  F: -5925.986835601961502  |grad|_K:  2.764e-08  alpha:  3.613e-01  linmin:  1.472e-06  t[s]:   6839.46
	Linear fluid (dielectric constant: 78.4, screening length: 8.12261 Bohr) occupying 0.492245 of unit cell:	Completed after 1 iterations at t[s]:   6891.06
	Linear fluid (dielectric constant: 78.4, screening length: 8.12261 Bohr) occupying 0.492245 of unit cell:	Completed after 0 iterations at t[s]:   6928.10
	FillingsUpdate:  mu: -0.142255589  nElectrons: 770.000000  magneticMoment: [ Abs: 0.00000  Tot: -0.00000 ]
	SubspaceRotationAdjust: set factor to 0.628
ElecMinimize: Iter:  10  F: -5925.986835692831846  |grad|_K:  1.527e-08  alpha:  3.255e-01  linmin: -5.040e-06  t[s]:   6980.49
	Linear fluid (dielectric constant: 78.4, screening length: 8.12261 Bohr) occupying 0.492245 of unit cell:	Completed after 0 iterations at t[s]:   7031.61
	Linear fluid (dielectric constant: 78.4, screening length: 8.12261 Bohr) occupying 0.492244 of unit cell:	Completed after 0 iterations at t[s]:   7068.46
	FillingsUpdate:  mu: -0.142255636  nElectrons: 770.000000  magneticMoment: [ Abs: 0.00000  Tot: -0.00000 ]
	SubspaceRotationAdjust: set factor to 0.665
ElecMinimize: Iter:  11  F: -5925.986835730705025  |grad|_K:  1.030e-08  alpha:  4.183e-01  linmin:  7.605e-06  t[s]:   7120.87
ElecMinimize: Converged (|Delta F|<1.000000e-07 for 2 iters).
Setting wave functions to eigenvectors of Hamiltonian
Converging empty states (this may take a while): |deigs|: 1.024e-04
Single-point solvation energy estimate, DeltaF = -0.002916435437328

Computing DFT-D3 correction:
# coordination-number Ag 8.149 9.172 8.149 8.150 8.779 8.779 8.779 8.779 8.867 8.867 8.867 8.867 6.732 6.732 6.732 6.732 4.847 6.239 4.849 6.326 8.872 8.866 8.872 8.865 8.780 8.781 8.780 8.780 8.150 8.150 8.150 8.150 4.847 4.847 4.847 4.847 7.611 6.758 6.732 6.758
# coordination-number C 4.862
# coordination-number O 2.004
# diagonal-C6 Ag 268.61 268.61 268.61 268.61 268.61 268.61 268.61 268.61 268.61 268.61 268.61 268.61 268.61 268.61 268.61 268.61 268.61 268.61 268.61 268.61 268.61 268.61 268.61 268.61 268.61 268.61 268.61 268.61 268.61 268.61 268.61 268.61 268.61 268.61 268.61 268.61 268.61 268.61 268.61 268.61
# diagonal-C6 C 18.21
# diagonal-C6 O 10.41
EvdW_6 =   -0.221866
EvdW_8 =   -0.316741

# Ionic positions in cartesian coordinates:
ion Ag   3.835417000000000   1.682334000000000  13.043153000000000 0
ion Ag   0.002582000000000  10.252812000000002  13.043153000000000 0
ion Ag  11.501085999999999   1.682334000000000  13.043153000000000 0
ion Ag   7.668251000000000  10.252812000000002  13.043153000000000 0
ion Ag  -0.000736000000000   3.395349000000000   9.424063000000000 0
ion Ag  -3.833556000000000  11.965828000000002   9.424063000000000 0
ion Ag   7.664932000000000   3.395349000000000   9.424063000000000 0
ion Ag   3.832112000000000  11.965828000000002   9.424063000000000 0
ion Ag   3.832742000000000   5.197413000000001   5.972663000000000 0
ion Ag  -0.000094000000000  13.767891000000002   5.972663000000000 0
ion Ag  11.498410000000000   5.197413000000001   5.972663000000000 0
ion Ag   7.665575000000000  13.767891000000002   5.972663000000000 0
ion Ag  -0.002722000000000   6.958834000000002   2.379593000000000 0
ion Ag  -3.835557000000001  15.529313000000004   2.379593000000000 0
ion Ag   7.662945999999999   6.958834000000002   2.379593000000000 0
ion Ag   3.830110999999999  15.529313000000004   2.379593000000000 0
ion Ag   7.669207999999998  17.005235000000003  16.291689999999999 0
ion Ag  11.502043000000000   8.434757000000001  16.291689999999999 0
ion Ag   0.003540000000000  17.005235000000003  16.291689999999999 0
ion Ag   3.836374999999999   8.434757000000001  16.291689999999999 0
ion Ag   3.833408000000000   6.801035000000001  11.168018000000000 0
ion Ag   0.000580999999999  15.371531000000001  11.168018000000000 0
ion Ag  11.499076999999998   6.801035000000001  11.168018000000000 0
ion Ag   7.666249000000000  15.371531000000001  11.168018000000000 0
ion Ag   3.833056000000000   0.031488000000000   7.715897999999999 0
ion Ag   0.000220999999999   8.601967000000002   7.715897999999999 0
ion Ag  11.498725000000000   0.031488000000000   7.715897999999999 0
ion Ag   7.665889999999999   8.601967000000002   7.715897999999999 0
ion Ag  -0.003434000000000   1.745429000000000   4.098042000000000 0
ion Ag  -3.836277000000000  10.315891000000002   4.098042000000000 0
ion Ag   7.662233999999999   1.745429000000000   4.098042000000000 0
ion Ag   3.829406000000000  10.315891000000002   4.098042000000000 0
ion Ag   3.830595000000000   3.565593000000000   0.850020000000000 0
ion Ag  -0.002240000000000  12.136072000000002   0.850020000000000 0
ion Ag  11.496263999999998   3.565593000000000   0.850020000000000 0
ion Ag   7.663429000000000  12.136072000000002   0.850020000000000 0
ion Ag   0.002330000000000   5.040161000000001  14.761654000000000 0
ion Ag  -3.830505000000001  13.610640000000002  14.761654000000000 0
ion Ag   7.667997999999999   5.040161000000001  14.761654000000000 0
ion Ag   3.835162999999999  13.610640000000002  14.761654000000000 0
ion C   0.002728000000000   9.028518999999999  16.480000000000000 1  Linear 0 0 1
ion O   0.062827000000000   9.028518999999999  18.635338000000001 1  Linear 0 0 1

# Forces in Cartesian coordinates:
force Ag  -0.000102554514992   0.001323397942372   0.000557760705512 0
force Ag  -0.000543299253107   0.027455403204427  -0.056982213583196 0
force Ag   0.000014194868961   0.001244559438707  -0.000069776961736 0
force Ag   0.000056220055893  -0.000004908077437   0.000984477039459 0
force Ag   0.000053176811286   0.000196985976866   0.000660154735715 0
force Ag   0.000063024432940  -0.000666741302258   0.000672903213363 0
force Ag   0.000096395902822  -0.001254666600601   0.000217838638924 0
force Ag  -0.000313551115382  -0.000395662695400   0.001298160352923 0
force Ag   0.000440808075747   0.000208631325145  -0.000602150690601 0
force Ag  -0.000161625855830   0.000464321105034  -0.000339974496656 0
force Ag  -0.000055376663369   0.000495224720325  -0.000947703707652 0
force Ag   0.000647032922225  -0.000124354898198   0.000462897476191 0
force Ag  -0.000264242065580   0.000151251506182   0.000519342951012 0
force Ag  -0.000524558141658   0.000074760067551   0.000850556196990 0
force Ag  -0.000155346353638   0.000090681129032   0.000313621712227 0
force Ag   0.000262890415323   0.000226695142117   0.000915487597891 0
force Ag  -0.000008544323553  -0.000230794706747  -0.000336962675708 0
force Ag  -0.052079973031287  -0.007271078016412  -0.011226419796097 0
force Ag  -0.000522719591486   0.000385551773792  -0.000022614757005 0
force Ag   0.054876272179714  -0.008928600324479  -0.013070737021822 0
force Ag   0.001822954766407  -0.001979187691283  -0.003884146305673 0
force Ag   0.000050459767887   0.000694106950648   0.000352868288167 0
force Ag  -0.002061551714554  -0.001871099938485  -0.004374914284061 0
force Ag  -0.000085685551483  -0.000348790121136  -0.000791736540473 0
force Ag  -0.000493814734648   0.000159890764607  -0.000610965934792 0
force Ag  -0.000040427462421  -0.000054604973297   0.001318833947835 0
force Ag   0.000170431915427   0.000170712412116  -0.000418808471465 0
force Ag  -0.000240285437535   0.000142804677791  -0.001153880863994 0
force Ag   0.000036535870052  -0.000306260400413   0.000404058355804 0
force Ag   0.000212170247662  -0.000621755596562   0.000283210668049 0
force Ag   0.000333482476928  -0.000185420661393  -0.000165924988579 0
force Ag   0.000335527937048  -0.000859349710461   0.000080153840214 0
force Ag  -0.000070086160070   0.000336229850289  -0.000047588190334 0
force Ag  -0.000137170909193  -0.000204639668261  -0.000428801394962 0
force Ag   0.000056843661028   0.000400909446208   0.000196183058139 0
force Ag   0.000038658794683   0.000262601631638  -0.000122581719366 0
force Ag   0.000323391582494  -0.019685322645428  -0.009515164430165 0
force Ag  -0.002445568906440   0.004181592967822  -0.001709858960723 0
force Ag  -0.000046399944089   0.001370733140147   0.001292848034011 0
force Ag   0.002832361103806   0.004617204549274  -0.002143687050748 0
force C  -0.004338640491926  -0.014938756643497  -0.064314188559645 1  Linear 0 0 1
force O   0.001907034491788   0.015387562923896   0.161146927889198 1  Linear 0 0 1

# Energy components:
   A_diel =       -0.0036496675134591
   Eewald =    22050.1677775965144974
       EH =    27404.0027638782776194
     Eloc =   -56316.4111013489600737
      Enl =      161.0299131087792830
     EvdW =       -0.5386070620725381
      Exc =     -584.9303756989365866
 Exc_core =        8.4255477715949834
       KE =     1352.2715863902897127
-------------------------------------
     Etot =    -5925.9861450320222502
       TS =        0.0006906986830021
-------------------------------------
        F =    -5925.9868357307050246


Dumping 'jdft.fillings' ... done
Dumping 'jdft.wfns' ... done
Dumping 'jdft.fluidState' ... done
Dumping 'jdft.ionpos' ... done
Dumping 'jdft.lattice' ... done
Dumping 'jdft.eigenvals' ... done
Dumping 'jdft.eigStats' ... 
	eMin: -3.559480 at state 2 ( [ +0.250000 +0.000000 +0.000000 ] spin 1 )
	HOMO: -0.142854 at state 4 ( [ +0.250000 -0.333333 +0.000000 ] spin 1 )
	mu  : -0.142256
	LUMO: -0.140041 at state 13 ( [ +0.500000 +0.333333 +0.000000 ] spin -1 )
	eMax: +0.140987 at state 5 ( [ +0.500000 +0.000000 +0.000000 ] spin 1 )
	HOMO-LUMO gap: +0.002813
	Optical gap  : +0.004804 at state 4 ( [ +0.250000 -0.333333 +0.000000 ] spin 1 )
Dumping 'jdft.Ecomponents' ... done
IonicMinimize: Iter:   0  F: -5925.986835730705025  |grad|_K:  1.227e-01  t[s]:   7696.47

#--- Lowdin population analysis ---
# oxidation-state Ag -0.076 -0.049 -0.076 -0.087 -0.001 -0.009 +0.004 -0.005 -0.031 -0.027 -0.029 -0.032 -0.035 -0.033 -0.031 -0.032 +0.143 +0.147 +0.150 +0.147 -0.032 -0.036 -0.029 -0.030 +0.001 -0.006 +0.002 +0.003 -0.066 -0.068 -0.062 -0.067 +0.153 +0.153 +0.151 +0.153 +0.001 -0.032 -0.059 -0.025
# magnetic-moments Ag -0.000 -0.000 -0.000 -0.000 -0.000 -0.000 +0.000 +0.000 -0.000 -0.000 -0.000 -0.000 -0.000 -0.000 -0.000 -0.000 -0.000 -0.000 -0.000 -0.000 -0.000 -0.000 -0.000 -0.000 +0.000 +0.000 -0.000 +0.000 -0.000 -0.000 -0.000 -0.000 +0.000 -0.000 -0.000 -0.000 -0.000 -0.000 -0.000 -0.000
# oxidation-state C +0.275
# magnetic-moments C -0.000
# oxidation-state O -0.106
# magnetic-moments O -0.000


Computing DFT-D3 correction:
# coordination-number Ag 8.149 9.167 8.149 8.150 8.779 8.779 8.779 8.779 8.867 8.867 8.867 8.867 6.732 6.732 6.732 6.732 4.847 6.197 4.849 6.279 8.872 8.866 8.872 8.865 8.780 8.781 8.780 8.780 8.150 8.150 8.150 8.150 4.847 4.847 4.847 4.847 7.613 6.758 6.732 6.758
# coordination-number C 4.874
# coordination-number O 1.903
# diagonal-C6 Ag 268.61 268.61 268.61 268.61 268.61 268.61 268.61 268.61 268.61 268.61 268.61 268.61 268.61 268.61 268.61 268.61 268.61 268.61 268.61 268.61 268.61 268.61 268.61 268.61 268.61 268.61 268.61 268.61 268.61 268.61 268.61 268.61 268.61 268.61 268.61 268.61 268.61 268.61 268.61 268.61
# diagonal-C6 C 18.21
# diagonal-C6 O 10.45
EvdW_6 =   -0.221855
EvdW_8 =   -0.316777

-------- Electronic minimization -----------
	Linear fluid (dielectric constant: 78.4, screening length: 8.12261 Bohr) occupying 0.492239 of unit cell:	Completed after 21 iterations at t[s]:   7754.25
	FillingsUpdate:  mu: -0.136621681  nElectrons: 770.000000  magneticMoment: [ Abs: 0.00000  Tot: -0.00000 ]
ElecMinimize: Iter:   0  F: -5925.897845066578157  |grad|_K:  2.544e-05  alpha:  1.000e+00
	Linear fluid (dielectric constant: 78.4, screening length: 8.12261 Bohr) occupying 0.491323 of unit cell:	Completed after 22 iterations at t[s]:   7871.89
	Linear fluid (dielectric constant: 78.4, screening length: 8.12261 Bohr) occupying 0.491862 of unit cell:	Completed after 22 iterations at t[s]:   7915.38
	FillingsUpdate:  mu: -0.144049618  nElectrons: 770.000000  magneticMoment: [ Abs: 0.00000  Tot: -0.00000 ]
	SubspaceRotationAdjust: set factor to 0.579
ElecMinimize: Iter:   1  F: -5925.984542936126672  |grad|_K:  8.665e-06  alpha:  3.644e-01  linmin:  8.429e-04  t[s]:   7967.69
	Linear fluid (dielectric constant: 78.4, screening length: 8.12261 Bohr) occupying 0.491867 of unit cell:	Completed after 21 iterations at t[s]:   8025.08
	Linear fluid (dielectric constant: 78.4, screening length: 8.12261 Bohr) occupying 0.491831 of unit cell:	Completed after 15 iterations at t[s]:   8066.58
	FillingsUpdate:  mu: -0.145040590  nElectrons: 770.000000  magneticMoment: [ Abs: 0.00000  Tot: -0.00000 ]
	SubspaceRotationAdjust: set factor to 0.412
ElecMinimize: Iter:   2  F: -5925.991786840011628  |grad|_K:  4.528e-06  alpha:  2.605e-01  linmin:  2.633e-05  t[s]:   8118.80
	Linear fluid (dielectric constant: 78.4, screening length: 8.12261 Bohr) occupying 0.491926 of unit cell:	Completed after 18 iterations at t[s]:   8175.28
	Linear fluid (dielectric constant: 78.4, screening length: 8.12261 Bohr) occupying 0.491940 of unit cell:	Completed after 12 iterations at t[s]:   8215.99
	FillingsUpdate:  mu: -0.143602372  nElectrons: 770.000000  magneticMoment: [ Abs: 0.00000  Tot: -0.00000 ]
	SubspaceRotationAdjust: set factor to 0.349
ElecMinimize: Iter:   3  F: -5925.994065350091660  |grad|_K:  2.615e-06  alpha:  2.967e-01  linmin: -1.768e-06  t[s]:   8268.15
	Linear fluid (dielectric constant: 78.4, screening length: 8.12261 Bohr) occupying 0.491974 of unit cell:	Completed after 13 iterations at t[s]:   8323.44
	Linear fluid (dielectric constant: 78.4, screening length: 8.12261 Bohr) occupying 0.491989 of unit cell:	Completed after 9 iterations at t[s]:   8363.28
	FillingsUpdate:  mu: -0.144295809  nElectrons: 770.000000  magneticMoment: [ Abs: 0.00000  Tot: -0.00000 ]
	SubspaceRotationAdjust: set factor to 0.444
ElecMinimize: Iter:   4  F: -5925.995097982265179  |grad|_K:  1.566e-06  alpha:  4.030e-01  linmin:  2.941e-05  t[s]:   8416.64
	Linear fluid (dielectric constant: 78.4, screening length: 8.12261 Bohr) occupying 0.492019 of unit cell:	Completed after 11 iterations at t[s]:   8471.14
	Linear fluid (dielectric constant: 78.4, screening length: 8.12261 Bohr) occupying 0.492017 of unit cell:	Completed after 6 iterations at t[s]:   8509.74
	FillingsUpdate:  mu: -0.144491159  nElectrons: 770.000000  magneticMoment: [ Abs: 0.00000  Tot: -0.00000 ]
	SubspaceRotationAdjust: set factor to 0.442
ElecMinimize: Iter:   5  F: -5925.995448433747697  |grad|_K:  9.368e-07  alpha:  3.822e-01  linmin:  5.665e-06  t[s]:   8562.24
	Linear fluid (dielectric constant: 78.4, screening length: 8.12261 Bohr) occupying 0.492049 of unit cell:	Completed after 11 iterations at t[s]:   8616.88
	Linear fluid (dielectric constant: 78.4, screening length: 8.12261 Bohr) occupying 0.492053 of unit cell:	Completed after 7 iterations at t[s]:   8655.99
	FillingsUpdate:  mu: -0.144132618  nElectrons: 770.000000  magneticMoment: [ Abs: 0.00000  Tot: -0.00000 ]
	SubspaceRotationAdjust: set factor to 0.485
ElecMinimize: Iter:   6  F: -5925.995594500375773  |grad|_K:  6.098e-07  alpha:  4.442e-01  linmin: -4.671e-07  t[s]:   8708.25
	Linear fluid (dielectric constant: 78.4, screening length: 8.12261 Bohr) occupying 0.492087 of unit cell:	Completed after 8 iterations at t[s]:   8761.94
	Linear fluid (dielectric constant: 78.4, screening length: 8.12261 Bohr) occupying 0.492083 of unit cell:	Completed after 3 iterations at t[s]:   8800.01
	FillingsUpdate:  mu: -0.144190607  nElectrons: 770.000000  magneticMoment: [ Abs: 0.00000  Tot: -0.00000 ]
	SubspaceRotationAdjust: set factor to 0.564
ElecMinimize: Iter:   7  F: -5925.995647308206571  |grad|_K:  3.826e-07  alpha:  3.787e-01  linmin:  4.481e-06  t[s]:   8852.49
	Linear fluid (dielectric constant: 78.4, screening length: 8.12261 Bohr) occupying 0.492112 of unit cell:	Completed after 8 iterations at t[s]:   8906.37
	Linear fluid (dielectric constant: 78.4, screening length: 8.12261 Bohr) occupying 0.492115 of unit cell:	Completed after 2 iterations at t[s]:   8943.96
	FillingsUpdate:  mu: -0.143975347  nElectrons: 770.000000  magneticMoment: [ Abs: 0.00000  Tot: -0.00000 ]
	SubspaceRotationAdjust: set factor to 0.625
ElecMinimize: Iter:   8  F: -5925.995670149214675  |grad|_K:  2.566e-07  alpha:  4.165e-01  linmin: -2.153e-06  t[s]:   8996.32
	Linear fluid (dielectric constant: 78.4, screening length: 8.12261 Bohr) occupying 0.492136 of unit cell:	Completed after 8 iterations at t[s]:   9050.25
	Linear fluid (dielectric constant: 78.4, screening length: 8.12261 Bohr) occupying 0.492133 of unit cell:	Completed after 2 iterations at t[s]:   9087.89
	FillingsUpdate:  mu: -0.144056791  nElectrons: 770.000000  magneticMoment: [ Abs: 0.00000  Tot: -0.00000 ]
	SubspaceRotationAdjust: set factor to 0.683
ElecMinimize: Iter:   9  F: -5925.995678994768241  |grad|_K:  1.501e-07  alpha:  3.581e-01  linmin:  1.458e-05  t[s]:   9140.21
	Linear fluid (dielectric constant: 78.4, screening length: 8.12261 Bohr) occupying 0.492149 of unit cell:	Completed after 3 iterations at t[s]:   9192.62
	Linear fluid (dielectric constant: 78.4, screening length: 8.12261 Bohr) occupying 0.492151 of unit cell:	Completed after 3 iterations at t[s]:   9230.47
	FillingsUpdate:  mu: -0.144023059  nElectrons: 770.000000  magneticMoment: [ Abs: 0.00000  Tot: -0.00000 ]
	SubspaceRotationAdjust: set factor to 0.692
ElecMinimize: Iter:  10  F: -5925.995682296508676  |grad|_K:  9.364e-08  alpha:  3.929e-01  linmin:  6.937e-05  t[s]:   9282.92
	Linear fluid (dielectric constant: 78.4, screening length: 8.12261 Bohr) occupying 0.492160 of unit cell:	Completed after 3 iterations at t[s]:   9336.16
	Linear fluid (dielectric constant: 78.4, screening length: 8.12261 Bohr) occupying 0.492158 of unit cell:	Completed after 0 iterations at t[s]:   9373.07
	FillingsUpdate:  mu: -0.144005392  nElectrons: 770.000000  magneticMoment: [ Abs: 0.00000  Tot: -0.00000 ]
	SubspaceRotationAdjust: set factor to 0.612
ElecMinimize: Iter:  11  F: -5925.995683373053907  |grad|_K:  5.837e-08  alpha:  3.284e-01  linmin:  3.152e-04  t[s]:   9425.54
	Linear fluid (dielectric constant: 78.4, screening length: 8.12261 Bohr) occupying 0.492162 of unit cell:	Completed after 2 iterations at t[s]:   9477.65
	Linear fluid (dielectric constant: 78.4, screening length: 8.12261 Bohr) occupying 0.492162 of unit cell:	Completed after 0 iterations at t[s]:   9514.54
	FillingsUpdate:  mu: -0.144026814  nElectrons: 770.000000  magneticMoment: [ Abs: 0.00000  Tot: -0.00000 ]
	SubspaceRotationAdjust: set factor to 0.54
ElecMinimize: Iter:  12  F: -5925.995683738391563  |grad|_K:  3.372e-08  alpha:  2.989e-01  linmin: -3.108e-04  t[s]:   9566.92
	Linear fluid (dielectric constant: 78.4, screening length: 8.12261 Bohr) occupying 0.492164 of unit cell:	Completed after 2 iterations at t[s]:   9619.98
	Linear fluid (dielectric constant: 78.4, screening length: 8.12261 Bohr) occupying 0.492164 of unit cell:	Completed after 0 iterations at t[s]:   9656.87
	FillingsUpdate:  mu: -0.144021299  nElectrons: 770.000000  magneticMoment: [ Abs: 0.00000  Tot: -0.00000 ]
	SubspaceRotationAdjust: set factor to 0.544
ElecMinimize: Iter:  13  F: -5925.995683899074720  |grad|_K:  1.984e-08  alpha:  3.556e-01  linmin: -5.564e-04  t[s]:   9709.18
	Linear fluid (dielectric constant: 78.4, screening length: 8.12261 Bohr) occupying 0.492166 of unit cell:	Completed after 0 iterations at t[s]:   9760.37
	Linear fluid (dielectric constant: 78.4, screening length: 8.12261 Bohr) occupying 0.492166 of unit cell:	Completed after 0 iterations at t[s]:   9797.07
	FillingsUpdate:  mu: -0.144021292  nElectrons: 770.000000  magneticMoment: [ Abs: 0.00000  Tot: -0.00000 ]
	SubspaceRotationAdjust: set factor to 0.621
ElecMinimize: Iter:  14  F: -5925.995683978178931  |grad|_K:  1.468e-08  alpha:  4.981e-01  linmin:  1.603e-05  t[s]:   9849.42
	Linear fluid (dielectric constant: 78.4, screening length: 8.12261 Bohr) occupying 0.492168 of unit cell:	Completed after 2 iterations at t[s]:   9901.33
	Linear fluid (dielectric constant: 78.4, screening length: 8.12261 Bohr) occupying 0.492167 of unit cell:	Completed after 0 iterations at t[s]:   9938.77
	FillingsUpdate:  mu: -0.143995378  nElectrons: 770.000000  magneticMoment: [ Abs: 0.00000  Tot: -0.00000 ]
	SubspaceRotationAdjust: set factor to 0.57
ElecMinimize: Iter:  15  F: -5925.995683989703139  |grad|_K:  2.239e-08  alpha:  2.228e-01  linmin:  5.176e-04  t[s]:   9991.11
ElecMinimize: Converged (|Delta F|<1.000000e-07 for 2 iters).
Setting wave functions to eigenvectors of Hamiltonian
Converging empty states (this may take a while): |deigs|: 1.850e-06

Computing DFT-D3 correction:
# coordination-number Ag 8.149 9.167 8.149 8.150 8.779 8.779 8.779 8.779 8.867 8.867 8.867 8.867 6.732 6.732 6.732 6.732 4.847 6.197 4.849 6.279 8.872 8.866 8.872 8.865 8.780 8.781 8.780 8.780 8.150 8.150 8.150 8.150 4.847 4.847 4.847 4.847 7.613 6.758 6.732 6.758
# coordination-number C 4.874
# coordination-number O 1.903
# diagonal-C6 Ag 268.61 268.61 268.61 268.61 268.61 268.61 268.61 268.61 268.61 268.61 268.61 268.61 268.61 268.61 268.61 268.61 268.61 268.61 268.61 268.61 268.61 268.61 268.61 268.61 268.61 268.61 268.61 268.61 268.61 268.61 268.61 268.61 268.61 268.61 268.61 268.61 268.61 268.61 268.61 268.61
# diagonal-C6 C 18.21
# diagonal-C6 O 10.45
EvdW_6 =   -0.221855
EvdW_8 =   -0.316777

# Ionic positions in cartesian coordinates:
ion Ag   3.835417000000000   1.682334000000000  13.043153000000000 0
ion Ag   0.002582000000000  10.252812000000002  13.043153000000000 0
ion Ag  11.501085999999999   1.682334000000000  13.043153000000000 0
ion Ag   7.668251000000000  10.252812000000002  13.043153000000000 0
ion Ag  -0.000736000000000   3.395349000000000   9.424063000000000 0
ion Ag  -3.833556000000000  11.965828000000002   9.424063000000000 0
ion Ag   7.664932000000000   3.395349000000000   9.424063000000000 0
ion Ag   3.832112000000000  11.965828000000002   9.424063000000000 0
ion Ag   3.832742000000000   5.197413000000001   5.972663000000000 0
ion Ag  -0.000094000000000  13.767891000000002   5.972663000000000 0
ion Ag  11.498410000000000   5.197413000000001   5.972663000000000 0
ion Ag   7.665575000000000  13.767891000000002   5.972663000000000 0
ion Ag  -0.002722000000000   6.958834000000002   2.379593000000000 0
ion Ag  -3.835557000000001  15.529313000000004   2.379593000000000 0
ion Ag   7.662945999999999   6.958834000000002   2.379593000000000 0
ion Ag   3.830110999999999  15.529313000000004   2.379593000000000 0
ion Ag   7.669207999999998  17.005235000000003  16.291689999999999 0
ion Ag  11.502043000000000   8.434757000000001  16.291689999999999 0
ion Ag   0.003540000000000  17.005235000000003  16.291689999999999 0
ion Ag   3.836374999999999   8.434757000000001  16.291689999999999 0
ion Ag   3.833408000000000   6.801035000000001  11.168018000000000 0
ion Ag   0.000580999999999  15.371531000000001  11.168018000000000 0
ion Ag  11.499076999999998   6.801035000000001  11.168018000000000 0
ion Ag   7.666249000000000  15.371531000000001  11.168018000000000 0
ion Ag   3.833056000000000   0.031488000000000   7.715897999999999 0
ion Ag   0.000220999999999   8.601967000000002   7.715897999999999 0
ion Ag  11.498725000000000   0.031488000000000   7.715897999999999 0
ion Ag   7.665889999999999   8.601967000000002   7.715897999999999 0
ion Ag  -0.003434000000000   1.745429000000000   4.098042000000000 0
ion Ag  -3.836277000000000  10.315891000000002   4.098042000000000 0
ion Ag   7.662233999999999   1.745429000000000   4.098042000000000 0
ion Ag   3.829406000000000  10.315891000000002   4.098042000000000 0
ion Ag   3.830595000000000   3.565593000000000   0.850020000000000 0
ion Ag  -0.002240000000000  12.136072000000002   0.850020000000000 0
ion Ag  11.496263999999998   3.565593000000000   0.850020000000000 0
ion Ag   7.663429000000000  12.136072000000002   0.850020000000000 0
ion Ag   0.002330000000000   5.040161000000001  14.761654000000000 0
ion Ag  -3.830505000000001  13.610640000000002  14.761654000000000 0
ion Ag   7.667997999999999   5.040161000000001  14.761654000000000 0
ion Ag   3.835162999999999  13.610640000000002  14.761654000000000 0
ion C   0.002728000000000   9.028518999999999  16.440089720975713 1  Linear 0 0 1
ion O   0.062827000000000   9.028518999999999  18.735338000000002 1  Linear 0 0 1

# Forces in Cartesian coordinates:
force Ag  -0.000182884330845   0.001172966879115   0.000500820745323 0
force Ag  -0.000581335343664   0.030006341923824  -0.061353794847201 0
force Ag   0.000075217369990   0.001118546317061  -0.000149333862049 0
force Ag   0.000036052960333  -0.000024039104743   0.000940315529983 0
force Ag   0.000069676780970   0.000151276794668   0.000823271450189 0
force Ag   0.000070490810154  -0.000623385439447   0.000707224608023 0
force Ag   0.000100799985660  -0.001250869367147   0.000348077273476 0
force Ag  -0.000317565393417  -0.000354612468792   0.001364459591996 0
force Ag   0.000393898438913   0.000199575848976  -0.000529923920583 0
force Ag  -0.000199233565036   0.000546852789205  -0.000218371151002 0
force Ag  -0.000019261741851   0.000452588997343  -0.000839270134774 0
force Ag   0.000669866559327  -0.000067984614794   0.000576740302356 0
force Ag  -0.000277812605323   0.000140134887182   0.000479551825863 0
force Ag  -0.000502537553027   0.000047506938399   0.000882216245751 0
force Ag  -0.000152233778580   0.000083292555186   0.000304355799652 0
force Ag   0.000253482535224   0.000253333455309   0.000917385248406 0
force Ag   0.000006829307336  -0.000308163263032  -0.000412192399626 0
force Ag  -0.047611061931339  -0.006550430381814  -0.008789655169404 0
force Ag  -0.000528947576070   0.000399922002535   0.000023862884633 0
force Ag   0.049913063931155  -0.008058949784183  -0.010377290936561 0
force Ag   0.001874861211889  -0.001988981580620  -0.003756135798950 0
force Ag  -0.000003356930512   0.000804843307251   0.000372679194091 0
force Ag  -0.002142620202020  -0.001892438989353  -0.004309488229590 0
force Ag  -0.000066490703864  -0.000364183479625  -0.000589847949119 0
force Ag  -0.000468832068720   0.000147939146989  -0.000479970788635 0
force Ag  -0.000024955270100  -0.000054627432990   0.001497806074623 0
force Ag   0.000185733633886   0.000178562680259  -0.000264994189826 0
force Ag  -0.000227059166079   0.000134869579795  -0.001059981406583 0
force Ag   0.000037003577197  -0.000312688419036   0.000516577372632 0
force Ag   0.000189367897231  -0.000612787545535   0.000279558525978 0
force Ag   0.000371232287245  -0.000210289312399  -0.000091860862352 0
force Ag   0.000382763908228  -0.000873080636767   0.000074110382545 0
force Ag  -0.000059847929668   0.000387524079168  -0.000303039130250 0
force Ag  -0.000152723092466  -0.000189752754540  -0.000695726428566 0
force Ag   0.000040676955415   0.000409380959792  -0.000035851032020 0
force Ag   0.000056659652826   0.000255217352997  -0.000355344463603 0
force Ag   0.000378288479363  -0.018033683580060  -0.008133296463192 0
force Ag  -0.002266012211596   0.004061883722156  -0.001658617219411 0
force Ag  -0.000040759083842   0.001390634210305   0.001206547741275 0
force Ag   0.002661052321713   0.004471759912684  -0.002084449228688 0
force C  -0.000857758208927  -0.018355164447683   0.063046555545721 1  Linear 0 0 1
force O  -0.001141655882353   0.013457012209309   0.031967151107150 1  Linear 0 0 1

# Energy components:
   A_diel =       -0.0041369217316025
   Eewald =    22044.7853866045734321
       EH =    27397.7925828304687457
     Eloc =   -56304.6794078577222535
      Enl =      160.9839378645424404
     EvdW =       -0.5386315440607373
      Exc =     -584.8794728941716130
 Exc_core =        8.4255610828185414
       KE =     1352.1191752714464656
-------------------------------------
     Etot =    -5925.9950055638337290
       TS =        0.0006784258696372
-------------------------------------
        F =    -5925.9956839897031386


Dumping 'jdft.fillings' ... done
Dumping 'jdft.wfns' ... done
Dumping 'jdft.fluidState' ... done
Dumping 'jdft.ionpos' ... done
Dumping 'jdft.lattice' ... done
Dumping 'jdft.eigenvals' ... done
Dumping 'jdft.eigStats' ... 
	eMin: -3.561957 at state 2 ( [ +0.250000 +0.000000 +0.000000 ] spin 1 )
	HOMO: -0.144890 at state 4 ( [ +0.250000 -0.333333 +0.000000 ] spin 1 )
	mu  : -0.143995
	LUMO: -0.141585 at state 6 ( [ +0.500000 +0.333333 +0.000000 ] spin 1 )
	eMax: +0.140674 at state 5 ( [ +0.500000 +0.000000 +0.000000 ] spin 1 )
	HOMO-LUMO gap: +0.003304
	Optical gap  : +0.005150 at state 11 ( [ +0.250000 -0.333333 +0.000000 ] spin -1 )
Dumping 'jdft.Ecomponents' ... done
IonicMinimize: Iter:   1  F: -5925.995683989703139  |grad|_K:  4.998e-02  alpha:  6.206e-01  linmin: -5.035e-02  t[s]:  10444.63

#--- Lowdin population analysis ---
# oxidation-state Ag -0.074 -0.044 -0.075 -0.084 -0.000 -0.008 +0.004 -0.004 -0.031 -0.026 -0.029 -0.032 -0.033 -0.032 -0.030 -0.030 +0.148 +0.156 +0.156 +0.155 -0.030 -0.035 -0.028 -0.030 +0.002 -0.006 +0.002 +0.002 -0.066 -0.068 -0.061 -0.066 +0.157 +0.157 +0.154 +0.157 +0.009 -0.026 -0.055 -0.020
# magnetic-moments Ag +0.000 +0.000 +0.000 +0.000 +0.000 -0.000 +0.000 +0.000 +0.000 +0.000 +0.000 -0.000 +0.000 +0.000 +0.000 +0.000 -0.000 -0.000 -0.000 -0.000 +0.000 +0.000 -0.000 -0.000 +0.000 -0.000 +0.000 +0.000 -0.000 -0.000 +0.000 +0.000 +0.000 -0.000 -0.000 +0.000 -0.000 -0.000 +0.000 +0.000
# oxidation-state C +0.242
# magnetic-moments C +0.000
# oxidation-state O -0.170
# magnetic-moments O -0.000


Computing DFT-D3 correction:
# coordination-number Ag 8.149 9.165 8.149 8.150 8.779 8.779 8.779 8.779 8.867 8.867 8.867 8.867 6.732 6.732 6.732 6.732 4.847 6.183 4.849 6.263 8.872 8.866 8.872 8.865 8.780 8.781 8.780 8.780 8.150 8.150 8.150 8.150 4.847 4.847 4.847 4.847 7.605 6.758 6.732 6.758
# coordination-number C 4.866
# coordination-number O 1.869
# diagonal-C6 Ag 268.61 268.61 268.61 268.61 268.61 268.61 268.61 268.61 268.61 268.61 268.61 268.61 268.61 268.61 268.61 268.61 268.61 268.61 268.61 268.61 268.61 268.61 268.61 268.61 268.61 268.61 268.61 268.61 268.61 268.61 268.61 268.61 268.61 268.61 268.61 268.61 268.61 268.61 268.61 268.61
# diagonal-C6 C 18.21
# diagonal-C6 O 10.48
EvdW_6 =   -0.221845
EvdW_8 =   -0.316767

-------- Electronic minimization -----------
	Linear fluid (dielectric constant: 78.4, screening length: 8.12261 Bohr) occupying 0.492103 of unit cell:	Completed after 16 iterations at t[s]:  10501.08
	FillingsUpdate:  mu: -0.139612432  nElectrons: 770.000000  magneticMoment: [ Abs: 0.00000  Tot: -0.00000 ]
ElecMinimize: Iter:   0  F: -5925.989068059638157  |grad|_K:  7.705e-06  alpha:  1.000e+00
[...]
force Ag  -0.000310558904358  -0.000022734059248   0.000620627272613 0
force Ag   0.000067961835742  -0.000194674391541   0.000283599670453 0
force Ag   0.000350521351968  -0.000010123944252   0.000680150315107 0
force Ag   0.000379390607006   0.000670588571383  -0.000021353843714 0
force Ag  -0.000214400360991   0.000630671468623   0.000623089627088 0
force Ag  -0.000398622527552   0.000790660270477  -0.000355107081644 0
force Ag   0.000292669942737   0.000506516298609   0.000056252552045 0
force Ag  -0.000075315772101   0.000254350853112  -0.000093941449564 0
force Ag  -0.000646795567463   0.000039785888430   0.000127771431814 0
force Ag  -0.000133315992655  -0.000200378763690   0.000231588353743 0
force Ag   0.000398304295949   0.000061193662233   0.000065504884220 0
force Ag  -0.000059228505191  -0.000097023393148   0.000556099520966 0
force Ag  -0.000140462384148   0.001170025202065   0.003754891020318 0
force Ag  -0.000098187046671  -0.000265652478088   0.000325908143780 0
force Ag  -0.000033962642011  -0.000227546399338   0.003411761745550 0
force Ag  -0.000057425670227  -0.000309718359985  -0.000108482283500 0
force Ag   0.000169337279824  -0.000334223977789   0.000910615408319 0
force Ag   0.000036816867250  -0.000499416353986  -0.000226608972464 0
force Ag  -0.000097351667359  -0.000214558120532  -0.000818049456670 0
force Ag   0.000012155540322   0.000015445781160   0.000034843348758 0
force Ag  -0.000009550627527  -0.000434242856084  -0.000403182385268 0
force Ag  -0.000083800587317   0.000064389454271   0.000171211147892 0
force Ag  -0.000252596232709  -0.000371397197599   0.000042182668971 0
force Ag  -0.000003527779528  -0.000997223931510  -0.000001177899140 0
force Ag   0.000092800415321  -0.000631960603642   0.000555629254338 0
force Ag   0.000117571947353  -0.000048210891808  -0.000323123543621 0
force Ag  -0.000025965333734  -0.000756838283620   0.000402607725020 0
force Ag   0.000415836469024   0.000199116832795  -0.000006526805445 0
force Ag   0.000079333230573  -0.000237002960959   0.000129206220924 0
force Ag  -0.000300288519126   0.000274711774418   0.000118380349473 0
force Ag   0.000029540760772   0.000606418930965  -0.000614641188592 0
force Ag   0.000370367762304  -0.005141493451693  -0.002602390965446 0
force Ag  -0.000638571309282   0.000804785165267  -0.000738060606480 0
force Ag  -0.000003340967967   0.000841890738105   0.000202628101160 0
force Ag   0.000731581538214   0.001219797005056  -0.000907384689108 0
force C   0.000618015258637  -0.003338880332416  -0.000221215019578 1  Linear 0 0 1
force O  -0.000666269230796   0.001144337008071  -0.000044883374485 1  Linear 0 0 1

# Energy components:
   A_diel =       -0.0026243456933166
   Eewald =    21801.0306090664198564
       EH =    27154.7220680385144078
     Eloc =   -55817.6863489415045478
      Enl =      160.9970569447575031
     EvdW =       -0.5378876916653604
      Exc =     -584.7023547122742002
 Exc_core =        8.4255455403890025
       KE =     1351.6932876967309767
-------------------------------------
     Etot =    -5926.0606484043246382
       TS =        0.0010766064271440
-------------------------------------
        F =    -5926.0617250107516156


Dumping 'jdft.fillings' ... done
Dumping 'jdft.wfns' ... done
Dumping 'jdft.fluidState' ... done
Dumping 'jdft.ionpos' ... done
Dumping 'jdft.lattice' ... done
Dumping 'jdft.eigenvals' ... done
Dumping 'jdft.eigStats' ... 
	eMin: -3.526912 at state 0 ( [ +0.000000 +0.000000 +0.000000 ] spin 1 )
	HOMO: -0.145273 at state 4 ( [ +0.250000 -0.333333 +0.000000 ] spin 1 )
	mu  : -0.144873
	LUMO: -0.144001 at state 5 ( [ +0.500000 +0.000000 +0.000000 ] spin 1 )
	eMax: +0.139809 at state 5 ( [ +0.500000 +0.000000 +0.000000 ] spin 1 )
	HOMO-LUMO gap: +0.001272
	Optical gap  : +0.002753 at state 8 ( [ +0.000000 +0.333333 +0.000000 ] spin -1 )
Dumping 'jdft.Ecomponents' ... done
IonicMinimize: Iter:  21  F: -5926.061725010751616  |grad|_K:  1.596e-04  alpha:  1.000e+00  linmin:  1.460e-02  t[s]:  80633.81

#--- Lowdin population analysis ---
# oxidation-state Ag -0.066 -0.026 -0.068 -0.070 +0.004 +0.002 -0.000 +0.003 -0.032 -0.031 -0.030 -0.029 -0.025 -0.029 -0.032 -0.030 +0.156 +0.041 +0.151 +0.042 -0.033 -0.034 -0.032 -0.030 +0.001 +0.005 +0.001 -0.001 -0.063 -0.067 -0.066 -0.067 +0.159 +0.164 +0.157 +0.151 -0.016 -0.031 -0.036 -0.027
# magnetic-moments Ag +0.000 +0.000 +0.000 +0.000 +0.000 +0.000 +0.000 +0.000 +0.000 +0.000 +0.000 +0.000 +0.000 +0.000 +0.000 +0.000 +0.000 +0.000 +0.000 +0.000 +0.000 +0.000 +0.000 +0.000 +0.000 +0.000 +0.000 +0.000 +0.000 +0.000 +0.000 +0.000 +0.000 +0.000 +0.000 +0.000 +0.000 +0.000 +0.000 +0.000
# oxidation-state C +0.363
# magnetic-moments C +0.000
# oxidation-state O -0.106
# magnetic-moments O +0.000


Computing DFT-D3 correction:
# coordination-number Ag 8.148 8.192 8.148 8.149 8.779 8.779 8.779 8.779 8.866 8.866 8.866 8.866 6.732 6.732 6.732 6.732 4.847 5.477 4.848 5.478 8.865 8.865 8.865 8.864 8.780 8.780 8.780 8.780 8.150 8.150 8.150 8.150 4.847 4.847 4.847 4.847 6.802 6.735 6.731 6.735
# coordination-number C 2.366
# coordination-number O 1.033
# diagonal-C6 Ag 268.61 268.61 268.61 268.61 268.61 268.61 268.61 268.61 268.61 268.61 268.61 268.61 268.61 268.61 268.61 268.61 268.61 268.61 268.61 268.61 268.61 268.61 268.61 268.61 268.61 268.61 268.61 268.61 268.61 268.61 268.61 268.61 268.61 268.61 268.61 268.61 268.61 268.61 268.61 268.61
# diagonal-C6 C 28.42
# diagonal-C6 O 12.78
EvdW_6 =   -0.221758
EvdW_8 =   -0.316134

-------- Electronic minimization -----------
	Linear fluid (dielectric constant: 78.4, screening length: 8.12261 Bohr) occupying 0.480414 of unit cell:	Completed after 7 iterations at t[s]:  80695.17
	FillingsUpdate:  mu: -0.144952369  nElectrons: 770.000000  magneticMoment: [ Abs: 0.00000  Tot: +0.00000 ]
ElecMinimize: Iter:   0  F: -5926.061694107569565  |grad|_K:  4.593e-07  alpha:  1.000e+00
	Linear fluid (dielectric constant: 78.4, screening length: 8.12261 Bohr) occupying 0.480418 of unit cell:	Completed after 12 iterations at t[s]:  80809.19
	Linear fluid (dielectric constant: 78.4, screening length: 8.12261 Bohr) occupying 0.480415 of unit cell:	Completed after 11 iterations at t[s]:  80849.62
	FillingsUpdate:  mu: -0.144796657  nElectrons: 770.000000  magneticMoment: [ Abs: 0.00000  Tot: +0.00000 ]
	SubspaceRotationAdjust: set factor to 0.694
ElecMinimize: Iter:   1  F: -5926.061717066399979  |grad|_K:  1.972e-07  alpha:  2.902e-01  linmin: -2.462e-05  t[s]:  80902.03
	Linear fluid (dielectric constant: 78.4, screening length: 8.12261 Bohr) occupying 0.480412 of unit cell:	Completed after 7 iterations at t[s]:  80955.63
	Linear fluid (dielectric constant: 78.4, screening length: 8.12261 Bohr) occupying 0.480411 of unit cell:	Completed after 2 iterations at t[s]:  80993.60
	FillingsUpdate:  mu: -0.144928197  nElectrons: 770.000000  magneticMoment: [ Abs: 0.00000  Tot: +0.00000 ]
	SubspaceRotationAdjust: set factor to 0.746
ElecMinimize: Iter:   2  F: -5926.061722594711682  |grad|_K:  1.115e-07  alpha:  3.790e-01  linmin: -5.924e-05  t[s]:  81046.83
	Linear fluid (dielectric constant: 78.4, screening length: 8.12261 Bohr) occupying 0.480415 of unit cell:	Completed after 7 iterations at t[s]:  81100.38
	Linear fluid (dielectric constant: 78.4, screening length: 8.12261 Bohr) occupying 0.480416 of unit cell:	Completed after 0 iterations at t[s]:  81137.50
	FillingsUpdate:  mu: -0.144795229  nElectrons: 770.000000  magneticMoment: [ Abs: 0.00000  Tot: +0.00000 ]
	SubspaceRotationAdjust: set factor to 0.638
ElecMinimize: Iter:   3  F: -5926.061724492636131  |grad|_K:  8.927e-08  alpha:  4.062e-01  linmin: -1.720e-04  t[s]:  81189.91
	Linear fluid (dielectric constant: 78.4, screening length: 8.12261 Bohr) occupying 0.480411 of unit cell:	Completed after 8 iterations at t[s]:  81243.71
	Linear fluid (dielectric constant: 78.4, screening length: 8.12261 Bohr) occupying 0.480412 of unit cell:	Completed after 2 iterations at t[s]:  81281.47
	FillingsUpdate:  mu: -0.144925007  nElectrons: 770.000000  magneticMoment: [ Abs: 0.00000  Tot: +0.00000 ]
	SubspaceRotationAdjust: set factor to 0.484
ElecMinimize: Iter:   4  F: -5926.061725368987027  |grad|_K:  4.598e-08  alpha:  2.830e-01  linmin:  2.725e-04  t[s]:  81333.78
	Linear fluid (dielectric constant: 78.4, screening length: 8.12261 Bohr) occupying 0.480415 of unit cell:	Completed after 2 iterations at t[s]:  81385.92
	Linear fluid (dielectric constant: 78.4, screening length: 8.12261 Bohr) occupying 0.480416 of unit cell:	Completed after 2 iterations at t[s]:  81423.62
	FillingsUpdate:  mu: -0.144864887  nElectrons: 770.000000  magneticMoment: [ Abs: 0.00000  Tot: +0.00000 ]
	SubspaceRotationAdjust: set factor to 0.446
ElecMinimize: Iter:   5  F: -5926.061725662880235  |grad|_K:  2.293e-08  alpha:  3.814e-01  linmin: -4.813e-04  t[s]:  81475.98
	Linear fluid (dielectric constant: 78.4, screening length: 8.12261 Bohr) occupying 0.480417 of unit cell:	Completed after 2 iterations at t[s]:  81528.09
	Linear fluid (dielectric constant: 78.4, screening length: 8.12261 Bohr) occupying 0.480417 of unit cell:	Completed after 0 iterations at t[s]:  81565.15
	FillingsUpdate:  mu: -0.144871353  nElectrons: 770.000000  magneticMoment: [ Abs: 0.00000  Tot: +0.00000 ]
	SubspaceRotationAdjust: set factor to 0.454
ElecMinimize: Iter:   6  F: -5926.061725741339615  |grad|_K:  1.072e-08  alpha:  3.802e-01  linmin: -7.862e-04  t[s]:  81617.69
	Linear fluid (dielectric constant: 78.4, screening length: 8.12261 Bohr) occupying 0.480417 of unit cell:	Completed after 0 iterations at t[s]:  81669.05
	Linear fluid (dielectric constant: 78.4, screening length: 8.12261 Bohr) occupying 0.480417 of unit cell:	Completed after 0 iterations at t[s]:  81705.98
	FillingsUpdate:  mu: -0.144871341  nElectrons: 770.000000  magneticMoment: [ Abs: 0.00000  Tot: +0.00000 ]
	SubspaceRotationAdjust: set factor to 0.572
ElecMinimize: Iter:   7  F: -5926.061725761781418  |grad|_K:  6.396e-09  alpha:  4.650e-01  linmin:  2.906e-04  t[s]:  81758.38
ElecMinimize: Converged (|Delta F|<1.000000e-07 for 2 iters).
Setting wave functions to eigenvectors of Hamiltonian
Converging empty states (this may take a while): |deigs|: 6.251e-09

Computing DFT-D3 correction:
# coordination-number Ag 8.148 8.192 8.148 8.149 8.779 8.779 8.779 8.779 8.866 8.866 8.866 8.866 6.732 6.732 6.732 6.732 4.847 5.477 4.848 5.478 8.865 8.865 8.865 8.864 8.780 8.780 8.780 8.780 8.150 8.150 8.150 8.150 4.847 4.847 4.847 4.847 6.802 6.735 6.731 6.735
# coordination-number C 2.366
# coordination-number O 1.033
# diagonal-C6 Ag 268.61 268.61 268.61 268.61 268.61 268.61 268.61 268.61 268.61 268.61 268.61 268.61 268.61 268.61 268.61 268.61 268.61 268.61 268.61 268.61 268.61 268.61 268.61 268.61 268.61 268.61 268.61 268.61 268.61 268.61 268.61 268.61 268.61 268.61 268.61 268.61 268.61 268.61 268.61 268.61
# diagonal-C6 C 28.42
# diagonal-C6 O 12.78
EvdW_6 =   -0.221758
EvdW_8 =   -0.316134

# Ionic positions in cartesian coordinates:
ion Ag   3.835417000000000   1.682334000000000  13.043153000000000 0
ion Ag   0.002582000000000  10.252812000000002  13.043153000000000 0
ion Ag  11.501085999999999   1.682334000000000  13.043153000000000 0
ion Ag   7.668251000000000  10.252812000000002  13.043153000000000 0
ion Ag  -0.000736000000000   3.395349000000000   9.424063000000000 0
ion Ag  -3.833556000000000  11.965828000000002   9.424063000000000 0
ion Ag   7.664932000000000   3.395349000000000   9.424063000000000 0
ion Ag   3.832112000000000  11.965828000000002   9.424063000000000 0
ion Ag   3.832742000000000   5.197413000000001   5.972663000000000 0
ion Ag  -0.000094000000000  13.767891000000002   5.972663000000000 0
ion Ag  11.498410000000000   5.197413000000001   5.972663000000000 0
ion Ag   7.665575000000000  13.767891000000002   5.972663000000000 0
ion Ag  -0.002722000000000   6.958834000000002   2.379593000000000 0
ion Ag  -3.835557000000001  15.529313000000004   2.379593000000000 0
ion Ag   7.662945999999999   6.958834000000002   2.379593000000000 0
ion Ag   3.830110999999999  15.529313000000004   2.379593000000000 0
ion Ag   7.669207999999998  17.005235000000003  16.291689999999999 0
ion Ag  11.502043000000000   8.434757000000001  16.291689999999999 0
ion Ag   0.003540000000000  17.005235000000003  16.291689999999999 0
ion Ag   3.836374999999999   8.434757000000001  16.291689999999999 0
ion Ag   3.833408000000000   6.801035000000001  11.168018000000000 0
ion Ag   0.000580999999999  15.371531000000001  11.168018000000000 0
ion Ag  11.499076999999998   6.801035000000001  11.168018000000000 0
ion Ag   7.666249000000000  15.371531000000001  11.168018000000000 0
ion Ag   3.833056000000000   0.031488000000000   7.715897999999999 0
ion Ag   0.000220999999999   8.601967000000002   7.715897999999999 0
ion Ag  11.498725000000000   0.031488000000000   7.715897999999999 0
ion Ag   7.665889999999999   8.601967000000002   7.715897999999999 0
ion Ag  -0.003434000000000   1.745429000000000   4.098042000000000 0
ion Ag  -3.836277000000000  10.315891000000002   4.098042000000000 0
ion Ag   7.662233999999999   1.745429000000000   4.098042000000000 0
ion Ag   3.829406000000000  10.315891000000002   4.098042000000000 0
ion Ag   3.830595000000000   3.565593000000000   0.850020000000000 0
ion Ag  -0.002240000000000  12.136072000000002   0.850020000000000 0
ion Ag  11.496263999999998   3.565593000000000   0.850020000000000 0
ion Ag   7.663429000000000  12.136072000000002   0.850020000000000 0
ion Ag   0.002330000000000   5.040161000000001  14.761654000000000 0
ion Ag  -3.830505000000001  13.610640000000002  14.761654000000000 0
ion Ag   7.667997999999999   5.040161000000001  14.761654000000000 0
ion Ag   3.835162999999999  13.610640000000002  14.761654000000000 0
ion C   0.002728000000000   9.028518999999999  18.852483383820701 1  Linear 0 0 1
ion O   0.062827000000000   9.028518999999999  21.049737488764816 1  Linear 0 0 1

# Forces in Cartesian coordinates:
force Ag   0.000289483509022   0.001265422784979   0.000463136607778 0
force Ag  -0.000159308289038   0.003144215784119  -0.007744388016848 0
force Ag  -0.000182810074237   0.001064956808996   0.000162334630493 0
force Ag   0.000196373993128  -0.000240350223940   0.000931171139112 0
force Ag  -0.000117284230419  -0.000064232959073   0.000274144817955 0
force Ag  -0.000308805839985  -0.000031530216445   0.000637353736011 0
force Ag   0.000069375375510  -0.000196070120922   0.000294009788416 0
force Ag   0.000348342962507  -0.000017892598793   0.000699224881580 0
force Ag   0.000381967027438   0.000676804814365  -0.000030391377971 0
force Ag  -0.000215881204853   0.000623306851460   0.000613472111478 0
force Ag  -0.000400360755302   0.000793886784657  -0.000365912368730 0
force Ag   0.000295955381525   0.000500190429367   0.000056211189409 0
force Ag  -0.000076086171524   0.000259656152148  -0.000088793776028 0
force Ag  -0.000650784602138   0.000038213797962   0.000128640480856 0
force Ag  -0.000134068990391  -0.000196537328301   0.000235657917688 0
force Ag   0.000401264257543   0.000060108538175   0.000065532370858 0
force Ag  -0.000058896080875  -0.000091931258034   0.000546916875847 0
force Ag  -0.000180567756714   0.001174759386382   0.003682089077696 0
force Ag  -0.000099287579540  -0.000273055783781   0.000317374064130 0
force Ag   0.000006730799547  -0.000228882261714   0.003331887644709 0
force Ag  -0.000059343831791  -0.000307199966539  -0.000109210041099 0
force Ag   0.000170151483518  -0.000332985454852   0.000931929255283 0
force Ag   0.000036321710595  -0.000496571105388  -0.000227069029349 0
force Ag  -0.000099597240360  -0.000215412324731  -0.000799863922719 0
force Ag   0.000009327333296   0.000012760931923   0.000037513699930 0
force Ag  -0.000010208763545  -0.000435950747280  -0.000387042604229 0
force Ag  -0.000082741572446   0.000062479532324   0.000176067239456 0
force Ag  -0.000254934208499  -0.000371052599780   0.000040474941949 0
force Ag  -0.000003521302077  -0.000994093619778  -0.000008850253995 0
force Ag   0.000096528055093  -0.000632819892316   0.000552333376204 0
force Ag   0.000120285646289  -0.000044486748195  -0.000327885766113 0
force Ag  -0.000027018360750  -0.000760957363652   0.000397665418806 0
force Ag   0.000413190011942   0.000200286866836  -0.000004337300071 0
force Ag   0.000079828182527  -0.000241730665980   0.000133356149010 0
force Ag  -0.000296820100581   0.000276488502940   0.000122005860311 0
force Ag   0.000029840998916   0.000606028508044  -0.000606048881642 0
force Ag   0.000370342637972  -0.005162251542299  -0.002587031359330 0
force Ag  -0.000640284823535   0.000807837886085  -0.000727043806914 0
force Ag  -0.000001327385178   0.000846207232288   0.000206091953213 0
force Ag   0.000733633492869   0.001225094944031  -0.000898711181447 0
force C   0.000620805382778  -0.003369814489908   0.000094064914414 1  Linear 0 0 1
force O  -0.000678125065444   0.001175504926471   0.000054547189240 1  Linear 0 0 1

# Energy components:
   A_diel =       -0.0026434976725362
   Eewald =    21802.0946412754019548
       EH =    27155.7716148071958742
     Eloc =   -55819.8001985993905691
      Enl =      160.9970345329892893
     EvdW =       -0.5378918884556685
      Exc =     -584.7028158728810467
 Exc_core =        8.4255455304498668
       KE =     1351.6940617516029306
-------------------------------------
     Etot =    -5926.0606519607545124
       TS =        0.0010738010269363
-------------------------------------
        F =    -5926.0617257617814175


Dumping 'jdft.fillings' ... done
Dumping 'jdft.wfns' ... done
Dumping 'jdft.fluidState' ... done
Dumping 'jdft.ionpos' ... done
Dumping 'jdft.lattice' ... done
Dumping 'jdft.eigenvals' ... done
Dumping 'jdft.eigStats' ... 
	eMin: -3.526911 at state 0 ( [ +0.000000 +0.000000 +0.000000 ] spin 1 )
	HOMO: -0.145273 at state 11 ( [ +0.250000 -0.333333 +0.000000 ] spin -1 )
	mu  : -0.144871
	LUMO: -0.143975 at state 5 ( [ +0.500000 +0.000000 +0.000000 ] spin 1 )
	eMax: +0.139809 at state 12 ( [ +0.500000 +0.000000 +0.000000 ] spin -1 )
	HOMO-LUMO gap: +0.001298
	Optical gap  : +0.002759 at state 1 ( [ +0.000000 +0.333333 +0.000000 ] spin 1 )
Dumping 'jdft.Ecomponents' ... done
IonicMinimize: Iter:  22  F: -5926.061725761781418  |grad|_K:  7.689e-05  alpha:  1.000e+00  linmin:  8.241e-03  t[s]:  81979.76
IonicMinimize: Converged (|grad|_K<1.000000e-04).

#--- Lowdin population analysis ---
# oxidation-state Ag -0.066 -0.026 -0.068 -0.070 +0.004 +0.002 -0.000 +0.003 -0.032 -0.031 -0.030 -0.029 -0.025 -0.029 -0.032 -0.030 +0.156 +0.042 +0.151 +0.043 -0.033 -0.034 -0.032 -0.030 +0.001 +0.005 +0.001 -0.001 -0.063 -0.067 -0.066 -0.067 +0.159 +0.164 +0.157 +0.151 -0.016 -0.031 -0.036 -0.027
# magnetic-moments Ag -0.000 +0.000 +0.000 +0.000 +0.000 +0.000 -0.000 +0.000 +0.000 -0.000 +0.000 +0.000 +0.000 +0.000 +0.000 +0.000 -0.000 -0.000 +0.000 +0.000 +0.000 +0.000 +0.000 -0.000 -0.000 +0.000 +0.000 +0.000 +0.000 +0.000 +0.000 +0.000 +0.000 +0.000 -0.000 +0.000 +0.000 -0.000 -0.000 +0.000
# oxidation-state C +0.363
# magnetic-moments C -0.000
# oxidation-state O -0.106
# magnetic-moments O -0.000


Dumping 'jdft.n_up' ... done
Dumping 'jdft.n_dn' ... done
Dumping 'jdft.tau_up' ... done
Dumping 'jdft.tau_dn' ... done
Dumping 'jdft.eigenvals' ... done
Dumping 'jdft.eigStats' ... 
	eMin: -3.526911 at state 0 ( [ +0.000000 +0.000000 +0.000000 ] spin 1 )
	HOMO: -0.145273 at state 11 ( [ +0.250000 -0.333333 +0.000000 ] spin -1 )
	mu  : -0.144871
	LUMO: -0.143975 at state 5 ( [ +0.500000 +0.000000 +0.000000 ] spin 1 )
	eMax: +0.139809 at state 12 ( [ +0.500000 +0.000000 +0.000000 ] spin -1 )
	HOMO-LUMO gap: +0.001298
	Optical gap  : +0.002759 at state 1 ( [ +0.000000 +0.333333 +0.000000 ] spin 1 )
Dumping 'jdft.kPts' ... done
Dumping 'jdft.kMap' ... done
Dumping 'jdft.dosUp' ... done.
Dumping 'jdft.dosDn' ... done.
End date and time: Fri Feb 18 13:35:47 2022  (Duration: 0-22:47:38.97)
Done!
