
*************** JDFTx 1.6.0  ***************

Start date and time: Thu Feb 17 17:16:34 2022
Executable /projects/musgravc/apps/jdftx-1.6.1/build/jdftx with command-line: -i in
Running on hosts (process indices):  shas0653.rc.int.colorado.edu (0-23)
Divided in process groups (process indices):  0 (0)  1 (1)  2 (2)  3 (3)  4 (4)  5 (5)  6 (6)  7 (7)  8 (8)  9 (9)  10 (10)  11 (11)  12 (12)  13 (13)  14 (14)  15 (15)  16 (16)  17 (17)  18 (18)  19 (19)  20 (20)  21 (21)  22 (22)  23 (23)
Resource initialization completed at t[s]:      0.00
Run totals: 24 processes, 24 threads, 0 GPUs


Input parsed successfully to the following command list (including defaults):

basis kpoint-dependent
converge-empty-states yes
coords-type Cartesian
core-overlap-check none
coulomb-interaction Periodic
davidson-band-ratio 1.1
density-of-states Etol 1.000000e-06 Esigma 1.000000e-03 \
		Complete \
	Total \
	OrthoOrbital Ag 1   s \
	OrthoOrbital Ag 1   p \
	OrthoOrbital Ag 1   px \
	OrthoOrbital Ag 1   py \
	OrthoOrbital Ag 1   pz \
	OrthoOrbital Ag 1   d \
	OrthoOrbital Ag 1   dxy \
	OrthoOrbital Ag 1   dyz \
	OrthoOrbital Ag 1   dz2 \
	OrthoOrbital Ag 1   dxz \
	OrthoOrbital Ag 1   dx2-y2 \
	OrthoOrbital Ag 2   s \
	OrthoOrbital Ag 2   p \
	OrthoOrbital Ag 2   px \
	OrthoOrbital Ag 2   py \
	OrthoOrbital Ag 2   pz \
	OrthoOrbital Ag 2   d \
	OrthoOrbital Ag 2   dxy \
	OrthoOrbital Ag 2   dyz \
	OrthoOrbital Ag 2   dz2 \
	OrthoOrbital Ag 2   dxz \
	OrthoOrbital Ag 2   dx2-y2 \
	OrthoOrbital Ag 3   s \
	OrthoOrbital Ag 3   p \
	OrthoOrbital Ag 3   px \
	OrthoOrbital Ag 3   py \
	OrthoOrbital Ag 3   pz \
	OrthoOrbital Ag 3   d \
	OrthoOrbital Ag 3   dxy \
	OrthoOrbital Ag 3   dyz \
	OrthoOrbital Ag 3   dz2 \
	OrthoOrbital Ag 3   dxz \
	OrthoOrbital Ag 3   dx2-y2 \
	OrthoOrbital Ag 4   s \
	OrthoOrbital Ag 4   p \
	OrthoOrbital Ag 4   px \
	OrthoOrbital Ag 4   py \
	OrthoOrbital Ag 4   pz \
	OrthoOrbital Ag 4   d \
	OrthoOrbital Ag 4   dxy \
	OrthoOrbital Ag 4   dyz \
	OrthoOrbital Ag 4   dz2 \
	OrthoOrbital Ag 4   dxz \
	OrthoOrbital Ag 4   dx2-y2 \
	OrthoOrbital Ag 5   s \
	OrthoOrbital Ag 5   p \
	OrthoOrbital Ag 5   px \
	OrthoOrbital Ag 5   py \
	OrthoOrbital Ag 5   pz \
	OrthoOrbital Ag 5   d \
	OrthoOrbital Ag 5   dxy \
	OrthoOrbital Ag 5   dyz \
	OrthoOrbital Ag 5   dz2 \
	OrthoOrbital Ag 5   dxz \
	OrthoOrbital Ag 5   dx2-y2 \
	OrthoOrbital Ag 6   s \
	OrthoOrbital Ag 6   p \
	OrthoOrbital Ag 6   px \
	OrthoOrbital Ag 6   py \
	OrthoOrbital Ag 6   pz \
	OrthoOrbital Ag 6   d \
	OrthoOrbital Ag 6   dxy \
	OrthoOrbital Ag 6   dyz \
	OrthoOrbital Ag 6   dz2 \
	OrthoOrbital Ag 6   dxz \
	OrthoOrbital Ag 6   dx2-y2 \
	OrthoOrbital Ag 7   s \
	OrthoOrbital Ag 7   p \
	OrthoOrbital Ag 7   px \
	OrthoOrbital Ag 7   py \
	OrthoOrbital Ag 7   pz \
	OrthoOrbital Ag 7   d \
	OrthoOrbital Ag 7   dxy \
	OrthoOrbital Ag 7   dyz \
	OrthoOrbital Ag 7   dz2 \
	OrthoOrbital Ag 7   dxz \
	OrthoOrbital Ag 7   dx2-y2 \
	OrthoOrbital Ag 8   s \
	OrthoOrbital Ag 8   p \
	OrthoOrbital Ag 8   px \
	OrthoOrbital Ag 8   py \
	OrthoOrbital Ag 8   pz \
	OrthoOrbital Ag 8   d \
	OrthoOrbital Ag 8   dxy \
	OrthoOrbital Ag 8   dyz \
	OrthoOrbital Ag 8   dz2 \
	OrthoOrbital Ag 8   dxz \
	OrthoOrbital Ag 8   dx2-y2 \
	OrthoOrbital Ag 9   s \
	OrthoOrbital Ag 9   p \
	OrthoOrbital Ag 9   px \
	OrthoOrbital Ag 9   py \
	OrthoOrbital Ag 9   pz \
	OrthoOrbital Ag 9   d \
	OrthoOrbital Ag 9   dxy \
	OrthoOrbital Ag 9   dyz \
	OrthoOrbital Ag 9   dz2 \
	OrthoOrbital Ag 9   dxz \
	OrthoOrbital Ag 9   dx2-y2 \
	OrthoOrbital Ag 10   s \
	OrthoOrbital Ag 10   p \
	OrthoOrbital Ag 10   px \
	OrthoOrbital Ag 10   py \
	OrthoOrbital Ag 10   pz \
	OrthoOrbital Ag 10   d \
	OrthoOrbital Ag 10   dxy \
	OrthoOrbital Ag 10   dyz \
	OrthoOrbital Ag 10   dz2 \
	OrthoOrbital Ag 10   dxz \
	OrthoOrbital Ag 10   dx2-y2 \
	OrthoOrbital Ag 11   s \
	OrthoOrbital Ag 11   p \
	OrthoOrbital Ag 11   px \
	OrthoOrbital Ag 11   py \
	OrthoOrbital Ag 11   pz \
	OrthoOrbital Ag 11   d \
	OrthoOrbital Ag 11   dxy \
	OrthoOrbital Ag 11   dyz \
	OrthoOrbital Ag 11   dz2 \
	OrthoOrbital Ag 11   dxz \
	OrthoOrbital Ag 11   dx2-y2 \
	OrthoOrbital Ag 12   s \
	OrthoOrbital Ag 12   p \
	OrthoOrbital Ag 12   px \
	OrthoOrbital Ag 12   py \
	OrthoOrbital Ag 12   pz \
	OrthoOrbital Ag 12   d \
	OrthoOrbital Ag 12   dxy \
	OrthoOrbital Ag 12   dyz \
	OrthoOrbital Ag 12   dz2 \
	OrthoOrbital Ag 12   dxz \
	OrthoOrbital Ag 12   dx2-y2 \
	OrthoOrbital Ag 13   s \
	OrthoOrbital Ag 13   p \
	OrthoOrbital Ag 13   px \
	OrthoOrbital Ag 13   py \
	OrthoOrbital Ag 13   pz \
	OrthoOrbital Ag 13   d \
	OrthoOrbital Ag 13   dxy \
	OrthoOrbital Ag 13   dyz \
	OrthoOrbital Ag 13   dz2 \
	OrthoOrbital Ag 13   dxz \
	OrthoOrbital Ag 13   dx2-y2 \
	OrthoOrbital Ag 14   s \
	OrthoOrbital Ag 14   p \
	OrthoOrbital Ag 14   px \
	OrthoOrbital Ag 14   py \
	OrthoOrbital Ag 14   pz \
	OrthoOrbital Ag 14   d \
	OrthoOrbital Ag 14   dxy \
	OrthoOrbital Ag 14   dyz \
	OrthoOrbital Ag 14   dz2 \
	OrthoOrbital Ag 14   dxz \
	OrthoOrbital Ag 14   dx2-y2 \
	OrthoOrbital Ag 15   s \
	OrthoOrbital Ag 15   p \
	OrthoOrbital Ag 15   px \
	OrthoOrbital Ag 15   py \
	OrthoOrbital Ag 15   pz \
	OrthoOrbital Ag 15   d \
	OrthoOrbital Ag 15   dxy \
	OrthoOrbital Ag 15   dyz \
	OrthoOrbital Ag 15   dz2 \
	OrthoOrbital Ag 15   dxz \
	OrthoOrbital Ag 15   dx2-y2 \
	OrthoOrbital Ag 16   s \
	OrthoOrbital Ag 16   p \
	OrthoOrbital Ag 16   px \
	OrthoOrbital Ag 16   py \
	OrthoOrbital Ag 16   pz \
	OrthoOrbital Ag 16   d \
	OrthoOrbital Ag 16   dxy \
	OrthoOrbital Ag 16   dyz \
	OrthoOrbital Ag 16   dz2 \
	OrthoOrbital Ag 16   dxz \
	OrthoOrbital Ag 16   dx2-y2 \
	OrthoOrbital C 1   s \
	OrthoOrbital C 1   p \
	OrthoOrbital C 1   px \
	OrthoOrbital C 1   py \
	OrthoOrbital C 1   pz \
	OrthoOrbital O 1   s \
	OrthoOrbital O 1   p \
	OrthoOrbital O 1   px \
	OrthoOrbital O 1   py \
	OrthoOrbital O 1   pz
dump End ElecDensity KEdensity BandEigs EigStats RhoAtom DOS Kpoints
dump Ionic State IonicPositions Lattice EigStats Ecomponents
dump 
dump 
dump 
dump 
dump 
dump 
dump 
dump 
dump-name jdft.$VAR
elec-cutoff 20
elec-eigen-algo Davidson
elec-ex-corr gga-PBE
elec-initial-magnetization 0.000000 no
elec-n-bands 189
elec-smearing Fermi 0.001
electronic-minimize  \
	dirUpdateScheme      FletcherReeves \
	linminMethod         DirUpdateRecommended \
	nIterations          100 \
	history              15 \
	knormThreshold       0 \
	energyDiffThreshold  1e-07 \
	nEnergyDiff          2 \
	alphaTstart          1 \
	alphaTmin            1e-10 \
	updateTestStepSize   yes \
	alphaTreduceFactor   0.1 \
	alphaTincreaseFactor 3 \
	nAlphaAdjustMax      3 \
	wolfeEnergy          0.0001 \
	wolfeGradient        0.9 \
	fdTest               no
exchange-regularization WignerSeitzTruncated
fluid LinearPCM 298.000000 1.013250
fluid-anion F- 0.5 MeanFieldLJ \
	epsBulk 1 \
	pMol 0 \
	epsInf 1 \
	Pvap 0 \
	sigmaBulk 0 \
	Rvdw 2.24877 \
	Res 0 \
	tauNuc 343133
fluid-cation Na+ 0.5 MeanFieldLJ \
	epsBulk 1 \
	pMol 0 \
	epsInf 1 \
	Pvap 0 \
	sigmaBulk 0 \
	Rvdw 2.19208 \
	Res 0 \
	tauNuc 343133
fluid-ex-corr lda-TF lda-PZ
fluid-gummel-loop 10 1.000000e-05
fluid-minimize  \
	dirUpdateScheme      PolakRibiere \
	linminMethod         DirUpdateRecommended \
	nIterations          400 \
	history              15 \
	knormThreshold       1e-11 \
	energyDiffThreshold  0 \
	nEnergyDiff          2 \
	alphaTstart          1 \
	alphaTmin            1e-10 \
	updateTestStepSize   yes \
	alphaTreduceFactor   0.1 \
	alphaTincreaseFactor 3 \
	nAlphaAdjustMax      6 \
	wolfeEnergy          0.0001 \
	wolfeGradient        0.9 \
	fdTest               no
fluid-solvent H2O 55.338 ScalarEOS \
	epsBulk 78.4 \
	pMol 0.92466 \
	epsInf 1.77 \
	Pvap 1.06736e-10 \
	sigmaBulk 4.62e-05 \
	Rvdw 2.61727 \
	Res 1.42 \
	tauNuc 343133 \
	poleEl 15 7 1
forces-output-coords Positions
ion Ag   0.000108000000000   0.000108000000000  40.278104999999996 0
ion Ag   0.000108000000000   5.420555000000000  40.278104999999996 0
ion Ag   5.420555000000000   0.000108000000000  40.278104999999996 0
ion Ag   5.420555000000000   5.420555000000000  40.278104999999996 0
ion Ag   2.712153000000000   2.712153000000000  44.189481000000001 0
ion Ag   2.712153000000000   8.132600000000000  44.189481000000001 0
ion Ag   8.132600000000000   2.712153000000000  44.189481000000001 0
ion Ag   8.132600000000000   8.132600000000000  44.189481000000001 0
ion Ag  10.837566000000001   5.417118999999999  32.464458000000000 0
ion Ag  10.837566000000001  10.837566000000001  32.464458000000000 0
ion Ag   5.417118999999999   5.417118999999999  32.464458000000000 0
ion Ag   5.417118999999999  10.837566000000001  32.464458000000000 0
ion Ag   2.711514000000000   2.711514000000000  36.381307999999997 0
ion Ag   2.711514000000000   8.131959999999999  36.381307999999997 0
ion Ag   8.131959999999999   2.711514000000000  36.381307999999997 0
ion Ag   8.131959999999999   8.131959999999999  36.381307999999997 0
ion C   5.422376999999999   5.422376999999999  43.829486000000003 1  Linear 0 0 1
ion O   5.482467999999999   5.422376999999999  45.984811000000001 1  Linear 0 0 1
ion-species /projects/musgravc/apps/jdftx-1.6.0/build/pseudopotentials/GBRV_v1.5/$ID_pbe_v1.uspp
ion-species /projects/musgravc/apps/jdftx-1.6.0/build/pseudopotentials/GBRV_v1.5/$ID_pbe_v1.2.uspp
ion-species /projects/musgravc/apps/jdftx-1.6.0/build/pseudopotentials/GBRV_v1.5/$ID_pbe_v1.4.uspp
ion-species /projects/musgravc/apps/jdftx-1.6.0/build/pseudopotentials/GBRV_v1.5/$ID_pbe_v1.5.uspp
ion-width Ecut
ionic-minimize  \
	dirUpdateScheme      L-BFGS \
	linminMethod         DirUpdateRecommended \
	nIterations          100 \
	history              15 \
	knormThreshold       0.0001 \
	energyDiffThreshold  1e-06 \
	nEnergyDiff          2 \
	alphaTstart          1 \
	alphaTmin            1e-10 \
	updateTestStepSize   yes \
	alphaTreduceFactor   0.1 \
	alphaTincreaseFactor 3 \
	nAlphaAdjustMax      3 \
	wolfeEnergy          0.0001 \
	wolfeGradient        0.9 \
	fdTest               no
kpoint   0.000000000000   0.000000000000   0.000000000000  1.00000000000000
kpoint-folding 6 6 1 
latt-move-scale 0 0 0
latt-scale 1 1 1 
lattice  \
	  10.840894000000000    0.000000000000000    0.000000000000000  \
	   0.000000000000000   10.840894000000000    0.000000000000000  \
	   0.000000000000000    0.000000000000000   45.994010000000003 
lattice-minimize  \
	dirUpdateScheme      L-BFGS \
	linminMethod         DirUpdateRecommended \
	nIterations          0 \
	history              15 \
	knormThreshold       0 \
	energyDiffThreshold  1e-06 \
	nEnergyDiff          2 \
	alphaTstart          1 \
	alphaTmin            1e-10 \
	updateTestStepSize   yes \
	alphaTreduceFactor   0.1 \
	alphaTincreaseFactor 3 \
	nAlphaAdjustMax      3 \
	wolfeEnergy          0.0001 \
	wolfeGradient        0.9 \
	fdTest               no
lcao-params 30 1e-06 0.001
pcm-variant CANDLE
spintype z-spin
subspace-rotation-factor 1 yes
symmetries automatic
symmetry-threshold 0.0001
van-der-waals D3



---------- Setting up symmetries ----------

Found 16 point-group symmetries of the bravais lattice
Found 1 space-group symmetries with basis
Applied RMS atom displacement 0 bohrs to make symmetries exact.

---------- Initializing the Grid ----------
R = 
[      10.8409            0            0  ]
[            0      10.8409            0  ]
[            0            0       45.994  ]
unit cell volume = 5405.45
G =
[   0.579582          0          0  ]
[          0   0.579582          0  ]
[          0          0   0.136609  ]
Minimum fftbox size, Smin = [  44  44  188  ]
Chosen fftbox size, S = [  48  48  192  ]

---------- Exchange Correlation functional ----------
Initalized PBE GGA exchange.
Initalized PBE GGA correlation.

---------- Setting up pseudopotentials ----------
Width of ionic core gaussian charges (only for fluid interactions / plotting) set to 0.397384

Reading pseudopotential file '/projects/musgravc/apps/jdftx-1.6.0/build/pseudopotentials/GBRV_v1.5/ag_pbe_v1.4.uspp':
  Title: Ag.  Created by USPP 7.3.6 on 1-4-15
  Reference state energy: -147.606242.  19 valence electrons in orbitals:
    |400>  occupation: 2  eigenvalue: -3.637437
    |410>  occupation: 6  eigenvalue: -2.297267
    |420>  occupation: 10  eigenvalue: -0.417763
    |500>  occupation: 0.5  eigenvalue: -0.283525
    |510>  occupation: 0  eigenvalue: -0.122889
  lMax: 2  lLocal: 0  QijEcut: 5.5
  6 projectors sampled on a log grid with 717 points:
    l: 0  eig: -0.283528  rCut: 1.5
    l: 0  eig: -3.637440  rCut: 1.5
    l: 1  eig: -0.122892  rCut: 1.5
    l: 1  eig: -2.297267  rCut: 1.5
    l: 2  eig: -0.417762  rCut: 1.7
    l: 2  eig: -1.000000  rCut: 1.7
  Partial core density with radius 1.2
  Transforming core density to a uniform radial grid of dG=0.02 with 1188 points.
  Transforming local potential to a uniform radial grid of dG=0.02 with 1188 points.
  Transforming nonlocal projectors to a uniform radial grid of dG=0.02 with 432 points.
  Transforming density augmentations to a uniform radial grid of dG=0.02 with 1188 points.
  Transforming atomic orbitals to a uniform radial grid of dG=0.02 with 432 points.
  Core radius for overlap checks: 1.70 bohrs.

Reading pseudopotential file '/projects/musgravc/apps/jdftx-1.6.0/build/pseudopotentials/GBRV_v1.5/c_pbe_v1.2.uspp':
  Title: C.  Created by USPP 7.3.6 on 3-2-2014
  Reference state energy: -5.406344.  4 valence electrons in orbitals:
    |200>  occupation: 2  eigenvalue: -0.504890
    |210>  occupation: 2  eigenvalue: -0.194356
  lMax: 1  lLocal: 2  QijEcut: 5
  4 projectors sampled on a log grid with 503 points:
    l: 0  eig: -0.504890  rCut: 1.3
    l: 0  eig: 0.000000  rCut: 1.3
    l: 1  eig: -0.194357  rCut: 1.3
    l: 1  eig: 0.000000  rCut: 1.3
  Partial core density with radius 1.1
  Transforming core density to a uniform radial grid of dG=0.02 with 1188 points.
  Transforming local potential to a uniform radial grid of dG=0.02 with 1188 points.
  Transforming nonlocal projectors to a uniform radial grid of dG=0.02 with 432 points.
  Transforming density augmentations to a uniform radial grid of dG=0.02 with 1188 points.
  Transforming atomic orbitals to a uniform radial grid of dG=0.02 with 432 points.
  Core radius for overlap checks: 1.30 bohrs.

Reading pseudopotential file '/projects/musgravc/apps/jdftx-1.6.0/build/pseudopotentials/GBRV_v1.5/o_pbe_v1.2.uspp':
  Title: O.  Created by USPP 7.3.6 on 3-2-2014
  Reference state energy: -15.894388.  6 valence electrons in orbitals:
    |200>  occupation: 2  eigenvalue: -0.878823
    |210>  occupation: 4  eigenvalue: -0.332131
  lMax: 2  lLocal: 2  QijEcut: 6
  5 projectors sampled on a log grid with 511 points:
    l: 0  eig: -0.878823  rCut: 1.25
    l: 0  eig: 0.000000  rCut: 1.25
    l: 1  eig: -0.332132  rCut: 1.25
    l: 1  eig: 0.000000  rCut: 1.25
    l: 2  eig: 1.000000  rCut: 1.25
  Partial core density with radius 0.7
  Transforming core density to a uniform radial grid of dG=0.02 with 1188 points.
  Transforming local potential to a uniform radial grid of dG=0.02 with 1188 points.
  Transforming nonlocal projectors to a uniform radial grid of dG=0.02 with 432 points.
  Transforming density augmentations to a uniform radial grid of dG=0.02 with 1188 points.
  Transforming atomic orbitals to a uniform radial grid of dG=0.02 with 432 points.
  Core radius for overlap checks: 1.25 bohrs.

Initialized 3 species with 18 total atoms.

Folded 1 k-points by 6x6x1 to 36 k-points.

---------- Setting up k-points, bands, fillings ----------
Adding inversion symmetry to k-mesh for non-inversion-symmetric unit cell.
Reduced to 20 k-points under symmetry. 
Computing the number of bands and number of electrons
Calculating initial fillings.
nElectrons: 314.000000   nBands: 189   nStates: 40

----- Setting up reduced wavefunction bases (one per k-point) -----
average nbasis = 23096.250 , ideal nbasis = 23092.474

----- Initializing Supercell corresponding to k-point mesh -----
Lattice vector linear combinations in supercell:
[   6   0   0  ]
[   0   6   0  ]
[   0   0   1  ]
Supercell lattice vectors:
[  65.0454  0  0  ]
[  0  65.0454  0  ]
[  0  0  45.994  ]

Initializing DFT-D3 calculator:
	Parameters set for gga-PBE functional
	s6:  1.000  s_r6:  1.217
	s8:  0.722  s_r8:  1.000
	Per-atom parameters loaded for:
	Ag:  sqrtQ[a0]:  5.443  Rcov[a0]:  2.173  CN: [ 0.00 0.97 ]
	 C:  sqrtQ[a0]:  3.105  Rcov[a0]:  1.417  CN: [ 0.00 0.99 2.00 3.00 3.98 ]
	 O:  sqrtQ[a0]:  2.594  Rcov[a0]:  1.191  CN: [ 0.00 0.99 1.99 ]

Initializing DFT-D2 calculator for fluid / solvation:
	Ag:  C6:  427.91 Eh-a0^6  R0: 3.097 a0
	 C:  C6:   30.35 Eh-a0^6  R0: 2.744 a0
	 O:  C6:   12.14 Eh-a0^6  R0: 2.536 a0

---------- Setting up ewald sum ----------
Optimum gaussian width for ewald sums = 4.324891 bohr.
Real space sum over 605 unit cells with max indices [  5  5  2  ]
Reciprocal space sum over 4477 terms with max indices [  5  5  18  ]

Computing DFT-D3 correction:
# coordination-number Ag 8.927 8.954 8.954 9.950 7.682 7.682 7.744 7.744 5.999 5.999 5.999 5.999 8.914 8.914 8.914 8.914
# coordination-number C 5.997
# coordination-number O 3.927
# diagonal-C6 Ag 268.61 268.61 268.61 268.61 268.61 268.61 268.61 268.61 268.61 268.61 268.61 268.61 268.61 268.61 268.61 268.61
# diagonal-C6 C 18.21
# diagonal-C6 O 10.37
EvdW_6 =   -0.087567
EvdW_8 =   -0.127731

---------- Allocating electronic variables ----------
Initializing wave functions:  linear combination of atomic orbitals
Ag pseudo-atom occupations:   s ( 2 1 )  p ( 6 0 )  d ( 10 )
C pseudo-atom occupations:   s ( 2 )  p ( 2 )
O pseudo-atom occupations:   s ( 2 )  p ( 4 )
	FillingsUpdate:  mu: +0.039171437  nElectrons: 314.000000  magneticMoment: [ Abs: 0.00212  Tot: -0.00011 ]
LCAOMinimize: Iter:   0  F: -2382.4605616833500790  |grad|_K:  1.599e-03  alpha:  1.000e+00
	FillingsUpdate:  mu: +0.147718467  nElectrons: 314.000000  magneticMoment: [ Abs: 0.00186  Tot: +0.00018 ]
LCAOMinimize: Iter:   1  F: -2382.8855422010838083  |grad|_K:  7.393e-04  alpha:  1.676e-01  linmin: -2.129e-02  cgtest:  2.168e-02  t[s]:     56.86
	FillingsUpdate:  mu: +0.109007444  nElectrons: 314.000000  magneticMoment: [ Abs: 0.00179  Tot: +0.00022 ]
LCAOMinimize: Iter:   2  F: -2382.9587898017657608  |grad|_K:  6.501e-04  alpha:  1.342e-01  linmin:  3.406e-03  cgtest:  9.098e-02  t[s]:     79.49
	FillingsUpdate:  mu: +0.107158700  nElectrons: 314.000000  magneticMoment: [ Abs: 0.00169  Tot: +0.00008 ]
LCAOMinimize: Iter:   3  F: -2382.9958263656612871  |grad|_K:  2.557e-04  alpha:  9.993e-02  linmin: -8.038e-03  cgtest: -8.060e-03  t[s]:    102.22
LCAOMinimize: 	Predicted alpha/alphaT>3.000000, increasing alphaT to 2.997909e-01.
	FillingsUpdate:  mu: +0.122111103  nElectrons: 314.000000  magneticMoment: [ Abs: 0.00162  Tot: +0.00030 ]
LCAOMinimize: Iter:   4  F: -2383.0147790716582676  |grad|_K:  8.524e-05  alpha:  2.994e-01  linmin:  6.949e-03  cgtest:  1.666e-02  t[s]:    131.78
	FillingsUpdate:  mu: +0.123962403  nElectrons: 314.000000  magneticMoment: [ Abs: 0.00162  Tot: +0.00033 ]
LCAOMinimize: Iter:   5  F: -2383.0161241055152459  |grad|_K:  5.078e-05  alpha:  2.014e-01  linmin:  5.004e-05  cgtest:  1.744e-03  t[s]:    154.41
	FillingsUpdate:  mu: +0.123904342  nElectrons: 314.000000  magneticMoment: [ Abs: 0.00162  Tot: +0.00034 ]
LCAOMinimize: Iter:   6  F: -2383.0163772200476160  |grad|_K:  3.240e-05  alpha:  1.048e-01  linmin:  2.857e-04  cgtest: -1.931e-02  t[s]:    177.05
	FillingsUpdate:  mu: +0.121318942  nElectrons: 314.000000  magneticMoment: [ Abs: 0.00163  Tot: +0.00033 ]
LCAOMinimize: Iter:   7  F: -2383.0164920179558976  |grad|_K:  1.051e-05  alpha:  1.163e-01  linmin: -6.529e-04  cgtest:  2.874e-02  t[s]:    199.81
LCAOMinimize: 	Predicted alpha/alphaT>3.000000, increasing alphaT to 3.489405e-01.
	FillingsUpdate:  mu: +0.121466853  nElectrons: 314.000000  magneticMoment: [ Abs: 0.00164  Tot: +0.00035 ]
LCAOMinimize: Iter:   8  F: -2383.0165317894025065  |grad|_K:  6.512e-06  alpha:  3.821e-01  linmin: -5.387e-06  cgtest: -6.706e-03  t[s]:    228.54
	FillingsUpdate:  mu: +0.121707203  nElectrons: 314.000000  magneticMoment: [ Abs: 0.00165  Tot: +0.00036 ]
LCAOMinimize: Iter:   9  F: -2383.0165361892559304  |grad|_K:  5.490e-06  alpha:  1.103e-01  linmin:  1.358e-04  cgtest: -1.389e-03  t[s]:    251.18
	FillingsUpdate:  mu: +0.121455096  nElectrons: 314.000000  magneticMoment: [ Abs: 0.00166  Tot: +0.00038 ]
LCAOMinimize: Iter:  10  F: -2383.0165415927949653  |grad|_K:  1.883e-06  alpha:  1.907e-01  linmin:  3.017e-04  cgtest:  7.578e-03  t[s]:    273.72
	FillingsUpdate:  mu: +0.121447202  nElectrons: 314.000000  magneticMoment: [ Abs: 0.00167  Tot: +0.00039 ]
LCAOMinimize: Iter:  11  F: -2383.0165426323414977  |grad|_K:  1.330e-06  alpha:  3.117e-01  linmin: -2.229e-05  cgtest:  2.029e-03  t[s]:    296.29
	FillingsUpdate:  mu: +0.121533783  nElectrons: 314.000000  magneticMoment: [ Abs: 0.00167  Tot: +0.00039 ]
LCAOMinimize: Iter:  12  F: -2383.0165427796628137  |grad|_K:  7.222e-07  alpha:  8.848e-02  linmin:  1.022e-05  cgtest: -7.610e-04  t[s]:    318.87
	FillingsUpdate:  mu: +0.121558967  nElectrons: 314.000000  magneticMoment: [ Abs: 0.00167  Tot: +0.00039 ]
LCAOMinimize: Iter:  13  F: -2383.0165428411255562  |grad|_K:  2.736e-07  alpha:  1.249e-01  linmin:  2.727e-05  cgtest:  3.486e-04  t[s]:    341.62
LCAOMinimize: Converged (|Delta F|<1.000000e-06 for 2 iters).
----- createFluidSolver() ----- (Fluid-side solver setup)
   Initializing fluid molecule 'H2O'
     Initializing site 'O'
       Electron density: proportional to exp(-r/0.36935)*erfc((r-0.51523)/0.36823) with norm 6.826
       Charge density: gaussian nuclear width 0.478731 with net site charge 0.826
       Polarizability: cuspless exponential with width 0.32 and norm 3.73
       Hard sphere radius: 2.57003 bohrs
       Positions in reference frame:
         [ +0.000000 +0.000000 +0.000000 ]
     Initializing site 'H'
       Electron density: proportional to exp(-r/0.34641)*erfc((r-0)/0.390882) with norm 0.587
       Charge density: gaussian nuclear width 0.377945 with net site charge -0.413
       Polarizability: cuspless exponential with width 0.39 and norm 3.3
       Positions in reference frame:
         [ +0.000000 -1.441945 +1.122523 ]
         [ +0.000000 +1.441945 +1.122523 ]
     Net charge: 0   dipole magnitude: 0.927204
     Initializing spherical shell mfKernel with radius 2.61727 Bohr
     deltaS corrections:
       site 'O': -7.54299
       site 'H': -6.83917
   Initializing fluid molecule 'Na+'
     Initializing site 'Na'
       Electron density: proportional to exp(-r/0.19682)*erfc((r-0.71491)/0.41314) with norm 8.1383
       Charge density: gaussian nuclear width 0.365347 with net site charge -1
       Hard sphere radius: 1.86327 bohrs
       Positions in reference frame:
         [ +0.000000 +0.000000 +0.000000 ]
     Net charge: -1   dipole magnitude: 0
     Initializing gaussian mfKernel with width: 1.55004 Bohr
     deltaS corrections:
       site 'Na': -22.3555
   Initializing fluid molecule 'F-'
     Initializing site 'F'
       Electron density: proportional to exp(-r/0.38886)*erfc((r-0)/0.438782) with norm 8
       Charge density: gaussian nuclear width 0.374796 with net site charge 1
       Hard sphere radius: 2.39995 bohrs
       Positions in reference frame:
         [ +0.000000 +0.000000 +0.000000 ]
     Net charge: 1   dipole magnitude: 0
     Initializing gaussian mfKernel with width: 1.59012 Bohr
     deltaS corrections:
       site 'F': -9.04335

Correction to mu due to finite nuclear width = -0.0576365
   Cavity determined by nc: 0.00142 and sigma: 0.707107
   Nonlocal vdW cavity from gaussian model electron density with norm = 8 and sigma = 0.993594 bohr
   Charge asymmetry in cavity with sensitivity pCavity = 36.5 e-bohr/Eh
   Electrostatic cavity expanded by eta = 1.46 bohrs
   Weighted density cavitation model constrained by Nbulk: 0.0049383 bohr^-3, Pvap: 3.14029 kPa, Rvdw: 2.61727 bohr and sigmaBulk: 4.62e-05 Eh/bohr^2 at T: 298 K.
   Weighted density dispersion model using vdW pair potentials with single solvent site with sqrtC6eff: 0.77 SI.


---- Citations for features of the code used in this run ----

   Software package:
      R. Sundararaman, K. Letchworth-Weaver, K.A. Schwarz, D. Gunceler, Y. Ozhabes and T.A. Arias, 'JDFTx: software for joint density-functional theory', SoftwareX 6, 278 (2017)

   gga-PBE exchange-correlation functional:
      J.P. Perdew, K. Burke and M. Ernzerhof, Phys. Rev. Lett. 77, 3865 (1996)

   Pseudopotentials:
      KF Garrity, JW Bennett, KM Rabe and D Vanderbilt, Comput. Mater. Sci. 81, 446 (2014)

   DFT-D3 dispersion correction:
      S. Grimme, J. Antony, S. Ehrlich and H. Krieg, J. Chem. Phys. 132, 154104 (2010)

   DFT-D2 dispersion correction:
      S. Grimme, J. Comput. Chem. 27, 1787 (2006)

   Charge-asymmetric nonlocally-determined local-electric (CANDLE) solvation model:
      R. Sundararaman and W.A. Goddard III, J. Chem. Phys. 142, 064107 (2015)

   Total energy minimization with Auxiliary Hamiltonian:
      C. Freysoldt, S. Boeck, and J. Neugebauer, Phys. Rev. B 79, 241103(R) (2009)

   Linear-tetrahedron sampling for density of states:
      G. Lehmann and M. Taut, Phys. status solidi (b) 54, 469 (1972)

This list may not be complete. Please suggest additional citations or
report any other bugs at https://github.com/shankar1729/jdftx/issues

Initialization completed successfully at t[s]:    348.64


Computing DFT-D3 correction:
# coordination-number Ag 8.927 8.954 8.954 9.950 7.682 7.682 7.744 7.744 5.999 5.999 5.999 5.999 8.914 8.914 8.914 8.914
# coordination-number C 5.997
# coordination-number O 3.927
# diagonal-C6 Ag 268.61 268.61 268.61 268.61 268.61 268.61 268.61 268.61 268.61 268.61 268.61 268.61 268.61 268.61 268.61 268.61
# diagonal-C6 C 18.21
# diagonal-C6 O 10.37
EvdW_6 =   -0.087567
EvdW_8 =   -0.127731
Fluid solver invoked on fresh (random / LCAO) wavefunctions
Running a vacuum solve first:

-------- Initial electronic minimization -----------
	FillingsUpdate:  mu: +0.121558967  nElectrons: 314.000000  magneticMoment: [ Abs: 0.00167  Tot: +0.00039 ]
ElecMinimize: Iter:   0  F: -2383.016542841122373  |grad|_K:  5.051e-05  alpha:  1.000e+00
	FillingsUpdate:  mu: +0.133857273  nElectrons: 314.000000  magneticMoment: [ Abs: 0.00133  Tot: +0.00040 ]
	SubspaceRotationAdjust: set factor to 1
ElecMinimize: Iter:   1  F: -2383.208570380897072  |grad|_K:  2.717e-05  alpha:  4.331e-01  linmin:  2.210e-04  t[s]:    403.70
	FillingsUpdate:  mu: +0.121652614  nElectrons: 314.000000  magneticMoment: [ Abs: 0.00110  Tot: +0.00034 ]
	SubspaceRotationAdjust: set factor to 0.702
ElecMinimize: Iter:   2  F: -2383.242496353936076  |grad|_K:  2.485e-05  alpha:  2.634e-01  linmin:  4.991e-05  t[s]:    438.36
	FillingsUpdate:  mu: +0.124721946  nElectrons: 314.000000  magneticMoment: [ Abs: 0.00097  Tot: +0.00029 ]
	SubspaceRotationAdjust: set factor to 0.393
ElecMinimize: Iter:   3  F: -2383.251377358869831  |grad|_K:  1.470e-05  alpha:  9.308e-02  linmin:  6.440e-04  t[s]:    473.08
ElecMinimize: 	Predicted alpha/alphaT>3.000000, increasing alphaT to 2.792437e-01.
	FillingsUpdate:  mu: +0.130023472  nElectrons: 314.000000  magneticMoment: [ Abs: 0.00073  Tot: +0.00023 ]
	SubspaceRotationAdjust: set factor to 0.63
ElecMinimize: Iter:   4  F: -2383.261567037493023  |grad|_K:  7.524e-06  alpha:  2.841e-01  linmin: -1.342e-06  t[s]:    516.57
	FillingsUpdate:  mu: +0.127501485  nElectrons: 314.000000  magneticMoment: [ Abs: 0.00060  Tot: +0.00020 ]
	SubspaceRotationAdjust: set factor to 0.47
ElecMinimize: Iter:   5  F: -2383.264491285456643  |grad|_K:  6.866e-06  alpha:  2.949e-01  linmin:  2.872e-04  t[s]:    551.25
	FillingsUpdate:  mu: +0.130087508  nElectrons: 314.000000  magneticMoment: [ Abs: 0.00051  Tot: +0.00019 ]
	SubspaceRotationAdjust: set factor to 0.3
ElecMinimize: Iter:   6  F: -2383.265812421992905  |grad|_K:  3.737e-06  alpha:  1.622e-01  linmin: -1.538e-05  t[s]:    586.00
	FillingsUpdate:  mu: +0.131715257  nElectrons: 314.000000  magneticMoment: [ Abs: 0.00038  Tot: +0.00015 ]
	SubspaceRotationAdjust: set factor to 0.382
ElecMinimize: Iter:   7  F: -2383.266924050721627  |grad|_K:  2.561e-06  alpha:  4.542e-01  linmin:  2.699e-05  t[s]:    620.68
	FillingsUpdate:  mu: +0.130552906  nElectrons: 314.000000  magneticMoment: [ Abs: 0.00032  Tot: +0.00012 ]
	SubspaceRotationAdjust: set factor to 0.341
ElecMinimize: Iter:   8  F: -2383.267327510720406  |grad|_K:  1.866e-06  alpha:  3.510e-01  linmin:  1.918e-05  t[s]:    655.30
	FillingsUpdate:  mu: +0.132017773  nElectrons: 314.000000  magneticMoment: [ Abs: 0.00027  Tot: +0.00011 ]
	SubspaceRotationAdjust: set factor to 0.247
ElecMinimize: Iter:   9  F: -2383.267524041380966  |grad|_K:  1.413e-06  alpha:  3.225e-01  linmin:  6.539e-06  t[s]:    689.98
	FillingsUpdate:  mu: +0.131739885  nElectrons: 314.000000  magneticMoment: [ Abs: 0.00022  Tot: +0.00009 ]
	SubspaceRotationAdjust: set factor to 0.242
ElecMinimize: Iter:  10  F: -2383.267646820638674  |grad|_K:  9.419e-07  alpha:  3.510e-01  linmin:  2.339e-05  t[s]:    724.80
	FillingsUpdate:  mu: +0.131759554  nElectrons: 314.000000  magneticMoment: [ Abs: 0.00018  Tot: +0.00008 ]
	SubspaceRotationAdjust: set factor to 0.272
ElecMinimize: Iter:  11  F: -2383.267706369676944  |grad|_K:  6.741e-07  alpha:  3.844e-01  linmin:  9.340e-06  t[s]:    759.58
	FillingsUpdate:  mu: +0.132255660  nElectrons: 314.000000  magneticMoment: [ Abs: 0.00015  Tot: +0.00007 ]
	SubspaceRotationAdjust: set factor to 0.245
ElecMinimize: Iter:  12  F: -2383.267737988941008  |grad|_K:  4.844e-07  alpha:  3.976e-01  linmin:  5.611e-06  t[s]:    794.16
	FillingsUpdate:  mu: +0.132058633  nElectrons: 314.000000  magneticMoment: [ Abs: 0.00012  Tot: +0.00006 ]
	SubspaceRotationAdjust: set factor to 0.242
ElecMinimize: Iter:  13  F: -2383.267753392076429  |grad|_K:  3.579e-07  alpha:  3.748e-01  linmin:  3.684e-06  t[s]:    828.94
	FillingsUpdate:  mu: +0.132069019  nElectrons: 314.000000  magneticMoment: [ Abs: 0.00010  Tot: +0.00005 ]
	SubspaceRotationAdjust: set factor to 0.283
ElecMinimize: Iter:  14  F: -2383.267762321737791  |grad|_K:  2.649e-07  alpha:  3.982e-01  linmin:  3.270e-06  t[s]:    863.67
	FillingsUpdate:  mu: +0.132271503  nElectrons: 314.000000  magneticMoment: [ Abs: 0.00008  Tot: +0.00004 ]
	SubspaceRotationAdjust: set factor to 0.273
ElecMinimize: Iter:  15  F: -2383.267767602471395  |grad|_K:  1.968e-07  alpha:  4.299e-01  linmin:  2.561e-06  t[s]:    898.38
	FillingsUpdate:  mu: +0.132173334  nElectrons: 314.000000  magneticMoment: [ Abs: 0.00006  Tot: +0.00003 ]
	SubspaceRotationAdjust: set factor to 0.244
ElecMinimize: Iter:  16  F: -2383.267770200312498  |grad|_K:  1.516e-07  alpha:  3.830e-01  linmin:  1.167e-06  t[s]:    933.05
	FillingsUpdate:  mu: +0.132208170  nElectrons: 314.000000  magneticMoment: [ Abs: 0.00005  Tot: +0.00003 ]
	SubspaceRotationAdjust: set factor to 0.278
ElecMinimize: Iter:  17  F: -2383.267771770847048  |grad|_K:  1.067e-07  alpha:  3.900e-01  linmin:  1.372e-06  t[s]:    967.55
	FillingsUpdate:  mu: +0.132243161  nElectrons: 314.000000  magneticMoment: [ Abs: 0.00004  Tot: +0.00002 ]
	SubspaceRotationAdjust: set factor to 0.294
ElecMinimize: Iter:  18  F: -2383.267772585530565  |grad|_K:  7.957e-08  alpha:  4.085e-01  linmin:  8.657e-07  t[s]:   1002.26
	FillingsUpdate:  mu: +0.132208197  nElectrons: 314.000000  magneticMoment: [ Abs: 0.00003  Tot: +0.00002 ]
	SubspaceRotationAdjust: set factor to 0.264
ElecMinimize: Iter:  19  F: -2383.267773001877686  |grad|_K:  5.815e-08  alpha:  3.753e-01  linmin:  3.874e-07  t[s]:   1037.62
	FillingsUpdate:  mu: +0.132236580  nElectrons: 314.000000  magneticMoment: [ Abs: 0.00002  Tot: +0.00002 ]
	SubspaceRotationAdjust: set factor to 0.261
ElecMinimize: Iter:  20  F: -2383.267773227615180  |grad|_K:  4.194e-08  alpha:  3.809e-01  linmin: -3.429e-09  t[s]:   1072.32
	FillingsUpdate:  mu: +0.132233268  nElectrons: 314.000000  magneticMoment: [ Abs: 0.00002  Tot: +0.00001 ]
	SubspaceRotationAdjust: set factor to 0.296
ElecMinimize: Iter:  21  F: -2383.267773346981357  |grad|_K:  2.898e-08  alpha:  3.868e-01  linmin: -3.847e-08  t[s]:   1107.07
	FillingsUpdate:  mu: +0.132223001  nElectrons: 314.000000  magneticMoment: [ Abs: 0.00001  Tot: +0.00001 ]
	SubspaceRotationAdjust: set factor to 0.302
ElecMinimize: Iter:  22  F: -2383.267773408711491  |grad|_K:  2.223e-08  alpha:  4.191e-01  linmin: -1.150e-07  t[s]:   1141.83
	FillingsUpdate:  mu: +0.132236180  nElectrons: 314.000000  magneticMoment: [ Abs: 0.00001  Tot: +0.00001 ]
	SubspaceRotationAdjust: set factor to 0.284
ElecMinimize: Iter:  23  F: -2383.267773440647034  |grad|_K:  1.703e-08  alpha:  3.682e-01  linmin:  1.534e-09  t[s]:   1176.46
ElecMinimize: Converged (|Delta F|<1.000000e-07 for 2 iters).
Setting wave functions to eigenvectors of Hamiltonian
Converging empty states (this may take a while): |deigs|: 9.882e-03
Vacuum energy after initial minimize, F = -2383.267773440647034


-------- Electronic minimization -----------
	Linear fluid (dielectric constant: 78.4, screening length: 8.12261 Bohr) occupying 0.484908 of unit cell:	Completed after 23 iterations at t[s]:   1309.96
	FillingsUpdate:  mu: -0.141351481  nElectrons: 314.000000  magneticMoment: [ Abs: 0.00000  Tot: +0.00000 ]
ElecMinimize: Iter:   0  F: -2383.268919028237178  |grad|_K:  1.002e-06  alpha:  1.000e+00
	Linear fluid (dielectric constant: 78.4, screening length: 8.12261 Bohr) occupying 0.485950 of unit cell:	Completed after 16 iterations at t[s]:   1339.76
	Linear fluid (dielectric constant: 78.4, screening length: 8.12261 Bohr) occupying 0.485584 of unit cell:	Completed after 16 iterations at t[s]:   1351.40
	FillingsUpdate:  mu: -0.140527587  nElectrons: 314.000000  magneticMoment: [ Abs: 0.00000  Tot: +0.00000 ]
	SubspaceRotationAdjust: set factor to 0.276
ElecMinimize: Iter:   1  F: -2383.269032947901451  |grad|_K:  8.437e-07  alpha:  6.474e-01  linmin: -1.701e-07  t[s]:   1365.85
	Linear fluid (dielectric constant: 78.4, screening length: 8.12261 Bohr) occupying 0.486492 of unit cell:	Completed after 13 iterations at t[s]:   1379.52
	Linear fluid (dielectric constant: 78.4, screening length: 8.12261 Bohr) occupying 0.486516 of unit cell:	Completed after 2 iterations at t[s]:   1389.61
	FillingsUpdate:  mu: -0.139610953  nElectrons: 314.000000  magneticMoment: [ Abs: 0.00000  Tot: +0.00000 ]
	SubspaceRotationAdjust: set factor to 0.352
ElecMinimize: Iter:   2  F: -2383.269115996671189  |grad|_K:  6.536e-07  alpha:  6.649e-01  linmin: -6.085e-07  t[s]:   1404.04
	Linear fluid (dielectric constant: 78.4, screening length: 8.12261 Bohr) occupying 0.487214 of unit cell:	Completed after 14 iterations at t[s]:   1417.77
	Linear fluid (dielectric constant: 78.4, screening length: 8.12261 Bohr) occupying 0.486973 of unit cell:	Completed after 10 iterations at t[s]:   1428.65
	FillingsUpdate:  mu: -0.139042695  nElectrons: 314.000000  magneticMoment: [ Abs: 0.00000  Tot: +0.00000 ]
	SubspaceRotationAdjust: set factor to 0.409
ElecMinimize: Iter:   3  F: -2383.269148294421484  |grad|_K:  4.757e-07  alpha:  4.300e-01  linmin:  4.454e-09  t[s]:   1443.15
	Linear fluid (dielectric constant: 78.4, screening length: 8.12261 Bohr) occupying 0.487245 of unit cell:	Completed after 13 iterations at t[s]:   1456.81
	Linear fluid (dielectric constant: 78.4, screening length: 8.12261 Bohr) occupying 0.487219 of unit cell:	Completed after 2 iterations at t[s]:   1467.00
	FillingsUpdate:  mu: -0.138764170  nElectrons: 314.000000  magneticMoment: [ Abs: 0.00000  Tot: +0.00000 ]
	SubspaceRotationAdjust: set factor to 0.483
ElecMinimize: Iter:   4  F: -2383.269163686527008  |grad|_K:  3.004e-07  alpha:  3.882e-01  linmin: -4.390e-08  t[s]:   1481.29
	Linear fluid (dielectric constant: 78.4, screening length: 8.12261 Bohr) occupying 0.487312 of unit cell:	Completed after 4 iterations at t[s]:   1493.95
	Linear fluid (dielectric constant: 78.4, screening length: 8.12261 Bohr) occupying 0.487338 of unit cell:	Completed after 3 iterations at t[s]:   1504.26
	FillingsUpdate:  mu: -0.138839656  nElectrons: 314.000000  magneticMoment: [ Abs: 0.00000  Tot: +0.00000 ]
	SubspaceRotationAdjust: set factor to 0.563
ElecMinimize: Iter:   5  F: -2383.269171603870291  |grad|_K:  2.090e-07  alpha:  5.002e-01  linmin: -7.458e-08  t[s]:   1518.57
	Linear fluid (dielectric constant: 78.4, screening length: 8.12261 Bohr) occupying 0.487386 of unit cell:	Completed after 6 iterations at t[s]:   1531.54
	Linear fluid (dielectric constant: 78.4, screening length: 8.12261 Bohr) occupying 0.487379 of unit cell:	Completed after 2 iterations at t[s]:   1541.60
	FillingsUpdate:  mu: -0.138798497  nElectrons: 314.000000  magneticMoment: [ Abs: 0.00000  Tot: +0.00000 ]
	SubspaceRotationAdjust: set factor to 0.638
ElecMinimize: Iter:   6  F: -2383.269174893572199  |grad|_K:  1.300e-07  alpha:  4.294e-01  linmin: -3.849e-08  t[s]:   1555.93
	Linear fluid (dielectric constant: 78.4, screening length: 8.12261 Bohr) occupying 0.487380 of unit cell:	Completed after 4 iterations at t[s]:   1568.60
	Linear fluid (dielectric constant: 78.4, screening length: 8.12261 Bohr) occupying 0.487380 of unit cell:	Completed after 0 iterations at t[s]:   1578.38
	FillingsUpdate:  mu: -0.138831062  nElectrons: 314.000000  magneticMoment: [ Abs: 0.00000  Tot: +0.00000 ]
	SubspaceRotationAdjust: set factor to 0.71
ElecMinimize: Iter:   7  F: -2383.269176216610504  |grad|_K:  7.688e-08  alpha:  4.465e-01  linmin: -4.639e-07  t[s]:   1592.77
	Linear fluid (dielectric constant: 78.4, screening length: 8.12261 Bohr) occupying 0.487367 of unit cell:	Completed after 2 iterations at t[s]:   1605.32
	Linear fluid (dielectric constant: 78.4, screening length: 8.12261 Bohr) occupying 0.487368 of unit cell:	Completed after 0 iterations at t[s]:   1615.43
	FillingsUpdate:  mu: -0.138837711  nElectrons: 314.000000  magneticMoment: [ Abs: 0.00000  Tot: +0.00000 ]
	SubspaceRotationAdjust: set factor to 0.78
ElecMinimize: Iter:   8  F: -2383.269176669319677  |grad|_K:  5.327e-08  alpha:  4.349e-01  linmin:  1.082e-07  t[s]:   1629.95
	Linear fluid (dielectric constant: 78.4, screening length: 8.12261 Bohr) occupying 0.487350 of unit cell:	Completed after 2 iterations at t[s]:   1642.48
	Linear fluid (dielectric constant: 78.4, screening length: 8.12261 Bohr) occupying 0.487354 of unit cell:	Completed after 1 iterations at t[s]:   1652.49
	FillingsUpdate:  mu: -0.138856590  nElectrons: 314.000000  magneticMoment: [ Abs: 0.00000  Tot: +0.00000 ]
	SubspaceRotationAdjust: set factor to 0.836
ElecMinimize: Iter:   9  F: -2383.269176831643563  |grad|_K:  3.505e-08  alpha:  3.285e-01  linmin:  8.194e-07  t[s]:   1666.97
	Linear fluid (dielectric constant: 78.4, screening length: 8.12261 Bohr) occupying 0.487343 of unit cell:	Completed after 2 iterations at t[s]:   1679.48
	Linear fluid (dielectric constant: 78.4, screening length: 8.12261 Bohr) occupying 0.487341 of unit cell:	Completed after 0 iterations at t[s]:   1689.37
	FillingsUpdate:  mu: -0.138865922  nElectrons: 314.000000  magneticMoment: [ Abs: 0.00000  Tot: +0.00000 ]
	SubspaceRotationAdjust: set factor to 0.912
ElecMinimize: Iter:  10  F: -2383.269176910669103  |grad|_K:  2.121e-08  alpha:  3.656e-01  linmin: -7.126e-06  t[s]:   1703.75
	Linear fluid (dielectric constant: 78.4, screening length: 8.12261 Bohr) occupying 0.487332 of unit cell:	Completed after 1 iterations at t[s]:   1716.14
	Linear fluid (dielectric constant: 78.4, screening length: 8.12261 Bohr) occupying 0.487331 of unit cell:	Completed after 0 iterations at t[s]:   1725.96
	FillingsUpdate:  mu: -0.138868993  nElectrons: 314.000000  magneticMoment: [ Abs: 0.00000  Tot: +0.00000 ]
	SubspaceRotationAdjust: set factor to 1.01
ElecMinimize: Iter:  11  F: -2383.269176943164439  |grad|_K:  1.392e-08  alpha:  3.998e-01  linmin: -3.305e-06  t[s]:   1740.44
ElecMinimize: Converged (|Delta F|<1.000000e-07 for 2 iters).
Setting wave functions to eigenvectors of Hamiltonian
Converging empty states (this may take a while): |deigs|: 1.043e-04
Single-point solvation energy estimate, DeltaF = -0.001403502517405

Computing DFT-D3 correction:
# coordination-number Ag 8.927 8.954 8.954 9.950 7.682 7.682 7.744 7.744 5.999 5.999 5.999 5.999 8.914 8.914 8.914 8.914
# coordination-number C 5.997
# coordination-number O 3.927
# diagonal-C6 Ag 268.61 268.61 268.61 268.61 268.61 268.61 268.61 268.61 268.61 268.61 268.61 268.61 268.61 268.61 268.61 268.61
# diagonal-C6 C 18.21
# diagonal-C6 O 10.37
EvdW_6 =   -0.087567
EvdW_8 =   -0.127731

# Ionic positions in cartesian coordinates:
ion Ag   0.000108000000000   0.000108000000000  40.278104999999996 0
ion Ag   0.000108000000000   5.420555000000000  40.278104999999996 0
ion Ag   5.420555000000000   0.000108000000000  40.278104999999996 0
ion Ag   5.420555000000000   5.420555000000000  40.278104999999996 0
ion Ag   2.712153000000000   2.712153000000000  44.189481000000001 0
ion Ag   2.712153000000000   8.132600000000000  44.189481000000001 0
ion Ag   8.132600000000000   2.712153000000000  44.189481000000001 0
ion Ag   8.132600000000000   8.132600000000000  44.189481000000001 0
ion Ag  10.837566000000001   5.417118999999999  32.464458000000000 0
ion Ag  10.837566000000001  10.837566000000001  32.464458000000000 0
ion Ag   5.417118999999999   5.417118999999999  32.464458000000000 0
ion Ag   5.417118999999999  10.837566000000001  32.464458000000000 0
ion Ag   2.711514000000000   2.711514000000000  36.381307999999997 0
ion Ag   2.711514000000000   8.131959999999999  36.381307999999997 0
ion Ag   8.131959999999999   2.711514000000000  36.381307999999997 0
ion Ag   8.131959999999999   8.131959999999999  36.381307999999997 0
ion C   5.422376999999999   5.422376999999999  43.829486000000003 1  Linear 0 0 1
ion O   5.482467999999999   5.422376999999999  45.984811000000001 1  Linear 0 0 1

# Forces in Cartesian coordinates:
force Ag  -0.000127821267530   0.000035203131253   0.002341461822572 0
force Ag  -0.000068747391028   0.000031248817749  -0.005573724204235 0
force Ag   0.000129318862942   0.000034863807846  -0.005559761212986 0
force Ag   0.000201648574293  -0.000016403458704  -0.087789825420538 0
force Ag  -0.056726697186658  -0.055997773938510  -0.012089610568218 0
force Ag  -0.056719484698422   0.055942226348016  -0.012094062884595 0
force Ag   0.059226226278011  -0.060092769280386  -0.013938525117133 0
force Ag   0.059218389844772   0.060035943223426  -0.013942901704206 0
force Ag   0.000065995734082   0.000054025098549  -0.000387513872792 0
force Ag   0.000101899491897   0.000054764311379   0.000668210833055 0
force Ag   0.000034461843721   0.000051145881895  -0.000411092060107 0
force Ag   0.000000037644979   0.000044616150327  -0.000383727078249 0
force Ag   0.000273583952984   0.000267355136521  -0.000799284616681 0
force Ag   0.000272001800906  -0.000401778010469  -0.000800340373804 0
force Ag  -0.000426039874626   0.000287600519882  -0.000856750897899 0
force Ag  -0.000424649951501  -0.000422864040859  -0.000857899159610 0
force C  -0.007528485174309   0.000040345423325  -0.122212674741262 1  Linear 0 0 1
force O   0.002383952141274  -0.000012211365789   0.274570454053786 1  Linear 0 0 1

# Energy components:
   A_diel =       -0.0020029581551047
   Eewald =     7167.6121329106499616
       EH =     9320.7227160508100496
     Eloc =   -19251.6997446143432171
      Enl =       66.4220876927924735
     EvdW =       -0.2152976393141989
      Exc =     -237.4742030066171878
 Exc_core =        3.4294566515047369
       KE =      547.9362127737764467
-------------------------------------
     Etot =    -2383.2686421388966664
       TS =        0.0005348042677964
-------------------------------------
        F =    -2383.2691769431644389


Dumping 'jdft.fillings' ... done
Dumping 'jdft.wfns' ... done
Dumping 'jdft.fluidState' ... done
Dumping 'jdft.ionpos' ... done
Dumping 'jdft.lattice' ... done
Dumping 'jdft.eigenvals' ... done
Dumping 'jdft.eigStats' ... 
	eMin: -3.560601 at state 0 ( [ +0.000000 +0.000000 +0.000000 ] spin 1 )
	HOMO: -0.139297 at state 21 ( [ +0.000000 +0.166667 +0.000000 ] spin -1 )
	mu  : -0.138869
	LUMO: -0.138813 at state 16 ( [ +0.500000 +0.000000 +0.000000 ] spin 1 )
	eMax: +0.156552 at state 23 ( [ +0.000000 +0.500000 +0.000000 ] spin -1 )
	HOMO-LUMO gap: +0.000484
	Optical gap  : +0.003408 at state 21 ( [ +0.000000 +0.166667 +0.000000 ] spin -1 )
Dumping 'jdft.Ecomponents' ... done
IonicMinimize: Iter:   0  F: -2383.269176943164439  |grad|_K:  2.125e-01  t[s]:   1863.95

#--- Lowdin population analysis ---
# oxidation-state Ag -0.059 -0.050 -0.050 +0.003 +0.063 +0.063 +0.065 +0.065 +0.046 +0.045 +0.036 +0.046 -0.048 -0.048 -0.047 -0.047
# magnetic-moments Ag +0.000 +0.000 +0.000 +0.000 +0.000 +0.000 +0.000 +0.000 +0.000 +0.000 +0.000 +0.000 +0.000 +0.000 +0.000 +0.000
# oxidation-state C +0.215
# magnetic-moments C +0.000
# oxidation-state O -0.116
# magnetic-moments O +0.000


Computing DFT-D3 correction:
# coordination-number Ag 8.927 8.956 8.956 9.945 7.645 7.645 7.709 7.709 5.999 5.999 5.999 5.999 8.914 8.914 8.914 8.914
# coordination-number C 5.999
# coordination-number O 3.778
# diagonal-C6 Ag 268.61 268.61 268.61 268.61 268.61 268.61 268.61 268.61 268.61 268.61 268.61 268.61 268.61 268.61 268.61 268.61
# diagonal-C6 C 18.21
# diagonal-C6 O 10.37
EvdW_6 =   -0.087526
EvdW_8 =   -0.127737

-------- Electronic minimization -----------
	Linear fluid (dielectric constant: 78.4, screening length: 8.12261 Bohr) occupying 0.487355 of unit cell:	Completed after 20 iterations at t[s]:   1878.38
	FillingsUpdate:  mu: -0.125200092  nElectrons: 314.000000  magneticMoment: [ Abs: 0.00000  Tot: +0.00000 ]
ElecMinimize: Iter:   0  F: -2383.190429730223968  |grad|_K:  3.840e-05  alpha:  1.000e+00
	Linear fluid (dielectric constant: 78.4, screening length: 8.12261 Bohr) occupying 0.488122 of unit cell:	Completed after 23 iterations at t[s]:   1909.06
	Linear fluid (dielectric constant: 78.4, screening length: 8.12261 Bohr) occupying 0.486315 of unit cell:	Completed after 22 iterations at t[s]:   1922.26
	FillingsUpdate:  mu: -0.156736667  nElectrons: 314.000000  magneticMoment: [ Abs: 0.00000  Tot: +0.00000 ]
	SubspaceRotationAdjust: set factor to 0.708
ElecMinimize: Iter:   1  F: -2383.275190209685206  |grad|_K:  2.051e-05  alpha:  3.353e-01  linmin:  1.029e-03  t[s]:   1936.74
	Linear fluid (dielectric constant: 78.4, screening length: 8.12261 Bohr) occupying 0.488324 of unit cell:	Completed after 21 iterations at t[s]:   1951.23
	Linear fluid (dielectric constant: 78.4, screening length: 8.12261 Bohr) occupying 0.486602 of unit cell:	Completed after 20 iterations at t[s]:   1963.13
	FillingsUpdate:  mu: -0.140182447  nElectrons: 314.000000  magneticMoment: [ Abs: 0.00000  Tot: +0.00000 ]
	SubspaceRotationAdjust: set factor to 0.398
ElecMinimize: Iter:   2  F: -2383.285545831504805  |grad|_K:  8.820e-06  alpha:  1.554e-01  linmin:  8.525e-04  t[s]:   1977.55
	Linear fluid (dielectric constant: 78.4, screening length: 8.12261 Bohr) occupying 0.486822 of unit cell:	Completed after 18 iterations at t[s]:   1991.61
	Linear fluid (dielectric constant: 78.4, screening length: 8.12261 Bohr) occupying 0.487029 of unit cell:	Completed after 18 iterations at t[s]:   2003.36
	FillingsUpdate:  mu: -0.139196179  nElectrons: 314.000000  magneticMoment: [ Abs: 0.00000  Tot: +0.00000 ]
	SubspaceRotationAdjust: set factor to 0.53
ElecMinimize: Iter:   3  F: -2383.289496817543750  |grad|_K:  4.340e-06  alpha:  3.040e-01  linmin:  6.175e-05  t[s]:   2017.75
	Linear fluid (dielectric constant: 78.4, screening length: 8.12261 Bohr) occupying 0.487069 of unit cell:	Completed after 19 iterations at t[s]:   2031.92
	Linear fluid (dielectric constant: 78.4, screening length: 8.12261 Bohr) occupying 0.487080 of unit cell:	Completed after 15 iterations at t[s]:   2043.40
	FillingsUpdate:  mu: -0.143310755  nElectrons: 314.000000  magneticMoment: [ Abs: 0.00000  Tot: +0.00000 ]
	SubspaceRotationAdjust: set factor to 0.492
ElecMinimize: Iter:   4  F: -2383.290767881180273  |grad|_K:  2.539e-06  alpha:  3.860e-01  linmin:  2.099e-06  t[s]:   2057.81
	Linear fluid (dielectric constant: 78.4, screening length: 8.12261 Bohr) occupying 0.487275 of unit cell:	Completed after 17 iterations at t[s]:   2071.84
	Linear fluid (dielectric constant: 78.4, screening length: 8.12261 Bohr) occupying 0.487269 of unit cell:	Completed after 6 iterations at t[s]:   2082.37
	FillingsUpdate:  mu: -0.141308525  nElectrons: 314.000000  magneticMoment: [ Abs: 0.00000  Tot: +0.00000 ]
	SubspaceRotationAdjust: set factor to 0.456
ElecMinimize: Iter:   5  F: -2383.291189447788383  |grad|_K:  1.400e-06  alpha:  3.731e-01  linmin: -5.859e-05  t[s]:   2096.73
	Linear fluid (dielectric constant: 78.4, screening length: 8.12261 Bohr) occupying 0.487343 of unit cell:	Completed after 11 iterations at t[s]:   2110.15
	Linear fluid (dielectric constant: 78.4, screening length: 8.12261 Bohr) occupying 0.487351 of unit cell:	Completed after 6 iterations at t[s]:   2120.70
	FillingsUpdate:  mu: -0.141293383  nElectrons: 314.000000  magneticMoment: [ Abs: 0.00000  Tot: +0.00000 ]
	SubspaceRotationAdjust: set factor to 0.518
ElecMinimize: Iter:   6  F: -2383.291333656968618  |grad|_K:  8.981e-07  alpha:  4.182e-01  linmin:  2.279e-06  t[s]:   2135.09
	Linear fluid (dielectric constant: 78.4, screening length: 8.12261 Bohr) occupying 0.487399 of unit cell:	Completed after 11 iterations at t[s]:   2148.47
	Linear fluid (dielectric constant: 78.4, screening length: 8.12261 Bohr) occupying 0.487393 of unit cell:	Completed after 4 iterations at t[s]:   2158.76
	FillingsUpdate:  mu: -0.141565918  nElectrons: 314.000000  magneticMoment: [ Abs: 0.00000  Tot: +0.00000 ]
	SubspaceRotationAdjust: set factor to 0.547
ElecMinimize: Iter:   7  F: -2383.291385371220258  |grad|_K:  5.172e-07  alpha:  3.658e-01  linmin:  6.526e-06  t[s]:   2173.28
	Linear fluid (dielectric constant: 78.4, screening length: 8.12261 Bohr) occupying 0.487443 of unit cell:	Completed after 10 iterations at t[s]:   2186.79
	Linear fluid (dielectric constant: 78.4, screening length: 8.12261 Bohr) occupying 0.487446 of unit cell:	Completed after 2 iterations at t[s]:   2196.89
	FillingsUpdate:  mu: -0.141199635  nElectrons: 314.000000  magneticMoment: [ Abs: 0.00000  Tot: +0.00000 ]
	SubspaceRotationAdjust: set factor to 0.611
ElecMinimize: Iter:   8  F: -2383.291403588823414  |grad|_K:  3.362e-07  alpha:  3.885e-01  linmin: -1.682e-05  t[s]:   2211.46
	Linear fluid (dielectric constant: 78.4, screening length: 8.12261 Bohr) occupying 0.487477 of unit cell:	Completed after 8 iterations at t[s]:   2224.55
	Linear fluid (dielectric constant: 78.4, screening length: 8.12261 Bohr) occupying 0.487477 of unit cell:	Completed after 0 iterations at t[s]:   2234.37
	FillingsUpdate:  mu: -0.141167166  nElectrons: 314.000000  magneticMoment: [ Abs: 0.00000  Tot: +0.00000 ]
	SubspaceRotationAdjust: set factor to 0.669
ElecMinimize: Iter:   9  F: -2383.291411261313442  |grad|_K:  2.046e-07  alpha:  3.866e-01  linmin:  6.324e-06  t[s]:   2248.85
	Linear fluid (dielectric constant: 78.4, screening length: 8.12261 Bohr) occupying 0.487493 of unit cell:	Completed after 9 iterations at t[s]:   2261.98
	Linear fluid (dielectric constant: 78.4, screening length: 8.12261 Bohr) occupying 0.487492 of unit cell:	Completed after 1 iterations at t[s]:   2272.05
	FillingsUpdate:  mu: -0.141308710  nElectrons: 314.000000  magneticMoment: [ Abs: 0.00000  Tot: +0.00000 ]
	SubspaceRotationAdjust: set factor to 0.614
ElecMinimize: Iter:  10  F: -2383.291413862819809  |grad|_K:  1.304e-07  alpha:  3.548e-01  linmin:  9.825e-06  t[s]:   2286.47
	Linear fluid (dielectric constant: 78.4, screening length: 8.12261 Bohr) occupying 0.487511 of unit cell:	Completed after 8 iterations at t[s]:   2299.58
	Linear fluid (dielectric constant: 78.4, screening length: 8.12261 Bohr) occupying 0.487511 of unit cell:	Completed after 0 iterations at t[s]:   2309.40
	FillingsUpdate:  mu: -0.141152999  nElectrons: 314.000000  magneticMoment: [ Abs: 0.00000  Tot: +0.00000 ]
	SubspaceRotationAdjust: set factor to 0.575
ElecMinimize: Iter:  11  F: -2383.291414916761823  |grad|_K:  7.733e-08  alpha:  3.538e-01  linmin: -4.717e-05  t[s]:   2323.92
	Linear fluid (dielectric constant: 78.4, screening length: 8.12261 Bohr) occupying 0.487515 of unit cell:	Completed after 2 iterations at t[s]:   2336.59
	Linear fluid (dielectric constant: 78.4, screening length: 8.12261 Bohr) occupying 0.487515 of unit cell:	Completed after 0 iterations at t[s]:   2346.35
	FillingsUpdate:  mu: -0.141179555  nElectrons: 314.000000  magneticMoment: [ Abs: 0.00000  Tot: +0.00000 ]
	SubspaceRotationAdjust: set factor to 0.583
ElecMinimize: Iter:  12  F: -2383.291415307137868  |grad|_K:  4.804e-08  alpha:  3.713e-01  linmin: -8.630e-05  t[s]:   2360.83
	Linear fluid (dielectric constant: 78.4, screening length: 8.12261 Bohr) occupying 0.487516 of unit cell:	Completed after 4 iterations at t[s]:   2373.55
	Linear fluid (dielectric constant: 78.4, screening length: 8.12261 Bohr) occupying 0.487516 of unit cell:	Completed after 0 iterations at t[s]:   2383.35
	FillingsUpdate:  mu: -0.141217448  nElectrons: 314.000000  magneticMoment: [ Abs: 0.00000  Tot: +0.00000 ]
	SubspaceRotationAdjust: set factor to 0.552
ElecMinimize: Iter:  13  F: -2383.291415459111704  |grad|_K:  3.303e-08  alpha:  3.720e-01  linmin: -7.557e-05  t[s]:   2397.86
	Linear fluid (dielectric constant: 78.4, screening length: 8.12261 Bohr) occupying 0.487519 of unit cell:	Completed after 2 iterations at t[s]:   2410.38
	Linear fluid (dielectric constant: 78.4, screening length: 8.12261 Bohr) occupying 0.487519 of unit cell:	Completed after 0 iterations at t[s]:   2420.17
	FillingsUpdate:  mu: -0.141196196  nElectrons: 314.000000  magneticMoment: [ Abs: 0.00000  Tot: +0.00000 ]
	SubspaceRotationAdjust: set factor to 0.584
ElecMinimize: Iter:  14  F: -2383.291415536878503  |grad|_K:  2.109e-08  alpha:  4.008e-01  linmin: -1.929e-04  t[s]:   2434.59
	Linear fluid (dielectric constant: 78.4, screening length: 8.12261 Bohr) occupying 0.487520 of unit cell:	Completed after 2 iterations at t[s]:   2447.06
	Linear fluid (dielectric constant: 78.4, screening length: 8.12261 Bohr) occupying 0.487520 of unit cell:	Completed after 0 iterations at t[s]:   2456.96
	FillingsUpdate:  mu: -0.141182850  nElectrons: 314.000000  magneticMoment: [ Abs: 0.00000  Tot: +0.00000 ]
	SubspaceRotationAdjust: set factor to 0.6
ElecMinimize: Iter:  15  F: -2383.291415568368848  |grad|_K:  1.579e-08  alpha:  3.940e-01  linmin: -3.030e-04  t[s]:   2471.39
ElecMinimize: Converged (|Delta F|<1.000000e-07 for 2 iters).
Setting wave functions to eigenvectors of Hamiltonian
Converging empty states (this may take a while): |deigs|: 2.032e-05

Computing DFT-D3 correction:
# coordination-number Ag 8.927 8.956 8.956 9.945 7.645 7.645 7.709 7.709 5.999 5.999 5.999 5.999 8.914 8.914 8.914 8.914
# coordination-number C 5.999
# coordination-number O 3.778
# diagonal-C6 Ag 268.61 268.61 268.61 268.61 268.61 268.61 268.61 268.61 268.61 268.61 268.61 268.61 268.61 268.61 268.61 268.61
# diagonal-C6 C 18.21
# diagonal-C6 O 10.37
EvdW_6 =   -0.087526
EvdW_8 =   -0.127737

# Ionic positions in cartesian coordinates:
ion Ag   0.000108000000000   0.000108000000000  40.278104999999996 0
ion Ag   0.000108000000000   5.420555000000000  40.278104999999996 0
ion Ag   5.420555000000000   0.000108000000000  40.278104999999996 0
ion Ag   5.420555000000000   5.420555000000000  40.278104999999996 0
ion Ag   2.712153000000000   2.712153000000000  44.189481000000001 0
ion Ag   2.712153000000000   8.132600000000000  44.189481000000001 0
ion Ag   8.132600000000000   2.712153000000000  44.189481000000001 0
ion Ag   8.132600000000000   8.132600000000000  44.189481000000001 0
ion Ag  10.837566000000001   5.417118999999999  32.464458000000000 0
ion Ag  10.837566000000001  10.837566000000001  32.464458000000000 0
ion Ag   5.417118999999999   5.417118999999999  32.464458000000000 0
ion Ag   5.417118999999999  10.837566000000001  32.464458000000000 0
ion Ag   2.711514000000000   2.711514000000000  36.381307999999997 0
ion Ag   2.711514000000000   8.131959999999999  36.381307999999997 0
ion Ag   8.131959999999999   2.711514000000000  36.381307999999997 0
ion Ag   8.131959999999999   8.131959999999999  36.381307999999997 0
ion C   5.422376999999999   5.422376999999999  43.784975502626047 1  Linear 0 0 1
ion O   5.482467999999999   5.422376999999999  46.084810999999995 1  Linear 0 0 1

# Forces in Cartesian coordinates:
force Ag  -0.000144388082481   0.000034924414840   0.002489179524949 0
force Ag  -0.000059042650002   0.000030605549281  -0.005752230552559 0
force Ag   0.000136482568044   0.000034736058983  -0.005740366495487 0
force Ag   0.000216283995293  -0.000020529744028  -0.096649292938530 0
force Ag  -0.052264305171189  -0.051619315739914  -0.010184992524079 0
force Ag  -0.052257120717734   0.051564645289604  -0.010189330568497 0
force Ag   0.054421923465276  -0.055191701846029  -0.011862113542608 0
force Ag   0.054413930865745   0.055135689407908  -0.011866332566944 0
force Ag   0.000064065480960   0.000054047281381  -0.000306199949252 0
force Ag   0.000096422601035   0.000054981667047   0.000726327535833 0
force Ag   0.000039716543085   0.000049768621236  -0.000084736857571 0
force Ag   0.000005521749969   0.000045087545208  -0.000303384816546 0
force Ag   0.000234385702997   0.000233839209799  -0.000914362719350 0
force Ag   0.000232672359525  -0.000368004908454  -0.000915403661619 0
force Ag  -0.000385875659392   0.000243689144292  -0.000981575227872 0
force Ag  -0.000384248069389  -0.000378622910180  -0.000982569738571 0
force C  -0.003550270166818   0.000047056991513   0.014348324487000 1  Linear 0 0 1
force O  -0.000927082051028  -0.000015190738995   0.139420685469011 1  Linear 0 0 1

# Energy components:
   A_diel =       -0.0016524420983148
   Eewald =     7162.4687619514825201
       EH =     9315.5810547101700649
     Eloc =   -19241.2817014876964095
      Enl =       66.3705381984958791
     EvdW =       -0.2152622878410416
      Exc =     -237.4241157561824593
 Exc_core =        3.4294660829546570
       KE =      547.7819373585316498
-------------------------------------
     Etot =    -2383.2909736721821901
       TS =        0.0004418961865048
-------------------------------------
        F =    -2383.2914155683688477


Dumping 'jdft.fillings' ... done
Dumping 'jdft.wfns' ... done
Dumping 'jdft.fluidState' ... done
Dumping 'jdft.ionpos' ... done
Dumping 'jdft.lattice' ... done
Dumping 'jdft.eigenvals' ... done
Dumping 'jdft.eigStats' ... 
	eMin: -3.563086 at state 0 ( [ +0.000000 +0.000000 +0.000000 ] spin 1 )
	HOMO: -0.141355 at state 37 ( [ +0.500000 +0.166667 +0.000000 ] spin -1 )
	mu  : -0.141183
	LUMO: -0.139842 at state 4 ( [ +0.166667 +0.000000 +0.000000 ] spin 1 )
	eMax: +0.156818 at state 23 ( [ +0.000000 +0.500000 +0.000000 ] spin -1 )
	HOMO-LUMO gap: +0.001513
	Optical gap  : +0.008306 at state 20 ( [ +0.000000 +0.000000 +0.000000 ] spin -1 )
Dumping 'jdft.Ecomponents' ... done
IonicMinimize: Iter:   1  F: -2383.291415568368848  |grad|_K:  9.911e-02  alpha:  3.642e-01  linmin: -5.311e-01  t[s]:   2582.23

#--- Lowdin population analysis ---
# oxidation-state Ag -0.055 -0.045 -0.045 +0.005 +0.077 +0.077 +0.078 +0.078 +0.050 +0.048 +0.042 +0.050 -0.048 -0.048 -0.048 -0.048
# magnetic-moments Ag +0.000 -0.000 +0.000 -0.000 -0.000 +0.000 +0.000 -0.000 +0.000 +0.000 +0.000 -0.000 -0.000 +0.000 -0.000 -0.000
# oxidation-state C +0.179
# magnetic-moments C +0.000
# oxidation-state O -0.175
# magnetic-moments O +0.000


Computing DFT-D3 correction:
# coordination-number Ag 8.927 8.955 8.955 9.940 7.605 7.605 7.671 7.671 5.999 5.999 5.999 5.999 8.914 8.914 8.914 8.914
# coordination-number C 5.998
# coordination-number O 3.617
# diagonal-C6 Ag 268.61 268.61 268.61 268.61 268.61 268.61 268.61 268.61 268.61 268.61 268.61 268.61 268.61 268.61 268.61 268.61
# diagonal-C6 C 18.21
# diagonal-C6 O 10.37
EvdW_6 =   -0.087478
EvdW_8 =   -0.127720

-------- Electronic minimization -----------
	Linear fluid (dielectric constant: 78.4, screening length: 8.12261 Bohr) occupying 0.487542 of unit cell:	Completed after 20 iterations at t[s]:   2596.68
	FillingsUpdate:  mu: -0.121586665  nElectrons: 314.000000  magneticMoment: [ Abs: 0.00000  Tot: +0.00000 ]
ElecMinimize: Iter:   0  F: -2383.221646769963627  |grad|_K:  3.396e-05  alpha:  1.000e+00
	Linear fluid (dielectric constant: 78.4, screening length: 8.12261 Bohr) occupying 0.484937 of unit cell:	Completed after 23 iterations at t[s]:   2627.35
	Linear fluid (dielectric constant: 78.4, screening length: 8.12261 Bohr) occupying 0.486312 of unit cell:	Completed after 21 iterations at t[s]:   2639.53
	FillingsUpdate:  mu: -0.155336962  nElectrons: 314.000000  magneticMoment: [ Abs: 0.00000  Tot: +0.00000 ]
	SubspaceRotationAdjust: set factor to 0.46
ElecMinimize: Iter:   1  F: -2383.291964978996020  |grad|_K:  1.320e-05  alpha:  3.472e-01  linmin:  1.768e-04  t[s]:   2653.92
	Linear fluid (dielectric constant: 78.4, screening length: 8.12261 Bohr) occupying 0.487031 of unit cell:	Completed after 20 iterations at t[s]:   2668.49
	Linear fluid (dielectric constant: 78.4, screening length: 8.12261 Bohr) occupying 0.486806 of unit cell:	Completed after 18 iterations at t[s]:   2680.17
	FillingsUpdate:  mu: -0.140962111  nElectrons: 314.000000  magneticMoment: [ Abs: 0.00000  Tot: +0.00000 ]
	SubspaceRotationAdjust: set factor to 0.335
ElecMinimize: Iter:   2  F: -2383.299671529624902  |grad|_K:  5.357e-06  alpha:  2.578e-01  linmin: -3.515e-04  t[s]:   2694.59
	Linear fluid (dielectric constant: 78.4, screening length: 8.12261 Bohr) occupying 0.486876 of unit cell:	Completed after 18 iterations at t[s]:   2708.73
	Linear fluid (dielectric constant: 78.4, screening length: 8.12261 Bohr) occupying 0.486918 of unit cell:	Completed after 17 iterations at t[s]:   2720.29
	FillingsUpdate:  mu: -0.143210056  nElectrons: 314.000000  magneticMoment: [ Abs: 0.00000  Tot: +0.00000 ]
	SubspaceRotationAdjust: set factor to 0.359
ElecMinimize: Iter:   3  F: -2383.301778140293663  |grad|_K:  3.527e-06  alpha:  4.144e-01  linmin:  2.916e-05  t[s]:   2734.82
	Linear fluid (dielectric constant: 78.4, screening length: 8.12261 Bohr) occupying 0.486974 of unit cell:	Completed after 17 iterations at t[s]:   2748.86
	Linear fluid (dielectric constant: 78.4, screening length: 8.12261 Bohr) occupying 0.486967 of unit cell:	Completed after 11 iterations at t[s]:   2759.81
	FillingsUpdate:  mu: -0.144500185  nElectrons: 314.000000  magneticMoment: [ Abs: 0.00000  Tot: +0.00000 ]
	SubspaceRotationAdjust: set factor to 0.397
ElecMinimize: Iter:   4  F: -2383.302564927862932  |grad|_K:  2.093e-06  alpha:  3.611e-01  linmin:  2.534e-06  t[s]:   2774.30
	Linear fluid (dielectric constant: 78.4, screening length: 8.12261 Bohr) occupying 0.487041 of unit cell:	Completed after 16 iterations at t[s]:   2788.32
	Linear fluid (dielectric constant: 78.4, screening length: 8.12261 Bohr) occupying 0.487052 of unit cell:	Completed after 8 iterations at t[s]:   2799.04
	FillingsUpdate:  mu: -0.143640089  nElectrons: 314.000000  magneticMoment: [ Abs: 0.00000  Tot: +0.00000 ]
	SubspaceRotationAdjust: set factor to 0.476
ElecMinimize: Iter:   5  F: -2383.302884396925947  |grad|_K:  1.238e-06  alpha:  4.160e-01  linmin: -3.143e-06  t[s]:   2813.84
	Linear fluid (dielectric constant: 78.4, screening length: 8.12261 Bohr) occupying 0.487112 of unit cell:	Completed after 11 iterations at t[s]:   2827.35
	Linear fluid (dielectric constant: 78.4, screening length: 8.12261 Bohr) occupying 0.487121 of unit cell:	Completed after 7 iterations at t[s]:   2837.96
	FillingsUpdate:  mu: -0.143141808  nElectrons: 314.000000  magneticMoment: [ Abs: 0.00000  Tot: +0.00000 ]
	SubspaceRotationAdjust: set factor to 0.576
ElecMinimize: Iter:   6  F: -2383.303014197398625  |grad|_K:  8.170e-07  alpha:  4.827e-01  linmin:  2.403e-06  t[s]:   2852.45
	Linear fluid (dielectric constant: 78.4, screening length: 8.12261 Bohr) occupying 0.487175 of unit cell:	Completed after 10 iterations at t[s]:   2865.77
	Linear fluid (dielectric constant: 78.4, screening length: 8.12261 Bohr) occupying 0.487167 of unit cell:	Completed after 7 iterations at t[s]:   2876.52
	FillingsUpdate:  mu: -0.143223838  nElectrons: 314.000000  magneticMoment: [ Abs: 0.00000  Tot: +0.00000 ]
	SubspaceRotationAdjust: set factor to 0.668
ElecMinimize: Iter:   7  F: -2383.303062139047597  |grad|_K:  5.456e-07  alpha:  4.098e-01  linmin:  1.180e-06  t[s]:   2890.89
	Linear fluid (dielectric constant: 78.4, screening length: 8.12261 Bohr) occupying 0.487222 of unit cell:	Completed after 10 iterations at t[s]:   2904.20
	Linear fluid (dielectric constant: 78.4, screening length: 8.12261 Bohr) occupying 0.487226 of unit cell:	Completed after 2 iterations at t[s]:   2914.29
	FillingsUpdate:  mu: -0.142947137  nElectrons: 314.000000  magneticMoment: [ Abs: 0.00000  Tot: +0.00000 ]
	SubspaceRotationAdjust: set factor to 0.764
ElecMinimize: Iter:   8  F: -2383.303084877459696  |grad|_K:  3.635e-07  alpha:  4.357e-01  linmin:  4.758e-06  t[s]:   2928.71
	Linear fluid (dielectric constant: 78.4, screening length: 8.12261 Bohr) occupying 0.487258 of unit cell:	Completed after 8 iterations at t[s]:   2941.87
	Linear fluid (dielectric constant: 78.4, screening length: 8.12261 Bohr) occupying 0.487249 of unit cell:	Completed after 6 iterations at t[s]:   2952.37
	FillingsUpdate:  mu: -0.143027331  nElectrons: 314.000000  magneticMoment: [ Abs: 0.00000  Tot: +0.00000 ]
	SubspaceRotationAdjust: set factor to 0.846
ElecMinimize: Iter:   9  F: -2383.303092041870514  |grad|_K:  2.246e-07  alpha:  3.093e-01  linmin:  5.693e-06  t[s]:   2966.79
	Linear fluid (dielectric constant: 78.4, screening length: 8.12261 Bohr) occupying 0.487265 of unit cell:	Completed after 6 iterations at t[s]:   2979.69
	Linear fluid (dielectric constant: 78.4, screening length: 8.12261 Bohr) occupying 0.487267 of unit cell:	Completed after 2 iterations at t[s]:   2989.87
	FillingsUpdate:  mu: -0.143057782  nElectrons: 314.000000  magneticMoment: [ Abs: 0.00000  Tot: +0.00000 ]
	SubspaceRotationAdjust: set factor to 0.801
ElecMinimize: Iter:  10  F: -2383.303095029475116  |grad|_K:  1.335e-07  alpha:  3.379e-01  linmin: -3.701e-05  t[s]:   3004.30
	Linear fluid (dielectric constant: 78.4, screening length: 8.12261 Bohr) occupying 0.487281 of unit cell:	Completed after 6 iterations at t[s]:   3017.13
	Linear fluid (dielectric constant: 78.4, screening length: 8.12261 Bohr) occupying 0.487281 of unit cell:	Completed after 0 iterations at t[s]:   3027.01
	FillingsUpdate:  mu: -0.142966524  nElectrons: 314.000000  magneticMoment: [ Abs: 0.00000  Tot: +0.00000 ]
	SubspaceRotationAdjust: set factor to 0.697
ElecMinimize: Iter:  11  F: -2383.303096098199148  |grad|_K:  7.741e-08  alpha:  3.415e-01  linmin:  1.182e-05  t[s]:   3041.48
	Linear fluid (dielectric constant: 78.4, screening length: 8.12261 Bohr) occupying 0.487281 of unit cell:	Completed after 5 iterations at t[s]:   3054.25
	Linear fluid (dielectric constant: 78.4, screening length: 8.12261 Bohr) occupying 0.487281 of unit cell:	Completed after 0 iterations at t[s]:   3064.19
	FillingsUpdate:  mu: -0.143033239  nElectrons: 314.000000  magneticMoment: [ Abs: 0.00000  Tot: +0.00000 ]
	SubspaceRotationAdjust: set factor to 0.631
ElecMinimize: Iter:  12  F: -2383.303096487670700  |grad|_K:  5.053e-08  alpha:  3.705e-01  linmin: -1.307e-04  t[s]:   3078.70
	Linear fluid (dielectric constant: 78.4, screening length: 8.12261 Bohr) occupying 0.487284 of unit cell:	Completed after 2 iterations at t[s]:   3091.17
	Linear fluid (dielectric constant: 78.4, screening length: 8.12261 Bohr) occupying 0.487284 of unit cell:	Completed after 0 iterations at t[s]:   3100.99
	FillingsUpdate:  mu: -0.143020244  nElectrons: 314.000000  magneticMoment: [ Abs: 0.00000  Tot: +0.00000 ]
	SubspaceRotationAdjust: set factor to 0.705
ElecMinimize: Iter:  13  F: -2383.303096651733540  |grad|_K:  3.614e-08  alpha:  3.599e-01  linmin:  3.996e-05  t[s]:   3115.49
	Linear fluid (dielectric constant: 78.4, screening length: 8.12261 Bohr) occupying 0.487287 of unit cell:	Completed after 2 iterations at t[s]:   3127.97
	Linear fluid (dielectric constant: 78.4, screening length: 8.12261 Bohr) occupying 0.487286 of unit cell:	Completed after 0 iterations at t[s]:   3137.80
	FillingsUpdate:  mu: -0.142999249  nElectrons: 314.000000  magneticMoment: [ Abs: 0.00000  Tot: +0.00000 ]
	SubspaceRotationAdjust: set factor to 0.756
ElecMinimize: Iter:  14  F: -2383.303096724308944  |grad|_K:  2.386e-08  alpha:  3.184e-01  linmin:  1.379e-04  t[s]:   3152.19
	Linear fluid (dielectric constant: 78.4, screening length: 8.12261 Bohr) occupying 0.487286 of unit cell:	Completed after 2 iterations at t[s]:   3164.77
	Linear fluid (dielectric constant: 78.4, screening length: 8.12261 Bohr) occupying 0.487286 of unit cell:	Completed after 0 iterations at t[s]:   3174.58
	FillingsUpdate:  mu: -0.143007509  nElectrons: 314.000000  magneticMoment: [ Abs: 0.00000  Tot: +0.00000 ]
	SubspaceRotationAdjust: set factor to 0.877
ElecMinimize: Iter:  15  F: -2383.303096760559129  |grad|_K:  1.478e-08  alpha:  3.657e-01  linmin: -3.905e-04  t[s]:   3189.05
ElecMinimize: Converged (|Delta F|<1.000000e-07 for 2 iters).
Setting wave functions to eigenvectors of Hamiltonian
Converging empty states (this may take a while): |deigs|: 7.007e-06

Computing DFT-D3 correction:
# coordination-number Ag 8.927 8.955 8.955 9.940 7.605 7.605 7.671 7.671 5.999 5.999 5.999 5.999 8.914 8.914 8.914 8.914
# coordination-number C 5.998
# coordination-number O 3.617
# diagonal-C6 Ag 268.61 268.61 268.61 268.61 268.61 268.61 268.61 268.61 268.61 268.61 268.61 268.61 268.61 268.61 268.61 268.61
# diagonal-C6 C 18.21
# diagonal-C6 O 10.37
EvdW_6 =   -0.087478
EvdW_8 =   -0.127720

# Ionic positions in cartesian coordinates:
ion Ag   0.000108000000000   0.000108000000000  40.278104999999996 0
ion Ag   0.000108000000000   5.420555000000000  40.278104999999996 0
ion Ag   5.420555000000000   0.000108000000000  40.278104999999996 0
ion Ag   5.420555000000000   5.420555000000000  40.278104999999996 0
ion Ag   2.712153000000000   2.712153000000000  44.189481000000001 0
ion Ag   2.712153000000000   8.132600000000000  44.189481000000001 0
ion Ag   8.132600000000000   2.712153000000000  44.189481000000001 0
ion Ag   8.132600000000000   8.132600000000000  44.189481000000001 0
ion Ag  10.837566000000001   5.417118999999999  32.464458000000000 0
ion Ag  10.837566000000001  10.837566000000001  32.464458000000000 0
ion Ag   5.417118999999999   5.417118999999999  32.464458000000000 0
ion Ag   5.417118999999999  10.837566000000001  32.464458000000000 0
ion Ag   2.711514000000000   2.711514000000000  36.381307999999997 0
ion Ag   2.711514000000000   8.131959999999999  36.381307999999997 0
ion Ag   8.131959999999999   2.711514000000000  36.381307999999997 0
ion Ag   8.131959999999999   8.131959999999999  36.381307999999997 0
ion C   5.422376999999999   5.422376999999999  43.799491503375670 1  Linear 0 0 1
ion O   5.482467999999999   5.422376999999999  46.184810999999989 1  Linear 0 0 1

# Forces in Cartesian coordinates:
force Ag  -0.000146987415541   0.000034806271909   0.002594192545428 0
force Ag  -0.000057372086649   0.000030401827551  -0.005736484169062 0
force Ag   0.000142658185956   0.000033745553876  -0.005726757133331 0
force Ag   0.000223798646229  -0.000019289644556  -0.093085829995928 0
force Ag  -0.049176860571480  -0.048595609351417  -0.009059259219875 0
force Ag  -0.049170038008306   0.048541592524476  -0.009063554132593 0
force Ag   0.051043186666302  -0.051739226681881  -0.010593840317438 0
force Ag   0.051035394950042   0.051683738559307  -0.010597994725509 0
force Ag   0.000062004291489   0.000054239330235  -0.000325116315953 0
force Ag   0.000090890981005   0.000054960858348   0.000665967463883 0
force Ag   0.000041446183561   0.000051659799269  -0.000105385827171 0
force Ag   0.000011226135873   0.000045991690678  -0.000323392762585 0
force Ag   0.000209595762436   0.000213407635014  -0.001078366693109 0
force Ag   0.000207922947296  -0.000347638858249  -0.001079187901134 0
force Ag  -0.000360585454018   0.000215492670626  -0.001152124196795 0
force Ag  -0.000358971682670  -0.000350454458172  -0.001153037177046 0
force C  -0.002087251687198   0.000045689885953   0.060731760547236 1  Linear 0 0 1
force O  -0.001817785042209  -0.000009165683975   0.085391645574244 1  Linear 0 0 1

# Energy components:
   A_diel =       -0.0016277904558573
   Eewald =     7155.7861707490401386
       EH =     9308.8087813429410744
     Eloc =   -19227.7464179957460146
      Enl =       66.3476203401258999
     EvdW =       -0.2151983594769504
      Exc =     -237.3914056090413851
 Exc_core =        3.4294588815227347
       KE =      547.6798656628022854
-------------------------------------
     Etot =    -2383.3027527782887773
       TS =        0.0003439822703285
-------------------------------------
        F =    -2383.3030967605591286


Dumping 'jdft.fillings' ... done
Dumping 'jdft.wfns' ... done
Dumping 'jdft.fluidState' ... done
Dumping 'jdft.ionpos' ... done
Dumping 'jdft.lattice' ... done
Dumping 'jdft.eigenvals' ... done
Dumping 'jdft.eigStats' ... 
	eMin: -3.562762 at state 20 ( [ +0.000000 +0.000000 +0.000000 ] spin -1 )
	HOMO: -0.143122 at state 39 ( [ +0.500000 +0.500000 +0.000000 ] spin -1 )
	mu  : -0.143008
	LUMO: -0.140406 at state 4 ( [ +0.166667 +0.000000 +0.000000 ] spin 1 )
	eMax: +0.156438 at state 23 ( [ +0.000000 +0.500000 +0.000000 ] spin -1 )
	HOMO-LUMO gap: +0.002715
	Optical gap  : +0.007825 at state 0 ( [ +0.000000 +0.000000 +0.000000 ] spin 1 )
Dumping 'jdft.Ecomponents' ... done
IonicMinimize: Iter:   2  F: -2383.303096760559129  |grad|_K:  7.409e-02  alpha:  8.669e-01  linmin: -4.648e-01  t[s]:   3280.96

#--- Lowdin population analysis ---
# oxidation-state Ag -0.053 -0.043 -0.043 +0.006 +0.084 +0.084 +0.085 +0.085 +0.053 +0.050 +0.045 +0.053 -0.049 -0.048 -0.048 -0.048
# magnetic-moments Ag -0.000 -0.000 -0.000 -0.000 -0.000 +0.000 +0.000 -0.000 -0.000 +0.000 -0.000 +0.000 +0.000 -0.000 +0.000 +0.000
# oxidation-state C +0.159
# magnetic-moments C -0.000
# oxidation-state O -0.205
# magnetic-moments O +0.000


Computing DFT-D3 correction:
# coordination-number Ag 8.926 8.953 8.953 9.935 7.564 7.564 7.631 7.631 5.999 5.999 5.999 5.999 8.914 8.914 8.914 8.914
# coordination-number C 5.995
# coordination-number O 3.446
# diagonal-C6 Ag 268.61 268.61 268.61 268.61 268.61 268.61 268.61 268.61 268.61 268.61 268.61 268.61 268.61 268.61 268.61 268.61
# diagonal-C6 C 18.21
# diagonal-C6 O 10.37
EvdW_6 =   -0.087428
EvdW_8 =   -0.127690

-------- Electronic minimization -----------
	Linear fluid (dielectric constant: 78.4, screening length: 8.12261 Bohr) occupying 0.487295 of unit cell:	Completed after 20 iterations at t[s]:   3295.41
	FillingsUpdate:  mu: -0.120182428  nElectrons: 314.000000  magneticMoment: [ Abs: 0.00000  Tot: +0.00000 ]
ElecMinimize: Iter:   0  F: -2383.234284651804501  |grad|_K:  3.385e-05  alpha:  1.000e+00
	Linear fluid (dielectric constant: 78.4, screening length: 8.12261 Bohr) occupying 0.483411 of unit cell:	Completed after 23 iterations at t[s]:   3326.20
	Linear fluid (dielectric constant: 78.4, screening length: 8.12261 Bohr) occupying 0.485499 of unit cell:	Completed after 22 iterations at t[s]:   3338.38
	FillingsUpdate:  mu: -0.164315925  nElectrons: 314.000000  magneticMoment: [ Abs: 0.00000  Tot: +0.00000 ]
	SubspaceRotationAdjust: set factor to 0.62
ElecMinimize: Iter:   1  F: -2383.298127189505976  |grad|_K:  1.774e-05  alpha:  3.102e-01  linmin: -4.127e-04  t[s]:   3352.71
	Linear fluid (dielectric constant: 78.4, screening length: 8.12261 Bohr) occupying 0.486929 of unit cell:	Completed after 20 iterations at t[s]:   3367.02
	Linear fluid (dielectric constant: 78.4, screening length: 8.12261 Bohr) occupying 0.486311 of unit cell:	Completed after 19 iterations at t[s]:   3378.84
	FillingsUpdate:  mu: -0.142319975  nElectrons: 314.000000  magneticMoment: [ Abs: 0.00000  Tot: +0.00000 ]
	SubspaceRotationAdjust: set factor to 0.393
ElecMinimize: Iter:   2  F: -2383.308708965599180  |grad|_K:  6.593e-06  alpha:  1.984e-01  linmin: -4.963e-05  t[s]:   3393.31
	Linear fluid (dielectric constant: 78.4, screening length: 8.12261 Bohr) occupying 0.486425 of unit cell:	Completed after 13 iterations at t[s]:   3406.93
	Linear fluid (dielectric constant: 78.4, screening length: 8.12261 Bohr) occupying 0.486516 of unit cell:	Completed after 13 iterations at t[s]:   3418.20
	FillingsUpdate:  mu: -0.143245584  nElectrons: 314.000000  magneticMoment: [ Abs: 0.00000  Tot: +0.00000 ]
	SubspaceRotationAdjust: set factor to 0.426
ElecMinimize: Iter:   3  F: -2383.311462382946047  |grad|_K:  4.108e-06  alpha:  3.605e-01  linmin: -3.683e-06  t[s]:   3432.63
	Linear fluid (dielectric constant: 78.4, screening length: 8.12261 Bohr) occupying 0.486566 of unit cell:	Completed after 16 iterations at t[s]:   3446.77
	Linear fluid (dielectric constant: 78.4, screening length: 8.12261 Bohr) occupying 0.486571 of unit cell:	Completed after 11 iterations at t[s]:   3457.74
	FillingsUpdate:  mu: -0.146421865  nElectrons: 314.000000  magneticMoment: [ Abs: 0.00000  Tot: +0.00000 ]
	SubspaceRotationAdjust: set factor to 0.426
ElecMinimize: Iter:   4  F: -2383.312624306713587  |grad|_K:  2.413e-06  alpha:  3.927e-01  linmin:  2.269e-05  t[s]:   3472.18
	Linear fluid (dielectric constant: 78.4, screening length: 8.12261 Bohr) occupying 0.486714 of unit cell:	Completed after 17 iterations at t[s]:   3486.25
	Linear fluid (dielectric constant: 78.4, screening length: 8.12261 Bohr) occupying 0.486720 of unit cell:	Completed after 6 iterations at t[s]:   3496.71
	FillingsUpdate:  mu: -0.144743922  nElectrons: 314.000000  magneticMoment: [ Abs: 0.00000  Tot: +0.00000 ]
	SubspaceRotationAdjust: set factor to 0.478
ElecMinimize: Iter:   5  F: -2383.313039820205177  |grad|_K:  1.317e-06  alpha:  4.073e-01  linmin: -4.370e-06  t[s]:   3511.05
	Linear fluid (dielectric constant: 78.4, screening length: 8.12261 Bohr) occupying 0.486770 of unit cell:	Completed after 11 iterations at t[s]:   3524.46
	Linear fluid (dielectric constant: 78.4, screening length: 8.12261 Bohr) occupying 0.486772 of unit cell:	Completed after 2 iterations at t[s]:   3534.57
	FillingsUpdate:  mu: -0.144555860  nElectrons: 314.000000  magneticMoment: [ Abs: 0.00000  Tot: +0.00000 ]
	SubspaceRotationAdjust: set factor to 0.523
ElecMinimize: Iter:   6  F: -2383.313170620845085  |grad|_K:  8.579e-07  alpha:  4.299e-01  linmin:  2.756e-06  t[s]:   3548.96
	Linear fluid (dielectric constant: 78.4, screening length: 8.12261 Bohr) occupying 0.486805 of unit cell:	Completed after 11 iterations at t[s]:   3562.42
	Linear fluid (dielectric constant: 78.4, screening length: 8.12261 Bohr) occupying 0.486801 of unit cell:	Completed after 6 iterations at t[s]:   3572.98
	FillingsUpdate:  mu: -0.144792467  nElectrons: 314.000000  magneticMoment: [ Abs: 0.00000  Tot: +0.00000 ]
	SubspaceRotationAdjust: set factor to 0.547
ElecMinimize: Iter:   7  F: -2383.313218416073596  |grad|_K:  4.938e-07  alpha:  3.705e-01  linmin:  4.779e-06  t[s]:   3587.37
	Linear fluid (dielectric constant: 78.4, screening length: 8.12261 Bohr) occupying 0.486843 of unit cell:	Completed after 11 iterations at t[s]:   3600.76
	Linear fluid (dielectric constant: 78.4, screening length: 8.12261 Bohr) occupying 0.486849 of unit cell:	Completed after 2 iterations at t[s]:   3610.88
	FillingsUpdate:  mu: -0.144388685  nElectrons: 314.000000  magneticMoment: [ Abs: 0.00000  Tot: +0.00000 ]
	SubspaceRotationAdjust: set factor to 0.585
[...]
# diagonal-C6 C 24.37
# diagonal-C6 O 12.77
EvdW_6 =   -0.086640
EvdW_8 =   -0.127393

-------- Electronic minimization -----------
	Linear fluid (dielectric constant: 78.4, screening length: 8.12261 Bohr) occupying 0.455674 of unit cell:	Completed after 9 iterations at t[s]:  22816.84
	FillingsUpdate:  mu: -0.150926699  nElectrons: 314.000000  magneticMoment: [ Abs: 0.00000  Tot: -0.00000 ]
ElecMinimize: Iter:   0  F: -2383.469855452789943  |grad|_K:  6.898e-07  alpha:  1.000e+00
	Linear fluid (dielectric constant: 78.4, screening length: 8.12261 Bohr) occupying 0.455657 of unit cell:	Completed after 12 iterations at t[s]:  22846.45
	Linear fluid (dielectric constant: 78.4, screening length: 8.12261 Bohr) occupying 0.455669 of unit cell:	Completed after 12 iterations at t[s]:  22857.82
	FillingsUpdate:  mu: -0.150725713  nElectrons: 314.000000  magneticMoment: [ Abs: 0.00000  Tot: -0.00000 ]
	SubspaceRotationAdjust: set factor to 0.566
ElecMinimize: Iter:   1  F: -2383.469880800758801  |grad|_K:  2.996e-07  alpha:  3.040e-01  linmin: -2.595e-05  t[s]:  22872.20
	Linear fluid (dielectric constant: 78.4, screening length: 8.12261 Bohr) occupying 0.455662 of unit cell:	Completed after 9 iterations at t[s]:  22885.50
	Linear fluid (dielectric constant: 78.4, screening length: 8.12261 Bohr) occupying 0.455660 of unit cell:	Completed after 3 iterations at t[s]:  22895.68
	FillingsUpdate:  mu: -0.150868866  nElectrons: 314.000000  magneticMoment: [ Abs: 0.00000  Tot: -0.00000 ]
	SubspaceRotationAdjust: set factor to 0.637
ElecMinimize: Iter:   2  F: -2383.469887172447670  |grad|_K:  1.760e-07  alpha:  4.048e-01  linmin: -1.809e-05  t[s]:  22910.90
	Linear fluid (dielectric constant: 78.4, screening length: 8.12261 Bohr) occupying 0.455658 of unit cell:	Completed after 7 iterations at t[s]:  22923.92
	Linear fluid (dielectric constant: 78.4, screening length: 8.12261 Bohr) occupying 0.455658 of unit cell:	Completed after 6 iterations at t[s]:  22934.43
	FillingsUpdate:  mu: -0.150711643  nElectrons: 314.000000  magneticMoment: [ Abs: 0.00000  Tot: -0.00000 ]
	SubspaceRotationAdjust: set factor to 0.762
ElecMinimize: Iter:   3  F: -2383.469890393887908  |grad|_K:  1.376e-07  alpha:  5.943e-01  linmin:  8.881e-05  t[s]:  22948.96
	Linear fluid (dielectric constant: 78.4, screening length: 8.12261 Bohr) occupying 0.455642 of unit cell:	Completed after 10 iterations at t[s]:  22962.28
	Linear fluid (dielectric constant: 78.4, screening length: 8.12261 Bohr) occupying 0.455649 of unit cell:	Completed after 9 iterations at t[s]:  22973.12
	FillingsUpdate:  mu: -0.150923457  nElectrons: 314.000000  magneticMoment: [ Abs: 0.00000  Tot: -0.00000 ]
	SubspaceRotationAdjust: set factor to 0.661
ElecMinimize: Iter:   4  F: -2383.469891498808465  |grad|_K:  9.154e-08  alpha:  3.348e-01  linmin:  9.455e-06  t[s]:  22987.44
	Linear fluid (dielectric constant: 78.4, screening length: 8.12261 Bohr) occupying 0.455655 of unit cell:	Completed after 6 iterations at t[s]:  23000.34
	Linear fluid (dielectric constant: 78.4, screening length: 8.12261 Bohr) occupying 0.455655 of unit cell:	Completed after 0 iterations at t[s]:  23010.15
	FillingsUpdate:  mu: -0.150795562  nElectrons: 314.000000  magneticMoment: [ Abs: 0.00000  Tot: -0.00000 ]
	SubspaceRotationAdjust: set factor to 0.473
ElecMinimize: Iter:   5  F: -2383.469891991348504  |grad|_K:  4.760e-08  alpha:  3.355e-01  linmin: -9.317e-06  t[s]:  23024.63
	Linear fluid (dielectric constant: 78.4, screening length: 8.12261 Bohr) occupying 0.455654 of unit cell:	Completed after 3 iterations at t[s]:  23037.31
	Linear fluid (dielectric constant: 78.4, screening length: 8.12261 Bohr) occupying 0.455654 of unit cell:	Completed after 0 iterations at t[s]:  23047.04
	FillingsUpdate:  mu: -0.150828685  nElectrons: 314.000000  magneticMoment: [ Abs: 0.00000  Tot: -0.00000 ]
	SubspaceRotationAdjust: set factor to 0.383
ElecMinimize: Iter:   6  F: -2383.469892122710462  |grad|_K:  2.048e-08  alpha:  3.307e-01  linmin: -3.250e-04  t[s]:  23061.44
	Linear fluid (dielectric constant: 78.4, screening length: 8.12261 Bohr) occupying 0.455654 of unit cell:	Completed after 2 iterations at t[s]:  23073.95
	Linear fluid (dielectric constant: 78.4, screening length: 8.12261 Bohr) occupying 0.455654 of unit cell:	Completed after 0 iterations at t[s]:  23083.73
	FillingsUpdate:  mu: -0.150825380  nElectrons: 314.000000  magneticMoment: [ Abs: 0.00000  Tot: -0.00000 ]
	SubspaceRotationAdjust: set factor to 0.407
ElecMinimize: Iter:   7  F: -2383.469892149968473  |grad|_K:  1.092e-08  alpha:  3.646e-01  linmin: -2.176e-03  t[s]:  23098.19
	Linear fluid (dielectric constant: 78.4, screening length: 8.12261 Bohr) occupying 0.455654 of unit cell:	Completed after 0 iterations at t[s]:  23110.35
	Linear fluid (dielectric constant: 78.4, screening length: 8.12261 Bohr) occupying 0.455655 of unit cell:	Completed after 1 iterations at t[s]:  23120.41
	FillingsUpdate:  mu: -0.150821500  nElectrons: 314.000000  magneticMoment: [ Abs: 0.00000  Tot: -0.00000 ]
	SubspaceRotationAdjust: set factor to 0.436
ElecMinimize: Iter:   8  F: -2383.469892157257618  |grad|_K:  8.183e-09  alpha:  4.515e-01  linmin:  1.314e-02  t[s]:  23134.79
ElecMinimize: Converged (|Delta F|<1.000000e-07 for 2 iters).
Setting wave functions to eigenvectors of Hamiltonian
Converging empty states (this may take a while): |deigs|: 2.777e-08

Computing DFT-D3 correction:
# coordination-number Ag 8.923 8.924 8.924 8.934 6.588 6.588 6.589 6.589 5.999 5.999 5.999 5.999 8.912 8.912 8.912 8.912
# coordination-number C 3.291
# coordination-number O 1.047
# diagonal-C6 Ag 268.61 268.61 268.61 268.61 268.61 268.61 268.61 268.61 268.61 268.61 268.61 268.61 268.61 268.61 268.61 268.61
# diagonal-C6 C 24.37
# diagonal-C6 O 12.77
EvdW_6 =   -0.086640
EvdW_8 =   -0.127393

# Ionic positions in cartesian coordinates:
ion Ag   0.000108000000000   0.000108000000000  40.278104999999996 0
ion Ag   0.000108000000000   5.420555000000000  40.278104999999996 0
ion Ag   5.420555000000000   0.000108000000000  40.278104999999996 0
ion Ag   5.420555000000000   5.420555000000000  40.278104999999996 0
ion Ag   2.712153000000000   2.712153000000000  44.189481000000001 0
ion Ag   2.712153000000000   8.132600000000000  44.189481000000001 0
ion Ag   8.132600000000000   2.712153000000000  44.189481000000001 0
ion Ag   8.132600000000000   8.132600000000000  44.189481000000001 0
ion Ag  10.837566000000001   5.417118999999999  32.464458000000000 0
ion Ag  10.837566000000001  10.837566000000001  32.464458000000000 0
ion Ag   5.417118999999999   5.417118999999999  32.464458000000000 0
ion Ag   5.417118999999999  10.837566000000001  32.464458000000000 0
ion Ag   2.711514000000000   2.711514000000000  36.381307999999997 0
ion Ag   2.711514000000000   8.131959999999999  36.381307999999997 0
ion Ag   8.131959999999999   2.711514000000000  36.381307999999997 0
ion Ag   8.131959999999999   8.131959999999999  36.381307999999997 0
ion C   5.422376999999999   5.422376999999999  46.923853086959774 1  Linear 0 0 1
ion O   5.482467999999999   5.422376999999999  49.140152648464060 1  Linear 0 0 1

# Forces in Cartesian coordinates:
force Ag   0.000115314309107   0.000031903772637   0.002362509364533 0
force Ag   0.000006622989037   0.000033976278546   0.000147086946270 0
force Ag  -0.000027753489928   0.000024893624053   0.000150167221457 0
force Ag   0.000050598731280   0.000020875641504  -0.008670435522270 0
force Ag  -0.002340013055251  -0.002374115702712   0.002126510257217 0
force Ag  -0.002340364366014   0.002317418017168   0.002116052669195 0
force Ag   0.002378455504050  -0.002411779588998   0.001734342645823 0
force Ag   0.002378804400218   0.002353897839564   0.001720261190742 0
force Ag   0.000060188192161   0.000056347123134   0.000488747300489 0
force Ag   0.000057974470931   0.000053514146365  -0.000844623224806 0
force Ag   0.000028440822406   0.000045864236935   0.000025606715365 0
force Ag   0.000051032017602   0.000041127559733   0.000488809318259 0
force Ag  -0.000001571800247   0.000012724156484  -0.000509358842657 0
force Ag  -0.000000239363441  -0.000150890508802  -0.000509318167087 0
force Ag  -0.000138906417156  -0.000011698614657  -0.000517440475043 0
force Ag  -0.000140401136090  -0.000127138797800  -0.000519047467625 0
force C   0.000316426417476   0.000002219616016  -0.000797644286196 1  Linear 0 0 1
force O  -0.000558430747628   0.000005146318501   0.000962919682085 1  Linear 0 0 1

# Energy components:
   A_diel =       -0.0013657162541395
   Eewald =     6876.7142552850818902
       EH =     9029.5453185611604567
     Eloc =   -18669.0145516619304544
      Enl =       66.2912934040452910
     EvdW =       -0.2140337145027418
      Exc =     -237.0864528689299391
 Exc_core =        3.4294585906945318
       KE =      546.8670289899295085
-------------------------------------
     Etot =    -2383.4690491307060256
       TS =        0.0008430265518126
-------------------------------------
        F =    -2383.4698921572576182


Dumping 'jdft.fillings' ... done
Dumping 'jdft.wfns' ... done
Dumping 'jdft.fluidState' ... done
Dumping 'jdft.ionpos' ... done
Dumping 'jdft.lattice' ... done
Dumping 'jdft.eigenvals' ... done
Dumping 'jdft.eigStats' ... 
	eMin: -3.534446 at state 20 ( [ +0.000000 +0.000000 +0.000000 ] spin -1 )
	HOMO: -0.151002 at state 1 ( [ +0.000000 +0.166667 +0.000000 ] spin 1 )
	mu  : -0.150822
	LUMO: -0.150703 at state 0 ( [ +0.000000 +0.000000 +0.000000 ] spin 1 )
	eMax: +0.137382 at state 4 ( [ +0.166667 +0.000000 +0.000000 ] spin 1 )
	HOMO-LUMO gap: +0.000299
	Optical gap  : +0.004845 at state 1 ( [ +0.000000 +0.166667 +0.000000 ] spin 1 )
Dumping 'jdft.Ecomponents' ... done
IonicMinimize: Iter:  24  F: -2383.469892157257618  |grad|_K:  8.842e-04  alpha:  1.000e+00  linmin:  1.607e-02  t[s]:  23171.61

#--- Lowdin population analysis ---
# oxidation-state Ag -0.038 -0.047 -0.047 -0.014 +0.010 +0.010 +0.010 +0.010 +0.057 +0.067 +0.058 +0.057 -0.038 -0.038 -0.038 -0.038
# magnetic-moments Ag +0.000 -0.000 -0.000 -0.000 +0.000 +0.000 +0.000 +0.000 +0.000 -0.000 -0.000 +0.000 -0.000 -0.000 -0.000 -0.000
# oxidation-state C +0.326
# magnetic-moments C +0.000
# oxidation-state O -0.125
# magnetic-moments O +0.000


Computing DFT-D3 correction:
# coordination-number Ag 8.923 8.924 8.924 8.934 6.587 6.587 6.588 6.588 5.999 5.999 5.999 5.999 8.912 8.912 8.912 8.912
# coordination-number C 3.287
# coordination-number O 1.047
# diagonal-C6 Ag 268.61 268.61 268.61 268.61 268.61 268.61 268.61 268.61 268.61 268.61 268.61 268.61 268.61 268.61 268.61 268.61
# diagonal-C6 C 24.40
# diagonal-C6 O 12.77
EvdW_6 =   -0.086642
EvdW_8 =   -0.127390

-------- Electronic minimization -----------
	Linear fluid (dielectric constant: 78.4, screening length: 8.12261 Bohr) occupying 0.455610 of unit cell:	Completed after 6 iterations at t[s]:  23185.84
	FillingsUpdate:  mu: -0.150829576  nElectrons: 314.000000  magneticMoment: [ Abs: 0.00000  Tot: -0.00000 ]
ElecMinimize: Iter:   0  F: -2383.469891184577591  |grad|_K:  1.377e-07  alpha:  1.000e+00
	Linear fluid (dielectric constant: 78.4, screening length: 8.12261 Bohr) occupying 0.455616 of unit cell:	Completed after 8 iterations at t[s]:  23216.14
	Linear fluid (dielectric constant: 78.4, screening length: 8.12261 Bohr) occupying 0.455612 of unit cell:	Completed after 5 iterations at t[s]:  23226.51
	FillingsUpdate:  mu: -0.150885484  nElectrons: 314.000000  magneticMoment: [ Abs: 0.00000  Tot: -0.00000 ]
	SubspaceRotationAdjust: set factor to 0.513
ElecMinimize: Iter:   1  F: -2383.469892230208188  |grad|_K:  6.068e-08  alpha:  3.148e-01  linmin:  1.115e-04  t[s]:  23240.93
	Linear fluid (dielectric constant: 78.4, screening length: 8.12261 Bohr) occupying 0.455614 of unit cell:	Completed after 2 iterations at t[s]:  23253.47
	Linear fluid (dielectric constant: 78.4, screening length: 8.12261 Bohr) occupying 0.455615 of unit cell:	Completed after 2 iterations at t[s]:  23263.56
	FillingsUpdate:  mu: -0.150853910  nElectrons: 314.000000  magneticMoment: [ Abs: 0.00000  Tot: -0.00000 ]
	SubspaceRotationAdjust: set factor to 0.604
ElecMinimize: Iter:   2  F: -2383.469892486366007  |grad|_K:  3.580e-08  alpha:  3.985e-01  linmin: -9.774e-06  t[s]:  23277.91
	Linear fluid (dielectric constant: 78.4, screening length: 8.12261 Bohr) occupying 0.455617 of unit cell:	Completed after 2 iterations at t[s]:  23290.43
	Linear fluid (dielectric constant: 78.4, screening length: 8.12261 Bohr) occupying 0.455617 of unit cell:	Completed after 1 iterations at t[s]:  23300.41
	FillingsUpdate:  mu: -0.150876798  nElectrons: 314.000000  magneticMoment: [ Abs: 0.00000  Tot: -0.00000 ]
	SubspaceRotationAdjust: set factor to 0.721
ElecMinimize: Iter:   3  F: -2383.469892615135905  |grad|_K:  2.702e-08  alpha:  5.728e-01  linmin: -7.922e-05  t[s]:  23314.73
	Linear fluid (dielectric constant: 78.4, screening length: 8.12261 Bohr) occupying 0.455621 of unit cell:	Completed after 2 iterations at t[s]:  23327.25
	Linear fluid (dielectric constant: 78.4, screening length: 8.12261 Bohr) occupying 0.455620 of unit cell:	Completed after 1 iterations at t[s]:  23337.31
	FillingsUpdate:  mu: -0.150846316  nElectrons: 314.000000  magneticMoment: [ Abs: 0.00000  Tot: -0.00000 ]
	SubspaceRotationAdjust: set factor to 0.729
ElecMinimize: Iter:   4  F: -2383.469892664737017  |grad|_K:  1.865e-08  alpha:  3.870e-01  linmin:  1.548e-04  t[s]:  23351.64
	Linear fluid (dielectric constant: 78.4, screening length: 8.12261 Bohr) occupying 0.455619 of unit cell:	Completed after 2 iterations at t[s]:  23364.17
	Linear fluid (dielectric constant: 78.4, screening length: 8.12261 Bohr) occupying 0.455619 of unit cell:	Completed after 0 iterations at t[s]:  23373.98
	FillingsUpdate:  mu: -0.150862685  nElectrons: 314.000000  magneticMoment: [ Abs: 0.00000  Tot: -0.00000 ]
	SubspaceRotationAdjust: set factor to 0.631
ElecMinimize: Iter:   5  F: -2383.469892685950526  |grad|_K:  1.056e-08  alpha:  3.549e-01  linmin:  2.425e-05  t[s]:  23388.41
ElecMinimize: Converged (|Delta F|<1.000000e-07 for 2 iters).
Setting wave functions to eigenvectors of Hamiltonian
Converging empty states (this may take a while): |deigs|: 2.774e-09

Computing DFT-D3 correction:
# coordination-number Ag 8.923 8.924 8.924 8.934 6.587 6.587 6.588 6.588 5.999 5.999 5.999 5.999 8.912 8.912 8.912 8.912
# coordination-number C 3.287
# coordination-number O 1.047
# diagonal-C6 Ag 268.61 268.61 268.61 268.61 268.61 268.61 268.61 268.61 268.61 268.61 268.61 268.61 268.61 268.61 268.61 268.61
# diagonal-C6 C 24.40
# diagonal-C6 O 12.77
EvdW_6 =   -0.086642
EvdW_8 =   -0.127390

# Ionic positions in cartesian coordinates:
ion Ag   0.000108000000000   0.000108000000000  40.278104999999996 0
ion Ag   0.000108000000000   5.420555000000000  40.278104999999996 0
ion Ag   5.420555000000000   0.000108000000000  40.278104999999996 0
ion Ag   5.420555000000000   5.420555000000000  40.278104999999996 0
ion Ag   2.712153000000000   2.712153000000000  44.189481000000001 0
ion Ag   2.712153000000000   8.132600000000000  44.189481000000001 0
ion Ag   8.132600000000000   2.712153000000000  44.189481000000001 0
ion Ag   8.132600000000000   8.132600000000000  44.189481000000001 0
ion Ag  10.837566000000001   5.417118999999999  32.464458000000000 0
ion Ag  10.837566000000001  10.837566000000001  32.464458000000000 0
ion Ag   5.417118999999999   5.417118999999999  32.464458000000000 0
ion Ag   5.417118999999999  10.837566000000001  32.464458000000000 0
ion Ag   2.711514000000000   2.711514000000000  36.381307999999997 0
ion Ag   2.711514000000000   8.131959999999999  36.381307999999997 0
ion Ag   8.131959999999999   2.711514000000000  36.381307999999997 0
ion Ag   8.131959999999999   8.131959999999999  36.381307999999997 0
ion C   5.422376999999999   5.422376999999999  46.925717524003730 1  Linear 0 0 1
ion O   5.482467999999999   5.422376999999999  49.143049378861512 1  Linear 0 0 1

# Forces in Cartesian coordinates:
force Ag   0.000115152261853   0.000031910380770   0.002399062877939 0
force Ag   0.000006845886797   0.000033967917002   0.000184280440268 0
force Ag  -0.000027673394642   0.000024813036482   0.000187372638250 0
force Ag   0.000050290548272   0.000020830313772  -0.008612841895415 0
force Ag  -0.002322898245786  -0.002356958953291   0.002184710900869 0
force Ag  -0.002323258800842   0.002300256156536   0.002174252303127 0
force Ag   0.002360548809844  -0.002393928405675   0.001794145702366 0
force Ag   0.002360900026329   0.002336060190199   0.001780064478294 0
force Ag   0.000060357741898   0.000056384515997   0.000439272220124 0
force Ag   0.000058204776437   0.000053519995284  -0.000892027735884 0
force Ag   0.000028498154478   0.000045920078009  -0.000025378343700 0
force Ag   0.000050809698704   0.000041099571775   0.000439296453566 0
force Ag  -0.000001146270217   0.000013028579098  -0.000559492094113 0
force Ag   0.000000188155630  -0.000151227368229  -0.000559479571751 0
force Ag  -0.000139330777258  -0.000011197355679  -0.000567532447763 0
force Ag  -0.000140819526112  -0.000127674532901  -0.000569156027070 0
force C   0.000342326089893   0.000002226727040   0.000056622582241 1  Linear 0 0 1
force O  -0.000586702276279   0.000005054051811  -0.000059750531548 1  Linear 0 0 1

# Energy components:
   A_diel =       -0.0013792340132941
   Eewald =     6876.4878645213320851
       EH =     9029.3073222787952545
     Eloc =   -18668.5488868051725149
      Enl =       66.2909188390325710
     EvdW =       -0.2140321947615567
      Exc =     -237.0859197128929452
 Exc_core =        3.4294590147795354
       KE =      546.8656030838030802
-------------------------------------
     Etot =    -2383.4690502090961672
       TS =        0.0008424768541587
-------------------------------------
        F =    -2383.4698926859505264


Dumping 'jdft.fillings' ... done
Dumping 'jdft.wfns' ... done
Dumping 'jdft.fluidState' ... done
Dumping 'jdft.ionpos' ... done
Dumping 'jdft.lattice' ... done
Dumping 'jdft.eigenvals' ... done
Dumping 'jdft.eigStats' ... 
	eMin: -3.534499 at state 0 ( [ +0.000000 +0.000000 +0.000000 ] spin 1 )
	HOMO: -0.151032 at state 21 ( [ +0.000000 +0.166667 +0.000000 ] spin -1 )
	mu  : -0.150863
	LUMO: -0.150733 at state 20 ( [ +0.000000 +0.000000 +0.000000 ] spin -1 )
	eMax: +0.137371 at state 24 ( [ +0.166667 +0.000000 +0.000000 ] spin -1 )
	HOMO-LUMO gap: +0.000299
	Optical gap  : +0.004840 at state 1 ( [ +0.000000 +0.166667 +0.000000 ] spin 1 )
Dumping 'jdft.Ecomponents' ... done
IonicMinimize: Iter:  25  F: -2383.469892685950526  |grad|_K:  5.821e-05  alpha:  1.000e+00  linmin:  1.639e-03  t[s]:  23425.14
IonicMinimize: Converged (|grad|_K<1.000000e-04).

#--- Lowdin population analysis ---
# oxidation-state Ag -0.038 -0.047 -0.047 -0.014 +0.010 +0.010 +0.010 +0.010 +0.057 +0.067 +0.058 +0.057 -0.038 -0.038 -0.038 -0.038
# magnetic-moments Ag +0.000 -0.000 +0.000 -0.000 -0.000 -0.000 -0.000 +0.000 -0.000 -0.000 -0.000 -0.000 -0.000 -0.000 -0.000 -0.000
# oxidation-state C +0.326
# magnetic-moments C -0.000
# oxidation-state O -0.126
# magnetic-moments O +0.000


Dumping 'jdft.n_up' ... done
Dumping 'jdft.n_dn' ... done
Dumping 'jdft.tau_up' ... done
Dumping 'jdft.tau_dn' ... done
Dumping 'jdft.eigenvals' ... done
Dumping 'jdft.eigStats' ... 
	eMin: -3.534499 at state 0 ( [ +0.000000 +0.000000 +0.000000 ] spin 1 )
	HOMO: -0.151032 at state 21 ( [ +0.000000 +0.166667 +0.000000 ] spin -1 )
	mu  : -0.150863
	LUMO: -0.150733 at state 20 ( [ +0.000000 +0.000000 +0.000000 ] spin -1 )
	eMax: +0.137371 at state 24 ( [ +0.166667 +0.000000 +0.000000 ] spin -1 )
	HOMO-LUMO gap: +0.000299
	Optical gap  : +0.004840 at state 1 ( [ +0.000000 +0.166667 +0.000000 ] spin 1 )
Dumping 'jdft.kPts' ... done
Dumping 'jdft.kMap' ... done
Dumping 'jdft.dosUp' ... done.
Dumping 'jdft.dosDn' ... done.
End date and time: Thu Feb 17 23:47:22 2022  (Duration: 0-6:30:48.30)
Done!
