
*************** JDFTx 1.7.0 (git hash 5f12716a) ***************

Start date and time: Mon Sep 12 14:06:14 2022
Executable /home/nisi6161/jdftx_alpine/build/jdftx with command-line: -i in
Running on hosts (process indices):  c3cpu-a2-u15-2.rc.int.colorado.edu (0-23)
Divided in process groups (process indices):  0 (0)  1 (1)  2 (2)  3 (3)  4 (4)  5 (5)  6 (6)  7 (7)  8 (8)  9 (9)  10 (10)  11 (11)  12 (12)  13 (13)  14 (14)  15 (15)  16 (16)  17 (17)  18 (18)  19 (19)  20 (20)  21 (21)  22 (22)  23 (23)
Resource initialization completed at t[s]:      0.02
Run totals: 24 processes, 64 threads, 0 GPUs


Input parsed successfully to the following command list (including defaults):

basis kpoint-dependent
converge-empty-states yes
coords-type Cartesian
core-overlap-check none
coulomb-interaction Periodic
davidson-band-ratio 1.1
density-of-states Etol 1.000000e-06 Esigma 1.000000e-03 \
		Complete \
	Total \
	OrthoOrbital Ag 1   s \
	OrthoOrbital Ag 1   p \
	OrthoOrbital Ag 1   px \
	OrthoOrbital Ag 1   py \
	OrthoOrbital Ag 1   pz \
	OrthoOrbital Ag 1   d \
	OrthoOrbital Ag 1   dxy \
	OrthoOrbital Ag 1   dyz \
	OrthoOrbital Ag 1   dz2 \
	OrthoOrbital Ag 1   dxz \
	OrthoOrbital Ag 1   dx2-y2 \
	OrthoOrbital Ag 2   s \
	OrthoOrbital Ag 2   p \
	OrthoOrbital Ag 2   px \
	OrthoOrbital Ag 2   py \
	OrthoOrbital Ag 2   pz \
	OrthoOrbital Ag 2   d \
	OrthoOrbital Ag 2   dxy \
	OrthoOrbital Ag 2   dyz \
	OrthoOrbital Ag 2   dz2 \
	OrthoOrbital Ag 2   dxz \
	OrthoOrbital Ag 2   dx2-y2 \
	OrthoOrbital Ag 3   s \
	OrthoOrbital Ag 3   p \
	OrthoOrbital Ag 3   px \
	OrthoOrbital Ag 3   py \
	OrthoOrbital Ag 3   pz \
	OrthoOrbital Ag 3   d \
	OrthoOrbital Ag 3   dxy \
	OrthoOrbital Ag 3   dyz \
	OrthoOrbital Ag 3   dz2 \
	OrthoOrbital Ag 3   dxz \
	OrthoOrbital Ag 3   dx2-y2 \
	OrthoOrbital Ag 4   s \
	OrthoOrbital Ag 4   p \
	OrthoOrbital Ag 4   px \
	OrthoOrbital Ag 4   py \
	OrthoOrbital Ag 4   pz \
	OrthoOrbital Ag 4   d \
	OrthoOrbital Ag 4   dxy \
	OrthoOrbital Ag 4   dyz \
	OrthoOrbital Ag 4   dz2 \
	OrthoOrbital Ag 4   dxz \
	OrthoOrbital Ag 4   dx2-y2 \
	OrthoOrbital Ag 5   s \
	OrthoOrbital Ag 5   p \
	OrthoOrbital Ag 5   px \
	OrthoOrbital Ag 5   py \
	OrthoOrbital Ag 5   pz \
	OrthoOrbital Ag 5   d \
	OrthoOrbital Ag 5   dxy \
	OrthoOrbital Ag 5   dyz \
	OrthoOrbital Ag 5   dz2 \
	OrthoOrbital Ag 5   dxz \
	OrthoOrbital Ag 5   dx2-y2 \
	OrthoOrbital Ag 6   s \
	OrthoOrbital Ag 6   p \
	OrthoOrbital Ag 6   px \
	OrthoOrbital Ag 6   py \
	OrthoOrbital Ag 6   pz \
	OrthoOrbital Ag 6   d \
	OrthoOrbital Ag 6   dxy \
	OrthoOrbital Ag 6   dyz \
	OrthoOrbital Ag 6   dz2 \
	OrthoOrbital Ag 6   dxz \
	OrthoOrbital Ag 6   dx2-y2 \
	OrthoOrbital Ag 7   s \
	OrthoOrbital Ag 7   p \
	OrthoOrbital Ag 7   px \
	OrthoOrbital Ag 7   py \
	OrthoOrbital Ag 7   pz \
	OrthoOrbital Ag 7   d \
	OrthoOrbital Ag 7   dxy \
	OrthoOrbital Ag 7   dyz \
	OrthoOrbital Ag 7   dz2 \
	OrthoOrbital Ag 7   dxz \
	OrthoOrbital Ag 7   dx2-y2 \
	OrthoOrbital Ag 8   s \
	OrthoOrbital Ag 8   p \
	OrthoOrbital Ag 8   px \
	OrthoOrbital Ag 8   py \
	OrthoOrbital Ag 8   pz \
	OrthoOrbital Ag 8   d \
	OrthoOrbital Ag 8   dxy \
	OrthoOrbital Ag 8   dyz \
	OrthoOrbital Ag 8   dz2 \
	OrthoOrbital Ag 8   dxz \
	OrthoOrbital Ag 8   dx2-y2 \
	OrthoOrbital Ag 9   s \
	OrthoOrbital Ag 9   p \
	OrthoOrbital Ag 9   px \
	OrthoOrbital Ag 9   py \
	OrthoOrbital Ag 9   pz \
	OrthoOrbital Ag 9   d \
	OrthoOrbital Ag 9   dxy \
	OrthoOrbital Ag 9   dyz \
	OrthoOrbital Ag 9   dz2 \
	OrthoOrbital Ag 9   dxz \
	OrthoOrbital Ag 9   dx2-y2 \
	OrthoOrbital Ag 10   s \
	OrthoOrbital Ag 10   p \
	OrthoOrbital Ag 10   px \
	OrthoOrbital Ag 10   py \
	OrthoOrbital Ag 10   pz \
	OrthoOrbital Ag 10   d \
	OrthoOrbital Ag 10   dxy \
	OrthoOrbital Ag 10   dyz \
	OrthoOrbital Ag 10   dz2 \
	OrthoOrbital Ag 10   dxz \
	OrthoOrbital Ag 10   dx2-y2 \
	OrthoOrbital Ag 11   s \
	OrthoOrbital Ag 11   p \
	OrthoOrbital Ag 11   px \
	OrthoOrbital Ag 11   py \
	OrthoOrbital Ag 11   pz \
	OrthoOrbital Ag 11   d \
	OrthoOrbital Ag 11   dxy \
	OrthoOrbital Ag 11   dyz \
	OrthoOrbital Ag 11   dz2 \
	OrthoOrbital Ag 11   dxz \
	OrthoOrbital Ag 11   dx2-y2 \
	OrthoOrbital Ag 12   s \
	OrthoOrbital Ag 12   p \
	OrthoOrbital Ag 12   px \
	OrthoOrbital Ag 12   py \
	OrthoOrbital Ag 12   pz \
	OrthoOrbital Ag 12   d \
	OrthoOrbital Ag 12   dxy \
	OrthoOrbital Ag 12   dyz \
	OrthoOrbital Ag 12   dz2 \
	OrthoOrbital Ag 12   dxz \
	OrthoOrbital Ag 12   dx2-y2 \
	OrthoOrbital Ag 13   s \
	OrthoOrbital Ag 13   p \
	OrthoOrbital Ag 13   px \
	OrthoOrbital Ag 13   py \
	OrthoOrbital Ag 13   pz \
	OrthoOrbital Ag 13   d \
	OrthoOrbital Ag 13   dxy \
	OrthoOrbital Ag 13   dyz \
	OrthoOrbital Ag 13   dz2 \
	OrthoOrbital Ag 13   dxz \
	OrthoOrbital Ag 13   dx2-y2 \
	OrthoOrbital Ag 14   s \
	OrthoOrbital Ag 14   p \
	OrthoOrbital Ag 14   px \
	OrthoOrbital Ag 14   py \
	OrthoOrbital Ag 14   pz \
	OrthoOrbital Ag 14   d \
	OrthoOrbital Ag 14   dxy \
	OrthoOrbital Ag 14   dyz \
	OrthoOrbital Ag 14   dz2 \
	OrthoOrbital Ag 14   dxz \
	OrthoOrbital Ag 14   dx2-y2 \
	OrthoOrbital Ag 15   s \
	OrthoOrbital Ag 15   p \
	OrthoOrbital Ag 15   px \
	OrthoOrbital Ag 15   py \
	OrthoOrbital Ag 15   pz \
	OrthoOrbital Ag 15   d \
	OrthoOrbital Ag 15   dxy \
	OrthoOrbital Ag 15   dyz \
	OrthoOrbital Ag 15   dz2 \
	OrthoOrbital Ag 15   dxz \
	OrthoOrbital Ag 15   dx2-y2 \
	OrthoOrbital Ag 16   s \
	OrthoOrbital Ag 16   p \
	OrthoOrbital Ag 16   px \
	OrthoOrbital Ag 16   py \
	OrthoOrbital Ag 16   pz \
	OrthoOrbital Ag 16   d \
	OrthoOrbital Ag 16   dxy \
	OrthoOrbital Ag 16   dyz \
	OrthoOrbital Ag 16   dz2 \
	OrthoOrbital Ag 16   dxz \
	OrthoOrbital Ag 16   dx2-y2 \
	OrthoOrbital Ag 17   s \
	OrthoOrbital Ag 17   p \
	OrthoOrbital Ag 17   px \
	OrthoOrbital Ag 17   py \
	OrthoOrbital Ag 17   pz \
	OrthoOrbital Ag 17   d \
	OrthoOrbital Ag 17   dxy \
	OrthoOrbital Ag 17   dyz \
	OrthoOrbital Ag 17   dz2 \
	OrthoOrbital Ag 17   dxz \
	OrthoOrbital Ag 17   dx2-y2 \
	OrthoOrbital Ag 18   s \
	OrthoOrbital Ag 18   p \
	OrthoOrbital Ag 18   px \
	OrthoOrbital Ag 18   py \
	OrthoOrbital Ag 18   pz \
	OrthoOrbital Ag 18   d \
	OrthoOrbital Ag 18   dxy \
	OrthoOrbital Ag 18   dyz \
	OrthoOrbital Ag 18   dz2 \
	OrthoOrbital Ag 18   dxz \
	OrthoOrbital Ag 18   dx2-y2 \
	OrthoOrbital Ag 19   s \
	OrthoOrbital Ag 19   p \
	OrthoOrbital Ag 19   px \
	OrthoOrbital Ag 19   py \
	OrthoOrbital Ag 19   pz \
	OrthoOrbital Ag 19   d \
	OrthoOrbital Ag 19   dxy \
	OrthoOrbital Ag 19   dyz \
	OrthoOrbital Ag 19   dz2 \
	OrthoOrbital Ag 19   dxz \
	OrthoOrbital Ag 19   dx2-y2
dump End ElecDensity KEdensity BandEigs EigStats RhoAtom DOS Kpoints
dump Ionic State IonicPositions Lattice EigStats Ecomponents
dump 
dump 
dump 
dump 
dump 
dump 
dump 
dump 
dump-name jdft.$VAR
elec-cutoff 20
elec-eigen-algo Davidson
elec-ex-corr gga-PBE
elec-initial-magnetization 0.000000 no
elec-n-bands 217
elec-smearing Fermi 0.001
electronic-minimize  \
	dirUpdateScheme      FletcherReeves \
	linminMethod         DirUpdateRecommended \
	nIterations          100 \
	history              15 \
	knormThreshold       0 \
	energyDiffThreshold  1e-07 \
	nEnergyDiff          2 \
	alphaTstart          1 \
	alphaTmin            1e-10 \
	updateTestStepSize   yes \
	alphaTreduceFactor   0.1 \
	alphaTincreaseFactor 3 \
	nAlphaAdjustMax      3 \
	wolfeEnergy          0.0001 \
	wolfeGradient        0.9 \
	fdTest               no
exchange-regularization WignerSeitzTruncated
fluid LinearPCM 298.000000 1.013250
fluid-anion F- 0.5 MeanFieldLJ \
	epsBulk 1 \
	pMol 0 \
	epsInf 1 \
	Pvap 0 \
	sigmaBulk 0 \
	Rvdw 2.24877 \
	Res 0 \
	tauNuc 343133
fluid-cation Na+ 0.5 MeanFieldLJ \
	epsBulk 1 \
	pMol 0 \
	epsInf 1 \
	Pvap 0 \
	sigmaBulk 0 \
	Rvdw 2.19208 \
	Res 0 \
	tauNuc 343133
fluid-ex-corr lda-TF lda-PZ
fluid-gummel-loop 10 1.000000e-05
fluid-minimize  \
	dirUpdateScheme      PolakRibiere \
	linminMethod         DirUpdateRecommended \
	nIterations          400 \
	history              15 \
	knormThreshold       1e-11 \
	energyDiffThreshold  0 \
	nEnergyDiff          2 \
	alphaTstart          1 \
	alphaTmin            1e-10 \
	updateTestStepSize   yes \
	alphaTreduceFactor   0.1 \
	alphaTincreaseFactor 3 \
	nAlphaAdjustMax      6 \
	wolfeEnergy          0.0001 \
	wolfeGradient        0.9 \
	fdTest               no
fluid-solvent H2O 55.338 ScalarEOS \
	epsBulk 78.4 \
	pMol 0.92466 \
	epsInf 1.77 \
	Pvap 1.06736e-10 \
	sigmaBulk 4.62e-05 \
	Rvdw 2.61727 \
	Res 1.42 \
	tauNuc 343133 \
	poleEl 15 7 1
forces-output-coords Positions
initial-state jdft.$VAR
ion Ag   0.004169088608456   7.513979840975280  65.967474868653895 1
ion Ag   2.713519482672154   3.071229486441860  64.408022768226019 1
ion Ag   2.714718089917329  10.642755923303767  62.565095500183851 1
ion Ag   2.708871166656018  11.761266911061858  34.275868182728537 1
ion Ag   0.001630240010746   6.209684720392040  60.769640281323916 1
ion Ag   2.710016234724312   1.853225654182328  58.974715211063156 1
ion Ag   2.710877297385987   9.305199257184901  57.212125720353242 1
ion Ag   0.000511237472061   4.961231024903516  55.445623010339595 1
ion Ag   2.713052030061000   0.607014706932617  53.660669321215181 1
ion Ag   2.711418471358933   8.073384019427754  51.890254078766510 1
ion Ag   0.001191884990287   3.729757454749080  50.119504187614176 1
ion Ag  -0.003257882423954  11.200277273963504  48.348871187388731 1
ion Ag   2.708230959275951   6.853430750685848  46.578966322712638 1
ion Ag  -0.001106918400435   2.500263269991237  44.794368445144869 1
ion Ag  -0.002456191159776   9.969942681549250  43.028983746949244 1
ion Ag   2.711828424860575   5.609165123326306  41.266581549078658 1
ion Ag  -0.004479410643551   1.251573946160654  39.473333153259290 1
ion Ag  -0.001882277258458   8.633107885944439  37.677698323768062 1
ion Ag   2.705398071892361   4.389376068823778  35.837807141230343 1
ion-species /projects/musgravc/apps/jdftx-1.6.0/build/pseudopotentials/GBRV_v1.5/$ID_pbe_v1.uspp
ion-species /projects/musgravc/apps/jdftx-1.6.0/build/pseudopotentials/GBRV_v1.5/$ID_pbe_v1.2.uspp
ion-species /projects/musgravc/apps/jdftx-1.6.0/build/pseudopotentials/GBRV_v1.5/$ID_pbe_v1.4.uspp
ion-species /projects/musgravc/apps/jdftx-1.6.0/build/pseudopotentials/GBRV_v1.5/$ID_pbe_v1.5.uspp
ion-width Ecut
ionic-minimize  \
	dirUpdateScheme      L-BFGS \
	linminMethod         DirUpdateRecommended \
	nIterations          100 \
	history              15 \
	knormThreshold       0.0001 \
	energyDiffThreshold  0.0001 \
	nEnergyDiff          2 \
	alphaTstart          1 \
	alphaTmin            1e-10 \
	updateTestStepSize   yes \
	alphaTreduceFactor   0.1 \
	alphaTincreaseFactor 3 \
	nAlphaAdjustMax      3 \
	wolfeEnergy          0.0001 \
	wolfeGradient        0.9 \
	fdTest               no
kpoint   0.000000000000   0.000000000000   0.000000000000  1.00000000000000
kpoint-folding 11 5 1 
latt-move-scale 0 0 0
latt-scale 1 1 1 
lattice  \
	   5.420447000000000   -2.710223000000000    0.000000000000000  \
	   0.000000000000000   11.813589000000000    0.000000000000000  \
	   0.000000000000000   -0.000000000000000   66.827747000000002 
lattice-minimize  \
	dirUpdateScheme      L-BFGS \
	linminMethod         DirUpdateRecommended \
	nIterations          0 \
	history              15 \
	knormThreshold       0 \
	energyDiffThreshold  1e-06 \
	nEnergyDiff          2 \
	alphaTstart          1 \
	alphaTmin            1e-10 \
	updateTestStepSize   yes \
	alphaTreduceFactor   0.1 \
	alphaTincreaseFactor 3 \
	nAlphaAdjustMax      3 \
	wolfeEnergy          0.0001 \
	wolfeGradient        0.9 \
	fdTest               no
lcao-params 30 1e-06 0.001
pcm-variant CANDLE
spintype z-spin
subspace-rotation-factor 1 yes
symmetries automatic
symmetry-threshold 0.0001
target-mu -0.1345 no

van-der-waals D3



---------- Setting up symmetries ----------

Found 8 point-group symmetries of the bravais lattice
Found 1 space-group symmetries with basis
Applied RMS atom displacement 0 bohrs to make symmetries exact.

---------- Initializing the Grid ----------
R = 
[      5.42045     -2.71022            0  ]
[            0      11.8136            0  ]
[            0            0      66.8277  ]
unit cell volume = 4279.31
G =
[    1.15916    0.26593         -0  ]
[          0   0.531861          0  ]
[         -0          0  0.0940206  ]
Minimum fftbox size, Smin = [  24  52  272  ]
Chosen fftbox size, S = [  24  54  280  ]

---------- Exchange Correlation functional ----------
Initalized PBE GGA exchange.
Initalized PBE GGA correlation.

---------- Setting up pseudopotentials ----------
Width of ionic core gaussian charges (only for fluid interactions / plotting) set to 0.397384

Reading pseudopotential file '/projects/musgravc/apps/jdftx-1.6.0/build/pseudopotentials/GBRV_v1.5/ag_pbe_v1.4.uspp':
  Title: Ag.  Created by USPP 7.3.6 on 1-4-15
  Reference state energy: -147.606242.  19 valence electrons in orbitals:
    |400>  occupation: 2  eigenvalue: -3.637437
    |410>  occupation: 6  eigenvalue: -2.297267
    |420>  occupation: 10  eigenvalue: -0.417763
    |500>  occupation: 0.5  eigenvalue: -0.283525
    |510>  occupation: 0  eigenvalue: -0.122889
  lMax: 2  lLocal: 0  QijEcut: 5.5
  6 projectors sampled on a log grid with 717 points:
    l: 0  eig: -0.283528  rCut: 1.5
    l: 0  eig: -3.637440  rCut: 1.5
    l: 1  eig: -0.122892  rCut: 1.5
    l: 1  eig: -2.297267  rCut: 1.5
    l: 2  eig: -0.417762  rCut: 1.7
    l: 2  eig: -1.000000  rCut: 1.7
  Partial core density with radius 1.2
  Transforming core density to a uniform radial grid of dG=0.02 with 1304 points.
  Transforming local potential to a uniform radial grid of dG=0.02 with 1304 points.
  Transforming nonlocal projectors to a uniform radial grid of dG=0.02 with 432 points.
  Transforming density augmentations to a uniform radial grid of dG=0.02 with 1304 points.
  Transforming atomic orbitals to a uniform radial grid of dG=0.02 with 432 points.
  Core radius for overlap checks: 1.70 bohrs.

Initialized 1 species with 19 total atoms.

Folded 1 k-points by 11x5x1 to 55 k-points.

---------- Setting up k-points, bands, fillings ----------
Adding inversion symmetry to k-mesh for non-inversion-symmetric unit cell.
Reduced to 28 k-points under symmetry. 
Computing the number of bands and number of electrons
Reading initial fillings from file jdft.fillings.
nElectrons: 360.143307   nBands: 217   nStates: 56

----- Setting up reduced wavefunction bases (one per k-point) -----
average nbasis = 18279.473 , ideal nbasis = 18281.540

----- Initializing Supercell corresponding to k-point mesh -----
Lattice vector linear combinations in supercell:
[  11   0   0  ]
[   0   5   0  ]
[   0   0   1  ]
Supercell lattice vectors:
[  59.6249  -13.5511  0  ]
[  0  59.0679  0  ]
[  0  0  66.8277  ]

Initializing DFT-D3 calculator:
	Parameters set for gga-PBE functional
	s6:  1.000  s_r6:  1.217
	s8:  0.722  s_r8:  1.000
	Per-atom parameters loaded for:
	Ag:  sqrtQ[a0]:  5.443  Rcov[a0]:  2.173  CN: [ 0.00 0.97 ]

Initializing DFT-D2 calculator for fluid / solvation:
	Ag:  C6:  427.91 Eh-a0^6  R0: 3.097 a0

---------- Setting up ewald sum ----------
Optimum gaussian width for ewald sums = 3.964993 bohr.
Real space sum over 1045 unit cells with max indices [  9  5  2  ]
Reciprocal space sum over 6435 terms with max indices [  4  6  27  ]

Computing DFT-D3 correction:
# coordination-number Ag 5.460 6.726 8.381 5.461 8.949 9.043 9.058 9.100 9.095 9.105 9.103 9.107 9.099 9.105 9.064 9.049 8.956 8.385 6.731
# diagonal-C6 Ag 268.61 268.61 268.61 268.61 268.61 268.61 268.61 268.61 268.61 268.61 268.61 268.61 268.61 268.61 268.61 268.61 268.61 268.61 268.61
EvdW_6 =   -0.129451
EvdW_8 =   -0.171177

---------- Allocating electronic variables ----------
Initializing wave functions:  reading from 'jdft.wfns'
----- createFluidSolver() ----- (Fluid-side solver setup)
   Initializing fluid molecule 'H2O'
     Initializing site 'O'
       Electron density: proportional to exp(-r/0.36935)*erfc((r-0.51523)/0.36823) with norm 6.826
       Charge density: gaussian nuclear width 0.478731 with net site charge 0.826
       Polarizability: cuspless exponential with width 0.32 and norm 3.73
       Hard sphere radius: 2.57003 bohrs
       Positions in reference frame:
         [ +0.000000 +0.000000 +0.000000 ]
     Initializing site 'H'
       Electron density: proportional to exp(-r/0.34641)*erfc((r-0)/0.390882) with norm 0.587
       Charge density: gaussian nuclear width 0.377945 with net site charge -0.413
       Polarizability: cuspless exponential with width 0.39 and norm 3.3
       Positions in reference frame:
         [ +0.000000 -1.441945 +1.122523 ]
         [ +0.000000 +1.441945 +1.122523 ]
     Net charge: 0   dipole magnitude: 0.927204
     Initializing spherical shell mfKernel with radius 2.61727 Bohr
     deltaS corrections:
       site 'O': -7.54299
       site 'H': -6.83917
   Initializing fluid molecule 'Na+'
     Initializing site 'Na'
       Electron density: proportional to exp(-r/0.19682)*erfc((r-0.71491)/0.41314) with norm 8.1383
       Charge density: gaussian nuclear width 0.365347 with net site charge -1
       Hard sphere radius: 1.86327 bohrs
       Positions in reference frame:
         [ +0.000000 +0.000000 +0.000000 ]
     Net charge: -1   dipole magnitude: 0
     Initializing gaussian mfKernel with width: 1.55004 Bohr
     deltaS corrections:
       site 'Na': -22.3555
   Initializing fluid molecule 'F-'
     Initializing site 'F'
       Electron density: proportional to exp(-r/0.38886)*erfc((r-0)/0.438782) with norm 8
       Charge density: gaussian nuclear width 0.374796 with net site charge 1
       Hard sphere radius: 2.39995 bohrs
       Positions in reference frame:
         [ +0.000000 +0.000000 +0.000000 ]
     Net charge: 1   dipole magnitude: 0
     Initializing gaussian mfKernel with width: 1.59012 Bohr
     deltaS corrections:
       site 'F': -9.04335

Correction to mu due to finite nuclear width = -0.0837015
   Cavity determined by nc: 0.00142 and sigma: 0.707107
   Nonlocal vdW cavity from gaussian model electron density with norm = 8 and sigma = 0.993594 bohr
   Charge asymmetry in cavity with sensitivity pCavity = 36.5 e-bohr/Eh
   Electrostatic cavity expanded by eta = 1.46 bohrs
   Weighted density cavitation model constrained by Nbulk: 0.0049383 bohr^-3, Pvap: 3.14029 kPa, Rvdw: 2.61727 bohr and sigmaBulk: 4.62e-05 Eh/bohr^2 at T: 298 K.
   Weighted density dispersion model using vdW pair potentials with single solvent site with sqrtC6eff: 0.77 SI.
Reading fluid state from 'jdft.fluidState'


---- Citations for features of the code used in this run ----

   Software package:
      R. Sundararaman, K. Letchworth-Weaver, K.A. Schwarz, D. Gunceler, Y. Ozhabes and T.A. Arias, 'JDFTx: software for joint density-functional theory', SoftwareX 6, 278 (2017)

   gga-PBE exchange-correlation functional:
      J.P. Perdew, K. Burke and M. Ernzerhof, Phys. Rev. Lett. 77, 3865 (1996)

   Pseudopotentials:
      KF Garrity, JW Bennett, KM Rabe and D Vanderbilt, Comput. Mater. Sci. 81, 446 (2014)

   DFT-D3 dispersion correction:
      S. Grimme, J. Antony, S. Ehrlich and H. Krieg, J. Chem. Phys. 132, 154104 (2010)

   DFT-D2 dispersion correction:
      S. Grimme, J. Comput. Chem. 27, 1787 (2006)

   Charge-asymmetric nonlocally-determined local-electric (CANDLE) solvation model:
      R. Sundararaman and W.A. Goddard III, J. Chem. Phys. 142, 064107 (2015)

   Total energy minimization with Auxiliary Hamiltonian:
      C. Freysoldt, S. Boeck, and J. Neugebauer, Phys. Rev. B 79, 241103(R) (2009)

   Grand-canonical (fixed-potential) DFT:
      R. Sundararaman, W. A. Goddard III and T. A. Arias, J. Chem. Phys. 146, 114104 (2017)

   Linear-tetrahedron sampling for density of states:
      G. Lehmann and M. Taut, Phys. status solidi (b) 54, 469 (1972)

This list may not be complete. Please suggest additional citations or
report any other bugs at https://github.com/shankar1729/jdftx/issues

Initialization completed successfully at t[s]:     16.10


Computing DFT-D3 correction:
# coordination-number Ag 5.460 6.726 8.381 5.461 8.949 9.043 9.058 9.100 9.095 9.105 9.103 9.107 9.099 9.105 9.064 9.049 8.956 8.385 6.731
# diagonal-C6 Ag 268.61 268.61 268.61 268.61 268.61 268.61 268.61 268.61 268.61 268.61 268.61 268.61 268.61 268.61 268.61 268.61 268.61 268.61 268.61
EvdW_6 =   -0.129451
EvdW_8 =   -0.171177
Shifting auxilliary hamiltonian by 0.110286 to set nElectrons=360.143307

-------- Electronic minimization -----------
	Linear fluid (dielectric constant: 78.4, screening length: 8.12261 Bohr) occupying 0.393402 of unit cell:	Completed after 29 iterations at t[s]:     37.63
	FillingsUpdate:  mu: -0.134500000  nElectrons: 360.143307  magneticMoment: [ Abs: 0.00008  Tot: -0.00003 ]
ElecMinimize: Iter:   0  G: -2755.148340469586856  |grad|_K:  2.277e-04  alpha:  1.000e+00
	Linear fluid (dielectric constant: 78.4, screening length: 8.12261 Bohr) occupying 0.436960 of unit cell:	Completed after 34 iterations at t[s]:    127.11
	Linear fluid (dielectric constant: 78.4, screening length: 8.12261 Bohr) occupying 0.393404 of unit cell:	Completed after 36 iterations at t[s]:    159.54
	FillingsUpdate:  mu: -0.134500000  nElectrons: 360.714894  magneticMoment: [ Abs: 0.00005  Tot: +0.00002 ]
	SubspaceRotationAdjust: set factor to 0.667
ElecMinimize: Iter:   1  G: -2755.286885983932279  |grad|_K:  1.347e-04  alpha:  1.946e-02  linmin: -1.224e-03  t[s]:    205.04
	Linear fluid (dielectric constant: 78.4, screening length: 8.12261 Bohr) occupying 0.393068 of unit cell:	Completed after 24 iterations at t[s]:    243.31
ElecMinimize: 	Predicted alpha/alphaT>3.000000, increasing alphaT to 5.837079e-02.
	Linear fluid (dielectric constant: 78.4, screening length: 8.12261 Bohr) occupying 0.392476 of unit cell:	Completed after 27 iterations at t[s]:    274.76
	Linear fluid (dielectric constant: 78.4, screening length: 8.12261 Bohr) occupying 0.392399 of unit cell:	Completed after 24 iterations at t[s]:    305.87
	FillingsUpdate:  mu: -0.134500000  nElectrons: 359.970189  magneticMoment: [ Abs: 0.00008  Tot: -0.00006 ]
	SubspaceRotationAdjust: set factor to 0.363
ElecMinimize: Iter:   2  G: -2755.537005684413543  |grad|_K:  2.702e-04  alpha:  6.515e-02  linmin:  8.423e-03  t[s]:    351.84
	Linear fluid (dielectric constant: 78.4, screening length: 8.12261 Bohr) occupying 0.388561 of unit cell:	Completed after 29 iterations at t[s]:    391.28
	Linear fluid (dielectric constant: 78.4, screening length: 8.12261 Bohr) occupying 0.391722 of unit cell:	Completed after 29 iterations at t[s]:    423.16
	FillingsUpdate:  mu: -0.134500000  nElectrons: 359.843006  magneticMoment: [ Abs: 0.00009  Tot: -0.00008 ]
	SubspaceRotationAdjust: set factor to 0.193
ElecMinimize: Iter:   3  G: -2755.621606293550030  |grad|_K:  2.502e-04  alpha:  1.179e-02  linmin: -1.119e-03  t[s]:    469.24
	Linear fluid (dielectric constant: 78.4, screening length: 8.12261 Bohr) occupying 0.391073 of unit cell:	Completed after 27 iterations at t[s]:    508.69
	Linear fluid (dielectric constant: 78.4, screening length: 8.12261 Bohr) occupying 0.390726 of unit cell:	Completed after 24 iterations at t[s]:    539.85
	FillingsUpdate:  mu: -0.134500000  nElectrons: 360.272566  magneticMoment: [ Abs: 0.00006  Tot: -0.00004 ]
	SubspaceRotationAdjust: set factor to 0.112
	SubspaceRotationAdjust: resetting CG because factor has changed by 0.112214
	Linear fluid (dielectric constant: 78.4, screening length: 8.12261 Bohr) occupying 0.390726 of unit cell:	Completed after 0 iterations at t[s]:    602.99
ElecMinimize: 	State modified externally: resetting search direction.
ElecMinimize: Iter:   4  G: -2755.927268073526193  |grad|_K:  7.618e-05  alpha:  1.827e-02
	Linear fluid (dielectric constant: 78.4, screening length: 8.12261 Bohr) occupying 0.390719 of unit cell:	Completed after 24 iterations at t[s]:    687.64
ElecMinimize: 	Predicted alpha/alphaT>3.000000, increasing alphaT to 5.481958e-02.
	Linear fluid (dielectric constant: 78.4, screening length: 8.12261 Bohr) occupying 0.390730 of unit cell:	Completed after 24 iterations at t[s]:    718.82
	Linear fluid (dielectric constant: 78.4, screening length: 8.12261 Bohr) occupying 0.390773 of unit cell:	Completed after 24 iterations at t[s]:    750.38
	FillingsUpdate:  mu: -0.134500000  nElectrons: 360.666115  magneticMoment: [ Abs: 0.00003  Tot: +0.00001 ]
	SubspaceRotationAdjust: set factor to 0.0488
ElecMinimize: Iter:   5  G: -2756.041291687968169  |grad|_K:  2.193e-05  alpha:  8.718e-02  linmin: -7.180e-03  t[s]:    796.34
	Linear fluid (dielectric constant: 78.4, screening length: 8.12261 Bohr) occupying 0.390567 of unit cell:	Completed after 23 iterations at t[s]:    835.12
ElecMinimize: 	Predicted alpha/alphaT>3.000000, increasing alphaT to 2.615439e-01.
	Linear fluid (dielectric constant: 78.4, screening length: 8.12261 Bohr) occupying 0.390153 of unit cell:	Completed after 24 iterations at t[s]:    866.33
	Linear fluid (dielectric constant: 78.4, screening length: 8.12261 Bohr) occupying 0.390112 of unit cell:	Completed after 19 iterations at t[s]:    896.94
	FillingsUpdate:  mu: -0.134500000  nElectrons: 360.698767  magneticMoment: [ Abs: 0.00002  Tot: +0.00001 ]
	SubspaceRotationAdjust: set factor to 0.0645
ElecMinimize: Iter:   6  G: -2756.073818476141696  |grad|_K:  1.147e-05  alpha:  2.785e-01  linmin: -5.004e-05  t[s]:    943.09
	Linear fluid (dielectric constant: 78.4, screening length: 8.12261 Bohr) occupying 0.389393 of unit cell:	Completed after 24 iterations at t[s]:    981.88
	Linear fluid (dielectric constant: 78.4, screening length: 8.12261 Bohr) occupying 0.389192 of unit cell:	Completed after 21 iterations at t[s]:   1012.78
	FillingsUpdate:  mu: -0.134500000  nElectrons: 360.683927  magneticMoment: [ Abs: 0.00002  Tot: +0.00001 ]
	SubspaceRotationAdjust: set factor to 0.0728
ElecMinimize: Iter:   7  G: -2756.084283195462376  |grad|_K:  6.025e-06  alpha:  3.555e-01  linmin:  1.334e-04  t[s]:   1058.72
	Linear fluid (dielectric constant: 78.4, screening length: 8.12261 Bohr) occupying 0.388452 of unit cell:	Completed after 18 iterations at t[s]:   1096.29
	Linear fluid (dielectric constant: 78.4, screening length: 8.12261 Bohr) occupying 0.387951 of unit cell:	Completed after 18 iterations at t[s]:   1126.85
	FillingsUpdate:  mu: -0.134500000  nElectrons: 360.703727  magneticMoment: [ Abs: 0.00002  Tot: +0.00001 ]
	SubspaceRotationAdjust: set factor to 0.0869
ElecMinimize: Iter:   8  G: -2756.089074862218240  |grad|_K:  5.856e-06  alpha:  5.911e-01  linmin:  1.017e-05  t[s]:   1173.10
	Linear fluid (dielectric constant: 78.4, screening length: 8.12261 Bohr) occupying 0.386177 of unit cell:	Completed after 21 iterations at t[s]:   1211.34
	Linear fluid (dielectric constant: 78.4, screening length: 8.12261 Bohr) occupying 0.386479 of unit cell:	Completed after 14 iterations at t[s]:   1241.23
	FillingsUpdate:  mu: -0.134500000  nElectrons: 360.740260  magneticMoment: [ Abs: 0.00002  Tot: +0.00001 ]
	SubspaceRotationAdjust: set factor to 0.112
ElecMinimize: Iter:   9  G: -2756.092853895087501  |grad|_K:  5.105e-06  alpha:  4.941e-01  linmin:  5.741e-05  t[s]:   1287.23
	Linear fluid (dielectric constant: 78.4, screening length: 8.12261 Bohr) occupying 0.384954 of unit cell:	Completed after 24 iterations at t[s]:   1325.80
	Linear fluid (dielectric constant: 78.4, screening length: 8.12261 Bohr) occupying 0.384422 of unit cell:	Completed after 21 iterations at t[s]:   1356.59
	FillingsUpdate:  mu: -0.134500000  nElectrons: 360.838968  magneticMoment: [ Abs: 0.00003  Tot: +0.00001 ]
	SubspaceRotationAdjust: set factor to 0.119
ElecMinimize: Iter:  10  G: -2756.096461083018312  |grad|_K:  6.316e-06  alpha:  6.509e-01  linmin:  1.358e-03  t[s]:   1402.55
	Linear fluid (dielectric constant: 78.4, screening length: 8.12261 Bohr) occupying 0.380355 of unit cell:	Completed after 25 iterations at t[s]:   1441.63
	Linear fluid (dielectric constant: 78.4, screening length: 8.12261 Bohr) occupying 0.381859 of unit cell:	Completed after 24 iterations at t[s]:   1473.05
	FillingsUpdate:  mu: -0.134500000  nElectrons: 360.933435  magneticMoment: [ Abs: 0.00003  Tot: +0.00001 ]
	SubspaceRotationAdjust: set factor to 0.159
ElecMinimize: Iter:  11  G: -2756.099527724601103  |grad|_K:  6.147e-06  alpha:  4.159e-01  linmin:  5.525e-05  t[s]:   1518.88
	Linear fluid (dielectric constant: 78.4, screening length: 8.12261 Bohr) occupying 0.378961 of unit cell:	Completed after 24 iterations at t[s]:   1557.60
	Linear fluid (dielectric constant: 78.4, screening length: 8.12261 Bohr) occupying 0.379586 of unit cell:	Completed after 22 iterations at t[s]:   1588.76
	FillingsUpdate:  mu: -0.134500000  nElectrons: 360.975030  magneticMoment: [ Abs: 0.00002  Tot: +0.00001 ]
	SubspaceRotationAdjust: set factor to 0.163
ElecMinimize: Iter:  12  G: -2756.102301823813377  |grad|_K:  6.446e-06  alpha:  3.311e-01  linmin:  3.148e-05  t[s]:   1634.60
	Linear fluid (dielectric constant: 78.4, screening length: 8.12261 Bohr) occupying 0.377098 of unit cell:	Completed after 19 iterations at t[s]:   1672.58
	Linear fluid (dielectric constant: 78.4, screening length: 8.12261 Bohr) occupying 0.377986 of unit cell:	Completed after 18 iterations at t[s]:   1703.20
	FillingsUpdate:  mu: -0.134500000  nElectrons: 361.041986  magneticMoment: [ Abs: 0.00002  Tot: +0.00001 ]
	SubspaceRotationAdjust: set factor to 0.157
ElecMinimize: Iter:  13  G: -2756.104268199238049  |grad|_K:  6.876e-06  alpha:  2.107e-01  linmin: -1.170e-05  t[s]:   1749.25
	Linear fluid (dielectric constant: 78.4, screening length: 8.12261 Bohr) occupying 0.375321 of unit cell:	Completed after 23 iterations at t[s]:   1787.61
	Linear fluid (dielectric constant: 78.4, screening length: 8.12261 Bohr) occupying 0.374929 of unit cell:	Completed after 20 iterations at t[s]:   1818.34
	FillingsUpdate:  mu: -0.134500000  nElectrons: 361.049320  magneticMoment: [ Abs: 0.00001  Tot: +0.00000 ]
	SubspaceRotationAdjust: set factor to 0.148
ElecMinimize: Iter:  14  G: -2756.106802525833245  |grad|_K:  5.498e-06  alpha:  2.391e-01  linmin: -9.878e-06  t[s]:   1864.58
	Linear fluid (dielectric constant: 78.4, screening length: 8.12261 Bohr) occupying 0.372805 of unit cell:	Completed after 19 iterations at t[s]:   1902.48
	Linear fluid (dielectric constant: 78.4, screening length: 8.12261 Bohr) occupying 0.371776 of unit cell:	Completed after 19 iterations at t[s]:   1933.01
	FillingsUpdate:  mu: -0.134500000  nElectrons: 361.087968  magneticMoment: [ Abs: 0.00001  Tot: +0.00000 ]
	SubspaceRotationAdjust: set factor to 0.164
ElecMinimize: Iter:  15  G: -2756.109124457432699  |grad|_K:  4.725e-06  alpha:  3.446e-01  linmin:  6.918e-05  t[s]:   1979.49
	Linear fluid (dielectric constant: 78.4, screening length: 8.12261 Bohr) occupying 0.369469 of unit cell:	Completed after 23 iterations at t[s]:   2017.98
	Linear fluid (dielectric constant: 78.4, screening length: 8.12261 Bohr) occupying 0.369986 of unit cell:	Completed after 19 iterations at t[s]:   2048.66
	FillingsUpdate:  mu: -0.134500000  nElectrons: 361.129808  magneticMoment: [ Abs: 0.00001  Tot: -0.00000 ]
	SubspaceRotationAdjust: set factor to 0.157
ElecMinimize: Iter:  16  G: -2756.110439939448042  |grad|_K:  3.976e-06  alpha:  2.688e-01  linmin: -1.687e-05  t[s]:   2094.46
	Linear fluid (dielectric constant: 78.4, screening length: 8.12261 Bohr) occupying 0.368081 of unit cell:	Completed after 22 iterations at t[s]:   2132.94
	Linear fluid (dielectric constant: 78.4, screening length: 8.12261 Bohr) occupying 0.368862 of unit cell:	Completed after 22 iterations at t[s]:   2163.87
	FillingsUpdate:  mu: -0.134500000  nElectrons: 361.120399  magneticMoment: [ Abs: 0.00001  Tot: -0.00000 ]
	SubspaceRotationAdjust: set factor to 0.123
ElecMinimize: Iter:  17  G: -2756.111012548269628  |grad|_K:  3.565e-06  alpha:  1.607e-01  linmin: -1.300e-05  t[s]:   2209.90
	Linear fluid (dielectric constant: 78.4, screening length: 8.12261 Bohr) occupying 0.368369 of unit cell:	Completed after 16 iterations at t[s]:   2247.58
	Linear fluid (dielectric constant: 78.4, screening length: 8.12261 Bohr) occupying 0.368238 of unit cell:	Completed after 15 iterations at t[s]:   2277.53
	FillingsUpdate:  mu: -0.134500000  nElectrons: 361.138404  magneticMoment: [ Abs: 0.00001  Tot: -0.00000 ]
	SubspaceRotationAdjust: set factor to 0.139
ElecMinimize: Iter:  18  G: -2756.111587472719748  |grad|_K:  2.479e-06  alpha:  2.017e-01  linmin: -5.880e-05  t[s]:   2323.28
	Linear fluid (dielectric constant: 78.4, screening length: 8.12261 Bohr) occupying 0.367963 of unit cell:	Completed after 20 iterations at t[s]:   2361.43
	Linear fluid (dielectric constant: 78.4, screening length: 8.12261 Bohr) occupying 0.367842 of unit cell:	Completed after 18 iterations at t[s]:   2391.79
	FillingsUpdate:  mu: -0.134500000  nElectrons: 361.143618  magneticMoment: [ Abs: 0.00001  Tot: -0.00000 ]
	SubspaceRotationAdjust: set factor to 0.159
ElecMinimize: Iter:  19  G: -2756.111984132973703  |grad|_K:  2.153e-06  alpha:  2.872e-01  linmin:  1.666e-05  t[s]:   2437.79
	Linear fluid (dielectric constant: 78.4, screening length: 8.12261 Bohr) occupying 0.367312 of unit cell:	Completed after 22 iterations at t[s]:   2476.39
	Linear fluid (dielectric constant: 78.4, screening length: 8.12261 Bohr) occupying 0.367509 of unit cell:	Completed after 19 iterations at t[s]:   2506.95
	FillingsUpdate:  mu: -0.134500000  nElectrons: 361.130918  magneticMoment: [ Abs: 0.00001  Tot: -0.00000 ]
	SubspaceRotationAdjust: set factor to 0.144
ElecMinimize: Iter:  20  G: -2756.112167539865368  |grad|_K:  1.954e-06  alpha:  1.767e-01  linmin: -2.740e-05  t[s]:   2553.10
	Linear fluid (dielectric constant: 78.4, screening length: 8.12261 Bohr) occupying 0.367586 of unit cell:	Completed after 15 iterations at t[s]:   2590.58
	Linear fluid (dielectric constant: 78.4, screening length: 8.12261 Bohr) occupying 0.367605 of unit cell:	Completed after 13 iterations at t[s]:   2620.18
	FillingsUpdate:  mu: -0.134500000  nElectrons: 361.132995  magneticMoment: [ Abs: 0.00000  Tot: -0.00000 ]
	SubspaceRotationAdjust: set factor to 0.18
ElecMinimize: Iter:  21  G: -2756.112360292906033  |grad|_K:  1.479e-06  alpha:  2.257e-01  linmin: -7.764e-06  t[s]:   2666.35
	Linear fluid (dielectric constant: 78.4, screening length: 8.12261 Bohr) occupying 0.367729 of unit cell:	Completed after 14 iterations at t[s]:   2703.74
	Linear fluid (dielectric constant: 78.4, screening length: 8.12261 Bohr) occupying 0.367782 of unit cell:	Completed after 11 iterations at t[s]:   2733.16
	FillingsUpdate:  mu: -0.134500000  nElectrons: 361.128401  magneticMoment: [ Abs: 0.00000  Tot: -0.00000 ]
	SubspaceRotationAdjust: set factor to 0.231
ElecMinimize: Iter:  22  G: -2756.112518390261357  |grad|_K:  1.390e-06  alpha:  3.233e-01  linmin: -1.534e-05  t[s]:   2779.12
	Linear fluid (dielectric constant: 78.4, screening length: 8.12261 Bohr) occupying 0.367960 of unit cell:	Completed after 19 iterations at t[s]:   2817.12
	Linear fluid (dielectric constant: 78.4, screening length: 8.12261 Bohr) occupying 0.367919 of unit cell:	Completed after 14 iterations at t[s]:   2847.12
	FillingsUpdate:  mu: -0.134500000  nElectrons: 361.115158  magneticMoment: [ Abs: 0.00000  Tot: -0.00000 ]
	SubspaceRotationAdjust: set factor to 0.177
ElecMinimize: Iter:  23  G: -2756.112628755399783  |grad|_K:  1.840e-06  alpha:  2.545e-01  linmin:  7.830e-06  t[s]:   2893.06
	Linear fluid (dielectric constant: 78.4, screening length: 8.12261 Bohr) occupying 0.368735 of unit cell:	Completed after 22 iterations at t[s]:   2931.54
	Linear fluid (dielectric constant: 78.4, screening length: 8.12261 Bohr) occupying 0.368299 of unit cell:	Completed after 19 iterations at t[s]:   2962.09
	FillingsUpdate:  mu: -0.134500000  nElectrons: 361.117269  magneticMoment: [ Abs: 0.00000  Tot: -0.00000 ]
	SubspaceRotationAdjust: set factor to 0.154
ElecMinimize: Iter:  24  G: -2756.112717595422964  |grad|_K:  1.398e-06  alpha:  1.181e-01  linmin:  1.817e-05  t[s]:   3007.89
	Linear fluid (dielectric constant: 78.4, screening length: 8.12261 Bohr) occupying 0.368486 of unit cell:	Completed after 15 iterations at t[s]:   3045.42
	Linear fluid (dielectric constant: 78.4, screening length: 8.12261 Bohr) occupying 0.368767 of unit cell:	Completed after 16 iterations at t[s]:   3075.65
	FillingsUpdate:  mu: -0.134500000  nElectrons: 361.105739  magneticMoment: [ Abs: 0.00000  Tot: -0.00000 ]
	SubspaceRotationAdjust: set factor to 0.202
ElecMinimize: Iter:  25  G: -2756.112845385694982  |grad|_K:  1.242e-06  alpha:  2.937e-01  linmin:  1.351e-05  t[s]:   3121.80
	Linear fluid (dielectric constant: 78.4, screening length: 8.12261 Bohr) occupying 0.369144 of unit cell:	Completed after 20 iterations at t[s]:   3159.83
	Linear fluid (dielectric constant: 78.4, screening length: 8.12261 Bohr) occupying 0.369116 of unit cell:	Completed after 12 iterations at t[s]:   3189.41
	FillingsUpdate:  mu: -0.134500000  nElectrons: 361.091549  magneticMoment: [ Abs: 0.00000  Tot: -0.00000 ]
	SubspaceRotationAdjust: set factor to 0.184
ElecMinimize: Iter:  26  G: -2756.112939353562069  |grad|_K:  1.565e-06  alpha:  2.728e-01  linmin:  2.955e-05  t[s]:   3235.41
	Linear fluid (dielectric constant: 78.4, screening length: 8.12261 Bohr) occupying 0.369995 of unit cell:	Completed after 21 iterations at t[s]:   3273.84
	Linear fluid (dielectric constant: 78.4, screening length: 8.12261 Bohr) occupying 0.369488 of unit cell:	Completed after 20 iterations at t[s]:   3304.85
	FillingsUpdate:  mu: -0.134500000  nElectrons: 361.093009  magneticMoment: [ Abs: 0.00000  Tot: -0.00000 ]
	SubspaceRotationAdjust: set factor to 0.144
ElecMinimize: Iter:  27  G: -2756.113001607790920  |grad|_K:  1.150e-06  alpha:  1.152e-01  linmin:  1.854e-05  t[s]:   3350.68
	Linear fluid (dielectric constant: 78.4, screening length: 8.12261 Bohr) occupying 0.369662 of unit cell:	Completed after 12 iterations at t[s]:   3387.76
	Linear fluid (dielectric constant: 78.4, screening length: 8.12261 Bohr) occupying 0.369895 of unit cell:	Completed after 14 iterations at t[s]:   3417.56
	FillingsUpdate:  mu: -0.134500000  nElectrons: 361.084335  magneticMoment: [ Abs: 0.00000  Tot: -0.00000 ]
	SubspaceRotationAdjust: set factor to 0.18
ElecMinimize: Iter:  28  G: -2756.113080903870923  |grad|_K:  9.486e-07  alpha:  2.696e-01  linmin:  1.434e-05  t[s]:   3463.44
	Linear fluid (dielectric constant: 78.4, screening length: 8.12261 Bohr) occupying 0.370153 of unit cell:	Completed after 17 iterations at t[s]:   3501.42
	Linear fluid (dielectric constant: 78.4, screening length: 8.12261 Bohr) occupying 0.370163 of unit cell:	Completed after 7 iterations at t[s]:   3530.40
	FillingsUpdate:  mu: -0.134500000  nElectrons: 361.074371  magneticMoment: [ Abs: 0.00000  Tot: -0.00000 ]
	SubspaceRotationAdjust: set factor to 0.178
ElecMinimize: Iter:  29  G: -2756.113137013978303  |grad|_K:  1.082e-06  alpha:  2.799e-01  linmin:  1.346e-05  t[s]:   3576.53
	Linear fluid (dielectric constant: 78.4, screening length: 8.12261 Bohr) occupying 0.370639 of unit cell:	Completed after 19 iterations at t[s]:   3614.15
	Linear fluid (dielectric constant: 78.4, screening length: 8.12261 Bohr) occupying 0.370378 of unit cell:	Completed after 15 iterations at t[s]:   3643.91
	FillingsUpdate:  mu: -0.134500000  nElectrons: 361.075911  magneticMoment: [ Abs: 0.00000  Tot: -0.00000 ]
	SubspaceRotationAdjust: set factor to 0.143
ElecMinimize: Iter:  30  G: -2756.113169801057666  |grad|_K:  8.430e-07  alpha:  1.260e-01  linmin:  7.095e-06  t[s]:   3689.64
	Linear fluid (dielectric constant: 78.4, screening length: 8.12261 Bohr) occupying 0.370483 of unit cell:	Completed after 12 iterations at t[s]:   3726.57
	Linear fluid (dielectric constant: 78.4, screening length: 8.12261 Bohr) occupying 0.370582 of unit cell:	Completed after 12 iterations at t[s]:   3756.00
	FillingsUpdate:  mu: -0.134500000  nElectrons: 361.069889  magneticMoment: [ Abs: 0.00000  Tot: -0.00000 ]
	SubspaceRotationAdjust: set factor to 0.176
ElecMinimize: Iter:  31  G: -2756.113208650447632  |grad|_K:  6.552e-07  alpha:  2.449e-01  linmin:  1.579e-06  t[s]:   3801.69
	Linear fluid (dielectric constant: 78.4, screening length: 8.12261 Bohr) occupying 0.370708 of unit cell:	Completed after 15 iterations at t[s]:   3839.11
	Linear fluid (dielectric constant: 78.4, screening length: 8.12261 Bohr) occupying 0.370746 of unit cell:	Completed after 12 iterations at t[s]:   3868.57
	FillingsUpdate:  mu: -0.134500000  nElectrons: 361.065783  magneticMoment: [ Abs: 0.00000  Tot: -0.00000 ]
	SubspaceRotationAdjust: set factor to 0.201
ElecMinimize: Iter:  32  G: -2756.113239253512347  |grad|_K:  6.532e-07  alpha:  3.190e-01  linmin:  5.424e-08  t[s]:   3914.36
	Linear fluid (dielectric constant: 78.4, screening length: 8.12261 Bohr) occupying 0.370968 of unit cell:	Completed after 15 iterations at t[s]:   3951.92
	Linear fluid (dielectric constant: 78.4, screening length: 8.12261 Bohr) occupying 0.370858 of unit cell:	Completed after 13 iterations at t[s]:   3981.46
	FillingsUpdate:  mu: -0.134500000  nElectrons: 361.068559  magneticMoment: [ Abs: 0.00000  Tot: +0.00000 ]
	SubspaceRotationAdjust: set factor to 0.177
ElecMinimize: Iter:  33  G: -2756.113254587874962  |grad|_K:  6.854e-07  alpha:  1.610e-01  linmin:  1.125e-05  t[s]:   4027.33
	Linear fluid (dielectric constant: 78.4, screening length: 8.12261 Bohr) occupying 0.370944 of unit cell:	Completed after 14 iterations at t[s]:   4064.74
	Linear fluid (dielectric constant: 78.4, screening length: 8.12261 Bohr) occupying 0.370945 of unit cell:	Completed after 2 iterations at t[s]:   4092.88
	FillingsUpdate:  mu: -0.134500000  nElectrons: 361.065598  magneticMoment: [ Abs: 0.00000  Tot: +0.00000 ]
	SubspaceRotationAdjust: set factor to 0.181
ElecMinimize: Iter:  34  G: -2756.113271678396359  |grad|_K:  5.013e-07  alpha:  1.630e-01  linmin: -6.074e-06  t[s]:   4138.85
	Linear fluid (dielectric constant: 78.4, screening length: 8.12261 Bohr) occupying 0.371003 of unit cell:	Completed after 11 iterations at t[s]:   4175.61
	Linear fluid (dielectric constant: 78.4, screening length: 8.12261 Bohr) occupying 0.371054 of unit cell:	Completed after 11 iterations at t[s]:   4204.87
	FillingsUpdate:  mu: -0.134500000  nElectrons: 361.066537  magneticMoment: [ Abs: 0.00000  Tot: +0.00000 ]
	SubspaceRotationAdjust: set factor to 0.221
ElecMinimize: Iter:  35  G: -2756.113288958409612  |grad|_K:  4.321e-07  alpha:  3.077e-01  linmin:  1.983e-05  t[s]:   4250.72
	Linear fluid (dielectric constant: 78.4, screening length: 8.12261 Bohr) occupying 0.371130 of unit cell:	Completed after 12 iterations at t[s]:   4287.97
	Linear fluid (dielectric constant: 78.4, screening length: 8.12261 Bohr) occupying 0.371132 of unit cell:	Completed after 2 iterations at t[s]:   4316.20
	FillingsUpdate:  mu: -0.134500000  nElectrons: 361.067099  magneticMoment: [ Abs: 0.00000  Tot: +0.00000 ]
	SubspaceRotationAdjust: set factor to 0.269
ElecMinimize: Iter:  36  G: -2756.113302137864594  |grad|_K:  3.874e-07  alpha:  3.165e-01  linmin:  4.347e-06  t[s]:   4361.97
	Linear fluid (dielectric constant: 78.4, screening length: 8.12261 Bohr) occupying 0.371181 of unit cell:	Completed after 13 iterations at t[s]:   4399.25
	Linear fluid (dielectric constant: 78.4, screening length: 8.12261 Bohr) occupying 0.371179 of unit cell:	Completed after 2 iterations at t[s]:   4427.37
	FillingsUpdate:  mu: -0.134500000  nElectrons: 361.066943  magneticMoment: [ Abs: 0.00000  Tot: +0.00000 ]
	SubspaceRotationAdjust: set factor to 0.297
ElecMinimize: Iter:  37  G: -2756.113312266671528  |grad|_K:  4.071e-07  alpha:  3.022e-01  linmin:  1.791e-05  t[s]:   4473.24
	Linear fluid (dielectric constant: 78.4, screening length: 8.12261 Bohr) occupying 0.371263 of unit cell:	Completed after 14 iterations at t[s]:   4510.66
	Linear fluid (dielectric constant: 78.4, screening length: 8.12261 Bohr) occupying 0.371210 of unit cell:	Completed after 14 iterations at t[s]:   4540.54
	FillingsUpdate:  mu: -0.134500000  nElectrons: 361.069616  magneticMoment: [ Abs: 0.00000  Tot: +0.00000 ]
	SubspaceRotationAdjust: set factor to 0.238
ElecMinimize: Iter:  38  G: -2756.113316344987652  |grad|_K:  4.673e-07  alpha:  1.119e-01  linmin:  2.636e-05  t[s]:   4586.34
	Linear fluid (dielectric constant: 78.4, screening length: 8.12261 Bohr) occupying 0.371218 of unit cell:	Completed after 13 iterations at t[s]:   4623.59
	Linear fluid (dielectric constant: 78.4, screening length: 8.12261 Bohr) occupying 0.371219 of unit cell:	Completed after 10 iterations at t[s]:   4652.85
	FillingsUpdate:  mu: -0.134500000  nElectrons: 361.069119  magneticMoment: [ Abs: 0.00000  Tot: +0.00000 ]
	SubspaceRotationAdjust: set factor to 0.225
ElecMinimize: Iter:  39  G: -2756.113322550616431  |grad|_K:  3.156e-07  alpha:  1.278e-01  linmin: -1.467e-06  t[s]:   4698.88
	Linear fluid (dielectric constant: 78.4, screening length: 8.12261 Bohr) occupying 0.371224 of unit cell:	Completed after 9 iterations at t[s]:   4735.26
	Linear fluid (dielectric constant: 78.4, screening length: 8.12261 Bohr) occupying 0.371231 of unit cell:	Completed after 9 iterations at t[s]:   4764.26
	FillingsUpdate:  mu: -0.134500000  nElectrons: 361.071049  magneticMoment: [ Abs: 0.00000  Tot: +0.00000 ]
	SubspaceRotationAdjust: set factor to 0.26
ElecMinimize: Iter:  40  G: -2756.113329067005907  |grad|_K:  2.740e-07  alpha:  2.927e-01  linmin: -6.236e-07  t[s]:   4810.43
	Linear fluid (dielectric constant: 78.4, screening length: 8.12261 Bohr) occupying 0.371218 of unit cell:	Completed after 13 iterations at t[s]:   4847.43
	Linear fluid (dielectric constant: 78.4, screening length: 8.12261 Bohr) occupying 0.371219 of unit cell:	Completed after 2 iterations at t[s]:   4875.43
	FillingsUpdate:  mu: -0.134500000  nElectrons: 361.071141  magneticMoment: [ Abs: 0.00000  Tot: +0.00000 ]
	SubspaceRotationAdjust: set factor to 0.269
ElecMinimize: Iter:  41  G: -2756.113333605271691  |grad|_K:  2.941e-07  alpha:  2.704e-01  linmin:  1.350e-05  t[s]:   4921.71
	Linear fluid (dielectric constant: 78.4, screening length: 8.12261 Bohr) occupying 0.371225 of unit cell:	Completed after 13 iterations at t[s]:   4958.82
	Linear fluid (dielectric constant: 78.4, screening length: 8.12261 Bohr) occupying 0.371221 of unit cell:	Completed after 13 iterations at t[s]:   4988.37
	FillingsUpdate:  mu: -0.134500000  nElectrons: 361.072994  magneticMoment: [ Abs: 0.00000  Tot: +0.00000 ]
	SubspaceRotationAdjust: set factor to 0.214
ElecMinimize: Iter:  42  G: -2756.113335550738611  |grad|_K:  3.022e-07  alpha:  1.032e-01  linmin:  1.847e-05  t[s]:   5034.46
	Linear fluid (dielectric constant: 78.4, screening length: 8.12261 Bohr) occupying 0.371203 of unit cell:	Completed after 12 iterations at t[s]:   5071.53
	Linear fluid (dielectric constant: 78.4, screening length: 8.12261 Bohr) occupying 0.371192 of unit cell:	Completed after 10 iterations at t[s]:   5100.70
	FillingsUpdate:  mu: -0.134500000  nElectrons: 361.072642  magneticMoment: [ Abs: 0.00000  Tot: +0.00000 ]
	SubspaceRotationAdjust: set factor to 0.213
ElecMinimize: Iter:  43  G: -2756.113338905504406  |grad|_K:  2.143e-07  alpha:  1.653e-01  linmin:  2.953e-06  t[s]:   5146.48
	Linear fluid (dielectric constant: 78.4, screening length: 8.12261 Bohr) occupying 0.371176 of unit cell:	Completed after 10 iterations at t[s]:   5183.16
	Linear fluid (dielectric constant: 78.4, screening length: 8.12261 Bohr) occupying 0.371165 of unit cell:	Completed after 7 iterations at t[s]:   5212.16
	FillingsUpdate:  mu: -0.134500000  nElectrons: 361.073476  magneticMoment: [ Abs: 0.00000  Tot: +0.00000 ]
	SubspaceRotationAdjust: set factor to 0.249
ElecMinimize: Iter:  44  G: -2756.113341817505443  |grad|_K:  1.813e-07  alpha:  2.838e-01  linmin: -3.453e-06  t[s]:   5257.95
	Linear fluid (dielectric constant: 78.4, screening length: 8.12261 Bohr) occupying 0.371133 of unit cell:	Completed after 11 iterations at t[s]:   5294.70
	Linear fluid (dielectric constant: 78.4, screening length: 8.12261 Bohr) occupying 0.371131 of unit cell:	Completed after 2 iterations at t[s]:   5322.75
	FillingsUpdate:  mu: -0.134500000  nElectrons: 361.073618  magneticMoment: [ Abs: 0.00000  Tot: +0.00000 ]
	SubspaceRotationAdjust: set factor to 0.278
ElecMinimize: Iter:  45  G: -2756.113344039934418  |grad|_K:  1.714e-07  alpha:  3.022e-01  linmin: -5.566e-06  t[s]:   5368.59
	Linear fluid (dielectric constant: 78.4, screening length: 8.12261 Bohr) occupying 0.371105 of unit cell:	Completed after 12 iterations at t[s]:   5405.66
	Linear fluid (dielectric constant: 78.4, screening length: 8.12261 Bohr) occupying 0.371116 of unit cell:	Completed after 11 iterations at t[s]:   5435.07
	FillingsUpdate:  mu: -0.134500000  nElectrons: 361.074727  magneticMoment: [ Abs: 0.00000  Tot: +0.00000 ]
	SubspaceRotationAdjust: set factor to 0.212
ElecMinimize: Iter:  46  G: -2756.113345211972501  |grad|_K:  2.099e-07  alpha:  1.772e-01  linmin:  9.119e-06  t[s]:   5480.95
	Linear fluid (dielectric constant: 78.4, screening length: 8.12261 Bohr) occupying 0.371066 of unit cell:	Completed after 12 iterations at t[s]:   5518.02
	Linear fluid (dielectric constant: 78.4, screening length: 8.12261 Bohr) occupying 0.371090 of unit cell:	Completed after 10 iterations at t[s]:   5547.28
	FillingsUpdate:  mu: -0.134500000  nElectrons: 361.074004  magneticMoment: [ Abs: 0.00000  Tot: +0.00000 ]
	SubspaceRotationAdjust: set factor to 0.169
ElecMinimize: Iter:  47  G: -2756.113346098376951  |grad|_K:  1.359e-07  alpha:  9.007e-02  linmin:  3.959e-06  t[s]:   5593.39
	Linear fluid (dielectric constant: 78.4, screening length: 8.12261 Bohr) occupying 0.371081 of unit cell:	Completed after 3 iterations at t[s]:   5629.04
ElecMinimize: 	Predicted alpha/alphaT>3.000000, increasing alphaT to 2.702056e-01.
	Linear fluid (dielectric constant: 78.4, screening length: 8.12261 Bohr) occupying 0.371061 of unit cell:	Completed after 7 iterations at t[s]:   5657.84
	Linear fluid (dielectric constant: 78.4, screening length: 8.12261 Bohr) occupying 0.371061 of unit cell:	Completed after 0 iterations at t[s]:   5685.71
	FillingsUpdate:  mu: -0.134500000  nElectrons: 361.074185  magneticMoment: [ Abs: 0.00000  Tot: -0.00000 ]
	SubspaceRotationAdjust: set factor to 0.221
ElecMinimize: Iter:  48  G: -2756.113347243453518  |grad|_K:  1.122e-07  alpha:  2.777e-01  linmin:  1.536e-07  t[s]:   5731.57
	Linear fluid (dielectric constant: 78.4, screening length: 8.12261 Bohr) occupying 0.371039 of unit cell:	Completed after 11 iterations at t[s]:   5768.80
	Linear fluid (dielectric constant: 78.4, screening length: 8.12261 Bohr) occupying 0.371040 of unit cell:	Completed after 0 iterations at t[s]:   5796.48
	FillingsUpdate:  mu: -0.134500000  nElectrons: 361.074573  magneticMoment: [ Abs: 0.00000  Tot: -0.00000 ]
	SubspaceRotationAdjust: set factor to 0.193
ElecMinimize: Iter:  49  G: -2756.113347988448822  |grad|_K:  1.284e-07  alpha:  2.650e-01  linmin:  1.384e-05  t[s]:   5842.47
	Linear fluid (dielectric constant: 78.4, screening length: 8.12261 Bohr) occupying 0.370995 of unit cell:	Completed after 12 iterations at t[s]:   5879.52
	Linear fluid (dielectric constant: 78.4, screening length: 8.12261 Bohr) occupying 0.371024 of unit cell:	Completed after 10 iterations at t[s]:   5908.75
	FillingsUpdate:  mu: -0.134500000  nElectrons: 361.073956  magneticMoment: [ Abs: 0.00000  Tot: -0.00000 ]
	SubspaceRotationAdjust: set factor to 0.156
ElecMinimize: Iter:  50  G: -2756.113348340994889  |grad|_K:  1.049e-07  alpha:  9.799e-02  linmin:  1.914e-05  t[s]:   5954.63
	Linear fluid (dielectric constant: 78.4, screening length: 8.12261 Bohr) occupying 0.371015 of unit cell:	Completed after 2 iterations at t[s]:   5990.09
	Linear fluid (dielectric constant: 78.4, screening length: 8.12261 Bohr) occupying 0.371001 of unit cell:	Completed after 6 iterations at t[s]:   6018.65
	FillingsUpdate:  mu: -0.134500000  nElectrons: 361.074036  magneticMoment: [ Abs: 0.00000  Tot: -0.00000 ]
	SubspaceRotationAdjust: set factor to 0.223
ElecMinimize: Iter:  51  G: -2756.113348949010742  |grad|_K:  8.561e-08  alpha:  2.507e-01  linmin:  3.887e-05  t[s]:   6065.06
	Linear fluid (dielectric constant: 78.4, screening length: 8.12261 Bohr) occupying 0.370988 of unit cell:	Completed after 10 iterations at t[s]:   6101.54
	Linear fluid (dielectric constant: 78.4, screening length: 8.12261 Bohr) occupying 0.370990 of unit cell:	Completed after 4 iterations at t[s]:   6129.96
	FillingsUpdate:  mu: -0.134500000  nElectrons: 361.074458  magneticMoment: [ Abs: 0.00000  Tot: -0.00000 ]
	SubspaceRotationAdjust: set factor to 0.17
ElecMinimize: Iter:  52  G: -2756.113349294728778  |grad|_K:  1.134e-07  alpha:  2.134e-01  linmin:  1.467e-05  t[s]:   6175.67
	Linear fluid (dielectric constant: 78.4, screening length: 8.12261 Bohr) occupying 0.370957 of unit cell:	Completed after 11 iterations at t[s]:   6212.51
	Linear fluid (dielectric constant: 78.4, screening length: 8.12261 Bohr) occupying 0.370974 of unit cell:	Completed after 10 iterations at t[s]:   6241.64
	FillingsUpdate:  mu: -0.134500000  nElectrons: 361.073971  magneticMoment: [ Abs: 0.00000  Tot: +0.00000 ]
	SubspaceRotationAdjust: set factor to 0.155
ElecMinimize: Iter:  53  G: -2756.113349587439188  |grad|_K:  7.596e-08  alpha:  1.040e-01  linmin:  2.869e-06  t[s]:   6287.39
	Linear fluid (dielectric constant: 78.4, screening length: 8.12261 Bohr) occupying 0.370968 of unit cell:	Completed after 2 iterations at t[s]:   6322.94
	Linear fluid (dielectric constant: 78.4, screening length: 8.12261 Bohr) occupying 0.370956 of unit cell:	Completed after 2 iterations at t[s]:   6351.14
	FillingsUpdate:  mu: -0.134500000  nElectrons: 361.073827  magneticMoment: [ Abs: 0.00000  Tot: +0.00000 ]
	SubspaceRotationAdjust: set factor to 0.2
ElecMinimize: Iter:  54  G: -2756.113349987080255  |grad|_K:  7.152e-08  alpha:  3.105e-01  linmin:  4.959e-06  t[s]:   6397.53
	Linear fluid (dielectric constant: 78.4, screening length: 8.12261 Bohr) occupying 0.370943 of unit cell:	Completed after 10 iterations at t[s]:   6433.86
	Linear fluid (dielectric constant: 78.4, screening length: 8.12261 Bohr) occupying 0.370947 of unit cell:	Completed after 8 iterations at t[s]:   6462.60
	FillingsUpdate:  mu: -0.134500000  nElectrons: 361.074193  magneticMoment: [ Abs: 0.00000  Tot: +0.00000 ]
	SubspaceRotationAdjust: set factor to 0.184
ElecMinimize: Iter:  55  G: -2756.113350248860570  |grad|_K:  7.737e-08  alpha:  2.239e-01  linmin:  5.307e-05  t[s]:   6508.23
	Linear fluid (dielectric constant: 78.4, screening length: 8.12261 Bohr) occupying 0.370929 of unit cell:	Completed after 11 iterations at t[s]:   6545.16
	Linear fluid (dielectric constant: 78.4, screening length: 8.12261 Bohr) occupying 0.370935 of unit cell:	Completed after 8 iterations at t[s]:   6574.12
	FillingsUpdate:  mu: -0.134500000  nElectrons: 361.073825  magneticMoment: [ Abs: 0.00000  Tot: +0.00000 ]
	SubspaceRotationAdjust: set factor to 0.154
ElecMinimize: Iter:  56  G: -2756.113350450043981  |grad|_K:  6.301e-08  alpha:  1.538e-01  linmin:  7.779e-06  t[s]:   6619.85
	Linear fluid (dielectric constant: 78.4, screening length: 8.12261 Bohr) occupying 0.370930 of unit cell:	Completed after 7 iterations at t[s]:   6656.02
	Linear fluid (dielectric constant: 78.4, screening length: 8.12261 Bohr) occupying 0.370927 of unit cell:	Completed after 6 iterations at t[s]:   6684.55
	FillingsUpdate:  mu: -0.134500000  nElectrons: 361.074057  magneticMoment: [ Abs: 0.00000  Tot: -0.00000 ]
	SubspaceRotationAdjust: set factor to 0.15
ElecMinimize: Iter:  57  G: -2756.113350673002515  |grad|_K:  5.387e-08  alpha:  2.522e-01  linmin: -5.365e-06  t[s]:   6730.25
	Linear fluid (dielectric constant: 78.4, screening length: 8.12261 Bohr) occupying 0.370920 of unit cell:	Completed after 10 iterations at t[s]:   6766.97
	Linear fluid (dielectric constant: 78.4, screening length: 8.12261 Bohr) occupying 0.370920 of unit cell:	Completed after 0 iterations at t[s]:   6794.59
	FillingsUpdate:  mu: -0.134500000  nElectrons: 361.073911  magneticMoment: [ Abs: 0.00000  Tot: -0.00000 ]
	SubspaceRotationAdjust: set factor to 0.149
ElecMinimize: Iter:  58  G: -2756.113350842946147  |grad|_K:  4.645e-08  alpha:  2.609e-01  linmin: -1.736e-05  t[s]:   6840.31
	Linear fluid (dielectric constant: 78.4, screening length: 8.12261 Bohr) occupying 0.370918 of unit cell:	Completed after 10 iterations at t[s]:   6877.15
	Linear fluid (dielectric constant: 78.4, screening length: 8.12261 Bohr) occupying 0.370919 of unit cell:	Completed after 0 iterations at t[s]:   6904.82
	FillingsUpdate:  mu: -0.134500000  nElectrons: 361.074134  magneticMoment: [ Abs: 0.00000  Tot: -0.00000 ]
	SubspaceRotationAdjust: set factor to 0.136
ElecMinimize: Iter:  59  G: -2756.113350960906246  |grad|_K:  4.452e-08  alpha:  2.418e-01  linmin:  4.895e-05  t[s]:   6950.75
	Linear fluid (dielectric constant: 78.4, screening length: 8.12261 Bohr) occupying 0.370915 of unit cell:	Completed after 10 iterations at t[s]:   6987.36
	Linear fluid (dielectric constant: 78.4, screening length: 8.12261 Bohr) occupying 0.370916 of unit cell:	Completed after 2 iterations at t[s]:   7015.40
	FillingsUpdate:  mu: -0.134500000  nElectrons: 361.073947  magneticMoment: [ Abs: 0.00000  Tot: -0.00000 ]
	SubspaceRotationAdjust: set factor to 0.112
ElecMinimize: Iter:  60  G: -2756.113351040632097  |grad|_K:  3.971e-08  alpha:  1.851e-01  linmin:  3.692e-05  t[s]:   7061.60
	Linear fluid (dielectric constant: 78.4, screening length: 8.12261 Bohr) occupying 0.370917 of unit cell:	Completed after 8 iterations at t[s]:   7097.90
	Linear fluid (dielectric constant: 78.4, screening length: 8.12261 Bohr) occupying 0.370917 of unit cell:	Completed after 0 iterations at t[s]:   7125.45
	FillingsUpdate:  mu: -0.134500000  nElectrons: 361.074088  magneticMoment: [ Abs: 0.00001  Tot: +0.00000 ]
	SubspaceRotationAdjust: set factor to 0.109
ElecMinimize: Iter:  61  G: -2756.113351106329446  |grad|_K:  3.013e-08  alpha:  1.889e-01  linmin: -1.096e-04  t[s]:   7171.19
ElecMinimize: Converged (|Delta G|<1.000000e-07 for 2 iters).
Setting wave functions to eigenvectors of Hamiltonian
Converging empty states (this may take a while): |deigs|: 2.299e-03

Computing DFT-D3 correction:
# coordination-number Ag 5.460 6.726 8.381 5.461 8.949 9.043 9.058 9.100 9.095 9.105 9.103 9.107 9.099 9.105 9.064 9.049 8.956 8.385 6.731
# diagonal-C6 Ag 268.61 268.61 268.61 268.61 268.61 268.61 268.61 268.61 268.61 268.61 268.61 268.61 268.61 268.61 268.61 268.61 268.61 268.61 268.61
EvdW_6 =   -0.129451
EvdW_8 =   -0.171177

# Ionic positions in cartesian coordinates:
ion Ag   0.004169088608456   7.513979840975280  65.967474868653895 1
ion Ag   2.713519482672154   3.071229486441860  64.408022768226019 1
ion Ag   2.714718089917329  10.642755923303767  62.565095500183851 1
ion Ag   2.708871166656018  11.761266911061858  34.275868182728537 1
ion Ag   0.001630240010746   6.209684720392040  60.769640281323916 1
ion Ag   2.710016234724312   1.853225654182328  58.974715211063156 1
ion Ag   2.710877297385987   9.305199257184901  57.212125720353242 1
ion Ag   0.000511237472061   4.961231024903516  55.445623010339595 1
ion Ag   2.713052030061000   0.607014706932617  53.660669321215181 1
ion Ag   2.711418471358933   8.073384019427754  51.890254078766510 1
ion Ag   0.001191884990287   3.729757454749080  50.119504187614176 1
ion Ag  -0.003257882423954  11.200277273963504  48.348871187388731 1
ion Ag   2.708230959275951   6.853430750685848  46.578966322712638 1
ion Ag  -0.001106918400435   2.500263269991237  44.794368445144869 1
ion Ag  -0.002456191159776   9.969942681549250  43.028983746949244 1
ion Ag   2.711828424860575   5.609165123326306  41.266581549078658 1
ion Ag  -0.004479410643551   1.251573946160654  39.473333153259290 1
ion Ag  -0.001882277258458   8.633107885944439  37.677698323768062 1
ion Ag   2.705398071892361   4.389376068823778  35.837807141230343 1

# Forces in Cartesian coordinates:
force Ag   0.000009847788667  -0.000234009935457   0.000052436664690 1
force Ag  -0.000009695234291  -0.000135271062754   0.000667022945878 1
force Ag   0.000015025451663   0.000501140354637   0.000679286617367 1
force Ag  -0.000000928008370   0.000260531065188  -0.000040957746878 1
force Ag   0.000019381567181  -0.000007752597679  -0.001376681694156 1
force Ag   0.000035867250221   0.000094608971881  -0.000055305701430 1
force Ag   0.000008829109131  -0.000040650248731   0.000444594674637 1
force Ag  -0.000027438965730   0.000111384404150  -0.000295386732057 1
force Ag   0.000034782462904   0.000061679376729  -0.000222825541564 1
force Ag   0.000009338111787   0.000058089197983   0.000310084413490 1
force Ag   0.000000685496195   0.000006710310678   0.000004598555598 1
force Ag   0.000000368822779  -0.000059611916751  -0.000318752357174 1
force Ag  -0.000030908364031  -0.000053179830820   0.000217640553233 1
force Ag   0.000030210064650  -0.000109426298831   0.000278333078407 1
force Ag  -0.000002963083148   0.000045211806712  -0.000456511672407 1
force Ag  -0.000030470257951  -0.000087701197208   0.000050210312293 1
force Ag  -0.000010129580428   0.000006356201615   0.001366192213653 1
force Ag  -0.000005835105666  -0.000473628595654  -0.000708700903271 1
force Ag   0.000011445530854   0.000153095836565  -0.000692409535843 1

# Energy components:
   A_diel =       -0.0245516353397740
   Eewald =    15539.7214575103262177
       EH =    18118.4828435626805003
     Eloc =   -36903.3415622834800160
      Enl =       74.9299209940797510
     EvdW =       -0.3006281503897577
      Exc =     -275.3904071671214524
 Exc_core =        3.9552380150622186
       KE =      637.2964597508598672
  MuShift =       -0.0062012734772696
-------------------------------------
     Etot =    -2804.6774306768011229
       TS =        0.0003852653980047
-------------------------------------
        F =    -2804.6778159421992314
      muN =      -48.5644648358697140
-------------------------------------
        G =    -2756.1133511063294463


Dumping 'jdft.fillings' ... done
Dumping 'jdft.wfns' ... done
Dumping 'jdft.fluidState' ... done
Dumping 'jdft.ionpos' ... done
Dumping 'jdft.lattice' ... done
Dumping 'jdft.eigenvals' ... done
Dumping 'jdft.eigStats' ... 
	eMin: -3.518809 at state 28 ( [ +0.000000 +0.000000 +0.000000 ] spin -1 )
	HOMO: -0.134787 at state 40 ( [ +0.181818 -0.200000 +0.000000 ] spin -1 )
	mu  : -0.134500
	LUMO: -0.134397 at state 11 ( [ +0.181818 -0.400000 +0.000000 ] spin 1 )
	eMax: +0.212362 at state 35 ( [ +0.090909 -0.200000 +0.000000 ] spin -1 )
	HOMO-LUMO gap: +0.000390
	Optical gap  : +0.003538 at state 40 ( [ +0.181818 -0.200000 +0.000000 ] spin -1 )
Dumping 'jdft.Ecomponents' ... done
IonicMinimize: Iter:   0  G: -2756.113351106329446  |grad|_K:  3.561e-04  t[s]:   7417.12

#--- Lowdin population analysis ---
# oxidation-state Ag +0.073 +0.005 -0.073 +0.073 -0.008 +0.000 +0.003 +0.004 +0.003 +0.001 +0.005 +0.001 +0.003 +0.004 +0.003 +0.000 -0.008 -0.073 +0.005
# magnetic-moments Ag -0.000 -0.000 -0.000 -0.000 -0.000 +0.000 +0.000 +0.000 +0.000 +0.000 +0.000 +0.000 +0.000 +0.000 +0.000 +0.000 -0.000 -0.000 -0.000


Computing DFT-D3 correction:
# coordination-number Ag 5.460 6.724 8.379 5.461 8.948 9.043 9.058 9.101 9.095 9.105 9.103 9.107 9.099 9.106 9.065 9.049 8.955 8.383 6.730
# diagonal-C6 Ag 268.61 268.61 268.61 268.61 268.61 268.61 268.61 268.61 268.61 268.61 268.61 268.61 268.61 268.61 268.61 268.61 268.61 268.61 268.61
EvdW_6 =   -0.129451
EvdW_8 =   -0.171177
Shifting auxilliary hamiltonian by -0.000039 to set nElectrons=361.074088

-------- Electronic minimization -----------
	Linear fluid (dielectric constant: 78.4, screening length: 8.12261 Bohr) occupying 0.370937 of unit cell:	Completed after 13 iterations at t[s]:   7457.77
	FillingsUpdate:  mu: -0.134500000  nElectrons: 361.074088  magneticMoment: [ Abs: 0.00003  Tot: -0.00001 ]
ElecMinimize: Iter:   0  G: -2756.113357184649885  |grad|_K:  2.212e-07  alpha:  1.000e+00
	Linear fluid (dielectric constant: 78.4, screening length: 8.12261 Bohr) occupying 0.371041 of unit cell:	Completed after 15 iterations at t[s]:   7545.37
	Linear fluid (dielectric constant: 78.4, screening length: 8.12261 Bohr) occupying 0.370946 of unit cell:	Completed after 15 iterations at t[s]:   7575.18
	FillingsUpdate:  mu: -0.134500000  nElectrons: 361.075263  magneticMoment: [ Abs: 0.00002  Tot: -0.00001 ]
	SubspaceRotationAdjust: set factor to 0.0638
ElecMinimize: Iter:   1  G: -2756.113358220378814  |grad|_K:  5.050e-08  alpha:  9.528e-02  linmin:  3.935e-04  t[s]:   7621.01
	Linear fluid (dielectric constant: 78.4, screening length: 8.12261 Bohr) occupying 0.370946 of unit cell:	Completed after 4 iterations at t[s]:   7656.75
ElecMinimize: 	Predicted alpha/alphaT>3.000000, increasing alphaT to 2.858263e-01.
	Linear fluid (dielectric constant: 78.4, screening length: 8.12261 Bohr) occupying 0.370945 of unit cell:	Completed after 9 iterations at t[s]:   7686.30
	Linear fluid (dielectric constant: 78.4, screening length: 8.12261 Bohr) occupying 0.370944 of unit cell:	Completed after 7 iterations at t[s]:   7715.03
	FillingsUpdate:  mu: -0.134500000  nElectrons: 361.074692  magneticMoment: [ Abs: 0.00001  Tot: -0.00001 ]
	SubspaceRotationAdjust: set factor to 0.0878
ElecMinimize: Iter:   2  G: -2756.113358459415394  |grad|_K:  2.637e-08  alpha:  4.214e-01  linmin: -3.035e-05  t[s]:   7761.19
	Linear fluid (dielectric constant: 78.4, screening length: 8.12261 Bohr) occupying 0.370943 of unit cell:	Completed after 6 iterations at t[s]:   7797.57
	Linear fluid (dielectric constant: 78.4, screening length: 8.12261 Bohr) occupying 0.370943 of unit cell:	Completed after 0 iterations at t[s]:   7825.16
	FillingsUpdate:  mu: -0.134500000  nElectrons: 361.074483  magneticMoment: [ Abs: 0.00002  Tot: -0.00001 ]
	SubspaceRotationAdjust: set factor to 0.105
ElecMinimize: Iter:   3  G: -2756.113358527230048  |grad|_K:  1.934e-08  alpha:  4.341e-01  linmin: -3.922e-05  t[s]:   7871.44
	Linear fluid (dielectric constant: 78.4, screening length: 8.12261 Bohr) occupying 0.370944 of unit cell:	Completed after 2 iterations at t[s]:   7906.95
	Linear fluid (dielectric constant: 78.4, screening length: 8.12261 Bohr) occupying 0.370944 of unit cell:	Completed after 1 iterations at t[s]:   7935.26
	FillingsUpdate:  mu: -0.134500000  nElectrons: 361.074376  magneticMoment: [ Abs: 0.00007  Tot: -0.00001 ]
	SubspaceRotationAdjust: set factor to 0.125
ElecMinimize: Iter:   4  G: -2756.113358560084180  |grad|_K:  1.507e-08  alpha:  3.933e-01  linmin:  1.586e-06  t[s]:   7981.20
ElecMinimize: Converged (|Delta G|<1.000000e-07 for 2 iters).
Setting wave functions to eigenvectors of Hamiltonian
Converging empty states (this may take a while): |deigs|: 3.131e-08

Computing DFT-D3 correction:
# coordination-number Ag 5.460 6.724 8.379 5.461 8.948 9.043 9.058 9.101 9.095 9.105 9.103 9.107 9.099 9.106 9.065 9.049 8.955 8.383 6.730
# diagonal-C6 Ag 268.61 268.61 268.61 268.61 268.61 268.61 268.61 268.61 268.61 268.61 268.61 268.61 268.61 268.61 268.61 268.61 268.61 268.61 268.61
EvdW_6 =   -0.129451
EvdW_8 =   -0.171177

# Ionic positions in cartesian coordinates:
ion Ag   0.004175914657312   7.513740695469179  65.967532417521497 1
ion Ag   2.713506765698052   3.071089079808461  64.408694903374808 1
ion Ag   2.714730093629180  10.643251928087759  62.565779899004134 1
ion Ag   2.708867216907838  11.761522306556401  34.275832337184582 1
ion Ag   0.001646599838115   6.209671832223716  60.768268711832683 1
ion Ag   2.710049080234720   1.853315127583564  58.974665017564639 1
ion Ag   2.710883104755307   9.305153471365525  57.212575427230803 1
ion Ag   0.000480776766519   4.961337273737022  55.445332735810460 1
ion Ag   2.713083790784093   0.607071250738701  53.660451607876546 1
ion Ag   2.711424787730908   8.073436973055093  51.890569275382923 1
ion Ag   0.001189548746671   3.729759029489113  50.119513898372695 1
ion Ag  -0.003260535340987  11.200212526476109  48.348557547234485 1
ion Ag   2.708197029172109   6.853372435284382  46.579189075468790 1
ion Ag  -0.001079730075596   2.500148708121761  44.794651890426202 1
ion Ag  -0.002462175982736   9.969982757785317  43.028532347479754 1
ion Ag   2.711794932862812   5.609072286558454  41.266636871593875 1
ion Ag  -0.004492561963790   1.251575166791625  39.474704457675870 1
ion Ag  -0.001891134103936   8.632629121778139  37.676994735067716 1
ion Ag   2.705406495683403   4.389524029089698  35.837119843897419 1

# Forces in Cartesian coordinates:
force Ag   0.000008408923534  -0.000253045097398   0.000151607879711 1
force Ag  -0.000007800158770  -0.000087188487619   0.000694490224031 1
force Ag   0.000014970833205   0.000452013769372   0.000644216577293 1
force Ag   0.000000013448240   0.000289764552189  -0.000055899902386 1
force Ag   0.000020456702178  -0.000006346132196  -0.001137142412855 1
force Ag   0.000035540605694   0.000046963347975   0.000038695109157 1
force Ag   0.000010063184670   0.000052755132408   0.000483665287552 1
force Ag  -0.000021111065834   0.000074473405590  -0.000202723148564 1
force Ag   0.000033076244391   0.000035945739715  -0.000131441182690 1
force Ag   0.000008043300689   0.000080999143317   0.000257256791523 1
force Ag   0.000000898124179   0.000006809857611  -0.000051178626166 1
force Ag   0.000001245008736  -0.000080947636889  -0.000363642554282 1
force Ag  -0.000028860922739  -0.000028180643031   0.000043564072587 1
force Ag   0.000023799641892  -0.000071770305559   0.000132707838629 1
force Ag  -0.000004214520822  -0.000053124431570  -0.000513604680820 1
force Ag  -0.000030413447563  -0.000036946949734  -0.000041162576660 1
force Ag  -0.000011343906376   0.000011014106918   0.001155335391615 1
force Ag  -0.000006408809138  -0.000421194505548  -0.000594805779806 1
force Ag   0.000009858803971   0.000083288640597  -0.000619077991469 1

# Energy components:
   A_diel =       -0.0246505266863827
   Eewald =    15539.5011846382712974
       EH =    18118.2469854130285967
     Eloc =   -36902.8844952434737934
      Enl =       74.9296816511640600
     EvdW =       -0.3006275372880610
      Exc =     -275.3901247284692317
 Exc_core =        3.9552380113177179
       KE =      637.2955567363192131
  MuShift =       -0.0062253401954044
-------------------------------------
     Etot =    -2804.6774769260077846
       TS =        0.0003851427922021
-------------------------------------
        F =    -2804.6778620688000956
      muN =      -48.5645035087160224
-------------------------------------
        G =    -2756.1133585600841798


Dumping 'jdft.fillings' ... done
Dumping 'jdft.wfns' ... done
Dumping 'jdft.fluidState' ... done
Dumping 'jdft.ionpos' ... done
Dumping 'jdft.lattice' ... done
Dumping 'jdft.eigenvals' ... done
Dumping 'jdft.eigStats' ... 
	eMin: -3.518860 at state 0 ( [ +0.000000 +0.000000 +0.000000 ] spin 1 )
	HOMO: -0.134816 at state 12 ( [ +0.181818 -0.200000 +0.000000 ] spin 1 )
	mu  : -0.134500
	LUMO: -0.134421 at state 39 ( [ +0.181818 -0.400000 +0.000000 ] spin -1 )
	eMax: +0.212338 at state 35 ( [ +0.090909 -0.200000 +0.000000 ] spin -1 )
	HOMO-LUMO gap: +0.000395
	Optical gap  : +0.003519 at state 40 ( [ +0.181818 -0.200000 +0.000000 ] spin -1 )
Dumping 'jdft.Ecomponents' ... done
IonicMinimize: Iter:   1  G: -2756.113358560084180  |grad|_K:  3.149e-04  alpha:  1.000e+00  linmin: -9.861e-01  t[s]:   8088.40

#--- Lowdin population analysis ---
# oxidation-state Ag +0.073 +0.005 -0.073 +0.073 -0.008 +0.000 +0.003 +0.003 +0.002 +0.001 +0.005 +0.001 +0.002 +0.003 +0.003 +0.000 -0.008 -0.073 +0.005
# magnetic-moments Ag -0.000 -0.000 -0.000 -0.000 -0.000 -0.000 -0.000 +0.000 +0.000 +0.000 +0.000 +0.000 +0.000 +0.000 +0.000 +0.000 +0.000 -0.000 -0.000


Computing DFT-D3 correction:
# coordination-number Ag 5.453 6.707 8.362 5.457 8.931 9.040 9.063 9.105 9.087 9.097 9.098 9.101 9.095 9.114 9.075 9.053 8.944 8.370 6.717
# diagonal-C6 Ag 268.61 268.61 268.61 268.61 268.61 268.61 268.61 268.61 268.61 268.61 268.61 268.61 268.61 268.61 268.61 268.61 268.61 268.61 268.61
EvdW_6 =   -0.129435
EvdW_8 =   -0.171147
Shifting auxilliary hamiltonian by -0.000014 to set nElectrons=361.074376

-------- Electronic minimization -----------
	Linear fluid (dielectric constant: 78.4, screening length: 8.12261 Bohr) occupying 0.370840 of unit cell:	Completed after 17 iterations at t[s]:   8129.88
	FillingsUpdate:  mu: -0.134500000  nElectrons: 361.074376  magneticMoment: [ Abs: 0.02988  Tot: -0.00001 ]
ElecMinimize: Iter:   0  G: -2756.113240218168357  |grad|_K:  1.508e-06  alpha:  1.000e+00
	Linear fluid (dielectric constant: 78.4, screening length: 8.12261 Bohr) occupying 0.370647 of unit cell:	Completed after 21 iterations at t[s]:   8218.28
	Linear fluid (dielectric constant: 78.4, screening length: 8.12261 Bohr) occupying 0.370787 of unit cell:	Completed after 22 iterations at t[s]:   8249.06
	FillingsUpdate:  mu: -0.134500000  nElectrons: 361.066467  magneticMoment: [ Abs: 0.02229  Tot: -0.00000 ]
	SubspaceRotationAdjust: set factor to 0.0824
ElecMinimize: Iter:   1  G: -2756.113326706466523  |grad|_K:  1.170e-06  alpha:  1.682e-01  linmin: -8.483e-04  t[s]:   8295.08
	Linear fluid (dielectric constant: 78.4, screening length: 8.12261 Bohr) occupying 0.370834 of unit cell:	Completed after 14 iterations at t[s]:   8332.07
	Linear fluid (dielectric constant: 78.4, screening length: 8.12261 Bohr) occupying 0.370837 of unit cell:	Completed after 10 iterations at t[s]:   8361.49
	FillingsUpdate:  mu: -0.134500000  nElectrons: 361.074022  magneticMoment: [ Abs: 0.01274  Tot: +0.00000 ]
	SubspaceRotationAdjust: set factor to 0.0568
ElecMinimize: Iter:   2  G: -2756.113381466769624  |grad|_K:  4.166e-07  alpha:  1.771e-01  linmin: -1.193e-04  t[s]:   8407.20
	Linear fluid (dielectric constant: 78.4, screening length: 8.12261 Bohr) occupying 0.370839 of unit cell:	Completed after 9 iterations at t[s]:   8443.66
	Linear fluid (dielectric constant: 78.4, screening length: 8.12261 Bohr) occupying 0.370841 of unit cell:	Completed after 7 iterations at t[s]:   8472.17
	FillingsUpdate:  mu: -0.134500000  nElectrons: 361.074540  magneticMoment: [ Abs: 0.00527  Tot: +0.00001 ]
	SubspaceRotationAdjust: set factor to 0.0725
ElecMinimize: Iter:   3  G: -2756.113394283274374  |grad|_K:  1.991e-07  alpha:  3.299e-01  linmin: -5.140e-06  t[s]:   8518.22
	Linear fluid (dielectric constant: 78.4, screening length: 8.12261 Bohr) occupying 0.370837 of unit cell:	Completed after 11 iterations at t[s]:   8555.26
	Linear fluid (dielectric constant: 78.4, screening length: 8.12261 Bohr) occupying 0.370836 of unit cell:	Completed after 10 iterations at t[s]:   8584.54
	FillingsUpdate:  mu: -0.134500000  nElectrons: 361.073700  magneticMoment: [ Abs: 0.00250  Tot: +0.00002 ]
	SubspaceRotationAdjust: set factor to 0.0738
ElecMinimize: Iter:   4  G: -2756.113398024903745  |grad|_K:  1.473e-07  alpha:  4.228e-01  linmin:  1.204e-04  t[s]:   8630.30
	Linear fluid (dielectric constant: 78.4, screening length: 8.12261 Bohr) occupying 0.370845 of unit cell:	Completed after 11 iterations at t[s]:   8666.89
	Linear fluid (dielectric constant: 78.4, screening length: 8.12261 Bohr) occupying 0.370844 of unit cell:	Completed after 7 iterations at t[s]:   8695.53
	FillingsUpdate:  mu: -0.134500000  nElectrons: 361.074822  magneticMoment: [ Abs: 0.00134  Tot: +0.00002 ]
	SubspaceRotationAdjust: set factor to 0.0652
ElecMinimize: Iter:   5  G: -2756.113399861817015  |grad|_K:  1.436e-07  alpha:  3.797e-01  linmin:  6.868e-05  t[s]:   8741.48
	Linear fluid (dielectric constant: 78.4, screening length: 8.12261 Bohr) occupying 0.370839 of unit cell:	Completed after 11 iterations at t[s]:   8778.34
	Linear fluid (dielectric constant: 78.4, screening length: 8.12261 Bohr) occupying 0.370838 of unit cell:	Completed after 5 iterations at t[s]:   8806.90
	FillingsUpdate:  mu: -0.134500000  nElectrons: 361.074001  magneticMoment: [ Abs: 0.00124  Tot: +0.00003 ]
	SubspaceRotationAdjust: set factor to 0.0657
ElecMinimize: Iter:   6  G: -2756.113401738614357  |grad|_K:  1.190e-07  alpha:  4.081e-01  linmin: -1.170e-04  t[s]:   8852.49
	Linear fluid (dielectric constant: 78.4, screening length: 8.12261 Bohr) occupying 0.370839 of unit cell:	Completed after 7 iterations at t[s]:   8888.70
	Linear fluid (dielectric constant: 78.4, screening length: 8.12261 Bohr) occupying 0.370839 of unit cell:	Completed after 6 iterations at t[s]:   8917.68
	FillingsUpdate:  mu: -0.134500000  nElectrons: 361.074422  magneticMoment: [ Abs: 0.00173  Tot: +0.00003 ]
	SubspaceRotationAdjust: set factor to 0.0765
ElecMinimize: Iter:   7  G: -2756.113403701420793  |grad|_K:  1.307e-07  alpha:  6.132e-01  linmin: -5.804e-05  t[s]:   8963.40
	Linear fluid (dielectric constant: 78.4, screening length: 8.12261 Bohr) occupying 0.370839 of unit cell:	Completed after 11 iterations at t[s]:   9000.21
	Linear fluid (dielectric constant: 78.4, screening length: 8.12261 Bohr) occupying 0.370839 of unit cell:	Completed after 0 iterations at t[s]:   9027.62
	FillingsUpdate:  mu: -0.134500000  nElectrons: 361.075128  magneticMoment: [ Abs: 0.00134  Tot: +0.00004 ]
	SubspaceRotationAdjust: set factor to 0.0824
ElecMinimize: Iter:   8  G: -2756.113406105522699  |grad|_K:  1.414e-07  alpha:  6.246e-01  linmin: -1.599e-05  t[s]:   9073.38
	Linear fluid (dielectric constant: 78.4, screening length: 8.12261 Bohr) occupying 0.370822 of unit cell:	Completed after 12 iterations at t[s]:   9110.51
	Linear fluid (dielectric constant: 78.4, screening length: 8.12261 Bohr) occupying 0.370827 of unit cell:	Completed after 10 iterations at t[s]:   9139.65
	FillingsUpdate:  mu: -0.134500000  nElectrons: 361.074126  magneticMoment: [ Abs: 0.00097  Tot: +0.00004 ]
	SubspaceRotationAdjust: set factor to 0.0672
ElecMinimize: Iter:   9  G: -2756.113408114263166  |grad|_K:  1.572e-07  alpha:  4.478e-01  linmin:  1.025e-05  t[s]:   9185.61
	Linear fluid (dielectric constant: 78.4, screening length: 8.12261 Bohr) occupying 0.370831 of unit cell:	Completed after 11 iterations at t[s]:   9222.39
	Linear fluid (dielectric constant: 78.4, screening length: 8.12261 Bohr) occupying 0.370830 of unit cell:	Completed after 11 iterations at t[s]:   9251.42
	FillingsUpdate:  mu: -0.134500000  nElectrons: 361.075170  magneticMoment: [ Abs: 0.00068  Tot: +0.00004 ]
	SubspaceRotationAdjust: set factor to 0.0516
ElecMinimize: Iter:  10  G: -2756.113409892290747  |grad|_K:  1.217e-07  alpha:  3.225e-01  linmin:  3.358e-06  t[s]:   9297.32
	Linear fluid (dielectric constant: 78.4, screening length: 8.12261 Bohr) occupying 0.370827 of unit cell:	Completed after 9 iterations at t[s]:   9333.72
	Linear fluid (dielectric constant: 78.4, screening length: 8.12261 Bohr) occupying 0.370826 of unit cell:	Completed after 2 iterations at t[s]:   9361.74
	FillingsUpdate:  mu: -0.134500000  nElectrons: 361.075108  magneticMoment: [ Abs: 0.00063  Tot: +0.00004 ]
	SubspaceRotationAdjust: set factor to 0.0573
ElecMinimize: Iter:  11  G: -2756.113411293975787  |grad|_K:  8.855e-08  alpha:  4.236e-01  linmin: -7.306e-07  t[s]:   9407.67
	Linear fluid (dielectric constant: 78.4, screening length: 8.12261 Bohr) occupying 0.370823 of unit cell:	Completed after 10 iterations at t[s]:   9444.06
	Linear fluid (dielectric constant: 78.4, screening length: 8.12261 Bohr) occupying 0.370824 of unit cell:	Completed after 2 iterations at t[s]:   9471.96
	FillingsUpdate:  mu: -0.134500000  nElectrons: 361.074858  magneticMoment: [ Abs: 0.00040  Tot: +0.00004 ]
	SubspaceRotationAdjust: set factor to 0.0513
ElecMinimize: Iter:  12  G: -2756.113411903658289  |grad|_K:  6.302e-08  alpha:  3.494e-01  linmin: -2.742e-04  t[s]:   9518.33
	Linear fluid (dielectric constant: 78.4, screening length: 8.12261 Bohr) occupying 0.370827 of unit cell:	Completed after 10 iterations at t[s]:   9554.81
	Linear fluid (dielectric constant: 78.4, screening length: 8.12261 Bohr) occupying 0.370826 of unit cell:	Completed after 5 iterations at t[s]:   9583.28
	FillingsUpdate:  mu: -0.134500000  nElectrons: 361.075256  magneticMoment: [ Abs: 0.00034  Tot: +0.00003 ]
	SubspaceRotationAdjust: set factor to 0.0405
ElecMinimize: Iter:  13  G: -2756.113412152087676  |grad|_K:  4.641e-08  alpha:  2.787e-01  linmin: -2.958e-04  t[s]:   9629.29
	Linear fluid (dielectric constant: 78.4, screening length: 8.12261 Bohr) occupying 0.370826 of unit cell:	Completed after 2 iterations at t[s]:   9664.64
	Linear fluid (dielectric constant: 78.4, screening length: 8.12261 Bohr) occupying 0.370826 of unit cell:	Completed after 0 iterations at t[s]:   9692.25
	FillingsUpdate:  mu: -0.134500000  nElectrons: 361.075286  magneticMoment: [ Abs: 0.00025  Tot: +0.00002 ]
	SubspaceRotationAdjust: set factor to 0.0528
ElecMinimize: Iter:  14  G: -2756.113412301718654  |grad|_K:  2.957e-08  alpha:  3.031e-01  linmin: -3.754e-04  t[s]:   9738.36
	Linear fluid (dielectric constant: 78.4, screening length: 8.12261 Bohr) occupying 0.370825 of unit cell:	Completed after 9 iterations at t[s]:   9774.69
	Linear fluid (dielectric constant: 78.4, screening length: 8.12261 Bohr) occupying 0.370825 of unit cell:	Completed after 0 iterations at t[s]:   9802.26
	FillingsUpdate:  mu: -0.134500000  nElectrons: 361.075149  magneticMoment: [ Abs: 0.00023  Tot: +0.00002 ]
	SubspaceRotationAdjust: set factor to 0.0454
ElecMinimize: Iter:  15  G: -2756.113412360591155  |grad|_K:  2.170e-08  alpha:  2.955e-01  linmin: -6.594e-04  t[s]:   9848.18
	Linear fluid (dielectric constant: 78.4, screening length: 8.12261 Bohr) occupying 0.370826 of unit cell:	Completed after 2 iterations at t[s]:   9883.51
	Linear fluid (dielectric constant: 78.4, screening length: 8.12261 Bohr) occupying 0.370826 of unit cell:	Completed after 0 iterations at t[s]:   9911.15
	FillingsUpdate:  mu: -0.134500000  nElectrons: 361.075200  magneticMoment: [ Abs: 0.00022  Tot: +0.00002 ]
	SubspaceRotationAdjust: set factor to 0.0591
ElecMinimize: Iter:  16  G: -2756.113412393402541  |grad|_K:  1.672e-08  alpha:  3.034e-01  linmin: -6.176e-04  t[s]:   9957.02
ElecMinimize: Converged (|Delta G|<1.000000e-07 for 2 iters).
Setting wave functions to eigenvectors of Hamiltonian
Converging empty states (this may take a while): |deigs|: 4.210e-08

Computing DFT-D3 correction:
# coordination-number Ag 5.453 6.707 8.362 5.457 8.931 9.040 9.063 9.105 9.087 9.097 9.098 9.101 9.095 9.114 9.075 9.053 8.944 8.370 6.717
# diagonal-C6 Ag 268.61 268.61 268.61 268.61 268.61 268.61 268.61 268.61 268.61 268.61 268.61 268.61 268.61 268.61 268.61 268.61 268.61 268.61 268.61
EvdW_6 =   -0.129435
EvdW_8 =   -0.171147

# Ionic positions in cartesian coordinates:
ion Ag   0.004239318683904   7.509738676666236  65.971022223954776 1
ion Ag   2.713372566456383   3.070312698035928  64.419278053839548 1
ion Ag   2.714906000952623  10.649211756485508  62.574883615033450 1
ion Ag   2.708836043128117  11.766039102350334  34.274928074147411 1
ion Ag   0.001916234851557   6.209523703436788  60.754564670646054 1
ion Ag   2.710522824119376   1.853364013096415  58.976440688658464 1
ion Ag   2.711002504117769   9.306964296391151  57.220210791480717 1
ion Ag   0.000204459907628   4.961916452476512  55.443558969335001 1
ion Ag   2.713505061020603   0.607219420742128  53.659705954859483 1
ion Ag   2.711484553165182   8.074822967467302  51.893798077550152 1
ion Ag   0.001162657455675   3.729787919458021  50.118193189603126 1
ion Ag  -0.003274459389899  11.198702070854720  48.342792887412884 1
ion Ag   2.707756384112620   6.853185253337037  46.577848437298705 1
ion Ag  -0.000850172920744   2.499474018462046  44.794954311586345 1
ion Ag  -0.002581307382521   9.967963963685872  43.020427657648604 1
ion Ag   2.711307894546312   5.609063036527709  41.265039512603124 1
ion Ag  -0.004715601897305   1.251719793765831  39.489199010803894 1
ion Ag  -0.002034323775212   8.627015776434941  37.669734674128321 1
ion Ag   2.705489362847927   4.389841080325541  35.829022199409842 1

# Forces in Cartesian coordinates:
force Ag   0.000007846586179  -0.000181947671950  -0.000024835011990 1
force Ag  -0.000003083311765   0.000063888364982   0.000608612632108 1
force Ag   0.000014078784612   0.000133362632879   0.000631832336113 1
force Ag  -0.000002122760007   0.000192731452491  -0.000065614359390 1
force Ag   0.000018088730193   0.000040825029836  -0.000242936940165 1
force Ag   0.000025665624475   0.000031581406581   0.000057856666541 1
force Ag   0.000011887062034   0.000140977787801   0.000095546244272 1
force Ag  -0.000008461407017   0.000061590371440  -0.000228659991273 1
force Ag   0.000022297542963   0.000028991037107  -0.000072452501008 1
force Ag   0.000008747998313   0.000065140161220   0.000151892793078 1
force Ag   0.000002016819826  -0.000001703499691   0.000036610738379 1
force Ag  -0.000000535185408  -0.000062414273612  -0.000086829527161 1
force Ag  -0.000017127612111  -0.000029525567462   0.000136315083639 1
force Ag   0.000012118167909  -0.000061437181861   0.000267958734131 1
force Ag  -0.000006407844906  -0.000125854670508  -0.000075834809190 1
force Ag  -0.000021346821494  -0.000033040461131  -0.000050936157848 1
force Ag  -0.000008870497755  -0.000032262042874   0.000254303537982 1
force Ag  -0.000006013010745  -0.000123513318566  -0.000686558752364 1
force Ag   0.000004817324898  -0.000022417289557  -0.000660255275771 1

# Energy components:
   A_diel =       -0.0249181956574041
   Eewald =    15531.8464439731124003
       EH =    18110.5620096279744757
     Eloc =   -36887.5442598095833091
      Enl =       74.9302430001754516
     EvdW =       -0.3005817718047097
      Exc =     -275.3891101697117278
 Exc_core =        3.9552380556282944
       KE =      637.2935896937592588
  MuShift =       -0.0062943892194265
-------------------------------------
     Etot =    -2804.6776399853247312
       TS =        0.0003868717761031
-------------------------------------
        F =    -2804.6780268571010311
      muN =      -48.5646144636987174
-------------------------------------
        G =    -2756.1134123934025411


Dumping 'jdft.fillings' ... done
Dumping 'jdft.wfns' ... done
Dumping 'jdft.fluidState' ... done
Dumping 'jdft.ionpos' ... done
Dumping 'jdft.lattice' ... done
Dumping 'jdft.eigenvals' ... done
Dumping 'jdft.eigStats' ... 
	eMin: -3.518914 at state 0 ( [ +0.000000 +0.000000 +0.000000 ] spin 1 )
	HOMO: -0.134821 at state 12 ( [ +0.181818 -0.200000 +0.000000 ] spin 1 )
	mu  : -0.134500
	LUMO: -0.134465 at state 39 ( [ +0.181818 -0.400000 +0.000000 ] spin -1 )
	eMax: +0.212278 at state 7 ( [ +0.090909 -0.200000 +0.000000 ] spin 1 )
	HOMO-LUMO gap: +0.000356
	Optical gap  : +0.003503 at state 40 ( [ +0.181818 -0.200000 +0.000000 ] spin -1 )
Dumping 'jdft.Ecomponents' ... done
IonicMinimize: Iter:   2  G: -2756.113412393402541  |grad|_K:  1.953e-04  alpha:  1.000e+00  linmin: -7.676e-01  t[s]:  10064.38
IonicMinimize: Converged (|Delta G|<1.000000e-04 for 2 iters).

#--- Lowdin population analysis ---
# oxidation-state Ag +0.072 +0.005 -0.073 +0.072 -0.007 +0.000 +0.003 +0.003 +0.002 +0.001 +0.005 +0.001 +0.002 +0.004 +0.003 +0.000 -0.007 -0.073 +0.005
# magnetic-moments Ag +0.000 +0.000 +0.000 +0.000 -0.000 -0.000 -0.000 -0.000 -0.000 -0.000 -0.000 -0.000 -0.000 -0.000 -0.000 -0.000 -0.000 +0.000 +0.000


Dumping 'jdft.n_up' ... done
Dumping 'jdft.n_dn' ... done
Dumping 'jdft.tau_up' ... done
Dumping 'jdft.tau_dn' ... done
Dumping 'jdft.eigenvals' ... done
Dumping 'jdft.eigStats' ... 
	eMin: -3.518914 at state 0 ( [ +0.000000 +0.000000 +0.000000 ] spin 1 )
	HOMO: -0.134821 at state 12 ( [ +0.181818 -0.200000 +0.000000 ] spin 1 )
	mu  : -0.134500
	LUMO: -0.134465 at state 39 ( [ +0.181818 -0.400000 +0.000000 ] spin -1 )
	eMax: +0.212278 at state 7 ( [ +0.090909 -0.200000 +0.000000 ] spin 1 )
	HOMO-LUMO gap: +0.000356
	Optical gap  : +0.003503 at state 40 ( [ +0.181818 -0.200000 +0.000000 ] spin -1 )
Dumping 'jdft.kPts' ... done
Dumping 'jdft.kMap' ... done
Dumping 'jdft.dosUp' ... done.
Dumping 'jdft.dosDn' ... done.
End date and time: Mon Sep 12 16:55:09 2022  (Duration: 0-2:48:54.51)
Done!

PROFILER:             augmentDensityGrid     5.786851 +/-     0.092086 s,  171 calls,    989.551522 s total
PROFILER:         augmentDensityGridGrad     0.273877 +/-     0.067761 s,   88 calls,     24.101142 s total
PROFILER:        augmentDensitySpherical     0.002351 +/-     0.000117 s,  342 calls,      0.803971 s total
PROFILER:    augmentDensitySphericalGrad     0.003091 +/-     0.000688 s,  197 calls,      0.608872 s total
PROFILER:                 augmentOverlap     1.724990 +/-     0.151022 s,  716 calls,   1235.092635 s total
PROFILER:                     diagouterI     5.166557 +/-     0.072195 s,  348 calls,   1797.961840 s total
PROFILER:              EdensityAndVscloc     3.315590 +/-     1.121437 s,  171 calls,    566.965936 s total
PROFILER:                     EnlAndGrad     0.009683 +/-     0.001534 s,  369 calls,      3.572874 s total
PROFILER:            ExCorrCommunication     0.025536 +/-     0.125191 s, 1061 calls,     27.093551 s total
PROFILER:               ExCorrFunctional     0.005125 +/-     0.000781 s,  181 calls,      0.927672 s total
PROFILER:                    ExCorrTotal     0.214231 +/-     0.283594 s,  181 calls,     38.775724 s total
PROFILER:                   Idag_DiagV_I     9.930972 +/-     1.883128 s,  191 calls,   1896.815639 s total
PROFILER:                    initWeights     1.855355 +/-     0.000000 s,    1 calls,      1.855355 s total
PROFILER:                    inv(matrix)     0.006689 +/-     0.000401 s,  338 calls,      2.260876 s total
PROFILER:            matrix::diagonalize     0.019940 +/-     0.009665 s,  533 calls,     10.627886 s total
PROFILER:                    matrix::set     0.000011 +/-     0.000017 s, 10898 calls,      0.114491 s total
PROFILER:            orthoMatrix(matrix)     0.003463 +/-     0.001945 s,  355 calls,      1.229382 s total
PROFILER:     RadialFunctionR::transform     0.063970 +/-     0.463557 s,   57 calls,      3.646307 s total
PROFILER:                    reduceKmesh     0.001041 +/-     0.000000 s,    1 calls,      0.001041 s total
PROFILER:   VanDerWaalsD3::energyAndGrad     0.012488 +/-     0.003027 s,    7 calls,      0.087417 s total
PROFILER:               WavefunctionDrag    16.285672 +/-     4.289101 s,    3 calls,     48.857016 s total
PROFILER:                            Y*M     0.595236 +/-     0.147256 s, 2330 calls,   1386.900077 s total
PROFILER:                          Y1^Y2     0.611276 +/-     0.168123 s, 1496 calls,    914.469265 s total

MEMUSAGE:                   ColumnBundle     0.628580 GB
MEMUSAGE:        complexScalarFieldTilde     0.010815 GB
MEMUSAGE:                    IndexArrays     0.015255 GB
MEMUSAGE:                         matrix     0.035496 GB
MEMUSAGE:                           misc     0.010882 GB
MEMUSAGE:                    ScalarField     0.078406 GB
MEMUSAGE:               ScalarFieldTilde     0.057183 GB
MEMUSAGE:                          Total     0.719275 GB
