
*************** JDFTx 1.6.0  ***************

Start date and time: Mon Dec  6 16:11:26 2021
Executable /projects/musgravc/apps/jdftx-1.6.1/build/jdftx with command-line: -i in
Running on hosts (process indices):  shas0415.rc.int.colorado.edu (0-23)
Divided in process groups (process indices):  0 (0)  1 (1)  2 (2)  3 (3)  4 (4)  5 (5)  6 (6)  7 (7)  8 (8)  9 (9)  10 (10)  11 (11)  12 (12)  13 (13)  14 (14)  15 (15)  16 (16)  17 (17)  18 (18)  19 (19)  20 (20)  21 (21)  22 (22)  23 (23)
Resource initialization completed at t[s]:      0.00
Run totals: 24 processes, 24 threads, 0 GPUs


Input parsed successfully to the following command list (including defaults):

basis kpoint-dependent
converge-empty-states yes
coords-type Cartesian
core-overlap-check none
coulomb-interaction Periodic
davidson-band-ratio 1.1
density-of-states Etol 1.000000e-06 Esigma 1.000000e-03 \
		Complete \
	Total \
	OrthoOrbital Pt 1   s \
	OrthoOrbital Pt 1   p \
	OrthoOrbital Pt 1   px \
	OrthoOrbital Pt 1   py \
	OrthoOrbital Pt 1   pz \
	OrthoOrbital Pt 1   d \
	OrthoOrbital Pt 1   dxy \
	OrthoOrbital Pt 1   dyz \
	OrthoOrbital Pt 1   dz2 \
	OrthoOrbital Pt 1   dxz \
	OrthoOrbital Pt 1   dx2-y2 \
	OrthoOrbital Pt 2   s \
	OrthoOrbital Pt 2   p \
	OrthoOrbital Pt 2   px \
	OrthoOrbital Pt 2   py \
	OrthoOrbital Pt 2   pz \
	OrthoOrbital Pt 2   d \
	OrthoOrbital Pt 2   dxy \
	OrthoOrbital Pt 2   dyz \
	OrthoOrbital Pt 2   dz2 \
	OrthoOrbital Pt 2   dxz \
	OrthoOrbital Pt 2   dx2-y2 \
	OrthoOrbital Pt 3   s \
	OrthoOrbital Pt 3   p \
	OrthoOrbital Pt 3   px \
	OrthoOrbital Pt 3   py \
	OrthoOrbital Pt 3   pz \
	OrthoOrbital Pt 3   d \
	OrthoOrbital Pt 3   dxy \
	OrthoOrbital Pt 3   dyz \
	OrthoOrbital Pt 3   dz2 \
	OrthoOrbital Pt 3   dxz \
	OrthoOrbital Pt 3   dx2-y2 \
	OrthoOrbital Pt 4   s \
	OrthoOrbital Pt 4   p \
	OrthoOrbital Pt 4   px \
	OrthoOrbital Pt 4   py \
	OrthoOrbital Pt 4   pz \
	OrthoOrbital Pt 4   d \
	OrthoOrbital Pt 4   dxy \
	OrthoOrbital Pt 4   dyz \
	OrthoOrbital Pt 4   dz2 \
	OrthoOrbital Pt 4   dxz \
	OrthoOrbital Pt 4   dx2-y2 \
	OrthoOrbital Pt 5   s \
	OrthoOrbital Pt 5   p \
	OrthoOrbital Pt 5   px \
	OrthoOrbital Pt 5   py \
	OrthoOrbital Pt 5   pz \
	OrthoOrbital Pt 5   d \
	OrthoOrbital Pt 5   dxy \
	OrthoOrbital Pt 5   dyz \
	OrthoOrbital Pt 5   dz2 \
	OrthoOrbital Pt 5   dxz \
	OrthoOrbital Pt 5   dx2-y2 \
	OrthoOrbital Pt 6   s \
	OrthoOrbital Pt 6   p \
	OrthoOrbital Pt 6   px \
	OrthoOrbital Pt 6   py \
	OrthoOrbital Pt 6   pz \
	OrthoOrbital Pt 6   d \
	OrthoOrbital Pt 6   dxy \
	OrthoOrbital Pt 6   dyz \
	OrthoOrbital Pt 6   dz2 \
	OrthoOrbital Pt 6   dxz \
	OrthoOrbital Pt 6   dx2-y2 \
	OrthoOrbital Pt 7   s \
	OrthoOrbital Pt 7   p \
	OrthoOrbital Pt 7   px \
	OrthoOrbital Pt 7   py \
	OrthoOrbital Pt 7   pz \
	OrthoOrbital Pt 7   d \
	OrthoOrbital Pt 7   dxy \
	OrthoOrbital Pt 7   dyz \
	OrthoOrbital Pt 7   dz2 \
	OrthoOrbital Pt 7   dxz \
	OrthoOrbital Pt 7   dx2-y2 \
	OrthoOrbital Pt 8   s \
	OrthoOrbital Pt 8   p \
	OrthoOrbital Pt 8   px \
	OrthoOrbital Pt 8   py \
	OrthoOrbital Pt 8   pz \
	OrthoOrbital Pt 8   d \
	OrthoOrbital Pt 8   dxy \
	OrthoOrbital Pt 8   dyz \
	OrthoOrbital Pt 8   dz2 \
	OrthoOrbital Pt 8   dxz \
	OrthoOrbital Pt 8   dx2-y2 \
	OrthoOrbital Pt 9   s \
	OrthoOrbital Pt 9   p \
	OrthoOrbital Pt 9   px \
	OrthoOrbital Pt 9   py \
	OrthoOrbital Pt 9   pz \
	OrthoOrbital Pt 9   d \
	OrthoOrbital Pt 9   dxy \
	OrthoOrbital Pt 9   dyz \
	OrthoOrbital Pt 9   dz2 \
	OrthoOrbital Pt 9   dxz \
	OrthoOrbital Pt 9   dx2-y2 \
	OrthoOrbital Pt 10   s \
	OrthoOrbital Pt 10   p \
	OrthoOrbital Pt 10   px \
	OrthoOrbital Pt 10   py \
	OrthoOrbital Pt 10   pz \
	OrthoOrbital Pt 10   d \
	OrthoOrbital Pt 10   dxy \
	OrthoOrbital Pt 10   dyz \
	OrthoOrbital Pt 10   dz2 \
	OrthoOrbital Pt 10   dxz \
	OrthoOrbital Pt 10   dx2-y2 \
	OrthoOrbital Pt 11   s \
	OrthoOrbital Pt 11   p \
	OrthoOrbital Pt 11   px \
	OrthoOrbital Pt 11   py \
	OrthoOrbital Pt 11   pz \
	OrthoOrbital Pt 11   d \
	OrthoOrbital Pt 11   dxy \
	OrthoOrbital Pt 11   dyz \
	OrthoOrbital Pt 11   dz2 \
	OrthoOrbital Pt 11   dxz \
	OrthoOrbital Pt 11   dx2-y2 \
	OrthoOrbital Pt 12   s \
	OrthoOrbital Pt 12   p \
	OrthoOrbital Pt 12   px \
	OrthoOrbital Pt 12   py \
	OrthoOrbital Pt 12   pz \
	OrthoOrbital Pt 12   d \
	OrthoOrbital Pt 12   dxy \
	OrthoOrbital Pt 12   dyz \
	OrthoOrbital Pt 12   dz2 \
	OrthoOrbital Pt 12   dxz \
	OrthoOrbital Pt 12   dx2-y2 \
	OrthoOrbital Pt 13   s \
	OrthoOrbital Pt 13   p \
	OrthoOrbital Pt 13   px \
	OrthoOrbital Pt 13   py \
	OrthoOrbital Pt 13   pz \
	OrthoOrbital Pt 13   d \
	OrthoOrbital Pt 13   dxy \
	OrthoOrbital Pt 13   dyz \
	OrthoOrbital Pt 13   dz2 \
	OrthoOrbital Pt 13   dxz \
	OrthoOrbital Pt 13   dx2-y2 \
	OrthoOrbital Pt 14   s \
	OrthoOrbital Pt 14   p \
	OrthoOrbital Pt 14   px \
	OrthoOrbital Pt 14   py \
	OrthoOrbital Pt 14   pz \
	OrthoOrbital Pt 14   d \
	OrthoOrbital Pt 14   dxy \
	OrthoOrbital Pt 14   dyz \
	OrthoOrbital Pt 14   dz2 \
	OrthoOrbital Pt 14   dxz \
	OrthoOrbital Pt 14   dx2-y2 \
	OrthoOrbital Pt 15   s \
	OrthoOrbital Pt 15   p \
	OrthoOrbital Pt 15   px \
	OrthoOrbital Pt 15   py \
	OrthoOrbital Pt 15   pz \
	OrthoOrbital Pt 15   d \
	OrthoOrbital Pt 15   dxy \
	OrthoOrbital Pt 15   dyz \
	OrthoOrbital Pt 15   dz2 \
	OrthoOrbital Pt 15   dxz \
	OrthoOrbital Pt 15   dx2-y2 \
	OrthoOrbital Pt 16   s \
	OrthoOrbital Pt 16   p \
	OrthoOrbital Pt 16   px \
	OrthoOrbital Pt 16   py \
	OrthoOrbital Pt 16   pz \
	OrthoOrbital Pt 16   d \
	OrthoOrbital Pt 16   dxy \
	OrthoOrbital Pt 16   dyz \
	OrthoOrbital Pt 16   dz2 \
	OrthoOrbital Pt 16   dxz \
	OrthoOrbital Pt 16   dx2-y2 \
	OrthoOrbital Pt 17   s \
	OrthoOrbital Pt 17   p \
	OrthoOrbital Pt 17   px \
	OrthoOrbital Pt 17   py \
	OrthoOrbital Pt 17   pz \
	OrthoOrbital Pt 17   d \
	OrthoOrbital Pt 17   dxy \
	OrthoOrbital Pt 17   dyz \
	OrthoOrbital Pt 17   dz2 \
	OrthoOrbital Pt 17   dxz \
	OrthoOrbital Pt 17   dx2-y2 \
	OrthoOrbital Pt 18   s \
	OrthoOrbital Pt 18   p \
	OrthoOrbital Pt 18   px \
	OrthoOrbital Pt 18   py \
	OrthoOrbital Pt 18   pz \
	OrthoOrbital Pt 18   d \
	OrthoOrbital Pt 18   dxy \
	OrthoOrbital Pt 18   dyz \
	OrthoOrbital Pt 18   dz2 \
	OrthoOrbital Pt 18   dxz \
	OrthoOrbital Pt 18   dx2-y2 \
	OrthoOrbital Pt 19   s \
	OrthoOrbital Pt 19   p \
	OrthoOrbital Pt 19   px \
	OrthoOrbital Pt 19   py \
	OrthoOrbital Pt 19   pz \
	OrthoOrbital Pt 19   d \
	OrthoOrbital Pt 19   dxy \
	OrthoOrbital Pt 19   dyz \
	OrthoOrbital Pt 19   dz2 \
	OrthoOrbital Pt 19   dxz \
	OrthoOrbital Pt 19   dx2-y2
dump End ElecDensity KEdensity BandEigs EigStats RhoAtom DOS Kpoints
dump Ionic State IonicPositions Lattice EigStats Ecomponents
dump 
dump 
dump 
dump 
dump 
dump 
dump 
dump 
dump-name jdft.$VAR
elec-cutoff 20
elec-eigen-algo Davidson
elec-ex-corr gga-PBE
elec-initial-magnetization 0.000000 no
elec-n-bands 183
elec-smearing Fermi 0.001
electronic-minimize  \
	dirUpdateScheme      FletcherReeves \
	linminMethod         DirUpdateRecommended \
	nIterations          100 \
	history              15 \
	knormThreshold       0 \
	energyDiffThreshold  1e-07 \
	nEnergyDiff          2 \
	alphaTstart          1 \
	alphaTmin            1e-10 \
	updateTestStepSize   yes \
	alphaTreduceFactor   0.1 \
	alphaTincreaseFactor 3 \
	nAlphaAdjustMax      3 \
	wolfeEnergy          0.0001 \
	wolfeGradient        0.9 \
	fdTest               no
exchange-regularization WignerSeitzTruncated
fluid None
fluid-ex-corr lda-TF lda-PZ
fluid-gummel-loop 10 1.000000e-05
fluid-minimize  \
	dirUpdateScheme      PolakRibiere \
	linminMethod         DirUpdateRecommended \
	nIterations          100 \
	history              15 \
	knormThreshold       0 \
	energyDiffThreshold  0 \
	nEnergyDiff          2 \
	alphaTstart          1 \
	alphaTmin            1e-10 \
	updateTestStepSize   yes \
	alphaTreduceFactor   0.1 \
	alphaTincreaseFactor 3 \
	nAlphaAdjustMax      3 \
	wolfeEnergy          0.0001 \
	wolfeGradient        0.9 \
	fdTest               no
fluid-solvent H2O 55.338 ScalarEOS \
	epsBulk 78.4 \
	pMol 0.92466 \
	epsInf 1.77 \
	Pvap 1.06736e-10 \
	sigmaBulk 4.62e-05 \
	Rvdw 2.61727 \
	Res 1.42 \
	tauNuc 343133 \
	poleEl 15 7 1
forces-output-coords Positions
ion Pt  -0.000002000000000   7.201812000000000  63.655619000000002 1
ion Pt   2.615997999999999   3.000756000000000  61.958122000000003 1
ion Pt   2.615995999999999  10.202567999999999  60.260688999999999 1
ion Pt   0.000000000000000   0.000000000000000  33.100931999999993 1
ion Pt  -0.000000000000000   6.001512000000000  58.563191999999994 1
ion Pt   2.615994999999999   1.800456000000000  56.865694999999995 1
ion Pt   2.615998999999999   9.002268000000001  55.168197999999990 1
ion Pt  -0.000002000000000   4.801212000000000  53.470702000000003 1
ion Pt   2.615998000000000   0.600156000000000  51.773268999999999 1
ion Pt   2.615995999999999   7.801968000000000  50.075771999999994 1
ion Pt   0.000003000000000   3.600900000000000  48.378274999999995 1
ion Pt   0.000001000000000  10.802712000000000  46.680777999999997 1
ion Pt   2.616001000000000   6.601656000000000  44.983280999999998 1
ion Pt  -0.000000000000000   2.400600000000000  43.285848999999999 1
ion Pt   0.000003000000000   9.602411999999999  41.588351999999993 1
ion Pt   2.615997999999999   5.401356000000000  39.890854999999995 1
ion Pt   0.000003000000000   1.200300000000000  38.193358000000003 1
ion Pt   0.000000999999999   8.402112000000001  36.495860999999998 1
ion Pt   2.616000999999999   4.201056000000000  34.798428999999992 1
ion-species /projects/musgravc/apps/jdftx-1.6.0/build/pseudopotentials/GBRV_v1.5/$ID_pbe_v1.uspp
ion-species /projects/musgravc/apps/jdftx-1.6.0/build/pseudopotentials/GBRV_v1.5/$ID_pbe_v1.2.uspp
ion-species /projects/musgravc/apps/jdftx-1.6.0/build/pseudopotentials/GBRV_v1.5/$ID_pbe_v1.4.uspp
ion-species /projects/musgravc/apps/jdftx-1.6.0/build/pseudopotentials/GBRV_v1.5/$ID_pbe_v1.5.uspp
ion-width 0
ionic-minimize  \
	dirUpdateScheme      L-BFGS \
	linminMethod         DirUpdateRecommended \
	nIterations          100 \
	history              15 \
	knormThreshold       0.0001 \
	energyDiffThreshold  1e-06 \
	nEnergyDiff          2 \
	alphaTstart          1 \
	alphaTmin            1e-10 \
	updateTestStepSize   yes \
	alphaTreduceFactor   0.1 \
	alphaTincreaseFactor 3 \
	nAlphaAdjustMax      3 \
	wolfeEnergy          0.0001 \
	wolfeGradient        0.9 \
	fdTest               no
kpoint   0.000000000000   0.000000000000   0.000000000000  1.00000000000000
kpoint-folding 11 5 1 
latt-move-scale 0 0 0
latt-scale 1 1 1 
lattice  \
	   5.231996000000000   -2.615997000000000    0.000000000000000  \
	   0.000000000000000   11.402868000000000    0.000000000000000  \
	   0.000000000000000    0.000000000000000   64.504367000000002 
lattice-minimize  \
	dirUpdateScheme      L-BFGS \
	linminMethod         DirUpdateRecommended \
	nIterations          0 \
	history              15 \
	knormThreshold       0 \
	energyDiffThreshold  1e-06 \
	nEnergyDiff          2 \
	alphaTstart          1 \
	alphaTmin            1e-10 \
	updateTestStepSize   yes \
	alphaTreduceFactor   0.1 \
	alphaTincreaseFactor 3 \
	nAlphaAdjustMax      3 \
	wolfeEnergy          0.0001 \
	wolfeGradient        0.9 \
	fdTest               no
lcao-params 30 1e-06 0.001
pcm-variant GLSSA13
spintype z-spin
subspace-rotation-factor 1 yes
symmetries none
symmetry-threshold 0.0001
van-der-waals D3


Applied RMS atom displacement 0 bohrs to make symmetries exact.

---------- Initializing the Grid ----------
R = 
[        5.232       -2.616            0  ]
[            0      11.4029            0  ]
[            0            0      64.5044  ]
unit cell volume = 3848.32
G =
[    1.20092   0.275509         -0  ]
[          0   0.551018          0  ]
[          0         -0  0.0974071  ]
Minimum fftbox size, Smin = [  24  48  260  ]
Chosen fftbox size, S = [  24  48  270  ]

---------- Exchange Correlation functional ----------
Initalized PBE GGA exchange.
Initalized PBE GGA correlation.

---------- Setting up pseudopotentials ----------
Width of ionic core gaussian charges (only for fluid interactions / plotting) set to 0

Reading pseudopotential file '/projects/musgravc/apps/jdftx-1.6.0/build/pseudopotentials/GBRV_v1.5/pt_pbe_v1.4.uspp':
  Title: Pt.  Created by USPP 7.3.6 on 31-3-15
  Reference state energy: -105.002503.  16 valence electrons in orbitals:
    |510>  occupation: 6  eigenvalue: -2.158104
    |520>  occupation: 9.5  eigenvalue: -0.335376
    |600>  occupation: 0  eigenvalue: -0.319640
    |610>  occupation: 0  eigenvalue: -0.122947
  lMax: 2  lLocal: 3  QijEcut: 5.5
  6 projectors sampled on a log grid with 745 points:
    l: 0  eig: -0.319640  rCut: 2.45
    l: 0  eig: 1.500000  rCut: 2.45
    l: 1  eig: -2.158104  rCut: 1.6
    l: 1  eig: -0.122947  rCut: 1.6
    l: 2  eig: -0.500000  rCut: 1.6
    l: 2  eig: -0.335375  rCut: 1.6
  Partial core density with radius 1.1
  Transforming core density to a uniform radial grid of dG=0.02 with 1284 points.
  Transforming local potential to a uniform radial grid of dG=0.02 with 1284 points.
  Transforming nonlocal projectors to a uniform radial grid of dG=0.02 with 432 points.
  Transforming density augmentations to a uniform radial grid of dG=0.02 with 1284 points.
  Transforming atomic orbitals to a uniform radial grid of dG=0.02 with 432 points.
  Core radius for overlap checks: 2.45 bohrs.

Initialized 1 species with 19 total atoms.

Folded 1 k-points by 11x5x1 to 55 k-points.

---------- Setting up k-points, bands, fillings ----------
No reducable k-points. 
Computing the number of bands and number of electrons
Calculating initial fillings.
nElectrons: 304.000000   nBands: 183   nStates: 110

----- Setting up reduced wavefunction bases (one per k-point) -----
average nbasis = 16439.073 , ideal nbasis = 16440.295

----- Initializing Supercell corresponding to k-point mesh -----
Lattice vector linear combinations in supercell:
[  11   0   0  ]
[   0   5   0  ]
[   0   0   1  ]
Supercell lattice vectors:
[  57.552  -13.08  0  ]
[  0  57.0143  0  ]
[  0  0  64.5044  ]

Initializing DFT-D3 calculator:
	Parameters set for gga-PBE functional
	s6:  1.000  s_r6:  1.217
	s8:  0.722  s_r8:  1.000
	Per-atom parameters loaded for:
	Pt:  sqrtQ[a0]:  5.888  Rcov[a0]:  2.116  CN: [ 0.00 1.92 6.67 ]

---------- Setting up ewald sum ----------
Optimum gaussian width for ewald sums = 3.827143 bohr.
Real space sum over 1045 unit cells with max indices [  9  5  2  ]
Reciprocal space sum over 6435 terms with max indices [  4  6  27  ]

Computing DFT-D3 correction:
# coordination-number Pt 5.564 7.155 8.721 5.564 9.546 9.555 9.561 9.563 9.563 9.564 9.564 9.564 9.563 9.563 9.561 9.555 9.546 8.721 7.155
# diagonal-C6 Pt 336.87 336.87 336.87 336.87 336.87 336.87 336.87 336.87 336.87 336.87 336.87 336.87 336.87 336.87 336.87 336.87 336.87 336.87 336.87
EvdW_6 =   -0.179231
EvdW_8 =   -0.282349

---------- Allocating electronic variables ----------
Initializing wave functions:  linear combination of atomic orbitals
Pt pseudo-atom occupations:   s ( 0 )  p ( 6 0 )  d ( 10 )
	FillingsUpdate:  mu: -1.111973041  nElectrons: 304.000000  magneticMoment: [ Abs: 0.00247  Tot: +0.00020 ]
LCAOMinimize: Iter:   0  F: -1679.7892109300159973  |grad|_K:  1.631e-02  alpha:  1.000e+00
LCAOMinimize: 	Step increased F by 7.258142e+02, reducing alpha to 1.980386e-02.
LCAOMinimize: 	Step increased F by 2.580202e+00, reducing alpha to 1.980386e-03.
	FillingsUpdate:  mu: -0.993602576  nElectrons: 304.000000  magneticMoment: [ Abs: 0.00240  Tot: +0.00015 ]
LCAOMinimize: Iter:   1  F: -1682.6236274103935102  |grad|_K:  1.352e-02  alpha:  1.980e-03  linmin: -1.515e-01  cgtest:  9.582e-01  t[s]:    166.61
LCAOMinimize: Encountered beta<0, resetting CG.
LCAOMinimize: 	Predicted alpha/alphaT>3.000000, increasing alphaT to 5.941158e-03.
	FillingsUpdate:  mu: +0.374151638  nElectrons: 304.000000  magneticMoment: [ Abs: 0.00213  Tot: +0.00010 ]
LCAOMinimize: Iter:   2  F: -1687.3161998705493261  |grad|_K:  5.448e-03  alpha:  1.131e-02  linmin:  1.139e-01  cgtest: -7.913e-01  t[s]:    219.27
	FillingsUpdate:  mu: +0.477641106  nElectrons: 304.000000  magneticMoment: [ Abs: 0.00208  Tot: +0.00006 ]
LCAOMinimize: Iter:   3  F: -1687.3772231990601540  |grad|_K:  6.117e-03  alpha:  3.863e-03  linmin: -1.047e-03  cgtest:  9.775e-01  t[s]:    261.38
LCAOMinimize: 	Predicted alpha/alphaT>3.000000, increasing alphaT to 1.158871e-02.
	FillingsUpdate:  mu: -0.079856473  nElectrons: 304.000000  magneticMoment: [ Abs: 0.00201  Tot: +0.00006 ]
LCAOMinimize: Iter:   4  F: -1688.5872484307869854  |grad|_K:  2.590e-03  alpha:  1.103e-02  linmin:  5.879e-02  cgtest: -3.863e-01  t[s]:    313.98
	FillingsUpdate:  mu: +0.106500359  nElectrons: 304.000000  magneticMoment: [ Abs: 0.00181  Tot: +0.00002 ]
LCAOMinimize: Iter:   5  F: -1689.0236293849659432  |grad|_K:  2.569e-03  alpha:  3.128e-02  linmin:  2.111e-03  cgtest:  6.305e-01  t[s]:    355.96
	FillingsUpdate:  mu: +0.243145743  nElectrons: 304.000000  magneticMoment: [ Abs: 0.00177  Tot: +0.00002 ]
LCAOMinimize: Iter:   6  F: -1689.2024181186163787  |grad|_K:  1.508e-03  alpha:  9.018e-03  linmin: -8.939e-03  cgtest:  1.005e-01  t[s]:    397.93
LCAOMinimize: 	Predicted alpha/alphaT>3.000000, increasing alphaT to 2.705257e-02.
	FillingsUpdate:  mu: +0.169331294  nElectrons: 304.000000  magneticMoment: [ Abs: 0.00158  Tot: -0.00004 ]
LCAOMinimize: Iter:   7  F: -1689.5781585667132276  |grad|_K:  1.154e-03  alpha:  5.789e-02  linmin:  5.495e-03  cgtest: -1.624e-01  t[s]:    450.75
	FillingsUpdate:  mu: +0.341455888  nElectrons: 304.000000  magneticMoment: [ Abs: 0.00140  Tot: +0.00006 ]
LCAOMinimize: Iter:   8  F: -1689.7673343013236718  |grad|_K:  3.534e-03  alpha:  5.069e-02  linmin:  2.744e-04  cgtest:  3.825e-02  t[s]:    492.66
	FillingsUpdate:  mu: +0.408234740  nElectrons: 304.000000  magneticMoment: [ Abs: 0.00112  Tot: +0.00008 ]
LCAOMinimize: Iter:   9  F: -1689.8605799897338784  |grad|_K:  4.242e-03  alpha:  1.007e-02  linmin:  1.327e-02  cgtest: -6.721e-01  t[s]:    534.71
LCAOMinimize: 	Bad step direction: g.d > 0.
LCAOMinimize: 	Undoing step.
LCAOMinimize: 	Step failed: resetting search direction.
	FillingsUpdate:  mu: +0.408234740  nElectrons: 304.000000  magneticMoment: [ Abs: 0.00112  Tot: +0.00008 ]
LCAOMinimize: Iter:  10  F: -1689.8605799897338784  |grad|_K:  4.242e-03  alpha:  0.000e+00
	FillingsUpdate:  mu: +0.362214657  nElectrons: 304.000000  magneticMoment: [ Abs: 0.00111  Tot: +0.00009 ]
LCAOMinimize: Iter:  11  F: -1690.0235999764265671  |grad|_K:  1.597e-03  alpha:  2.955e-03  linmin: -2.002e-02  cgtest:  1.189e-01  t[s]:    607.79
	FillingsUpdate:  mu: +0.363171614  nElectrons: 304.000000  magneticMoment: [ Abs: 0.00111  Tot: +0.00008 ]
LCAOMinimize: Iter:  12  F: -1690.0701715199209048  |grad|_K:  4.593e-04  alpha:  6.172e-03  linmin:  8.397e-03  cgtest: -1.496e-01  t[s]:    649.98
	FillingsUpdate:  mu: +0.387537504  nElectrons: 304.000000  magneticMoment: [ Abs: 0.00110  Tot: +0.00008 ]
LCAOMinimize: Iter:  13  F: -1690.0764343721968999  |grad|_K:  7.603e-04  alpha:  1.050e-02  linmin:  3.439e-05  cgtest:  1.542e-02  t[s]:    692.03
	FillingsUpdate:  mu: +0.377555138  nElectrons: 304.000000  magneticMoment: [ Abs: 0.00106  Tot: +0.00007 ]
LCAOMinimize: Iter:  14  F: -1690.1230449703898557  |grad|_K:  8.047e-04  alpha:  2.829e-02  linmin:  1.376e-03  cgtest: -9.737e-02  t[s]:    733.88
	FillingsUpdate:  mu: +0.330862624  nElectrons: 304.000000  magneticMoment: [ Abs: 0.00105  Tot: +0.00006 ]
LCAOMinimize: Iter:  15  F: -1690.1342854122412973  |grad|_K:  5.377e-04  alpha:  6.530e-03  linmin:  2.282e-03  cgtest:  1.273e-02  t[s]:    775.85
	FillingsUpdate:  mu: +0.304910781  nElectrons: 304.000000  magneticMoment: [ Abs: 0.00104  Tot: +0.00006 ]
LCAOMinimize: Iter:  16  F: -1690.1383037426592182  |grad|_K:  3.601e-04  alpha:  5.013e-03  linmin: -8.831e-05  cgtest:  5.109e-02  t[s]:    818.23
LCAOMinimize: 	Predicted alpha/alphaT>3.000000, increasing alphaT to 1.503887e-02.
LCAOMinimize: 	Predicted alpha/alphaT>3.000000, increasing alphaT to 4.511662e-02.
	FillingsUpdate:  mu: +0.326303318  nElectrons: 304.000000  magneticMoment: [ Abs: 0.00100  Tot: +0.00009 ]
LCAOMinimize: Iter:  17  F: -1690.1636794668929724  |grad|_K:  1.171e-03  alpha:  6.791e-02  linmin:  6.658e-05  cgtest: -7.857e-02  t[s]:    881.75
	FillingsUpdate:  mu: +0.293870412  nElectrons: 304.000000  magneticMoment: [ Abs: 0.00096  Tot: +0.00009 ]
LCAOMinimize: Iter:  18  F: -1690.1869835461195635  |grad|_K:  5.828e-04  alpha:  5.196e-03  linmin: -4.020e-03  cgtest:  2.287e-01  t[s]:    923.65
	FillingsUpdate:  mu: +0.306862359  nElectrons: 304.000000  magneticMoment: [ Abs: 0.00095  Tot: +0.00008 ]
LCAOMinimize: Iter:  19  F: -1690.1940178146066955  |grad|_K:  2.466e-04  alpha:  6.764e-03  linmin:  9.362e-04  cgtest: -1.309e-01  t[s]:    965.68
	FillingsUpdate:  mu: +0.311906659  nElectrons: 304.000000  magneticMoment: [ Abs: 0.00095  Tot: +0.00008 ]
LCAOMinimize: Iter:  20  F: -1690.1952422841134194  |grad|_K:  3.056e-04  alpha:  7.042e-03  linmin:  1.020e-04  cgtest:  2.160e-02  t[s]:   1007.53
	FillingsUpdate:  mu: +0.293259295  nElectrons: 304.000000  magneticMoment: [ Abs: 0.00094  Tot: +0.00009 ]
LCAOMinimize: Iter:  21  F: -1690.2002716402791975  |grad|_K:  1.631e-04  alpha:  1.890e-02  linmin:  1.861e-03  cgtest: -7.506e-02  t[s]:   1049.42
	FillingsUpdate:  mu: +0.288579025  nElectrons: 304.000000  magneticMoment: [ Abs: 0.00094  Tot: +0.00009 ]
LCAOMinimize: Iter:  22  F: -1690.2010602322552586  |grad|_K:  2.165e-04  alpha:  1.046e-02  linmin: -4.869e-05  cgtest:  1.697e-02  t[s]:   1091.30
	FillingsUpdate:  mu: +0.284704879  nElectrons: 304.000000  magneticMoment: [ Abs: 0.00093  Tot: +0.00009 ]
LCAOMinimize: Iter:  23  F: -1690.2022442294157827  |grad|_K:  2.389e-04  alpha:  8.739e-03  linmin:  8.805e-05  cgtest: -1.776e-02  t[s]:   1133.15
	FillingsUpdate:  mu: +0.296403840  nElectrons: 304.000000  magneticMoment: [ Abs: 0.00092  Tot: +0.00010 ]
LCAOMinimize: Iter:  24  F: -1690.2047061750952253  |grad|_K:  1.217e-04  alpha:  1.487e-02  linmin: -1.302e-03  cgtest:  8.788e-02  t[s]:   1175.16
	FillingsUpdate:  mu: +0.301353680  nElectrons: 304.000000  magneticMoment: [ Abs: 0.00092  Tot: +0.00010 ]
LCAOMinimize: Iter:  25  F: -1690.2050301708700317  |grad|_K:  1.419e-04  alpha:  7.488e-03  linmin:  4.580e-05  cgtest: -1.598e-02  t[s]:   1216.99
	FillingsUpdate:  mu: +0.306487810  nElectrons: 304.000000  magneticMoment: [ Abs: 0.00092  Tot: +0.00011 ]
LCAOMinimize: Iter:  26  F: -1690.2055157029531074  |grad|_K:  1.132e-04  alpha:  8.378e-03  linmin:  3.090e-04  cgtest:  2.065e-02  t[s]:   1258.93
	FillingsUpdate:  mu: +0.301349068  nElectrons: 304.000000  magneticMoment: [ Abs: 0.00092  Tot: +0.00011 ]
LCAOMinimize: Iter:  27  F: -1690.2060108559414857  |grad|_K:  9.248e-05  alpha:  1.349e-02  linmin:  1.849e-04  cgtest:  4.640e-03  t[s]:   1300.78
	FillingsUpdate:  mu: +0.304076354  nElectrons: 304.000000  magneticMoment: [ Abs: 0.00092  Tot: +0.00012 ]
LCAOMinimize: Iter:  28  F: -1690.2066117657147970  |grad|_K:  2.231e-04  alpha:  2.444e-02  linmin:  3.995e-05  cgtest: -2.517e-04  t[s]:   1342.58
	FillingsUpdate:  mu: +0.303319316  nElectrons: 304.000000  magneticMoment: [ Abs: 0.00091  Tot: +0.00014 ]
LCAOMinimize: Iter:  29  F: -1690.2075598556527893  |grad|_K:  6.233e-05  alpha:  6.642e-03  linmin:  1.964e-04  cgtest: -9.874e-03  t[s]:   1384.49
	FillingsUpdate:  mu: +0.306425174  nElectrons: 304.000000  magneticMoment: [ Abs: 0.00091  Tot: +0.00014 ]
LCAOMinimize: Iter:  30  F: -1690.2076344199090272  |grad|_K:  2.390e-05  alpha:  6.672e-03  linmin:  7.255e-06  cgtest:  6.600e-03  t[s]:   1426.62
LCAOMinimize: None of the convergence criteria satisfied after 30 iterations.


---- Citations for features of the code used in this run ----

   Software package:
      R. Sundararaman, K. Letchworth-Weaver, K.A. Schwarz, D. Gunceler, Y. Ozhabes and T.A. Arias, 'JDFTx: software for joint density-functional theory', SoftwareX 6, 278 (2017)

   gga-PBE exchange-correlation functional:
      J.P. Perdew, K. Burke and M. Ernzerhof, Phys. Rev. Lett. 77, 3865 (1996)

   Pseudopotentials:
      KF Garrity, JW Bennett, KM Rabe and D Vanderbilt, Comput. Mater. Sci. 81, 446 (2014)

   DFT-D3 dispersion correction:
      S. Grimme, J. Antony, S. Ehrlich and H. Krieg, J. Chem. Phys. 132, 154104 (2010)

   Total energy minimization with Auxiliary Hamiltonian:
      C. Freysoldt, S. Boeck, and J. Neugebauer, Phys. Rev. B 79, 241103(R) (2009)

   Linear-tetrahedron sampling for density of states:
      G. Lehmann and M. Taut, Phys. status solidi (b) 54, 469 (1972)

This list may not be complete. Please suggest additional citations or
report any other bugs at https://github.com/shankar1729/jdftx/issues

Initialization completed successfully at t[s]:   1434.00


Computing DFT-D3 correction:
# coordination-number Pt 5.564 7.155 8.721 5.564 9.546 9.555 9.561 9.563 9.563 9.564 9.564 9.564 9.563 9.563 9.561 9.555 9.546 8.721 7.155
# diagonal-C6 Pt 336.87 336.87 336.87 336.87 336.87 336.87 336.87 336.87 336.87 336.87 336.87 336.87 336.87 336.87 336.87 336.87 336.87 336.87 336.87
EvdW_6 =   -0.179231
EvdW_8 =   -0.282349

-------- Electronic minimization -----------
	FillingsUpdate:  mu: +0.306425623  nElectrons: 304.000000  magneticMoment: [ Abs: 0.00091  Tot: +0.00014 ]
ElecMinimize: Iter:   0  F: -1690.207634419906071  |grad|_K:  3.796e-05  alpha:  1.000e+00
	FillingsUpdate:  mu: +0.418718142  nElectrons: 304.000000  magneticMoment: [ Abs: 0.00076  Tot: +0.00016 ]
	SubspaceRotationAdjust: set factor to 0.505
ElecMinimize: Iter:   1  F: -1690.374487165410528  |grad|_K:  1.944e-04  alpha:  3.493e-01  linmin:  1.292e-05  t[s]:   1526.19
ElecMinimize: 	Step increased F by 1.261492e-01, reducing alpha to 8.766496e-04.
	FillingsUpdate:  mu: +0.388655601  nElectrons: 304.000000  magneticMoment: [ Abs: 0.00075  Tot: +0.00016 ]
	SubspaceRotationAdjust: set factor to 0.262
ElecMinimize: Iter:   2  F: -1690.393034648022649  |grad|_K:  9.603e-05  alpha:  8.766e-04  linmin: -3.893e-03  t[s]:   1620.98
ElecMinimize: 	Predicted alpha/alphaT>3.000000, increasing alphaT to 2.629949e-03.
	FillingsUpdate:  mu: +0.334414200  nElectrons: 304.000000  magneticMoment: [ Abs: 0.00074  Tot: +0.00017 ]
	SubspaceRotationAdjust: set factor to 0.115
	SubspaceRotationAdjust: resetting CG because factor has changed by 0.114636
ElecMinimize: 	State modified externally: resetting search direction.
ElecMinimize: Iter:   3  F: -1690.409032637688824  |grad|_K:  1.864e-05  alpha:  3.095e-03
ElecMinimize: 	Predicted alpha/alphaT>3.000000, increasing alphaT to 9.284695e-03.
ElecMinimize: 	Predicted alpha/alphaT>3.000000, increasing alphaT to 2.785409e-02.
ElecMinimize: 	Predicted alpha/alphaT>3.000000, increasing alphaT to 8.356226e-02.
	FillingsUpdate:  mu: +0.371720283  nElectrons: 304.000000  magneticMoment: [ Abs: 0.00068  Tot: +0.00016 ]
	SubspaceRotationAdjust: set factor to 0.0636
ElecMinimize: Iter:   4  F: -1690.430819477872092  |grad|_K:  3.625e-05  alpha:  1.878e-01  linmin: -1.792e-04  t[s]:   1810.91
	FillingsUpdate:  mu: +0.331584856  nElectrons: 304.000000  magneticMoment: [ Abs: 0.00062  Tot: +0.00016 ]
	SubspaceRotationAdjust: set factor to 0.0403
ElecMinimize: Iter:   5  F: -1690.447572755884494  |grad|_K:  1.235e-05  alpha:  3.803e-02  linmin: -6.553e-05  t[s]:   1869.45
ElecMinimize: 	Predicted alpha/alphaT>3.000000, increasing alphaT to 1.140921e-01.
	FillingsUpdate:  mu: +0.313728139  nElectrons: 304.000000  magneticMoment: [ Abs: 0.00049  Tot: +0.00016 ]
	SubspaceRotationAdjust: set factor to 0.0354
ElecMinimize: Iter:   6  F: -1690.464310432743105  |grad|_K:  1.125e-05  alpha:  3.286e-01  linmin: -1.074e-04  t[s]:   1941.80
	FillingsUpdate:  mu: +0.324953689  nElectrons: 304.000000  magneticMoment: [ Abs: 0.00044  Tot: +0.00016 ]
	SubspaceRotationAdjust: set factor to 0.0274
ElecMinimize: Iter:   7  F: -1690.470078125031250  |grad|_K:  8.450e-06  alpha:  1.366e-01  linmin:  2.693e-05  t[s]:   1999.63
	FillingsUpdate:  mu: +0.328587192  nElectrons: 304.000000  magneticMoment: [ Abs: 0.00041  Tot: +0.00016 ]
	SubspaceRotationAdjust: set factor to 0.0202
ElecMinimize: Iter:   8  F: -1690.472804322976344  |grad|_K:  3.841e-06  alpha:  1.148e-01  linmin:  8.932e-06  t[s]:   2057.42
	FillingsUpdate:  mu: +0.329543911  nElectrons: 304.000000  magneticMoment: [ Abs: 0.00037  Tot: +0.00016 ]
	SubspaceRotationAdjust: set factor to 0.021
ElecMinimize: Iter:   9  F: -1690.474409885670411  |grad|_K:  3.281e-06  alpha:  3.272e-01  linmin:  8.251e-07  t[s]:   2115.41
	FillingsUpdate:  mu: +0.324189172  nElectrons: 304.000000  magneticMoment: [ Abs: 0.00035  Tot: +0.00016 ]
	SubspaceRotationAdjust: set factor to 0.0155
	SubspaceRotationAdjust: resetting CG because factor has changed by 0.135127
ElecMinimize: 	State modified externally: resetting search direction.
ElecMinimize: Iter:  10  F: -1690.475078440155130  |grad|_K:  2.319e-06  alpha:  1.868e-01
	FillingsUpdate:  mu: +0.324508496  nElectrons: 304.000000  magneticMoment: [ Abs: 0.00034  Tot: +0.00016 ]
	SubspaceRotationAdjust: set factor to 0.0142
ElecMinimize: Iter:  11  F: -1690.475557648711174  |grad|_K:  1.415e-06  alpha:  2.678e-01  linmin: -3.460e-06  t[s]:   2262.09
	FillingsUpdate:  mu: +0.323660459  nElectrons: 304.000000  magneticMoment: [ Abs: 0.00033  Tot: +0.00016 ]
	SubspaceRotationAdjust: set factor to 0.0114
ElecMinimize: Iter:  12  F: -1690.475757815496081  |grad|_K:  1.143e-06  alpha:  3.004e-01  linmin: -1.749e-06  t[s]:   2320.34
	FillingsUpdate:  mu: +0.322361187  nElectrons: 304.000000  magneticMoment: [ Abs: 0.00032  Tot: +0.00015 ]
	SubspaceRotationAdjust: set factor to 0.0138
ElecMinimize: Iter:  13  F: -1690.476038193725117  |grad|_K:  8.875e-07  alpha:  6.452e-01  linmin:  1.397e-05  t[s]:   2378.20
	FillingsUpdate:  mu: +0.323530575  nElectrons: 304.000000  magneticMoment: [ Abs: 0.00031  Tot: +0.00015 ]
	SubspaceRotationAdjust: set factor to 0.0165
ElecMinimize: Iter:  14  F: -1690.476176841004872  |grad|_K:  8.404e-07  alpha:  5.297e-01  linmin: -8.965e-08  t[s]:   2436.04
	FillingsUpdate:  mu: +0.324032479  nElectrons: 304.000000  magneticMoment: [ Abs: 0.00031  Tot: +0.00015 ]
	SubspaceRotationAdjust: set factor to 0.0131
ElecMinimize: Iter:  15  F: -1690.476357231367956  |grad|_K:  1.186e-06  alpha:  7.677e-01  linmin:  5.475e-06  t[s]:   2494.01
	FillingsUpdate:  mu: +0.322857153  nElectrons: 304.000000  magneticMoment: [ Abs: 0.00031  Tot: +0.00015 ]
	SubspaceRotationAdjust: set factor to 0.0107
ElecMinimize: Iter:  16  F: -1690.476493051813577  |grad|_K:  8.879e-07  alpha:  2.909e-01  linmin:  6.641e-06  t[s]:   2551.93
	FillingsUpdate:  mu: +0.321209014  nElectrons: 304.000000  magneticMoment: [ Abs: 0.00031  Tot: +0.00015 ]
	SubspaceRotationAdjust: set factor to 0.012
ElecMinimize: Iter:  17  F: -1690.476710313759668  |grad|_K:  1.130e-06  alpha:  8.320e-01  linmin:  1.396e-05  t[s]:   2609.87
	FillingsUpdate:  mu: +0.320184358  nElectrons: 304.000000  magneticMoment: [ Abs: 0.00029  Tot: +0.00014 ]
	SubspaceRotationAdjust: set factor to 0.0117
ElecMinimize: Iter:  18  F: -1690.477116243204364  |grad|_K:  1.683e-06  alpha:  9.619e-01  linmin:  3.215e-06  t[s]:   2667.70
	FillingsUpdate:  mu: +0.318117166  nElectrons: 304.000000  magneticMoment: [ Abs: 0.00028  Tot: +0.00014 ]
	SubspaceRotationAdjust: set factor to 0.00907
ElecMinimize: Iter:  19  F: -1690.477510609012825  |grad|_K:  1.451e-06  alpha:  4.207e-01  linmin:  2.722e-06  t[s]:   2725.78
	FillingsUpdate:  mu: +0.316937750  nElectrons: 304.000000  magneticMoment: [ Abs: 0.00027  Tot: +0.00014 ]
	SubspaceRotationAdjust: set factor to 0.00976
ElecMinimize: Iter:  20  F: -1690.477863865756262  |grad|_K:  1.050e-06  alpha:  5.050e-01  linmin: -6.442e-06  t[s]:   2783.97
	FillingsUpdate:  mu: +0.317045666  nElectrons: 304.000000  magneticMoment: [ Abs: 0.00024  Tot: +0.00014 ]
	SubspaceRotationAdjust: set factor to 0.00951
ElecMinimize: Iter:  21  F: -1690.478069943738319  |grad|_K:  8.942e-07  alpha:  5.597e-01  linmin: -6.188e-06  t[s]:   2842.01
	FillingsUpdate:  mu: +0.316487503  nElectrons: 304.000000  magneticMoment: [ Abs: 0.00023  Tot: +0.00014 ]
	SubspaceRotationAdjust: set factor to 0.00765
ElecMinimize: Iter:  22  F: -1690.478182041389573  |grad|_K:  6.785e-07  alpha:  4.204e-01  linmin: -1.822e-06  t[s]:   2899.60
	FillingsUpdate:  mu: +0.315798230  nElectrons: 304.000000  magneticMoment: [ Abs: 0.00021  Tot: +0.00014 ]
	SubspaceRotationAdjust: set factor to 0.00824
ElecMinimize: Iter:  23  F: -1690.478255016721732  |grad|_K:  4.776e-07  alpha:  4.760e-01  linmin: -5.953e-07  t[s]:   2957.33
	FillingsUpdate:  mu: +0.315789744  nElectrons: 304.000000  magneticMoment: [ Abs: 0.00021  Tot: +0.00014 ]
	SubspaceRotationAdjust: set factor to 0.00915
ElecMinimize: Iter:  24  F: -1690.478296340861107  |grad|_K:  3.665e-07  alpha:  5.444e-01  linmin:  6.215e-07  t[s]:   3015.12
	FillingsUpdate:  mu: +0.315858477  nElectrons: 304.000000  magneticMoment: [ Abs: 0.00021  Tot: +0.00014 ]
	SubspaceRotationAdjust: set factor to 0.00917
ElecMinimize: Iter:  25  F: -1690.478316150526553  |grad|_K:  2.700e-07  alpha:  4.434e-01  linmin:  4.222e-08  t[s]:   3073.29
	FillingsUpdate:  mu: +0.315795954  nElectrons: 304.000000  magneticMoment: [ Abs: 0.00021  Tot: +0.00014 ]
	SubspaceRotationAdjust: set factor to 0.0105
ElecMinimize: Iter:  26  F: -1690.478329417569284  |grad|_K:  2.509e-07  alpha:  5.471e-01  linmin:  6.969e-08  t[s]:   3131.52
	FillingsUpdate:  mu: +0.315748175  nElectrons: 304.000000  magneticMoment: [ Abs: 0.00021  Tot: +0.00014 ]
	SubspaceRotationAdjust: set factor to 0.0125
ElecMinimize: Iter:  27  F: -1690.478345207438224  |grad|_K:  2.731e-07  alpha:  7.539e-01  linmin:  4.478e-07  t[s]:   3189.52
	FillingsUpdate:  mu: +0.315859144  nElectrons: 304.000000  magneticMoment: [ Abs: 0.00021  Tot: +0.00014 ]
	SubspaceRotationAdjust: set factor to 0.0133
ElecMinimize: Iter:  28  F: -1690.478362021450494  |grad|_K:  3.049e-07  alpha:  6.777e-01  linmin:  8.001e-07  t[s]:   3247.59
	FillingsUpdate:  mu: +0.315777975  nElectrons: 304.000000  magneticMoment: [ Abs: 0.00021  Tot: +0.00014 ]
	SubspaceRotationAdjust: set factor to 0.0118
ElecMinimize: Iter:  29  F: -1690.478377627221107  |grad|_K:  3.277e-07  alpha:  5.047e-01  linmin:  1.051e-06  t[s]:   3305.63
	FillingsUpdate:  mu: +0.315641881  nElectrons: 304.000000  magneticMoment: [ Abs: 0.00021  Tot: +0.00014 ]
	SubspaceRotationAdjust: set factor to 0.0114
ElecMinimize: Iter:  30  F: -1690.478396840815549  |grad|_K:  3.034e-07  alpha:  5.380e-01  linmin:  4.863e-07  t[s]:   3363.84
	FillingsUpdate:  mu: +0.315885795  nElectrons: 304.000000  magneticMoment: [ Abs: 0.00021  Tot: +0.00014 ]
	SubspaceRotationAdjust: set factor to 0.0125
ElecMinimize: Iter:  31  F: -1690.478417455942918  |grad|_K:  2.879e-07  alpha:  6.735e-01  linmin:  5.494e-08  t[s]:   3421.93
	FillingsUpdate:  mu: +0.315932101  nElectrons: 304.000000  magneticMoment: [ Abs: 0.00021  Tot: +0.00014 ]
	SubspaceRotationAdjust: set factor to 0.0129
ElecMinimize: Iter:  32  F: -1690.478434617942867  |grad|_K:  2.728e-07  alpha:  6.223e-01  linmin: -7.002e-07  t[s]:   3480.22
	FillingsUpdate:  mu: +0.316026155  nElectrons: 304.000000  magneticMoment: [ Abs: 0.00021  Tot: +0.00014 ]
	SubspaceRotationAdjust: set factor to 0.0115
ElecMinimize: Iter:  33  F: -1690.478446137823084  |grad|_K:  2.503e-07  alpha:  4.650e-01  linmin: -4.094e-07  t[s]:   3538.22
	FillingsUpdate:  mu: +0.316140546  nElectrons: 304.000000  magneticMoment: [ Abs: 0.00020  Tot: +0.00014 ]
	SubspaceRotationAdjust: set factor to 0.0111
ElecMinimize: Iter:  34  F: -1690.478454541637120  |grad|_K:  1.884e-07  alpha:  4.030e-01  linmin: -2.379e-07  t[s]:   3596.06
	FillingsUpdate:  mu: +0.316125468  nElectrons: 304.000000  magneticMoment: [ Abs: 0.00020  Tot: +0.00014 ]
	SubspaceRotationAdjust: set factor to 0.0133
ElecMinimize: Iter:  35  F: -1690.478461838749581  |grad|_K:  1.717e-07  alpha:  6.178e-01  linmin: -3.487e-07  t[s]:   3654.38
	FillingsUpdate:  mu: +0.316072129  nElectrons: 304.000000  magneticMoment: [ Abs: 0.00020  Tot: +0.00014 ]
	SubspaceRotationAdjust: set factor to 0.0151
ElecMinimize: Iter:  36  F: -1690.478468424562152  |grad|_K:  1.823e-07  alpha:  6.713e-01  linmin: -1.530e-07  t[s]:   3712.37
	FillingsUpdate:  mu: +0.316196551  nElectrons: 304.000000  magneticMoment: [ Abs: 0.00020  Tot: +0.00013 ]
	SubspaceRotationAdjust: set factor to 0.0142
ElecMinimize: Iter:  37  F: -1690.478473965689545  |grad|_K:  2.002e-07  alpha:  5.014e-01  linmin: -3.784e-08  t[s]:   3770.11
	FillingsUpdate:  mu: +0.316311539  nElectrons: 304.000000  magneticMoment: [ Abs: 0.00020  Tot: +0.00013 ]
	SubspaceRotationAdjust: set factor to 0.0129
ElecMinimize: Iter:  38  F: -1690.478479560316146  |grad|_K:  1.805e-07  alpha:  4.196e-01  linmin: -3.474e-08  t[s]:   3827.86
	FillingsUpdate:  mu: +0.316298150  nElectrons: 304.000000  magneticMoment: [ Abs: 0.00020  Tot: +0.00013 ]
	SubspaceRotationAdjust: set factor to 0.0142
ElecMinimize: Iter:  39  F: -1690.478486701393877  |grad|_K:  1.791e-07  alpha:  6.586e-01  linmin: -9.757e-07  t[s]:   3885.66
	FillingsUpdate:  mu: +0.316461017  nElectrons: 304.000000  magneticMoment: [ Abs: 0.00019  Tot: +0.00013 ]
	SubspaceRotationAdjust: set factor to 0.0159
ElecMinimize: Iter:  40  F: -1690.478494349802304  |grad|_K:  1.827e-07  alpha:  7.158e-01  linmin: -9.664e-07  t[s]:   3943.53
	FillingsUpdate:  mu: +0.316478787  nElectrons: 304.000000  magneticMoment: [ Abs: 0.00018  Tot: +0.00013 ]
	SubspaceRotationAdjust: set factor to 0.0159
ElecMinimize: Iter:  41  F: -1690.478501449192208  |grad|_K:  2.075e-07  alpha:  6.384e-01  linmin: -5.582e-07  t[s]:   4001.26
	FillingsUpdate:  mu: +0.316468876  nElectrons: 304.000000  magneticMoment: [ Abs: 0.00017  Tot: +0.00013 ]
	SubspaceRotationAdjust: set factor to 0.013
ElecMinimize: Iter:  42  F: -1690.478506762398411  |grad|_K:  1.989e-07  alpha:  3.710e-01  linmin:  1.182e-07  t[s]:   4059.49
	FillingsUpdate:  mu: +0.316536820  nElectrons: 304.000000  magneticMoment: [ Abs: 0.00016  Tot: +0.00013 ]
	SubspaceRotationAdjust: set factor to 0.0133
ElecMinimize: Iter:  43  F: -1690.478512795119741  |grad|_K:  1.604e-07  alpha:  4.585e-01  linmin: -4.546e-07  t[s]:   4117.12
	FillingsUpdate:  mu: +0.316618699  nElectrons: 304.000000  magneticMoment: [ Abs: 0.00015  Tot: +0.00013 ]
	SubspaceRotationAdjust: set factor to 0.0152
ElecMinimize: Iter:  44  F: -1690.478517933742069  |grad|_K:  1.411e-07  alpha:  5.995e-01  linmin: -2.726e-07  t[s]:   4174.86
	FillingsUpdate:  mu: +0.316542027  nElectrons: 304.000000  magneticMoment: [ Abs: 0.00015  Tot: +0.00013 ]
	SubspaceRotationAdjust: set factor to 0.0164
ElecMinimize: Iter:  45  F: -1690.478522089159924  |grad|_K:  1.350e-07  alpha:  6.271e-01  linmin: -2.120e-07  t[s]:   4233.29
	FillingsUpdate:  mu: +0.316558054  nElectrons: 304.000000  magneticMoment: [ Abs: 0.00015  Tot: +0.00013 ]
	SubspaceRotationAdjust: set factor to 0.0142
ElecMinimize: Iter:  46  F: -1690.478524651168073  |grad|_K:  1.345e-07  alpha:  4.221e-01  linmin:  4.883e-08  t[s]:   4291.25
	FillingsUpdate:  mu: +0.316561118  nElectrons: 304.000000  magneticMoment: [ Abs: 0.00015  Tot: +0.00013 ]
	SubspaceRotationAdjust: set factor to 0.0119
ElecMinimize: Iter:  47  F: -1690.478526694320635  |grad|_K:  1.000e-07  alpha:  3.395e-01  linmin: -8.047e-08  t[s]:   4348.92
	FillingsUpdate:  mu: +0.316487473  nElectrons: 304.000000  magneticMoment: [ Abs: 0.00014  Tot: +0.00012 ]
	SubspaceRotationAdjust: set factor to 0.0133
ElecMinimize: Iter:  48  F: -1690.478528407534213  |grad|_K:  7.636e-08  alpha:  5.147e-01  linmin: -1.489e-07  t[s]:   4406.67
	FillingsUpdate:  mu: +0.316493424  nElectrons: 304.000000  magneticMoment: [ Abs: 0.00014  Tot: +0.00012 ]
	SubspaceRotationAdjust: set factor to 0.015
ElecMinimize: Iter:  49  F: -1690.478529535298776  |grad|_K:  6.815e-08  alpha:  5.812e-01  linmin: -8.203e-07  t[s]:   4464.76
	FillingsUpdate:  mu: +0.316503578  nElectrons: 304.000000  magneticMoment: [ Abs: 0.00014  Tot: +0.00012 ]
	SubspaceRotationAdjust: set factor to 0.014
ElecMinimize: Iter:  50  F: -1690.478530239881138  |grad|_K:  6.697e-08  alpha:  4.557e-01  linmin:  2.289e-07  t[s]:   4522.50
	FillingsUpdate:  mu: +0.316484545  nElectrons: 304.000000  magneticMoment: [ Abs: 0.00014  Tot: +0.00012 ]
	SubspaceRotationAdjust: set factor to 0.0125
ElecMinimize: Iter:  51  F: -1690.478530803790818  |grad|_K:  5.475e-08  alpha:  3.780e-01  linmin:  4.285e-07  t[s]:   4580.39
	FillingsUpdate:  mu: +0.316459392  nElectrons: 304.000000  magneticMoment: [ Abs: 0.00014  Tot: +0.00012 ]
	SubspaceRotationAdjust: set factor to 0.0145
ElecMinimize: Iter:  52  F: -1690.478531340857216  |grad|_K:  4.486e-08  alpha:  5.386e-01  linmin:  6.969e-08  t[s]:   4638.48
	FillingsUpdate:  mu: +0.316472311  nElectrons: 304.000000  magneticMoment: [ Abs: 0.00013  Tot: +0.00012 ]
	SubspaceRotationAdjust: set factor to 0.0167
ElecMinimize: Iter:  53  F: -1690.478531761708155  |grad|_K:  4.175e-08  alpha:  6.289e-01  linmin:  9.787e-07  t[s]:   4696.37
	FillingsUpdate:  mu: +0.316446356  nElectrons: 304.000000  magneticMoment: [ Abs: 0.00013  Tot: +0.00012 ]
	SubspaceRotationAdjust: set factor to 0.0162
ElecMinimize: Iter:  54  F: -1690.478532071010932  |grad|_K:  4.562e-08  alpha:  5.337e-01  linmin: -5.608e-07  t[s]:   4754.33
	FillingsUpdate:  mu: +0.316434532  nElectrons: 304.000000  magneticMoment: [ Abs: 0.00013  Tot: +0.00012 ]
	SubspaceRotationAdjust: set factor to 0.0132
ElecMinimize: Iter:  55  F: -1690.478532303769953  |grad|_K:  4.036e-08  alpha:  3.362e-01  linmin:  3.069e-07  t[s]:   4812.33
	FillingsUpdate:  mu: +0.316453337  nElectrons: 304.000000  magneticMoment: [ Abs: 0.00013  Tot: +0.00012 ]
	SubspaceRotationAdjust: set factor to 0.0141
ElecMinimize: Iter:  56  F: -1690.478532569612071  |grad|_K:  3.240e-08  alpha:  4.915e-01  linmin:  4.459e-06  t[s]:   4870.54
	FillingsUpdate:  mu: +0.316453103  nElectrons: 304.000000  magneticMoment: [ Abs: 0.00013  Tot: +0.00012 ]
	SubspaceRotationAdjust: set factor to 0.0164
ElecMinimize: Iter:  57  F: -1690.478532779949546  |grad|_K:  2.839e-08  alpha:  6.030e-01  linmin: -1.886e-06  t[s]:   4928.43
	FillingsUpdate:  mu: +0.316455842  nElectrons: 304.000000  magneticMoment: [ Abs: 0.00013  Tot: +0.00012 ]
	SubspaceRotationAdjust: set factor to 0.0171
ElecMinimize: Iter:  58  F: -1690.478532933251017  |grad|_K:  2.923e-08  alpha:  5.716e-01  linmin:  2.884e-06  t[s]:   4986.50
	FillingsUpdate:  mu: +0.316468905  nElectrons: 304.000000  magneticMoment: [ Abs: 0.00013  Tot: +0.00012 ]
	SubspaceRotationAdjust: set factor to 0.0148
ElecMinimize: Iter:  59  F: -1690.478533038292198  |grad|_K:  2.971e-08  alpha:  3.694e-01  linmin: -1.329e-07  t[s]:   5044.36
	FillingsUpdate:  mu: +0.316484821  nElectrons: 304.000000  magneticMoment: [ Abs: 0.00013  Tot: +0.00012 ]
	SubspaceRotationAdjust: set factor to 0.0148
ElecMinimize: Iter:  60  F: -1690.478533167484784  |grad|_K:  2.461e-08  alpha:  4.389e-01  linmin: -4.077e-06  t[s]:   5102.15
	FillingsUpdate:  mu: +0.316483540  nElectrons: 304.000000  magneticMoment: [ Abs: 0.00013  Tot: +0.00012 ]
	SubspaceRotationAdjust: set factor to 0.0171
ElecMinimize: Iter:  61  F: -1690.478533295983652  |grad|_K:  2.271e-08  alpha:  6.349e-01  linmin: -8.446e-06  t[s]:   5160.26
	FillingsUpdate:  mu: +0.316507085  nElectrons: 304.000000  magneticMoment: [ Abs: 0.00013  Tot: +0.00012 ]
	SubspaceRotationAdjust: set factor to 0.0191
ElecMinimize: Iter:  62  F: -1690.478533407763280  |grad|_K:  2.238e-08  alpha:  6.488e-01  linmin:  3.906e-06  t[s]:   5218.18
	FillingsUpdate:  mu: +0.316512190  nElectrons: 304.000000  magneticMoment: [ Abs: 0.00012  Tot: +0.00012 ]
	SubspaceRotationAdjust: set factor to 0.0184
ElecMinimize: Iter:  63  F: -1690.478533496403543  |grad|_K:  2.603e-08  alpha:  5.335e-01  linmin: -3.806e-07  t[s]:   5275.98
	FillingsUpdate:  mu: +0.316512879  nElectrons: 304.000000  magneticMoment: [ Abs: 0.00012  Tot: +0.00011 ]
	SubspaceRotationAdjust: set factor to 0.0146
ElecMinimize: Iter:  64  F: -1690.478533562461507  |grad|_K:  2.300e-08  alpha:  2.918e-01  linmin:  1.762e-06  t[s]:   5333.96
ElecMinimize: Converged (|Delta F|<1.000000e-07 for 2 iters).
Setting wave functions to eigenvectors of Hamiltonian
Converging empty states (this may take a while): |deigs|: 5.789e-04

Computing DFT-D3 correction:
# coordination-number Pt 5.564 7.155 8.721 5.564 9.546 9.555 9.561 9.563 9.563 9.564 9.564 9.564 9.563 9.563 9.561 9.555 9.546 8.721 7.155
# diagonal-C6 Pt 336.87 336.87 336.87 336.87 336.87 336.87 336.87 336.87 336.87 336.87 336.87 336.87 336.87 336.87 336.87 336.87 336.87 336.87 336.87
EvdW_6 =   -0.179231
EvdW_8 =   -0.282349

# Ionic positions in cartesian coordinates:
ion Pt  -0.000002000000000   7.201812000000000  63.655619000000002 1
ion Pt   2.615997999999999   3.000756000000000  61.958122000000003 1
ion Pt   2.615995999999999  10.202567999999999  60.260688999999999 1
ion Pt   0.000000000000000   0.000000000000000  33.100931999999993 1
ion Pt  -0.000000000000000   6.001512000000000  58.563191999999994 1
ion Pt   2.615994999999999   1.800456000000000  56.865694999999995 1
ion Pt   2.615998999999999   9.002268000000001  55.168197999999990 1
ion Pt  -0.000002000000000   4.801212000000000  53.470702000000003 1
ion Pt   2.615998000000000   0.600156000000000  51.773268999999999 1
ion Pt   2.615995999999999   7.801968000000000  50.075771999999994 1
ion Pt   0.000003000000000   3.600900000000000  48.378274999999995 1
ion Pt   0.000001000000000  10.802712000000000  46.680777999999997 1
ion Pt   2.616001000000000   6.601656000000000  44.983280999999998 1
ion Pt  -0.000000000000000   2.400600000000000  43.285848999999999 1
ion Pt   0.000003000000000   9.602411999999999  41.588351999999993 1
ion Pt   2.615997999999999   5.401356000000000  39.890854999999995 1
ion Pt   0.000003000000000   1.200300000000000  38.193358000000003 1
ion Pt   0.000000999999999   8.402112000000001  36.495860999999998 1
ion Pt   2.616000999999999   4.201056000000000  34.798428999999992 1

# Forces in Cartesian coordinates:
force Pt  -0.000068393147689  -0.005822638566187  -0.013530325533730 1
force Pt  -0.000046436835389  -0.003592636790274   0.009171769858008 1
force Pt  -0.000028440670828   0.009333236267193   0.018284884123087 1
force Pt   0.000069979388563   0.005786985302704   0.013530579910091 1
force Pt  -0.000062028178544   0.003894799842020  -0.007373580768731 1
force Pt  -0.000063639367250  -0.001906843388271  -0.003881712306204 1
force Pt  -0.000054168876283  -0.001361910578761  -0.003688124699180 1
force Pt   0.000083658263223   0.000068730287390   0.001138374686549 1
force Pt  -0.000074491779397  -0.000670598202365   0.000393201305280 1
force Pt  -0.000092836737437  -0.000341696217771  -0.001423505443497 1
force Pt  -0.000011764632730  -0.000009557219851  -0.000165479300528 1
force Pt   0.000109683524047   0.000350700042333   0.001085044287239 1
force Pt   0.000061474489383   0.000676778042461  -0.000702752708777 1
force Pt  -0.000082925003125  -0.000079541912350  -0.001404273800543 1
force Pt   0.000066378773233   0.001354393961822   0.003488843631025 1
force Pt   0.000047658175547   0.001908079385224   0.003744865700978 1
force Pt   0.000077936377566  -0.003898466974434   0.007323591506835 1
force Pt   0.000014281587542  -0.009326334934281  -0.018247476542999 1
force Pt   0.000057748994463   0.003614541845738  -0.009148424297048 1

# Energy components:
   Eewald =    11632.3151147445605602
       EH =    13215.8997441886040178
     Eloc =   -26831.8644950807611167
      Enl =      -20.0966646150767865
     EvdW =       -0.4615802274831846
      Exc =     -540.5978585300645136
 Exc_core =      311.4362420065594961
       KE =      542.8946652435524811
-------------------------------------
     Etot =    -1690.4748322701111647
       TS =        0.0037012923503250
-------------------------------------
        F =    -1690.4785335624615072


Dumping 'jdft.fillings' ... done
Dumping 'jdft.wfns' ... done
Dumping 'jdft.ionpos' ... done
Dumping 'jdft.lattice' ... done
Dumping 'jdft.eigenvals' ... done
Dumping 'jdft.eigStats' ... 
	eMin: -1.633280 at state 30 ( [ -0.454545 +0.000000 +0.000000 ] spin 1 )
	HOMO: +0.316453 at state 100 ( [ -0.181818 +0.000000 +0.000000 ] spin -1 )
	mu  : +0.316513
	LUMO: +0.316550 at state 32 ( [ -0.454545 +0.400000 +0.000000 ] spin 1 )
	eMax: +0.637186 at state 77 ( [ +0.363636 +0.400000 +0.000000 ] spin -1 )
	HOMO-LUMO gap: +0.000097
	Optical gap  : +0.000533 at state 92 ( [ -0.363636 +0.400000 +0.000000 ] spin -1 )
Dumping 'jdft.Ecomponents' ... done
IonicMinimize: Iter:   0  F: -1690.478533562461507  |grad|_K:  5.431e-03  t[s]:   5544.57

#--- Lowdin population analysis ---
# oxidation-state Pt +0.046 +0.012 -0.042 +0.056 +0.005 +0.008 +0.008 +0.007 +0.007 +0.007 +0.007 +0.009 +0.011 +0.012 +0.015 +0.015 +0.014 -0.034 +0.022
# magnetic-moments Pt +0.000 +0.000 +0.000 +0.000 +0.000 +0.000 +0.000 +0.000 +0.000 +0.000 +0.000 +0.000 +0.000 +0.000 +0.000 +0.000 +0.000 +0.000 +0.000


Computing DFT-D3 correction:
# coordination-number Pt 5.593 7.154 8.710 5.593 9.526 9.540 9.560 9.569 9.567 9.566 9.562 9.566 9.567 9.570 9.560 9.541 9.526 8.711 7.155
# diagonal-C6 Pt 336.87 336.87 336.87 336.87 336.87 336.87 336.87 336.87 336.87 336.87 336.87 336.87 336.87 336.87 336.87 336.87 336.87 336.87 336.87
EvdW_6 =   -0.179234
EvdW_8 =   -0.282315

-------- Electronic minimization -----------
	FillingsUpdate:  mu: +0.330531870  nElectrons: 304.000000  magneticMoment: [ Abs: 0.00011  Tot: +0.00010 ]
ElecMinimize: Iter:   0  F: -1690.415923794206265  |grad|_K:  2.335e-05  alpha:  1.000e+00
	FillingsUpdate:  mu: +0.326948875  nElectrons: 304.000000  magneticMoment: [ Abs: 0.00011  Tot: +0.00010 ]
	SubspaceRotationAdjust: set factor to 0.0107
ElecMinimize: Iter:   1  F: -1690.470912459853707  |grad|_K:  8.127e-06  alpha:  3.034e-01  linmin:  2.109e-03  t[s]:   5649.84
	FillingsUpdate:  mu: +0.317353105  nElectrons: 304.000000  magneticMoment: [ Abs: 0.00011  Tot: +0.00010 ]
	SubspaceRotationAdjust: set factor to 0.00564
ElecMinimize: Iter:   2  F: -1690.475537036978722  |grad|_K:  3.611e-06  alpha:  2.107e-01  linmin: -7.888e-06  t[s]:   5707.76
	FillingsUpdate:  mu: +0.316211113  nElectrons: 304.000000  magneticMoment: [ Abs: 0.00011  Tot: +0.00010 ]
	SubspaceRotationAdjust: set factor to 0.00826
ElecMinimize: Iter:   3  F: -1690.476888186943825  |grad|_K:  1.438e-06  alpha:  3.114e-01  linmin:  2.824e-06  t[s]:   5765.71
	FillingsUpdate:  mu: +0.316109472  nElectrons: 304.000000  magneticMoment: [ Abs: 0.00011  Tot: +0.00010 ]
	SubspaceRotationAdjust: set factor to 0.00827
ElecMinimize: Iter:   4  F: -1690.477140722545300  |grad|_K:  8.067e-07  alpha:  3.670e-01  linmin: -2.752e-06  t[s]:   5823.38
	FillingsUpdate:  mu: +0.316110791  nElectrons: 304.000000  magneticMoment: [ Abs: 0.00011  Tot: +0.00010 ]
	SubspaceRotationAdjust: set factor to 0.00869
ElecMinimize: Iter:   5  F: -1690.477258681514968  |grad|_K:  6.695e-07  alpha:  5.447e-01  linmin:  7.144e-07  t[s]:   5881.46
	FillingsUpdate:  mu: +0.316315035  nElectrons: 304.000000  magneticMoment: [ Abs: 0.00011  Tot: +0.00010 ]
	SubspaceRotationAdjust: set factor to 0.0111
ElecMinimize: Iter:   6  F: -1690.477330135171997  |grad|_K:  4.958e-07  alpha:  4.791e-01  linmin:  1.888e-07  t[s]:   5939.15
	FillingsUpdate:  mu: +0.316470117  nElectrons: 304.000000  magneticMoment: [ Abs: 0.00011  Tot: +0.00010 ]
	SubspaceRotationAdjust: set factor to 0.0136
ElecMinimize: Iter:   7  F: -1690.477395482976817  |grad|_K:  6.230e-07  alpha:  7.990e-01  linmin: -7.370e-07  t[s]:   5997.11
	FillingsUpdate:  mu: +0.316511168  nElectrons: 304.000000  magneticMoment: [ Abs: 0.00011  Tot: +0.00010 ]
	SubspaceRotationAdjust: set factor to 0.0141
ElecMinimize: Iter:   8  F: -1690.477519921717203  |grad|_K:  9.999e-07  alpha:  9.635e-01  linmin: -2.285e-06  t[s]:   6055.16
	FillingsUpdate:  mu: +0.316533450  nElectrons: 304.000000  magneticMoment: [ Abs: 0.00010  Tot: +0.00010 ]
	SubspaceRotationAdjust: set factor to 0.0122
ElecMinimize: Iter:   9  F: -1690.477701355277759  |grad|_K:  1.216e-06  alpha:  5.453e-01  linmin:  3.946e-07  t[s]:   6113.05
	FillingsUpdate:  mu: +0.316897949  nElectrons: 304.000000  magneticMoment: [ Abs: 0.00010  Tot: +0.00010 ]
	SubspaceRotationAdjust: set factor to 0.0121
ElecMinimize: Iter:  10  F: -1690.478078394005479  |grad|_K:  1.469e-06  alpha:  7.662e-01  linmin:  5.221e-06  t[s]:   6170.90
	FillingsUpdate:  mu: +0.317867478  nElectrons: 304.000000  magneticMoment: [ Abs: 0.00010  Tot: +0.00010 ]
	SubspaceRotationAdjust: set factor to 0.0124
ElecMinimize: Iter:  11  F: -1690.478677169494176  |grad|_K:  1.596e-06  alpha:  8.345e-01  linmin:  3.370e-06  t[s]:   6228.86
	FillingsUpdate:  mu: +0.318427983  nElectrons: 304.000000  magneticMoment: [ Abs: 0.00010  Tot: +0.00009 ]
	SubspaceRotationAdjust: set factor to 0.0122
ElecMinimize: Iter:  12  F: -1690.479206523888024  |grad|_K:  1.475e-06  alpha:  6.251e-01  linmin: -1.384e-06  t[s]:   6286.76
	FillingsUpdate:  mu: +0.318363201  nElectrons: 304.000000  magneticMoment: [ Abs: 0.00010  Tot: +0.00009 ]
	SubspaceRotationAdjust: set factor to 0.00977
ElecMinimize: Iter:  13  F: -1690.479521851283380  |grad|_K:  1.302e-06  alpha:  4.356e-01  linmin: -7.273e-07  t[s]:   6344.57
	FillingsUpdate:  mu: +0.317972529  nElectrons: 304.000000  magneticMoment: [ Abs: 0.00009  Tot: +0.00009 ]
	SubspaceRotationAdjust: set factor to 0.00863
ElecMinimize: Iter:  14  F: -1690.479761404941883  |grad|_K:  8.816e-07  alpha:  4.248e-01  linmin: -1.273e-06  t[s]:   6402.22
	FillingsUpdate:  mu: +0.317828772  nElectrons: 304.000000  magneticMoment: [ Abs: 0.00009  Tot: +0.00009 ]
	SubspaceRotationAdjust: set factor to 0.00985
ElecMinimize: Iter:  15  F: -1690.479887257894461  |grad|_K:  5.987e-07  alpha:  4.865e-01  linmin: -1.782e-06  t[s]:   6460.33
	FillingsUpdate:  mu: +0.317690975  nElectrons: 304.000000  magneticMoment: [ Abs: 0.00009  Tot: +0.00009 ]
	SubspaceRotationAdjust: set factor to 0.01
ElecMinimize: Iter:  16  F: -1690.479944650190646  |grad|_K:  4.657e-07  alpha:  4.812e-01  linmin: -4.048e-07  t[s]:   6518.43
	FillingsUpdate:  mu: +0.317542367  nElectrons: 304.000000  magneticMoment: [ Abs: 0.00009  Tot: +0.00009 ]
	SubspaceRotationAdjust: set factor to 0.0101
ElecMinimize: Iter:  17  F: -1690.479976639088363  |grad|_K:  3.565e-07  alpha:  4.432e-01  linmin: -7.436e-07  t[s]:   6576.41
	FillingsUpdate:  mu: +0.317426160  nElectrons: 304.000000  magneticMoment: [ Abs: 0.00009  Tot: +0.00009 ]
	SubspaceRotationAdjust: set factor to 0.0126
ElecMinimize: Iter:  18  F: -1690.479998666823576  |grad|_K:  2.869e-07  alpha:  5.209e-01  linmin: -1.046e-06  t[s]:   6634.44
	FillingsUpdate:  mu: +0.317259401  nElectrons: 304.000000  magneticMoment: [ Abs: 0.00009  Tot: +0.00009 ]
	SubspaceRotationAdjust: set factor to 0.0156
ElecMinimize: Iter:  19  F: -1690.480016984264921  |grad|_K:  2.948e-07  alpha:  6.685e-01  linmin: -1.947e-06  t[s]:   6692.41
	FillingsUpdate:  mu: +0.317086287  nElectrons: 304.000000  magneticMoment: [ Abs: 0.00009  Tot: +0.00009 ]
	SubspaceRotationAdjust: set factor to 0.0165
ElecMinimize: Iter:  20  F: -1690.480033961088793  |grad|_K:  3.362e-07  alpha:  5.871e-01  linmin: -2.324e-06  t[s]:   6750.39
	FillingsUpdate:  mu: +0.316913588  nElectrons: 304.000000  magneticMoment: [ Abs: 0.00009  Tot: +0.00009 ]
	SubspaceRotationAdjust: set factor to 0.0146
ElecMinimize: Iter:  21  F: -1690.480048875849889  |grad|_K:  3.368e-07  alpha:  3.964e-01  linmin:  9.570e-09  t[s]:   6808.36
	FillingsUpdate:  mu: +0.316679033  nElectrons: 304.000000  magneticMoment: [ Abs: 0.00009  Tot: +0.00009 ]
	SubspaceRotationAdjust: set factor to 0.0141
ElecMinimize: Iter:  22  F: -1690.480068804896518  |grad|_K:  2.984e-07  alpha:  5.279e-01  linmin: -4.529e-06  t[s]:   6866.31
	FillingsUpdate:  mu: +0.316493120  nElectrons: 304.000000  magneticMoment: [ Abs: 0.00009  Tot: +0.00009 ]
	SubspaceRotationAdjust: set factor to 0.0146
ElecMinimize: Iter:  23  F: -1690.480086730739686  |grad|_K:  2.503e-07  alpha:  6.049e-01  linmin:  2.246e-06  t[s]:   6923.94
	FillingsUpdate:  mu: +0.316413030  nElectrons: 304.000000  magneticMoment: [ Abs: 0.00009  Tot: +0.00009 ]
	SubspaceRotationAdjust: set factor to 0.0154
ElecMinimize: Iter:  24  F: -1690.480098101996191  |grad|_K:  1.945e-07  alpha:  5.457e-01  linmin:  4.184e-06  t[s]:   6981.90
	FillingsUpdate:  mu: +0.316367316  nElectrons: 304.000000  magneticMoment: [ Abs: 0.00009  Tot: +0.00009 ]
	SubspaceRotationAdjust: set factor to 0.0165
ElecMinimize: Iter:  25  F: -1690.480104955364823  |grad|_K:  1.465e-07  alpha:  5.446e-01  linmin:  5.140e-06  t[s]:   7039.59
	FillingsUpdate:  mu: +0.316370384  nElectrons: 304.000000  magneticMoment: [ Abs: 0.00009  Tot: +0.00009 ]
	SubspaceRotationAdjust: set factor to 0.0187
ElecMinimize: Iter:  26  F: -1690.480108547540112  |grad|_K:  1.093e-07  alpha:  5.032e-01  linmin: -4.126e-06  t[s]:   7097.35
	FillingsUpdate:  mu: +0.316390727  nElectrons: 304.000000  magneticMoment: [ Abs: 0.00009  Tot: +0.00008 ]
	SubspaceRotationAdjust: set factor to 0.0195
ElecMinimize: Iter:  27  F: -1690.480110538073859  |grad|_K:  1.039e-07  alpha:  5.009e-01  linmin:  1.850e-05  t[s]:   7155.07
	FillingsUpdate:  mu: +0.316404725  nElectrons: 304.000000  magneticMoment: [ Abs: 0.00009  Tot: +0.00008 ]
	SubspaceRotationAdjust: set factor to 0.0174
ElecMinimize: Iter:  28  F: -1690.480111623265657  |grad|_K:  9.652e-08  alpha:  3.021e-01  linmin: -3.955e-06  t[s]:   7212.94
	FillingsUpdate:  mu: +0.316425829  nElectrons: 304.000000  magneticMoment: [ Abs: 0.00009  Tot: +0.00008 ]
	SubspaceRotationAdjust: set factor to 0.0188
ElecMinimize: Iter:  29  F: -1690.480112852793127  |grad|_K:  7.878e-08  alpha:  3.968e-01  linmin:  1.847e-05  t[s]:   7271.44
	FillingsUpdate:  mu: +0.316465129  nElectrons: 304.000000  magneticMoment: [ Abs: 0.00009  Tot: +0.00008 ]
	SubspaceRotationAdjust: set factor to 0.0221
ElecMinimize: Iter:  30  F: -1690.480114126727358  |grad|_K:  7.953e-08  alpha:  6.171e-01  linmin:  6.695e-06  t[s]:   7329.46
	FillingsUpdate:  mu: +0.316513426  nElectrons: 304.000000  magneticMoment: [ Abs: 0.00009  Tot: +0.00008 ]
	SubspaceRotationAdjust: set factor to 0.0237
ElecMinimize: Iter:  31  F: -1690.480115622435960  |grad|_K:  9.510e-08  alpha:  7.108e-01  linmin: -2.330e-06  t[s]:   7387.19
	FillingsUpdate:  mu: +0.316553413  nElectrons: 304.000000  magneticMoment: [ Abs: 0.00009  Tot: +0.00008 ]
	SubspaceRotationAdjust: set factor to 0.0205
ElecMinimize: Iter:  32  F: -1690.480116783218818  |grad|_K:  1.208e-07  alpha:  3.856e-01  linmin: -3.721e-07  t[s]:   7445.26
	FillingsUpdate:  mu: +0.316593925  nElectrons: 304.000000  magneticMoment: [ Abs: 0.00009  Tot: +0.00008 ]
	SubspaceRotationAdjust: set factor to 0.0168
ElecMinimize: Iter:  33  F: -1690.480118249657153  |grad|_K:  1.010e-07  alpha:  3.022e-01  linmin:  9.728e-07  t[s]:   7503.36
	FillingsUpdate:  mu: +0.316646481  nElectrons: 304.000000  magneticMoment: [ Abs: 0.00008  Tot: +0.00008 ]
	SubspaceRotationAdjust: set factor to 0.0176
ElecMinimize: Iter:  34  F: -1690.480120394216328  |grad|_K:  9.796e-08  alpha:  6.322e-01  linmin:  2.730e-06  t[s]:   7561.47
	FillingsUpdate:  mu: +0.316697340  nElectrons: 304.000000  magneticMoment: [ Abs: 0.00008  Tot: +0.00008 ]
	SubspaceRotationAdjust: set factor to 0.0192
ElecMinimize: Iter:  35  F: -1690.480122298842161  |grad|_K:  8.938e-08  alpha:  5.966e-01  linmin:  7.287e-08  t[s]:   7619.54
	FillingsUpdate:  mu: +0.316737905  nElectrons: 304.000000  magneticMoment: [ Abs: 0.00008  Tot: +0.00008 ]
	SubspaceRotationAdjust: set factor to 0.021
ElecMinimize: Iter:  36  F: -1690.480123925219686  |grad|_K:  8.781e-08  alpha:  6.118e-01  linmin: -1.546e-07  t[s]:   7677.80
	FillingsUpdate:  mu: +0.316734502  nElectrons: 304.000000  magneticMoment: [ Abs: 0.00008  Tot: +0.00008 ]
	SubspaceRotationAdjust: set factor to 0.0187
ElecMinimize: Iter:  37  F: -1690.480124942622751  |grad|_K:  9.698e-08  alpha:  3.965e-01  linmin: -9.900e-07  t[s]:   7735.81
	FillingsUpdate:  mu: +0.316713568  nElectrons: 304.000000  magneticMoment: [ Abs: 0.00008  Tot: +0.00008 ]
	SubspaceRotationAdjust: set factor to 0.0163
ElecMinimize: Iter:  38  F: -1690.480125828515384  |grad|_K:  7.524e-08  alpha:  2.830e-01  linmin:  2.337e-06  t[s]:   7793.79
	FillingsUpdate:  mu: +0.316694787  nElectrons: 304.000000  magneticMoment: [ Abs: 0.00008  Tot: +0.00008 ]
	SubspaceRotationAdjust: set factor to 0.019
ElecMinimize: Iter:  39  F: -1690.480126800133121  |grad|_K:  6.400e-08  alpha:  5.160e-01  linmin:  3.574e-06  t[s]:   7851.41
	FillingsUpdate:  mu: +0.316679872  nElectrons: 304.000000  magneticMoment: [ Abs: 0.00008  Tot: +0.00007 ]
	SubspaceRotationAdjust: set factor to 0.0225
ElecMinimize: Iter:  40  F: -1690.480127643653304  |grad|_K:  5.849e-08  alpha:  6.190e-01  linmin: -1.458e-06  t[s]:   7909.06
	FillingsUpdate:  mu: +0.316635760  nElectrons: 304.000000  magneticMoment: [ Abs: 0.00008  Tot: +0.00007 ]
	SubspaceRotationAdjust: set factor to 0.0263
ElecMinimize: Iter:  41  F: -1690.480128338778059  |grad|_K:  5.475e-08  alpha:  6.105e-01  linmin:  6.321e-07  t[s]:   7966.83
	FillingsUpdate:  mu: +0.316602713  nElectrons: 304.000000  magneticMoment: [ Abs: 0.00008  Tot: +0.00007 ]
	SubspaceRotationAdjust: set factor to 0.0237
ElecMinimize: Iter:  42  F: -1690.480128836521999  |grad|_K:  6.660e-08  alpha:  4.990e-01  linmin: -1.470e-06  t[s]:   8024.82
	FillingsUpdate:  mu: +0.316582304  nElectrons: 304.000000  magneticMoment: [ Abs: 0.00008  Tot: +0.00007 ]
	SubspaceRotationAdjust: set factor to 0.0174
ElecMinimize: Iter:  43  F: -1690.480129115778936  |grad|_K:  5.227e-08  alpha:  1.892e-01  linmin: -1.991e-06  t[s]:   8082.55
	FillingsUpdate:  mu: +0.316555162  nElectrons: 304.000000  magneticMoment: [ Abs: 0.00008  Tot: +0.00007 ]
	SubspaceRotationAdjust: set factor to 0.0207
ElecMinimize: Iter:  44  F: -1690.480129502376258  |grad|_K:  3.915e-08  alpha:  4.247e-01  linmin: -2.077e-05  t[s]:   8140.27
	FillingsUpdate:  mu: +0.316540241  nElectrons: 304.000000  magneticMoment: [ Abs: 0.00008  Tot: +0.00007 ]
	SubspaceRotationAdjust: set factor to 0.023
ElecMinimize: Iter:  45  F: -1690.480129775683508  |grad|_K:  3.680e-08  alpha:  5.350e-01  linmin: -1.332e-05  t[s]:   8198.32
	FillingsUpdate:  mu: +0.316531571  nElectrons: 304.000000  magneticMoment: [ Abs: 0.00008  Tot: +0.00007 ]
	SubspaceRotationAdjust: set factor to 0.0198
ElecMinimize: Iter:  46  F: -1690.480129910459027  |grad|_K:  3.927e-08  alpha:  2.994e-01  linmin:  2.142e-06  t[s]:   8256.21
	FillingsUpdate:  mu: +0.316521424  nElectrons: 304.000000  magneticMoment: [ Abs: 0.00007  Tot: +0.00007 ]
	SubspaceRotationAdjust: set factor to 0.0195
ElecMinimize: Iter:  47  F: -1690.480130057106180  |grad|_K:  2.705e-08  alpha:  2.856e-01  linmin:  6.191e-06  t[s]:   8314.10
	FillingsUpdate:  mu: +0.316517828  nElectrons: 304.000000  magneticMoment: [ Abs: 0.00007  Tot: +0.00007 ]
	SubspaceRotationAdjust: set factor to 0.0242
ElecMinimize: Iter:  48  F: -1690.480130191220724  |grad|_K:  2.288e-08  alpha:  5.495e-01  linmin: -7.531e-05  t[s]:   8372.09
	FillingsUpdate:  mu: +0.316521630  nElectrons: 304.000000  magneticMoment: [ Abs: 0.00007  Tot: +0.00007 ]
	SubspaceRotationAdjust: set factor to 0.028
ElecMinimize: Iter:  49  F: -1690.480130289370436  |grad|_K:  2.210e-08  alpha:  5.621e-01  linmin:  3.090e-05  t[s]:   8430.97
	FillingsUpdate:  mu: +0.316522179  nElectrons: 304.000000  magneticMoment: [ Abs: 0.00007  Tot: +0.00007 ]
	SubspaceRotationAdjust: set factor to 0.0217
ElecMinimize: Iter:  50  F: -1690.480130340964479  |grad|_K:  2.680e-08  alpha:  3.184e-01  linmin:  1.934e-05  t[s]:   8488.84
ElecMinimize: Converged (|Delta F|<1.000000e-07 for 2 iters).
Setting wave functions to eigenvectors of Hamiltonian
Converging empty states (this may take a while): |deigs|: 1.212e-07

Computing DFT-D3 correction:
# coordination-number Pt 5.593 7.154 8.710 5.593 9.526 9.540 9.560 9.569 9.567 9.566 9.562 9.566 9.567 9.570 9.560 9.541 9.526 8.711 7.155
# diagonal-C6 Pt 336.87 336.87 336.87 336.87 336.87 336.87 336.87 336.87 336.87 336.87 336.87 336.87 336.87 336.87 336.87 336.87 336.87 336.87 336.87
EvdW_6 =   -0.179234
EvdW_8 =   -0.282315

# Ionic positions in cartesian coordinates:
ion Pt  -0.000070586534263   7.195990518265795  63.642162595539538 1
ion Pt   2.615951369778036   2.997164520041709  61.967367690931283 1
ion Pt   2.615967365942597  10.211902393099175  60.279047805196363 1
ion Pt   0.000069786001989   0.005788142134686  33.114536500983355 1
ion Pt  -0.000062221565118   6.005407956674003  58.555892340304538 1
ion Pt   2.615931167246176   1.798550313443712  56.861887208767065 1
ion Pt   2.615944637737143   9.000907246253222  55.164583796374082 1
ion Pt   0.000081464876649   4.801281887119372  53.471914295759824 1
ion Pt   2.615923314834029   0.599486558629617  51.773736122378551 1
ion Pt   2.615902969875989   7.801627460614211  50.074422415629769 1
ion Pt  -0.000008958019304   3.600891599612131  48.378183441772741 1
ion Pt   0.000110490137473  10.803063856874315  46.681936965360507 1
ion Pt   2.616062281102809   6.602333934874444  44.982652168364488 1
ion Pt  -0.000083118389699   2.400521614919632  43.284518647272726 1
ion Pt   0.000069185386659   9.603767550793805  41.591914764704292 1
ion Pt   2.616045464788973   5.403265236217207  39.894673786774241 1
ion Pt   0.000080742990992   1.196402689857548  38.200755512580109 1
ion Pt   0.000015088200968   8.392786821897703  36.477687444530261 1
ion Pt   2.616058555607889   4.204671698677720  34.789354496776220 1

# Forces in Cartesian coordinates:
force Pt  -0.000072719917228  -0.005928195062926  -0.012395931373996 1
force Pt  -0.000052610060761  -0.002826309758973   0.007981266414664 1
force Pt  -0.000026272630895   0.008751763707133   0.016045593968188 1
force Pt   0.000072303611502   0.005885887467807   0.012370102041285 1
force Pt  -0.000056512314085   0.003639531994056  -0.006629567656921 1
force Pt  -0.000055661148566  -0.002150027441324  -0.002771271518664 1
force Pt  -0.000059642520658  -0.000737650581146  -0.002870089485024 1
force Pt   0.000066522151223   0.000020963515707   0.000544894071449 1
force Pt  -0.000068365362095  -0.000597266832594   0.000056218393645 1
force Pt  -0.000078105415845  -0.000495352426068  -0.001617590050894 1
force Pt  -0.000011197227919  -0.000008036933629  -0.000227729917130 1
force Pt   0.000093361596222   0.000503531927294   0.001152190891861 1
force Pt   0.000054979198635   0.000601199437501  -0.000493956004160 1
force Pt  -0.000065898940902  -0.000028946120389  -0.000941158572942 1
force Pt   0.000071979493324   0.000726316084043   0.002543899572434 1
force Pt   0.000040613727202   0.002147889740216   0.002516431266576 1
force Pt   0.000072616611765  -0.003639686132440   0.006480589800569 1
force Pt   0.000011857163915  -0.008743462130426  -0.016094304140446 1
force Pt   0.000061835629071   0.002847107402922  -0.008023144487302 1

# Energy components:
   Eewald =    11631.5234612507174461
       EH =    13215.1046446310338069
     Eloc =   -26830.2775835233987891
      Enl =      -20.0955937217872389
     EvdW =       -0.4615485539973913
      Exc =     -540.5984021281323066
 Exc_core =      311.4362435665968860
       KE =      542.8923401942838609
-------------------------------------
     Etot =    -1690.4764382846833541
       TS =        0.0036920562811598
-------------------------------------
        F =    -1690.4801303409644788


Dumping 'jdft.fillings' ... done
Dumping 'jdft.wfns' ... done
Dumping 'jdft.ionpos' ... done
Dumping 'jdft.lattice' ... done
Dumping 'jdft.eigenvals' ... done
Dumping 'jdft.eigStats' ... 
	eMin: -1.633272 at state 30 ( [ -0.454545 +0.000000 +0.000000 ] spin 1 )
	HOMO: +0.316512 at state 83 ( [ +0.454545 -0.400000 +0.000000 ] spin -1 )
	mu  : +0.316522
	LUMO: +0.316523 at state 10 ( [ +0.181818 +0.000000 +0.000000 ] spin 1 )
	eMax: +0.637378 at state 77 ( [ +0.363636 +0.400000 +0.000000 ] spin -1 )
	HOMO-LUMO gap: +0.000011
	Optical gap  : +0.000546 at state 37 ( [ -0.363636 +0.400000 +0.000000 ] spin 1 )
Dumping 'jdft.Ecomponents' ... done
IonicMinimize: Iter:   1  F: -1690.480130340964479  |grad|_K:  4.863e-03  alpha:  1.000e+00  linmin: -9.979e-01  t[s]:   8570.77

#--- Lowdin population analysis ---
# oxidation-state Pt +0.047 +0.010 -0.045 +0.061 +0.000 +0.003 +0.006 +0.007 +0.007 +0.007 +0.007 +0.010 +0.014 +0.015 +0.017 +0.014 +0.012 -0.033 +0.024
# magnetic-moments Pt +0.000 +0.000 +0.000 +0.000 +0.000 +0.000 +0.000 +0.000 +0.000 +0.000 +0.000 +0.000 +0.000 +0.000 +0.000 +0.000 +0.000 +0.000 +0.000


Computing DFT-D3 correction:
# coordination-number Pt 5.739 7.193 8.665 5.741 9.417 9.482 9.540 9.547 9.573 9.582 9.597 9.583 9.575 9.551 9.546 9.489 9.424 8.672 7.197
# diagonal-C6 Pt 336.87 336.87 336.87 336.87 336.87 336.87 336.87 336.87 336.87 336.87 336.87 336.87 336.87 336.87 336.87 336.87 336.87 336.87 336.87
EvdW_6 =   -0.179242
EvdW_8 =   -0.282228

-------- Electronic minimization -----------
	FillingsUpdate:  mu: +0.355421729  nElectrons: 304.000000  magneticMoment: [ Abs: 0.00006  Tot: +0.00006 ]
ElecMinimize: Iter:   0  F: -1688.859003268740480  |grad|_K:  1.151e-04  alpha:  1.000e+00
	FillingsUpdate:  mu: +0.359579845  nElectrons: 304.000000  magneticMoment: [ Abs: 0.00006  Tot: +0.00006 ]
	SubspaceRotationAdjust: set factor to 0.0191
ElecMinimize: Iter:   1  F: -1690.265777958611352  |grad|_K:  3.880e-05  alpha:  3.291e-01  linmin:  4.591e-02  t[s]:   8676.03
	FillingsUpdate:  mu: +0.358981218  nElectrons: 304.000000  magneticMoment: [ Abs: 0.00006  Tot: +0.00006 ]
	SubspaceRotationAdjust: set factor to 0.0112
ElecMinimize: Iter:   2  F: -1690.356423563110866  |grad|_K:  2.434e-05  alpha:  1.864e-01  linmin: -1.878e-04  t[s]:   8734.42
	FillingsUpdate:  mu: +0.317684470  nElectrons: 304.000000  magneticMoment: [ Abs: 0.00006  Tot: +0.00006 ]
	SubspaceRotationAdjust: set factor to 0.0126
ElecMinimize: Iter:   3  F: -1690.399672680176536  |grad|_K:  8.561e-06  alpha:  2.192e-01  linmin:  1.339e-04  t[s]:   8792.63
	FillingsUpdate:  mu: +0.318365673  nElectrons: 304.000000  magneticMoment: [ Abs: 0.00006  Tot: +0.00006 ]
	SubspaceRotationAdjust: set factor to 0.0137
ElecMinimize: Iter:   4  F: -1690.408745232651654  |grad|_K:  5.237e-06  alpha:  3.721e-01  linmin: -8.674e-05  t[s]:   8850.51
	FillingsUpdate:  mu: +0.317201747  nElectrons: 304.000000  magneticMoment: [ Abs: 0.00006  Tot: +0.00006 ]
	SubspaceRotationAdjust: set factor to 0.0115
ElecMinimize: Iter:   5  F: -1690.411902126757923  |grad|_K:  4.643e-06  alpha:  3.457e-01  linmin: -1.019e-05  t[s]:   8908.53
	FillingsUpdate:  mu: +0.315739938  nElectrons: 304.000000  magneticMoment: [ Abs: 0.00006  Tot: +0.00006 ]
	SubspaceRotationAdjust: set factor to 0.0148
ElecMinimize: Iter:   6  F: -1690.415202708912148  |grad|_K:  3.261e-06  alpha:  4.600e-01  linmin:  1.754e-05  t[s]:   8966.36
	FillingsUpdate:  mu: +0.316184546  nElectrons: 304.000000  magneticMoment: [ Abs: 0.00006  Tot: +0.00006 ]
	SubspaceRotationAdjust: set factor to 0.0181
ElecMinimize: Iter:   7  F: -1690.417432954960987  |grad|_K:  3.691e-06  alpha:  6.305e-01  linmin: -2.003e-05  t[s]:   9024.55
	FillingsUpdate:  mu: +0.323495836  nElectrons: 304.000000  magneticMoment: [ Abs: 0.00006  Tot: +0.00006 ]
	SubspaceRotationAdjust: set factor to 0.0157
ElecMinimize: Iter:   8  F: -1690.420228922417436  |grad|_K:  5.878e-06  alpha:  6.163e-01  linmin: -1.014e-05  t[s]:   9082.57
	FillingsUpdate:  mu: +0.319997856  nElectrons: 304.000000  magneticMoment: [ Abs: 0.00006  Tot: +0.00006 ]
	SubspaceRotationAdjust: set factor to 0.014
ElecMinimize: Iter:   9  F: -1690.425746990351854  |grad|_K:  6.164e-06  alpha:  4.791e-01  linmin:  4.318e-06  t[s]:   9140.41
	FillingsUpdate:  mu: +0.321267967  nElectrons: 304.000000  magneticMoment: [ Abs: 0.00006  Tot: +0.00006 ]
	SubspaceRotationAdjust: set factor to 0.0152
ElecMinimize: Iter:  10  F: -1690.436576471054195  |grad|_K:  7.328e-06  alpha:  8.547e-01  linmin: -1.951e-05  t[s]:   9198.22
	FillingsUpdate:  mu: +0.341395720  nElectrons: 304.000000  magneticMoment: [ Abs: 0.00006  Tot: +0.00006 ]
	SubspaceRotationAdjust: set factor to 0.0148
ElecMinimize: Iter:  11  F: -1690.450434447604721  |grad|_K:  9.259e-06  alpha:  7.717e-01  linmin:  4.431e-05  t[s]:   9256.04
	FillingsUpdate:  mu: +0.342135514  nElectrons: 304.000000  magneticMoment: [ Abs: 0.00006  Tot: +0.00005 ]
	SubspaceRotationAdjust: set factor to 0.0118
ElecMinimize: Iter:  12  F: -1690.460168625008237  |grad|_K:  7.997e-06  alpha:  3.285e-01  linmin: -2.521e-04  t[s]:   9313.89
	FillingsUpdate:  mu: +0.332592710  nElectrons: 304.000000  magneticMoment: [ Abs: 0.00006  Tot: +0.00005 ]
	SubspaceRotationAdjust: set factor to 0.0144
ElecMinimize: Iter:  13  F: -1690.470287280695402  |grad|_K:  5.896e-06  alpha:  4.567e-01  linmin: -8.591e-05  t[s]:   9372.20
	FillingsUpdate:  mu: +0.334382797  nElectrons: 304.000000  magneticMoment: [ Abs: 0.00006  Tot: +0.00005 ]
	SubspaceRotationAdjust: set factor to 0.0147
ElecMinimize: Iter:  14  F: -1690.476343746118118  |grad|_K:  5.480e-06  alpha:  5.182e-01  linmin: -4.855e-05  t[s]:   9430.39
	FillingsUpdate:  mu: +0.329281860  nElectrons: 304.000000  magneticMoment: [ Abs: 0.00006  Tot: +0.00005 ]
	SubspaceRotationAdjust: set factor to 0.0115
ElecMinimize: Iter:  15  F: -1690.479510204016378  |grad|_K:  4.312e-06  alpha:  3.158e-01  linmin:  1.524e-06  t[s]:   9488.43
	FillingsUpdate:  mu: +0.323508156  nElectrons: 304.000000  magneticMoment: [ Abs: 0.00005  Tot: +0.00005 ]
	SubspaceRotationAdjust: set factor to 0.0122
ElecMinimize: Iter:  16  F: -1690.482004408202101  |grad|_K:  2.801e-06  alpha:  4.029e-01  linmin: -3.904e-05  t[s]:   9546.43
	FillingsUpdate:  mu: +0.323159977  nElectrons: 304.000000  magneticMoment: [ Abs: 0.00005  Tot: +0.00005 ]
	SubspaceRotationAdjust: set factor to 0.0136
ElecMinimize: Iter:  17  F: -1690.483408635069054  |grad|_K:  2.298e-06  alpha:  5.367e-01  linmin: -3.805e-06  t[s]:   9604.25
	FillingsUpdate:  mu: +0.321966172  nElectrons: 304.000000  magneticMoment: [ Abs: 0.00005  Tot: +0.00005 ]
	SubspaceRotationAdjust: set factor to 0.0116
ElecMinimize: Iter:  18  F: -1690.484101884835127  |grad|_K:  1.935e-06  alpha:  3.945e-01  linmin: -3.531e-06  t[s]:   9662.44
	FillingsUpdate:  mu: +0.319999676  nElectrons: 304.000000  magneticMoment: [ Abs: 0.00005  Tot: +0.00005 ]
	SubspaceRotationAdjust: set factor to 0.0105
ElecMinimize: Iter:  19  F: -1690.484563605120002  |grad|_K:  1.355e-06  alpha:  3.706e-01  linmin: -1.411e-05  t[s]:   9720.65
	FillingsUpdate:  mu: +0.319464570  nElectrons: 304.000000  magneticMoment: [ Abs: 0.00005  Tot: +0.00005 ]
	SubspaceRotationAdjust: set factor to 0.0127
ElecMinimize: Iter:  20  F: -1690.484896170997899  |grad|_K:  1.104e-06  alpha:  5.443e-01  linmin: -7.774e-06  t[s]:   9778.92
	FillingsUpdate:  mu: +0.318861028  nElectrons: 304.000000  magneticMoment: [ Abs: 0.00005  Tot: +0.00005 ]
	SubspaceRotationAdjust: set factor to 0.0133
ElecMinimize: Iter:  21  F: -1690.485121611440491  |grad|_K:  1.021e-06  alpha:  5.559e-01  linmin: -8.790e-06  t[s]:   9837.05
	FillingsUpdate:  mu: +0.318350402  nElectrons: 304.000000  magneticMoment: [ Abs: 0.00005  Tot: +0.00005 ]
	SubspaceRotationAdjust: set factor to 0.012
ElecMinimize: Iter:  22  F: -1690.485264071944357  |grad|_K:  9.498e-07  alpha:  4.105e-01  linmin: -1.019e-06  t[s]:   9894.91
	FillingsUpdate:  mu: +0.318047787  nElectrons: 304.000000  magneticMoment: [ Abs: 0.00005  Tot: +0.00005 ]
	SubspaceRotationAdjust: set factor to 0.0127
ElecMinimize: Iter:  23  F: -1690.485429525404697  |grad|_K:  8.554e-07  alpha:  5.512e-01  linmin:  1.052e-06  t[s]:   9953.16
	FillingsUpdate:  mu: +0.317866563  nElectrons: 304.000000  magneticMoment: [ Abs: 0.00005  Tot: +0.00005 ]
	SubspaceRotationAdjust: set factor to 0.0144
ElecMinimize: Iter:  24  F: -1690.485598586247306  |grad|_K:  8.204e-07  alpha:  6.945e-01  linmin:  1.227e-05  t[s]:  10011.18
	FillingsUpdate:  mu: +0.317540773  nElectrons: 304.000000  magneticMoment: [ Abs: 0.00005  Tot: +0.00005 ]
	SubspaceRotationAdjust: set factor to 0.0139
ElecMinimize: Iter:  25  F: -1690.485729798407647  |grad|_K:  8.438e-07  alpha:  5.860e-01  linmin:  3.539e-06  t[s]:  10069.13
	FillingsUpdate:  mu: +0.317395856  nElectrons: 304.000000  magneticMoment: [ Abs: 0.00005  Tot: +0.00005 ]
	SubspaceRotationAdjust: set factor to 0.0108
ElecMinimize: Iter:  26  F: -1690.485819988342655  |grad|_K:  7.604e-07  alpha:  3.806e-01  linmin: -6.777e-07  t[s]:  10127.01
	FillingsUpdate:  mu: +0.317284121  nElectrons: 304.000000  magneticMoment: [ Abs: 0.00005  Tot: +0.00005 ]
	SubspaceRotationAdjust: set factor to 0.0106
ElecMinimize: Iter:  27  F: -1690.485911746756301  |grad|_K:  5.564e-07  alpha:  4.770e-01  linmin:  2.766e-05  t[s]:  10184.81
	FillingsUpdate:  mu: +0.317025834  nElectrons: 304.000000  magneticMoment: [ Abs: 0.00005  Tot: +0.00005 ]
	SubspaceRotationAdjust: set factor to 0.0113
ElecMinimize: Iter:  28  F: -1690.485967197282207  |grad|_K:  4.434e-07  alpha:  5.386e-01  linmin:  3.720e-06  t[s]:  10242.86
	FillingsUpdate:  mu: +0.316984175  nElectrons: 304.000000  magneticMoment: [ Abs: 0.00005  Tot: +0.00005 ]
	SubspaceRotationAdjust: set factor to 0.0101
ElecMinimize: Iter:  29  F: -1690.485998762322424  |grad|_K:  3.605e-07  alpha:  4.825e-01  linmin:  2.081e-06  t[s]:  10300.86
	FillingsUpdate:  mu: +0.316967262  nElectrons: 304.000000  magneticMoment: [ Abs: 0.00005  Tot: +0.00005 ]
	SubspaceRotationAdjust: set factor to 0.00889
ElecMinimize: Iter:  30  F: -1690.486016125193601  |grad|_K:  2.653e-07  alpha:  4.014e-01  linmin:  3.307e-06  t[s]:  10358.83
	FillingsUpdate:  mu: +0.316901193  nElectrons: 304.000000  magneticMoment: [ Abs: 0.00005  Tot: +0.00005 ]
	SubspaceRotationAdjust: set factor to 0.0104
ElecMinimize: Iter:  31  F: -1690.486027964398545  |grad|_K:  2.015e-07  alpha:  5.055e-01  linmin: -1.122e-06  t[s]:  10416.92
	FillingsUpdate:  mu: +0.316886000  nElectrons: 304.000000  magneticMoment: [ Abs: 0.00005  Tot: +0.00005 ]
	SubspaceRotationAdjust: set factor to 0.0117
ElecMinimize: Iter:  32  F: -1690.486035715124217  |grad|_K:  1.809e-07  alpha:  5.736e-01  linmin:  7.962e-08  t[s]:  10474.75
	FillingsUpdate:  mu: +0.316885201  nElectrons: 304.000000  magneticMoment: [ Abs: 0.00005  Tot: +0.00005 ]
	SubspaceRotationAdjust: set factor to 0.0116
ElecMinimize: Iter:  33  F: -1690.486041173441436  |grad|_K:  1.712e-07  alpha:  5.012e-01  linmin:  1.493e-07  t[s]:  10533.22
	FillingsUpdate:  mu: +0.316872089  nElectrons: 304.000000  magneticMoment: [ Abs: 0.00005  Tot: +0.00005 ]
	SubspaceRotationAdjust: set factor to 0.0121
ElecMinimize: Iter:  34  F: -1690.486046332574233  |grad|_K:  1.661e-07  alpha:  5.290e-01  linmin:  9.092e-08  t[s]:  10591.13
	FillingsUpdate:  mu: +0.316899194  nElectrons: 304.000000  magneticMoment: [ Abs: 0.00005  Tot: +0.00005 ]
	SubspaceRotationAdjust: set factor to 0.014
ElecMinimize: Iter:  35  F: -1690.486053063340705  |grad|_K:  1.692e-07  alpha:  7.332e-01  linmin:  2.321e-06  t[s]:  10649.52
	FillingsUpdate:  mu: +0.316996550  nElectrons: 304.000000  magneticMoment: [ Abs: 0.00005  Tot: +0.00005 ]
	SubspaceRotationAdjust: set factor to 0.0149
ElecMinimize: Iter:  36  F: -1690.486060003836883  |grad|_K:  1.942e-07  alpha:  7.285e-01  linmin:  1.367e-06  t[s]:  10707.69
	FillingsUpdate:  mu: +0.317057967  nElectrons: 304.000000  magneticMoment: [ Abs: 0.00005  Tot: +0.00005 ]
	SubspaceRotationAdjust: set factor to 0.0132
ElecMinimize: Iter:  37  F: -1690.486066627398031  |grad|_K:  2.238e-07  alpha:  5.278e-01  linmin:  7.978e-07  t[s]:  10765.49
	FillingsUpdate:  mu: +0.317098157  nElectrons: 304.000000  magneticMoment: [ Abs: 0.00005  Tot: +0.00005 ]
	SubspaceRotationAdjust: set factor to 0.0115
[...]
ElecMinimize: Iter:  22  F: -1690.490323299012971  |grad|_K:  2.656e-08  alpha:  3.657e-01  linmin: -3.858e-06  t[s]:  41803.01
	FillingsUpdate:  mu: +0.317396877  nElectrons: 304.000000  magneticMoment: [ Abs: 0.00000  Tot: +0.00000 ]
	SubspaceRotationAdjust: set factor to 0.0142
ElecMinimize: Iter:  23  F: -1690.490323433768026  |grad|_K:  2.287e-08  alpha:  5.731e-01  linmin: -1.842e-05  t[s]:  41861.18
	FillingsUpdate:  mu: +0.317380236  nElectrons: 304.000000  magneticMoment: [ Abs: 0.00000  Tot: +0.00000 ]
	SubspaceRotationAdjust: set factor to 0.0147
ElecMinimize: Iter:  24  F: -1690.490323531691956  |grad|_K:  2.245e-08  alpha:  5.616e-01  linmin: -4.269e-05  t[s]:  41919.42
	FillingsUpdate:  mu: +0.317383371  nElectrons: 304.000000  magneticMoment: [ Abs: 0.00000  Tot: +0.00000 ]
	SubspaceRotationAdjust: set factor to 0.0125
ElecMinimize: Iter:  25  F: -1690.490323601732371  |grad|_K:  2.141e-08  alpha:  4.165e-01  linmin: -3.613e-05  t[s]:  41977.96
ElecMinimize: Converged (|Delta F|<1.000000e-07 for 2 iters).
Setting wave functions to eigenvectors of Hamiltonian
Converging empty states (this may take a while): |deigs|: 6.148e-08

Computing DFT-D3 correction:
# coordination-number Pt 5.964 7.107 8.558 5.965 9.219 9.395 9.497 9.519 9.560 9.558 9.573 9.559 9.562 9.523 9.502 9.403 9.226 8.564 7.111
# diagonal-C6 Pt 336.87 336.87 336.87 336.87 336.87 336.87 336.87 336.87 336.87 336.87 336.87 336.87 336.87 336.87 336.87 336.87 336.87 336.87 336.87
EvdW_6 =   -0.179060
EvdW_8 =   -0.282279

# Ionic positions in cartesian coordinates:
ion Pt  -0.004131125875040   7.031749311235706  63.422527224571134 1
ion Pt   2.611193505096293   2.921525034462425  62.117852579735938 1
ion Pt   2.611730460242190  10.313927164945007  60.493019938393005 1
ion Pt   0.004631438946560   0.169765874113161  33.336568133799076 1
ion Pt  -0.007526375264315   6.057756313147074  58.453881321522090 1
ion Pt   2.606922989010127   1.787458685899459  56.912099228038755 1
ion Pt   2.605476281566229   9.066334990573740  55.152275729001929 1
ion Pt  -0.008258826276239   4.826662039515209  53.483126252428157 1
ion Pt   2.609625082608349   0.615921420697830  51.780257217108726 1
ion Pt   2.612742360588141   7.797511262086750  50.052571036943327 1
ion Pt  -0.000225239879941   3.600842746934484  48.377256039699162 1
ion Pt   0.003320474918088  10.807108612225322  46.701830801321421 1
ion Pt   2.622077660285086   6.586039705848901  44.974312593539167 1
ion Pt   0.008076022596339   2.374892620421021  43.271894379314624 1
ion Pt   0.010487016822589   9.538326206944669  41.602648714684527 1
ion Pt   2.624760356428130   5.414156055445364  39.844758482811621 1
ion Pt   0.007902876687829   1.144491831732426  38.303066890339444 1
ion Pt   0.004186903190365   8.290891611437349  36.265815612257455 1
ion Pt   2.620997138309210   4.280450512334107  34.641465824490382 1

# Forces in Cartesian coordinates:
force Pt  -0.000031341334445  -0.000019734711710  -0.000163278594151 1
force Pt  -0.000026630649526  -0.000069019969518  -0.000032024680565 1
force Pt  -0.000029847349475  -0.000110934971805  -0.000077910762225 1
force Pt   0.000022992696164   0.000073932736559  -0.000038441492075 1
force Pt  -0.000022061946828  -0.000098753707648   0.000028107888500 1
force Pt  -0.000027977683017  -0.000137051772783   0.000111355184247 1
force Pt  -0.000017285878056  -0.000075914690569   0.000210337377553 1
force Pt  -0.000014318252680  -0.000022200487251   0.000360020538116 1
force Pt  -0.000011477050671   0.000014645972582   0.000293955609742 1
force Pt  -0.000008191563445   0.000035974805926   0.000289832461750 1
force Pt  -0.000001123709020  -0.000009019670468   0.000227764722034 1
force Pt   0.000010299637953  -0.000032056953635   0.000177899500194 1
force Pt   0.000013623577902  -0.000012235115300   0.000171750914034 1
force Pt   0.000019283194451   0.000022156412428   0.000077313126383 1
force Pt   0.000016091034940   0.000087483945545   0.000177329970136 1
force Pt   0.000027480812888   0.000147386002942   0.000055297955187 1
force Pt   0.000021338972666   0.000088015042075   0.000017114872715 1
force Pt   0.000027531321373   0.000039103521625  -0.000132396510758 1
force Pt   0.000023026907527   0.000091000238896  -0.000244203354032 1

# Energy components:
   Eewald =    11606.7354262740755075
       EH =    13190.3576050790870795
     Eloc =   -26780.7353864461802004
      Enl =      -20.0339929706296367
     EvdW =       -0.4613387117571764
      Exc =     -540.6260648295105966
 Exc_core =      311.4362483245474778
       KE =      542.8404624469631017
-------------------------------------
     Etot =    -1690.4870408334027161
       TS =        0.0032827683296374
-------------------------------------
        F =    -1690.4903236017323707


Dumping 'jdft.fillings' ... done
Dumping 'jdft.wfns' ... done
Dumping 'jdft.ionpos' ... done
Dumping 'jdft.lattice' ... done
Dumping 'jdft.eigenvals' ... done
Dumping 'jdft.eigStats' ... 
	eMin: -1.632667 at state 2 ( [ +0.000000 +0.400000 +0.000000 ] spin 1 )
	HOMO: +0.317366 at state 58 ( [ +0.000000 -0.400000 +0.000000 ] spin -1 )
	mu  : +0.317383
	LUMO: +0.317415 at state 29 ( [ +0.454545 -0.200000 +0.000000 ] spin 1 )
	eMax: +0.640473 at state 93 ( [ -0.363636 -0.400000 +0.000000 ] spin -1 )
	HOMO-LUMO gap: +0.000049
	Optical gap  : +0.000831 at state 50 ( [ -0.090909 +0.000000 +0.000000 ] spin 1 )
Dumping 'jdft.Ecomponents' ... done
IonicMinimize: Iter:  14  F: -1690.490323601732371  |grad|_K:  1.043e-04  alpha:  1.000e+00  linmin:  2.666e-03  t[s]:  42037.70

#--- Lowdin population analysis ---
# oxidation-state Pt +0.054 +0.028 -0.036 +0.045 +0.015 +0.012 +0.018 +0.015 +0.014 +0.008 +0.004 +0.005 +0.008 +0.007 +0.008 +0.004 +0.006 -0.044 +0.020
# magnetic-moments Pt +0.000 +0.000 +0.000 +0.000 +0.000 +0.000 +0.000 +0.000 +0.000 +0.000 +0.000 +0.000 +0.000 +0.000 +0.000 +0.000 +0.000 +0.000 +0.000


Computing DFT-D3 correction:
# coordination-number Pt 5.964 7.101 8.559 5.966 9.218 9.395 9.498 9.520 9.560 9.556 9.571 9.558 9.561 9.523 9.503 9.401 9.224 8.564 7.105
# diagonal-C6 Pt 336.87 336.87 336.87 336.87 336.87 336.87 336.87 336.87 336.87 336.87 336.87 336.87 336.87 336.87 336.87 336.87 336.87 336.87 336.87
EvdW_6 =   -0.179053
EvdW_8 =   -0.282266

-------- Electronic minimization -----------
	FillingsUpdate:  mu: +0.328838335  nElectrons: 304.000000  magneticMoment: [ Abs: 0.00000  Tot: +0.00000 ]
ElecMinimize: Iter:   0  F: -1690.489187129099264  |grad|_K:  4.462e-06  alpha:  1.000e+00
	FillingsUpdate:  mu: +0.317244371  nElectrons: 304.000000  magneticMoment: [ Abs: 0.00000  Tot: +0.00000 ]
	SubspaceRotationAdjust: set factor to 0.0313
ElecMinimize: Iter:   1  F: -1690.490268460757534  |grad|_K:  5.192e-07  alpha:  1.632e-01  linmin:  4.946e-04  t[s]:  42145.53
	FillingsUpdate:  mu: +0.317097184  nElectrons: 304.000000  magneticMoment: [ Abs: 0.00000  Tot: +0.00000 ]
	SubspaceRotationAdjust: set factor to 0.036
ElecMinimize: Iter:   2  F: -1690.490303011825745  |grad|_K:  2.476e-07  alpha:  3.853e-01  linmin: -1.952e-05  t[s]:  42203.64
	FillingsUpdate:  mu: +0.317263844  nElectrons: 304.000000  magneticMoment: [ Abs: 0.00000  Tot: +0.00000 ]
	SubspaceRotationAdjust: set factor to 0.0296
ElecMinimize: Iter:   3  F: -1690.490311391911746  |grad|_K:  2.518e-07  alpha:  4.108e-01  linmin: -1.102e-05  t[s]:  42261.55
	FillingsUpdate:  mu: +0.317275752  nElectrons: 304.000000  magneticMoment: [ Abs: 0.00000  Tot: +0.00000 ]
	SubspaceRotationAdjust: set factor to 0.018
ElecMinimize: Iter:   4  F: -1690.490313842832165  |grad|_K:  1.586e-07  alpha:  1.162e-01  linmin: -2.766e-06  t[s]:  42319.50
ElecMinimize: 	Predicted alpha/alphaT>3.000000, increasing alphaT to 3.485983e-01.
	FillingsUpdate:  mu: +0.317190832  nElectrons: 304.000000  magneticMoment: [ Abs: 0.00000  Tot: +0.00000 ]
	SubspaceRotationAdjust: set factor to 0.0275
ElecMinimize: Iter:   5  F: -1690.490317305737335  |grad|_K:  1.001e-07  alpha:  4.135e-01  linmin:  5.658e-06  t[s]:  42392.45
	FillingsUpdate:  mu: +0.317258756  nElectrons: 304.000000  magneticMoment: [ Abs: 0.00000  Tot: +0.00000 ]
	SubspaceRotationAdjust: set factor to 0.0202
ElecMinimize: Iter:   6  F: -1690.490318453762256  |grad|_K:  1.099e-07  alpha:  3.441e-01  linmin:  2.257e-06  t[s]:  42450.78
	FillingsUpdate:  mu: +0.317301466  nElectrons: 304.000000  magneticMoment: [ Abs: 0.00000  Tot: +0.00000 ]
	SubspaceRotationAdjust: set factor to 0.0149
ElecMinimize: Iter:   7  F: -1690.490319227611963  |grad|_K:  6.132e-08  alpha:  1.924e-01  linmin:  5.738e-06  t[s]:  42509.07
	FillingsUpdate:  mu: +0.317226356  nElectrons: 304.000000  magneticMoment: [ Abs: 0.00000  Tot: +0.00000 ]
	SubspaceRotationAdjust: set factor to 0.0173
ElecMinimize: Iter:   8  F: -1690.490319947089120  |grad|_K:  4.867e-08  alpha:  5.752e-01  linmin:  6.422e-05  t[s]:  42567.56
	FillingsUpdate:  mu: +0.317316749  nElectrons: 304.000000  magneticMoment: [ Abs: 0.00000  Tot: +0.00000 ]
	SubspaceRotationAdjust: set factor to 0.0195
ElecMinimize: Iter:   9  F: -1690.490320471696350  |grad|_K:  4.733e-08  alpha:  6.660e-01  linmin: -1.005e-05  t[s]:  42625.42
	FillingsUpdate:  mu: +0.317304560  nElectrons: 304.000000  magneticMoment: [ Abs: 0.00000  Tot: +0.00000 ]
	SubspaceRotationAdjust: set factor to 0.0167
ElecMinimize: Iter:  10  F: -1690.490320807219405  |grad|_K:  5.529e-08  alpha:  4.497e-01  linmin: -8.582e-06  t[s]:  42683.92
	FillingsUpdate:  mu: +0.317284938  nElectrons: 304.000000  magneticMoment: [ Abs: 0.00000  Tot: +0.00000 ]
	SubspaceRotationAdjust: set factor to 0.0138
ElecMinimize: Iter:  11  F: -1690.490321155262336  |grad|_K:  4.524e-08  alpha:  3.422e-01  linmin: -1.900e-05  t[s]:  42741.87
	FillingsUpdate:  mu: +0.317369013  nElectrons: 304.000000  magneticMoment: [ Abs: 0.00000  Tot: +0.00000 ]
	SubspaceRotationAdjust: set factor to 0.0153
ElecMinimize: Iter:  12  F: -1690.490321606712087  |grad|_K:  4.265e-08  alpha:  6.621e-01  linmin: -5.705e-05  t[s]:  42799.80
	FillingsUpdate:  mu: +0.317359487  nElectrons: 304.000000  magneticMoment: [ Abs: 0.00000  Tot: +0.00000 ]
	SubspaceRotationAdjust: set factor to 0.0165
ElecMinimize: Iter:  13  F: -1690.490322038580416  |grad|_K:  4.198e-08  alpha:  7.129e-01  linmin: -2.643e-06  t[s]:  42857.61
	FillingsUpdate:  mu: +0.317366311  nElectrons: 304.000000  magneticMoment: [ Abs: 0.00000  Tot: +0.00000 ]
	SubspaceRotationAdjust: set factor to 0.0149
ElecMinimize: Iter:  14  F: -1690.490322366737473  |grad|_K:  4.689e-08  alpha:  5.595e-01  linmin:  3.070e-06  t[s]:  42915.48
	FillingsUpdate:  mu: +0.317389672  nElectrons: 304.000000  magneticMoment: [ Abs: 0.00000  Tot: +0.00000 ]
	SubspaceRotationAdjust: set factor to 0.0116
ElecMinimize: Iter:  15  F: -1690.490322625169483  |grad|_K:  3.989e-08  alpha:  3.534e-01  linmin: -7.575e-06  t[s]:  42973.91
	FillingsUpdate:  mu: +0.317405428  nElectrons: 304.000000  magneticMoment: [ Abs: 0.00000  Tot: +0.00000 ]
	SubspaceRotationAdjust: set factor to 0.0134
ElecMinimize: Iter:  16  F: -1690.490322942717739  |grad|_K:  3.381e-08  alpha:  5.998e-01  linmin:  5.664e-05  t[s]:  43031.77
	FillingsUpdate:  mu: +0.317390078  nElectrons: 304.000000  magneticMoment: [ Abs: 0.00000  Tot: +0.00000 ]
	SubspaceRotationAdjust: set factor to 0.0146
ElecMinimize: Iter:  17  F: -1690.490323210401357  |grad|_K:  3.342e-08  alpha:  7.040e-01  linmin: -1.171e-05  t[s]:  43090.39
	FillingsUpdate:  mu: +0.317398936  nElectrons: 304.000000  magneticMoment: [ Abs: 0.00000  Tot: +0.00000 ]
	SubspaceRotationAdjust: set factor to 0.0127
ElecMinimize: Iter:  18  F: -1690.490323401391606  |grad|_K:  3.688e-08  alpha:  5.138e-01  linmin:  2.899e-06  t[s]:  43148.22
	FillingsUpdate:  mu: +0.317403385  nElectrons: 304.000000  magneticMoment: [ Abs: 0.00000  Tot: +0.00000 ]
	SubspaceRotationAdjust: set factor to 0.0114
ElecMinimize: Iter:  19  F: -1690.490323606968104  |grad|_K:  3.246e-08  alpha:  4.544e-01  linmin: -1.078e-05  t[s]:  43206.50
	FillingsUpdate:  mu: +0.317377007  nElectrons: 304.000000  magneticMoment: [ Abs: 0.00000  Tot: +0.00000 ]
	SubspaceRotationAdjust: set factor to 0.013
ElecMinimize: Iter:  20  F: -1690.490323852201300  |grad|_K:  3.039e-08  alpha:  6.995e-01  linmin:  1.090e-05  t[s]:  43264.67
	FillingsUpdate:  mu: +0.317382207  nElectrons: 304.000000  magneticMoment: [ Abs: 0.00000  Tot: +0.00000 ]
	SubspaceRotationAdjust: set factor to 0.0135
ElecMinimize: Iter:  21  F: -1690.490324068180144  |grad|_K:  3.077e-08  alpha:  7.023e-01  linmin: -1.406e-05  t[s]:  43322.77
	FillingsUpdate:  mu: +0.317369783  nElectrons: 304.000000  magneticMoment: [ Abs: 0.00000  Tot: +0.00000 ]
	SubspaceRotationAdjust: set factor to 0.0115
ElecMinimize: Iter:  22  F: -1690.490324218918659  |grad|_K:  3.045e-08  alpha:  4.782e-01  linmin:  5.775e-06  t[s]:  43380.91
	FillingsUpdate:  mu: +0.317353213  nElectrons: 304.000000  magneticMoment: [ Abs: 0.00000  Tot: +0.00000 ]
	SubspaceRotationAdjust: set factor to 0.0104
ElecMinimize: Iter:  23  F: -1690.490324371806992  |grad|_K:  2.685e-08  alpha:  4.956e-01  linmin: -1.891e-05  t[s]:  43439.07
	FillingsUpdate:  mu: +0.317357186  nElectrons: 304.000000  magneticMoment: [ Abs: 0.00000  Tot: +0.00000 ]
	SubspaceRotationAdjust: set factor to 0.0119
ElecMinimize: Iter:  24  F: -1690.490324524596417  |grad|_K:  2.398e-08  alpha:  6.362e-01  linmin:  7.090e-05  t[s]:  43496.99
	FillingsUpdate:  mu: +0.317342351  nElectrons: 304.000000  magneticMoment: [ Abs: 0.00000  Tot: +0.00000 ]
	SubspaceRotationAdjust: set factor to 0.0122
ElecMinimize: Iter:  25  F: -1690.490324643431904  |grad|_K:  2.224e-08  alpha:  6.219e-01  linmin: -9.885e-05  t[s]:  43554.93
	FillingsUpdate:  mu: +0.317341062  nElectrons: 304.000000  magneticMoment: [ Abs: 0.00000  Tot: +0.00000 ]
	SubspaceRotationAdjust: set factor to 0.0106
ElecMinimize: Iter:  26  F: -1690.490324723379672  |grad|_K:  2.053e-08  alpha:  4.847e-01  linmin:  1.986e-07  t[s]:  43613.17
	FillingsUpdate:  mu: +0.317344752  nElectrons: 304.000000  magneticMoment: [ Abs: 0.00000  Tot: +0.00000 ]
	SubspaceRotationAdjust: set factor to 0.00999
ElecMinimize: Iter:  27  F: -1690.490324792765932  |grad|_K:  1.701e-08  alpha:  4.945e-01  linmin: -7.168e-05  t[s]:  43671.27
ElecMinimize: Converged (|Delta F|<1.000000e-07 for 2 iters).
Setting wave functions to eigenvectors of Hamiltonian
Converging empty states (this may take a while): |deigs|: 6.618e-08

Computing DFT-D3 correction:
# coordination-number Pt 5.964 7.101 8.559 5.966 9.218 9.395 9.498 9.520 9.560 9.556 9.571 9.558 9.561 9.523 9.503 9.401 9.224 8.564 7.105
# diagonal-C6 Pt 336.87 336.87 336.87 336.87 336.87 336.87 336.87 336.87 336.87 336.87 336.87 336.87 336.87 336.87 336.87 336.87 336.87 336.87 336.87
EvdW_6 =   -0.179053
EvdW_8 =   -0.282266

# Ionic positions in cartesian coordinates:
ion Pt  -0.004445766665332   7.029749196547551  63.422362250863472 1
ion Pt   2.610879299975887   2.918699684918158  62.120534919774187 1
ion Pt   2.611327653521519  10.311486668853851  60.492660890106237 1
ion Pt   0.004931006140128   0.171928956348630  33.336721435275258 1
ion Pt  -0.008052458305220   6.056515754052890  58.453756880311538 1
ion Pt   2.606289017919317   1.787294971137293  56.912489923744502 1
ion Pt   2.604936754173771   9.066913618479218  55.151910403460917 1
ion Pt  -0.008809299438508   4.827917039106934  53.484354258197044 1
ion Pt   2.609240536925815   0.617726329638951  51.780360626381707 1
ion Pt   2.612492032357641   7.798637422942494  50.053041624988992 1
ion Pt  -0.000235102896723   3.600823623479892  48.377375869138461 1
ion Pt   0.003572049223338  10.806044390090911  46.701530488534885 1
ion Pt   2.622453322392699   6.584256612351409  44.974489651217162 1
ion Pt   0.008612258538112   2.373566785154372  43.270806666806735 1
ion Pt   0.011033791757532   9.537622561164801  41.603347618384703 1
ion Pt   2.625411424831407   5.414546753290201  39.843985582833618 1
ion Pt   0.008417151235795   1.145742975540365  38.303141957179236 1
ion Pt   0.004626978301642   8.293155846070913  36.265790054053625 1
ion Pt   2.621308350011168   4.283182810831172  34.638566898747634 1

# Forces in Cartesian coordinates:
force Pt  -0.000029905891508  -0.000044284932839  -0.000111497558554 1
force Pt  -0.000027485963565  -0.000088184393014  -0.000135924580289 1
force Pt  -0.000024810449845   0.000035706255187  -0.000113891865461 1
force Pt   0.000024527651106   0.000064696786896  -0.000062054347500 1
force Pt  -0.000018863565919  -0.000090674283595   0.000002394178067 1
force Pt  -0.000018426399202  -0.000168432490833   0.000010741528000 1
force Pt  -0.000014704951989  -0.000047548135302   0.000045747649004 1
force Pt  -0.000010848104367  -0.000059438803645   0.000032748092800 1
force Pt  -0.000008457668452  -0.000048833457042   0.000112938568436 1
force Pt  -0.000003287621114  -0.000040842087771   0.000159697498111 1
force Pt  -0.000000661751266  -0.000000565508658   0.000143282947382 1
force Pt   0.000003936058909   0.000046377619680   0.000165997512729 1
force Pt   0.000009814835146   0.000016749238064   0.000172411484763 1
force Pt   0.000014896999167   0.000092856178401   0.000216816915477 1
force Pt   0.000014141326177   0.000058414314627   0.000128505862202 1
force Pt   0.000018114346317   0.000159579840758   0.000075830939148 1
force Pt   0.000018614445654   0.000076775045815   0.000010246348077 1
force Pt   0.000020334592057  -0.000045047603986  -0.000002582636274 1
force Pt   0.000024786457252   0.000069152685659  -0.000033573411673 1

# Energy components:
   Eewald =    11605.4499075193598401
       EH =    13189.0635736762033048
     Eloc =   -26778.1550092813886295
      Enl =      -20.0341634796967085
     EvdW =       -0.4613187115059316
      Exc =     -540.6254385599171428
 Exc_core =      311.4362482145660351
       KE =      542.8391534697445877
-------------------------------------
     Etot =    -1690.4870471526326128
       TS =        0.0032776401334165
-------------------------------------
        F =    -1690.4903247927659322


Dumping 'jdft.fillings' ... done
Dumping 'jdft.wfns' ... done
Dumping 'jdft.ionpos' ... done
Dumping 'jdft.lattice' ... done
Dumping 'jdft.eigenvals' ... done
Dumping 'jdft.eigStats' ... 
	eMin: -1.632699 at state 2 ( [ +0.000000 +0.400000 +0.000000 ] spin 1 )
	HOMO: +0.317324 at state 57 ( [ +0.000000 +0.400000 +0.000000 ] spin -1 )
	mu  : +0.317345
	LUMO: +0.317370 at state 31 ( [ -0.454545 +0.200000 +0.000000 ] spin 1 )
	eMax: +0.640477 at state 93 ( [ -0.363636 -0.400000 +0.000000 ] spin -1 )
	HOMO-LUMO gap: +0.000046
	Optical gap  : +0.000832 at state 50 ( [ -0.090909 +0.000000 +0.000000 ] spin 1 )
Dumping 'jdft.Ecomponents' ... done
IonicMinimize: Iter:  15  F: -1690.490324792765932  |grad|_K:  7.526e-05  alpha:  1.000e+00  linmin: -2.318e-02  t[s]:  43731.44
IonicMinimize: Converged (|grad|_K<1.000000e-04).

#--- Lowdin population analysis ---
# oxidation-state Pt +0.054 +0.027 -0.039 +0.049 +0.011 +0.008 +0.013 +0.012 +0.013 +0.009 +0.006 +0.008 +0.011 +0.010 +0.010 +0.004 +0.007 -0.043 +0.022
# magnetic-moments Pt +0.000 +0.000 +0.000 +0.000 +0.000 +0.000 +0.000 +0.000 +0.000 +0.000 +0.000 +0.000 +0.000 +0.000 +0.000 +0.000 +0.000 +0.000 +0.000


Dumping 'jdft.n_up' ... done
Dumping 'jdft.n_dn' ... done
Dumping 'jdft.tau_up' ... done
Dumping 'jdft.tau_dn' ... done
Dumping 'jdft.eigenvals' ... done
Dumping 'jdft.eigStats' ... 
	eMin: -1.632699 at state 2 ( [ +0.000000 +0.400000 +0.000000 ] spin 1 )
	HOMO: +0.317324 at state 57 ( [ +0.000000 +0.400000 +0.000000 ] spin -1 )
	mu  : +0.317345
	LUMO: +0.317370 at state 31 ( [ -0.454545 +0.200000 +0.000000 ] spin 1 )
	eMax: +0.640477 at state 93 ( [ -0.363636 -0.400000 +0.000000 ] spin -1 )
	HOMO-LUMO gap: +0.000046
	Optical gap  : +0.000832 at state 50 ( [ -0.090909 +0.000000 +0.000000 ] spin 1 )
Dumping 'jdft.kPts' ... done
Dumping 'jdft.dosUp' ... done.
Dumping 'jdft.dosDn' ... done.
End date and time: Tue Dec  7 04:20:57 2021  (Duration: 0-12:09:31.10)
Done!
