
*************** JDFTx 1.6.0  ***************

Start date and time: Thu Dec  9 05:46:28 2021
Executable /projects/musgravc/apps/jdftx-1.6.1/build/jdftx with command-line: -i in
Running on hosts (process indices):  shas0201.rc.int.colorado.edu (0-23)
Divided in process groups (process indices):  0 (0)  1 (1)  2 (2)  3 (3)  4 (4)  5 (5)  6 (6)  7 (7)  8 (8)  9 (9)  10 (10)  11 (11)  12 (12)  13 (13)  14 (14)  15 (15)  16 (16)  17 (17)  18 (18)  19 (19)  20 (20)  21 (21)  22 (22)  23 (23)
Resource initialization completed at t[s]:      0.00
Run totals: 24 processes, 24 threads, 0 GPUs


Input parsed successfully to the following command list (including defaults):

basis kpoint-dependent
converge-empty-states yes
coords-type Cartesian
core-overlap-check none
coulomb-interaction Periodic
davidson-band-ratio 1.1
density-of-states Etol 1.000000e-06 Esigma 1.000000e-03 \
		Complete \
	Total \
	OrthoOrbital Pt 1   s \
	OrthoOrbital Pt 1   p \
	OrthoOrbital Pt 1   px \
	OrthoOrbital Pt 1   py \
	OrthoOrbital Pt 1   pz \
	OrthoOrbital Pt 1   d \
	OrthoOrbital Pt 1   dxy \
	OrthoOrbital Pt 1   dyz \
	OrthoOrbital Pt 1   dz2 \
	OrthoOrbital Pt 1   dxz \
	OrthoOrbital Pt 1   dx2-y2 \
	OrthoOrbital Pt 2   s \
	OrthoOrbital Pt 2   p \
	OrthoOrbital Pt 2   px \
	OrthoOrbital Pt 2   py \
	OrthoOrbital Pt 2   pz \
	OrthoOrbital Pt 2   d \
	OrthoOrbital Pt 2   dxy \
	OrthoOrbital Pt 2   dyz \
	OrthoOrbital Pt 2   dz2 \
	OrthoOrbital Pt 2   dxz \
	OrthoOrbital Pt 2   dx2-y2 \
	OrthoOrbital Pt 3   s \
	OrthoOrbital Pt 3   p \
	OrthoOrbital Pt 3   px \
	OrthoOrbital Pt 3   py \
	OrthoOrbital Pt 3   pz \
	OrthoOrbital Pt 3   d \
	OrthoOrbital Pt 3   dxy \
	OrthoOrbital Pt 3   dyz \
	OrthoOrbital Pt 3   dz2 \
	OrthoOrbital Pt 3   dxz \
	OrthoOrbital Pt 3   dx2-y2 \
	OrthoOrbital Pt 4   s \
	OrthoOrbital Pt 4   p \
	OrthoOrbital Pt 4   px \
	OrthoOrbital Pt 4   py \
	OrthoOrbital Pt 4   pz \
	OrthoOrbital Pt 4   d \
	OrthoOrbital Pt 4   dxy \
	OrthoOrbital Pt 4   dyz \
	OrthoOrbital Pt 4   dz2 \
	OrthoOrbital Pt 4   dxz \
	OrthoOrbital Pt 4   dx2-y2 \
	OrthoOrbital Pt 5   s \
	OrthoOrbital Pt 5   p \
	OrthoOrbital Pt 5   px \
	OrthoOrbital Pt 5   py \
	OrthoOrbital Pt 5   pz \
	OrthoOrbital Pt 5   d \
	OrthoOrbital Pt 5   dxy \
	OrthoOrbital Pt 5   dyz \
	OrthoOrbital Pt 5   dz2 \
	OrthoOrbital Pt 5   dxz \
	OrthoOrbital Pt 5   dx2-y2 \
	OrthoOrbital Pt 6   s \
	OrthoOrbital Pt 6   p \
	OrthoOrbital Pt 6   px \
	OrthoOrbital Pt 6   py \
	OrthoOrbital Pt 6   pz \
	OrthoOrbital Pt 6   d \
	OrthoOrbital Pt 6   dxy \
	OrthoOrbital Pt 6   dyz \
	OrthoOrbital Pt 6   dz2 \
	OrthoOrbital Pt 6   dxz \
	OrthoOrbital Pt 6   dx2-y2 \
	OrthoOrbital Pt 7   s \
	OrthoOrbital Pt 7   p \
	OrthoOrbital Pt 7   px \
	OrthoOrbital Pt 7   py \
	OrthoOrbital Pt 7   pz \
	OrthoOrbital Pt 7   d \
	OrthoOrbital Pt 7   dxy \
	OrthoOrbital Pt 7   dyz \
	OrthoOrbital Pt 7   dz2 \
	OrthoOrbital Pt 7   dxz \
	OrthoOrbital Pt 7   dx2-y2 \
	OrthoOrbital Pt 8   s \
	OrthoOrbital Pt 8   p \
	OrthoOrbital Pt 8   px \
	OrthoOrbital Pt 8   py \
	OrthoOrbital Pt 8   pz \
	OrthoOrbital Pt 8   d \
	OrthoOrbital Pt 8   dxy \
	OrthoOrbital Pt 8   dyz \
	OrthoOrbital Pt 8   dz2 \
	OrthoOrbital Pt 8   dxz \
	OrthoOrbital Pt 8   dx2-y2 \
	OrthoOrbital Pt 9   s \
	OrthoOrbital Pt 9   p \
	OrthoOrbital Pt 9   px \
	OrthoOrbital Pt 9   py \
	OrthoOrbital Pt 9   pz \
	OrthoOrbital Pt 9   d \
	OrthoOrbital Pt 9   dxy \
	OrthoOrbital Pt 9   dyz \
	OrthoOrbital Pt 9   dz2 \
	OrthoOrbital Pt 9   dxz \
	OrthoOrbital Pt 9   dx2-y2 \
	OrthoOrbital Pt 10   s \
	OrthoOrbital Pt 10   p \
	OrthoOrbital Pt 10   px \
	OrthoOrbital Pt 10   py \
	OrthoOrbital Pt 10   pz \
	OrthoOrbital Pt 10   d \
	OrthoOrbital Pt 10   dxy \
	OrthoOrbital Pt 10   dyz \
	OrthoOrbital Pt 10   dz2 \
	OrthoOrbital Pt 10   dxz \
	OrthoOrbital Pt 10   dx2-y2 \
	OrthoOrbital Pt 11   s \
	OrthoOrbital Pt 11   p \
	OrthoOrbital Pt 11   px \
	OrthoOrbital Pt 11   py \
	OrthoOrbital Pt 11   pz \
	OrthoOrbital Pt 11   d \
	OrthoOrbital Pt 11   dxy \
	OrthoOrbital Pt 11   dyz \
	OrthoOrbital Pt 11   dz2 \
	OrthoOrbital Pt 11   dxz \
	OrthoOrbital Pt 11   dx2-y2 \
	OrthoOrbital Pt 12   s \
	OrthoOrbital Pt 12   p \
	OrthoOrbital Pt 12   px \
	OrthoOrbital Pt 12   py \
	OrthoOrbital Pt 12   pz \
	OrthoOrbital Pt 12   d \
	OrthoOrbital Pt 12   dxy \
	OrthoOrbital Pt 12   dyz \
	OrthoOrbital Pt 12   dz2 \
	OrthoOrbital Pt 12   dxz \
	OrthoOrbital Pt 12   dx2-y2 \
	OrthoOrbital Pt 13   s \
	OrthoOrbital Pt 13   p \
	OrthoOrbital Pt 13   px \
	OrthoOrbital Pt 13   py \
	OrthoOrbital Pt 13   pz \
	OrthoOrbital Pt 13   d \
	OrthoOrbital Pt 13   dxy \
	OrthoOrbital Pt 13   dyz \
	OrthoOrbital Pt 13   dz2 \
	OrthoOrbital Pt 13   dxz \
	OrthoOrbital Pt 13   dx2-y2 \
	OrthoOrbital Pt 14   s \
	OrthoOrbital Pt 14   p \
	OrthoOrbital Pt 14   px \
	OrthoOrbital Pt 14   py \
	OrthoOrbital Pt 14   pz \
	OrthoOrbital Pt 14   d \
	OrthoOrbital Pt 14   dxy \
	OrthoOrbital Pt 14   dyz \
	OrthoOrbital Pt 14   dz2 \
	OrthoOrbital Pt 14   dxz \
	OrthoOrbital Pt 14   dx2-y2 \
	OrthoOrbital Pt 15   s \
	OrthoOrbital Pt 15   p \
	OrthoOrbital Pt 15   px \
	OrthoOrbital Pt 15   py \
	OrthoOrbital Pt 15   pz \
	OrthoOrbital Pt 15   d \
	OrthoOrbital Pt 15   dxy \
	OrthoOrbital Pt 15   dyz \
	OrthoOrbital Pt 15   dz2 \
	OrthoOrbital Pt 15   dxz \
	OrthoOrbital Pt 15   dx2-y2 \
	OrthoOrbital Pt 16   s \
	OrthoOrbital Pt 16   p \
	OrthoOrbital Pt 16   px \
	OrthoOrbital Pt 16   py \
	OrthoOrbital Pt 16   pz \
	OrthoOrbital Pt 16   d \
	OrthoOrbital Pt 16   dxy \
	OrthoOrbital Pt 16   dyz \
	OrthoOrbital Pt 16   dz2 \
	OrthoOrbital Pt 16   dxz \
	OrthoOrbital Pt 16   dx2-y2 \
	OrthoOrbital Pt 17   s \
	OrthoOrbital Pt 17   p \
	OrthoOrbital Pt 17   px \
	OrthoOrbital Pt 17   py \
	OrthoOrbital Pt 17   pz \
	OrthoOrbital Pt 17   d \
	OrthoOrbital Pt 17   dxy \
	OrthoOrbital Pt 17   dyz \
	OrthoOrbital Pt 17   dz2 \
	OrthoOrbital Pt 17   dxz \
	OrthoOrbital Pt 17   dx2-y2 \
	OrthoOrbital Pt 18   s \
	OrthoOrbital Pt 18   p \
	OrthoOrbital Pt 18   px \
	OrthoOrbital Pt 18   py \
	OrthoOrbital Pt 18   pz \
	OrthoOrbital Pt 18   d \
	OrthoOrbital Pt 18   dxy \
	OrthoOrbital Pt 18   dyz \
	OrthoOrbital Pt 18   dz2 \
	OrthoOrbital Pt 18   dxz \
	OrthoOrbital Pt 18   dx2-y2 \
	OrthoOrbital Pt 19   s \
	OrthoOrbital Pt 19   p \
	OrthoOrbital Pt 19   px \
	OrthoOrbital Pt 19   py \
	OrthoOrbital Pt 19   pz \
	OrthoOrbital Pt 19   d \
	OrthoOrbital Pt 19   dxy \
	OrthoOrbital Pt 19   dyz \
	OrthoOrbital Pt 19   dz2 \
	OrthoOrbital Pt 19   dxz \
	OrthoOrbital Pt 19   dx2-y2 \
	OrthoOrbital Pt 20   s \
	OrthoOrbital Pt 20   p \
	OrthoOrbital Pt 20   px \
	OrthoOrbital Pt 20   py \
	OrthoOrbital Pt 20   pz \
	OrthoOrbital Pt 20   d \
	OrthoOrbital Pt 20   dxy \
	OrthoOrbital Pt 20   dyz \
	OrthoOrbital Pt 20   dz2 \
	OrthoOrbital Pt 20   dxz \
	OrthoOrbital Pt 20   dx2-y2 \
	OrthoOrbital Pt 21   s \
	OrthoOrbital Pt 21   p \
	OrthoOrbital Pt 21   px \
	OrthoOrbital Pt 21   py \
	OrthoOrbital Pt 21   pz \
	OrthoOrbital Pt 21   d \
	OrthoOrbital Pt 21   dxy \
	OrthoOrbital Pt 21   dyz \
	OrthoOrbital Pt 21   dz2 \
	OrthoOrbital Pt 21   dxz \
	OrthoOrbital Pt 21   dx2-y2 \
	OrthoOrbital Pt 22   s \
	OrthoOrbital Pt 22   p \
	OrthoOrbital Pt 22   px \
	OrthoOrbital Pt 22   py \
	OrthoOrbital Pt 22   pz \
	OrthoOrbital Pt 22   d \
	OrthoOrbital Pt 22   dxy \
	OrthoOrbital Pt 22   dyz \
	OrthoOrbital Pt 22   dz2 \
	OrthoOrbital Pt 22   dxz \
	OrthoOrbital Pt 22   dx2-y2 \
	OrthoOrbital Pt 23   s \
	OrthoOrbital Pt 23   p \
	OrthoOrbital Pt 23   px \
	OrthoOrbital Pt 23   py \
	OrthoOrbital Pt 23   pz \
	OrthoOrbital Pt 23   d \
	OrthoOrbital Pt 23   dxy \
	OrthoOrbital Pt 23   dyz \
	OrthoOrbital Pt 23   dz2 \
	OrthoOrbital Pt 23   dxz \
	OrthoOrbital Pt 23   dx2-y2 \
	OrthoOrbital Pt 24   s \
	OrthoOrbital Pt 24   p \
	OrthoOrbital Pt 24   px \
	OrthoOrbital Pt 24   py \
	OrthoOrbital Pt 24   pz \
	OrthoOrbital Pt 24   d \
	OrthoOrbital Pt 24   dxy \
	OrthoOrbital Pt 24   dyz \
	OrthoOrbital Pt 24   dz2 \
	OrthoOrbital Pt 24   dxz \
	OrthoOrbital Pt 24   dx2-y2 \
	OrthoOrbital Pt 25   s \
	OrthoOrbital Pt 25   p \
	OrthoOrbital Pt 25   px \
	OrthoOrbital Pt 25   py \
	OrthoOrbital Pt 25   pz \
	OrthoOrbital Pt 25   d \
	OrthoOrbital Pt 25   dxy \
	OrthoOrbital Pt 25   dyz \
	OrthoOrbital Pt 25   dz2 \
	OrthoOrbital Pt 25   dxz \
	OrthoOrbital Pt 25   dx2-y2 \
	OrthoOrbital Pt 26   s \
	OrthoOrbital Pt 26   p \
	OrthoOrbital Pt 26   px \
	OrthoOrbital Pt 26   py \
	OrthoOrbital Pt 26   pz \
	OrthoOrbital Pt 26   d \
	OrthoOrbital Pt 26   dxy \
	OrthoOrbital Pt 26   dyz \
	OrthoOrbital Pt 26   dz2 \
	OrthoOrbital Pt 26   dxz \
	OrthoOrbital Pt 26   dx2-y2
dump End ElecDensity KEdensity BandEigs EigStats RhoAtom DOS Kpoints
dump Ionic State IonicPositions Lattice EigStats Ecomponents
dump 
dump 
dump 
dump 
dump 
dump 
dump 
dump 
dump-name jdft.$VAR
elec-cutoff 20
elec-eigen-algo Davidson
elec-ex-corr gga-PBE
elec-initial-magnetization 0.000000 no
elec-n-bands 250
elec-smearing Fermi 0.001
electronic-minimize  \
	dirUpdateScheme      FletcherReeves \
	linminMethod         DirUpdateRecommended \
	nIterations          100 \
	history              15 \
	knormThreshold       0 \
	energyDiffThreshold  1e-07 \
	nEnergyDiff          2 \
	alphaTstart          1 \
	alphaTmin            1e-10 \
	updateTestStepSize   yes \
	alphaTreduceFactor   0.1 \
	alphaTincreaseFactor 3 \
	nAlphaAdjustMax      3 \
	wolfeEnergy          0.0001 \
	wolfeGradient        0.9 \
	fdTest               no
exchange-regularization WignerSeitzTruncated
fluid LinearPCM 298.000000 1.013250
fluid-anion F- 0.5 MeanFieldLJ \
	epsBulk 1 \
	pMol 0 \
	epsInf 1 \
	Pvap 0 \
	sigmaBulk 0 \
	Rvdw 2.24877 \
	Res 0 \
	tauNuc 343133
fluid-cation Na+ 0.5 MeanFieldLJ \
	epsBulk 1 \
	pMol 0 \
	epsInf 1 \
	Pvap 0 \
	sigmaBulk 0 \
	Rvdw 2.19208 \
	Res 0 \
	tauNuc 343133
fluid-ex-corr lda-TF lda-PZ
fluid-gummel-loop 10 1.000000e-05
fluid-minimize  \
	dirUpdateScheme      PolakRibiere \
	linminMethod         DirUpdateRecommended \
	nIterations          400 \
	history              15 \
	knormThreshold       1e-11 \
	energyDiffThreshold  0 \
	nEnergyDiff          2 \
	alphaTstart          1 \
	alphaTmin            1e-10 \
	updateTestStepSize   yes \
	alphaTreduceFactor   0.1 \
	alphaTincreaseFactor 3 \
	nAlphaAdjustMax      6 \
	wolfeEnergy          0.0001 \
	wolfeGradient        0.9 \
	fdTest               no
fluid-solvent H2O 55.338 ScalarEOS \
	epsBulk 78.4 \
	pMol 0.92466 \
	epsInf 1.77 \
	Pvap 1.06736e-10 \
	sigmaBulk 4.62e-05 \
	Rvdw 2.61727 \
	Res 1.42 \
	tauNuc 343133 \
	poleEl 15 7 1
forces-output-coords Positions
initial-state jdft.$VAR
ion Pt   0.008300886195386  10.250386769970389  24.470372550078011 1
ion Pt   0.003751043484614   4.090872607458694  19.950820301083777 1
ion Pt   3.704000468454474   7.310422110905000  22.309900720641817 1
ion Pt   3.698323558370614   1.003301298931333  17.921335964933579 1
ion Pt  -0.001172353562739   8.211196616855061  13.890893392492885 1
ion Pt  -0.000018782338733   2.045410518339168   9.704581364703033 1
ion Pt   3.697225978116764  11.261831165992936  15.895868313370130 1
ion Pt   3.700123225298469   5.142460411263267  11.818803206296048 1
ion Pt  -0.002228169929225  12.352315923979413   7.580828985148714 1
ion Pt  -0.003579945930389   6.106482539776827   3.509905565823404 1
ion Pt   0.005485542408404   0.043709906365675  25.914385853332682 1
ion Pt   3.695835038435189   9.259105222352296   5.735698681218550 1
ion Pt   3.697755220892294   3.057064129260992   1.634944349058452 1
ion Pt   3.703321451275042  12.288868300369403  20.941938144555692 1
ion Pt   3.699625374023912   6.163208288406319  16.973622457189446 1
ion Pt   0.002181367095889   9.195458572724242  19.097161565144418 1
ion Pt  -0.000562357962227   3.066016451367690  14.859566865793118 1
ion Pt   3.702014942588852  10.285450831315313  10.782593628363690 1
ion Pt   3.695767936040622   4.117542462974773   6.727012936251505 1
ion Pt   0.001197301485617  13.336196814912993  12.787715027206097 1
ion Pt   0.001306067739144   7.204896901167350   8.756720217714886 1
ion Pt  -0.004471433201460   0.898597142071120   4.368044082863344 1
ion Pt   3.693952642146541   8.164639989460605   0.763066147687648 1
ion Pt   3.703182805876800   2.102750677703062  23.167949224761436 1
ion Pt  -0.008135714277438  11.297251028296847   2.207816031567539 1
ion Pt   0.001765907273576   5.151862317779182  25.042929422720011 1
ion-species /projects/musgravc/apps/jdftx-1.6.0/build/pseudopotentials/GBRV_v1.5/$ID_pbe_v1.uspp
ion-species /projects/musgravc/apps/jdftx-1.6.0/build/pseudopotentials/GBRV_v1.5/$ID_pbe_v1.2.uspp
ion-species /projects/musgravc/apps/jdftx-1.6.0/build/pseudopotentials/GBRV_v1.5/$ID_pbe_v1.4.uspp
ion-species /projects/musgravc/apps/jdftx-1.6.0/build/pseudopotentials/GBRV_v1.5/$ID_pbe_v1.5.uspp
ion-width Ecut
ionic-minimize  \
	dirUpdateScheme      L-BFGS \
	linminMethod         DirUpdateRecommended \
	nIterations          100 \
	history              15 \
	knormThreshold       0.0001 \
	energyDiffThreshold  1e-06 \
	nEnergyDiff          2 \
	alphaTstart          1 \
	alphaTmin            1e-10 \
	updateTestStepSize   yes \
	alphaTreduceFactor   0.1 \
	alphaTincreaseFactor 3 \
	nAlphaAdjustMax      3 \
	wolfeEnergy          0.0001 \
	wolfeGradient        0.9 \
	fdTest               no
kpoint   0.000000000000   0.000000000000   0.000000000000  1.00000000000000
kpoint-folding 9 4 1 
latt-move-scale 0 0 0
latt-scale 1 1 1 
lattice  \
	   7.399158000000000   -3.699579000000000    0.000000000000000  \
	   0.000000000000000   13.339022999999999    0.000000000000000  \
	   0.000000000000000    0.000000000000000   80.034133999999995 
lattice-minimize  \
	dirUpdateScheme      L-BFGS \
	linminMethod         DirUpdateRecommended \
	nIterations          0 \
	history              15 \
	knormThreshold       0 \
	energyDiffThreshold  1e-06 \
	nEnergyDiff          2 \
	alphaTstart          1 \
	alphaTmin            1e-10 \
	updateTestStepSize   yes \
	alphaTreduceFactor   0.1 \
	alphaTincreaseFactor 3 \
	nAlphaAdjustMax      3 \
	wolfeEnergy          0.0001 \
	wolfeGradient        0.9 \
	fdTest               no
lcao-params 30 1e-06 0.001
pcm-variant CANDLE
spintype z-spin
subspace-rotation-factor 1 yes
symmetries none
symmetry-threshold 0.0001
target-mu -0.0978 no

van-der-waals D3


Applied RMS atom displacement 0 bohrs to make symmetries exact.

---------- Initializing the Grid ----------
R = 
[      7.39916     -3.69958            0  ]
[            0       13.339            0  ]
[            0            0      80.0341  ]
unit cell volume = 7899.17
G =
[   0.849176   0.235519         -0  ]
[          0   0.471038          0  ]
[          0         -0  0.0785063  ]
Minimum fftbox size, Smin = [  32  56  324  ]
Chosen fftbox size, S = [  32  56  324  ]

---------- Exchange Correlation functional ----------
Initalized PBE GGA exchange.
Initalized PBE GGA correlation.

---------- Setting up pseudopotentials ----------
Width of ionic core gaussian charges (only for fluid interactions / plotting) set to 0.397384

Reading pseudopotential file '/projects/musgravc/apps/jdftx-1.6.0/build/pseudopotentials/GBRV_v1.5/pt_pbe_v1.4.uspp':
  Title: Pt.  Created by USPP 7.3.6 on 31-3-15
  Reference state energy: -105.002503.  16 valence electrons in orbitals:
    |510>  occupation: 6  eigenvalue: -2.158104
    |520>  occupation: 9.5  eigenvalue: -0.335376
    |600>  occupation: 0  eigenvalue: -0.319640
    |610>  occupation: 0  eigenvalue: -0.122947
  lMax: 2  lLocal: 3  QijEcut: 5.5
  6 projectors sampled on a log grid with 745 points:
    l: 0  eig: -0.319640  rCut: 2.45
    l: 0  eig: 1.500000  rCut: 2.45
    l: 1  eig: -2.158104  rCut: 1.6
    l: 1  eig: -0.122947  rCut: 1.6
    l: 2  eig: -0.500000  rCut: 1.6
    l: 2  eig: -0.335375  rCut: 1.6
  Partial core density with radius 1.1
  Transforming core density to a uniform radial grid of dG=0.02 with 1264 points.
  Transforming local potential to a uniform radial grid of dG=0.02 with 1264 points.
  Transforming nonlocal projectors to a uniform radial grid of dG=0.02 with 432 points.
  Transforming density augmentations to a uniform radial grid of dG=0.02 with 1264 points.
  Transforming atomic orbitals to a uniform radial grid of dG=0.02 with 432 points.
  Core radius for overlap checks: 2.45 bohrs.

Initialized 1 species with 26 total atoms.

Folded 1 k-points by 9x4x1 to 36 k-points.

---------- Setting up k-points, bands, fillings ----------
No reducable k-points. 
Computing the number of bands and number of electrons
Reading initial fillings from file jdft.fillings.
nElectrons: 418.283229   nBands: 250   nStates: 72

----- Setting up reduced wavefunction bases (one per k-point) -----
average nbasis = 33742.806 , ideal nbasis = 33745.865

----- Initializing Supercell corresponding to k-point mesh -----
Lattice vector linear combinations in supercell:
[   9   0   0  ]
[   0   4   0  ]
[   0   0   1  ]
Supercell lattice vectors:
[  66.5924  -14.7983  0  ]
[  0  53.3561  0  ]
[  0  0  80.0341  ]

Initializing DFT-D3 calculator:
	Parameters set for gga-PBE functional
	s6:  1.000  s_r6:  1.217
	s8:  0.722  s_r8:  1.000
	Per-atom parameters loaded for:
	Pt:  sqrtQ[a0]:  5.888  Rcov[a0]:  2.116  CN: [ 0.00 1.92 6.67 ]

Initializing DFT-D2 calculator for fluid / solvation:
	Pt:  C6:  815.23 Eh-a0^6  R0: 3.326 a0 (WARNING: beyond Grimme's data set)

---------- Setting up ewald sum ----------
Optimum gaussian width for ewald sums = 4.616098 bohr.
Real space sum over 935 unit cells with max indices [  8  5  2  ]
Reciprocal space sum over 6669 terms with max indices [  4  6  28  ]

Computing DFT-D3 correction:
# coordination-number Pt 6.808 9.341 8.508 9.489 9.517 9.414 9.542 9.536 9.316 8.591 5.286 9.295 5.943 9.296 9.415 9.317 9.536 9.540 9.341 9.516 9.488 8.508 5.286 8.591 6.808 5.943
# diagonal-C6 Pt 336.87 336.87 336.87 336.87 336.87 336.87 336.87 336.87 336.87 336.87 336.87 336.87 336.87 336.87 336.87 336.87 336.87 336.87 336.87 336.87 336.87 336.87 336.87 336.87 336.87 336.87
EvdW_6 =   -0.232558
EvdW_8 =   -0.374783

---------- Allocating electronic variables ----------
Initializing wave functions:  reading from 'jdft.wfns'
----- createFluidSolver() ----- (Fluid-side solver setup)
   Initializing fluid molecule 'H2O'
     Initializing site 'O'
       Electron density: proportional to exp(-r/0.36935)*erfc((r-0.51523)/0.36823) with norm 6.826
       Charge density: gaussian nuclear width 0.478731 with net site charge 0.826
       Polarizability: cuspless exponential with width 0.32 and norm 3.73
       Hard sphere radius: 2.57003 bohrs
       Positions in reference frame:
         [ +0.000000 +0.000000 +0.000000 ]
     Initializing site 'H'
       Electron density: proportional to exp(-r/0.34641)*erfc((r-0)/0.390882) with norm 0.587
       Charge density: gaussian nuclear width 0.377945 with net site charge -0.413
       Polarizability: cuspless exponential with width 0.39 and norm 3.3
       Positions in reference frame:
         [ +0.000000 -1.441945 +1.122523 ]
         [ +0.000000 +1.441945 +1.122523 ]
     Net charge: 0   dipole magnitude: 0.927204
     Initializing spherical shell mfKernel with radius 2.61727 Bohr
     deltaS corrections:
       site 'O': -7.54299
       site 'H': -6.83917
   Initializing fluid molecule 'Na+'
     Initializing site 'Na'
       Electron density: proportional to exp(-r/0.19682)*erfc((r-0.71491)/0.41314) with norm 8.1383
       Charge density: gaussian nuclear width 0.365347 with net site charge -1
       Hard sphere radius: 1.86327 bohrs
       Positions in reference frame:
         [ +0.000000 +0.000000 +0.000000 ]
     Net charge: -1   dipole magnitude: 0
     Initializing gaussian mfKernel with width: 1.55004 Bohr
     deltaS corrections:
       site 'Na': -22.3555
   Initializing fluid molecule 'F-'
     Initializing site 'F'
       Electron density: proportional to exp(-r/0.38886)*erfc((r-0)/0.438782) with norm 8
       Charge density: gaussian nuclear width 0.374796 with net site charge 1
       Hard sphere radius: 2.39995 bohrs
       Positions in reference frame:
         [ +0.000000 +0.000000 +0.000000 ]
     Net charge: 1   dipole magnitude: 0
     Initializing gaussian mfKernel with width: 1.59012 Bohr
     deltaS corrections:
       site 'F': -9.04335

Correction to mu due to finite nuclear width = -0.052253
   Cavity determined by nc: 0.00142 and sigma: 0.707107
   Nonlocal vdW cavity from gaussian model electron density with norm = 8 and sigma = 0.993594 bohr
   Charge asymmetry in cavity with sensitivity pCavity = 36.5 e-bohr/Eh
   Electrostatic cavity expanded by eta = 1.46 bohrs
   Weighted density cavitation model constrained by Nbulk: 0.0049383 bohr^-3, Pvap: 3.14029 kPa, Rvdw: 2.61727 bohr and sigmaBulk: 4.62e-05 Eh/bohr^2 at T: 298 K.
   Weighted density dispersion model using vdW pair potentials with single solvent site with sqrtC6eff: 0.77 SI.
Reading fluid state from 'jdft.fluidState'


---- Citations for features of the code used in this run ----

   Software package:
      R. Sundararaman, K. Letchworth-Weaver, K.A. Schwarz, D. Gunceler, Y. Ozhabes and T.A. Arias, 'JDFTx: software for joint density-functional theory', SoftwareX 6, 278 (2017)

   gga-PBE exchange-correlation functional:
      J.P. Perdew, K. Burke and M. Ernzerhof, Phys. Rev. Lett. 77, 3865 (1996)

   Pseudopotentials:
      KF Garrity, JW Bennett, KM Rabe and D Vanderbilt, Comput. Mater. Sci. 81, 446 (2014)

   DFT-D3 dispersion correction:
      S. Grimme, J. Antony, S. Ehrlich and H. Krieg, J. Chem. Phys. 132, 154104 (2010)

   DFT-D2 dispersion correction:
      S. Grimme, J. Comput. Chem. 27, 1787 (2006)

   Charge-asymmetric nonlocally-determined local-electric (CANDLE) solvation model:
      R. Sundararaman and W.A. Goddard III, J. Chem. Phys. 142, 064107 (2015)

   Total energy minimization with Auxiliary Hamiltonian:
      C. Freysoldt, S. Boeck, and J. Neugebauer, Phys. Rev. B 79, 241103(R) (2009)

   Grand-canonical (fixed-potential) DFT:
      R. Sundararaman, W. A. Goddard III and T. A. Arias, J. Chem. Phys. 146, 114104 (2017)

   Linear-tetrahedron sampling for density of states:
      G. Lehmann and M. Taut, Phys. status solidi (b) 54, 469 (1972)

This list may not be complete. Please suggest additional citations or
report any other bugs at https://github.com/shankar1729/jdftx/issues

Initialization completed successfully at t[s]:     28.17


Computing DFT-D3 correction:
# coordination-number Pt 6.808 9.341 8.508 9.489 9.517 9.414 9.542 9.536 9.316 8.591 5.286 9.295 5.943 9.296 9.415 9.317 9.536 9.540 9.341 9.516 9.488 8.508 5.286 8.591 6.808 5.943
# diagonal-C6 Pt 336.87 336.87 336.87 336.87 336.87 336.87 336.87 336.87 336.87 336.87 336.87 336.87 336.87 336.87 336.87 336.87 336.87 336.87 336.87 336.87 336.87 336.87 336.87 336.87 336.87 336.87
EvdW_6 =   -0.232558
EvdW_8 =   -0.374783
Shifting auxilliary hamiltonian by 0.000017 to set nElectrons=418.283229

-------- Electronic minimization -----------
	Linear fluid (dielectric constant: 78.4, screening length: 8.12261 Bohr) occupying 0.595422 of unit cell:	Completed after 16 iterations at t[s]:     44.73
	FillingsUpdate:  mu: -0.097800000  nElectrons: 418.283229  magneticMoment: [ Abs: 0.00000  Tot: -0.00000 ]
ElecMinimize: Iter:   0  G: -2272.641267914954824  |grad|_K:  2.553e-06  alpha:  1.000e+00
	Linear fluid (dielectric constant: 78.4, screening length: 8.12261 Bohr) occupying 0.532330 of unit cell:	Completed after 26 iterations at t[s]:    145.45
	Linear fluid (dielectric constant: 78.4, screening length: 8.12261 Bohr) occupying 0.595395 of unit cell:	Completed after 40 iterations at t[s]:    182.44
	FillingsUpdate:  mu: -0.097800000  nElectrons: 418.278418  magneticMoment: [ Abs: 0.00000  Tot: -0.00000 ]
	SubspaceRotationAdjust: set factor to 0.521
ElecMinimize: Iter:   1  G: -2272.641275992804822  |grad|_K:  7.882e-07  alpha:  1.780e-03  linmin: -3.499e-02  t[s]:    230.26
	Linear fluid (dielectric constant: 78.4, screening length: 8.12261 Bohr) occupying 0.595393 of unit cell:	Completed after 9 iterations at t[s]:    273.70
ElecMinimize: 	Predicted alpha/alphaT>3.000000, increasing alphaT to 5.341320e-03.
	Linear fluid (dielectric constant: 78.4, screening length: 8.12261 Bohr) occupying 0.595390 of unit cell:	Completed after 12 iterations at t[s]:    306.11
	Linear fluid (dielectric constant: 78.4, screening length: 8.12261 Bohr) occupying 0.595387 of unit cell:	Completed after 11 iterations at t[s]:    338.77
	FillingsUpdate:  mu: -0.097800000  nElectrons: 418.276991  magneticMoment: [ Abs: 0.00000  Tot: -0.00000 ]
	SubspaceRotationAdjust: set factor to 0.264
ElecMinimize: Iter:   2  G: -2272.641279481469610  |grad|_K:  1.047e-06  alpha:  8.101e-03  linmin: -1.938e-05  t[s]:    387.03
	Linear fluid (dielectric constant: 78.4, screening length: 8.12261 Bohr) occupying 0.595414 of unit cell:	Completed after 15 iterations at t[s]:    431.19
	Linear fluid (dielectric constant: 78.4, screening length: 8.12261 Bohr) occupying 0.595415 of unit cell:	Completed after 2 iterations at t[s]:    462.32
	FillingsUpdate:  mu: -0.097800000  nElectrons: 418.282079  magneticMoment: [ Abs: 0.00000  Tot: -0.00000 ]
	SubspaceRotationAdjust: set factor to 0.136
ElecMinimize: Iter:   3  G: -2272.641285146416067  |grad|_K:  4.664e-07  alpha:  8.475e-03  linmin: -7.764e-04  t[s]:    509.83
	Linear fluid (dielectric constant: 78.4, screening length: 8.12261 Bohr) occupying 0.595432 of unit cell:	Completed after 13 iterations at t[s]:    553.63
	Linear fluid (dielectric constant: 78.4, screening length: 8.12261 Bohr) occupying 0.595427 of unit cell:	Completed after 10 iterations at t[s]:    586.13
	FillingsUpdate:  mu: -0.097800000  nElectrons: 418.284345  magneticMoment: [ Abs: 0.00000  Tot: -0.00000 ]
	SubspaceRotationAdjust: set factor to 0.0806
	SubspaceRotationAdjust: resetting CG because factor has changed by 0.0806448
	Linear fluid (dielectric constant: 78.4, screening length: 8.12261 Bohr) occupying 0.595427 of unit cell:	Completed after 0 iterations at t[s]:    647.69
ElecMinimize: 	State modified externally: resetting search direction.
ElecMinimize: Iter:   4  G: -2272.641285974696075  |grad|_K:  1.344e-07  alpha:  6.257e-03
	Linear fluid (dielectric constant: 78.4, screening length: 8.12261 Bohr) occupying 0.595427 of unit cell:	Completed after 0 iterations at t[s]:    737.97
ElecMinimize: 	Predicted alpha/alphaT>3.000000, increasing alphaT to 1.877205e-02.
	Linear fluid (dielectric constant: 78.4, screening length: 8.12261 Bohr) occupying 0.595427 of unit cell:	Completed after 2 iterations at t[s]:    769.29
ElecMinimize: 	Predicted alpha/alphaT>3.000000, increasing alphaT to 5.631616e-02.
	Linear fluid (dielectric constant: 78.4, screening length: 8.12261 Bohr) occupying 0.595425 of unit cell:	Completed after 8 iterations at t[s]:    801.25
	Linear fluid (dielectric constant: 78.4, screening length: 8.12261 Bohr) occupying 0.595422 of unit cell:	Completed after 9 iterations at t[s]:    833.57
	FillingsUpdate:  mu: -0.097800000  nElectrons: 418.283414  magneticMoment: [ Abs: 0.00000  Tot: -0.00000 ]
	SubspaceRotationAdjust: set factor to 0.0615
ElecMinimize: Iter:   5  G: -2272.641287415708575  |grad|_K:  5.706e-08  alpha:  1.285e-01  linmin: -6.040e-03  t[s]:    881.18
	Linear fluid (dielectric constant: 78.4, screening length: 8.12261 Bohr) occupying 0.595423 of unit cell:	Completed after 6 iterations at t[s]:    923.82
	Linear fluid (dielectric constant: 78.4, screening length: 8.12261 Bohr) occupying 0.595423 of unit cell:	Completed after 3 iterations at t[s]:    955.39
	FillingsUpdate:  mu: -0.097800000  nElectrons: 418.283652  magneticMoment: [ Abs: 0.00000  Tot: -0.00000 ]
	SubspaceRotationAdjust: set factor to 0.0367
ElecMinimize: Iter:   6  G: -2272.641287731349166  |grad|_K:  5.303e-08  alpha:  1.569e-01  linmin:  1.480e-03  t[s]:   1002.89
	Linear fluid (dielectric constant: 78.4, screening length: 8.12261 Bohr) occupying 0.595413 of unit cell:	Completed after 12 iterations at t[s]:   1046.27
	Linear fluid (dielectric constant: 78.4, screening length: 8.12261 Bohr) occupying 0.595420 of unit cell:	Completed after 11 iterations at t[s]:   1079.02
	FillingsUpdate:  mu: -0.097800000  nElectrons: 418.283033  magneticMoment: [ Abs: 0.00000  Tot: -0.00000 ]
	SubspaceRotationAdjust: set factor to 0.0265
ElecMinimize: Iter:   7  G: -2272.641287831682348  |grad|_K:  2.064e-08  alpha:  5.059e-02  linmin: -4.328e-03  t[s]:   1126.62
	Linear fluid (dielectric constant: 78.4, screening length: 8.12261 Bohr) occupying 0.595420 of unit cell:	Completed after 0 iterations at t[s]:   1168.10
ElecMinimize: 	Predicted alpha/alphaT>3.000000, increasing alphaT to 1.517840e-01.
	Linear fluid (dielectric constant: 78.4, screening length: 8.12261 Bohr) occupying 0.595420 of unit cell:	Completed after 2 iterations at t[s]:   1199.21
	Linear fluid (dielectric constant: 78.4, screening length: 8.12261 Bohr) occupying 0.595420 of unit cell:	Completed after 2 iterations at t[s]:   1230.20
	FillingsUpdate:  mu: -0.097800000  nElectrons: 418.282943  magneticMoment: [ Abs: 0.00000  Tot: -0.00000 ]
	SubspaceRotationAdjust: set factor to 0.0167
ElecMinimize: Iter:   8  G: -2272.641287913959331  |grad|_K:  1.874e-08  alpha:  2.861e-01  linmin: -1.353e-02  t[s]:   1277.98
	Linear fluid (dielectric constant: 78.4, screening length: 8.12261 Bohr) occupying 0.595425 of unit cell:	Completed after 10 iterations at t[s]:   1320.94
	Linear fluid (dielectric constant: 78.4, screening length: 8.12261 Bohr) occupying 0.595422 of unit cell:	Completed after 7 iterations at t[s]:   1353.05
	FillingsUpdate:  mu: -0.097800000  nElectrons: 418.283307  magneticMoment: [ Abs: 0.00000  Tot: -0.00000 ]
	SubspaceRotationAdjust: set factor to 0.00947
	SubspaceRotationAdjust: resetting CG because factor has changed by 0.117386
	Linear fluid (dielectric constant: 78.4, screening length: 8.12261 Bohr) occupying 0.595422 of unit cell:	Completed after 0 iterations at t[s]:   1414.38
ElecMinimize: 	State modified externally: resetting search direction.
ElecMinimize: Iter:   9  G: -2272.641287949550133  |grad|_K:  9.471e-09  alpha:  1.248e-01
ElecMinimize: Converged (|Delta G|<1.000000e-07 for 2 iters).
Setting wave functions to eigenvectors of Hamiltonian
Converging empty states (this may take a while): |deigs|: 2.010e-09

Computing DFT-D3 correction:
# coordination-number Pt 6.808 9.341 8.508 9.489 9.517 9.414 9.542 9.536 9.316 8.591 5.286 9.295 5.943 9.296 9.415 9.317 9.536 9.540 9.341 9.516 9.488 8.508 5.286 8.591 6.808 5.943
# diagonal-C6 Pt 336.87 336.87 336.87 336.87 336.87 336.87 336.87 336.87 336.87 336.87 336.87 336.87 336.87 336.87 336.87 336.87 336.87 336.87 336.87 336.87 336.87 336.87 336.87 336.87 336.87 336.87
EvdW_6 =   -0.232558
EvdW_8 =   -0.374783

# Ionic positions in cartesian coordinates:
ion Pt   0.008300886195386  10.250386769970389  24.470372550078011 1
ion Pt   0.003751043484614   4.090872607458694  19.950820301083777 1
ion Pt   3.704000468454474   7.310422110905000  22.309900720641817 1
ion Pt   3.698323558370614   1.003301298931333  17.921335964933579 1
ion Pt  -0.001172353562739   8.211196616855061  13.890893392492885 1
ion Pt  -0.000018782338733   2.045410518339168   9.704581364703033 1
ion Pt   3.697225978116764  11.261831165992936  15.895868313370130 1
ion Pt   3.700123225298469   5.142460411263267  11.818803206296048 1
ion Pt  -0.002228169929225  12.352315923979413   7.580828985148714 1
ion Pt  -0.003579945930389   6.106482539776827   3.509905565823404 1
ion Pt   0.005485542408404   0.043709906365675  25.914385853332682 1
ion Pt   3.695835038435189   9.259105222352296   5.735698681218550 1
ion Pt   3.697755220892294   3.057064129260992   1.634944349058452 1
ion Pt   3.703321451275042  12.288868300369403  20.941938144555692 1
ion Pt   3.699625374023912   6.163208288406319  16.973622457189446 1
ion Pt   0.002181367095889   9.195458572724242  19.097161565144418 1
ion Pt  -0.000562357962227   3.066016451367690  14.859566865793118 1
ion Pt   3.702014942588852  10.285450831315313  10.782593628363690 1
ion Pt   3.695767936040622   4.117542462974773   6.727012936251505 1
ion Pt   0.001197301485617  13.336196814912993  12.787715027206097 1
ion Pt   0.001306067739144   7.204896901167350   8.756720217714886 1
ion Pt  -0.004471433201460   0.898597142071120   4.368044082863344 1
ion Pt   3.693952642146541   8.164639989460605   0.763066147687648 1
ion Pt   3.703182805876800   2.102750677703062  23.167949224761436 1
ion Pt  -0.008135714277438  11.297251028296847   2.207816031567539 1
ion Pt   0.001765907273576   5.151862317779182  25.042929422720011 1

# Forces in Cartesian coordinates:
force Pt   0.000044216864470   0.000375111860458   0.000262101335429 1
force Pt  -0.000006214079120   0.000190929015975   0.000483513031573 1
force Pt   0.000031198521854   0.000180321864164   0.000161012080410 1
force Pt   0.000076329220749   0.000138922424160  -0.000022046585115 1
force Pt  -0.000040735216854  -0.000029986180765   0.000201343695593 1
force Pt  -0.000066051760491  -0.000281100876213  -0.000029470931874 1
force Pt   0.000004771306845  -0.000250544509922  -0.000674219132536 1
force Pt   0.000057816562922  -0.000126980407732   0.000457256325320 1
force Pt  -0.000038225521052   0.000324306920822  -0.000230406543272 1
force Pt  -0.000068448447334  -0.000228505851490   0.000404824293750 1
force Pt   0.000024733350646   0.000082899793606  -0.000263763932139 1
force Pt  -0.000008524778517  -0.000224564311181  -0.000577442036595 1
force Pt  -0.000009712251974  -0.000160010321957   0.000121882843807 1
force Pt   0.000008329243055   0.000213153728575   0.000668998108563 1
force Pt   0.000064749284875   0.000270090067143  -0.000001559269652 1
force Pt   0.000038810279199  -0.000346508879782   0.000266824454193 1
force Pt  -0.000055162486601   0.000135977665123  -0.000541004400282 1
force Pt  -0.000001080313674   0.000246696133676   0.000580500246190 1
force Pt   0.000007365401599  -0.000171498231293  -0.000454235406021 1
force Pt   0.000036314739525   0.000029372101235  -0.000302691750049 1
force Pt  -0.000080394600528  -0.000105294846638  -0.000003875171953 1
force Pt  -0.000030449606805  -0.000160205059185  -0.000098530469628 1
force Pt  -0.000011899849173  -0.000073321611744   0.000253436042855 1
force Pt   0.000056764220195   0.000229918561981  -0.000313146086150 1
force Pt  -0.000056885924202  -0.000380814051084  -0.000214674525529 1
force Pt   0.000008796738663   0.000156320914755  -0.000081192391632 1

# Energy components:
   A_diel =       -1.1659383361733859
   Eewald =    30559.4215994963997218
       EH =    32794.5776933946690406
     Eloc =   -66067.2491734839422861
      Enl =      -27.3857113997192201
     EvdW =       -0.6073409413646542
      Exc =     -740.2403657319017611
 Exc_core =      426.1759271963548485
       KE =      743.0475919607370088
  MuShift =       -0.1193096970113646
-------------------------------------
     Etot =    -2313.5450275419520949
       TS =        0.0043678735382901
-------------------------------------
        F =    -2313.5493954154903804
      muN =      -40.9081074659400343
-------------------------------------
        G =    -2272.6412879495501329


Dumping 'jdft.fillings' ... done
Dumping 'jdft.wfns' ... done
Dumping 'jdft.fluidState' ... done
Dumping 'jdft.ionpos' ... done
Dumping 'jdft.lattice' ... done
Dumping 'jdft.eigenvals' ... done
Dumping 'jdft.eigStats' ... 
	eMin: -2.046809 at state 54 ( [ +0.444444 +0.500000 +0.000000 ] spin -1 )
	HOMO: -0.097855 at state 33 ( [ -0.111111 +0.250000 +0.000000 ] spin 1 )
	mu  : -0.097800
	LUMO: -0.097681 at state 54 ( [ +0.444444 +0.500000 +0.000000 ] spin -1 )
	eMax: +0.143734 at state 19 ( [ +0.444444 -0.250000 +0.000000 ] spin 1 )
	HOMO-LUMO gap: +0.000174
	Optical gap  : +0.000695 at state 54 ( [ +0.444444 +0.500000 +0.000000 ] spin -1 )
Dumping 'jdft.Ecomponents' ... done
IonicMinimize: Iter:   0  G: -2272.641287949550133  |grad|_K:  2.436e-04  t[s]:   1587.50

#--- Lowdin population analysis ---
# oxidation-state Pt -0.245 -0.003 -0.060 +0.009 +0.004 +0.009 +0.011 +0.011 +0.007 -0.103 -0.374 -0.012 -0.277 -0.013 +0.008 +0.006 +0.011 +0.011 -0.002 +0.004 +0.010 -0.058 -0.373 -0.105 -0.244 -0.279
# magnetic-moments Pt -0.000 -0.000 -0.000 -0.000 -0.000 -0.000 -0.000 -0.000 -0.000 -0.000 -0.000 -0.000 -0.000 -0.000 -0.000 -0.000 -0.000 -0.000 -0.000 -0.000 -0.000 -0.000 -0.000 -0.000 -0.000 -0.000


Computing DFT-D3 correction:
# coordination-number Pt 6.808 9.341 8.509 9.487 9.518 9.414 9.541 9.536 9.315 8.592 5.286 9.295 5.943 9.296 9.415 9.316 9.536 9.540 9.341 9.517 9.486 8.509 5.286 8.592 6.809 5.943
# diagonal-C6 Pt 336.87 336.87 336.87 336.87 336.87 336.87 336.87 336.87 336.87 336.87 336.87 336.87 336.87 336.87 336.87 336.87 336.87 336.87 336.87 336.87 336.87 336.87 336.87 336.87 336.87 336.87
EvdW_6 =   -0.232557
EvdW_8 =   -0.374778
Shifting auxilliary hamiltonian by -0.000036 to set nElectrons=418.283307

-------- Electronic minimization -----------
	Linear fluid (dielectric constant: 78.4, screening length: 8.12261 Bohr) occupying 0.595416 of unit cell:	Completed after 15 iterations at t[s]:   1637.82
	FillingsUpdate:  mu: -0.097800000  nElectrons: 418.283307  magneticMoment: [ Abs: 0.00000  Tot: -0.00000 ]
ElecMinimize: Iter:   0  G: -2272.641280505791656  |grad|_K:  1.960e-07  alpha:  1.000e+00
	Linear fluid (dielectric constant: 78.4, screening length: 8.12261 Bohr) occupying 0.595439 of unit cell:	Completed after 20 iterations at t[s]:   1737.79
	Linear fluid (dielectric constant: 78.4, screening length: 8.12261 Bohr) occupying 0.595423 of unit cell:	Completed after 19 iterations at t[s]:   1771.18
	FillingsUpdate:  mu: -0.097800000  nElectrons: 418.284650  magneticMoment: [ Abs: 0.00000  Tot: -0.00000 ]
	SubspaceRotationAdjust: set factor to 0.0142
ElecMinimize: Iter:   1  G: -2272.641287964530875  |grad|_K:  7.730e-08  alpha:  3.175e-01  linmin: -4.284e-04  t[s]:   1819.54
	Linear fluid (dielectric constant: 78.4, screening length: 8.12261 Bohr) occupying 0.595419 of unit cell:	Completed after 12 iterations at t[s]:   1864.80
	Linear fluid (dielectric constant: 78.4, screening length: 8.12261 Bohr) occupying 0.595418 of unit cell:	Completed after 2 iterations at t[s]:   1895.83
	FillingsUpdate:  mu: -0.097800000  nElectrons: 418.283767  magneticMoment: [ Abs: 0.00000  Tot: -0.00000 ]
	SubspaceRotationAdjust: set factor to 0.0132
ElecMinimize: Iter:   2  G: -2272.641289273201437  |grad|_K:  5.816e-08  alpha:  3.579e-01  linmin: -8.821e-03  t[s]:   1943.61
	Linear fluid (dielectric constant: 78.4, screening length: 8.12261 Bohr) occupying 0.595425 of unit cell:	Completed after 12 iterations at t[s]:   1987.13
	Linear fluid (dielectric constant: 78.4, screening length: 8.12261 Bohr) occupying 0.595424 of unit cell:	Completed after 5 iterations at t[s]:   2018.43
	FillingsUpdate:  mu: -0.097800000  nElectrons: 418.284866  magneticMoment: [ Abs: 0.00000  Tot: -0.00000 ]
	SubspaceRotationAdjust: set factor to 0.00955
ElecMinimize: Iter:   3  G: -2272.641289891094857  |grad|_K:  4.250e-08  alpha:  2.861e-01  linmin:  8.083e-03  t[s]:   2066.09
	Linear fluid (dielectric constant: 78.4, screening length: 8.12261 Bohr) occupying 0.595421 of unit cell:	Completed after 9 iterations at t[s]:   2109.14
	Linear fluid (dielectric constant: 78.4, screening length: 8.12261 Bohr) occupying 0.595420 of unit cell:	Completed after 2 iterations at t[s]:   2140.02
	FillingsUpdate:  mu: -0.097800000  nElectrons: 418.284300  magneticMoment: [ Abs: 0.00000  Tot: -0.00000 ]
	SubspaceRotationAdjust: set factor to 0.0087
ElecMinimize: Iter:   4  G: -2272.641290313033551  |grad|_K:  2.853e-08  alpha:  3.914e-01  linmin: -1.399e-02  t[s]:   2188.00
	Linear fluid (dielectric constant: 78.4, screening length: 8.12261 Bohr) occupying 0.595421 of unit cell:	Completed after 2 iterations at t[s]:   2230.07
	Linear fluid (dielectric constant: 78.4, screening length: 8.12261 Bohr) occupying 0.595421 of unit cell:	Completed after 3 iterations at t[s]:   2261.12
	FillingsUpdate:  mu: -0.097800000  nElectrons: 418.284459  magneticMoment: [ Abs: 0.00000  Tot: -0.00000 ]
	SubspaceRotationAdjust: set factor to 0.00978
ElecMinimize: Iter:   5  G: -2272.641290658710659  |grad|_K:  2.286e-08  alpha:  6.556e-01  linmin:  1.835e-03  t[s]:   2308.96
	Linear fluid (dielectric constant: 78.4, screening length: 8.12261 Bohr) occupying 0.595422 of unit cell:	Completed after 2 iterations at t[s]:   2351.08
	Linear fluid (dielectric constant: 78.4, screening length: 8.12261 Bohr) occupying 0.595422 of unit cell:	Completed after 0 iterations at t[s]:   2381.62
	FillingsUpdate:  mu: -0.097800000  nElectrons: 418.284631  magneticMoment: [ Abs: 0.00000  Tot: -0.00000 ]
	SubspaceRotationAdjust: set factor to 0.0111
ElecMinimize: Iter:   6  G: -2272.641290856424348  |grad|_K:  1.896e-08  alpha:  6.278e-01  linmin: -1.250e-03  t[s]:   2430.19
	Linear fluid (dielectric constant: 78.4, screening length: 8.12261 Bohr) occupying 0.595421 of unit cell:	Completed after 2 iterations at t[s]:   2473.19
	Linear fluid (dielectric constant: 78.4, screening length: 8.12261 Bohr) occupying 0.595421 of unit cell:	Completed after 0 iterations at t[s]:   2503.83
	FillingsUpdate:  mu: -0.097800000  nElectrons: 418.284475  magneticMoment: [ Abs: 0.00000  Tot: -0.00000 ]
	SubspaceRotationAdjust: set factor to 0.0123
ElecMinimize: Iter:   7  G: -2272.641290993677103  |grad|_K:  1.676e-08  alpha:  6.203e-01  linmin: -9.617e-04  t[s]:   2551.53
	Linear fluid (dielectric constant: 78.4, screening length: 8.12261 Bohr) occupying 0.595422 of unit cell:	Completed after 2 iterations at t[s]:   2593.71
	Linear fluid (dielectric constant: 78.4, screening length: 8.12261 Bohr) occupying 0.595422 of unit cell:	Completed after 0 iterations at t[s]:   2624.32
	FillingsUpdate:  mu: -0.097800000  nElectrons: 418.284627  magneticMoment: [ Abs: 0.00000  Tot: -0.00000 ]
	SubspaceRotationAdjust: set factor to 0.0149
ElecMinimize: Iter:   8  G: -2272.641291113907300  |grad|_K:  1.571e-08  alpha:  6.949e-01  linmin: -3.108e-03  t[s]:   2672.28
	Linear fluid (dielectric constant: 78.4, screening length: 8.12261 Bohr) occupying 0.595423 of unit cell:	Completed after 3 iterations at t[s]:   2714.50
	Linear fluid (dielectric constant: 78.4, screening length: 8.12261 Bohr) occupying 0.595423 of unit cell:	Completed after 0 iterations at t[s]:   2746.05
	FillingsUpdate:  mu: -0.097800000  nElectrons: 418.284757  magneticMoment: [ Abs: 0.00000  Tot: -0.00000 ]
	SubspaceRotationAdjust: set factor to 0.017
ElecMinimize: Iter:   9  G: -2272.641291219966206  |grad|_K:  1.716e-08  alpha:  6.808e-01  linmin: -2.132e-03  t[s]:   2793.95
	Linear fluid (dielectric constant: 78.4, screening length: 8.12261 Bohr) occupying 0.595420 of unit cell:	Completed after 6 iterations at t[s]:   2836.63
	Linear fluid (dielectric constant: 78.4, screening length: 8.12261 Bohr) occupying 0.595421 of unit cell:	Completed after 2 iterations at t[s]:   2867.82
	FillingsUpdate:  mu: -0.097800000  nElectrons: 418.284339  magneticMoment: [ Abs: 0.00000  Tot: -0.00000 ]
	SubspaceRotationAdjust: set factor to 0.0149
ElecMinimize: Iter:  10  G: -2272.641291309030294  |grad|_K:  2.249e-08  alpha:  4.672e-01  linmin:  3.170e-03  t[s]:   2915.80
	Linear fluid (dielectric constant: 78.4, screening length: 8.12261 Bohr) occupying 0.595424 of unit cell:	Completed after 6 iterations at t[s]:   2958.39
	Linear fluid (dielectric constant: 78.4, screening length: 8.12261 Bohr) occupying 0.595423 of unit cell:	Completed after 2 iterations at t[s]:   2989.43
	FillingsUpdate:  mu: -0.097800000  nElectrons: 418.284557  magneticMoment: [ Abs: 0.00000  Tot: -0.00000 ]
	SubspaceRotationAdjust: set factor to 0.0116
ElecMinimize: Iter:  11  G: -2272.641291387903493  |grad|_K:  1.817e-08  alpha:  2.913e-01  linmin:  1.644e-03  t[s]:   3037.25
ElecMinimize: Converged (|Delta G|<1.000000e-07 for 2 iters).
Setting wave functions to eigenvectors of Hamiltonian
Converging empty states (this may take a while): |deigs|: 1.516e-09

Computing DFT-D3 correction:
# coordination-number Pt 6.808 9.341 8.509 9.487 9.518 9.414 9.541 9.536 9.315 8.592 5.286 9.295 5.943 9.296 9.415 9.316 9.536 9.540 9.341 9.517 9.486 8.509 5.286 8.592 6.809 5.943
# diagonal-C6 Pt 336.87 336.87 336.87 336.87 336.87 336.87 336.87 336.87 336.87 336.87 336.87 336.87 336.87 336.87 336.87 336.87 336.87 336.87 336.87 336.87 336.87 336.87 336.87 336.87 336.87 336.87
EvdW_6 =   -0.232557
EvdW_8 =   -0.374778

# Ionic positions in cartesian coordinates:
ion Pt   0.008345625717614  10.250760547757283  24.470632596266316 1
ion Pt   0.003745352063253   4.091062202401104  19.951301758968224 1
ion Pt   3.704032189634087   7.310601098695599  22.310059677575104 1
ion Pt   3.698400410249122   1.003438887281928  17.921311863201339 1
ion Pt  -0.001212566121833   8.211165296600729  13.891092681041352 1
ion Pt  -0.000084311441465   2.045128083389389   9.704549838624033 1
ion Pt   3.697231272081368  11.261579287409448  15.895192039090468 1
ion Pt   3.700181564519150   5.142332096781970  11.819258407474242 1
ion Pt  -0.002265872792519  12.352638896826670   7.580596523458316 1
ion Pt  -0.003647871719965   6.106252699851773   3.510308334970028 1
ion Pt   0.005510798416809   0.043791472085716  25.914120034253418 1
ion Pt   3.695827036314430   9.258879323967550   5.735119184034829 1
ion Pt   3.697746031298078   3.056902784865470   1.635064176755134 1
ion Pt   3.703330303175855  12.289080120024412  20.942605087517130 1
ion Pt   3.699690645966545   6.163477044399897  16.973618842772666 1
ion Pt   0.002220700032847   9.195110729770896  19.097426334451487 1
ion Pt  -0.000616997791070   3.066151094959247  14.859023806245709 1
ion Pt   3.702014384932937  10.285696193375424  10.783172073462755 1
ion Pt   3.695775824099980   4.117369630669915   6.726556645698358 1
ion Pt   0.001234138882901  13.336224852940662  12.787410280308922 1
ion Pt   0.001226195796375   7.204790272247148   8.756714287395807 1
ion Pt  -0.004501360150506   0.898435602938370   4.367943497246592 1
ion Pt   3.693941264955127   8.164565333775295   0.763317528583378 1
ion Pt   3.703240092754754   2.102979262191479  23.167634023528162 1
ion Pt  -0.008192077543880  11.296868880172198   2.207599301894885 1
ion Pt   0.001775226669998   5.152017304620371  25.042846175181253 1

# Forces in Cartesian coordinates:
force Pt   0.000043686955826   0.000319509325676   0.000312027338587 1
force Pt  -0.000001085084954   0.000187420643149   0.000221442213035 1
force Pt   0.000030760745911   0.000175291684899   0.000078375318300 1
force Pt   0.000068930693627   0.000119599494713  -0.000222074394104 1
force Pt  -0.000033602577976  -0.000019432971863   0.000257813962555 1
force Pt  -0.000060317887553  -0.000247958559285   0.000261704196529 1
force Pt   0.000005150747151  -0.000212318255407  -0.000671243401152 1
force Pt   0.000048818285093  -0.000114635899648   0.000632632542041 1
force Pt  -0.000037460224221   0.000289592256270   0.000053705292079 1
force Pt  -0.000063545638362  -0.000260056431800   0.000227371928629 1
force Pt   0.000024678919674   0.000103554838654   0.000016807552347 1
force Pt  -0.000012267127752  -0.000178735064882  -0.000380607352469 1
force Pt  -0.000007526638829  -0.000207963902968  -0.000286294830067 1
force Pt   0.000012737802961   0.000179357345490   0.000400145542465 1
force Pt   0.000058684978806   0.000238435689292  -0.000110570729167 1
force Pt   0.000039164561366  -0.000301210491989   0.000049121021994 1
force Pt  -0.000045699816123   0.000118819436238  -0.000481413645211 1
force Pt  -0.000002334549126   0.000211460985401   0.000793646951650 1
force Pt   0.000001451743368  -0.000174290970684  -0.000189807560367 1
force Pt   0.000029931463343   0.000016711133406  -0.000119228758890 1
force Pt  -0.000072590532111  -0.000084497402469   0.000337883182624 1
force Pt  -0.000029926633334  -0.000157430792911  -0.000202802017334 1
force Pt  -0.000013378610654  -0.000087914747078  -0.000189202148660 1
force Pt   0.000052509679686   0.000235911464790  -0.000354885350272 1
force Pt  -0.000055053598765  -0.000295211036722  -0.000535093699171 1
force Pt   0.000006069631988   0.000190061281504   0.000115630441525 1

# Energy components:
   A_diel =       -1.1668771454523881
   Eewald =    30559.2927478043384326
       EH =    32794.5025403081090190
     Eloc =   -66067.0434888737654546
      Enl =      -27.3857352911399303
     EvdW =       -0.6073346254947859
      Exc =     -740.2405168513359968
 Exc_core =      426.1759271542497345
       KE =      743.0469584427913787
  MuShift =       -0.1193749771472075
-------------------------------------
     Etot =    -2313.5451540548483536
       TS =        0.0043669813669167
-------------------------------------
        F =    -2313.5495210362150829
      muN =      -40.9082296483114334
-------------------------------------
        G =    -2272.6412913879034932


Dumping 'jdft.fillings' ... done
Dumping 'jdft.wfns' ... done
Dumping 'jdft.fluidState' ... done
Dumping 'jdft.ionpos' ... done
Dumping 'jdft.lattice' ... done
Dumping 'jdft.eigenvals' ... done
Dumping 'jdft.eigStats' ... 
	eMin: -2.046752 at state 58 ( [ -0.444444 +0.500000 +0.000000 ] spin -1 )
	HOMO: -0.097837 at state 7 ( [ +0.111111 -0.250000 +0.000000 ] spin 1 )
	mu  : -0.097800
	LUMO: -0.097674 at state 54 ( [ +0.444444 +0.500000 +0.000000 ] spin -1 )
	eMax: +0.143723 at state 21 ( [ -0.444444 +0.250000 +0.000000 ] spin 1 )
	HOMO-LUMO gap: +0.000163
	Optical gap  : +0.000677 at state 54 ( [ +0.444444 +0.500000 +0.000000 ] spin -1 )
Dumping 'jdft.Ecomponents' ... done
IonicMinimize: Iter:   1  G: -2272.641291387903493  |grad|_K:  2.332e-04  alpha:  1.000e+00  linmin: -8.415e-01  t[s]:   3162.20

#--- Lowdin population analysis ---
# oxidation-state Pt -0.245 -0.004 -0.060 +0.009 +0.005 +0.009 +0.013 +0.014 +0.005 -0.107 -0.372 -0.012 -0.277 -0.012 +0.010 +0.006 +0.014 +0.012 -0.005 +0.005 +0.008 -0.060 -0.372 -0.106 -0.245 -0.277
# magnetic-moments Pt -0.000 -0.000 -0.000 -0.000 -0.000 -0.000 -0.000 -0.000 -0.000 -0.000 -0.000 -0.000 -0.000 -0.000 -0.000 -0.000 -0.000 -0.000 -0.000 -0.000 -0.000 -0.000 -0.000 -0.000 -0.000 -0.000


Computing DFT-D3 correction:
# coordination-number Pt 6.810 9.343 8.512 9.471 9.528 9.417 9.537 9.537 9.308 8.601 5.291 9.291 5.944 9.292 9.417 9.309 9.537 9.538 9.342 9.528 9.471 8.510 5.289 8.601 6.808 5.944
# diagonal-C6 Pt 336.87 336.87 336.87 336.87 336.87 336.87 336.87 336.87 336.87 336.87 336.87 336.87 336.87 336.87 336.87 336.87 336.87 336.87 336.87 336.87 336.87 336.87 336.87 336.87 336.87 336.87
EvdW_6 =   -0.232542
EvdW_8 =   -0.374729
Shifting auxilliary hamiltonian by -0.000054 to set nElectrons=418.284557

-------- Electronic minimization -----------
	Linear fluid (dielectric constant: 78.4, screening length: 8.12261 Bohr) occupying 0.595431 of unit cell:	Completed after 16 iterations at t[s]:   3212.88
	FillingsUpdate:  mu: -0.097800000  nElectrons: 418.284557  magneticMoment: [ Abs: 0.00000  Tot: -0.00000 ]
ElecMinimize: Iter:   0  G: -2272.641212604999964  |grad|_K:  3.940e-07  alpha:  1.000e+00
	Linear fluid (dielectric constant: 78.4, screening length: 8.12261 Bohr) occupying 0.595533 of unit cell:	Completed after 22 iterations at t[s]:   3313.06
	Linear fluid (dielectric constant: 78.4, screening length: 8.12261 Bohr) occupying 0.595458 of unit cell:	Completed after 22 iterations at t[s]:   3347.69
	FillingsUpdate:  mu: -0.097800000  nElectrons: 418.289312  magneticMoment: [ Abs: 0.00000  Tot: -0.00000 ]
	SubspaceRotationAdjust: set factor to 0.00814
ElecMinimize: Iter:   1  G: -2272.641237145853665  |grad|_K:  2.371e-07  alpha:  2.589e-01  linmin:  1.039e-05  t[s]:   3395.88
	Linear fluid (dielectric constant: 78.4, screening length: 8.12261 Bohr) occupying 0.595434 of unit cell:	Completed after 15 iterations at t[s]:   3439.81
	Linear fluid (dielectric constant: 78.4, screening length: 8.12261 Bohr) occupying 0.595436 of unit cell:	Completed after 7 iterations at t[s]:   3471.75
	FillingsUpdate:  mu: -0.097800000  nElectrons: 418.285600  magneticMoment: [ Abs: 0.00000  Tot: -0.00000 ]
	SubspaceRotationAdjust: set factor to 0.0058
ElecMinimize: Iter:   2  G: -2272.641245229634478  |grad|_K:  1.111e-07  alpha:  2.358e-01  linmin:  9.679e-04  t[s]:   3519.81
	Linear fluid (dielectric constant: 78.4, screening length: 8.12261 Bohr) occupying 0.595435 of unit cell:	Completed after 2 iterations at t[s]:   3561.78
	Linear fluid (dielectric constant: 78.4, screening length: 8.12261 Bohr) occupying 0.595435 of unit cell:	Completed after 6 iterations at t[s]:   3593.32
	FillingsUpdate:  mu: -0.097800000  nElectrons: 418.285290  magneticMoment: [ Abs: 0.00000  Tot: -0.00000 ]
	SubspaceRotationAdjust: set factor to 0.00719
ElecMinimize: Iter:   3  G: -2272.641249018658527  |grad|_K:  7.610e-08  alpha:  5.083e-01  linmin:  2.306e-03  t[s]:   3641.21
	Linear fluid (dielectric constant: 78.4, screening length: 8.12261 Bohr) occupying 0.595437 of unit cell:	Completed after 10 iterations at t[s]:   3685.92
	Linear fluid (dielectric constant: 78.4, screening length: 8.12261 Bohr) occupying 0.595437 of unit cell:	Completed after 0 iterations at t[s]:   3716.40
	FillingsUpdate:  mu: -0.097800000  nElectrons: 418.285703  magneticMoment: [ Abs: 0.00000  Tot: -0.00000 ]
	SubspaceRotationAdjust: set factor to 0.00763
ElecMinimize: Iter:   4  G: -2272.641250926925750  |grad|_K:  6.439e-08  alpha:  5.436e-01  linmin: -2.896e-03  t[s]:   3764.50
	Linear fluid (dielectric constant: 78.4, screening length: 8.12261 Bohr) occupying 0.595432 of unit cell:	Completed after 12 iterations at t[s]:   3807.99
	Linear fluid (dielectric constant: 78.4, screening length: 8.12261 Bohr) occupying 0.595432 of unit cell:	Completed after 0 iterations at t[s]:   3838.70
	FillingsUpdate:  mu: -0.097800000  nElectrons: 418.284666  magneticMoment: [ Abs: 0.00000  Tot: -0.00000 ]
	SubspaceRotationAdjust: set factor to 0.00776
ElecMinimize: Iter:   5  G: -2272.641252326883659  |grad|_K:  5.794e-08  alpha:  5.461e-01  linmin:  1.002e-03  t[s]:   3886.96
	Linear fluid (dielectric constant: 78.4, screening length: 8.12261 Bohr) occupying 0.595435 of unit cell:	Completed after 10 iterations at t[s]:   3930.05
	Linear fluid (dielectric constant: 78.4, screening length: 8.12261 Bohr) occupying 0.595435 of unit cell:	Completed after 0 iterations at t[s]:   3962.03
	FillingsUpdate:  mu: -0.097800000  nElectrons: 418.285124  magneticMoment: [ Abs: 0.00000  Tot: -0.00000 ]
	SubspaceRotationAdjust: set factor to 0.00834
ElecMinimize: Iter:   6  G: -2272.641253476756447  |grad|_K:  5.550e-08  alpha:  5.657e-01  linmin: -8.786e-04  t[s]:   4010.08
	Linear fluid (dielectric constant: 78.4, screening length: 8.12261 Bohr) occupying 0.595433 of unit cell:	Completed after 2 iterations at t[s]:   4052.18
	Linear fluid (dielectric constant: 78.4, screening length: 8.12261 Bohr) occupying 0.595432 of unit cell:	Completed after 2 iterations at t[s]:   4083.40
	FillingsUpdate:  mu: -0.097800000  nElectrons: 418.284480  magneticMoment: [ Abs: 0.00000  Tot: -0.00000 ]
	SubspaceRotationAdjust: set factor to 0.00993
ElecMinimize: Iter:   7  G: -2272.641254828143246  |grad|_K:  5.799e-08  alpha:  7.141e-01  linmin:  6.973e-05  t[s]:   4131.42
	Linear fluid (dielectric constant: 78.4, screening length: 8.12261 Bohr) occupying 0.595427 of unit cell:	Completed after 10 iterations at t[s]:   4174.63
	Linear fluid (dielectric constant: 78.4, screening length: 8.12261 Bohr) occupying 0.595426 of unit cell:	Completed after 0 iterations at t[s]:   4205.48
	FillingsUpdate:  mu: -0.097800000  nElectrons: 418.283209  magneticMoment: [ Abs: 0.00000  Tot: -0.00000 ]
	SubspaceRotationAdjust: set factor to 0.0105
ElecMinimize: Iter:   8  G: -2272.641256426142263  |grad|_K:  7.626e-08  alpha:  7.770e-01  linmin: -1.366e-03  t[s]:   4254.47
	Linear fluid (dielectric constant: 78.4, screening length: 8.12261 Bohr) occupying 0.595436 of unit cell:	Completed after 13 iterations at t[s]:   4297.99
	Linear fluid (dielectric constant: 78.4, screening length: 8.12261 Bohr) occupying 0.595432 of unit cell:	Completed after 10 iterations at t[s]:   4330.20
	FillingsUpdate:  mu: -0.097800000  nElectrons: 418.284032  magneticMoment: [ Abs: 0.00000  Tot: -0.00000 ]
	SubspaceRotationAdjust: set factor to 0.00917
ElecMinimize: Iter:   9  G: -2272.641258243502307  |grad|_K:  9.208e-08  alpha:  4.897e-01  linmin:  1.366e-04  t[s]:   4378.01
	Linear fluid (dielectric constant: 78.4, screening length: 8.12261 Bohr) occupying 0.595425 of unit cell:	Completed after 10 iterations at t[s]:   4421.30
	Linear fluid (dielectric constant: 78.4, screening length: 8.12261 Bohr) occupying 0.595424 of unit cell:	Completed after 2 iterations at t[s]:   4452.33
	FillingsUpdate:  mu: -0.097800000  nElectrons: 418.282005  magneticMoment: [ Abs: 0.00000  Tot: -0.00000 ]
	SubspaceRotationAdjust: set factor to 0.00984
ElecMinimize: Iter:  10  G: -2272.641261366744857  |grad|_K:  9.074e-08  alpha:  6.064e-01  linmin: -2.502e-04  t[s]:   4500.05
	Linear fluid (dielectric constant: 78.4, screening length: 8.12261 Bohr) occupying 0.595417 of unit cell:	Completed after 10 iterations at t[s]:   4543.55
	Linear fluid (dielectric constant: 78.4, screening length: 8.12261 Bohr) occupying 0.595416 of unit cell:	Completed after 2 iterations at t[s]:   4575.53
	FillingsUpdate:  mu: -0.097800000  nElectrons: 418.280120  magneticMoment: [ Abs: 0.00000  Tot: -0.00000 ]
	SubspaceRotationAdjust: set factor to 0.0104
ElecMinimize: Iter:  11  G: -2272.641264987465092  |grad|_K:  1.081e-07  alpha:  7.112e-01  linmin: -3.276e-04  t[s]:   4623.34
	Linear fluid (dielectric constant: 78.4, screening length: 8.12261 Bohr) occupying 0.595434 of unit cell:	Completed after 14 iterations at t[s]:   4667.02
	Linear fluid (dielectric constant: 78.4, screening length: 8.12261 Bohr) occupying 0.595426 of unit cell:	Completed after 11 iterations at t[s]:   4699.61
	FillingsUpdate:  mu: -0.097800000  nElectrons: 418.281425  magneticMoment: [ Abs: 0.00000  Tot: -0.00000 ]
	SubspaceRotationAdjust: set factor to 0.00875
ElecMinimize: Iter:  12  G: -2272.641268043842956  |grad|_K:  1.139e-07  alpha:  4.167e-01  linmin:  7.259e-05  t[s]:   4747.89
	Linear fluid (dielectric constant: 78.4, screening length: 8.12261 Bohr) occupying 0.595421 of unit cell:	Completed after 11 iterations at t[s]:   4791.28
	Linear fluid (dielectric constant: 78.4, screening length: 8.12261 Bohr) occupying 0.595420 of unit cell:	Completed after 2 iterations at t[s]:   4822.24
	FillingsUpdate:  mu: -0.097800000  nElectrons: 418.279819  magneticMoment: [ Abs: 0.00000  Tot: -0.00000 ]
	SubspaceRotationAdjust: set factor to 0.0101
ElecMinimize: Iter:  13  G: -2272.641272005362225  |grad|_K:  9.629e-08  alpha:  5.025e-01  linmin: -1.524e-04  t[s]:   4870.47
	Linear fluid (dielectric constant: 78.4, screening length: 8.12261 Bohr) occupying 0.595417 of unit cell:	Completed after 11 iterations at t[s]:   4913.93
	Linear fluid (dielectric constant: 78.4, screening length: 8.12261 Bohr) occupying 0.595416 of unit cell:	Completed after 2 iterations at t[s]:   4945.05
	FillingsUpdate:  mu: -0.097800000  nElectrons: 418.278729  magneticMoment: [ Abs: 0.00000  Tot: -0.00000 ]
	SubspaceRotationAdjust: set factor to 0.0108
ElecMinimize: Iter:  14  G: -2272.641275751790545  |grad|_K:  1.078e-07  alpha:  6.530e-01  linmin: -3.916e-04  t[s]:   4993.00
	Linear fluid (dielectric constant: 78.4, screening length: 8.12261 Bohr) occupying 0.595438 of unit cell:	Completed after 14 iterations at t[s]:   5036.76
	Linear fluid (dielectric constant: 78.4, screening length: 8.12261 Bohr) occupying 0.595428 of unit cell:	Completed after 12 iterations at t[s]:   5069.40
	FillingsUpdate:  mu: -0.097800000  nElectrons: 418.280784  magneticMoment: [ Abs: 0.00000  Tot: -0.00000 ]
	SubspaceRotationAdjust: set factor to 0.00917
ElecMinimize: Iter:  15  G: -2272.641278449717447  |grad|_K:  1.016e-07  alpha:  3.651e-01  linmin:  7.732e-05  t[s]:   5117.43
	Linear fluid (dielectric constant: 78.4, screening length: 8.12261 Bohr) occupying 0.595426 of unit cell:	Completed after 10 iterations at t[s]:   5161.62
	Linear fluid (dielectric constant: 78.4, screening length: 8.12261 Bohr) occupying 0.595425 of unit cell:	Completed after 7 iterations at t[s]:   5193.62
	FillingsUpdate:  mu: -0.097800000  nElectrons: 418.280509  magneticMoment: [ Abs: 0.00000  Tot: -0.00000 ]
	SubspaceRotationAdjust: set factor to 0.0105
ElecMinimize: Iter:  16  G: -2272.641281848902509  |grad|_K:  8.764e-08  alpha:  5.432e-01  linmin:  4.201e-05  t[s]:   5241.29
	Linear fluid (dielectric constant: 78.4, screening length: 8.12261 Bohr) occupying 0.595424 of unit cell:	Completed after 11 iterations at t[s]:   5284.93
	Linear fluid (dielectric constant: 78.4, screening length: 8.12261 Bohr) occupying 0.595423 of unit cell:	Completed after 2 iterations at t[s]:   5315.73
	FillingsUpdate:  mu: -0.097800000  nElectrons: 418.280692  magneticMoment: [ Abs: 0.00000  Tot: -0.00000 ]
	SubspaceRotationAdjust: set factor to 0.0114
ElecMinimize: Iter:  17  G: -2272.641284817631458  |grad|_K:  8.679e-08  alpha:  6.348e-01  linmin: -1.189e-04  t[s]:   5363.57
	Linear fluid (dielectric constant: 78.4, screening length: 8.12261 Bohr) occupying 0.595440 of unit cell:	Completed after 14 iterations at t[s]:   5407.60
	Linear fluid (dielectric constant: 78.4, screening length: 8.12261 Bohr) occupying 0.595434 of unit cell:	Completed after 11 iterations at t[s]:   5440.23
	FillingsUpdate:  mu: -0.097800000  nElectrons: 418.282960  magneticMoment: [ Abs: 0.00000  Tot: -0.00000 ]
	SubspaceRotationAdjust: set factor to 0.00957
ElecMinimize: Iter:  18  G: -2272.641286611959003  |grad|_K:  8.350e-08  alpha:  3.838e-01  linmin:  1.183e-04  t[s]:   5488.60
	Linear fluid (dielectric constant: 78.4, screening length: 8.12261 Bohr) occupying 0.595430 of unit cell:	Completed after 11 iterations at t[s]:   5532.00
	Linear fluid (dielectric constant: 78.4, screening length: 8.12261 Bohr) occupying 0.595430 of unit cell:	Completed after 0 iterations at t[s]:   5562.74
	FillingsUpdate:  mu: -0.097800000  nElectrons: 418.282902  magneticMoment: [ Abs: 0.00000  Tot: -0.00000 ]
	SubspaceRotationAdjust: set factor to 0.00942
ElecMinimize: Iter:  19  G: -2272.641288379578782  |grad|_K:  6.191e-08  alpha:  4.177e-01  linmin: -5.187e-04  t[s]:   5610.53
	Linear fluid (dielectric constant: 78.4, screening length: 8.12261 Bohr) occupying 0.595430 of unit cell:	Completed after 4 iterations at t[s]:   5652.81
	Linear fluid (dielectric constant: 78.4, screening length: 8.12261 Bohr) occupying 0.595430 of unit cell:	Completed after 3 iterations at t[s]:   5683.92
	FillingsUpdate:  mu: -0.097800000  nElectrons: 418.283543  magneticMoment: [ Abs: 0.00000  Tot: -0.00000 ]
	SubspaceRotationAdjust: set factor to 0.0105
ElecMinimize: Iter:  20  G: -2272.641289713053993  |grad|_K:  5.317e-08  alpha:  5.572e-01  linmin: -4.125e-04  t[s]:   5731.48
	Linear fluid (dielectric constant: 78.4, screening length: 8.12261 Bohr) occupying 0.595436 of unit cell:	Completed after 12 iterations at t[s]:   5775.71
	Linear fluid (dielectric constant: 78.4, screening length: 8.12261 Bohr) occupying 0.595434 of unit cell:	Completed after 6 iterations at t[s]:   5807.23
	FillingsUpdate:  mu: -0.097800000  nElectrons: 418.284844  magneticMoment: [ Abs: 0.00000  Tot: -0.00000 ]
	SubspaceRotationAdjust: set factor to 0.0089
ElecMinimize: Iter:  21  G: -2272.641290438558826  |grad|_K:  5.078e-08  alpha:  4.097e-01  linmin:  7.365e-04  t[s]:   5855.05
	Linear fluid (dielectric constant: 78.4, screening length: 8.12261 Bohr) occupying 0.595430 of unit cell:	Completed after 10 iterations at t[s]:   5898.44
	Linear fluid (dielectric constant: 78.4, screening length: 8.12261 Bohr) occupying 0.595431 of unit cell:	Completed after 2 iterations at t[s]:   5929.54
	FillingsUpdate:  mu: -0.097800000  nElectrons: 418.284575  magneticMoment: [ Abs: 0.00000  Tot: -0.00000 ]
	SubspaceRotationAdjust: set factor to 0.00731
ElecMinimize: Iter:  22  G: -2272.641290947313792  |grad|_K:  3.600e-08  alpha:  3.334e-01  linmin:  8.558e-04  t[s]:   5977.78
	Linear fluid (dielectric constant: 78.4, screening length: 8.12261 Bohr) occupying 0.595431 of unit cell:	Completed after 2 iterations at t[s]:   6019.91
	Linear fluid (dielectric constant: 78.4, screening length: 8.12261 Bohr) occupying 0.595431 of unit cell:	Completed after 3 iterations at t[s]:   6051.65
	FillingsUpdate:  mu: -0.097800000  nElectrons: 418.285052  magneticMoment: [ Abs: 0.00000  Tot: -0.00000 ]
	SubspaceRotationAdjust: set factor to 0.00859
ElecMinimize: Iter:  23  G: -2272.641291352978442  |grad|_K:  2.672e-08  alpha:  5.282e-01  linmin: -8.011e-05  t[s]:   6099.73
	Linear fluid (dielectric constant: 78.4, screening length: 8.12261 Bohr) occupying 0.595433 of unit cell:	Completed after 7 iterations at t[s]:   6142.43
	Linear fluid (dielectric constant: 78.4, screening length: 8.12261 Bohr) occupying 0.595433 of unit cell:	Completed after 0 iterations at t[s]:   6172.93
	FillingsUpdate:  mu: -0.097800000  nElectrons: 418.285436  magneticMoment: [ Abs: 0.00000  Tot: -0.00000 ]
	SubspaceRotationAdjust: set factor to 0.00934
ElecMinimize: Iter:  24  G: -2272.641291600461500  |grad|_K:  2.322e-08  alpha:  5.657e-01  linmin: -2.273e-03  t[s]:   6221.09
	Linear fluid (dielectric constant: 78.4, screening length: 8.12261 Bohr) occupying 0.595430 of unit cell:	Completed after 8 iterations at t[s]:   6263.97
	Linear fluid (dielectric constant: 78.4, screening length: 8.12261 Bohr) occupying 0.595431 of unit cell:	Completed after 2 iterations at t[s]:   6295.17
	FillingsUpdate:  mu: -0.097800000  nElectrons: 418.285158  magneticMoment: [ Abs: 0.00000  Tot: -0.00000 ]
	SubspaceRotationAdjust: set factor to 0.00864
ElecMinimize: Iter:  25  G: -2272.641291753790028  |grad|_K:  2.405e-08  alpha:  4.504e-01  linmin:  2.272e-03  t[s]:   6343.02
	Linear fluid (dielectric constant: 78.4, screening length: 8.12261 Bohr) occupying 0.595432 of unit cell:	Completed after 6 iterations at t[s]:   6386.16
	Linear fluid (dielectric constant: 78.4, screening length: 8.12261 Bohr) occupying 0.595432 of unit cell:	Completed after 0 iterations at t[s]:   6416.94
	FillingsUpdate:  mu: -0.097800000  nElectrons: 418.285461  magneticMoment: [ Abs: 0.00000  Tot: -0.00000 ]
	SubspaceRotationAdjust: set factor to 0.00979
ElecMinimize: Iter:  26  G: -2272.641291897951305  |grad|_K:  1.900e-08  alpha:  4.278e-01  linmin: -8.767e-04  t[s]:   6465.02
	Linear fluid (dielectric constant: 78.4, screening length: 8.12261 Bohr) occupying 0.595432 of unit cell:	Completed after 0 iterations at t[s]:   6506.68
	Linear fluid (dielectric constant: 78.4, screening length: 8.12261 Bohr) occupying 0.595433 of unit cell:	Completed after 1 iterations at t[s]:   6537.52
	FillingsUpdate:  mu: -0.097800000  nElectrons: 418.285540  magneticMoment: [ Abs: 0.00000  Tot: -0.00000 ]
	SubspaceRotationAdjust: set factor to 0.0115
ElecMinimize: Iter:  27  G: -2272.641292045247610  |grad|_K:  1.968e-08  alpha:  6.781e-01  linmin:  7.213e-04  t[s]:   6585.35
	Linear fluid (dielectric constant: 78.4, screening length: 8.12261 Bohr) occupying 0.595431 of unit cell:	Completed after 2 iterations at t[s]:   6627.45
	Linear fluid (dielectric constant: 78.4, screening length: 8.12261 Bohr) occupying 0.595431 of unit cell:	Completed after 0 iterations at t[s]:   6659.11
	FillingsUpdate:  mu: -0.097800000  nElectrons: 418.285126  magneticMoment: [ Abs: 0.00000  Tot: -0.00000 ]
	SubspaceRotationAdjust: set factor to 0.0125
ElecMinimize: Iter:  28  G: -2272.641292203348257  |grad|_K:  1.984e-08  alpha:  6.788e-01  linmin: -2.561e-04  t[s]:   6706.95
	Linear fluid (dielectric constant: 78.4, screening length: 8.12261 Bohr) occupying 0.595431 of unit cell:	Completed after 2 iterations at t[s]:   6748.94
	Linear fluid (dielectric constant: 78.4, screening length: 8.12261 Bohr) occupying 0.595431 of unit cell:	Completed after 0 iterations at t[s]:   6779.47
	FillingsUpdate:  mu: -0.097800000  nElectrons: 418.285030  magneticMoment: [ Abs: 0.00000  Tot: -0.00000 ]
	SubspaceRotationAdjust: set factor to 0.0139
ElecMinimize: Iter:  29  G: -2272.641292373485157  |grad|_K:  2.067e-08  alpha:  7.044e-01  linmin: -3.316e-04  t[s]:   6827.65
	Linear fluid (dielectric constant: 78.4, screening length: 8.12261 Bohr) occupying 0.595432 of unit cell:	Completed after 4 iterations at t[s]:   6869.89
	Linear fluid (dielectric constant: 78.4, screening length: 8.12261 Bohr) occupying 0.595431 of unit cell:	Completed after 0 iterations at t[s]:   6900.48
	FillingsUpdate:  mu: -0.097800000  nElectrons: 418.284926  magneticMoment: [ Abs: 0.00000  Tot: -0.00000 ]
	SubspaceRotationAdjust: set factor to 0.0143
ElecMinimize: Iter:  30  G: -2272.641292528714075  |grad|_K:  2.291e-08  alpha:  5.931e-01  linmin:  3.707e-04  t[s]:   6949.18
	Linear fluid (dielectric constant: 78.4, screening length: 8.12261 Bohr) occupying 0.595427 of unit cell:	Completed after 11 iterations at t[s]:   6992.49
	Linear fluid (dielectric constant: 78.4, screening length: 8.12261 Bohr) occupying 0.595429 of unit cell:	Completed after 7 iterations at t[s]:   7024.26
	FillingsUpdate:  mu: -0.097800000  nElectrons: 418.284386  magneticMoment: [ Abs: 0.00000  Tot: -0.00000 ]
	SubspaceRotationAdjust: set factor to 0.0112
ElecMinimize: Iter:  31  G: -2272.641292624882681  |grad|_K:  2.260e-08  alpha:  2.906e-01  linmin:  9.465e-04  t[s]:   7072.21
	Linear fluid (dielectric constant: 78.4, screening length: 8.12261 Bohr) occupying 0.595431 of unit cell:	Completed after 6 iterations at t[s]:   7114.89
	Linear fluid (dielectric constant: 78.4, screening length: 8.12261 Bohr) occupying 0.595431 of unit cell:	Completed after 0 iterations at t[s]:   7145.52
	FillingsUpdate:  mu: -0.097800000  nElectrons: 418.284442  magneticMoment: [ Abs: 0.00000  Tot: -0.00000 ]
	SubspaceRotationAdjust: set factor to 0.0129
ElecMinimize: Iter:  32  G: -2272.641292727312248  |grad|_K:  1.562e-08  alpha:  3.345e-01  linmin: -3.478e-03  t[s]:   7193.53
	Linear fluid (dielectric constant: 78.4, screening length: 8.12261 Bohr) occupying 0.595432 of unit cell:	Completed after 3 iterations at t[s]:   7235.77
	Linear fluid (dielectric constant: 78.4, screening length: 8.12261 Bohr) occupying 0.595432 of unit cell:	Completed after 0 iterations at t[s]:   7267.38
	FillingsUpdate:  mu: -0.097800000  nElectrons: 418.284521  magneticMoment: [ Abs: 0.00000  Tot: -0.00000 ]
	SubspaceRotationAdjust: set factor to 0.0132
ElecMinimize: Iter:  33  G: -2272.641292799983603  |grad|_K:  1.366e-08  alpha:  4.294e-01  linmin: -5.635e-03  t[s]:   7315.37
	Linear fluid (dielectric constant: 78.4, screening length: 8.12261 Bohr) occupying 0.595431 of unit cell:	Completed after 2 iterations at t[s]:   7357.61
	Linear fluid (dielectric constant: 78.4, screening length: 8.12261 Bohr) occupying 0.595431 of unit cell:	Completed after 0 iterations at t[s]:   7388.10
	FillingsUpdate:  mu: -0.097800000  nElectrons: 418.284132  magneticMoment: [ Abs: 0.00000  Tot: -0.00000 ]
	SubspaceRotationAdjust: set factor to 0.015
ElecMinimize: Iter:  34  G: -2272.641292860405883  |grad|_K:  1.155e-08  alpha:  4.722e-01  linmin: -2.528e-03  t[s]:   7435.88
ElecMinimize: Converged (|Delta G|<1.000000e-07 for 2 iters).
Setting wave functions to eigenvectors of Hamiltonian
Converging empty states (this may take a while): |deigs|: 1.812e-08

Computing DFT-D3 correction:
# coordination-number Pt 6.810 9.343 8.512 9.471 9.528 9.417 9.537 9.537 9.308 8.601 5.291 9.291 5.944 9.292 9.417 9.309 9.537 9.538 9.342 9.528 9.471 8.510 5.289 8.601 6.808 5.944
# diagonal-C6 Pt 336.87 336.87 336.87 336.87 336.87 336.87 336.87 336.87 336.87 336.87 336.87 336.87 336.87 336.87 336.87 336.87 336.87 336.87 336.87 336.87 336.87 336.87 336.87 336.87 336.87 336.87
EvdW_6 =   -0.232542
EvdW_8 =   -0.374729

# Ionic positions in cartesian coordinates:
ion Pt   0.008758994091654  10.254046622345896  24.473214810717433 1
ion Pt   0.003709156748671   4.092809369286363  19.954916795209762 1
ion Pt   3.704325021906220   7.312244821919204  22.311269186295494 1
ion Pt   3.699089342730579   1.004651500862555  17.920437529818805 1
ion Pt  -0.001562625723782   8.210907975992443  13.893132379175272 1
ion Pt  -0.000673946073893   2.042613902490306   9.705216165380872 1
ion Pt   3.697281481253418  11.259365393849034  15.888929354701572 1
ion Pt   3.700693417963909   5.141180332478372  11.824063152013210 1
ion Pt  -0.002613501569589  12.355521838529876   7.579374593917154 1
ion Pt  -0.004262475951786   6.104014727323310   3.513470249563918 1
ion Pt   0.005744876247492   0.044615075932924  25.912576875931723 1
ion Pt   3.695740323157577   9.256931495582283   5.730390034701847 1
ion Pt   3.697667720602086   3.055246847672481   1.634843750102597 1
ion Pt   3.703426740209276  12.290934331912684  20.947919598690923 1
ion Pt   3.700276463905867   6.165866765943220  16.973232917799582 1
ion Pt   0.002586781073890   9.192029256025615  19.099175421316296 1
ion Pt  -0.001093338197812   3.067343468182904  14.854183154995626 1
ion Pt   3.702004925349251  10.287857035820856  10.789244550954487 1
ion Pt   3.695829490780458   4.115755044219920   6.723192606127098 1
ion Pt   0.001554978356882  13.336442435647118  12.785187583621884 1
ion Pt   0.000510212615976   7.203867494813724   8.757783948559103 1
ion Pt  -0.004777605893773   0.896944083192399   4.366673004332494 1
ion Pt   3.693830641264717   8.163823368336107   0.764205276136419 1
ion Pt   3.703757722492937   2.105119469055247  23.164576345478416 1
ion Pt  -0.008709418246355  11.293601051436937   2.204542471674228 1
ion Pt   0.001852620906121   5.153565291148167  25.042723242783694 1

# Forces in Cartesian coordinates:
force Pt   0.000028545046163  -0.000034435750945   0.000302965876695 1
force Pt   0.000068298177886  -0.000044614355452  -0.000530749497348 1
force Pt   0.000018153538013   0.000251683118656   0.000251434783315 1
force Pt  -0.000042379245732  -0.000162054237450  -0.000349552402884 1
force Pt   0.000054550622402  -0.000033907234179  -0.000136574580207 1
force Pt   0.000040748106811   0.000251983935194  -0.000238534277479 1
force Pt   0.000030684166817   0.000495613367065   0.000771795953491 1
force Pt  -0.000092395598874   0.000192164221224  -0.000472359305584 1
force Pt  -0.000029386764722  -0.000480452299520  -0.000043709721159 1
force Pt   0.000015770923967  -0.000218742795755  -0.000033576119171 1
force Pt   0.000055141597942   0.000395273242821   0.000617511102347 1
force Pt  -0.000071807815268   0.000148675516324   0.000908865175014 1
force Pt  -0.000036739404605  -0.000208557957969  -0.000426277540251 1
force Pt   0.000066665828066  -0.000142520887152  -0.000969561647525 1
force Pt  -0.000041020425369  -0.000227513026730   0.000215262835550 1
force Pt   0.000030634096742   0.000514390106840   0.000032180726008 1
force Pt   0.000090640557283  -0.000193108896375   0.000440833961742 1
force Pt  -0.000036665442909  -0.000486999791262  -0.000759554232688 1
force Pt  -0.000074474587124   0.000017536174104   0.000557258512117 1
force Pt  -0.000048019808440   0.000043312488725   0.000113319741864 1
force Pt   0.000045238849175   0.000128832775462   0.000360793610724 1
force Pt  -0.000022238741313  -0.000278448450002  -0.000206389625372 1
force Pt  -0.000065566104921  -0.000383463760934  -0.000494383979920 1
force Pt  -0.000007212547166   0.000235375598346   0.000044593435400 1
force Pt  -0.000021919835326   0.000029005831953  -0.000260773255417 1
force Pt   0.000032386325024   0.000235890196437   0.000529545815400 1

# Energy components:
   A_diel =       -1.1665981505870304
   Eewald =    30557.6441361275028612
       EH =    32792.8606259639127529
     Eloc =   -66063.7529737734148512
      Enl =      -27.3859363375766662
     EvdW =       -0.6072711746562108
      Exc =     -740.2402521224252041
 Exc_core =      426.1759267950258163
       KE =      743.0465808404554764
  MuShift =       -0.1193527807617522
-------------------------------------
     Etot =    -2313.5451146125210471
       TS =        0.0043663520577803
-------------------------------------
        F =    -2313.5494809645788337
      muN =      -40.9081881041728295
-------------------------------------
        G =    -2272.6412928604058834


Dumping 'jdft.fillings' ... done
Dumping 'jdft.wfns' ... done
Dumping 'jdft.fluidState' ... done
Dumping 'jdft.ionpos' ... done
Dumping 'jdft.lattice' ... done
Dumping 'jdft.eigenvals' ... done
Dumping 'jdft.eigStats' ... 
	eMin: -2.046809 at state 54 ( [ +0.444444 +0.500000 +0.000000 ] spin -1 )
	HOMO: -0.097881 at state 33 ( [ -0.111111 +0.250000 +0.000000 ] spin 1 )
	mu  : -0.097800
	LUMO: -0.097731 at state 54 ( [ +0.444444 +0.500000 +0.000000 ] spin -1 )
	eMax: +0.143748 at state 21 ( [ -0.444444 +0.250000 +0.000000 ] spin 1 )
	HOMO-LUMO gap: +0.000151
	Optical gap  : +0.000651 at state 22 ( [ -0.444444 +0.500000 +0.000000 ] spin 1 )
Dumping 'jdft.Ecomponents' ... done
IonicMinimize: Iter:   2  G: -2272.641292860405883  |grad|_K:  3.135e-04  alpha:  1.000e+00  linmin:  5.993e-01  t[s]:   7560.64

#--- Lowdin population analysis ---
# oxidation-state Pt -0.244 -0.004 -0.059 +0.008 +0.004 +0.010 +0.011 +0.013 +0.007 -0.107 -0.371 -0.012 -0.279 -0.012 +0.009 +0.006 +0.013 +0.012 -0.003 +0.005 +0.010 -0.061 -0.374 -0.105 -0.247 -0.276
# magnetic-moments Pt -0.000 -0.000 -0.000 -0.000 -0.000 -0.000 -0.000 -0.000 -0.000 -0.000 -0.000 -0.000 -0.000 -0.000 -0.000 -0.000 -0.000 -0.000 -0.000 -0.000 -0.000 -0.000 -0.000 -0.000 -0.000 -0.000


Computing DFT-D3 correction:
# coordination-number Pt 6.807 9.341 8.509 9.478 9.523 9.415 9.538 9.537 9.311 8.597 5.288 9.292 5.943 9.292 9.415 9.311 9.536 9.539 9.341 9.523 9.479 8.509 5.287 8.596 6.806 5.943
# diagonal-C6 Pt 336.87 336.87 336.87 336.87 336.87 336.87 336.87 336.87 336.87 336.87 336.87 336.87 336.87 336.87 336.87 336.87 336.87 336.87 336.87 336.87 336.87 336.87 336.87 336.87 336.87 336.87
EvdW_6 =   -0.232543
EvdW_8 =   -0.374736
Shifting auxilliary hamiltonian by -0.000007 to set nElectrons=418.284132

-------- Electronic minimization -----------
	Linear fluid (dielectric constant: 78.4, screening length: 8.12261 Bohr) occupying 0.595407 of unit cell:	Completed after 16 iterations at t[s]:   7611.19
	FillingsUpdate:  mu: -0.097800000  nElectrons: 418.284132  magneticMoment: [ Abs: 0.00000  Tot: -0.00000 ]
ElecMinimize: Iter:   0  G: -2272.641281087993775  |grad|_K:  2.765e-07  alpha:  1.000e+00
	Linear fluid (dielectric constant: 78.4, screening length: 8.12261 Bohr) occupying 0.595535 of unit cell:	Completed after 22 iterations at t[s]:   7711.37
	Linear fluid (dielectric constant: 78.4, screening length: 8.12261 Bohr) occupying 0.595430 of unit cell:	Completed after 22 iterations at t[s]:   7745.72
	FillingsUpdate:  mu: -0.097800000  nElectrons: 418.288134  magneticMoment: [ Abs: 0.00000  Tot: -0.00000 ]
	SubspaceRotationAdjust: set factor to 0.00994
ElecMinimize: Iter:   1  G: -2272.641289224697175  |grad|_K:  1.673e-07  alpha:  1.722e-01  linmin: -1.205e-03  t[s]:   7793.70
	Linear fluid (dielectric constant: 78.4, screening length: 8.12261 Bohr) occupying 0.595421 of unit cell:	Completed after 12 iterations at t[s]:   7837.16
	Linear fluid (dielectric constant: 78.4, screening length: 8.12261 Bohr) occupying 0.595416 of unit cell:	Completed after 10 iterations at t[s]:   7870.30
	FillingsUpdate:  mu: -0.097800000  nElectrons: 418.285921  magneticMoment: [ Abs: 0.00000  Tot: -0.00000 ]
	SubspaceRotationAdjust: set factor to 0.0104
ElecMinimize: Iter:   2  G: -2272.641293833855798  |grad|_K:  6.993e-08  alpha:  2.683e-01  linmin: -3.166e-03  t[s]:   7918.40
	Linear fluid (dielectric constant: 78.4, screening length: 8.12261 Bohr) occupying 0.595415 of unit cell:	Completed after 3 iterations at t[s]:   7960.60
[...]
	FillingsUpdate:  mu: -0.097800000  nElectrons: 418.291676  magneticMoment: [ Abs: 0.00000  Tot: -0.00000 ]
	SubspaceRotationAdjust: set factor to 0.00804
ElecMinimize: Iter:  10  G: -2272.641369566378216  |grad|_K:  3.836e-08  alpha:  3.406e-01  linmin:  4.067e-04  t[s]:  62114.67
	Linear fluid (dielectric constant: 78.4, screening length: 8.12261 Bohr) occupying 0.595345 of unit cell:	Completed after 3 iterations at t[s]:  62157.75
	Linear fluid (dielectric constant: 78.4, screening length: 8.12261 Bohr) occupying 0.595344 of unit cell:	Completed after 3 iterations at t[s]:  62189.37
	FillingsUpdate:  mu: -0.097800000  nElectrons: 418.291677  magneticMoment: [ Abs: 0.00000  Tot: -0.00000 ]
	SubspaceRotationAdjust: set factor to 0.00959
ElecMinimize: Iter:  11  G: -2272.641370108112824  |grad|_K:  3.244e-08  alpha:  6.071e-01  linmin: -7.642e-04  t[s]:  62237.39
	Linear fluid (dielectric constant: 78.4, screening length: 8.12261 Bohr) occupying 0.595341 of unit cell:	Completed after 9 iterations at t[s]:  62280.61
	Linear fluid (dielectric constant: 78.4, screening length: 8.12261 Bohr) occupying 0.595341 of unit cell:	Completed after 0 iterations at t[s]:  62311.16
	FillingsUpdate:  mu: -0.097800000  nElectrons: 418.291482  magneticMoment: [ Abs: 0.00000  Tot: -0.00000 ]
	SubspaceRotationAdjust: set factor to 0.0101
ElecMinimize: Iter:  12  G: -2272.641370512948924  |grad|_K:  3.647e-08  alpha:  6.235e-01  linmin: -1.821e-03  t[s]:  62359.52
	Linear fluid (dielectric constant: 78.4, screening length: 8.12261 Bohr) occupying 0.595346 of unit cell:	Completed after 12 iterations at t[s]:  62403.19
	Linear fluid (dielectric constant: 78.4, screening length: 8.12261 Bohr) occupying 0.595344 of unit cell:	Completed after 6 iterations at t[s]:  62434.66
	FillingsUpdate:  mu: -0.097800000  nElectrons: 418.292203  magneticMoment: [ Abs: 0.00000  Tot: -0.00000 ]
	SubspaceRotationAdjust: set factor to 0.00867
ElecMinimize: Iter:  13  G: -2272.641370843094137  |grad|_K:  3.727e-08  alpha:  3.872e-01  linmin:  1.313e-03  t[s]:  62482.98
	Linear fluid (dielectric constant: 78.4, screening length: 8.12261 Bohr) occupying 0.595342 of unit cell:	Completed after 8 iterations at t[s]:  62526.09
	Linear fluid (dielectric constant: 78.4, screening length: 8.12261 Bohr) occupying 0.595341 of unit cell:	Completed after 2 iterations at t[s]:  62557.41
	FillingsUpdate:  mu: -0.097800000  nElectrons: 418.291817  magneticMoment: [ Abs: 0.00000  Tot: -0.00000 ]
	SubspaceRotationAdjust: set factor to 0.0102
ElecMinimize: Iter:  14  G: -2272.641371336090288  |grad|_K:  3.395e-08  alpha:  5.852e-01  linmin: -2.557e-03  t[s]:  62605.37
	Linear fluid (dielectric constant: 78.4, screening length: 8.12261 Bohr) occupying 0.595338 of unit cell:	Completed after 9 iterations at t[s]:  62648.42
	Linear fluid (dielectric constant: 78.4, screening length: 8.12261 Bohr) occupying 0.595338 of unit cell:	Completed after 0 iterations at t[s]:  62679.10
	FillingsUpdate:  mu: -0.097800000  nElectrons: 418.291265  magneticMoment: [ Abs: 0.00000  Tot: -0.00000 ]
	SubspaceRotationAdjust: set factor to 0.0108
ElecMinimize: Iter:  15  G: -2272.641371819787310  |grad|_K:  4.365e-08  alpha:  6.445e-01  linmin: -1.703e-03  t[s]:  62727.07
	Linear fluid (dielectric constant: 78.4, screening length: 8.12261 Bohr) occupying 0.595345 of unit cell:	Completed after 12 iterations at t[s]:  62770.90
	Linear fluid (dielectric constant: 78.4, screening length: 8.12261 Bohr) occupying 0.595342 of unit cell:	Completed after 6 iterations at t[s]:  62802.70
	FillingsUpdate:  mu: -0.097800000  nElectrons: 418.291889  magneticMoment: [ Abs: 0.00000  Tot: -0.00000 ]
	SubspaceRotationAdjust: set factor to 0.00902
ElecMinimize: Iter:  16  G: -2272.641372347227843  |grad|_K:  4.741e-08  alpha:  4.191e-01  linmin:  8.217e-04  t[s]:  62850.69
	Linear fluid (dielectric constant: 78.4, screening length: 8.12261 Bohr) occupying 0.595341 of unit cell:	Completed after 8 iterations at t[s]:  62893.47
	Linear fluid (dielectric constant: 78.4, screening length: 8.12261 Bohr) occupying 0.595340 of unit cell:	Completed after 2 iterations at t[s]:  62924.57
	FillingsUpdate:  mu: -0.097800000  nElectrons: 418.291177  magneticMoment: [ Abs: 0.00000  Tot: -0.00000 ]
	SubspaceRotationAdjust: set factor to 0.0103
ElecMinimize: Iter:  17  G: -2272.641373102903344  |grad|_K:  4.344e-08  alpha:  5.630e-01  linmin: -1.077e-03  t[s]:  62972.63
	Linear fluid (dielectric constant: 78.4, screening length: 8.12261 Bohr) occupying 0.595337 of unit cell:	Completed after 10 iterations at t[s]:  63015.92
	Linear fluid (dielectric constant: 78.4, screening length: 8.12261 Bohr) occupying 0.595337 of unit cell:	Completed after 0 iterations at t[s]:  63046.57
	FillingsUpdate:  mu: -0.097800000  nElectrons: 418.290249  magneticMoment: [ Abs: 0.00000  Tot: -0.00000 ]
	SubspaceRotationAdjust: set factor to 0.0102
ElecMinimize: Iter:  18  G: -2272.641373767348796  |grad|_K:  5.486e-08  alpha:  5.552e-01  linmin: -3.800e-04  t[s]:  63094.77
	Linear fluid (dielectric constant: 78.4, screening length: 8.12261 Bohr) occupying 0.595346 of unit cell:	Completed after 12 iterations at t[s]:  63138.19
	Linear fluid (dielectric constant: 78.4, screening length: 8.12261 Bohr) occupying 0.595342 of unit cell:	Completed after 9 iterations at t[s]:  63170.21
	FillingsUpdate:  mu: -0.097800000  nElectrons: 418.290764  magneticMoment: [ Abs: 0.00000  Tot: -0.00000 ]
	SubspaceRotationAdjust: set factor to 0.00854
ElecMinimize: Iter:  19  G: -2272.641374372225528  |grad|_K:  4.711e-08  alpha:  3.258e-01  linmin:  1.183e-04  t[s]:  63218.55
	Linear fluid (dielectric constant: 78.4, screening length: 8.12261 Bohr) occupying 0.595342 of unit cell:	Completed after 2 iterations at t[s]:  63260.62
	Linear fluid (dielectric constant: 78.4, screening length: 8.12261 Bohr) occupying 0.595343 of unit cell:	Completed after 2 iterations at t[s]:  63291.66
	FillingsUpdate:  mu: -0.097800000  nElectrons: 418.290406  magneticMoment: [ Abs: 0.00000  Tot: -0.00000 ]
	SubspaceRotationAdjust: set factor to 0.0105
ElecMinimize: Iter:  20  G: -2272.641375127338961  |grad|_K:  4.362e-08  alpha:  5.583e-01  linmin: -2.816e-04  t[s]:  63339.71
	Linear fluid (dielectric constant: 78.4, screening length: 8.12261 Bohr) occupying 0.595338 of unit cell:	Completed after 10 iterations at t[s]:  63384.32
	Linear fluid (dielectric constant: 78.4, screening length: 8.12261 Bohr) occupying 0.595339 of unit cell:	Completed after 3 iterations at t[s]:  63415.62
	FillingsUpdate:  mu: -0.097800000  nElectrons: 418.289496  magneticMoment: [ Abs: 0.00000  Tot: -0.00000 ]
	SubspaceRotationAdjust: set factor to 0.00936
ElecMinimize: Iter:  21  G: -2272.641375644188429  |grad|_K:  4.843e-08  alpha:  4.390e-01  linmin:  5.492e-04  t[s]:  63464.09
	Linear fluid (dielectric constant: 78.4, screening length: 8.12261 Bohr) occupying 0.595344 of unit cell:	Completed after 10 iterations at t[s]:  63507.21
	Linear fluid (dielectric constant: 78.4, screening length: 8.12261 Bohr) occupying 0.595343 of unit cell:	Completed after 3 iterations at t[s]:  63538.40
	FillingsUpdate:  mu: -0.097800000  nElectrons: 418.289938  magneticMoment: [ Abs: 0.00000  Tot: -0.00000 ]
	SubspaceRotationAdjust: set factor to 0.0085
ElecMinimize: Iter:  22  G: -2272.641376101298647  |grad|_K:  3.579e-08  alpha:  3.326e-01  linmin:  1.644e-04  t[s]:  63586.61
	Linear fluid (dielectric constant: 78.4, screening length: 8.12261 Bohr) occupying 0.595344 of unit cell:	Completed after 2 iterations at t[s]:  63628.74
	Linear fluid (dielectric constant: 78.4, screening length: 8.12261 Bohr) occupying 0.595344 of unit cell:	Completed after 0 iterations at t[s]:  63660.25
	FillingsUpdate:  mu: -0.097800000  nElectrons: 418.289888  magneticMoment: [ Abs: 0.00000  Tot: -0.00000 ]
	SubspaceRotationAdjust: set factor to 0.0105
ElecMinimize: Iter:  23  G: -2272.641376575771119  |grad|_K:  3.156e-08  alpha:  6.043e-01  linmin: -5.789e-04  t[s]:  63708.37
	Linear fluid (dielectric constant: 78.4, screening length: 8.12261 Bohr) occupying 0.595341 of unit cell:	Completed after 9 iterations at t[s]:  63751.31
	Linear fluid (dielectric constant: 78.4, screening length: 8.12261 Bohr) occupying 0.595341 of unit cell:	Completed after 0 iterations at t[s]:  63782.20
	FillingsUpdate:  mu: -0.097800000  nElectrons: 418.289462  magneticMoment: [ Abs: 0.00000  Tot: -0.00000 ]
	SubspaceRotationAdjust: set factor to 0.01
ElecMinimize: Iter:  24  G: -2272.641376914881221  |grad|_K:  3.798e-08  alpha:  5.494e-01  linmin: -8.046e-05  t[s]:  63830.68
	Linear fluid (dielectric constant: 78.4, screening length: 8.12261 Bohr) occupying 0.595347 of unit cell:	Completed after 11 iterations at t[s]:  63874.22
	Linear fluid (dielectric constant: 78.4, screening length: 8.12261 Bohr) occupying 0.595344 of unit cell:	Completed after 6 iterations at t[s]:  63905.96
	FillingsUpdate:  mu: -0.097800000  nElectrons: 418.290032  magneticMoment: [ Abs: 0.00000  Tot: -0.00000 ]
	SubspaceRotationAdjust: set factor to 0.00821
ElecMinimize: Iter:  25  G: -2272.641377178068524  |grad|_K:  3.185e-08  alpha:  3.027e-01  linmin:  7.474e-04  t[s]:  63954.21
	Linear fluid (dielectric constant: 78.4, screening length: 8.12261 Bohr) occupying 0.595344 of unit cell:	Completed after 2 iterations at t[s]:  63997.51
	Linear fluid (dielectric constant: 78.4, screening length: 8.12261 Bohr) occupying 0.595343 of unit cell:	Completed after 6 iterations at t[s]:  64029.09
	FillingsUpdate:  mu: -0.097800000  nElectrons: 418.289959  magneticMoment: [ Abs: 0.00000  Tot: -0.00000 ]
	SubspaceRotationAdjust: set factor to 0.00956
ElecMinimize: Iter:  26  G: -2272.641377518089030  |grad|_K:  2.671e-08  alpha:  5.723e-01  linmin: -2.355e-04  t[s]:  64077.04
	Linear fluid (dielectric constant: 78.4, screening length: 8.12261 Bohr) occupying 0.595342 of unit cell:	Completed after 2 iterations at t[s]:  64119.19
	Linear fluid (dielectric constant: 78.4, screening length: 8.12261 Bohr) occupying 0.595342 of unit cell:	Completed after 0 iterations at t[s]:  64149.89
	FillingsUpdate:  mu: -0.097800000  nElectrons: 418.289954  magneticMoment: [ Abs: 0.00000  Tot: -0.00000 ]
	SubspaceRotationAdjust: set factor to 0.0105
ElecMinimize: Iter:  27  G: -2272.641377799966449  |grad|_K:  2.500e-08  alpha:  6.418e-01  linmin: -4.472e-04  t[s]:  64198.50
	Linear fluid (dielectric constant: 78.4, screening length: 8.12261 Bohr) occupying 0.595343 of unit cell:	Completed after 2 iterations at t[s]:  64240.50
	Linear fluid (dielectric constant: 78.4, screening length: 8.12261 Bohr) occupying 0.595343 of unit cell:	Completed after 0 iterations at t[s]:  64272.22
	FillingsUpdate:  mu: -0.097800000  nElectrons: 418.290412  magneticMoment: [ Abs: 0.00000  Tot: -0.00000 ]
	SubspaceRotationAdjust: set factor to 0.0115
ElecMinimize: Iter:  28  G: -2272.641378060071929  |grad|_K:  2.256e-08  alpha:  6.721e-01  linmin: -5.280e-04  t[s]:  64320.40
	Linear fluid (dielectric constant: 78.4, screening length: 8.12261 Bohr) occupying 0.595345 of unit cell:	Completed after 6 iterations at t[s]:  64362.90
	Linear fluid (dielectric constant: 78.4, screening length: 8.12261 Bohr) occupying 0.595345 of unit cell:	Completed after 0 iterations at t[s]:  64393.66
	FillingsUpdate:  mu: -0.097800000  nElectrons: 418.290930  magneticMoment: [ Abs: 0.00000  Tot: -0.00000 ]
	SubspaceRotationAdjust: set factor to 0.0117
ElecMinimize: Iter:  29  G: -2272.641378240212816  |grad|_K:  2.126e-08  alpha:  5.750e-01  linmin:  3.273e-04  t[s]:  64441.43
	Linear fluid (dielectric constant: 78.4, screening length: 8.12261 Bohr) occupying 0.595343 of unit cell:	Completed after 6 iterations at t[s]:  64483.79
	Linear fluid (dielectric constant: 78.4, screening length: 8.12261 Bohr) occupying 0.595344 of unit cell:	Completed after 3 iterations at t[s]:  64515.04
	FillingsUpdate:  mu: -0.097800000  nElectrons: 418.290789  magneticMoment: [ Abs: 0.00000  Tot: -0.00000 ]
	SubspaceRotationAdjust: set factor to 0.00954
ElecMinimize: Iter:  30  G: -2272.641378338071718  |grad|_K:  2.031e-08  alpha:  3.664e-01  linmin:  1.186e-03  t[s]:  64564.81
	Linear fluid (dielectric constant: 78.4, screening length: 8.12261 Bohr) occupying 0.595345 of unit cell:	Completed after 2 iterations at t[s]:  64607.14
	Linear fluid (dielectric constant: 78.4, screening length: 8.12261 Bohr) occupying 0.595345 of unit cell:	Completed after 0 iterations at t[s]:  64637.67
	FillingsUpdate:  mu: -0.097800000  nElectrons: 418.291209  magneticMoment: [ Abs: 0.00000  Tot: -0.00000 ]
	SubspaceRotationAdjust: set factor to 0.0114
ElecMinimize: Iter:  31  G: -2272.641378430689201  |grad|_K:  1.463e-08  alpha:  3.811e-01  linmin: -8.260e-04  t[s]:  64685.97
ElecMinimize: Converged (|Delta G|<1.000000e-07 for 2 iters).
Setting wave functions to eigenvectors of Hamiltonian
Converging empty states (this may take a while): |deigs|: 1.413e-08

Computing DFT-D3 correction:
# coordination-number Pt 6.808 9.329 8.495 9.476 9.510 9.396 9.532 9.524 9.304 8.599 5.290 9.293 5.945 9.295 9.399 9.306 9.525 9.530 9.328 9.509 9.474 8.495 5.290 8.598 6.807 5.944
# diagonal-C6 Pt 336.87 336.87 336.87 336.87 336.87 336.87 336.87 336.87 336.87 336.87 336.87 336.87 336.87 336.87 336.87 336.87 336.87 336.87 336.87 336.87 336.87 336.87 336.87 336.87 336.87 336.87
EvdW_6 =   -0.232448
EvdW_8 =   -0.374516

# Ionic positions in cartesian coordinates:
ion Pt   0.019572105316885  10.309719789603800  24.479890892550380 1
ion Pt   0.010970993880552   4.125904884102534  19.955972642808501 1
ion Pt   3.713783453900617   7.363330788703171  22.323958463728196 1
ion Pt   3.704150396995490   1.027170348093354  17.919551948326173 1
ion Pt  -0.000423862448851   8.213579279644787  13.895958229283149 1
ion Pt  -0.005134454929108   2.024128523745809   9.697494462733529 1
ion Pt   3.700482932375853  11.274439653057044  15.895385738497524 1
ion Pt   3.698624609349293   5.134862770312164  11.823056633738036 1
ion Pt  -0.009450401139219  12.323036501644523   7.571119476805851 1
ion Pt  -0.013576740455101   6.051584688231753   3.513764914989589 1
ion Pt   0.016530098457079   0.107337432854677  25.916626412745586 1
ion Pt   3.687613721367740   9.218258560140319   5.729549279359846 1
ion Pt   3.687853974635537   2.999993905560129   1.629335228698012 1
ion Pt   3.711469745390116  12.329744905940510  20.948415436471663 1
ion Pt   3.704763820134956   6.184154597542821  16.980816408790663 1
ion Pt   0.009364215869594   9.224988872358011  19.106956737685376 1
ion Pt   0.000913317495418   3.073968024096430  14.855937495978043 1
ion Pt   3.698795468464063  10.273124358970442  10.783474137790499 1
ion Pt   3.688500078947373   4.082509058490380   6.721124566343669 1
ion Pt   0.000382830269656  13.334037186711347  12.782855073792405 1
ion Pt  -0.004583715528242   7.181283863312682   8.758541348366526 1
ion Pt  -0.014283830407508   0.845570615017715   4.353314250553259 1
ion Pt   3.683047684719003   8.101163256025695   0.761429431071003 1
ion Pt   3.713210392505442   2.156855657202589  23.164191706089085 1
ion Pt  -0.019382133625822  11.237539567410606   2.197537098244877 1
ion Pt   0.011753298459171   5.209011911226662  25.048216984558440 1

# Forces in Cartesian coordinates:
force Pt  -0.000005907640655  -0.000024979427628   0.000205690052902 1
force Pt  -0.000000386174721   0.000046584481638  -0.000170039431268 1
force Pt   0.000003619450735  -0.000013686628798  -0.000023037169995 1
force Pt   0.000000510772733   0.000014081373020  -0.000130066523955 1
force Pt   0.000003244442882   0.000114164299933   0.000051804760464 1
force Pt  -0.000000671415645  -0.000015202369501  -0.000012349847172 1
force Pt  -0.000007319457752  -0.000083512571133  -0.000132264965414 1
force Pt   0.000004394994139  -0.000017679808671  -0.000087533802801 1
force Pt  -0.000003028588552   0.000031477377820   0.000073580317397 1
force Pt  -0.000006286434551  -0.000022201552682   0.000122085863947 1
force Pt  -0.000002686006038  -0.000037165109012   0.000231780247979 1
force Pt   0.000006892143624  -0.000066649905340   0.000061288331704 1
force Pt   0.000007837410594  -0.000002570284664  -0.000105752846092 1
force Pt  -0.000005421199775   0.000039367193239  -0.000125004975188 1
force Pt  -0.000008233444265   0.000080103370086  -0.000066326352405 1
force Pt   0.000005968096343  -0.000036515409098  -0.000199733892147 1
force Pt  -0.000003202166425  -0.000005630804278  -0.000018991753884 1
force Pt   0.000001789643880   0.000059165281664   0.000060960686373 1
force Pt   0.000003883936853  -0.000013192921832   0.000156507840728 1
force Pt   0.000004568679379  -0.000115714358356  -0.000053602640459 1
force Pt   0.000000848138413  -0.000036656890280   0.000021641875296 1
force Pt  -0.000003637600526  -0.000023625823494   0.000087478555360 1
force Pt   0.000009423950945   0.000037076722222  -0.000077745220965 1
force Pt  -0.000002589328134   0.000098300038756  -0.000030464645072 1
force Pt   0.000001771168602  -0.000018987754551  -0.000033068121631 1
force Pt  -0.000003506465410   0.000017845982403   0.000285084611895 1

# Energy components:
   A_diel =       -1.1715867339788362
   Eewald =    30540.9234930362472369
       EH =    32776.5885146711298148
     Eloc =   -66030.7503443645546213
      Enl =      -27.3865117951535595
     EvdW =       -0.6069633259062657
      Exc =     -740.2381298517508412
 Exc_core =      426.1759283891039445
       KE =      743.0394032732855294
  MuShift =       -0.1197225955633101
-------------------------------------
     Etot =    -2313.5459192971393350
       TS =        0.0043394061574288
-------------------------------------
        F =    -2313.5502587032965494
      muN =      -40.9088802726073482
-------------------------------------
        G =    -2272.6413784306892012


Dumping 'jdft.fillings' ... done
Dumping 'jdft.wfns' ... done
Dumping 'jdft.fluidState' ... done
Dumping 'jdft.ionpos' ... done
Dumping 'jdft.lattice' ... done
Dumping 'jdft.eigenvals' ... done
Dumping 'jdft.eigStats' ... 
	eMin: -2.046806 at state 54 ( [ +0.444444 +0.500000 +0.000000 ] spin -1 )
	HOMO: -0.097853 at state 20 ( [ -0.444444 +0.000000 +0.000000 ] spin 1 )
	mu  : -0.097800
	LUMO: -0.097782 at state 66 ( [ -0.222222 +0.500000 +0.000000 ] spin -1 )
	eMax: +0.143825 at state 19 ( [ +0.444444 -0.250000 +0.000000 ] spin 1 )
	HOMO-LUMO gap: +0.000072
	Optical gap  : +0.000618 at state 3 ( [ +0.000000 -0.250000 +0.000000 ] spin 1 )
Dumping 'jdft.Ecomponents' ... done
IonicMinimize: Iter:  16  G: -2272.641378430689201  |grad|_K:  7.728e-05  alpha:  1.000e+00  linmin: -2.407e-01  t[s]:  64811.38
IonicMinimize: Converged (|grad|_K<1.000000e-04).

#--- Lowdin population analysis ---
# oxidation-state Pt -0.245 -0.002 -0.059 +0.009 +0.003 +0.008 +0.011 +0.010 +0.006 -0.106 -0.371 -0.012 -0.278 -0.010 +0.009 +0.008 +0.011 +0.010 -0.005 +0.002 +0.007 -0.061 -0.372 -0.104 -0.247 -0.276
# magnetic-moments Pt -0.000 -0.000 -0.000 -0.000 -0.000 -0.000 -0.000 -0.000 -0.000 -0.000 -0.000 -0.000 -0.000 -0.000 -0.000 -0.000 -0.000 -0.000 -0.000 -0.000 -0.000 -0.000 -0.000 +0.000 -0.000 -0.000


Dumping 'jdft.n_up' ... done
Dumping 'jdft.n_dn' ... done
Dumping 'jdft.tau_up' ... done
Dumping 'jdft.tau_dn' ... done
Dumping 'jdft.eigenvals' ... done
Dumping 'jdft.eigStats' ... 
	eMin: -2.046806 at state 54 ( [ +0.444444 +0.500000 +0.000000 ] spin -1 )
	HOMO: -0.097853 at state 20 ( [ -0.444444 +0.000000 +0.000000 ] spin 1 )
	mu  : -0.097800
	LUMO: -0.097782 at state 66 ( [ -0.222222 +0.500000 +0.000000 ] spin -1 )
	eMax: +0.143825 at state 19 ( [ +0.444444 -0.250000 +0.000000 ] spin 1 )
	HOMO-LUMO gap: +0.000072
	Optical gap  : +0.000618 at state 3 ( [ +0.000000 -0.250000 +0.000000 ] spin 1 )
Dumping 'jdft.kPts' ... done
Dumping 'jdft.dosUp' ... done.
Dumping 'jdft.dosDn' ... done.
End date and time: Thu Dec  9 23:47:54 2021  (Duration: 0-18:01:26.79)
Done!
