
*************** JDFTx 1.6.0  ***************

Start date and time: Thu Feb 17 04:01:12 2022
Executable /projects/musgravc/apps/jdftx-1.6.1/build/jdftx with command-line: -i in
Running on hosts (process indices):  shas0455.rc.int.colorado.edu (0-23)
Divided in process groups (process indices):  0 (0)  1 (1)  2 (2)  3 (3)  4 (4)  5 (5)  6 (6)  7 (7)  8 (8)  9 (9)  10 (10)  11 (11)  12 (12)  13 (13)  14 (14)  15 (15)  16 (16)  17 (17)  18 (18)  19 (19)  20 (20)  21 (21)  22 (22)  23 (23)
Resource initialization completed at t[s]:      0.00
Run totals: 24 processes, 24 threads, 0 GPUs


Input parsed successfully to the following command list (including defaults):

basis kpoint-dependent
converge-empty-states yes
coords-type Cartesian
core-overlap-check none
coulomb-interaction Periodic
davidson-band-ratio 1.1
density-of-states Etol 1.000000e-06 Esigma 1.000000e-03 \
		Complete \
	Total \
	OrthoOrbital Pt 1   s \
	OrthoOrbital Pt 1   p \
	OrthoOrbital Pt 1   px \
	OrthoOrbital Pt 1   py \
	OrthoOrbital Pt 1   pz \
	OrthoOrbital Pt 1   d \
	OrthoOrbital Pt 1   dxy \
	OrthoOrbital Pt 1   dyz \
	OrthoOrbital Pt 1   dz2 \
	OrthoOrbital Pt 1   dxz \
	OrthoOrbital Pt 1   dx2-y2 \
	OrthoOrbital Pt 2   s \
	OrthoOrbital Pt 2   p \
	OrthoOrbital Pt 2   px \
	OrthoOrbital Pt 2   py \
	OrthoOrbital Pt 2   pz \
	OrthoOrbital Pt 2   d \
	OrthoOrbital Pt 2   dxy \
	OrthoOrbital Pt 2   dyz \
	OrthoOrbital Pt 2   dz2 \
	OrthoOrbital Pt 2   dxz \
	OrthoOrbital Pt 2   dx2-y2 \
	OrthoOrbital Pt 3   s \
	OrthoOrbital Pt 3   p \
	OrthoOrbital Pt 3   px \
	OrthoOrbital Pt 3   py \
	OrthoOrbital Pt 3   pz \
	OrthoOrbital Pt 3   d \
	OrthoOrbital Pt 3   dxy \
	OrthoOrbital Pt 3   dyz \
	OrthoOrbital Pt 3   dz2 \
	OrthoOrbital Pt 3   dxz \
	OrthoOrbital Pt 3   dx2-y2 \
	OrthoOrbital Pt 4   s \
	OrthoOrbital Pt 4   p \
	OrthoOrbital Pt 4   px \
	OrthoOrbital Pt 4   py \
	OrthoOrbital Pt 4   pz \
	OrthoOrbital Pt 4   d \
	OrthoOrbital Pt 4   dxy \
	OrthoOrbital Pt 4   dyz \
	OrthoOrbital Pt 4   dz2 \
	OrthoOrbital Pt 4   dxz \
	OrthoOrbital Pt 4   dx2-y2 \
	OrthoOrbital Pt 5   s \
	OrthoOrbital Pt 5   p \
	OrthoOrbital Pt 5   px \
	OrthoOrbital Pt 5   py \
	OrthoOrbital Pt 5   pz \
	OrthoOrbital Pt 5   d \
	OrthoOrbital Pt 5   dxy \
	OrthoOrbital Pt 5   dyz \
	OrthoOrbital Pt 5   dz2 \
	OrthoOrbital Pt 5   dxz \
	OrthoOrbital Pt 5   dx2-y2 \
	OrthoOrbital Pt 6   s \
	OrthoOrbital Pt 6   p \
	OrthoOrbital Pt 6   px \
	OrthoOrbital Pt 6   py \
	OrthoOrbital Pt 6   pz \
	OrthoOrbital Pt 6   d \
	OrthoOrbital Pt 6   dxy \
	OrthoOrbital Pt 6   dyz \
	OrthoOrbital Pt 6   dz2 \
	OrthoOrbital Pt 6   dxz \
	OrthoOrbital Pt 6   dx2-y2 \
	OrthoOrbital Pt 7   s \
	OrthoOrbital Pt 7   p \
	OrthoOrbital Pt 7   px \
	OrthoOrbital Pt 7   py \
	OrthoOrbital Pt 7   pz \
	OrthoOrbital Pt 7   d \
	OrthoOrbital Pt 7   dxy \
	OrthoOrbital Pt 7   dyz \
	OrthoOrbital Pt 7   dz2 \
	OrthoOrbital Pt 7   dxz \
	OrthoOrbital Pt 7   dx2-y2 \
	OrthoOrbital Pt 8   s \
	OrthoOrbital Pt 8   p \
	OrthoOrbital Pt 8   px \
	OrthoOrbital Pt 8   py \
	OrthoOrbital Pt 8   pz \
	OrthoOrbital Pt 8   d \
	OrthoOrbital Pt 8   dxy \
	OrthoOrbital Pt 8   dyz \
	OrthoOrbital Pt 8   dz2 \
	OrthoOrbital Pt 8   dxz \
	OrthoOrbital Pt 8   dx2-y2 \
	OrthoOrbital Pt 9   s \
	OrthoOrbital Pt 9   p \
	OrthoOrbital Pt 9   px \
	OrthoOrbital Pt 9   py \
	OrthoOrbital Pt 9   pz \
	OrthoOrbital Pt 9   d \
	OrthoOrbital Pt 9   dxy \
	OrthoOrbital Pt 9   dyz \
	OrthoOrbital Pt 9   dz2 \
	OrthoOrbital Pt 9   dxz \
	OrthoOrbital Pt 9   dx2-y2 \
	OrthoOrbital Pt 10   s \
	OrthoOrbital Pt 10   p \
	OrthoOrbital Pt 10   px \
	OrthoOrbital Pt 10   py \
	OrthoOrbital Pt 10   pz \
	OrthoOrbital Pt 10   d \
	OrthoOrbital Pt 10   dxy \
	OrthoOrbital Pt 10   dyz \
	OrthoOrbital Pt 10   dz2 \
	OrthoOrbital Pt 10   dxz \
	OrthoOrbital Pt 10   dx2-y2 \
	OrthoOrbital Pt 11   s \
	OrthoOrbital Pt 11   p \
	OrthoOrbital Pt 11   px \
	OrthoOrbital Pt 11   py \
	OrthoOrbital Pt 11   pz \
	OrthoOrbital Pt 11   d \
	OrthoOrbital Pt 11   dxy \
	OrthoOrbital Pt 11   dyz \
	OrthoOrbital Pt 11   dz2 \
	OrthoOrbital Pt 11   dxz \
	OrthoOrbital Pt 11   dx2-y2 \
	OrthoOrbital Pt 12   s \
	OrthoOrbital Pt 12   p \
	OrthoOrbital Pt 12   px \
	OrthoOrbital Pt 12   py \
	OrthoOrbital Pt 12   pz \
	OrthoOrbital Pt 12   d \
	OrthoOrbital Pt 12   dxy \
	OrthoOrbital Pt 12   dyz \
	OrthoOrbital Pt 12   dz2 \
	OrthoOrbital Pt 12   dxz \
	OrthoOrbital Pt 12   dx2-y2 \
	OrthoOrbital Pt 13   s \
	OrthoOrbital Pt 13   p \
	OrthoOrbital Pt 13   px \
	OrthoOrbital Pt 13   py \
	OrthoOrbital Pt 13   pz \
	OrthoOrbital Pt 13   d \
	OrthoOrbital Pt 13   dxy \
	OrthoOrbital Pt 13   dyz \
	OrthoOrbital Pt 13   dz2 \
	OrthoOrbital Pt 13   dxz \
	OrthoOrbital Pt 13   dx2-y2 \
	OrthoOrbital Pt 14   s \
	OrthoOrbital Pt 14   p \
	OrthoOrbital Pt 14   px \
	OrthoOrbital Pt 14   py \
	OrthoOrbital Pt 14   pz \
	OrthoOrbital Pt 14   d \
	OrthoOrbital Pt 14   dxy \
	OrthoOrbital Pt 14   dyz \
	OrthoOrbital Pt 14   dz2 \
	OrthoOrbital Pt 14   dxz \
	OrthoOrbital Pt 14   dx2-y2 \
	OrthoOrbital Pt 15   s \
	OrthoOrbital Pt 15   p \
	OrthoOrbital Pt 15   px \
	OrthoOrbital Pt 15   py \
	OrthoOrbital Pt 15   pz \
	OrthoOrbital Pt 15   d \
	OrthoOrbital Pt 15   dxy \
	OrthoOrbital Pt 15   dyz \
	OrthoOrbital Pt 15   dz2 \
	OrthoOrbital Pt 15   dxz \
	OrthoOrbital Pt 15   dx2-y2 \
	OrthoOrbital Pt 16   s \
	OrthoOrbital Pt 16   p \
	OrthoOrbital Pt 16   px \
	OrthoOrbital Pt 16   py \
	OrthoOrbital Pt 16   pz \
	OrthoOrbital Pt 16   d \
	OrthoOrbital Pt 16   dxy \
	OrthoOrbital Pt 16   dyz \
	OrthoOrbital Pt 16   dz2 \
	OrthoOrbital Pt 16   dxz \
	OrthoOrbital Pt 16   dx2-y2 \
	OrthoOrbital Pt 17   s \
	OrthoOrbital Pt 17   p \
	OrthoOrbital Pt 17   px \
	OrthoOrbital Pt 17   py \
	OrthoOrbital Pt 17   pz \
	OrthoOrbital Pt 17   d \
	OrthoOrbital Pt 17   dxy \
	OrthoOrbital Pt 17   dyz \
	OrthoOrbital Pt 17   dz2 \
	OrthoOrbital Pt 17   dxz \
	OrthoOrbital Pt 17   dx2-y2 \
	OrthoOrbital Pt 18   s \
	OrthoOrbital Pt 18   p \
	OrthoOrbital Pt 18   px \
	OrthoOrbital Pt 18   py \
	OrthoOrbital Pt 18   pz \
	OrthoOrbital Pt 18   d \
	OrthoOrbital Pt 18   dxy \
	OrthoOrbital Pt 18   dyz \
	OrthoOrbital Pt 18   dz2 \
	OrthoOrbital Pt 18   dxz \
	OrthoOrbital Pt 18   dx2-y2 \
	OrthoOrbital Pt 19   s \
	OrthoOrbital Pt 19   p \
	OrthoOrbital Pt 19   px \
	OrthoOrbital Pt 19   py \
	OrthoOrbital Pt 19   pz \
	OrthoOrbital Pt 19   d \
	OrthoOrbital Pt 19   dxy \
	OrthoOrbital Pt 19   dyz \
	OrthoOrbital Pt 19   dz2 \
	OrthoOrbital Pt 19   dxz \
	OrthoOrbital Pt 19   dx2-y2 \
	OrthoOrbital Pt 20   s \
	OrthoOrbital Pt 20   p \
	OrthoOrbital Pt 20   px \
	OrthoOrbital Pt 20   py \
	OrthoOrbital Pt 20   pz \
	OrthoOrbital Pt 20   d \
	OrthoOrbital Pt 20   dxy \
	OrthoOrbital Pt 20   dyz \
	OrthoOrbital Pt 20   dz2 \
	OrthoOrbital Pt 20   dxz \
	OrthoOrbital Pt 20   dx2-y2 \
	OrthoOrbital Pt 21   s \
	OrthoOrbital Pt 21   p \
	OrthoOrbital Pt 21   px \
	OrthoOrbital Pt 21   py \
	OrthoOrbital Pt 21   pz \
	OrthoOrbital Pt 21   d \
	OrthoOrbital Pt 21   dxy \
	OrthoOrbital Pt 21   dyz \
	OrthoOrbital Pt 21   dz2 \
	OrthoOrbital Pt 21   dxz \
	OrthoOrbital Pt 21   dx2-y2 \
	OrthoOrbital Pt 22   s \
	OrthoOrbital Pt 22   p \
	OrthoOrbital Pt 22   px \
	OrthoOrbital Pt 22   py \
	OrthoOrbital Pt 22   pz \
	OrthoOrbital Pt 22   d \
	OrthoOrbital Pt 22   dxy \
	OrthoOrbital Pt 22   dyz \
	OrthoOrbital Pt 22   dz2 \
	OrthoOrbital Pt 22   dxz \
	OrthoOrbital Pt 22   dx2-y2 \
	OrthoOrbital Pt 23   s \
	OrthoOrbital Pt 23   p \
	OrthoOrbital Pt 23   px \
	OrthoOrbital Pt 23   py \
	OrthoOrbital Pt 23   pz \
	OrthoOrbital Pt 23   d \
	OrthoOrbital Pt 23   dxy \
	OrthoOrbital Pt 23   dyz \
	OrthoOrbital Pt 23   dz2 \
	OrthoOrbital Pt 23   dxz \
	OrthoOrbital Pt 23   dx2-y2 \
	OrthoOrbital Pt 24   s \
	OrthoOrbital Pt 24   p \
	OrthoOrbital Pt 24   px \
	OrthoOrbital Pt 24   py \
	OrthoOrbital Pt 24   pz \
	OrthoOrbital Pt 24   d \
	OrthoOrbital Pt 24   dxy \
	OrthoOrbital Pt 24   dyz \
	OrthoOrbital Pt 24   dz2 \
	OrthoOrbital Pt 24   dxz \
	OrthoOrbital Pt 24   dx2-y2 \
	OrthoOrbital Pt 25   s \
	OrthoOrbital Pt 25   p \
	OrthoOrbital Pt 25   px \
	OrthoOrbital Pt 25   py \
	OrthoOrbital Pt 25   pz \
	OrthoOrbital Pt 25   d \
	OrthoOrbital Pt 25   dxy \
	OrthoOrbital Pt 25   dyz \
	OrthoOrbital Pt 25   dz2 \
	OrthoOrbital Pt 25   dxz \
	OrthoOrbital Pt 25   dx2-y2 \
	OrthoOrbital Pt 26   s \
	OrthoOrbital Pt 26   p \
	OrthoOrbital Pt 26   px \
	OrthoOrbital Pt 26   py \
	OrthoOrbital Pt 26   pz \
	OrthoOrbital Pt 26   d \
	OrthoOrbital Pt 26   dxy \
	OrthoOrbital Pt 26   dyz \
	OrthoOrbital Pt 26   dz2 \
	OrthoOrbital Pt 26   dxz \
	OrthoOrbital Pt 26   dx2-y2 \
	OrthoOrbital Pt 27   s \
	OrthoOrbital Pt 27   p \
	OrthoOrbital Pt 27   px \
	OrthoOrbital Pt 27   py \
	OrthoOrbital Pt 27   pz \
	OrthoOrbital Pt 27   d \
	OrthoOrbital Pt 27   dxy \
	OrthoOrbital Pt 27   dyz \
	OrthoOrbital Pt 27   dz2 \
	OrthoOrbital Pt 27   dxz \
	OrthoOrbital Pt 27   dx2-y2 \
	OrthoOrbital Pt 28   s \
	OrthoOrbital Pt 28   p \
	OrthoOrbital Pt 28   px \
	OrthoOrbital Pt 28   py \
	OrthoOrbital Pt 28   pz \
	OrthoOrbital Pt 28   d \
	OrthoOrbital Pt 28   dxy \
	OrthoOrbital Pt 28   dyz \
	OrthoOrbital Pt 28   dz2 \
	OrthoOrbital Pt 28   dxz \
	OrthoOrbital Pt 28   dx2-y2 \
	OrthoOrbital Pt 29   s \
	OrthoOrbital Pt 29   p \
	OrthoOrbital Pt 29   px \
	OrthoOrbital Pt 29   py \
	OrthoOrbital Pt 29   pz \
	OrthoOrbital Pt 29   d \
	OrthoOrbital Pt 29   dxy \
	OrthoOrbital Pt 29   dyz \
	OrthoOrbital Pt 29   dz2 \
	OrthoOrbital Pt 29   dxz \
	OrthoOrbital Pt 29   dx2-y2 \
	OrthoOrbital Pt 30   s \
	OrthoOrbital Pt 30   p \
	OrthoOrbital Pt 30   px \
	OrthoOrbital Pt 30   py \
	OrthoOrbital Pt 30   pz \
	OrthoOrbital Pt 30   d \
	OrthoOrbital Pt 30   dxy \
	OrthoOrbital Pt 30   dyz \
	OrthoOrbital Pt 30   dz2 \
	OrthoOrbital Pt 30   dxz \
	OrthoOrbital Pt 30   dx2-y2 \
	OrthoOrbital Pt 31   s \
	OrthoOrbital Pt 31   p \
	OrthoOrbital Pt 31   px \
	OrthoOrbital Pt 31   py \
	OrthoOrbital Pt 31   pz \
	OrthoOrbital Pt 31   d \
	OrthoOrbital Pt 31   dxy \
	OrthoOrbital Pt 31   dyz \
	OrthoOrbital Pt 31   dz2 \
	OrthoOrbital Pt 31   dxz \
	OrthoOrbital Pt 31   dx2-y2 \
	OrthoOrbital Pt 32   s \
	OrthoOrbital Pt 32   p \
	OrthoOrbital Pt 32   px \
	OrthoOrbital Pt 32   py \
	OrthoOrbital Pt 32   pz \
	OrthoOrbital Pt 32   d \
	OrthoOrbital Pt 32   dxy \
	OrthoOrbital Pt 32   dyz \
	OrthoOrbital Pt 32   dz2 \
	OrthoOrbital Pt 32   dxz \
	OrthoOrbital Pt 32   dx2-y2 \
	OrthoOrbital C 1   s \
	OrthoOrbital C 1   p \
	OrthoOrbital C 1   px \
	OrthoOrbital C 1   py \
	OrthoOrbital C 1   pz \
	OrthoOrbital O 1   s \
	OrthoOrbital O 1   p \
	OrthoOrbital O 1   px \
	OrthoOrbital O 1   py \
	OrthoOrbital O 1   pz
dump End ElecDensity KEdensity BandEigs EigStats RhoAtom DOS Kpoints
dump Ionic State IonicPositions Lattice EigStats Ecomponents
dump 
dump 
dump 
dump 
dump 
dump 
dump 
dump 
dump-name jdft.$VAR
elec-cutoff 20
elec-eigen-algo Davidson
elec-ex-corr gga-PBE
elec-initial-magnetization 0.000000 no
elec-n-bands 314
elec-smearing Fermi 0.001
electronic-minimize  \
	dirUpdateScheme      FletcherReeves \
	linminMethod         DirUpdateRecommended \
	nIterations          100 \
	history              15 \
	knormThreshold       0 \
	energyDiffThreshold  1e-07 \
	nEnergyDiff          2 \
	alphaTstart          1 \
	alphaTmin            1e-10 \
	updateTestStepSize   yes \
	alphaTreduceFactor   0.1 \
	alphaTincreaseFactor 3 \
	nAlphaAdjustMax      3 \
	wolfeEnergy          0.0001 \
	wolfeGradient        0.9 \
	fdTest               no
exchange-regularization WignerSeitzTruncated
fluid LinearPCM 298.000000 1.013250
fluid-anion F- 0.5 MeanFieldLJ \
	epsBulk 1 \
	pMol 0 \
	epsInf 1 \
	Pvap 0 \
	sigmaBulk 0 \
	Rvdw 2.24877 \
	Res 0 \
	tauNuc 343133
fluid-cation Na+ 0.5 MeanFieldLJ \
	epsBulk 1 \
	pMol 0 \
	epsInf 1 \
	Pvap 0 \
	sigmaBulk 0 \
	Rvdw 2.19208 \
	Res 0 \
	tauNuc 343133
fluid-ex-corr lda-TF lda-PZ
fluid-gummel-loop 10 1.000000e-05
fluid-minimize  \
	dirUpdateScheme      PolakRibiere \
	linminMethod         DirUpdateRecommended \
	nIterations          400 \
	history              15 \
	knormThreshold       1e-11 \
	energyDiffThreshold  0 \
	nEnergyDiff          2 \
	alphaTstart          1 \
	alphaTmin            1e-10 \
	updateTestStepSize   yes \
	alphaTreduceFactor   0.1 \
	alphaTincreaseFactor 3 \
	nAlphaAdjustMax      6 \
	wolfeEnergy          0.0001 \
	wolfeGradient        0.9 \
	fdTest               no
fluid-solvent H2O 55.338 ScalarEOS \
	epsBulk 78.4 \
	pMol 0.92466 \
	epsInf 1.77 \
	Pvap 1.06736e-10 \
	sigmaBulk 4.62e-05 \
	Rvdw 2.61727 \
	Res 1.42 \
	tauNuc 343133 \
	poleEl 15 7 1
forces-output-coords Positions
ion Pt   0.000010000000000   7.399025000000001  48.561914000000009 0
ion Pt   0.000010000000000  14.798198000000001  48.561914000000009 0
ion Pt   5.232006000000000   7.399025000000001  48.561914000000009 0
ion Pt   5.232006000000000  14.798198000000001  48.561914000000009 0
ion Pt   0.000000000000000   0.000074000000000  43.164379000000004 0
ion Pt   0.000000000000000   7.399232000000001  43.164379000000004 0
ion Pt   5.231996000000000   0.000074000000000  43.164379000000004 0
ion Pt   5.231996000000000   7.399232000000001  43.164379000000004 0
ion Pt   2.615956000000000   3.699298000000001  50.876444000000006 0
ion Pt   2.615956000000000  11.098456000000002  50.876444000000006 0
ion Pt   7.847942000000001   3.699298000000001  50.876444000000006 0
ion Pt   7.847942000000001  11.098456000000002  50.876444000000006 0
ion Pt   2.616040000000000   3.699683000000001  45.754477999999999 0
ion Pt   2.616040000000000  11.098841000000002  45.754477999999999 0
ion Pt   7.848036000000000   3.699683000000001  45.754477999999999 0
ion Pt   7.848036000000000  11.098841000000002  45.754477999999999 0
ion Pt   5.231944000000000   0.000000000000000  37.958072999999999 0
ion Pt   5.231944000000000   7.399158000000001  37.958072999999999 0
ion Pt  10.463950000000001   0.000000000000000  37.958072999999999 0
ion Pt  10.463950000000001   7.399158000000001  37.958072999999999 0
ion Pt   0.000031000000000   0.000118000000000  32.835321000000000 0
ion Pt   0.000031000000000   7.399277000000001  32.835321000000000 0
ion Pt   5.232038000000001   0.000118000000000  32.835321000000000 0
ion Pt   5.232038000000001   7.399277000000001  32.835321000000000 0
ion Pt   2.615946000000000   3.699624000000000  40.547072999999997 0
ion Pt   2.615946000000000  11.098782000000002  40.547072999999997 0
ion Pt   7.847942000000001   3.699624000000000  40.547072999999997 0
ion Pt   7.847942000000001  11.098782000000002  40.547072999999997 0
ion Pt   2.616050000000000   3.699653000000000  35.149956000000003 0
ion Pt   2.616050000000000  11.098796999999999  35.149956000000003 0
ion Pt   7.848046000000001   3.699653000000000  35.149956000000003 0
ion Pt   7.848046000000001  11.098796999999999  35.149956000000003 0
ion C   5.231954000000000   7.398877000000001  52.039883000000010 1  Linear 0 0 1
ion O   5.292038000000001   7.398877000000001   1.875304000000000 1  Linear 0 0 1
ion-species /projects/musgravc/apps/jdftx-1.6.0/build/pseudopotentials/GBRV_v1.5/$ID_pbe_v1.uspp
ion-species /projects/musgravc/apps/jdftx-1.6.0/build/pseudopotentials/GBRV_v1.5/$ID_pbe_v1.2.uspp
ion-species /projects/musgravc/apps/jdftx-1.6.0/build/pseudopotentials/GBRV_v1.5/$ID_pbe_v1.4.uspp
ion-species /projects/musgravc/apps/jdftx-1.6.0/build/pseudopotentials/GBRV_v1.5/$ID_pbe_v1.5.uspp
ion-width Ecut
ionic-minimize  \
	dirUpdateScheme      L-BFGS \
	linminMethod         DirUpdateRecommended \
	nIterations          100 \
	history              15 \
	knormThreshold       0.0001 \
	energyDiffThreshold  1e-06 \
	nEnergyDiff          2 \
	alphaTstart          1 \
	alphaTmin            1e-10 \
	updateTestStepSize   yes \
	alphaTreduceFactor   0.1 \
	alphaTincreaseFactor 3 \
	nAlphaAdjustMax      3 \
	wolfeEnergy          0.0001 \
	wolfeGradient        0.9 \
	fdTest               no
kpoint   0.000000000000   0.000000000000   0.000000000000  1.00000000000000
kpoint-folding 5 4 1 
latt-move-scale 0 0 0
latt-scale 1 1 1 
lattice  \
	  10.463991999999999    0.000000000000000    0.000000000000000  \
	   0.000000000000000   14.798317000000001    0.000000000000000  \
	   0.000000000000000    0.000000000000000   52.319952000000001 
lattice-minimize  \
	dirUpdateScheme      L-BFGS \
	linminMethod         DirUpdateRecommended \
	nIterations          0 \
	history              15 \
	knormThreshold       0 \
	energyDiffThreshold  1e-06 \
	nEnergyDiff          2 \
	alphaTstart          1 \
	alphaTmin            1e-10 \
	updateTestStepSize   yes \
	alphaTreduceFactor   0.1 \
	alphaTincreaseFactor 3 \
	nAlphaAdjustMax      3 \
	wolfeEnergy          0.0001 \
	wolfeGradient        0.9 \
	fdTest               no
lcao-params 30 1e-06 0.001
pcm-variant CANDLE
spintype z-spin
subspace-rotation-factor 1 yes
symmetries automatic
symmetry-threshold 0.0001
van-der-waals D3



---------- Setting up symmetries ----------

Found 8 point-group symmetries of the bravais lattice
Found 1 space-group symmetries with basis
Applied RMS atom displacement 0 bohrs to make symmetries exact.

---------- Initializing the Grid ----------
R = 
[       10.464            0            0  ]
[            0      14.7983            0  ]
[            0            0        52.32  ]
unit cell volume = 8101.72
G =
[   0.600458          0          0  ]
[          0   0.424588          0  ]
[          0          0   0.120092  ]
Minimum fftbox size, Smin = [  44  60  212  ]
Chosen fftbox size, S = [  48  60  216  ]

---------- Exchange Correlation functional ----------
Initalized PBE GGA exchange.
Initalized PBE GGA correlation.

---------- Setting up pseudopotentials ----------
Width of ionic core gaussian charges (only for fluid interactions / plotting) set to 0.397384

Reading pseudopotential file '/projects/musgravc/apps/jdftx-1.6.0/build/pseudopotentials/GBRV_v1.5/pt_pbe_v1.4.uspp':
  Title: Pt.  Created by USPP 7.3.6 on 31-3-15
  Reference state energy: -105.002503.  16 valence electrons in orbitals:
    |510>  occupation: 6  eigenvalue: -2.158104
    |520>  occupation: 9.5  eigenvalue: -0.335376
    |600>  occupation: 0  eigenvalue: -0.319640
    |610>  occupation: 0  eigenvalue: -0.122947
  lMax: 2  lLocal: 3  QijEcut: 5.5
  6 projectors sampled on a log grid with 745 points:
    l: 0  eig: -0.319640  rCut: 2.45
    l: 0  eig: 1.500000  rCut: 2.45
    l: 1  eig: -2.158104  rCut: 1.6
    l: 1  eig: -0.122947  rCut: 1.6
    l: 2  eig: -0.500000  rCut: 1.6
    l: 2  eig: -0.335375  rCut: 1.6
  Partial core density with radius 1.1
  Transforming core density to a uniform radial grid of dG=0.02 with 1165 points.
  Transforming local potential to a uniform radial grid of dG=0.02 with 1165 points.
  Transforming nonlocal projectors to a uniform radial grid of dG=0.02 with 432 points.
  Transforming density augmentations to a uniform radial grid of dG=0.02 with 1165 points.
  Transforming atomic orbitals to a uniform radial grid of dG=0.02 with 432 points.
  Core radius for overlap checks: 2.45 bohrs.

Reading pseudopotential file '/projects/musgravc/apps/jdftx-1.6.0/build/pseudopotentials/GBRV_v1.5/c_pbe_v1.2.uspp':
  Title: C.  Created by USPP 7.3.6 on 3-2-2014
  Reference state energy: -5.406344.  4 valence electrons in orbitals:
    |200>  occupation: 2  eigenvalue: -0.504890
    |210>  occupation: 2  eigenvalue: -0.194356
  lMax: 1  lLocal: 2  QijEcut: 5
  4 projectors sampled on a log grid with 503 points:
    l: 0  eig: -0.504890  rCut: 1.3
    l: 0  eig: 0.000000  rCut: 1.3
    l: 1  eig: -0.194357  rCut: 1.3
    l: 1  eig: 0.000000  rCut: 1.3
  Partial core density with radius 1.1
  Transforming core density to a uniform radial grid of dG=0.02 with 1165 points.
  Transforming local potential to a uniform radial grid of dG=0.02 with 1165 points.
  Transforming nonlocal projectors to a uniform radial grid of dG=0.02 with 432 points.
  Transforming density augmentations to a uniform radial grid of dG=0.02 with 1165 points.
  Transforming atomic orbitals to a uniform radial grid of dG=0.02 with 432 points.
  Core radius for overlap checks: 1.30 bohrs.

Reading pseudopotential file '/projects/musgravc/apps/jdftx-1.6.0/build/pseudopotentials/GBRV_v1.5/o_pbe_v1.2.uspp':
  Title: O.  Created by USPP 7.3.6 on 3-2-2014
  Reference state energy: -15.894388.  6 valence electrons in orbitals:
    |200>  occupation: 2  eigenvalue: -0.878823
    |210>  occupation: 4  eigenvalue: -0.332131
  lMax: 2  lLocal: 2  QijEcut: 6
  5 projectors sampled on a log grid with 511 points:
    l: 0  eig: -0.878823  rCut: 1.25
    l: 0  eig: 0.000000  rCut: 1.25
    l: 1  eig: -0.332132  rCut: 1.25
    l: 1  eig: 0.000000  rCut: 1.25
    l: 2  eig: 1.000000  rCut: 1.25
  Partial core density with radius 0.7
  Transforming core density to a uniform radial grid of dG=0.02 with 1165 points.
  Transforming local potential to a uniform radial grid of dG=0.02 with 1165 points.
  Transforming nonlocal projectors to a uniform radial grid of dG=0.02 with 432 points.
  Transforming density augmentations to a uniform radial grid of dG=0.02 with 1165 points.
  Transforming atomic orbitals to a uniform radial grid of dG=0.02 with 432 points.
  Core radius for overlap checks: 1.25 bohrs.

Initialized 3 species with 34 total atoms.

Folded 1 k-points by 5x4x1 to 20 k-points.

---------- Setting up k-points, bands, fillings ----------
Adding inversion symmetry to k-mesh for non-inversion-symmetric unit cell.
Reduced to 11 k-points under symmetry. 
Computing the number of bands and number of electrons
Calculating initial fillings.
nElectrons: 522.000000   nBands: 314   nStates: 22

----- Setting up reduced wavefunction bases (one per k-point) -----
average nbasis = 34616.150 , ideal nbasis = 34611.152

----- Initializing Supercell corresponding to k-point mesh -----
Lattice vector linear combinations in supercell:
[   5   0   0  ]
[   0   4   0  ]
[   0   0   1  ]
Supercell lattice vectors:
[  52.32  0  0  ]
[  0  59.1933  0  ]
[  0  0  52.32  ]

Initializing DFT-D3 calculator:
	Parameters set for gga-PBE functional
	s6:  1.000  s_r6:  1.217
	s8:  0.722  s_r8:  1.000
	Per-atom parameters loaded for:
	Pt:  sqrtQ[a0]:  5.888  Rcov[a0]:  2.116  CN: [ 0.00 1.92 6.67 ]
	 C:  sqrtQ[a0]:  3.105  Rcov[a0]:  1.417  CN: [ 0.00 0.99 2.00 3.00 3.98 ]
	 O:  sqrtQ[a0]:  2.594  Rcov[a0]:  1.191  CN: [ 0.00 0.99 1.99 ]

Initializing DFT-D2 calculator for fluid / solvation:
	Pt:  C6:  815.23 Eh-a0^6  R0: 3.326 a0 (WARNING: beyond Grimme's data set)
	 C:  C6:   30.35 Eh-a0^6  R0: 2.744 a0
	 O:  C6:   12.14 Eh-a0^6  R0: 2.536 a0

---------- Setting up ewald sum ----------
Optimum gaussian width for ewald sums = 4.451666 bohr.
Real space sum over 585 unit cells with max indices [  6  4  2  ]
Reciprocal space sum over 6435 terms with max indices [  5  7  19  ]

Computing DFT-D3 correction:
# coordination-number Pt 8.694 8.658 9.683 8.659 9.490 9.490 9.490 9.491 6.506 6.506 6.510 6.510 9.420 9.420 9.420 9.420 9.418 9.418 9.418 9.418 5.947 5.947 5.947 5.947 9.491 9.491 9.491 9.491 8.656 8.656 8.656 8.656
# coordination-number C 4.167
# coordination-number O 1.162
# diagonal-C6 Pt 336.87 336.87 336.87 336.87 336.87 336.87 336.87 336.87 336.87 336.87 336.87 336.87 336.87 336.87 336.87 336.87 336.87 336.87 336.87 336.87 336.87 336.87 336.87 336.87 336.87 336.87 336.87 336.87 336.87 336.87 336.87 336.87
# diagonal-C6 C 18.24
# diagonal-C6 O 12.65
EvdW_6 =   -0.272233
EvdW_8 =   -0.446804

---------- Allocating electronic variables ----------
Initializing wave functions:  linear combination of atomic orbitals
Pt pseudo-atom occupations:   s ( 0 )  p ( 6 0 )  d ( 10 )
C pseudo-atom occupations:   s ( 2 )  p ( 2 )
O pseudo-atom occupations:   s ( 2 )  p ( 4 )
	FillingsUpdate:  mu: -1.005996152  nElectrons: 522.000000  magneticMoment: [ Abs: 0.00495  Tot: -0.00040 ]
LCAOMinimize: Iter:   0  F: -2851.1505715286925806  |grad|_K:  1.673e-02  alpha:  1.000e+00
LCAOMinimize: 	Step increased F by 2.877195e+02, reducing alpha to 2.090528e-02.
	FillingsUpdate:  mu: -0.097431505  nElectrons: 522.000000  magneticMoment: [ Abs: 0.00402  Tot: -0.00021 ]
LCAOMinimize: Iter:   1  F: -2862.4723210151155399  |grad|_K:  5.834e-03  alpha:  2.091e-02  linmin:  7.679e-03  cgtest: -8.110e-02  t[s]:    120.37
	FillingsUpdate:  mu: +0.047294764  nElectrons: 522.000000  magneticMoment: [ Abs: 0.00373  Tot: -0.00029 ]
LCAOMinimize: Iter:   2  F: -2863.3726910645618773  |grad|_K:  6.519e-03  alpha:  1.615e-02  linmin: -8.289e-04  cgtest:  2.374e-02  t[s]:    157.20
LCAOMinimize: 	Predicted alpha/alphaT>3.000000, increasing alphaT to 4.845264e-02.
	FillingsUpdate:  mu: +0.199798830  nElectrons: 522.000000  magneticMoment: [ Abs: 0.00305  Tot: -0.00006 ]
LCAOMinimize: Iter:   3  F: -2866.7381729857115715  |grad|_K:  2.326e-03  alpha:  4.584e-02  linmin:  2.246e-02  cgtest: -4.517e-01  t[s]:    204.23
	FillingsUpdate:  mu: +0.242170972  nElectrons: 522.000000  magneticMoment: [ Abs: 0.00296  Tot: -0.00004 ]
LCAOMinimize: Iter:   4  F: -2866.8642756059084604  |grad|_K:  2.561e-03  alpha:  1.664e-02  linmin:  1.876e-04  cgtest:  1.655e-01  t[s]:    240.86
	FillingsUpdate:  mu: +0.345510124  nElectrons: 522.000000  magneticMoment: [ Abs: 0.00272  Tot: +0.00012 ]
LCAOMinimize: Iter:   5  F: -2867.2803767271848301  |grad|_K:  3.596e-03  alpha:  4.052e-02  linmin:  5.868e-03  cgtest: -4.515e-01  t[s]:    277.66
	FillingsUpdate:  mu: +0.327110457  nElectrons: 522.000000  magneticMoment: [ Abs: 0.00253  Tot: -0.00008 ]
LCAOMinimize: Iter:   6  F: -2867.4950047702100164  |grad|_K:  1.559e-03  alpha:  1.578e-02  linmin:  1.580e-02  cgtest:  4.649e-01  t[s]:    314.39
LCAOMinimize: Encountered beta<0, resetting CG.
	FillingsUpdate:  mu: +0.299409168  nElectrons: 522.000000  magneticMoment: [ Abs: 0.00253  Tot: -0.00010 ]
LCAOMinimize: Iter:   7  F: -2867.6330681308413659  |grad|_K:  2.121e-03  alpha:  3.404e-02  linmin:  2.880e-03  cgtest: -2.082e-02  t[s]:    350.96
	FillingsUpdate:  mu: +0.231119309  nElectrons: 522.000000  magneticMoment: [ Abs: 0.00253  Tot: -0.00001 ]
LCAOMinimize: Iter:   8  F: -2867.7269690058160450  |grad|_K:  1.581e-03  alpha:  1.280e-02  linmin:  1.176e-03  cgtest:  5.100e-02  t[s]:    387.53
	FillingsUpdate:  mu: +0.241349844  nElectrons: 522.000000  magneticMoment: [ Abs: 0.00251  Tot: +0.00011 ]
LCAOMinimize: Iter:   9  F: -2867.8513032559121712  |grad|_K:  1.127e-03  alpha:  3.016e-02  linmin:  3.835e-03  cgtest:  2.685e-01  t[s]:    424.21
	FillingsUpdate:  mu: +0.235986100  nElectrons: 522.000000  magneticMoment: [ Abs: 0.00250  Tot: +0.00010 ]
LCAOMinimize: Iter:  10  F: -2867.8732283789881876  |grad|_K:  9.762e-04  alpha:  1.038e-02  linmin: -5.465e-05  cgtest:  3.695e-03  t[s]:    461.38
LCAOMinimize: 	Predicted alpha/alphaT>3.000000, increasing alphaT to 3.115185e-02.
	FillingsUpdate:  mu: +0.191612570  nElectrons: 522.000000  magneticMoment: [ Abs: 0.00246  Tot: +0.00007 ]
LCAOMinimize: Iter:  11  F: -2867.9419683509740935  |grad|_K:  5.211e-04  alpha:  4.263e-02  linmin:  1.890e-03  cgtest: -2.473e-01  t[s]:    507.71
	FillingsUpdate:  mu: +0.221285895  nElectrons: 522.000000  magneticMoment: [ Abs: 0.00241  Tot: +0.00009 ]
LCAOMinimize: Iter:  12  F: -2867.9666903326951797  |grad|_K:  7.627e-04  alpha:  5.490e-02  linmin:  1.096e-03  cgtest:  2.326e-03  t[s]:    544.72
	FillingsUpdate:  mu: +0.225560904  nElectrons: 522.000000  magneticMoment: [ Abs: 0.00239  Tot: +0.00010 ]
LCAOMinimize: Iter:  13  F: -2867.9807878126748619  |grad|_K:  7.490e-04  alpha:  1.385e-02  linmin: -1.868e-03  cgtest:  7.438e-02  t[s]:    581.55
	FillingsUpdate:  mu: +0.195171999  nElectrons: 522.000000  magneticMoment: [ Abs: 0.00235  Tot: +0.00008 ]
LCAOMinimize: Iter:  14  F: -2868.0099914919264847  |grad|_K:  4.372e-04  alpha:  2.980e-02  linmin:  1.748e-03  cgtest: -2.921e-01  t[s]:    618.44
	FillingsUpdate:  mu: +0.201095319  nElectrons: 522.000000  magneticMoment: [ Abs: 0.00234  Tot: +0.00011 ]
LCAOMinimize: Iter:  15  F: -2868.0168482936282999  |grad|_K:  5.604e-04  alpha:  2.185e-02  linmin:  1.558e-05  cgtest:  5.978e-02  t[s]:    655.21
	FillingsUpdate:  mu: +0.202274891  nElectrons: 522.000000  magneticMoment: [ Abs: 0.00233  Tot: +0.00015 ]
LCAOMinimize: Iter:  16  F: -2868.0264755349949155  |grad|_K:  3.224e-04  alpha:  1.805e-02  linmin: -1.052e-05  cgtest: -8.674e-02  t[s]:    691.87
	FillingsUpdate:  mu: +0.209733854  nElectrons: 522.000000  magneticMoment: [ Abs: 0.00233  Tot: +0.00019 ]
LCAOMinimize: Iter:  17  F: -2868.0309472495314367  |grad|_K:  4.070e-04  alpha:  2.530e-02  linmin: -6.965e-05  cgtest: -2.134e-04  t[s]:    729.29
	FillingsUpdate:  mu: +0.208258763  nElectrons: 522.000000  magneticMoment: [ Abs: 0.00233  Tot: +0.00022 ]
LCAOMinimize: Iter:  18  F: -2868.0354547482797898  |grad|_K:  2.734e-04  alpha:  1.602e-02  linmin:  3.208e-05  cgtest: -7.733e-04  t[s]:    766.29
	FillingsUpdate:  mu: +0.204476587  nElectrons: 522.000000  magneticMoment: [ Abs: 0.00234  Tot: +0.00024 ]
LCAOMinimize: Iter:  19  F: -2868.0380772591715868  |grad|_K:  2.340e-04  alpha:  2.071e-02  linmin:  4.205e-04  cgtest: -1.958e-02  t[s]:    803.02
	FillingsUpdate:  mu: +0.202359777  nElectrons: 522.000000  magneticMoment: [ Abs: 0.00234  Tot: +0.00025 ]
LCAOMinimize: Iter:  20  F: -2868.0392239007055650  |grad|_K:  1.486e-04  alpha:  1.251e-02  linmin:  1.311e-04  cgtest: -3.015e-03  t[s]:    839.73
	FillingsUpdate:  mu: +0.204762693  nElectrons: 522.000000  magneticMoment: [ Abs: 0.00235  Tot: +0.00027 ]
LCAOMinimize: Iter:  21  F: -2868.0399917789591200  |grad|_K:  1.040e-04  alpha:  2.048e-02  linmin: -2.305e-04  cgtest:  4.215e-03  t[s]:    876.60
	FillingsUpdate:  mu: +0.206123744  nElectrons: 522.000000  magneticMoment: [ Abs: 0.00235  Tot: +0.00028 ]
LCAOMinimize: Iter:  22  F: -2868.0402307139229379  |grad|_K:  8.856e-05  alpha:  1.295e-02  linmin: -2.411e-05  cgtest: -4.958e-04  t[s]:    913.24
	FillingsUpdate:  mu: +0.208985097  nElectrons: 522.000000  magneticMoment: [ Abs: 0.00236  Tot: +0.00030 ]
LCAOMinimize: Iter:  23  F: -2868.0406649051701606  |grad|_K:  9.299e-05  alpha:  3.254e-02  linmin: -1.090e-04  cgtest: -1.652e-03  t[s]:    949.88
	FillingsUpdate:  mu: +0.209365020  nElectrons: 522.000000  magneticMoment: [ Abs: 0.00237  Tot: +0.00032 ]
LCAOMinimize: Iter:  24  F: -2868.0409240139415488  |grad|_K:  9.078e-05  alpha:  1.765e-02  linmin:  5.940e-05  cgtest: -7.972e-03  t[s]:    986.73
	FillingsUpdate:  mu: +0.208976955  nElectrons: 522.000000  magneticMoment: [ Abs: 0.00238  Tot: +0.00033 ]
LCAOMinimize: Iter:  25  F: -2868.0411656553833382  |grad|_K:  6.506e-05  alpha:  1.728e-02  linmin: -9.315e-05  cgtest:  1.005e-02  t[s]:   1023.48
	FillingsUpdate:  mu: +0.209760104  nElectrons: 522.000000  magneticMoment: [ Abs: 0.00239  Tot: +0.00035 ]
LCAOMinimize: Iter:  26  F: -2868.0413716992607078  |grad|_K:  8.329e-05  alpha:  2.863e-02  linmin:  3.979e-05  cgtest: -5.219e-03  t[s]:   1060.52
	FillingsUpdate:  mu: +0.210674055  nElectrons: 522.000000  magneticMoment: [ Abs: 0.00240  Tot: +0.00038 ]
LCAOMinimize: Iter:  27  F: -2868.0415518193549360  |grad|_K:  6.682e-05  alpha:  1.533e-02  linmin:  4.333e-05  cgtest: -1.367e-03  t[s]:   1097.16
	FillingsUpdate:  mu: +0.211433035  nElectrons: 522.000000  magneticMoment: [ Abs: 0.00243  Tot: +0.00042 ]
LCAOMinimize: Iter:  28  F: -2868.0418818142543387  |grad|_K:  9.438e-05  alpha:  4.350e-02  linmin: -3.962e-05  cgtest:  2.414e-03  t[s]:   1133.93
	FillingsUpdate:  mu: +0.210704256  nElectrons: 522.000000  magneticMoment: [ Abs: 0.00245  Tot: +0.00045 ]
LCAOMinimize: Iter:  29  F: -2868.0420745469536996  |grad|_K:  6.363e-05  alpha:  1.268e-02  linmin: -9.570e-05  cgtest: -9.270e-04  t[s]:   1170.73
	FillingsUpdate:  mu: +0.208994069  nElectrons: 522.000000  magneticMoment: [ Abs: 0.00247  Tot: +0.00048 ]
LCAOMinimize: Iter:  30  F: -2868.0422120909324804  |grad|_K:  4.334e-05  alpha:  1.996e-02  linmin:  9.640e-05  cgtest: -1.019e-02  t[s]:   1207.57
LCAOMinimize: None of the convergence criteria satisfied after 30 iterations.
----- createFluidSolver() ----- (Fluid-side solver setup)
   Initializing fluid molecule 'H2O'
     Initializing site 'O'
       Electron density: proportional to exp(-r/0.36935)*erfc((r-0.51523)/0.36823) with norm 6.826
       Charge density: gaussian nuclear width 0.478731 with net site charge 0.826
       Polarizability: cuspless exponential with width 0.32 and norm 3.73
       Hard sphere radius: 2.57003 bohrs
       Positions in reference frame:
         [ +0.000000 +0.000000 +0.000000 ]
     Initializing site 'H'
       Electron density: proportional to exp(-r/0.34641)*erfc((r-0)/0.390882) with norm 0.587
       Charge density: gaussian nuclear width 0.377945 with net site charge -0.413
       Polarizability: cuspless exponential with width 0.39 and norm 3.3
       Positions in reference frame:
         [ +0.000000 -1.441945 +1.122523 ]
         [ +0.000000 +1.441945 +1.122523 ]
     Net charge: 0   dipole magnitude: 0.927204
     Initializing spherical shell mfKernel with radius 2.61727 Bohr
     deltaS corrections:
       site 'O': -7.54299
       site 'H': -6.83917
   Initializing fluid molecule 'Na+'
     Initializing site 'Na'
       Electron density: proportional to exp(-r/0.19682)*erfc((r-0.71491)/0.41314) with norm 8.1383
       Charge density: gaussian nuclear width 0.365347 with net site charge -1
       Hard sphere radius: 1.86327 bohrs
       Positions in reference frame:
         [ +0.000000 +0.000000 +0.000000 ]
     Net charge: -1   dipole magnitude: 0
     Initializing gaussian mfKernel with width: 1.55004 Bohr
     deltaS corrections:
       site 'Na': -22.3555
   Initializing fluid molecule 'F-'
     Initializing site 'F'
       Electron density: proportional to exp(-r/0.38886)*erfc((r-0)/0.438782) with norm 8
       Charge density: gaussian nuclear width 0.374796 with net site charge 1
       Hard sphere radius: 2.39995 bohrs
       Positions in reference frame:
         [ +0.000000 +0.000000 +0.000000 ]
     Net charge: 1   dipole magnitude: 0
     Initializing gaussian mfKernel with width: 1.59012 Bohr
     deltaS corrections:
       site 'F': -9.04335

Correction to mu due to finite nuclear width = -0.0639283
   Cavity determined by nc: 0.00142 and sigma: 0.707107
   Nonlocal vdW cavity from gaussian model electron density with norm = 8 and sigma = 0.993594 bohr
   Charge asymmetry in cavity with sensitivity pCavity = 36.5 e-bohr/Eh
   Electrostatic cavity expanded by eta = 1.46 bohrs
   Weighted density cavitation model constrained by Nbulk: 0.0049383 bohr^-3, Pvap: 3.14029 kPa, Rvdw: 2.61727 bohr and sigmaBulk: 4.62e-05 Eh/bohr^2 at T: 298 K.
   Weighted density dispersion model using vdW pair potentials with single solvent site with sqrtC6eff: 0.77 SI.


---- Citations for features of the code used in this run ----

   Software package:
      R. Sundararaman, K. Letchworth-Weaver, K.A. Schwarz, D. Gunceler, Y. Ozhabes and T.A. Arias, 'JDFTx: software for joint density-functional theory', SoftwareX 6, 278 (2017)

   gga-PBE exchange-correlation functional:
      J.P. Perdew, K. Burke and M. Ernzerhof, Phys. Rev. Lett. 77, 3865 (1996)

   Pseudopotentials:
      KF Garrity, JW Bennett, KM Rabe and D Vanderbilt, Comput. Mater. Sci. 81, 446 (2014)

   DFT-D3 dispersion correction:
      S. Grimme, J. Antony, S. Ehrlich and H. Krieg, J. Chem. Phys. 132, 154104 (2010)

   DFT-D2 dispersion correction:
      S. Grimme, J. Comput. Chem. 27, 1787 (2006)

   Charge-asymmetric nonlocally-determined local-electric (CANDLE) solvation model:
      R. Sundararaman and W.A. Goddard III, J. Chem. Phys. 142, 064107 (2015)

   Total energy minimization with Auxiliary Hamiltonian:
      C. Freysoldt, S. Boeck, and J. Neugebauer, Phys. Rev. B 79, 241103(R) (2009)

   Linear-tetrahedron sampling for density of states:
      G. Lehmann and M. Taut, Phys. status solidi (b) 54, 469 (1972)

This list may not be complete. Please suggest additional citations or
report any other bugs at https://github.com/shankar1729/jdftx/issues

Initialization completed successfully at t[s]:   1219.00


Computing DFT-D3 correction:
# coordination-number Pt 8.694 8.658 9.683 8.659 9.490 9.490 9.490 9.491 6.506 6.506 6.510 6.510 9.420 9.420 9.420 9.420 9.418 9.418 9.418 9.418 5.947 5.947 5.947 5.947 9.491 9.491 9.491 9.491 8.656 8.656 8.656 8.656
# coordination-number C 4.167
# coordination-number O 1.162
# diagonal-C6 Pt 336.87 336.87 336.87 336.87 336.87 336.87 336.87 336.87 336.87 336.87 336.87 336.87 336.87 336.87 336.87 336.87 336.87 336.87 336.87 336.87 336.87 336.87 336.87 336.87 336.87 336.87 336.87 336.87 336.87 336.87 336.87 336.87
# diagonal-C6 C 18.24
# diagonal-C6 O 12.65
EvdW_6 =   -0.272233
EvdW_8 =   -0.446804
Fluid solver invoked on fresh (random / LCAO) wavefunctions
Running a vacuum solve first:

-------- Initial electronic minimization -----------
	FillingsUpdate:  mu: +0.208994629  nElectrons: 522.000000  magneticMoment: [ Abs: 0.00247  Tot: +0.00048 ]
ElecMinimize: Iter:   0  F: -2868.042212090932935  |grad|_K:  6.788e-05  alpha:  1.000e+00
	FillingsUpdate:  mu: +0.288988639  nElectrons: 522.000000  magneticMoment: [ Abs: 0.00202  Tot: +0.00056 ]
	SubspaceRotationAdjust: set factor to 0.517
ElecMinimize: Iter:   1  F: -2868.474915381039864  |grad|_K:  1.749e-04  alpha:  3.932e-01  linmin:  3.521e-05  t[s]:   1310.23
ElecMinimize: 	Step increased F by 6.609786e-02, reducing alpha to 1.562024e-03.
	FillingsUpdate:  mu: +0.274745133  nElectrons: 522.000000  magneticMoment: [ Abs: 0.00201  Tot: +0.00056 ]
	SubspaceRotationAdjust: set factor to 0.288
ElecMinimize: Iter:   2  F: -2868.494758724310032  |grad|_K:  9.593e-05  alpha:  1.562e-03  linmin: -4.227e-03  t[s]:   1405.70
ElecMinimize: 	Predicted alpha/alphaT>3.000000, increasing alphaT to 4.686071e-03.
	FillingsUpdate:  mu: +0.241637754  nElectrons: 522.000000  magneticMoment: [ Abs: 0.00199  Tot: +0.00055 ]
	SubspaceRotationAdjust: set factor to 0.163
ElecMinimize: Iter:   3  F: -2868.520221951671829  |grad|_K:  3.273e-05  alpha:  6.629e-03  linmin: -3.004e-05  t[s]:   1479.10
ElecMinimize: 	Predicted alpha/alphaT>3.000000, increasing alphaT to 1.988732e-02.
ElecMinimize: 	Predicted alpha/alphaT>3.000000, increasing alphaT to 5.966195e-02.
	FillingsUpdate:  mu: +0.259317885  nElectrons: 522.000000  magneticMoment: [ Abs: 0.00193  Tot: +0.00056 ]
	SubspaceRotationAdjust: set factor to 0.108
	SubspaceRotationAdjust: resetting CG because factor has changed by 0.108194
ElecMinimize: 	State modified externally: resetting search direction.
ElecMinimize: Iter:   4  F: -2868.536304478196143  |grad|_K:  4.494e-05  alpha:  6.212e-02
	FillingsUpdate:  mu: +0.236560446  nElectrons: 522.000000  magneticMoment: [ Abs: 0.00188  Tot: +0.00057 ]
	SubspaceRotationAdjust: set factor to 0.087
ElecMinimize: Iter:   5  F: -2868.567611394390951  |grad|_K:  2.564e-05  alpha:  6.453e-02  linmin:  8.565e-05  t[s]:   1654.59
ElecMinimize: 	Predicted alpha/alphaT>3.000000, increasing alphaT to 1.935990e-01.
	FillingsUpdate:  mu: +0.233443807  nElectrons: 522.000000  magneticMoment: [ Abs: 0.00159  Tot: +0.00058 ]
	SubspaceRotationAdjust: set factor to 0.0836
ElecMinimize: Iter:   6  F: -2868.620745589469607  |grad|_K:  1.633e-05  alpha:  3.370e-01  linmin:  3.063e-05  t[s]:   1728.00
	FillingsUpdate:  mu: +0.221597301  nElectrons: 522.000000  magneticMoment: [ Abs: 0.00126  Tot: +0.00055 ]
	SubspaceRotationAdjust: set factor to 0.0709
ElecMinimize: Iter:   7  F: -2868.649859304270194  |grad|_K:  9.640e-06  alpha:  4.551e-01  linmin:  2.132e-05  t[s]:   1786.29
	FillingsUpdate:  mu: +0.233206988  nElectrons: 522.000000  magneticMoment: [ Abs: 0.00116  Tot: +0.00055 ]
	SubspaceRotationAdjust: set factor to 0.0543
ElecMinimize: Iter:   8  F: -2868.655681236094551  |grad|_K:  6.508e-06  alpha:  2.613e-01  linmin:  5.198e-06  t[s]:   1844.69
	FillingsUpdate:  mu: +0.232592663  nElectrons: 522.000000  magneticMoment: [ Abs: 0.00110  Tot: +0.00053 ]
	SubspaceRotationAdjust: set factor to 0.0411
ElecMinimize: Iter:   9  F: -2868.657466328122155  |grad|_K:  5.800e-06  alpha:  1.755e-01  linmin: -1.455e-07  t[s]:   1903.02
	FillingsUpdate:  mu: +0.224951463  nElectrons: 522.000000  magneticMoment: [ Abs: 0.00099  Tot: +0.00050 ]
	SubspaceRotationAdjust: set factor to 0.0473
ElecMinimize: Iter:  10  F: -2868.660030612232731  |grad|_K:  4.068e-06  alpha:  3.175e-01  linmin:  7.302e-06  t[s]:   1961.57
	FillingsUpdate:  mu: +0.225179422  nElectrons: 522.000000  magneticMoment: [ Abs: 0.00093  Tot: +0.00048 ]
	SubspaceRotationAdjust: set factor to 0.0374
ElecMinimize: Iter:  11  F: -2868.661565117935879  |grad|_K:  3.750e-06  alpha:  3.866e-01  linmin:  3.182e-06  t[s]:   2020.10
	FillingsUpdate:  mu: +0.225632922  nElectrons: 522.000000  magneticMoment: [ Abs: 0.00090  Tot: +0.00046 ]
	SubspaceRotationAdjust: set factor to 0.0297
ElecMinimize: Iter:  12  F: -2868.662192381327714  |grad|_K:  2.616e-06  alpha:  1.857e-01  linmin: -8.685e-07  t[s]:   2078.55
	FillingsUpdate:  mu: +0.227153277  nElectrons: 522.000000  magneticMoment: [ Abs: 0.00086  Tot: +0.00044 ]
	SubspaceRotationAdjust: set factor to 0.039
ElecMinimize: Iter:  13  F: -2868.663106718827748  |grad|_K:  2.788e-06  alpha:  5.563e-01  linmin:  1.854e-06  t[s]:   2136.78
	FillingsUpdate:  mu: +0.225834481  nElectrons: 522.000000  magneticMoment: [ Abs: 0.00084  Tot: +0.00043 ]
	SubspaceRotationAdjust: set factor to 0.0334
ElecMinimize: Iter:  14  F: -2868.663769551342284  |grad|_K:  2.807e-06  alpha:  3.552e-01  linmin:  3.697e-08  t[s]:   2195.06
	FillingsUpdate:  mu: +0.223236222  nElectrons: 522.000000  magneticMoment: [ Abs: 0.00082  Tot: +0.00042 ]
	SubspaceRotationAdjust: set factor to 0.0341
ElecMinimize: Iter:  15  F: -2868.664399791543929  |grad|_K:  2.062e-06  alpha:  3.331e-01  linmin: -1.024e-06  t[s]:   2253.98
	FillingsUpdate:  mu: +0.223609733  nElectrons: 522.000000  magneticMoment: [ Abs: 0.00079  Tot: +0.00041 ]
	SubspaceRotationAdjust: set factor to 0.0375
ElecMinimize: Iter:  16  F: -2868.665051286705420  |grad|_K:  2.319e-06  alpha:  6.379e-01  linmin:  6.948e-07  t[s]:   2312.33
	FillingsUpdate:  mu: +0.223125515  nElectrons: 522.000000  magneticMoment: [ Abs: 0.00077  Tot: +0.00041 ]
	SubspaceRotationAdjust: set factor to 0.0291
ElecMinimize: Iter:  17  F: -2868.665461376457188  |grad|_K:  2.124e-06  alpha:  3.173e-01  linmin: -3.657e-07  t[s]:   2370.63
	FillingsUpdate:  mu: +0.221287212  nElectrons: 522.000000  magneticMoment: [ Abs: 0.00075  Tot: +0.00041 ]
	SubspaceRotationAdjust: set factor to 0.0294
ElecMinimize: Iter:  18  F: -2868.665901032366946  |grad|_K:  1.601e-06  alpha:  4.057e-01  linmin: -1.252e-06  t[s]:   2428.97
	FillingsUpdate:  mu: +0.221346553  nElectrons: 522.000000  magneticMoment: [ Abs: 0.00072  Tot: +0.00042 ]
	SubspaceRotationAdjust: set factor to 0.0312
ElecMinimize: Iter:  19  F: -2868.666234494684886  |grad|_K:  1.522e-06  alpha:  5.408e-01  linmin: -1.962e-07  t[s]:   2487.30
	FillingsUpdate:  mu: +0.221507536  nElectrons: 522.000000  magneticMoment: [ Abs: 0.00070  Tot: +0.00042 ]
	SubspaceRotationAdjust: set factor to 0.0247
ElecMinimize: Iter:  20  F: -2868.666436723521656  |grad|_K:  1.221e-06  alpha:  3.633e-01  linmin: -1.517e-07  t[s]:   2545.78
	FillingsUpdate:  mu: +0.221082565  nElectrons: 522.000000  magneticMoment: [ Abs: 0.00068  Tot: +0.00042 ]
	SubspaceRotationAdjust: set factor to 0.0237
ElecMinimize: Iter:  21  F: -2868.666565253165118  |grad|_K:  8.929e-07  alpha:  3.586e-01  linmin: -1.627e-07  t[s]:   2604.03
	FillingsUpdate:  mu: +0.220641399  nElectrons: 522.000000  magneticMoment: [ Abs: 0.00066  Tot: +0.00043 ]
	SubspaceRotationAdjust: set factor to 0.0271
ElecMinimize: Iter:  22  F: -2868.666663220699320  |grad|_K:  7.257e-07  alpha:  5.114e-01  linmin: -2.643e-07  t[s]:   2662.33
	FillingsUpdate:  mu: +0.220614137  nElectrons: 522.000000  magneticMoment: [ Abs: 0.00065  Tot: +0.00043 ]
	SubspaceRotationAdjust: set factor to 0.0249
ElecMinimize: Iter:  23  F: -2868.666715556366853  |grad|_K:  6.159e-07  alpha:  4.136e-01  linmin: -1.720e-08  t[s]:   2720.90
	FillingsUpdate:  mu: +0.220629425  nElectrons: 522.000000  magneticMoment: [ Abs: 0.00064  Tot: +0.00043 ]
	SubspaceRotationAdjust: set factor to 0.0244
ElecMinimize: Iter:  24  F: -2868.666754165695693  |grad|_K:  5.032e-07  alpha:  4.237e-01  linmin:  1.637e-08  t[s]:   2779.24
	FillingsUpdate:  mu: +0.220645170  nElectrons: 522.000000  magneticMoment: [ Abs: 0.00063  Tot: +0.00043 ]
	SubspaceRotationAdjust: set factor to 0.0287
ElecMinimize: Iter:  25  F: -2868.666788143647409  |grad|_K:  4.598e-07  alpha:  5.585e-01  linmin: -5.936e-08  t[s]:   2837.53
	FillingsUpdate:  mu: +0.220731632  nElectrons: 522.000000  magneticMoment: [ Abs: 0.00062  Tot: +0.00043 ]
	SubspaceRotationAdjust: set factor to 0.0297
ElecMinimize: Iter:  26  F: -2868.666812618625045  |grad|_K:  4.466e-07  alpha:  4.818e-01  linmin:  6.354e-08  t[s]:   2895.82
	FillingsUpdate:  mu: +0.220740266  nElectrons: 522.000000  magneticMoment: [ Abs: 0.00061  Tot: +0.00043 ]
	SubspaceRotationAdjust: set factor to 0.0278
ElecMinimize: Iter:  27  F: -2868.666837067793040  |grad|_K:  4.644e-07  alpha:  5.103e-01  linmin: -6.156e-08  t[s]:   2954.18
	FillingsUpdate:  mu: +0.220698164  nElectrons: 522.000000  magneticMoment: [ Abs: 0.00060  Tot: +0.00044 ]
	SubspaceRotationAdjust: set factor to 0.0279
ElecMinimize: Iter:  28  F: -2868.666863748015203  |grad|_K:  4.401e-07  alpha:  5.150e-01  linmin:  1.337e-07  t[s]:   3012.53
	FillingsUpdate:  mu: +0.220804923  nElectrons: 522.000000  magneticMoment: [ Abs: 0.00059  Tot: +0.00044 ]
	SubspaceRotationAdjust: set factor to 0.0306
ElecMinimize: Iter:  29  F: -2868.666888596917943  |grad|_K:  4.135e-07  alpha:  5.342e-01  linmin:  8.544e-08  t[s]:   3070.92
	FillingsUpdate:  mu: +0.220906298  nElectrons: 522.000000  magneticMoment: [ Abs: 0.00058  Tot: +0.00044 ]
	SubspaceRotationAdjust: set factor to 0.0303
ElecMinimize: Iter:  30  F: -2868.666912149177278  |grad|_K:  4.107e-07  alpha:  5.736e-01  linmin:  7.699e-08  t[s]:   3130.33
	FillingsUpdate:  mu: +0.220862000  nElectrons: 522.000000  magneticMoment: [ Abs: 0.00057  Tot: +0.00044 ]
	SubspaceRotationAdjust: set factor to 0.0253
ElecMinimize: Iter:  31  F: -2868.666928320029001  |grad|_K:  3.668e-07  alpha:  3.989e-01  linmin: -2.009e-09  t[s]:   3188.64
	FillingsUpdate:  mu: +0.220839245  nElectrons: 522.000000  magneticMoment: [ Abs: 0.00056  Tot: +0.00045 ]
	SubspaceRotationAdjust: set factor to 0.0253
ElecMinimize: Iter:  32  F: -2868.666942478867895  |grad|_K:  2.922e-07  alpha:  4.381e-01  linmin:  1.210e-07  t[s]:   3247.08
	FillingsUpdate:  mu: +0.220931566  nElectrons: 522.000000  magneticMoment: [ Abs: 0.00055  Tot: +0.00045 ]
	SubspaceRotationAdjust: set factor to 0.0284
ElecMinimize: Iter:  33  F: -2868.666953588335673  |grad|_K:  2.532e-07  alpha:  5.416e-01  linmin:  4.086e-08  t[s]:   3305.50
	FillingsUpdate:  mu: +0.220895089  nElectrons: 522.000000  magneticMoment: [ Abs: 0.00055  Tot: +0.00045 ]
	SubspaceRotationAdjust: set factor to 0.0275
ElecMinimize: Iter:  34  F: -2868.666960771949562  |grad|_K:  2.255e-07  alpha:  4.665e-01  linmin:  7.795e-08  t[s]:   3363.96
	FillingsUpdate:  mu: +0.220851642  nElectrons: 522.000000  magneticMoment: [ Abs: 0.00054  Tot: +0.00045 ]
	SubspaceRotationAdjust: set factor to 0.0254
ElecMinimize: Iter:  35  F: -2868.666966012258854  |grad|_K:  2.019e-07  alpha:  4.288e-01  linmin:  9.380e-08  t[s]:   3422.39
	FillingsUpdate:  mu: +0.220890340  nElectrons: 522.000000  magneticMoment: [ Abs: 0.00054  Tot: +0.00045 ]
	SubspaceRotationAdjust: set factor to 0.0285
ElecMinimize: Iter:  36  F: -2868.666971055920385  |grad|_K:  1.712e-07  alpha:  5.153e-01  linmin:  4.674e-08  t[s]:   3480.75
	FillingsUpdate:  mu: +0.220901798  nElectrons: 522.000000  magneticMoment: [ Abs: 0.00054  Tot: +0.00045 ]
	SubspaceRotationAdjust: set factor to 0.0311
ElecMinimize: Iter:  37  F: -2868.666975244708283  |grad|_K:  1.689e-07  alpha:  5.949e-01  linmin:  1.004e-07  t[s]:   3539.17
	FillingsUpdate:  mu: +0.220866073  nElectrons: 522.000000  magneticMoment: [ Abs: 0.00053  Tot: +0.00045 ]
	SubspaceRotationAdjust: set factor to 0.0286
ElecMinimize: Iter:  38  F: -2868.666978431491316  |grad|_K:  1.642e-07  alpha:  4.650e-01  linmin: -6.837e-08  t[s]:   3597.50
	FillingsUpdate:  mu: +0.220850604  nElectrons: 522.000000  magneticMoment: [ Abs: 0.00053  Tot: +0.00046 ]
	SubspaceRotationAdjust: set factor to 0.0252
ElecMinimize: Iter:  39  F: -2868.666981163327819  |grad|_K:  1.384e-07  alpha:  4.220e-01  linmin:  1.348e-07  t[s]:   3655.94
	FillingsUpdate:  mu: +0.220866549  nElectrons: 522.000000  magneticMoment: [ Abs: 0.00052  Tot: +0.00046 ]
	SubspaceRotationAdjust: set factor to 0.0266
ElecMinimize: Iter:  40  F: -2868.666983472787251  |grad|_K:  1.178e-07  alpha:  5.020e-01  linmin: -7.607e-08  t[s]:   3714.24
	FillingsUpdate:  mu: +0.220867204  nElectrons: 522.000000  magneticMoment: [ Abs: 0.00052  Tot: +0.00046 ]
	SubspaceRotationAdjust: set factor to 0.0281
ElecMinimize: Iter:  41  F: -2868.666985044524154  |grad|_K:  9.645e-08  alpha:  4.712e-01  linmin: -1.090e-07  t[s]:   3772.57
	FillingsUpdate:  mu: +0.220863529  nElectrons: 522.000000  magneticMoment: [ Abs: 0.00052  Tot: +0.00046 ]
	SubspaceRotationAdjust: set factor to 0.0258
ElecMinimize: Iter:  42  F: -2868.666986037731021  |grad|_K:  7.836e-08  alpha:  4.444e-01  linmin:  2.048e-07  t[s]:   3830.92
	FillingsUpdate:  mu: +0.220861173  nElectrons: 522.000000  magneticMoment: [ Abs: 0.00052  Tot: +0.00046 ]
	SubspaceRotationAdjust: set factor to 0.0234
ElecMinimize: Iter:  43  F: -2868.666986632794305  |grad|_K:  6.325e-08  alpha:  4.036e-01  linmin: -8.277e-07  t[s]:   3889.32
	FillingsUpdate:  mu: +0.220861611  nElectrons: 522.000000  magneticMoment: [ Abs: 0.00052  Tot: +0.00046 ]
	SubspaceRotationAdjust: set factor to 0.0263
ElecMinimize: Iter:  44  F: -2868.666987076718215  |grad|_K:  4.837e-08  alpha:  4.612e-01  linmin:  1.903e-07  t[s]:   3947.65
	FillingsUpdate:  mu: +0.220871340  nElectrons: 522.000000  magneticMoment: [ Abs: 0.00052  Tot: +0.00046 ]
	SubspaceRotationAdjust: set factor to 0.0288
ElecMinimize: Iter:  45  F: -2868.666987354145022  |grad|_K:  4.197e-08  alpha:  4.936e-01  linmin:  1.436e-06  t[s]:   4006.05
	FillingsUpdate:  mu: +0.220881579  nElectrons: 522.000000  magneticMoment: [ Abs: 0.00052  Tot: +0.00046 ]
	SubspaceRotationAdjust: set factor to 0.0277
ElecMinimize: Iter:  46  F: -2868.666987551786860  |grad|_K:  3.920e-08  alpha:  4.680e-01  linmin: -6.220e-07  t[s]:   4064.55
	FillingsUpdate:  mu: +0.220885871  nElectrons: 522.000000  magneticMoment: [ Abs: 0.00052  Tot: +0.00046 ]
	SubspaceRotationAdjust: set factor to 0.0275
ElecMinimize: Iter:  47  F: -2868.666987722423073  |grad|_K:  3.594e-08  alpha:  4.625e-01  linmin: -6.200e-07  t[s]:   4122.82
	FillingsUpdate:  mu: +0.220891450  nElectrons: 522.000000  magneticMoment: [ Abs: 0.00051  Tot: +0.00046 ]
	SubspaceRotationAdjust: set factor to 0.0311
ElecMinimize: Iter:  48  F: -2868.666987900979166  |grad|_K:  3.406e-08  alpha:  5.748e-01  linmin:  5.405e-07  t[s]:   4181.46
	FillingsUpdate:  mu: +0.220910917  nElectrons: 522.000000  magneticMoment: [ Abs: 0.00051  Tot: +0.00046 ]
	SubspaceRotationAdjust: set factor to 0.0329
ElecMinimize: Iter:  49  F: -2868.666988074812252  |grad|_K:  3.530e-08  alpha:  6.230e-01  linmin: -1.126e-06  t[s]:   4240.09
	FillingsUpdate:  mu: +0.220921759  nElectrons: 522.000000  magneticMoment: [ Abs: 0.00051  Tot: +0.00046 ]
	SubspaceRotationAdjust: set factor to 0.0288
ElecMinimize: Iter:  50  F: -2868.666988210709405  |grad|_K:  3.540e-08  alpha:  4.509e-01  linmin: -2.513e-07  t[s]:   4298.40
	FillingsUpdate:  mu: +0.220928952  nElectrons: 522.000000  magneticMoment: [ Abs: 0.00051  Tot: +0.00046 ]
	SubspaceRotationAdjust: set factor to 0.0252
ElecMinimize: Iter:  51  F: -2868.666988335056885  |grad|_K:  3.003e-08  alpha:  4.133e-01  linmin: -1.264e-06  t[s]:   4357.13
	FillingsUpdate:  mu: +0.220945064  nElectrons: 522.000000  magneticMoment: [ Abs: 0.00051  Tot: +0.00047 ]
	SubspaceRotationAdjust: set factor to 0.0275
ElecMinimize: Iter:  52  F: -2868.666988447768290  |grad|_K:  2.489e-08  alpha:  5.168e-01  linmin: -2.880e-06  t[s]:   4415.56
	FillingsUpdate:  mu: +0.220955731  nElectrons: 522.000000  magneticMoment: [ Abs: 0.00051  Tot: +0.00047 ]
	SubspaceRotationAdjust: set factor to 0.0284
ElecMinimize: Iter:  53  F: -2868.666988520829364  |grad|_K:  2.139e-08  alpha:  4.891e-01  linmin: -4.617e-07  t[s]:   4474.12
	FillingsUpdate:  mu: +0.220957808  nElectrons: 522.000000  magneticMoment: [ Abs: 0.00051  Tot: +0.00047 ]
	SubspaceRotationAdjust: set factor to 0.0256
ElecMinimize: Iter:  54  F: -2868.666988567734734  |grad|_K:  1.816e-08  alpha:  4.259e-01  linmin: -1.996e-06  t[s]:   4532.63
ElecMinimize: Converged (|Delta F|<1.000000e-07 for 2 iters).
Setting wave functions to eigenvectors of Hamiltonian
Converging empty states (this may take a while): |deigs|: 1.742e-03
Vacuum energy after initial minimize, F = -2868.666988567734734


-------- Electronic minimization -----------
	Linear fluid (dielectric constant: 78.4, screening length: 8.12261 Bohr) occupying 0.425310 of unit cell:	Completed after 27 iterations at t[s]:   4845.18
	FillingsUpdate:  mu: -0.191164107  nElectrons: 522.000000  magneticMoment: [ Abs: 0.00051  Tot: +0.00048 ]
ElecMinimize: Iter:   0  F: -2868.673345289406825  |grad|_K:  1.118e-06  alpha:  1.000e+00
	Linear fluid (dielectric constant: 78.4, screening length: 8.12261 Bohr) occupying 0.425911 of unit cell:	Completed after 19 iterations at t[s]:   4896.43
	Linear fluid (dielectric constant: 78.4, screening length: 8.12261 Bohr) occupying 0.425521 of unit cell:	Completed after 18 iterations at t[s]:   4915.62
	FillingsUpdate:  mu: -0.190408028  nElectrons: 522.000000  magneticMoment: [ Abs: 0.00051  Tot: +0.00048 ]
	SubspaceRotationAdjust: set factor to 0.0212
ElecMinimize: Iter:   1  F: -2868.673451743298301  |grad|_K:  6.887e-07  alpha:  3.549e-01  linmin:  6.344e-07  t[s]:   4939.51
	Linear fluid (dielectric constant: 78.4, screening length: 8.12261 Bohr) occupying 0.425763 of unit cell:	Completed after 11 iterations at t[s]:   4963.13
	Linear fluid (dielectric constant: 78.4, screening length: 8.12261 Bohr) occupying 0.426071 of unit cell:	Completed after 11 iterations at t[s]:   4981.32
	FillingsUpdate:  mu: -0.189788818  nElectrons: 522.000000  magneticMoment: [ Abs: 0.00051  Tot: +0.00048 ]
	SubspaceRotationAdjust: set factor to 0.0249
ElecMinimize: Iter:   2  F: -2868.673543968970534  |grad|_K:  5.566e-07  alpha:  8.096e-01  linmin: -2.998e-07  t[s]:   5004.60
	Linear fluid (dielectric constant: 78.4, screening length: 8.12261 Bohr) occupying 0.426549 of unit cell:	Completed after 15 iterations at t[s]:   5028.98
	Linear fluid (dielectric constant: 78.4, screening length: 8.12261 Bohr) occupying 0.426383 of unit cell:	Completed after 10 iterations at t[s]:   5046.70
	FillingsUpdate:  mu: -0.189357352  nElectrons: 522.000000  magneticMoment: [ Abs: 0.00051  Tot: +0.00048 ]
	SubspaceRotationAdjust: set factor to 0.0293
ElecMinimize: Iter:   3  F: -2868.673583216843781  |grad|_K:  3.869e-07  alpha:  5.275e-01  linmin: -4.991e-08  t[s]:   5070.26
	Linear fluid (dielectric constant: 78.4, screening length: 8.12261 Bohr) occupying 0.426545 of unit cell:	Completed after 11 iterations at t[s]:   5093.93
	Linear fluid (dielectric constant: 78.4, screening length: 8.12261 Bohr) occupying 0.426562 of unit cell:	Completed after 2 iterations at t[s]:   5110.61
	FillingsUpdate:  mu: -0.189151509  nElectrons: 522.000000  magneticMoment: [ Abs: 0.00051  Tot: +0.00048 ]
	SubspaceRotationAdjust: set factor to 0.0362
ElecMinimize: Iter:   4  F: -2868.673604092868118  |grad|_K:  3.129e-07  alpha:  5.803e-01  linmin: -5.062e-07  t[s]:   5134.03
	Linear fluid (dielectric constant: 78.4, screening length: 8.12261 Bohr) occupying 0.426672 of unit cell:	Completed after 9 iterations at t[s]:   5157.34
	Linear fluid (dielectric constant: 78.4, screening length: 8.12261 Bohr) occupying 0.426723 of unit cell:	Completed after 8 iterations at t[s]:   5175.02
	FillingsUpdate:  mu: -0.188644923  nElectrons: 522.000000  magneticMoment: [ Abs: 0.00051  Tot: +0.00048 ]
	SubspaceRotationAdjust: set factor to 0.0444
ElecMinimize: Iter:   5  F: -2868.673624205385295  |grad|_K:  3.279e-07  alpha:  8.515e-01  linmin: -5.774e-07  t[s]:   5198.37
	Linear fluid (dielectric constant: 78.4, screening length: 8.12261 Bohr) occupying 0.426885 of unit cell:	Completed after 10 iterations at t[s]:   5221.89
	Linear fluid (dielectric constant: 78.4, screening length: 8.12261 Bohr) occupying 0.426894 of unit cell:	Completed after 2 iterations at t[s]:   5238.74
	FillingsUpdate:  mu: -0.188320332  nElectrons: 522.000000  magneticMoment: [ Abs: 0.00051  Tot: +0.00048 ]
	SubspaceRotationAdjust: set factor to 0.0511
ElecMinimize: Iter:   6  F: -2868.673647538198566  |grad|_K:  3.842e-07  alpha:  8.988e-01  linmin: -1.849e-07  t[s]:   5261.97
	Linear fluid (dielectric constant: 78.4, screening length: 8.12261 Bohr) occupying 0.427116 of unit cell:	Completed after 13 iterations at t[s]:   5285.94
	Linear fluid (dielectric constant: 78.4, screening length: 8.12261 Bohr) occupying 0.427086 of unit cell:	Completed after 7 iterations at t[s]:   5303.37
	FillingsUpdate:  mu: -0.187753082  nElectrons: 522.000000  magneticMoment: [ Abs: 0.00051  Tot: +0.00048 ]
	SubspaceRotationAdjust: set factor to 0.0551
ElecMinimize: Iter:   7  F: -2868.673675090488814  |grad|_K:  4.227e-07  alpha:  7.752e-01  linmin: -7.484e-08  t[s]:   5326.69
	Linear fluid (dielectric constant: 78.4, screening length: 8.12261 Bohr) occupying 0.427293 of unit cell:	Completed after 12 iterations at t[s]:   5350.54
	Linear fluid (dielectric constant: 78.4, screening length: 8.12261 Bohr) occupying 0.427247 of unit cell:	Completed after 7 iterations at t[s]:   5368.03
	FillingsUpdate:  mu: -0.187557045  nElectrons: 522.000000  magneticMoment: [ Abs: 0.00052  Tot: +0.00049 ]
	SubspaceRotationAdjust: set factor to 0.0548
ElecMinimize: Iter:   8  F: -2868.673700696477681  |grad|_K:  4.133e-07  alpha:  5.959e-01  linmin:  2.675e-09  t[s]:   5391.29
	Linear fluid (dielectric constant: 78.4, screening length: 8.12261 Bohr) occupying 0.427386 of unit cell:	Completed after 14 iterations at t[s]:   5415.35
	Linear fluid (dielectric constant: 78.4, screening length: 8.12261 Bohr) occupying 0.427372 of unit cell:	Completed after 6 iterations at t[s]:   5432.59
	FillingsUpdate:  mu: -0.187214168  nElectrons: 522.000000  magneticMoment: [ Abs: 0.00052  Tot: +0.00049 ]
	SubspaceRotationAdjust: set factor to 0.05
ElecMinimize: Iter:   9  F: -2868.673722532985266  |grad|_K:  3.438e-07  alpha:  5.322e-01  linmin: -2.503e-08  t[s]:   5455.91
	Linear fluid (dielectric constant: 78.4, screening length: 8.12261 Bohr) occupying 0.427438 of unit cell:	Completed after 11 iterations at t[s]:   5479.79
	Linear fluid (dielectric constant: 78.4, screening length: 8.12261 Bohr) occupying 0.427431 of unit cell:	Completed after 5 iterations at t[s]:   5496.84
	FillingsUpdate:  mu: -0.187099871  nElectrons: 522.000000  magneticMoment: [ Abs: 0.00052  Tot: +0.00049 ]
	SubspaceRotationAdjust: set factor to 0.0418
ElecMinimize: Iter:  10  F: -2868.673736160159024  |grad|_K:  2.944e-07  alpha:  4.797e-01  linmin:  7.954e-09  t[s]:   5520.14
	Linear fluid (dielectric constant: 78.4, screening length: 8.12261 Bohr) occupying 0.427468 of unit cell:	Completed after 10 iterations at t[s]:   5544.15
	Linear fluid (dielectric constant: 78.4, screening length: 8.12261 Bohr) occupying 0.427464 of unit cell:	Completed after 5 iterations at t[s]:   5561.26
	FillingsUpdate:  mu: -0.186964078  nElectrons: 522.000000  magneticMoment: [ Abs: 0.00052  Tot: +0.00049 ]
	SubspaceRotationAdjust: set factor to 0.038
ElecMinimize: Iter:  11  F: -2868.673744970551525  |grad|_K:  2.137e-07  alpha:  4.233e-01  linmin: -1.438e-08  t[s]:   5584.62
	Linear fluid (dielectric constant: 78.4, screening length: 8.12261 Bohr) occupying 0.427473 of unit cell:	Completed after 7 iterations at t[s]:   5607.56
	Linear fluid (dielectric constant: 78.4, screening length: 8.12261 Bohr) occupying 0.427475 of unit cell:	Completed after 2 iterations at t[s]:   5624.29
	FillingsUpdate:  mu: -0.186927488  nElectrons: 522.000000  magneticMoment: [ Abs: 0.00052  Tot: +0.00049 ]
	SubspaceRotationAdjust: set factor to 0.045
ElecMinimize: Iter:  12  F: -2868.673750855479739  |grad|_K:  1.594e-07  alpha:  5.359e-01  linmin: -1.038e-07  t[s]:   5647.65
	Linear fluid (dielectric constant: 78.4, screening length: 8.12261 Bohr) occupying 0.427476 of unit cell:	Completed after 7 iterations at t[s]:   5670.69
	Linear fluid (dielectric constant: 78.4, screening length: 8.12261 Bohr) occupying 0.427476 of unit cell:	Completed after 0 iterations at t[s]:   5686.87
	FillingsUpdate:  mu: -0.186884626  nElectrons: 522.000000  magneticMoment: [ Abs: 0.00052  Tot: +0.00049 ]
	SubspaceRotationAdjust: set factor to 0.0511
ElecMinimize: Iter:  13  F: -2868.673754110935988  |grad|_K:  1.339e-07  alpha:  5.326e-01  linmin: -1.559e-07  t[s]:   5710.31
	Linear fluid (dielectric constant: 78.4, screening length: 8.12261 Bohr) occupying 0.427476 of unit cell:	Completed after 8 iterations at t[s]:   5733.48
	Linear fluid (dielectric constant: 78.4, screening length: 8.12261 Bohr) occupying 0.427476 of unit cell:	Completed after 2 iterations at t[s]:   5750.33
	FillingsUpdate:  mu: -0.186897131  nElectrons: 522.000000  magneticMoment: [ Abs: 0.00052  Tot: +0.00050 ]
	SubspaceRotationAdjust: set factor to 0.0518
ElecMinimize: Iter:  14  F: -2868.673756161657366  |grad|_K:  1.202e-07  alpha:  4.750e-01  linmin:  2.408e-07  t[s]:   5773.66
	Linear fluid (dielectric constant: 78.4, screening length: 8.12261 Bohr) occupying 0.427475 of unit cell:	Completed after 8 iterations at t[s]:   5796.82
	Linear fluid (dielectric constant: 78.4, screening length: 8.12261 Bohr) occupying 0.427475 of unit cell:	Completed after 0 iterations at t[s]:   5812.99
	FillingsUpdate:  mu: -0.186971434  nElectrons: 522.000000  magneticMoment: [ Abs: 0.00053  Tot: +0.00050 ]
	SubspaceRotationAdjust: set factor to 0.0537
ElecMinimize: Iter:  15  F: -2868.673757874758849  |grad|_K:  1.037e-07  alpha:  4.949e-01  linmin: -1.210e-06  t[s]:   5836.33
	Linear fluid (dielectric constant: 78.4, screening length: 8.12261 Bohr) occupying 0.427476 of unit cell:	Completed after 5 iterations at t[s]:   5859.10
	Linear fluid (dielectric constant: 78.4, screening length: 8.12261 Bohr) occupying 0.427477 of unit cell:	Completed after 1 iterations at t[s]:   5875.61
	FillingsUpdate:  mu: -0.186953446  nElectrons: 522.000000  magneticMoment: [ Abs: 0.00053  Tot: +0.00050 ]
	SubspaceRotationAdjust: set factor to 0.0622
ElecMinimize: Iter:  16  F: -2868.673759373530174  |grad|_K:  9.627e-08  alpha:  5.705e-01  linmin: -1.119e-07  t[s]:   5898.85
	Linear fluid (dielectric constant: 78.4, screening length: 8.12261 Bohr) occupying 0.427482 of unit cell:	Completed after 6 iterations at t[s]:   5921.68
	Linear fluid (dielectric constant: 78.4, screening length: 8.12261 Bohr) occupying 0.427482 of unit cell:	Completed after 0 iterations at t[s]:   5937.94
	FillingsUpdate:  mu: -0.187016857  nElectrons: 522.000000  magneticMoment: [ Abs: 0.00053  Tot: +0.00050 ]
	SubspaceRotationAdjust: set factor to 0.0706
ElecMinimize: Iter:  17  F: -2868.673760606295673  |grad|_K:  9.025e-08  alpha:  5.527e-01  linmin: -7.218e-08  t[s]:   5961.33
	Linear fluid (dielectric constant: 78.4, screening length: 8.12261 Bohr) occupying 0.427488 of unit cell:	Completed after 7 iterations at t[s]:   5984.27
	Linear fluid (dielectric constant: 78.4, screening length: 8.12261 Bohr) occupying 0.427487 of unit cell:	Completed after 2 iterations at t[s]:   6001.08
	FillingsUpdate:  mu: -0.187059853  nElectrons: 522.000000  magneticMoment: [ Abs: 0.00053  Tot: +0.00050 ]
	SubspaceRotationAdjust: set factor to 0.064
ElecMinimize: Iter:  18  F: -2868.673761464048766  |grad|_K:  9.567e-08  alpha:  4.370e-01  linmin:  1.004e-06  t[s]:   6024.45
	Linear fluid (dielectric constant: 78.4, screening length: 8.12261 Bohr) occupying 0.427496 of unit cell:	Completed after 8 iterations at t[s]:   6047.64
	Linear fluid (dielectric constant: 78.4, screening length: 8.12261 Bohr) occupying 0.427493 of unit cell:	Completed after 5 iterations at t[s]:   6064.74
	FillingsUpdate:  mu: -0.187038491  nElectrons: 522.000000  magneticMoment: [ Abs: 0.00053  Tot: +0.00050 ]
	SubspaceRotationAdjust: set factor to 0.0533
ElecMinimize: Iter:  19  F: -2868.673762116520720  |grad|_K:  7.380e-08  alpha:  3.051e-01  linmin: -1.491e-07  t[s]:   6088.18
	Linear fluid (dielectric constant: 78.4, screening length: 8.12261 Bohr) occupying 0.427498 of unit cell:	Completed after 3 iterations at t[s]:   6110.70
	Linear fluid (dielectric constant: 78.4, screening length: 8.12261 Bohr) occupying 0.427501 of unit cell:	Completed after 3 iterations at t[s]:   6127.54
	FillingsUpdate:  mu: -0.187062875  nElectrons: 522.000000  magneticMoment: [ Abs: 0.00053  Tot: +0.00050 ]
	SubspaceRotationAdjust: set factor to 0.0655
ElecMinimize: Iter:  20  F: -2868.673762775883461  |grad|_K:  5.878e-08  alpha:  5.006e-01  linmin: -4.929e-07  t[s]:   6151.83
	Linear fluid (dielectric constant: 78.4, screening length: 8.12261 Bohr) occupying 0.427507 of unit cell:	Completed after 6 iterations at t[s]:   6174.82
	Linear fluid (dielectric constant: 78.4, screening length: 8.12261 Bohr) occupying 0.427507 of unit cell:	Completed after 0 iterations at t[s]:   6191.01
	FillingsUpdate:  mu: -0.187081341  nElectrons: 522.000000  magneticMoment: [ Abs: 0.00053  Tot: +0.00051 ]
	SubspaceRotationAdjust: set factor to 0.0673
ElecMinimize: Iter:  21  F: -2868.673763191823127  |grad|_K:  5.890e-08  alpha:  4.972e-01  linmin: -1.018e-06  t[s]:   6214.37
	Linear fluid (dielectric constant: 78.4, screening length: 8.12261 Bohr) occupying 0.427514 of unit cell:	Completed after 8 iterations at t[s]:   6237.55
	Linear fluid (dielectric constant: 78.4, screening length: 8.12261 Bohr) occupying 0.427511 of unit cell:	Completed after 4 iterations at t[s]:   6254.56
	FillingsUpdate:  mu: -0.187052426  nElectrons: 522.000000  magneticMoment: [ Abs: 0.00054  Tot: +0.00051 ]
	SubspaceRotationAdjust: set factor to 0.0551
ElecMinimize: Iter:  22  F: -2868.673763460697046  |grad|_K:  5.078e-08  alpha:  3.159e-01  linmin:  1.650e-06  t[s]:   6277.96
	Linear fluid (dielectric constant: 78.4, screening length: 8.12261 Bohr) occupying 0.427514 of unit cell:	Completed after 5 iterations at t[s]:   6300.74
	Linear fluid (dielectric constant: 78.4, screening length: 8.12261 Bohr) occupying 0.427515 of unit cell:	Completed after 0 iterations at t[s]:   6317.14
	FillingsUpdate:  mu: -0.187065399  nElectrons: 522.000000  magneticMoment: [ Abs: 0.00054  Tot: +0.00051 ]
	SubspaceRotationAdjust: set factor to 0.0699
ElecMinimize: Iter:  23  F: -2868.673763705539386  |grad|_K:  3.629e-08  alpha:  3.960e-01  linmin: -6.451e-06  t[s]:   6340.74
	Linear fluid (dielectric constant: 78.4, screening length: 8.12261 Bohr) occupying 0.427515 of unit cell:	Completed after 2 iterations at t[s]:   6362.95
	Linear fluid (dielectric constant: 78.4, screening length: 8.12261 Bohr) occupying 0.427516 of unit cell:	Completed after 0 iterations at t[s]:   6379.29
	FillingsUpdate:  mu: -0.187073305  nElectrons: 522.000000  magneticMoment: [ Abs: 0.00054  Tot: +0.00051 ]
	SubspaceRotationAdjust: set factor to 0.0785
ElecMinimize: Iter:  24  F: -2868.673763870720904  |grad|_K:  3.320e-08  alpha:  4.779e-01  linmin: -9.807e-06  t[s]:   6402.72
	Linear fluid (dielectric constant: 78.4, screening length: 8.12261 Bohr) occupying 0.427516 of unit cell:	Completed after 3 iterations at t[s]:   6425.12
	Linear fluid (dielectric constant: 78.4, screening length: 8.12261 Bohr) occupying 0.427516 of unit cell:	Completed after 1 iterations at t[s]:   6441.81
	FillingsUpdate:  mu: -0.187067637  nElectrons: 522.000000  magneticMoment: [ Abs: 0.00054  Tot: +0.00051 ]
	SubspaceRotationAdjust: set factor to 0.0694
ElecMinimize: Iter:  25  F: -2868.673763986428185  |grad|_K:  3.062e-08  alpha:  4.049e-01  linmin:  8.498e-06  t[s]:   6465.18
	Linear fluid (dielectric constant: 78.4, screening length: 8.12261 Bohr) occupying 0.427516 of unit cell:	Completed after 2 iterations at t[s]:   6487.35
	Linear fluid (dielectric constant: 78.4, screening length: 8.12261 Bohr) occupying 0.427516 of unit cell:	Completed after 0 iterations at t[s]:   6503.60
	FillingsUpdate:  mu: -0.187068063  nElectrons: 522.000000  magneticMoment: [ Abs: 0.00054  Tot: +0.00051 ]
	SubspaceRotationAdjust: set factor to 0.0809
ElecMinimize: Iter:  26  F: -2868.673764072337235  |grad|_K:  2.191e-08  alpha:  4.051e-01  linmin: -2.327e-06  t[s]:   6526.95
	Linear fluid (dielectric constant: 78.4, screening length: 8.12261 Bohr) occupying 0.427514 of unit cell:	Completed after 2 iterations at t[s]:   6549.15
	Linear fluid (dielectric constant: 78.4, screening length: 8.12261 Bohr) occupying 0.427514 of unit cell:	Completed after 0 iterations at t[s]:   6565.43
	FillingsUpdate:  mu: -0.187075332  nElectrons: 522.000000  magneticMoment: [ Abs: 0.00054  Tot: +0.00051 ]
	SubspaceRotationAdjust: set factor to 0.0886
ElecMinimize: Iter:  27  F: -2868.673764123210731  |grad|_K:  1.956e-08  alpha:  4.376e-01  linmin: -9.476e-06  t[s]:   6588.86
ElecMinimize: Converged (|Delta F|<1.000000e-07 for 2 iters).
Setting wave functions to eigenvectors of Hamiltonian
Converging empty states (this may take a while): |deigs|: 5.637e-05
Single-point solvation energy estimate, DeltaF = -0.006775555475997

Computing DFT-D3 correction:
# coordination-number Pt 8.694 8.658 9.683 8.659 9.490 9.490 9.490 9.491 6.506 6.506 6.510 6.510 9.420 9.420 9.420 9.420 9.418 9.418 9.418 9.418 5.947 5.947 5.947 5.947 9.491 9.491 9.491 9.491 8.656 8.656 8.656 8.656
# coordination-number C 4.167
# coordination-number O 1.162
# diagonal-C6 Pt 336.87 336.87 336.87 336.87 336.87 336.87 336.87 336.87 336.87 336.87 336.87 336.87 336.87 336.87 336.87 336.87 336.87 336.87 336.87 336.87 336.87 336.87 336.87 336.87 336.87 336.87 336.87 336.87 336.87 336.87 336.87 336.87
# diagonal-C6 C 18.24
# diagonal-C6 O 12.65
EvdW_6 =   -0.272233
EvdW_8 =   -0.446804

# Ionic positions in cartesian coordinates:
ion Pt   0.000010000000000   7.399025000000001  48.561914000000009 0
ion Pt   0.000010000000000  14.798198000000001  48.561914000000009 0
ion Pt   5.232006000000000   7.399025000000001  48.561914000000009 0
ion Pt   5.232006000000000  14.798198000000001  48.561914000000009 0
ion Pt   0.000000000000000   0.000074000000000  43.164379000000004 0
ion Pt   0.000000000000000   7.399232000000001  43.164379000000004 0
ion Pt   5.231996000000000   0.000074000000000  43.164379000000004 0
ion Pt   5.231996000000000   7.399232000000001  43.164379000000004 0
ion Pt   2.615956000000000   3.699298000000001  50.876444000000006 0
ion Pt   2.615956000000000  11.098456000000002  50.876444000000006 0
ion Pt   7.847942000000001   3.699298000000001  50.876444000000006 0
ion Pt   7.847942000000001  11.098456000000002  50.876444000000006 0
ion Pt   2.616040000000000   3.699683000000001  45.754477999999999 0
ion Pt   2.616040000000000  11.098841000000002  45.754477999999999 0
ion Pt   7.848036000000000   3.699683000000001  45.754477999999999 0
ion Pt   7.848036000000000  11.098841000000002  45.754477999999999 0
ion Pt   5.231944000000000   0.000000000000000  37.958072999999999 0
ion Pt   5.231944000000000   7.399158000000001  37.958072999999999 0
ion Pt  10.463950000000001   0.000000000000000  37.958072999999999 0
ion Pt  10.463950000000001   7.399158000000001  37.958072999999999 0
ion Pt   0.000031000000000   0.000118000000000  32.835321000000000 0
ion Pt   0.000031000000000   7.399277000000001  32.835321000000000 0
ion Pt   5.232038000000001   0.000118000000000  32.835321000000000 0
ion Pt   5.232038000000001   7.399277000000001  32.835321000000000 0
ion Pt   2.615946000000000   3.699624000000000  40.547072999999997 0
ion Pt   2.615946000000000  11.098782000000002  40.547072999999997 0
ion Pt   7.847942000000001   3.699624000000000  40.547072999999997 0
ion Pt   7.847942000000001  11.098782000000002  40.547072999999997 0
ion Pt   2.616050000000000   3.699653000000000  35.149956000000003 0
ion Pt   2.616050000000000  11.098796999999999  35.149956000000003 0
ion Pt   7.848046000000001   3.699653000000000  35.149956000000003 0
ion Pt   7.848046000000001  11.098796999999999  35.149956000000003 0
ion C   5.231954000000000   7.398877000000001  52.039883000000010 1  Linear 0 0 1
ion O   5.292038000000001   7.398877000000001   1.875304000000000 1  Linear 0 0 1

# Forces in Cartesian coordinates:
force Pt  -0.000109751829739   0.000002117130594  -0.007614935952299 0
force Pt  -0.000029471221628  -0.000000287323360   0.000326476427806 0
force Pt   0.000054919274716   0.000000958517934  -0.049290601433160 0
force Pt   0.000012980171317  -0.000000534741204  -0.001567379237716 0
force Pt   0.000017151454079   0.000001489525346  -0.001622149406467 0
force Pt   0.000017043164157   0.000002656425414   0.000373142098916 0
force Pt  -0.000022357349941   0.000002056163621   0.000699269736669 0
force Pt  -0.000027428805079   0.000000797227319   0.008011404531550 0
force Pt  -0.011158510604811  -0.012380753714434   0.001596819035793 0
force Pt  -0.011164715512299   0.012378359112869   0.001586452938175 0
force Pt   0.011713260333511  -0.013752961430104   0.001087721835857 0
force Pt   0.011718441227882   0.013751059507313   0.001076023290867 0
force Pt  -0.001172245141887  -0.002107481542618  -0.004547364977618 0
force Pt  -0.001170349351356   0.002097944984051  -0.004544038643113 0
force Pt   0.001150910016053  -0.002005178924072  -0.004526106852430 0
force Pt   0.001150166397061   0.001995577431652  -0.004522350500696 0
force Pt   0.000009602784601   0.000002609612993   0.000689188973325 0
force Pt  -0.000012318269546   0.000002997712682  -0.001105821695663 0
force Pt   0.000013369331332   0.000005470073017   0.000191675302466 0
force Pt  -0.000008777481476   0.000005163136809   0.000096706385351 0
force Pt   0.000025372526847   0.000008571027180  -0.000065289424549 0
force Pt   0.000008948043122   0.000008557150056   0.000439444382906 0
force Pt  -0.000010216302053   0.000007923972985   0.000328741909197 0
force Pt  -0.000033620867195   0.000008105578152  -0.003082413315543 0
force Pt   0.000234268575075   0.000450428652826  -0.000060109257875 0
force Pt   0.000234702189966  -0.000457640294309  -0.000059970843912 0
force Pt  -0.000234842401219   0.000403195701427  -0.000033412298278 0
force Pt  -0.000235323339383  -0.000410477170296  -0.000033157787960 0
force Pt   0.000548002964271   0.000483635571276  -0.000204255167991 0
force Pt   0.000548283143296  -0.000489315916149  -0.000204391388939 0
force Pt  -0.000546444789144   0.000495810441899  -0.000197780027880 0
force Pt  -0.000546647282121  -0.000501694807794  -0.000197852715216 0
force C  -0.003193556453923  -0.000002216762588  -0.041680993721118 1  Linear 0 0 1
force O   0.002208648646504  -0.000000484170253   0.108682918116242 1  Linear 0 0 1

# Energy components:
   A_diel =       -0.0072064163027437
   Eewald =    14495.4210278044211009
       EH =    17136.6433210119976138
     Eloc =   -35003.4961727063127910
      Enl =      -30.6695700039852106
     EvdW =       -0.7190374134754518
      Exc =     -915.9342311299913035
 Exc_core =      524.6228843703776192
       KE =      925.4714739194648701
-------------------------------------
     Etot =    -2868.6675105638050809
       TS =        0.0062535594056073
-------------------------------------
        F =    -2868.6737641232107308


Dumping 'jdft.fillings' ... done
Dumping 'jdft.wfns' ... done
Dumping 'jdft.fluidState' ... done
Dumping 'jdft.ionpos' ... done
Dumping 'jdft.lattice' ... done
Dumping 'jdft.eigenvals' ... done
Dumping 'jdft.eigStats' ... 
	eMin: -2.171748 at state 0 ( [ +0.000000 +0.000000 +0.000000 ] spin 1 )
	HOMO: -0.187191 at state 14 ( [ +0.200000 +0.000000 +0.000000 ] spin -1 )
	mu  : -0.187075
	LUMO: -0.187040 at state 0 ( [ +0.000000 +0.000000 +0.000000 ] spin 1 )
	eMax: +0.111523 at state 18 ( [ +0.400000 +0.000000 +0.000000 ] spin -1 )
	HOMO-LUMO gap: +0.000152
	Optical gap  : +0.000362 at state 15 ( [ +0.200000 +0.250000 +0.000000 ] spin -1 )
Dumping 'jdft.Ecomponents' ... done
IonicMinimize: Iter:   0  F: -2868.673764123210731  |grad|_K:  8.231e-02  t[s]:   6900.27

#--- Lowdin population analysis ---
# oxidation-state Pt -0.045 -0.064 -0.049 -0.045 +0.004 +0.007 +0.009 -0.013 +0.025 +0.025 +0.026 +0.026 -0.002 -0.002 -0.002 -0.002 +0.009 +0.001 +0.007 +0.008 +0.077 +0.077 +0.076 +0.071 +0.009 +0.009 +0.009 +0.009 -0.043 -0.043 -0.043 -0.043
# magnetic-moments Pt +0.000 +0.000 +0.000 +0.000 +0.000 +0.000 +0.000 +0.000 +0.000 +0.000 +0.000 +0.000 +0.000 +0.000 +0.000 +0.000 +0.000 +0.000 +0.000 +0.000 +0.000 +0.000 +0.000 +0.000 +0.000 +0.000 +0.000 +0.000 +0.000 +0.000 +0.000 +0.000
# oxidation-state C +0.435
# magnetic-moments C -0.000
# oxidation-state O -0.101
# magnetic-moments O +0.000


Computing DFT-D3 correction:
# coordination-number Pt 8.696 8.658 9.678 8.659 9.490 9.490 9.490 9.491 6.511 6.511 6.514 6.514 9.420 9.420 9.420 9.420 9.418 9.418 9.418 9.418 5.947 5.947 5.947 5.947 9.491 9.491 9.491 9.491 8.656 8.656 8.656 8.656
# coordination-number C 4.202
# coordination-number O 1.141
# diagonal-C6 Pt 336.87 336.87 336.87 336.87 336.87 336.87 336.87 336.87 336.87 336.87 336.87 336.87 336.87 336.87 336.87 336.87 336.87 336.87 336.87 336.87 336.87 336.87 336.87 336.87 336.87 336.87 336.87 336.87 336.87 336.87 336.87 336.87
# diagonal-C6 C 18.23
# diagonal-C6 O 12.68
EvdW_6 =   -0.272211
EvdW_8 =   -0.446897

-------- Electronic minimization -----------
	Linear fluid (dielectric constant: 78.4, screening length: 8.12261 Bohr) occupying 0.427435 of unit cell:	Completed after 22 iterations at t[s]:   6926.23
	FillingsUpdate:  mu: -0.178178594  nElectrons: 522.000000  magneticMoment: [ Abs: 0.00056  Tot: +0.00053 ]
ElecMinimize: Iter:   0  F: -2868.579744090596250  |grad|_K:  3.127e-05  alpha:  1.000e+00
	Linear fluid (dielectric constant: 78.4, screening length: 8.12261 Bohr) occupying 0.428591 of unit cell:	Completed after 24 iterations at t[s]:   6979.03
	Linear fluid (dielectric constant: 78.4, screening length: 8.12261 Bohr) occupying 0.427405 of unit cell:	Completed after 24 iterations at t[s]:   6999.56
	FillingsUpdate:  mu: -0.183335242  nElectrons: 522.000000  magneticMoment: [ Abs: 0.00056  Tot: +0.00053 ]
	SubspaceRotationAdjust: set factor to 0.0757
ElecMinimize: Iter:   1  F: -2868.664046701409916  |grad|_K:  1.256e-05  alpha:  3.665e-01  linmin:  7.537e-03  t[s]:   7023.10
	Linear fluid (dielectric constant: 78.4, screening length: 8.12261 Bohr) occupying 0.427711 of unit cell:	Completed after 23 iterations at t[s]:   7048.70
	Linear fluid (dielectric constant: 78.4, screening length: 8.12261 Bohr) occupying 0.427285 of unit cell:	Completed after 20 iterations at t[s]:   7068.97
	FillingsUpdate:  mu: -0.184030577  nElectrons: 522.000000  magneticMoment: [ Abs: 0.00056  Tot: +0.00053 ]
	SubspaceRotationAdjust: set factor to 0.0419
ElecMinimize: Iter:   2  F: -2868.670003312392055  |grad|_K:  6.492e-06  alpha:  1.601e-01  linmin:  2.126e-04  t[s]:   7092.39
	Linear fluid (dielectric constant: 78.4, screening length: 8.12261 Bohr) occupying 0.427227 of unit cell:	Completed after 18 iterations at t[s]:   7117.46
	Linear fluid (dielectric constant: 78.4, screening length: 8.12261 Bohr) occupying 0.427186 of unit cell:	Completed after 17 iterations at t[s]:   7136.80
	FillingsUpdate:  mu: -0.186598295  nElectrons: 522.000000  magneticMoment: [ Abs: 0.00056  Tot: +0.00053 ]
	SubspaceRotationAdjust: set factor to 0.0514
ElecMinimize: Iter:   3  F: -2868.672791869425055  |grad|_K:  3.131e-06  alpha:  2.759e-01  linmin:  8.584e-05  t[s]:   7160.27
[...]
	Linear fluid (dielectric constant: 78.4, screening length: 8.12261 Bohr) occupying 0.423835 of unit cell:	Completed after 0 iterations at t[s]:  28349.81
	FillingsUpdate:  mu: -0.188877311  nElectrons: 522.000000  magneticMoment: [ Abs: 0.00191  Tot: +0.00180 ]
	SubspaceRotationAdjust: set factor to 0.0451
ElecMinimize: Iter:  12  F: -2868.689153450840877  |grad|_K:  2.541e-08  alpha:  5.527e-01  linmin:  2.467e-04  t[s]:  28373.31
	Linear fluid (dielectric constant: 78.4, screening length: 8.12261 Bohr) occupying 0.423833 of unit cell:	Completed after 2 iterations at t[s]:  28395.77
	Linear fluid (dielectric constant: 78.4, screening length: 8.12261 Bohr) occupying 0.423833 of unit cell:	Completed after 0 iterations at t[s]:  28412.22
	FillingsUpdate:  mu: -0.188875380  nElectrons: 522.000000  magneticMoment: [ Abs: 0.00191  Tot: +0.00181 ]
	SubspaceRotationAdjust: set factor to 0.0445
ElecMinimize: Iter:  13  F: -2868.689153522495872  |grad|_K:  2.362e-08  alpha:  4.663e-01  linmin:  5.073e-04  t[s]:  28435.79
	Linear fluid (dielectric constant: 78.4, screening length: 8.12261 Bohr) occupying 0.423832 of unit cell:	Completed after 2 iterations at t[s]:  28458.43
	Linear fluid (dielectric constant: 78.4, screening length: 8.12261 Bohr) occupying 0.423832 of unit cell:	Completed after 0 iterations at t[s]:  28474.90
	FillingsUpdate:  mu: -0.188879754  nElectrons: 522.000000  magneticMoment: [ Abs: 0.00192  Tot: +0.00181 ]
	SubspaceRotationAdjust: set factor to 0.0527
ElecMinimize: Iter:  14  F: -2868.689153582515701  |grad|_K:  1.905e-08  alpha:  4.582e-01  linmin: -1.002e-03  t[s]:  28498.60
ElecMinimize: Converged (|Delta F|<1.000000e-07 for 2 iters).
Setting wave functions to eigenvectors of Hamiltonian
Converging empty states (this may take a while): |deigs|: 2.288e-09

Computing DFT-D3 correction:
# coordination-number Pt 8.681 8.657 9.635 8.659 9.490 9.490 9.490 9.491 6.393 6.393 6.395 6.395 9.419 9.419 9.419 9.419 9.418 9.418 9.418 9.418 5.947 5.947 5.947 5.947 9.491 9.491 9.491 9.491 8.656 8.656 8.656 8.656
# coordination-number C 3.725
# coordination-number O 1.083
# diagonal-C6 Pt 336.87 336.87 336.87 336.87 336.87 336.87 336.87 336.87 336.87 336.87 336.87 336.87 336.87 336.87 336.87 336.87 336.87 336.87 336.87 336.87 336.87 336.87 336.87 336.87 336.87 336.87 336.87 336.87 336.87 336.87 336.87 336.87
# diagonal-C6 C 19.14
# diagonal-C6 O 12.74
EvdW_6 =   -0.272066
EvdW_8 =   -0.446736
IonicMinimize: 	Wolfe criterion not satisfied: alpha: 1  (E-E0)/|gdotd0|: 0.365039  gdotd/gdotd0: -0.667935 (taking cubic step)

Computing DFT-D3 correction:
# coordination-number Pt 8.681 8.657 9.634 8.659 9.490 9.490 9.490 9.491 6.392 6.392 6.394 6.394 9.419 9.419 9.419 9.419 9.418 9.418 9.418 9.418 5.947 5.947 5.947 5.947 9.491 9.491 9.491 9.491 8.656 8.656 8.656 8.656
# coordination-number C 3.719
# coordination-number O 1.083
# diagonal-C6 Pt 336.87 336.87 336.87 336.87 336.87 336.87 336.87 336.87 336.87 336.87 336.87 336.87 336.87 336.87 336.87 336.87 336.87 336.87 336.87 336.87 336.87 336.87 336.87 336.87 336.87 336.87 336.87 336.87 336.87 336.87 336.87 336.87
# diagonal-C6 C 19.17
# diagonal-C6 O 12.74
EvdW_6 =   -0.272068
EvdW_8 =   -0.446736

-------- Electronic minimization -----------
	Linear fluid (dielectric constant: 78.4, screening length: 8.12261 Bohr) occupying 0.423793 of unit cell:	Completed after 9 iterations at t[s]:  28589.84
	FillingsUpdate:  mu: -0.189219140  nElectrons: 522.000000  magneticMoment: [ Abs: 0.00198  Tot: +0.00187 ]
ElecMinimize: Iter:   0  F: -2868.689147291032896  |grad|_K:  2.355e-07  alpha:  1.000e+00
	Linear fluid (dielectric constant: 78.4, screening length: 8.12261 Bohr) occupying 0.423783 of unit cell:	Completed after 15 iterations at t[s]:  28641.63
	Linear fluid (dielectric constant: 78.4, screening length: 8.12261 Bohr) occupying 0.423791 of unit cell:	Completed after 13 iterations at t[s]:  28660.56
	FillingsUpdate:  mu: -0.188989079  nElectrons: 522.000000  magneticMoment: [ Abs: 0.00198  Tot: +0.00187 ]
	SubspaceRotationAdjust: set factor to 0.0347
ElecMinimize: Iter:   1  F: -2868.689150623416026  |grad|_K:  1.140e-07  alpha:  2.524e-01  linmin:  6.266e-04  t[s]:  28683.96
	Linear fluid (dielectric constant: 78.4, screening length: 8.12261 Bohr) occupying 0.423792 of unit cell:	Completed after 7 iterations at t[s]:  28707.09
	Linear fluid (dielectric constant: 78.4, screening length: 8.12261 Bohr) occupying 0.423792 of unit cell:	Completed after 2 iterations at t[s]:  28723.98
	FillingsUpdate:  mu: -0.188960958  nElectrons: 522.000000  magneticMoment: [ Abs: 0.00198  Tot: +0.00187 ]
	SubspaceRotationAdjust: set factor to 0.0322
ElecMinimize: Iter:   2  F: -2868.689151577570101  |grad|_K:  5.255e-08  alpha:  3.067e-01  linmin: -1.148e-03  t[s]:  28747.46
	Linear fluid (dielectric constant: 78.4, screening length: 8.12261 Bohr) occupying 0.423793 of unit cell:	Completed after 2 iterations at t[s]:  28769.90
	Linear fluid (dielectric constant: 78.4, screening length: 8.12261 Bohr) occupying 0.423793 of unit cell:	Completed after 2 iterations at t[s]:  28786.86
	FillingsUpdate:  mu: -0.188989076  nElectrons: 522.000000  magneticMoment: [ Abs: 0.00198  Tot: +0.00188 ]
	SubspaceRotationAdjust: set factor to 0.0432
ElecMinimize: Iter:   3  F: -2868.689151880752433  |grad|_K:  3.833e-08  alpha:  4.548e-01  linmin:  2.444e-04  t[s]:  28810.61
	Linear fluid (dielectric constant: 78.4, screening length: 8.12261 Bohr) occupying 0.423793 of unit cell:	Completed after 3 iterations at t[s]:  28833.29
	Linear fluid (dielectric constant: 78.4, screening length: 8.12261 Bohr) occupying 0.423793 of unit cell:	Completed after 3 iterations at t[s]:  28850.54
	FillingsUpdate:  mu: -0.188974508  nElectrons: 522.000000  magneticMoment: [ Abs: 0.00198  Tot: +0.00188 ]
	SubspaceRotationAdjust: set factor to 0.0496
ElecMinimize: Iter:   4  F: -2868.689152076341543  |grad|_K:  3.888e-08  alpha:  5.649e-01  linmin:  8.149e-04  t[s]:  28874.01
	Linear fluid (dielectric constant: 78.4, screening length: 8.12261 Bohr) occupying 0.423795 of unit cell:	Completed after 3 iterations at t[s]:  28896.65
	Linear fluid (dielectric constant: 78.4, screening length: 8.12261 Bohr) occupying 0.423796 of unit cell:	Completed after 3 iterations at t[s]:  28913.84
	FillingsUpdate:  mu: -0.188909600  nElectrons: 522.000000  magneticMoment: [ Abs: 0.00199  Tot: +0.00188 ]
	SubspaceRotationAdjust: set factor to 0.0514
ElecMinimize: Iter:   5  F: -2868.689152294251926  |grad|_K:  4.871e-08  alpha:  6.231e-01  linmin:  3.157e-04  t[s]:  28937.47
	Linear fluid (dielectric constant: 78.4, screening length: 8.12261 Bohr) occupying 0.423798 of unit cell:	Completed after 2 iterations at t[s]:  28959.97
	Linear fluid (dielectric constant: 78.4, screening length: 8.12261 Bohr) occupying 0.423798 of unit cell:	Completed after 2 iterations at t[s]:  28976.93
	FillingsUpdate:  mu: -0.188925811  nElectrons: 522.000000  magneticMoment: [ Abs: 0.00200  Tot: +0.00189 ]
	SubspaceRotationAdjust: set factor to 0.056
ElecMinimize: Iter:   6  F: -2868.689152671116972  |grad|_K:  5.214e-08  alpha:  6.784e-01  linmin:  6.203e-05  t[s]:  29000.48
	Linear fluid (dielectric constant: 78.4, screening length: 8.12261 Bohr) occupying 0.423801 of unit cell:	Completed after 7 iterations at t[s]:  29023.67
	Linear fluid (dielectric constant: 78.4, screening length: 8.12261 Bohr) occupying 0.423801 of unit cell:	Completed after 0 iterations at t[s]:  29040.19
	FillingsUpdate:  mu: -0.188892155  nElectrons: 522.000000  magneticMoment: [ Abs: 0.00201  Tot: +0.00190 ]
	SubspaceRotationAdjust: set factor to 0.0607
ElecMinimize: Iter:   7  F: -2868.689153099216128  |grad|_K:  5.900e-08  alpha:  6.582e-01  linmin: -9.551e-05  t[s]:  29063.73
	Linear fluid (dielectric constant: 78.4, screening length: 8.12261 Bohr) occupying 0.423805 of unit cell:	Completed after 8 iterations at t[s]:  29087.13
	Linear fluid (dielectric constant: 78.4, screening length: 8.12261 Bohr) occupying 0.423803 of unit cell:	Completed after 5 iterations at t[s]:  29104.68
	FillingsUpdate:  mu: -0.188863728  nElectrons: 522.000000  magneticMoment: [ Abs: 0.00202  Tot: +0.00191 ]
	SubspaceRotationAdjust: set factor to 0.0482
ElecMinimize: Iter:   8  F: -2868.689153423349580  |grad|_K:  5.841e-08  alpha:  3.846e-01  linmin:  1.165e-04  t[s]:  29128.16
	Linear fluid (dielectric constant: 78.4, screening length: 8.12261 Bohr) occupying 0.423803 of unit cell:	Completed after 6 iterations at t[s]:  29151.28
	Linear fluid (dielectric constant: 78.4, screening length: 8.12261 Bohr) occupying 0.423803 of unit cell:	Completed after 0 iterations at t[s]:  29167.79
	FillingsUpdate:  mu: -0.188881808  nElectrons: 522.000000  magneticMoment: [ Abs: 0.00204  Tot: +0.00193 ]
	SubspaceRotationAdjust: set factor to 0.0515
ElecMinimize: Iter:   9  F: -2868.689153756371979  |grad|_K:  4.052e-08  alpha:  4.084e-01  linmin: -4.044e-04  t[s]:  29191.39
	Linear fluid (dielectric constant: 78.4, screening length: 8.12261 Bohr) occupying 0.423803 of unit cell:	Completed after 2 iterations at t[s]:  29213.92
	Linear fluid (dielectric constant: 78.4, screening length: 8.12261 Bohr) occupying 0.423803 of unit cell:	Completed after 0 iterations at t[s]:  29231.16
	FillingsUpdate:  mu: -0.188876515  nElectrons: 522.000000  magneticMoment: [ Abs: 0.00205  Tot: +0.00193 ]
	SubspaceRotationAdjust: set factor to 0.057
ElecMinimize: Iter:  10  F: -2868.689153954676840  |grad|_K:  3.155e-08  alpha:  4.857e-01  linmin: -9.247e-04  t[s]:  29254.73
	Linear fluid (dielectric constant: 78.4, screening length: 8.12261 Bohr) occupying 0.423802 of unit cell:	Completed after 3 iterations at t[s]:  29277.36
	Linear fluid (dielectric constant: 78.4, screening length: 8.12261 Bohr) occupying 0.423802 of unit cell:	Completed after 0 iterations at t[s]:  29293.86
	FillingsUpdate:  mu: -0.188874899  nElectrons: 522.000000  magneticMoment: [ Abs: 0.00205  Tot: +0.00194 ]
	SubspaceRotationAdjust: set factor to 0.053
ElecMinimize: Iter:  11  F: -2868.689154072409565  |grad|_K:  2.694e-08  alpha:  4.749e-01  linmin:  1.126e-03  t[s]:  29317.36
	Linear fluid (dielectric constant: 78.4, screening length: 8.12261 Bohr) occupying 0.423801 of unit cell:	Completed after 2 iterations at t[s]:  29339.77
	Linear fluid (dielectric constant: 78.4, screening length: 8.12261 Bohr) occupying 0.423801 of unit cell:	Completed after 0 iterations at t[s]:  29356.27
	FillingsUpdate:  mu: -0.188890484  nElectrons: 522.000000  magneticMoment: [ Abs: 0.00206  Tot: +0.00195 ]
	SubspaceRotationAdjust: set factor to 0.063
ElecMinimize: Iter:  12  F: -2868.689154145020439  |grad|_K:  1.940e-08  alpha:  4.341e-01  linmin: -7.923e-05  t[s]:  29379.81
	Linear fluid (dielectric constant: 78.4, screening length: 8.12261 Bohr) occupying 0.423800 of unit cell:	Completed after 2 iterations at t[s]:  29402.31
	Linear fluid (dielectric constant: 78.4, screening length: 8.12261 Bohr) occupying 0.423800 of unit cell:	Completed after 0 iterations at t[s]:  29418.83
	FillingsUpdate:  mu: -0.188895889  nElectrons: 522.000000  magneticMoment: [ Abs: 0.00206  Tot: +0.00195 ]
	SubspaceRotationAdjust: set factor to 0.0729
ElecMinimize: Iter:  13  F: -2868.689154191238686  |grad|_K:  1.509e-08  alpha:  5.036e-01  linmin: -1.486e-03  t[s]:  29442.22
ElecMinimize: Converged (|Delta F|<1.000000e-07 for 2 iters).
Setting wave functions to eigenvectors of Hamiltonian
Converging empty states (this may take a while): |deigs|: 2.615e-09

Computing DFT-D3 correction:
# coordination-number Pt 8.681 8.657 9.634 8.659 9.490 9.490 9.490 9.491 6.392 6.392 6.394 6.394 9.419 9.419 9.419 9.419 9.418 9.418 9.418 9.418 5.947 5.947 5.947 5.947 9.491 9.491 9.491 9.491 8.656 8.656 8.656 8.656
# coordination-number C 3.719
# coordination-number O 1.083
# diagonal-C6 Pt 336.87 336.87 336.87 336.87 336.87 336.87 336.87 336.87 336.87 336.87 336.87 336.87 336.87 336.87 336.87 336.87 336.87 336.87 336.87 336.87 336.87 336.87 336.87 336.87 336.87 336.87 336.87 336.87 336.87 336.87 336.87 336.87
# diagonal-C6 C 19.17
# diagonal-C6 O 12.74
EvdW_6 =   -0.272068
EvdW_8 =   -0.446736

# Ionic positions in cartesian coordinates:
ion Pt   0.000010000000000   7.399025000000001  48.561914000000009 0
ion Pt   0.000010000000000  14.798198000000001  48.561914000000009 0
ion Pt   5.232006000000000   7.399025000000001  48.561914000000009 0
ion Pt   5.232006000000000  14.798198000000001  48.561914000000009 0
ion Pt   0.000000000000000   0.000074000000000  43.164379000000004 0
ion Pt   0.000000000000000   7.399232000000001  43.164379000000004 0
ion Pt   5.231996000000000   0.000074000000000  43.164379000000004 0
ion Pt   5.231996000000000   7.399232000000001  43.164379000000004 0
ion Pt   2.615956000000000   3.699298000000001  50.876444000000006 0
ion Pt   2.615956000000000  11.098456000000002  50.876444000000006 0
ion Pt   7.847942000000001   3.699298000000001  50.876444000000006 0
ion Pt   7.847942000000001  11.098456000000002  50.876444000000006 0
ion Pt   2.616040000000000   3.699683000000001  45.754477999999999 0
ion Pt   2.616040000000000  11.098841000000002  45.754477999999999 0
ion Pt   7.848036000000000   3.699683000000001  45.754477999999999 0
ion Pt   7.848036000000000  11.098841000000002  45.754477999999999 0
ion Pt   5.231944000000000   0.000000000000000  37.958072999999999 0
ion Pt   5.231944000000000   7.399158000000001  37.958072999999999 0
ion Pt  10.463950000000001   0.000000000000000  37.958072999999999 0
ion Pt  10.463950000000001   7.399158000000001  37.958072999999999 0
ion Pt   0.000031000000000   0.000118000000000  32.835321000000000 0
ion Pt   0.000031000000000   7.399277000000001  32.835321000000000 0
ion Pt   5.232038000000001   0.000118000000000  32.835321000000000 0
ion Pt   5.232038000000001   7.399277000000001  32.835321000000000 0
ion Pt   2.615946000000000   3.699624000000000  40.547072999999997 0
ion Pt   2.615946000000000  11.098782000000002  40.547072999999997 0
ion Pt   7.847942000000001   3.699624000000000  40.547072999999997 0
ion Pt   7.847942000000001  11.098782000000002  40.547072999999997 0
ion Pt   2.616050000000000   3.699653000000000  35.149956000000003 0
ion Pt   2.616050000000000  11.098796999999999  35.149956000000003 0
ion Pt   7.848046000000001   3.699653000000000  35.149956000000003 0
ion Pt   7.848046000000001  11.098796999999999  35.149956000000003 0
ion C   5.231954000000000   7.398877000000001  52.454887756337818 1  Linear 0 0 1
ion O   5.292038000000001   7.398877000000001   2.378364818345756 1  Linear 0 0 1

# Forces in Cartesian coordinates:
force Pt  -0.000074398222408   0.000002676087283  -0.006035325900107 0
force Pt   0.000054416370512   0.000000128644032   0.002131655550630 0
force Pt   0.000174010836506  -0.000001851721460  -0.001129501339189 0
force Pt   0.000008475821306  -0.000001043666199  -0.001412867911575 0
force Pt   0.000034104391155   0.000001775636344  -0.000792977345780 0
force Pt   0.000029666821671   0.000003016732013   0.000219173860124 0
force Pt  -0.000029187059948   0.000001425597970   0.000265613008401 0
force Pt  -0.000039304002413   0.000000092341470   0.008003950845475 0
force Pt  -0.006372263887288  -0.005653488117605   0.004273191875069 0
force Pt  -0.006378557987624   0.005650690938151   0.004261371284566 0
force Pt   0.006788342711867  -0.006671392545377   0.003681391810451 0
force Pt   0.006793229657639   0.006668620450226   0.003670379339115 0
force Pt  -0.000696065330943  -0.001643090002667  -0.003729056848500 0
force Pt  -0.000694828590812   0.001633440955545  -0.003725771247348 0
force Pt   0.000695836026238  -0.001593394587145  -0.003651737051410 0
force Pt   0.000695257954551   0.001583823504363  -0.003648889956185 0
force Pt   0.000005788404795   0.000002285842897   0.000893377457157 0
force Pt  -0.000018960372747   0.000002739882890  -0.000257497593038 0
force Pt   0.000005318700453   0.000005559053250   0.000409923622085 0
force Pt  -0.000006478871443   0.000005324692344   0.000124355072004 0
force Pt   0.000025170964081   0.000008893133793  -0.000370221932923 0
force Pt   0.000006534041622   0.000008818203300   0.000696276689048 0
force Pt  -0.000011449447270   0.000007849805853   0.000051940879820 0
force Pt  -0.000027254195066   0.000007887846817  -0.002391532887479 0
force Pt   0.000175010897444   0.000123087973685  -0.000213937048010 0
force Pt   0.000175605558787  -0.000130104729172  -0.000213673200129 0
force Pt  -0.000175592197178   0.000083940256964  -0.000167776025178 0
force Pt  -0.000176253071347  -0.000091450058476  -0.000167260042770 0
force Pt   0.000557237891822   0.000223437968303  -0.000147012307926 0
force Pt   0.000557508121940  -0.000229406097040  -0.000146951844087 0
force Pt  -0.000555228806374   0.000231226839300  -0.000139256811117 0
force Pt  -0.000555495426731  -0.000237437133028  -0.000139022381090 0
force C  -0.000435380285949  -0.000000629773223   0.000085442904608 1  Linear 0 0 1
force O  -0.000527679197504   0.000007753814903   0.000060332205427 1  Linear 0 0 1

# Energy components:
   A_diel =       -0.0073622194873642
   Eewald =    14443.9211253930734529
       EH =    17084.5739247503588558
     Eloc =   -34899.6442673805140657
      Enl =      -30.7403428722708405
     EvdW =       -0.7188044821729018
      Exc =     -915.7926280959694623
 Exc_core =      524.6228727248927726
       KE =      925.1026654205044224
-------------------------------------
     Etot =    -2868.6828167615849452
       TS =        0.0063374296535599
-------------------------------------
        F =    -2868.6891541912386856


Dumping 'jdft.fillings' ... done
Dumping 'jdft.wfns' ... done
Dumping 'jdft.fluidState' ... done
Dumping 'jdft.ionpos' ... done
Dumping 'jdft.lattice' ... done
Dumping 'jdft.eigenvals' ... done
Dumping 'jdft.eigStats' ... 
	eMin: -2.153859 at state 0 ( [ +0.000000 +0.000000 +0.000000 ] spin 1 )
	HOMO: -0.189032 at state 15 ( [ +0.200000 +0.250000 +0.000000 ] spin -1 )
	mu  : -0.188896
	LUMO: -0.188816 at state 0 ( [ +0.000000 +0.000000 +0.000000 ] spin 1 )
	eMax: +0.110605 at state 18 ( [ +0.400000 +0.000000 +0.000000 ] spin -1 )
	HOMO-LUMO gap: +0.000216
	Optical gap  : +0.000340 at state 15 ( [ +0.200000 +0.250000 +0.000000 ] spin -1 )
Dumping 'jdft.Ecomponents' ... done
IonicMinimize: Iter:  11  F: -2868.689154191238686  |grad|_K:  7.396e-05  alpha:  2.456e-01  linmin:  4.305e-03  t[s]:  29506.43
IonicMinimize: Converged (|grad|_K<1.000000e-04).

#--- Lowdin population analysis ---
# oxidation-state Pt -0.034 -0.059 -0.066 -0.044 +0.006 +0.008 +0.010 -0.002 +0.026 +0.026 +0.026 +0.026 +0.002 +0.002 +0.002 +0.002 +0.008 +0.002 +0.007 +0.007 +0.079 +0.081 +0.078 +0.075 +0.009 +0.009 +0.009 +0.009 -0.043 -0.043 -0.043 -0.043
# magnetic-moments Pt +0.000 +0.000 +0.000 +0.000 +0.000 +0.000 +0.000 +0.000 +0.000 +0.000 +0.000 +0.000 +0.000 +0.000 +0.000 +0.000 +0.000 +0.000 +0.000 +0.000 +0.000 +0.000 +0.000 +0.000 +0.000 +0.000 +0.000 +0.000 +0.000 +0.000 +0.000 +0.000
# oxidation-state C +0.413
# magnetic-moments C -0.000
# oxidation-state O -0.128
# magnetic-moments O +0.000


Dumping 'jdft.n_up' ... done
Dumping 'jdft.n_dn' ... done
Dumping 'jdft.tau_up' ... done
Dumping 'jdft.tau_dn' ... done
Dumping 'jdft.eigenvals' ... done
Dumping 'jdft.eigStats' ... 
	eMin: -2.153859 at state 0 ( [ +0.000000 +0.000000 +0.000000 ] spin 1 )
	HOMO: -0.189032 at state 15 ( [ +0.200000 +0.250000 +0.000000 ] spin -1 )
	mu  : -0.188896
	LUMO: -0.188816 at state 0 ( [ +0.000000 +0.000000 +0.000000 ] spin 1 )
	eMax: +0.110605 at state 18 ( [ +0.400000 +0.000000 +0.000000 ] spin -1 )
	HOMO-LUMO gap: +0.000216
	Optical gap  : +0.000340 at state 15 ( [ +0.200000 +0.250000 +0.000000 ] spin -1 )
Dumping 'jdft.kPts' ... done
Dumping 'jdft.kMap' ... done
Dumping 'jdft.dosUp' ... done.
Dumping 'jdft.dosDn' ... done.
End date and time: Thu Feb 17 12:13:36 2022  (Duration: 0-8:12:24.24)
Done!
