
*************** JDFTx 1.6.0  ***************

Start date and time: Mon Dec  6 16:24:16 2021
Executable /projects/musgravc/apps/jdftx-1.6.1/build/jdftx with command-line: -i in
Running on hosts (process indices):  shas0607.rc.int.colorado.edu (0-23)
Divided in process groups (process indices):  0 (0)  1 (1)  2 (2)  3 (3)  4 (4)  5 (5)  6 (6)  7 (7)  8 (8)  9 (9)  10 (10)  11 (11)  12 (12)  13 (13)  14 (14)  15 (15)  16 (16)  17 (17)  18 (18)  19 (19)  20 (20)  21 (21)  22 (22)  23 (23)
Resource initialization completed at t[s]:      0.01
Run totals: 24 processes, 24 threads, 0 GPUs


Input parsed successfully to the following command list (including defaults):

basis kpoint-dependent
converge-empty-states yes
coords-type Cartesian
core-overlap-check none
coulomb-interaction Periodic
davidson-band-ratio 1.1
density-of-states Etol 1.000000e-06 Esigma 1.000000e-03 \
		Complete \
	Total \
	OrthoOrbital Pt 1   s \
	OrthoOrbital Pt 1   p \
	OrthoOrbital Pt 1   px \
	OrthoOrbital Pt 1   py \
	OrthoOrbital Pt 1   pz \
	OrthoOrbital Pt 1   d \
	OrthoOrbital Pt 1   dxy \
	OrthoOrbital Pt 1   dyz \
	OrthoOrbital Pt 1   dz2 \
	OrthoOrbital Pt 1   dxz \
	OrthoOrbital Pt 1   dx2-y2 \
	OrthoOrbital Pt 2   s \
	OrthoOrbital Pt 2   p \
	OrthoOrbital Pt 2   px \
	OrthoOrbital Pt 2   py \
	OrthoOrbital Pt 2   pz \
	OrthoOrbital Pt 2   d \
	OrthoOrbital Pt 2   dxy \
	OrthoOrbital Pt 2   dyz \
	OrthoOrbital Pt 2   dz2 \
	OrthoOrbital Pt 2   dxz \
	OrthoOrbital Pt 2   dx2-y2 \
	OrthoOrbital Pt 3   s \
	OrthoOrbital Pt 3   p \
	OrthoOrbital Pt 3   px \
	OrthoOrbital Pt 3   py \
	OrthoOrbital Pt 3   pz \
	OrthoOrbital Pt 3   d \
	OrthoOrbital Pt 3   dxy \
	OrthoOrbital Pt 3   dyz \
	OrthoOrbital Pt 3   dz2 \
	OrthoOrbital Pt 3   dxz \
	OrthoOrbital Pt 3   dx2-y2 \
	OrthoOrbital Pt 4   s \
	OrthoOrbital Pt 4   p \
	OrthoOrbital Pt 4   px \
	OrthoOrbital Pt 4   py \
	OrthoOrbital Pt 4   pz \
	OrthoOrbital Pt 4   d \
	OrthoOrbital Pt 4   dxy \
	OrthoOrbital Pt 4   dyz \
	OrthoOrbital Pt 4   dz2 \
	OrthoOrbital Pt 4   dxz \
	OrthoOrbital Pt 4   dx2-y2 \
	OrthoOrbital Pt 5   s \
	OrthoOrbital Pt 5   p \
	OrthoOrbital Pt 5   px \
	OrthoOrbital Pt 5   py \
	OrthoOrbital Pt 5   pz \
	OrthoOrbital Pt 5   d \
	OrthoOrbital Pt 5   dxy \
	OrthoOrbital Pt 5   dyz \
	OrthoOrbital Pt 5   dz2 \
	OrthoOrbital Pt 5   dxz \
	OrthoOrbital Pt 5   dx2-y2 \
	OrthoOrbital Pt 6   s \
	OrthoOrbital Pt 6   p \
	OrthoOrbital Pt 6   px \
	OrthoOrbital Pt 6   py \
	OrthoOrbital Pt 6   pz \
	OrthoOrbital Pt 6   d \
	OrthoOrbital Pt 6   dxy \
	OrthoOrbital Pt 6   dyz \
	OrthoOrbital Pt 6   dz2 \
	OrthoOrbital Pt 6   dxz \
	OrthoOrbital Pt 6   dx2-y2 \
	OrthoOrbital Pt 7   s \
	OrthoOrbital Pt 7   p \
	OrthoOrbital Pt 7   px \
	OrthoOrbital Pt 7   py \
	OrthoOrbital Pt 7   pz \
	OrthoOrbital Pt 7   d \
	OrthoOrbital Pt 7   dxy \
	OrthoOrbital Pt 7   dyz \
	OrthoOrbital Pt 7   dz2 \
	OrthoOrbital Pt 7   dxz \
	OrthoOrbital Pt 7   dx2-y2 \
	OrthoOrbital Pt 8   s \
	OrthoOrbital Pt 8   p \
	OrthoOrbital Pt 8   px \
	OrthoOrbital Pt 8   py \
	OrthoOrbital Pt 8   pz \
	OrthoOrbital Pt 8   d \
	OrthoOrbital Pt 8   dxy \
	OrthoOrbital Pt 8   dyz \
	OrthoOrbital Pt 8   dz2 \
	OrthoOrbital Pt 8   dxz \
	OrthoOrbital Pt 8   dx2-y2 \
	OrthoOrbital Pt 9   s \
	OrthoOrbital Pt 9   p \
	OrthoOrbital Pt 9   px \
	OrthoOrbital Pt 9   py \
	OrthoOrbital Pt 9   pz \
	OrthoOrbital Pt 9   d \
	OrthoOrbital Pt 9   dxy \
	OrthoOrbital Pt 9   dyz \
	OrthoOrbital Pt 9   dz2 \
	OrthoOrbital Pt 9   dxz \
	OrthoOrbital Pt 9   dx2-y2 \
	OrthoOrbital Pt 10   s \
	OrthoOrbital Pt 10   p \
	OrthoOrbital Pt 10   px \
	OrthoOrbital Pt 10   py \
	OrthoOrbital Pt 10   pz \
	OrthoOrbital Pt 10   d \
	OrthoOrbital Pt 10   dxy \
	OrthoOrbital Pt 10   dyz \
	OrthoOrbital Pt 10   dz2 \
	OrthoOrbital Pt 10   dxz \
	OrthoOrbital Pt 10   dx2-y2 \
	OrthoOrbital Pt 11   s \
	OrthoOrbital Pt 11   p \
	OrthoOrbital Pt 11   px \
	OrthoOrbital Pt 11   py \
	OrthoOrbital Pt 11   pz \
	OrthoOrbital Pt 11   d \
	OrthoOrbital Pt 11   dxy \
	OrthoOrbital Pt 11   dyz \
	OrthoOrbital Pt 11   dz2 \
	OrthoOrbital Pt 11   dxz \
	OrthoOrbital Pt 11   dx2-y2 \
	OrthoOrbital Pt 12   s \
	OrthoOrbital Pt 12   p \
	OrthoOrbital Pt 12   px \
	OrthoOrbital Pt 12   py \
	OrthoOrbital Pt 12   pz \
	OrthoOrbital Pt 12   d \
	OrthoOrbital Pt 12   dxy \
	OrthoOrbital Pt 12   dyz \
	OrthoOrbital Pt 12   dz2 \
	OrthoOrbital Pt 12   dxz \
	OrthoOrbital Pt 12   dx2-y2 \
	OrthoOrbital Pt 13   s \
	OrthoOrbital Pt 13   p \
	OrthoOrbital Pt 13   px \
	OrthoOrbital Pt 13   py \
	OrthoOrbital Pt 13   pz \
	OrthoOrbital Pt 13   d \
	OrthoOrbital Pt 13   dxy \
	OrthoOrbital Pt 13   dyz \
	OrthoOrbital Pt 13   dz2 \
	OrthoOrbital Pt 13   dxz \
	OrthoOrbital Pt 13   dx2-y2 \
	OrthoOrbital Pt 14   s \
	OrthoOrbital Pt 14   p \
	OrthoOrbital Pt 14   px \
	OrthoOrbital Pt 14   py \
	OrthoOrbital Pt 14   pz \
	OrthoOrbital Pt 14   d \
	OrthoOrbital Pt 14   dxy \
	OrthoOrbital Pt 14   dyz \
	OrthoOrbital Pt 14   dz2 \
	OrthoOrbital Pt 14   dxz \
	OrthoOrbital Pt 14   dx2-y2 \
	OrthoOrbital Pt 15   s \
	OrthoOrbital Pt 15   p \
	OrthoOrbital Pt 15   px \
	OrthoOrbital Pt 15   py \
	OrthoOrbital Pt 15   pz \
	OrthoOrbital Pt 15   d \
	OrthoOrbital Pt 15   dxy \
	OrthoOrbital Pt 15   dyz \
	OrthoOrbital Pt 15   dz2 \
	OrthoOrbital Pt 15   dxz \
	OrthoOrbital Pt 15   dx2-y2 \
	OrthoOrbital Pt 16   s \
	OrthoOrbital Pt 16   p \
	OrthoOrbital Pt 16   px \
	OrthoOrbital Pt 16   py \
	OrthoOrbital Pt 16   pz \
	OrthoOrbital Pt 16   d \
	OrthoOrbital Pt 16   dxy \
	OrthoOrbital Pt 16   dyz \
	OrthoOrbital Pt 16   dz2 \
	OrthoOrbital Pt 16   dxz \
	OrthoOrbital Pt 16   dx2-y2 \
	OrthoOrbital Pt 17   s \
	OrthoOrbital Pt 17   p \
	OrthoOrbital Pt 17   px \
	OrthoOrbital Pt 17   py \
	OrthoOrbital Pt 17   pz \
	OrthoOrbital Pt 17   d \
	OrthoOrbital Pt 17   dxy \
	OrthoOrbital Pt 17   dyz \
	OrthoOrbital Pt 17   dz2 \
	OrthoOrbital Pt 17   dxz \
	OrthoOrbital Pt 17   dx2-y2 \
	OrthoOrbital Pt 18   s \
	OrthoOrbital Pt 18   p \
	OrthoOrbital Pt 18   px \
	OrthoOrbital Pt 18   py \
	OrthoOrbital Pt 18   pz \
	OrthoOrbital Pt 18   d \
	OrthoOrbital Pt 18   dxy \
	OrthoOrbital Pt 18   dyz \
	OrthoOrbital Pt 18   dz2 \
	OrthoOrbital Pt 18   dxz \
	OrthoOrbital Pt 18   dx2-y2 \
	OrthoOrbital Pt 19   s \
	OrthoOrbital Pt 19   p \
	OrthoOrbital Pt 19   px \
	OrthoOrbital Pt 19   py \
	OrthoOrbital Pt 19   pz \
	OrthoOrbital Pt 19   d \
	OrthoOrbital Pt 19   dxy \
	OrthoOrbital Pt 19   dyz \
	OrthoOrbital Pt 19   dz2 \
	OrthoOrbital Pt 19   dxz \
	OrthoOrbital Pt 19   dx2-y2 \
	OrthoOrbital Pt 20   s \
	OrthoOrbital Pt 20   p \
	OrthoOrbital Pt 20   px \
	OrthoOrbital Pt 20   py \
	OrthoOrbital Pt 20   pz \
	OrthoOrbital Pt 20   d \
	OrthoOrbital Pt 20   dxy \
	OrthoOrbital Pt 20   dyz \
	OrthoOrbital Pt 20   dz2 \
	OrthoOrbital Pt 20   dxz \
	OrthoOrbital Pt 20   dx2-y2 \
	OrthoOrbital Pt 21   s \
	OrthoOrbital Pt 21   p \
	OrthoOrbital Pt 21   px \
	OrthoOrbital Pt 21   py \
	OrthoOrbital Pt 21   pz \
	OrthoOrbital Pt 21   d \
	OrthoOrbital Pt 21   dxy \
	OrthoOrbital Pt 21   dyz \
	OrthoOrbital Pt 21   dz2 \
	OrthoOrbital Pt 21   dxz \
	OrthoOrbital Pt 21   dx2-y2 \
	OrthoOrbital Pt 22   s \
	OrthoOrbital Pt 22   p \
	OrthoOrbital Pt 22   px \
	OrthoOrbital Pt 22   py \
	OrthoOrbital Pt 22   pz \
	OrthoOrbital Pt 22   d \
	OrthoOrbital Pt 22   dxy \
	OrthoOrbital Pt 22   dyz \
	OrthoOrbital Pt 22   dz2 \
	OrthoOrbital Pt 22   dxz \
	OrthoOrbital Pt 22   dx2-y2 \
	OrthoOrbital Pt 23   s \
	OrthoOrbital Pt 23   p \
	OrthoOrbital Pt 23   px \
	OrthoOrbital Pt 23   py \
	OrthoOrbital Pt 23   pz \
	OrthoOrbital Pt 23   d \
	OrthoOrbital Pt 23   dxy \
	OrthoOrbital Pt 23   dyz \
	OrthoOrbital Pt 23   dz2 \
	OrthoOrbital Pt 23   dxz \
	OrthoOrbital Pt 23   dx2-y2 \
	OrthoOrbital Pt 24   s \
	OrthoOrbital Pt 24   p \
	OrthoOrbital Pt 24   px \
	OrthoOrbital Pt 24   py \
	OrthoOrbital Pt 24   pz \
	OrthoOrbital Pt 24   d \
	OrthoOrbital Pt 24   dxy \
	OrthoOrbital Pt 24   dyz \
	OrthoOrbital Pt 24   dz2 \
	OrthoOrbital Pt 24   dxz \
	OrthoOrbital Pt 24   dx2-y2 \
	OrthoOrbital Pt 25   s \
	OrthoOrbital Pt 25   p \
	OrthoOrbital Pt 25   px \
	OrthoOrbital Pt 25   py \
	OrthoOrbital Pt 25   pz \
	OrthoOrbital Pt 25   d \
	OrthoOrbital Pt 25   dxy \
	OrthoOrbital Pt 25   dyz \
	OrthoOrbital Pt 25   dz2 \
	OrthoOrbital Pt 25   dxz \
	OrthoOrbital Pt 25   dx2-y2 \
	OrthoOrbital Pt 26   s \
	OrthoOrbital Pt 26   p \
	OrthoOrbital Pt 26   px \
	OrthoOrbital Pt 26   py \
	OrthoOrbital Pt 26   pz \
	OrthoOrbital Pt 26   d \
	OrthoOrbital Pt 26   dxy \
	OrthoOrbital Pt 26   dyz \
	OrthoOrbital Pt 26   dz2 \
	OrthoOrbital Pt 26   dxz \
	OrthoOrbital Pt 26   dx2-y2 \
	OrthoOrbital Pt 27   s \
	OrthoOrbital Pt 27   p \
	OrthoOrbital Pt 27   px \
	OrthoOrbital Pt 27   py \
	OrthoOrbital Pt 27   pz \
	OrthoOrbital Pt 27   d \
	OrthoOrbital Pt 27   dxy \
	OrthoOrbital Pt 27   dyz \
	OrthoOrbital Pt 27   dz2 \
	OrthoOrbital Pt 27   dxz \
	OrthoOrbital Pt 27   dx2-y2 \
	OrthoOrbital Pt 28   s \
	OrthoOrbital Pt 28   p \
	OrthoOrbital Pt 28   px \
	OrthoOrbital Pt 28   py \
	OrthoOrbital Pt 28   pz \
	OrthoOrbital Pt 28   d \
	OrthoOrbital Pt 28   dxy \
	OrthoOrbital Pt 28   dyz \
	OrthoOrbital Pt 28   dz2 \
	OrthoOrbital Pt 28   dxz \
	OrthoOrbital Pt 28   dx2-y2
dump End ElecDensity KEdensity BandEigs EigStats RhoAtom DOS Kpoints
dump Ionic State IonicPositions Lattice EigStats Ecomponents
dump 
dump 
dump 
dump 
dump 
dump 
dump 
dump 
dump-name jdft.$VAR
elec-cutoff 20
elec-eigen-algo Davidson
elec-ex-corr gga-PBE
elec-initial-magnetization 0.000000 no
elec-n-bands 269
elec-smearing Fermi 0.001
electronic-minimize  \
	dirUpdateScheme      FletcherReeves \
	linminMethod         DirUpdateRecommended \
	nIterations          100 \
	history              15 \
	knormThreshold       0 \
	energyDiffThreshold  1e-07 \
	nEnergyDiff          2 \
	alphaTstart          1 \
	alphaTmin            1e-10 \
	updateTestStepSize   yes \
	alphaTreduceFactor   0.1 \
	alphaTincreaseFactor 3 \
	nAlphaAdjustMax      3 \
	wolfeEnergy          0.0001 \
	wolfeGradient        0.9 \
	fdTest               no
exchange-regularization WignerSeitzTruncated
fluid LinearPCM 298.000000 1.013250
fluid-anion F- 0.5 MeanFieldLJ \
	epsBulk 1 \
	pMol 0 \
	epsInf 1 \
	Pvap 0 \
	sigmaBulk 0 \
	Rvdw 2.24877 \
	Res 0 \
	tauNuc 343133
fluid-cation Na+ 0.5 MeanFieldLJ \
	epsBulk 1 \
	pMol 0 \
	epsInf 1 \
	Pvap 0 \
	sigmaBulk 0 \
	Rvdw 2.19208 \
	Res 0 \
	tauNuc 343133
fluid-ex-corr lda-TF lda-PZ
fluid-gummel-loop 10 1.000000e-05
fluid-minimize  \
	dirUpdateScheme      PolakRibiere \
	linminMethod         DirUpdateRecommended \
	nIterations          400 \
	history              15 \
	knormThreshold       1e-11 \
	energyDiffThreshold  0 \
	nEnergyDiff          2 \
	alphaTstart          1 \
	alphaTmin            1e-10 \
	updateTestStepSize   yes \
	alphaTreduceFactor   0.1 \
	alphaTincreaseFactor 3 \
	nAlphaAdjustMax      6 \
	wolfeEnergy          0.0001 \
	wolfeGradient        0.9 \
	fdTest               no
fluid-solvent H2O 55.338 ScalarEOS \
	epsBulk 78.4 \
	pMol 0.92466 \
	epsInf 1.77 \
	Pvap 1.06736e-10 \
	sigmaBulk 4.62e-05 \
	Rvdw 2.61727 \
	Res 1.42 \
	tauNuc 343133 \
	poleEl 15 7 1
forces-output-coords Positions
ion Pt   9.062080999999999   0.000000000000000  27.190743000000001 1
ion Pt   6.041388000000000   6.458519999999999   1.483119000000000 1
ion Pt   6.041391000000001   1.614627000000000   3.460666999999999 1
ion Pt   3.020697000000001   8.073146999999999   5.438132000000000 1
ion Pt   3.020691000000000   3.229254000000000   7.415679999999999 1
ion Pt  -0.000002000000000   9.687773999999999   9.393144999999999 1
ion Pt   0.000000000000000   4.843880999999999  11.370691999999998 1
ion Pt   6.041388000000000   6.458519999999999  15.325704999999999 1
ion Pt   9.062080999999999   0.000000000000000  13.348156999999999 1
ion Pt   6.041391000000001   1.614627000000000  17.303169999999998 1
ion Pt   3.020697000000001   8.073146999999999  19.280716999999999 1
ion Pt   3.020691000000000   3.229254000000000  21.258182000000001 1
ion Pt  -0.000002000000000   9.687773999999999  23.235730000000000 1
ion Pt   0.000000000000000   4.843880999999999  25.213194999999995 1
ion Pt   1.510344000000000   4.036573000000000   2.471893000000000 1
ion Pt  -1.510346000000000  10.495081999999998   4.449357999999999 1
ion Pt   7.551735000000001   5.651199999999999   6.426906000000000 1
ion Pt   7.551735000000000   0.807319000000000   8.404370999999998 1
ion Pt   4.531044000000000   7.265828000000000  10.381917999999999 1
ion Pt   4.531044000000000   2.421946000000000  12.359465999999998 1
ion Pt   1.510344000000000   8.880454999999998  14.336930999999998 1
ion Pt  -1.510346000000000  10.495081999999998  18.291944000000001 1
ion Pt   1.510344000000000   4.036573000000000  16.314478999999995 1
ion Pt   7.551735000000001   5.651199999999999  20.269490999999999 1
ion Pt   7.551735000000000   0.807319000000000  22.246956000000001 1
ion Pt   4.531044000000000   7.265828000000000  24.224503999999996 1
ion Pt   4.531044000000000   2.421946000000000  26.201968999999995 1
ion Pt   1.510344000000000   8.880454999999998   0.494345000000000 1
ion-species /projects/musgravc/apps/jdftx-1.6.0/build/pseudopotentials/GBRV_v1.5/$ID_pbe_v1.uspp
ion-species /projects/musgravc/apps/jdftx-1.6.0/build/pseudopotentials/GBRV_v1.5/$ID_pbe_v1.2.uspp
ion-species /projects/musgravc/apps/jdftx-1.6.0/build/pseudopotentials/GBRV_v1.5/$ID_pbe_v1.4.uspp
ion-species /projects/musgravc/apps/jdftx-1.6.0/build/pseudopotentials/GBRV_v1.5/$ID_pbe_v1.5.uspp
ion-width Ecut
ionic-minimize  \
	dirUpdateScheme      L-BFGS \
	linminMethod         DirUpdateRecommended \
	nIterations          100 \
	history              15 \
	knormThreshold       0.0001 \
	energyDiffThreshold  1e-06 \
	nEnergyDiff          2 \
	alphaTstart          1 \
	alphaTmin            1e-10 \
	updateTestStepSize   yes \
	alphaTreduceFactor   0.1 \
	alphaTincreaseFactor 3 \
	nAlphaAdjustMax      3 \
	wolfeEnergy          0.0001 \
	wolfeGradient        0.9 \
	fdTest               no
kpoint   0.000000000000   0.000000000000   0.000000000000  1.00000000000000
kpoint-folding 7 5 1 
latt-move-scale 0 0 0
latt-scale 1 1 1 
lattice  \
	   9.062080999999999   -3.020693000000000    0.000000000000000  \
	   0.000000000000000   11.302401000000000    0.000000000000000  \
	   0.000000000000000    0.000000000000000   83.055346999999998 
lattice-minimize  \
	dirUpdateScheme      L-BFGS \
	linminMethod         DirUpdateRecommended \
	nIterations          0 \
	history              15 \
	knormThreshold       0 \
	energyDiffThreshold  1e-06 \
	nEnergyDiff          2 \
	alphaTstart          1 \
	alphaTmin            1e-10 \
	updateTestStepSize   yes \
	alphaTreduceFactor   0.1 \
	alphaTincreaseFactor 3 \
	nAlphaAdjustMax      3 \
	wolfeEnergy          0.0001 \
	wolfeGradient        0.9 \
	fdTest               no
lcao-params 30 1e-06 0.001
pcm-variant CANDLE
spintype z-spin
subspace-rotation-factor 1 yes
symmetries none
symmetry-threshold 0.0001
van-der-waals D3


Applied RMS atom displacement 0 bohrs to make symmetries exact.

---------- Initializing the Grid ----------
R = 
[      9.06208     -3.02069            0  ]
[            0      11.3024            0  ]
[            0            0      83.0553  ]
unit cell volume = 8506.8
G =
[   0.693349   0.185305         -0  ]
[          0   0.555916          0  ]
[          0         -0  0.0756506  ]
Minimum fftbox size, Smin = [  40  48  336  ]
Chosen fftbox size, S = [  40  48  336  ]

---------- Exchange Correlation functional ----------
Initalized PBE GGA exchange.
Initalized PBE GGA correlation.

---------- Setting up pseudopotentials ----------
Width of ionic core gaussian charges (only for fluid interactions / plotting) set to 0.397384

Reading pseudopotential file '/projects/musgravc/apps/jdftx-1.6.0/build/pseudopotentials/GBRV_v1.5/pt_pbe_v1.4.uspp':
  Title: Pt.  Created by USPP 7.3.6 on 31-3-15
  Reference state energy: -105.002503.  16 valence electrons in orbitals:
    |510>  occupation: 6  eigenvalue: -2.158104
    |520>  occupation: 9.5  eigenvalue: -0.335376
    |600>  occupation: 0  eigenvalue: -0.319640
    |610>  occupation: 0  eigenvalue: -0.122947
  lMax: 2  lLocal: 3  QijEcut: 5.5
  6 projectors sampled on a log grid with 745 points:
    l: 0  eig: -0.319640  rCut: 2.45
    l: 0  eig: 1.500000  rCut: 2.45
    l: 1  eig: -2.158104  rCut: 1.6
    l: 1  eig: -0.122947  rCut: 1.6
    l: 2  eig: -0.500000  rCut: 1.6
    l: 2  eig: -0.335375  rCut: 1.6
  Partial core density with radius 1.1
  Transforming core density to a uniform radial grid of dG=0.02 with 1275 points.
  Transforming local potential to a uniform radial grid of dG=0.02 with 1275 points.
  Transforming nonlocal projectors to a uniform radial grid of dG=0.02 with 432 points.
  Transforming density augmentations to a uniform radial grid of dG=0.02 with 1275 points.
  Transforming atomic orbitals to a uniform radial grid of dG=0.02 with 432 points.
  Core radius for overlap checks: 2.45 bohrs.

Initialized 1 species with 28 total atoms.

Folded 1 k-points by 7x5x1 to 35 k-points.

---------- Setting up k-points, bands, fillings ----------
No reducable k-points. 
Computing the number of bands and number of electrons
Calculating initial fillings.
nElectrons: 448.000000   nBands: 269   nStates: 70

----- Setting up reduced wavefunction bases (one per k-point) -----
average nbasis = 36338.200 , ideal nbasis = 36341.700

----- Initializing Supercell corresponding to k-point mesh -----
Lattice vector linear combinations in supercell:
[   7   0   0  ]
[   0   5   0  ]
[   0   0   1  ]
Supercell lattice vectors:
[  63.4346  -15.1035  0  ]
[  0  56.512  0  ]
[  0  0  83.0553  ]

Initializing DFT-D3 calculator:
	Parameters set for gga-PBE functional
	s6:  1.000  s_r6:  1.217
	s8:  0.722  s_r8:  1.000
	Per-atom parameters loaded for:
	Pt:  sqrtQ[a0]:  5.888  Rcov[a0]:  2.116  CN: [ 0.00 1.92 6.67 ]

Initializing DFT-D2 calculator for fluid / solvation:
	Pt:  C6:  815.23 Eh-a0^6  R0: 3.326 a0 (WARNING: beyond Grimme's data set)

---------- Setting up ewald sum ----------
Optimum gaussian width for ewald sums = 4.673467 bohr.
Real space sum over 825 unit cells with max indices [  7  5  2  ]
Reciprocal space sum over 5643 terms with max indices [  4  5  28  ]

Computing DFT-D3 correction:
# coordination-number Pt 4.786 6.347 7.939 9.523 9.554 9.560 9.562 9.562 9.563 9.562 9.558 9.549 8.741 7.152 7.152 8.741 9.549 9.558 9.562 9.562 9.563 9.561 9.562 9.554 9.523 7.939 6.347 4.786
# diagonal-C6 Pt 336.87 336.87 336.87 336.87 336.87 336.87 336.87 336.87 336.87 336.87 336.87 336.87 336.87 336.87 336.87 336.87 336.87 336.87 336.87 336.87 336.87 336.87 336.87 336.87 336.87 336.87 336.87 336.87
EvdW_6 =   -0.253879
EvdW_8 =   -0.405405

---------- Allocating electronic variables ----------
Initializing wave functions:  linear combination of atomic orbitals
Pt pseudo-atom occupations:   s ( 0 )  p ( 6 0 )  d ( 10 )
	FillingsUpdate:  mu: -1.723270318  nElectrons: 448.000000  magneticMoment: [ Abs: 0.00175  Tot: -0.00003 ]
LCAOMinimize: Iter:   0  F: -2475.5786283628553974  |grad|_K:  1.410e-02  alpha:  1.000e+00
LCAOMinimize: 	Step increased F by 6.568943e+02, reducing alpha to 2.001795e-02.
	FillingsUpdate:  mu: +0.856675050  nElectrons: 448.000000  magneticMoment: [ Abs: 0.00143  Tot: +0.00007 ]
LCAOMinimize: Iter:   1  F: -2482.5951857202426254  |grad|_K:  1.025e-02  alpha:  2.002e-02  linmin:  1.606e-01  cgtest: -9.301e-01  t[s]:    305.74
LCAOMinimize: 	Bad step direction: g.d > 0.
LCAOMinimize: 	Undoing step.
LCAOMinimize: 	Step failed: resetting search direction.
	FillingsUpdate:  mu: +0.856675050  nElectrons: 448.000000  magneticMoment: [ Abs: 0.00143  Tot: +0.00007 ]
LCAOMinimize: Iter:   2  F: -2482.5951857202426254  |grad|_K:  1.025e-02  alpha:  0.000e+00
	FillingsUpdate:  mu: -0.364228966  nElectrons: 448.000000  magneticMoment: [ Abs: 0.00141  Tot: -0.00002 ]
LCAOMinimize: Iter:   3  F: -2488.0347588949712190  |grad|_K:  2.319e-03  alpha:  1.140e-02  linmin: -1.998e-03  cgtest: -1.460e-01  t[s]:    467.01
LCAOMinimize: 	Predicted alpha/alphaT>3.000000, increasing alphaT to 3.420552e-02.
	FillingsUpdate:  mu: -0.180530375  nElectrons: 448.000000  magneticMoment: [ Abs: 0.00125  Tot: -0.00005 ]
LCAOMinimize: Iter:   4  F: -2488.9944447061579922  |grad|_K:  3.040e-03  alpha:  4.610e-02  linmin:  8.740e-03  cgtest:  2.912e-01  t[s]:    582.83
	FillingsUpdate:  mu: -0.007395000  nElectrons: 448.000000  magneticMoment: [ Abs: 0.00120  Tot: -0.00005 ]
LCAOMinimize: Iter:   5  F: -2489.3496481771398976  |grad|_K:  1.397e-03  alpha:  8.859e-03  linmin: -4.050e-02  cgtest:  5.883e-01  t[s]:    675.08
LCAOMinimize: Encountered beta<0, resetting CG.
LCAOMinimize: 	Predicted alpha/alphaT>3.000000, increasing alphaT to 2.657644e-02.
	FillingsUpdate:  mu: +0.119593880  nElectrons: 448.000000  magneticMoment: [ Abs: 0.00113  Tot: -0.00006 ]
LCAOMinimize: Iter:   6  F: -2489.6912675530043089  |grad|_K:  2.046e-03  alpha:  4.360e-02  linmin: -2.139e-03  cgtest:  1.789e-02  t[s]:    791.12
	FillingsUpdate:  mu: +0.092695439  nElectrons: 448.000000  magneticMoment: [ Abs: 0.00110  Tot: -0.00008 ]
LCAOMinimize: Iter:   7  F: -2489.8019604292308031  |grad|_K:  2.316e-03  alpha:  8.444e-03  linmin:  1.228e-02  cgtest: -2.170e-01  t[s]:    883.39
	FillingsUpdate:  mu: -0.038482953  nElectrons: 448.000000  magneticMoment: [ Abs: 0.00104  Tot: -0.00010 ]
LCAOMinimize: Iter:   8  F: -2489.9493778788842064  |grad|_K:  1.633e-03  alpha:  9.039e-03  linmin: -4.584e-03  cgtest:  7.378e-01  t[s]:    975.84
LCAOMinimize: Encountered beta<0, resetting CG.
	FillingsUpdate:  mu: -0.016657700  nElectrons: 448.000000  magneticMoment: [ Abs: 0.00103  Tot: -0.00010 ]
LCAOMinimize: Iter:   9  F: -2490.0104105575692301  |grad|_K:  1.436e-03  alpha:  5.697e-03  linmin: -2.829e-04  cgtest:  6.026e-03  t[s]:   1068.11
LCAOMinimize: 	Predicted alpha/alphaT>3.000000, increasing alphaT to 1.709221e-02.
	FillingsUpdate:  mu: +0.162088740  nElectrons: 448.000000  magneticMoment: [ Abs: 0.00099  Tot: -0.00009 ]
LCAOMinimize: Iter:  10  F: -2490.2068752214618144  |grad|_K:  1.149e-03  alpha:  2.434e-02  linmin:  6.782e-03  cgtest:  1.951e-02  t[s]:   1183.87
	FillingsUpdate:  mu: +0.075950838  nElectrons: 448.000000  magneticMoment: [ Abs: 0.00096  Tot: -0.00009 ]
LCAOMinimize: Iter:  11  F: -2490.2875378045337129  |grad|_K:  6.634e-04  alpha:  1.567e-02  linmin: -6.779e-04  cgtest:  8.779e-02  t[s]:   1276.32
	FillingsUpdate:  mu: +0.177948880  nElectrons: 448.000000  magneticMoment: [ Abs: 0.00092  Tot: -0.00009 ]
LCAOMinimize: Iter:  12  F: -2490.3512179305039353  |grad|_K:  2.065e-03  alpha:  3.628e-02  linmin: -3.077e-05  cgtest: -8.787e-03  t[s]:   1368.12
	FillingsUpdate:  mu: +0.129584179  nElectrons: 448.000000  magneticMoment: [ Abs: 0.00077  Tot: -0.00012 ]
LCAOMinimize: Iter:  13  F: -2490.6579030310736016  |grad|_K:  4.952e-04  alpha:  1.872e-02  linmin:  2.863e-03  cgtest: -2.237e-01  t[s]:   1460.13
LCAOMinimize: 	Predicted alpha/alphaT>3.000000, increasing alphaT to 5.615698e-02.
	FillingsUpdate:  mu: +0.212280156  nElectrons: 448.000000  magneticMoment: [ Abs: 0.00073  Tot: -0.00012 ]
LCAOMinimize: Iter:  14  F: -2490.7163400930389798  |grad|_K:  8.765e-04  alpha:  6.253e-02  linmin: -9.172e-05  cgtest:  1.661e-02  t[s]:   1575.45
	FillingsUpdate:  mu: +0.188456922  nElectrons: 448.000000  magneticMoment: [ Abs: 0.00072  Tot: -0.00012 ]
LCAOMinimize: Iter:  15  F: -2490.7271736142647569  |grad|_K:  2.237e-04  alpha:  3.443e-03  linmin: -3.121e-03  cgtest: -1.772e-03  t[s]:   1668.60
LCAOMinimize: 	Predicted alpha/alphaT>3.000000, increasing alphaT to 1.032841e-02.
	FillingsUpdate:  mu: +0.170012517  nElectrons: 448.000000  magneticMoment: [ Abs: 0.00071  Tot: -0.00012 ]
LCAOMinimize: Iter:  16  F: -2490.7317814962862030  |grad|_K:  2.552e-04  alpha:  2.278e-02  linmin:  8.619e-04  cgtest: -3.192e-02  t[s]:   1784.31
	FillingsUpdate:  mu: +0.191358271  nElectrons: 448.000000  magneticMoment: [ Abs: 0.00070  Tot: -0.00012 ]
LCAOMinimize: Iter:  17  F: -2490.7397817806709099  |grad|_K:  6.002e-04  alpha:  3.147e-02  linmin:  2.913e-04  cgtest:  2.797e-02  t[s]:   1876.40
	FillingsUpdate:  mu: +0.181312861  nElectrons: 448.000000  magneticMoment: [ Abs: 0.00069  Tot: -0.00012 ]
LCAOMinimize: Iter:  18  F: -2490.7487977018877245  |grad|_K:  2.418e-04  alpha:  6.623e-03  linmin:  2.300e-03  cgtest: -1.439e-02  t[s]:   1968.75
LCAOMinimize: 	Predicted alpha/alphaT>3.000000, increasing alphaT to 1.986917e-02.
	FillingsUpdate:  mu: +0.174410019  nElectrons: 448.000000  magneticMoment: [ Abs: 0.00068  Tot: -0.00012 ]
LCAOMinimize: Iter:  19  F: -2490.7592788685014966  |grad|_K:  3.471e-04  alpha:  4.697e-02  linmin:  3.594e-04  cgtest:  3.383e-02  t[s]:   2084.58
	FillingsUpdate:  mu: +0.160700437  nElectrons: 448.000000  magneticMoment: [ Abs: 0.00068  Tot: -0.00012 ]
LCAOMinimize: Iter:  20  F: -2490.7612979606078625  |grad|_K:  1.910e-04  alpha:  4.360e-03  linmin:  1.328e-03  cgtest: -1.200e-02  t[s]:   2177.09
	FillingsUpdate:  mu: +0.140374806  nElectrons: 448.000000  magneticMoment: [ Abs: 0.00068  Tot: -0.00012 ]
LCAOMinimize: Iter:  21  F: -2490.7628427468966947  |grad|_K:  1.070e-04  alpha:  1.088e-02  linmin: -7.037e-05  cgtest:  5.929e-02  t[s]:   2269.07
	FillingsUpdate:  mu: +0.138255072  nElectrons: 448.000000  magneticMoment: [ Abs: 0.00068  Tot: -0.00012 ]
LCAOMinimize: Iter:  22  F: -2490.7640515998641604  |grad|_K:  1.594e-04  alpha:  2.661e-02  linmin:  1.683e-04  cgtest: -5.496e-03  t[s]:   2361.11
	FillingsUpdate:  mu: +0.135667947  nElectrons: 448.000000  magneticMoment: [ Abs: 0.00068  Tot: -0.00013 ]
LCAOMinimize: Iter:  23  F: -2490.7644718134292816  |grad|_K:  6.132e-05  alpha:  4.166e-03  linmin: -3.723e-04  cgtest:  9.430e-03  t[s]:   2453.40
LCAOMinimize: 	Predicted alpha/alphaT>3.000000, increasing alphaT to 1.249845e-02.
LCAOMinimize: 	Predicted alpha/alphaT>3.000000, increasing alphaT to 3.749535e-02.
	FillingsUpdate:  mu: +0.134590045  nElectrons: 448.000000  magneticMoment: [ Abs: 0.00069  Tot: -0.00013 ]
LCAOMinimize: Iter:  24  F: -2490.7655127223565614  |grad|_K:  7.663e-05  alpha:  6.961e-02  linmin:  2.246e-04  cgtest: -2.206e-02  t[s]:   2592.75
	FillingsUpdate:  mu: +0.133629679  nElectrons: 448.000000  magneticMoment: [ Abs: 0.00069  Tot: -0.00013 ]
LCAOMinimize: Iter:  25  F: -2490.7656065471819602  |grad|_K:  4.550e-05  alpha:  4.027e-03  linmin: -1.662e-04  cgtest:  8.719e-03  t[s]:   2685.01
LCAOMinimize: 	Predicted alpha/alphaT>3.000000, increasing alphaT to 1.208081e-02.
	FillingsUpdate:  mu: +0.129718644  nElectrons: 448.000000  magneticMoment: [ Abs: 0.00069  Tot: -0.00013 ]
LCAOMinimize: Iter:  26  F: -2490.7658676732585263  |grad|_K:  6.172e-05  alpha:  3.175e-02  linmin:  2.032e-04  cgtest: -9.553e-03  t[s]:   2800.55
	FillingsUpdate:  mu: +0.133996835  nElectrons: 448.000000  magneticMoment: [ Abs: 0.00069  Tot: -0.00013 ]
LCAOMinimize: Iter:  27  F: -2490.7662433452787809  |grad|_K:  9.169e-05  alpha:  2.487e-02  linmin:  2.800e-05  cgtest:  6.561e-03  t[s]:   2892.53
	FillingsUpdate:  mu: +0.135575961  nElectrons: 448.000000  magneticMoment: [ Abs: 0.00070  Tot: -0.00014 ]
LCAOMinimize: Iter:  28  F: -2490.7664012595355416  |grad|_K:  5.096e-05  alpha:  4.710e-03  linmin: -2.221e-04  cgtest:  1.111e-02  t[s]:   2984.50
LCAOMinimize: 	Predicted alpha/alphaT>3.000000, increasing alphaT to 1.413031e-02.
LCAOMinimize: 	Predicted alpha/alphaT>3.000000, increasing alphaT to 4.239092e-02.
	FillingsUpdate:  mu: +0.132269936  nElectrons: 448.000000  magneticMoment: [ Abs: 0.00071  Tot: -0.00014 ]
LCAOMinimize: Iter:  29  F: -2490.7672242136000023  |grad|_K:  6.095e-05  alpha:  7.940e-02  linmin: -2.421e-05  cgtest: -2.439e-02  t[s]:   3123.82
	FillingsUpdate:  mu: +0.131241070  nElectrons: 448.000000  magneticMoment: [ Abs: 0.00071  Tot: -0.00015 ]
LCAOMinimize: Iter:  30  F: -2490.7672837304480709  |grad|_K:  3.610e-05  alpha:  4.040e-03  linmin:  1.932e-04  cgtest: -6.374e-03  t[s]:   3215.86
LCAOMinimize: None of the convergence criteria satisfied after 30 iterations.
----- createFluidSolver() ----- (Fluid-side solver setup)
   Initializing fluid molecule 'H2O'
     Initializing site 'O'
       Electron density: proportional to exp(-r/0.36935)*erfc((r-0.51523)/0.36823) with norm 6.826
       Charge density: gaussian nuclear width 0.478731 with net site charge 0.826
       Polarizability: cuspless exponential with width 0.32 and norm 3.73
       Hard sphere radius: 2.57003 bohrs
       Positions in reference frame:
         [ +0.000000 +0.000000 +0.000000 ]
     Initializing site 'H'
       Electron density: proportional to exp(-r/0.34641)*erfc((r-0)/0.390882) with norm 0.587
       Charge density: gaussian nuclear width 0.377945 with net site charge -0.413
       Polarizability: cuspless exponential with width 0.39 and norm 3.3
       Positions in reference frame:
         [ +0.000000 -1.441945 +1.122523 ]
         [ +0.000000 +1.441945 +1.122523 ]
     Net charge: 0   dipole magnitude: 0.927204
     Initializing spherical shell mfKernel with radius 2.61727 Bohr
     deltaS corrections:
       site 'O': -7.54299
       site 'H': -6.83917
   Initializing fluid molecule 'Na+'
     Initializing site 'Na'
       Electron density: proportional to exp(-r/0.19682)*erfc((r-0.71491)/0.41314) with norm 8.1383
       Charge density: gaussian nuclear width 0.365347 with net site charge -1
       Hard sphere radius: 1.86327 bohrs
       Positions in reference frame:
         [ +0.000000 +0.000000 +0.000000 ]
     Net charge: -1   dipole magnitude: 0
     Initializing gaussian mfKernel with width: 1.55004 Bohr
     deltaS corrections:
       site 'Na': -22.3555
   Initializing fluid molecule 'F-'
     Initializing site 'F'
       Electron density: proportional to exp(-r/0.38886)*erfc((r-0)/0.438782) with norm 8
       Charge density: gaussian nuclear width 0.374796 with net site charge 1
       Hard sphere radius: 2.39995 bohrs
       Positions in reference frame:
         [ +0.000000 +0.000000 +0.000000 ]
     Net charge: 1   dipole magnitude: 0
     Initializing gaussian mfKernel with width: 1.59012 Bohr
     deltaS corrections:
       site 'F': -9.04335

Correction to mu due to finite nuclear width = -0.052253
   Cavity determined by nc: 0.00142 and sigma: 0.707107
   Nonlocal vdW cavity from gaussian model electron density with norm = 8 and sigma = 0.993594 bohr
   Charge asymmetry in cavity with sensitivity pCavity = 36.5 e-bohr/Eh
   Electrostatic cavity expanded by eta = 1.46 bohrs
   Weighted density cavitation model constrained by Nbulk: 0.0049383 bohr^-3, Pvap: 3.14029 kPa, Rvdw: 2.61727 bohr and sigmaBulk: 4.62e-05 Eh/bohr^2 at T: 298 K.
   Weighted density dispersion model using vdW pair potentials with single solvent site with sqrtC6eff: 0.77 SI.


---- Citations for features of the code used in this run ----

   Software package:
      R. Sundararaman, K. Letchworth-Weaver, K.A. Schwarz, D. Gunceler, Y. Ozhabes and T.A. Arias, 'JDFTx: software for joint density-functional theory', SoftwareX 6, 278 (2017)

   gga-PBE exchange-correlation functional:
      J.P. Perdew, K. Burke and M. Ernzerhof, Phys. Rev. Lett. 77, 3865 (1996)

   Pseudopotentials:
      KF Garrity, JW Bennett, KM Rabe and D Vanderbilt, Comput. Mater. Sci. 81, 446 (2014)

   DFT-D3 dispersion correction:
      S. Grimme, J. Antony, S. Ehrlich and H. Krieg, J. Chem. Phys. 132, 154104 (2010)

   DFT-D2 dispersion correction:
      S. Grimme, J. Comput. Chem. 27, 1787 (2006)

   Charge-asymmetric nonlocally-determined local-electric (CANDLE) solvation model:
      R. Sundararaman and W.A. Goddard III, J. Chem. Phys. 142, 064107 (2015)

   Total energy minimization with Auxiliary Hamiltonian:
      C. Freysoldt, S. Boeck, and J. Neugebauer, Phys. Rev. B 79, 241103(R) (2009)

   Linear-tetrahedron sampling for density of states:
      G. Lehmann and M. Taut, Phys. status solidi (b) 54, 469 (1972)

This list may not be complete. Please suggest additional citations or
report any other bugs at https://github.com/shankar1729/jdftx/issues

Initialization completed successfully at t[s]:   3238.64


Computing DFT-D3 correction:
# coordination-number Pt 4.786 6.347 7.939 9.523 9.554 9.560 9.562 9.562 9.563 9.562 9.558 9.549 8.741 7.152 7.152 8.741 9.549 9.558 9.562 9.562 9.563 9.561 9.562 9.554 9.523 7.939 6.347 4.786
# diagonal-C6 Pt 336.87 336.87 336.87 336.87 336.87 336.87 336.87 336.87 336.87 336.87 336.87 336.87 336.87 336.87 336.87 336.87 336.87 336.87 336.87 336.87 336.87 336.87 336.87 336.87 336.87 336.87 336.87 336.87
EvdW_6 =   -0.253879
EvdW_8 =   -0.405405
Fluid solver invoked on fresh (random / LCAO) wavefunctions
Running a vacuum solve first:

-------- Initial electronic minimization -----------
	FillingsUpdate:  mu: +0.131242553  nElectrons: 448.000000  magneticMoment: [ Abs: 0.00071  Tot: -0.00015 ]
ElecMinimize: Iter:   0  F: -2490.767283730448526  |grad|_K:  3.198e-05  alpha:  1.000e+00
	FillingsUpdate:  mu: +0.241384320  nElectrons: 448.000000  magneticMoment: [ Abs: 0.00061  Tot: -0.00015 ]
	SubspaceRotationAdjust: set factor to 0.505
ElecMinimize: Iter:   1  F: -2490.981920484461625  |grad|_K:  1.755e-04  alpha:  3.064e-01  linmin:  9.214e-06  t[s]:   3458.49
ElecMinimize: 	Step increased F by 7.050554e-02, reducing alpha to 8.956005e-04.
	FillingsUpdate:  mu: +0.214454569  nElectrons: 448.000000  magneticMoment: [ Abs: 0.00060  Tot: -0.00015 ]
	SubspaceRotationAdjust: set factor to 0.26
ElecMinimize: Iter:   2  F: -2491.015236154365539  |grad|_K:  9.607e-05  alpha:  8.956e-04  linmin: -2.862e-03  t[s]:   3687.87
ElecMinimize: 	Predicted alpha/alphaT>3.000000, increasing alphaT to 2.686802e-03.
	FillingsUpdate:  mu: +0.146551848  nElectrons: 448.000000  magneticMoment: [ Abs: 0.00060  Tot: -0.00015 ]
	SubspaceRotationAdjust: set factor to 0.104
	SubspaceRotationAdjust: resetting CG because factor has changed by 0.103861
ElecMinimize: 	State modified externally: resetting search direction.
ElecMinimize: Iter:   3  F: -2491.057813421578430  |grad|_K:  1.656e-05  alpha:  3.818e-03
ElecMinimize: 	Predicted alpha/alphaT>3.000000, increasing alphaT to 1.145506e-02.
ElecMinimize: 	Predicted alpha/alphaT>3.000000, increasing alphaT to 3.436518e-02.
ElecMinimize: 	Predicted alpha/alphaT>3.000000, increasing alphaT to 1.030956e-01.
	FillingsUpdate:  mu: +0.199735902  nElectrons: 448.000000  magneticMoment: [ Abs: 0.00056  Tot: -0.00015 ]
	SubspaceRotationAdjust: set factor to 0.0638
ElecMinimize: Iter:   4  F: -2491.082582764389826  |grad|_K:  2.579e-05  alpha:  1.324e-01  linmin:  3.019e-04  t[s]:   4143.07
	FillingsUpdate:  mu: +0.202204675  nElectrons: 448.000000  magneticMoment: [ Abs: 0.00051  Tot: -0.00015 ]
	SubspaceRotationAdjust: set factor to 0.0503
ElecMinimize: Iter:   5  F: -2491.113668111720472  |grad|_K:  1.335e-05  alpha:  6.909e-02  linmin:  4.189e-05  t[s]:   4282.62
ElecMinimize: 	Predicted alpha/alphaT>3.000000, increasing alphaT to 2.072791e-01.
	FillingsUpdate:  mu: +0.149074287  nElectrons: 448.000000  magneticMoment: [ Abs: 0.00043  Tot: -0.00016 ]
	SubspaceRotationAdjust: set factor to 0.0463
ElecMinimize: Iter:   6  F: -2491.142623073777486  |grad|_K:  9.216e-06  alpha:  2.368e-01  linmin:  2.619e-05  t[s]:   4457.55
	FillingsUpdate:  mu: +0.157506356  nElectrons: 448.000000  magneticMoment: [ Abs: 0.00039  Tot: -0.00016 ]
	SubspaceRotationAdjust: set factor to 0.034
ElecMinimize: Iter:   7  F: -2491.150837495266387  |grad|_K:  9.052e-06  alpha:  1.411e-01  linmin:  3.247e-06  t[s]:   4597.40
	FillingsUpdate:  mu: +0.153795849  nElectrons: 448.000000  magneticMoment: [ Abs: 0.00035  Tot: -0.00016 ]
	SubspaceRotationAdjust: set factor to 0.0507
ElecMinimize: Iter:   8  F: -2491.158070014666464  |grad|_K:  3.257e-06  alpha:  1.285e-01  linmin:  1.813e-06  t[s]:   4737.55
	FillingsUpdate:  mu: +0.164538731  nElectrons: 448.000000  magneticMoment: [ Abs: 0.00032  Tot: -0.00016 ]
	SubspaceRotationAdjust: set factor to 0.0328
ElecMinimize: Iter:   9  F: -2491.160314254967489  |grad|_K:  4.353e-06  alpha:  3.081e-01  linmin:  7.610e-08  t[s]:   4877.38
	FillingsUpdate:  mu: +0.161583595  nElectrons: 448.000000  magneticMoment: [ Abs: 0.00031  Tot: -0.00016 ]
	SubspaceRotationAdjust: set factor to 0.0254
ElecMinimize: Iter:  10  F: -2491.161555357576617  |grad|_K:  2.394e-06  alpha:  9.548e-02  linmin:  9.229e-06  t[s]:   5018.41
ElecMinimize: 	Predicted alpha/alphaT>3.000000, increasing alphaT to 2.864372e-01.
	FillingsUpdate:  mu: +0.151332237  nElectrons: 448.000000  magneticMoment: [ Abs: 0.00028  Tot: -0.00016 ]
	SubspaceRotationAdjust: set factor to 0.0275
ElecMinimize: Iter:  11  F: -2491.162782906259508  |grad|_K:  1.822e-06  alpha:  3.123e-01  linmin:  3.184e-06  t[s]:   5193.34
	FillingsUpdate:  mu: +0.150617321  nElectrons: 448.000000  magneticMoment: [ Abs: 0.00028  Tot: -0.00016 ]
	SubspaceRotationAdjust: set factor to 0.0234
ElecMinimize: Iter:  12  F: -2491.163212850378841  |grad|_K:  1.580e-06  alpha:  1.888e-01  linmin:  5.311e-07  t[s]:   5333.69
	FillingsUpdate:  mu: +0.154301744  nElectrons: 448.000000  magneticMoment: [ Abs: 0.00027  Tot: -0.00016 ]
	SubspaceRotationAdjust: set factor to 0.029
ElecMinimize: Iter:  13  F: -2491.163699413863014  |grad|_K:  1.172e-06  alpha:  2.837e-01  linmin: -1.674e-06  t[s]:   5473.89
	FillingsUpdate:  mu: +0.155783430  nElectrons: 448.000000  magneticMoment: [ Abs: 0.00026  Tot: -0.00016 ]
	SubspaceRotationAdjust: set factor to 0.0216
ElecMinimize: Iter:  14  F: -2491.164059581603851  |grad|_K:  1.457e-06  alpha:  3.819e-01  linmin: -5.948e-07  t[s]:   5613.79
	FillingsUpdate:  mu: +0.153914536  nElectrons: 448.000000  magneticMoment: [ Abs: 0.00026  Tot: -0.00016 ]
	SubspaceRotationAdjust: set factor to 0.0196
ElecMinimize: Iter:  15  F: -2491.164326691780389  |grad|_K:  1.057e-06  alpha:  1.833e-01  linmin:  6.790e-07  t[s]:   5753.96
	FillingsUpdate:  mu: +0.150057577  nElectrons: 448.000000  magneticMoment: [ Abs: 0.00026  Tot: -0.00016 ]
	SubspaceRotationAdjust: set factor to 0.0215
ElecMinimize: Iter:  16  F: -2491.164711401260320  |grad|_K:  1.246e-06  alpha:  5.018e-01  linmin:  3.820e-06  t[s]:   5894.18
	FillingsUpdate:  mu: +0.149564917  nElectrons: 448.000000  magneticMoment: [ Abs: 0.00026  Tot: -0.00016 ]
	SubspaceRotationAdjust: set factor to 0.0189
ElecMinimize: Iter:  17  F: -2491.165010085293034  |grad|_K:  1.266e-06  alpha:  2.808e-01  linmin:  6.649e-07  t[s]:   6034.41
	FillingsUpdate:  mu: +0.152053901  nElectrons: 448.000000  magneticMoment: [ Abs: 0.00025  Tot: -0.00015 ]
	SubspaceRotationAdjust: set factor to 0.0216
ElecMinimize: Iter:  18  F: -2491.165439816423714  |grad|_K:  1.127e-06  alpha:  3.904e-01  linmin: -3.403e-07  t[s]:   6174.02
	FillingsUpdate:  mu: +0.151006507  nElectrons: 448.000000  magneticMoment: [ Abs: 0.00025  Tot: -0.00015 ]
	SubspaceRotationAdjust: set factor to 0.0204
ElecMinimize: Iter:  19  F: -2491.165794225612899  |grad|_K:  1.451e-06  alpha:  4.059e-01  linmin: -3.029e-07  t[s]:   6313.66
	FillingsUpdate:  mu: +0.146747742  nElectrons: 448.000000  magneticMoment: [ Abs: 0.00024  Tot: -0.00015 ]
	SubspaceRotationAdjust: set factor to 0.0186
ElecMinimize: Iter:  20  F: -2491.166226072147310  |grad|_K:  1.185e-06  alpha:  2.988e-01  linmin: -2.080e-07  t[s]:   6453.48
	FillingsUpdate:  mu: +0.146358193  nElectrons: 448.000000  magneticMoment: [ Abs: 0.00023  Tot: -0.00015 ]
	SubspaceRotationAdjust: set factor to 0.0207
ElecMinimize: Iter:  21  F: -2491.166616043183694  |grad|_K:  1.123e-06  alpha:  4.045e-01  linmin: -9.814e-07  t[s]:   6593.92
	FillingsUpdate:  mu: +0.147055374  nElectrons: 448.000000  magneticMoment: [ Abs: 0.00022  Tot: -0.00015 ]
	SubspaceRotationAdjust: set factor to 0.0164
ElecMinimize: Iter:  22  F: -2491.166866561572988  |grad|_K:  1.042e-06  alpha:  2.892e-01  linmin: -5.186e-07  t[s]:   6734.00
	FillingsUpdate:  mu: +0.146811519  nElectrons: 448.000000  magneticMoment: [ Abs: 0.00021  Tot: -0.00014 ]
	SubspaceRotationAdjust: set factor to 0.0187
ElecMinimize: Iter:  23  F: -2491.167122654554078  |grad|_K:  7.311e-07  alpha:  3.433e-01  linmin: -8.835e-07  t[s]:   6874.64
	FillingsUpdate:  mu: +0.145244211  nElectrons: 448.000000  magneticMoment: [ Abs: 0.00020  Tot: -0.00014 ]
	SubspaceRotationAdjust: set factor to 0.0179
ElecMinimize: Iter:  24  F: -2491.167260847787020  |grad|_K:  6.575e-07  alpha:  3.762e-01  linmin: -7.363e-07  t[s]:   7014.80
	FillingsUpdate:  mu: +0.144655151  nElectrons: 448.000000  magneticMoment: [ Abs: 0.00020  Tot: -0.00014 ]
	SubspaceRotationAdjust: set factor to 0.0146
ElecMinimize: Iter:  25  F: -2491.167339078867371  |grad|_K:  4.897e-07  alpha:  2.634e-01  linmin: -1.551e-07  t[s]:   7154.92
	FillingsUpdate:  mu: +0.145328914  nElectrons: 448.000000  magneticMoment: [ Abs: 0.00019  Tot: -0.00014 ]
	SubspaceRotationAdjust: set factor to 0.0172
ElecMinimize: Iter:  26  F: -2491.167405775064253  |grad|_K:  3.789e-07  alpha:  4.050e-01  linmin:  3.772e-07  t[s]:   7294.56
	FillingsUpdate:  mu: +0.145270944  nElectrons: 448.000000  magneticMoment: [ Abs: 0.00019  Tot: -0.00014 ]
	SubspaceRotationAdjust: set factor to 0.0162
ElecMinimize: Iter:  27  F: -2491.167439893904429  |grad|_K:  3.226e-07  alpha:  3.462e-01  linmin: -3.201e-08  t[s]:   7434.86
	FillingsUpdate:  mu: +0.144851547  nElectrons: 448.000000  magneticMoment: [ Abs: 0.00019  Tot: -0.00014 ]
	SubspaceRotationAdjust: set factor to 0.0154
ElecMinimize: Iter:  28  F: -2491.167463738470815  |grad|_K:  2.599e-07  alpha:  3.336e-01  linmin: -1.550e-07  t[s]:   7574.72
	FillingsUpdate:  mu: +0.144833607  nElectrons: 448.000000  magneticMoment: [ Abs: 0.00019  Tot: -0.00014 ]
	SubspaceRotationAdjust: set factor to 0.0188
ElecMinimize: Iter:  29  F: -2491.167483178885050  |grad|_K:  2.139e-07  alpha:  4.191e-01  linmin:  5.642e-08  t[s]:   7714.61
	FillingsUpdate:  mu: +0.145106391  nElectrons: 448.000000  magneticMoment: [ Abs: 0.00018  Tot: -0.00014 ]
	SubspaceRotationAdjust: set factor to 0.0185
ElecMinimize: Iter:  30  F: -2491.167496662988469  |grad|_K:  2.260e-07  alpha:  4.290e-01  linmin:  1.210e-07  t[s]:   7854.75
	FillingsUpdate:  mu: +0.145190219  nElectrons: 448.000000  magneticMoment: [ Abs: 0.00018  Tot: -0.00014 ]
	SubspaceRotationAdjust: set factor to 0.0173
ElecMinimize: Iter:  31  F: -2491.167509270541814  |grad|_K:  2.075e-07  alpha:  3.594e-01  linmin:  4.102e-08  t[s]:   7995.11
	FillingsUpdate:  mu: +0.145011707  nElectrons: 448.000000  magneticMoment: [ Abs: 0.00018  Tot: -0.00014 ]
	SubspaceRotationAdjust: set factor to 0.0198
ElecMinimize: Iter:  32  F: -2491.167523991588496  |grad|_K:  1.970e-07  alpha:  4.977e-01  linmin: -1.357e-07  t[s]:   8134.99
	FillingsUpdate:  mu: +0.145188983  nElectrons: 448.000000  magneticMoment: [ Abs: 0.00018  Tot: -0.00014 ]
	SubspaceRotationAdjust: set factor to 0.0203
ElecMinimize: Iter:  33  F: -2491.167537545935375  |grad|_K:  2.207e-07  alpha:  5.086e-01  linmin:  5.466e-08  t[s]:   8275.10
	FillingsUpdate:  mu: +0.145394932  nElectrons: 448.000000  magneticMoment: [ Abs: 0.00017  Tot: -0.00013 ]
	SubspaceRotationAdjust: set factor to 0.0172
ElecMinimize: Iter:  34  F: -2491.167549718958981  |grad|_K:  2.196e-07  alpha:  3.641e-01  linmin:  2.052e-08  t[s]:   8414.79
	FillingsUpdate:  mu: +0.145418144  nElectrons: 448.000000  magneticMoment: [ Abs: 0.00017  Tot: -0.00013 ]
	SubspaceRotationAdjust: set factor to 0.017
ElecMinimize: Iter:  35  F: -2491.167562489556531  |grad|_K:  1.874e-07  alpha:  3.856e-01  linmin:  5.501e-08  t[s]:   8554.64
	FillingsUpdate:  mu: +0.145417822  nElectrons: 448.000000  magneticMoment: [ Abs: 0.00017  Tot: -0.00013 ]
	SubspaceRotationAdjust: set factor to 0.0188
ElecMinimize: Iter:  36  F: -2491.167574804410833  |grad|_K:  1.770e-07  alpha:  5.108e-01  linmin: -7.543e-08  t[s]:   8694.57
	FillingsUpdate:  mu: +0.145613410  nElectrons: 448.000000  magneticMoment: [ Abs: 0.00016  Tot: -0.00013 ]
	SubspaceRotationAdjust: set factor to 0.0175
ElecMinimize: Iter:  37  F: -2491.167583694299992  |grad|_K:  1.751e-07  alpha:  4.132e-01  linmin:  9.621e-09  t[s]:   8834.25
	FillingsUpdate:  mu: +0.145713475  nElectrons: 448.000000  magneticMoment: [ Abs: 0.00016  Tot: -0.00013 ]
	SubspaceRotationAdjust: set factor to 0.016
ElecMinimize: Iter:  38  F: -2491.167591027061917  |grad|_K:  1.468e-07  alpha:  3.482e-01  linmin: -5.210e-09  t[s]:   8973.93
	FillingsUpdate:  mu: +0.145605078  nElectrons: 448.000000  magneticMoment: [ Abs: 0.00016  Tot: -0.00013 ]
	SubspaceRotationAdjust: set factor to 0.0182
ElecMinimize: Iter:  39  F: -2491.167597729954650  |grad|_K:  1.309e-07  alpha:  4.526e-01  linmin: -3.421e-08  t[s]:   9113.69
	FillingsUpdate:  mu: +0.145620115  nElectrons: 448.000000  magneticMoment: [ Abs: 0.00015  Tot: -0.00013 ]
	SubspaceRotationAdjust: set factor to 0.0197
ElecMinimize: Iter:  40  F: -2491.167603393012541  |grad|_K:  1.276e-07  alpha:  4.813e-01  linmin: -3.767e-08  t[s]:   9254.34
	FillingsUpdate:  mu: +0.145711863  nElectrons: 448.000000  magneticMoment: [ Abs: 0.00015  Tot: -0.00012 ]
	SubspaceRotationAdjust: set factor to 0.0182
ElecMinimize: Iter:  41  F: -2491.167607892462456  |grad|_K:  1.354e-07  alpha:  4.024e-01  linmin: -2.493e-08  t[s]:   9393.99
	FillingsUpdate:  mu: +0.145709226  nElectrons: 448.000000  magneticMoment: [ Abs: 0.00015  Tot: -0.00012 ]
	SubspaceRotationAdjust: set factor to 0.0178
ElecMinimize: Iter:  42  F: -2491.167612994657247  |grad|_K:  1.216e-07  alpha:  4.055e-01  linmin:  1.737e-08  t[s]:   9533.83
	FillingsUpdate:  mu: +0.145567716  nElectrons: 448.000000  magneticMoment: [ Abs: 0.00014  Tot: -0.00012 ]
	SubspaceRotationAdjust: set factor to 0.0196
ElecMinimize: Iter:  43  F: -2491.167618262649285  |grad|_K:  1.196e-07  alpha:  5.184e-01  linmin:  6.278e-08  t[s]:   9673.80
	FillingsUpdate:  mu: +0.145602615  nElectrons: 448.000000  magneticMoment: [ Abs: 0.00014  Tot: -0.00012 ]
	SubspaceRotationAdjust: set factor to 0.0199
ElecMinimize: Iter:  44  F: -2491.167623188596735  |grad|_K:  1.214e-07  alpha:  5.017e-01  linmin:  4.373e-08  t[s]:   9813.54
	FillingsUpdate:  mu: +0.145637876  nElectrons: 448.000000  magneticMoment: [ Abs: 0.00014  Tot: -0.00012 ]
	SubspaceRotationAdjust: set factor to 0.017
ElecMinimize: Iter:  45  F: -2491.167626966321222  |grad|_K:  1.173e-07  alpha:  3.734e-01  linmin: -1.460e-08  t[s]:   9953.58
	FillingsUpdate:  mu: +0.145572410  nElectrons: 448.000000  magneticMoment: [ Abs: 0.00013  Tot: -0.00012 ]
	SubspaceRotationAdjust: set factor to 0.0156
ElecMinimize: Iter:  46  F: -2491.167630286246549  |grad|_K:  9.392e-08  alpha:  3.510e-01  linmin:  1.788e-08  t[s]:  10093.44
	FillingsUpdate:  mu: +0.145502215  nElectrons: 448.000000  magneticMoment: [ Abs: 0.00013  Tot: -0.00011 ]
	SubspaceRotationAdjust: set factor to 0.0172
ElecMinimize: Iter:  47  F: -2491.167633084227873  |grad|_K:  7.844e-08  alpha:  4.618e-01  linmin:  4.444e-08  t[s]:  10233.42
	FillingsUpdate:  mu: +0.145555045  nElectrons: 448.000000  magneticMoment: [ Abs: 0.00013  Tot: -0.00011 ]
	SubspaceRotationAdjust: set factor to 0.0171
ElecMinimize: Iter:  48  F: -2491.167634818837541  |grad|_K:  6.858e-08  alpha:  4.105e-01  linmin: -2.427e-07  t[s]:  10373.92
	FillingsUpdate:  mu: +0.145578594  nElectrons: 448.000000  magneticMoment: [ Abs: 0.00013  Tot: -0.00011 ]
	SubspaceRotationAdjust: set factor to 0.0153
ElecMinimize: Iter:  49  F: -2491.167635992725081  |grad|_K:  5.770e-08  alpha:  3.633e-01  linmin:  1.087e-07  t[s]:  10513.44
	FillingsUpdate:  mu: +0.145548729  nElectrons: 448.000000  magneticMoment: [ Abs: 0.00013  Tot: -0.00011 ]
	SubspaceRotationAdjust: set factor to 0.0163
ElecMinimize: Iter:  50  F: -2491.167636860891889  |grad|_K:  4.524e-08  alpha:  3.799e-01  linmin:  3.549e-07  t[s]:  10653.40
	FillingsUpdate:  mu: +0.145555689  nElectrons: 448.000000  magneticMoment: [ Abs: 0.00013  Tot: -0.00011 ]
	SubspaceRotationAdjust: set factor to 0.0185
ElecMinimize: Iter:  51  F: -2491.167637527236820  |grad|_K:  3.976e-08  alpha:  4.747e-01  linmin:  1.288e-07  t[s]:  10793.49
	FillingsUpdate:  mu: +0.145595577  nElectrons: 448.000000  magneticMoment: [ Abs: 0.00012  Tot: -0.00011 ]
	SubspaceRotationAdjust: set factor to 0.0182
ElecMinimize: Iter:  52  F: -2491.167637980576728  |grad|_K:  3.842e-08  alpha:  4.174e-01  linmin: -1.758e-07  t[s]:  10933.51
	FillingsUpdate:  mu: +0.145611737  nElectrons: 448.000000  magneticMoment: [ Abs: 0.00012  Tot: -0.00011 ]
	SubspaceRotationAdjust: set factor to 0.0169
ElecMinimize: Iter:  53  F: -2491.167638354136216  |grad|_K:  3.355e-08  alpha:  3.684e-01  linmin:  8.401e-07  t[s]:  11073.56
	FillingsUpdate:  mu: +0.145606790  nElectrons: 448.000000  magneticMoment: [ Abs: 0.00012  Tot: -0.00011 ]
	SubspaceRotationAdjust: set factor to 0.0181
ElecMinimize: Iter:  54  F: -2491.167638697478196  |grad|_K:  2.987e-08  alpha:  4.442e-01  linmin: -9.403e-07  t[s]:  11213.95
	FillingsUpdate:  mu: +0.145639143  nElectrons: 448.000000  magneticMoment: [ Abs: 0.00012  Tot: -0.00011 ]
	SubspaceRotationAdjust: set factor to 0.0197
ElecMinimize: Iter:  55  F: -2491.167638996125334  |grad|_K:  2.668e-08  alpha:  4.872e-01  linmin:  2.282e-07  t[s]:  11354.50
	FillingsUpdate:  mu: +0.145666521  nElectrons: 448.000000  magneticMoment: [ Abs: 0.00012  Tot: -0.00011 ]
	SubspaceRotationAdjust: set factor to 0.0186
ElecMinimize: Iter:  56  F: -2491.167639203830277  |grad|_K:  2.590e-08  alpha:  4.249e-01  linmin:  6.531e-07  t[s]:  11494.38
	FillingsUpdate:  mu: +0.145670399  nElectrons: 448.000000  magneticMoment: [ Abs: 0.00012  Tot: -0.00011 ]
	SubspaceRotationAdjust: set factor to 0.0161
ElecMinimize: Iter:  57  F: -2491.167639358496217  |grad|_K:  2.188e-08  alpha:  3.362e-01  linmin: -6.846e-07  t[s]:  11635.51
	FillingsUpdate:  mu: +0.145673480  nElectrons: 448.000000  magneticMoment: [ Abs: 0.00012  Tot: -0.00011 ]
	SubspaceRotationAdjust: set factor to 0.0168
ElecMinimize: Iter:  58  F: -2491.167639492043236  |grad|_K:  1.781e-08  alpha:  4.052e-01  linmin: -6.890e-07  t[s]:  11775.22
	FillingsUpdate:  mu: +0.145696942  nElectrons: 448.000000  magneticMoment: [ Abs: 0.00012  Tot: -0.00011 ]
	SubspaceRotationAdjust: set factor to 0.0188
ElecMinimize: Iter:  59  F: -2491.167639590996259  |grad|_K:  1.551e-08  alpha:  4.548e-01  linmin: -5.109e-07  t[s]:  11914.29
	FillingsUpdate:  mu: +0.145704586  nElectrons: 448.000000  magneticMoment: [ Abs: 0.00012  Tot: -0.00010 ]
	SubspaceRotationAdjust: set factor to 0.0187
ElecMinimize: Iter:  60  F: -2491.167639662623969  |grad|_K:  1.516e-08  alpha:  4.342e-01  linmin:  3.027e-06  t[s]:  12054.25
ElecMinimize: Converged (|Delta F|<1.000000e-07 for 2 iters).
Setting wave functions to eigenvectors of Hamiltonian
Converging empty states (this may take a while): |deigs|: 2.607e-03
Vacuum energy after initial minimize, F = -2491.167639662623969


-------- Electronic minimization -----------
	Linear fluid (dielectric constant: 78.4, screening length: 8.12261 Bohr) occupying 0.558611 of unit cell:	Completed after 28 iterations at t[s]:  12702.36
	FillingsUpdate:  mu: -0.194771007  nElectrons: 448.000000  magneticMoment: [ Abs: 0.00009  Tot: -0.00009 ]
ElecMinimize: Iter:   0  F: -2491.172585225689545  |grad|_K:  1.316e-06  alpha:  1.000e+00
	Linear fluid (dielectric constant: 78.4, screening length: 8.12261 Bohr) occupying 0.559095 of unit cell:	Completed after 23 iterations at t[s]:  12820.65
	Linear fluid (dielectric constant: 78.4, screening length: 8.12261 Bohr) occupying 0.558716 of unit cell:	Completed after 22 iterations at t[s]:  12860.52
	FillingsUpdate:  mu: -0.193605382  nElectrons: 448.000000  magneticMoment: [ Abs: 0.00009  Tot: -0.00009 ]
	SubspaceRotationAdjust: set factor to 0.022
ElecMinimize: Iter:   1  F: -2491.172875996620860  |grad|_K:  4.638e-07  alpha:  2.448e-01  linmin:  1.227e-05  t[s]:  12917.27
	Linear fluid (dielectric constant: 78.4, screening length: 8.12261 Bohr) occupying 0.558826 of unit cell:	Completed after 11 iterations at t[s]:  12968.55
	Linear fluid (dielectric constant: 78.4, screening length: 8.12261 Bohr) occupying 0.559029 of unit cell:	Completed after 16 iterations at t[s]:  13007.55
	FillingsUpdate:  mu: -0.191960662  nElectrons: 448.000000  magneticMoment: [ Abs: 0.00009  Tot: -0.00009 ]
	SubspaceRotationAdjust: set factor to 0.0236
ElecMinimize: Iter:   2  F: -2491.172978474048250  |grad|_K:  3.894e-07  alpha:  6.947e-01  linmin: -3.876e-08  t[s]:  13065.27
	Linear fluid (dielectric constant: 78.4, screening length: 8.12261 Bohr) occupying 0.559417 of unit cell:	Completed after 13 iterations at t[s]:  13116.61
	Linear fluid (dielectric constant: 78.4, screening length: 8.12261 Bohr) occupying 0.559374 of unit cell:	Completed after 4 iterations at t[s]:  13153.47
	FillingsUpdate:  mu: -0.191386553  nElectrons: 448.000000  magneticMoment: [ Abs: 0.00009  Tot: -0.00009 ]
	SubspaceRotationAdjust: set factor to 0.0271
ElecMinimize: Iter:   3  F: -2491.173042736066236  |grad|_K:  2.997e-07  alpha:  6.171e-01  linmin:  1.220e-07  t[s]:  13210.32
	Linear fluid (dielectric constant: 78.4, screening length: 8.12261 Bohr) occupying 0.559629 of unit cell:	Completed after 12 iterations at t[s]:  13261.66
	Linear fluid (dielectric constant: 78.4, screening length: 8.12261 Bohr) occupying 0.559600 of unit cell:	Completed after 2 iterations at t[s]:  13298.27
	FillingsUpdate:  mu: -0.190769168  nElectrons: 448.000000  magneticMoment: [ Abs: 0.00009  Tot: -0.00009 ]
	SubspaceRotationAdjust: set factor to 0.0336
ElecMinimize: Iter:   4  F: -2491.173076356411457  |grad|_K:  2.190e-07  alpha:  5.450e-01  linmin:  1.106e-06  t[s]:  13355.29
	Linear fluid (dielectric constant: 78.4, screening length: 8.12261 Bohr) occupying 0.559722 of unit cell:	Completed after 10 iterations at t[s]:  13406.62
	Linear fluid (dielectric constant: 78.4, screening length: 8.12261 Bohr) occupying 0.559771 of unit cell:	Completed after 7 iterations at t[s]:  13443.91
	FillingsUpdate:  mu: -0.190463362  nElectrons: 448.000000  magneticMoment: [ Abs: 0.00009  Tot: -0.00009 ]
	SubspaceRotationAdjust: set factor to 0.0405
ElecMinimize: Iter:   5  F: -2491.173101475112162  |grad|_K:  2.195e-07  alpha:  7.653e-01  linmin:  5.932e-07  t[s]:  13500.71
	Linear fluid (dielectric constant: 78.4, screening length: 8.12261 Bohr) occupying 0.559919 of unit cell:	Completed after 15 iterations at t[s]:  13552.62
	Linear fluid (dielectric constant: 78.4, screening length: 8.12261 Bohr) occupying 0.559912 of unit cell:	Completed after 2 iterations at t[s]:  13589.10
	FillingsUpdate:  mu: -0.189656255  nElectrons: 448.000000  magneticMoment: [ Abs: 0.00009  Tot: -0.00008 ]
	SubspaceRotationAdjust: set factor to 0.0416
ElecMinimize: Iter:   6  F: -2491.173125508623343  |grad|_K:  2.728e-07  alpha:  7.281e-01  linmin: -8.999e-09  t[s]:  13646.08
	Linear fluid (dielectric constant: 78.4, screening length: 8.12261 Bohr) occupying 0.560098 of unit cell:	Completed after 13 iterations at t[s]:  13697.76
	Linear fluid (dielectric constant: 78.4, screening length: 8.12261 Bohr) occupying 0.560013 of unit cell:	Completed after 11 iterations at t[s]:  13735.83
	FillingsUpdate:  mu: -0.189412768  nElectrons: 448.000000  magneticMoment: [ Abs: 0.00009  Tot: -0.00008 ]
	SubspaceRotationAdjust: set factor to 0.0345
ElecMinimize: Iter:   7  F: -2491.173145319387459  |grad|_K:  2.757e-07  alpha:  3.901e-01  linmin:  6.161e-08  t[s]:  13792.83
	Linear fluid (dielectric constant: 78.4, screening length: 8.12261 Bohr) occupying 0.560099 of unit cell:	Completed after 11 iterations at t[s]:  13844.14
	Linear fluid (dielectric constant: 78.4, screening length: 8.12261 Bohr) occupying 0.560125 of unit cell:	Completed after 8 iterations at t[s]:  13881.85
	FillingsUpdate:  mu: -0.189104112  nElectrons: 448.000000  magneticMoment: [ Abs: 0.00009  Tot: -0.00008 ]
	SubspaceRotationAdjust: set factor to 0.0319
ElecMinimize: Iter:   8  F: -2491.173171981864016  |grad|_K:  2.329e-07  alpha:  5.111e-01  linmin: -4.672e-08  t[s]:  13938.85
	Linear fluid (dielectric constant: 78.4, screening length: 8.12261 Bohr) occupying 0.560186 of unit cell:	Completed after 12 iterations at t[s]:  13990.27
	Linear fluid (dielectric constant: 78.4, screening length: 8.12261 Bohr) occupying 0.560208 of unit cell:	Completed after 9 iterations at t[s]:  14027.93
	FillingsUpdate:  mu: -0.187858375  nElectrons: 448.000000  magneticMoment: [ Abs: 0.00008  Tot: -0.00008 ]
	SubspaceRotationAdjust: set factor to 0.033
ElecMinimize: Iter:   9  F: -2491.173198289504398  |grad|_K:  2.217e-07  alpha:  7.039e-01  linmin: -4.747e-07  t[s]:  14084.87
	Linear fluid (dielectric constant: 78.4, screening length: 8.12261 Bohr) occupying 0.560264 of unit cell:	Completed after 12 iterations at t[s]:  14136.51
	Linear fluid (dielectric constant: 78.4, screening length: 8.12261 Bohr) occupying 0.560255 of unit cell:	Completed after 6 iterations at t[s]:  14173.63
	FillingsUpdate:  mu: -0.188834869  nElectrons: 448.000000  magneticMoment: [ Abs: 0.00008  Tot: -0.00008 ]
	SubspaceRotationAdjust: set factor to 0.0323
ElecMinimize: Iter:  10  F: -2491.173218227040707  |grad|_K:  2.051e-07  alpha:  5.874e-01  linmin: -6.276e-08  t[s]:  14230.97
	Linear fluid (dielectric constant: 78.4, screening length: 8.12261 Bohr) occupying 0.560288 of unit cell:	Completed after 12 iterations at t[s]:  14283.23
	Linear fluid (dielectric constant: 78.4, screening length: 8.12261 Bohr) occupying 0.560286 of unit cell:	Completed after 2 iterations at t[s]:  14319.70
	FillingsUpdate:  mu: -0.187623526  nElectrons: 448.000000  magneticMoment: [ Abs: 0.00008  Tot: -0.00008 ]
	SubspaceRotationAdjust: set factor to 0.0319
ElecMinimize: Iter:  11  F: -2491.173234419794881  |grad|_K:  1.749e-07  alpha:  5.603e-01  linmin:  6.733e-08  t[s]:  14376.62
	Linear fluid (dielectric constant: 78.4, screening length: 8.12261 Bohr) occupying 0.560306 of unit cell:	Completed after 11 iterations at t[s]:  14428.09
	Linear fluid (dielectric constant: 78.4, screening length: 8.12261 Bohr) occupying 0.560307 of unit cell:	Completed after 2 iterations at t[s]:  14464.51
	FillingsUpdate:  mu: -0.188085419  nElectrons: 448.000000  magneticMoment: [ Abs: 0.00008  Tot: -0.00007 ]
	SubspaceRotationAdjust: set factor to 0.0336
ElecMinimize: Iter:  12  F: -2491.173246881628984  |grad|_K:  1.514e-07  alpha:  5.932e-01  linmin: -4.490e-07  t[s]:  14521.41
	Linear fluid (dielectric constant: 78.4, screening length: 8.12261 Bohr) occupying 0.560325 of unit cell:	Completed after 10 iterations at t[s]:  14572.67
	Linear fluid (dielectric constant: 78.4, screening length: 8.12261 Bohr) occupying 0.560323 of unit cell:	Completed after 2 iterations at t[s]:  14609.39
	FillingsUpdate:  mu: -0.188068747  nElectrons: 448.000000  magneticMoment: [ Abs: 0.00008  Tot: -0.00007 ]
	SubspaceRotationAdjust: set factor to 0.0327
ElecMinimize: Iter:  13  F: -2491.173255483902722  |grad|_K:  1.472e-07  alpha:  5.429e-01  linmin:  5.200e-07  t[s]:  14666.74
	Linear fluid (dielectric constant: 78.4, screening length: 8.12261 Bohr) occupying 0.560345 of unit cell:	Completed after 10 iterations at t[s]:  14718.07
	Linear fluid (dielectric constant: 78.4, screening length: 8.12261 Bohr) occupying 0.560340 of unit cell:	Completed after 7 iterations at t[s]:  14755.63
	FillingsUpdate:  mu: -0.187780174  nElectrons: 448.000000  magneticMoment: [ Abs: 0.00008  Tot: -0.00007 ]
	SubspaceRotationAdjust: set factor to 0.0276
ElecMinimize: Iter:  14  F: -2491.173261551785345  |grad|_K:  1.243e-07  alpha:  4.118e-01  linmin: -1.893e-07  t[s]:  14812.59
	Linear fluid (dielectric constant: 78.4, screening length: 8.12261 Bohr) occupying 0.560357 of unit cell:	Completed after 9 iterations at t[s]:  14864.49
	Linear fluid (dielectric constant: 78.4, screening length: 8.12261 Bohr) occupying 0.560362 of unit cell:	Completed after 6 iterations at t[s]:  14901.65
	FillingsUpdate:  mu: -0.188025633  nElectrons: 448.000000  magneticMoment: [ Abs: 0.00008  Tot: -0.00007 ]
	SubspaceRotationAdjust: set factor to 0.0273
ElecMinimize: Iter:  15  F: -2491.173267324442349  |grad|_K:  9.995e-08  alpha:  5.425e-01  linmin: -1.866e-07  t[s]:  14958.63
	Linear fluid (dielectric constant: 78.4, screening length: 8.12261 Bohr) occupying 0.560386 of unit cell:	Completed after 3 iterations at t[s]:  15008.65
	Linear fluid (dielectric constant: 78.4, screening length: 8.12261 Bohr) occupying 0.560389 of unit cell:	Completed after 2 iterations at t[s]:  15045.34
	FillingsUpdate:  mu: -0.188021281  nElectrons: 448.000000  magneticMoment: [ Abs: 0.00007  Tot: -0.00007 ]
	SubspaceRotationAdjust: set factor to 0.0308
ElecMinimize: Iter:  16  F: -2491.173271624787958  |grad|_K:  8.327e-08  alpha:  6.259e-01  linmin:  1.487e-07  t[s]:  15103.01
	Linear fluid (dielectric constant: 78.4, screening length: 8.12261 Bohr) occupying 0.560415 of unit cell:	Completed after 7 iterations at t[s]:  15153.77
	Linear fluid (dielectric constant: 78.4, screening length: 8.12261 Bohr) occupying 0.560414 of unit cell:	Completed after 0 iterations at t[s]:  15189.81
	FillingsUpdate:  mu: -0.187882902  nElectrons: 448.000000  magneticMoment: [ Abs: 0.00007  Tot: -0.00007 ]
	SubspaceRotationAdjust: set factor to 0.0326
ElecMinimize: Iter:  17  F: -2491.173274492239671  |grad|_K:  7.205e-08  alpha:  6.032e-01  linmin:  2.695e-08  t[s]:  15246.91
	Linear fluid (dielectric constant: 78.4, screening length: 8.12261 Bohr) occupying 0.560437 of unit cell:	Completed after 10 iterations at t[s]:  15297.93
	Linear fluid (dielectric constant: 78.4, screening length: 8.12261 Bohr) occupying 0.560431 of unit cell:	Completed after 4 iterations at t[s]:  15334.69
	FillingsUpdate:  mu: -0.188054255  nElectrons: 448.000000  magneticMoment: [ Abs: 0.00007  Tot: -0.00007 ]
	SubspaceRotationAdjust: set factor to 0.0286
ElecMinimize: Iter:  18  F: -2491.173276088983584  |grad|_K:  6.623e-08  alpha:  4.492e-01  linmin:  3.078e-07  t[s]:  15391.52
	Linear fluid (dielectric constant: 78.4, screening length: 8.12261 Bohr) occupying 0.560447 of unit cell:	Completed after 9 iterations at t[s]:  15442.37
	Linear fluid (dielectric constant: 78.4, screening length: 8.12261 Bohr) occupying 0.560445 of unit cell:	Completed after 2 iterations at t[s]:  15479.10
	FillingsUpdate:  mu: -0.187987408  nElectrons: 448.000000  magneticMoment: [ Abs: 0.00007  Tot: -0.00007 ]
	SubspaceRotationAdjust: set factor to 0.0247
ElecMinimize: Iter:  19  F: -2491.173277263413638  |grad|_K:  4.974e-08  alpha:  3.922e-01  linmin:  1.268e-07  t[s]:  15536.34
	Linear fluid (dielectric constant: 78.4, screening length: 8.12261 Bohr) occupying 0.560453 of unit cell:	Completed after 5 iterations at t[s]:  15586.68
	Linear fluid (dielectric constant: 78.4, screening length: 8.12261 Bohr) occupying 0.560455 of unit cell:	Completed after 2 iterations at t[s]:  15623.17
	FillingsUpdate:  mu: -0.187909770  nElectrons: 448.000000  magneticMoment: [ Abs: 0.00007  Tot: -0.00007 ]
	SubspaceRotationAdjust: set factor to 0.0289
ElecMinimize: Iter:  20  F: -2491.173278185417075  |grad|_K:  3.830e-08  alpha:  5.401e-01  linmin: -2.792e-06  t[s]:  15680.66
	Linear fluid (dielectric constant: 78.4, screening length: 8.12261 Bohr) occupying 0.560460 of unit cell:	Completed after 4 iterations at t[s]:  15730.81
	Linear fluid (dielectric constant: 78.4, screening length: 8.12261 Bohr) occupying 0.560461 of unit cell:	Completed after 0 iterations at t[s]:  15767.66
	FillingsUpdate:  mu: -0.187973279  nElectrons: 448.000000  magneticMoment: [ Abs: 0.00007  Tot: -0.00007 ]
	SubspaceRotationAdjust: set factor to 0.0326
ElecMinimize: Iter:  21  F: -2491.173278814076184  |grad|_K:  3.348e-08  alpha:  6.104e-01  linmin: -3.480e-06  t[s]:  15824.83
	Linear fluid (dielectric constant: 78.4, screening length: 8.12261 Bohr) occupying 0.560463 of unit cell:	Completed after 6 iterations at t[s]:  15875.13
	Linear fluid (dielectric constant: 78.4, screening length: 8.12261 Bohr) occupying 0.560463 of unit cell:	Completed after 0 iterations at t[s]:  15911.11
	FillingsUpdate:  mu: -0.188004689  nElectrons: 448.000000  magneticMoment: [ Abs: 0.00007  Tot: -0.00007 ]
	SubspaceRotationAdjust: set factor to 0.0325
ElecMinimize: Iter:  22  F: -2491.173279258433467  |grad|_K:  3.455e-08  alpha:  5.616e-01  linmin:  5.575e-06  t[s]:  15968.35
	Linear fluid (dielectric constant: 78.4, screening length: 8.12261 Bohr) occupying 0.560464 of unit cell:	Completed after 6 iterations at t[s]:  16019.01
	Linear fluid (dielectric constant: 78.4, screening length: 8.12261 Bohr) occupying 0.560463 of unit cell:	Completed after 2 iterations at t[s]:  16055.50
	FillingsUpdate:  mu: -0.187935310  nElectrons: 448.000000  magneticMoment: [ Abs: 0.00007  Tot: -0.00007 ]
	SubspaceRotationAdjust: set factor to 0.0306
ElecMinimize: Iter:  23  F: -2491.173279600389378  |grad|_K:  3.059e-08  alpha:  4.400e-01  linmin: -1.385e-07  t[s]:  16112.78
	Linear fluid (dielectric constant: 78.4, screening length: 8.12261 Bohr) occupying 0.560462 of unit cell:	Completed after 3 iterations at t[s]:  16162.81
	Linear fluid (dielectric constant: 78.4, screening length: 8.12261 Bohr) occupying 0.560462 of unit cell:	Completed after 0 iterations at t[s]:  16199.09
	FillingsUpdate:  mu: -0.187978497  nElectrons: 448.000000  magneticMoment: [ Abs: 0.00007  Tot: -0.00006 ]
	SubspaceRotationAdjust: set factor to 0.0356
ElecMinimize: Iter:  24  F: -2491.173279939987424  |grad|_K:  2.589e-08  alpha:  5.260e-01  linmin: -4.710e-06  t[s]:  16256.21
	Linear fluid (dielectric constant: 78.4, screening length: 8.12261 Bohr) occupying 0.560460 of unit cell:	Completed after 4 iterations at t[s]:  16306.44
	Linear fluid (dielectric constant: 78.4, screening length: 8.12261 Bohr) occupying 0.560460 of unit cell:	Completed after 0 iterations at t[s]:  16342.49
	FillingsUpdate:  mu: -0.188052945  nElectrons: 448.000000  magneticMoment: [ Abs: 0.00007  Tot: -0.00006 ]
	SubspaceRotationAdjust: set factor to 0.0384
ElecMinimize: Iter:  25  F: -2491.173280197738677  |grad|_K:  2.845e-08  alpha:  5.391e-01  linmin: -9.224e-06  t[s]:  16399.54
	Linear fluid (dielectric constant: 78.4, screening length: 8.12261 Bohr) occupying 0.560457 of unit cell:	Completed after 6 iterations at t[s]:  16449.82
	Linear fluid (dielectric constant: 78.4, screening length: 8.12261 Bohr) occupying 0.560458 of unit cell:	Completed after 2 iterations at t[s]:  16486.37
	FillingsUpdate:  mu: -0.187983310  nElectrons: 448.000000  magneticMoment: [ Abs: 0.00007  Tot: -0.00006 ]
	SubspaceRotationAdjust: set factor to 0.0327
ElecMinimize: Iter:  26  F: -2491.173280392083143  |grad|_K:  2.645e-08  alpha:  3.239e-01  linmin:  4.672e-06  t[s]:  16543.66
	Linear fluid (dielectric constant: 78.4, screening length: 8.12261 Bohr) occupying 0.560456 of unit cell:	Completed after 2 iterations at t[s]:  16593.36
	Linear fluid (dielectric constant: 78.4, screening length: 8.12261 Bohr) occupying 0.560455 of unit cell:	Completed after 0 iterations at t[s]:  16629.46
	FillingsUpdate:  mu: -0.187999972  nElectrons: 448.000000  magneticMoment: [ Abs: 0.00007  Tot: -0.00006 ]
	SubspaceRotationAdjust: set factor to 0.0437
ElecMinimize: Iter:  27  F: -2491.173280619378602  |grad|_K:  2.315e-08  alpha:  4.844e-01  linmin: -5.591e-06  t[s]:  16686.54
	Linear fluid (dielectric constant: 78.4, screening length: 8.12261 Bohr) occupying 0.560453 of unit cell:	Completed after 6 iterations at t[s]:  16737.16
	Linear fluid (dielectric constant: 78.4, screening length: 8.12261 Bohr) occupying 0.560454 of unit cell:	Completed after 2 iterations at t[s]:  16773.72
	FillingsUpdate:  mu: -0.188100485  nElectrons: 448.000000  magneticMoment: [ Abs: 0.00006  Tot: -0.00006 ]
	SubspaceRotationAdjust: set factor to 0.0386
ElecMinimize: Iter:  28  F: -2491.173280733148658  |grad|_K:  2.753e-08  alpha:  3.238e-01  linmin: -2.125e-06  t[s]:  16830.72
	Linear fluid (dielectric constant: 78.4, screening length: 8.12261 Bohr) occupying 0.560452 of unit cell:	Completed after 6 iterations at t[s]:  16881.23
	Linear fluid (dielectric constant: 78.4, screening length: 8.12261 Bohr) occupying 0.560452 of unit cell:	Completed after 0 iterations at t[s]:  16917.24
	FillingsUpdate:  mu: -0.188098833  nElectrons: 448.000000  magneticMoment: [ Abs: 0.00006  Tot: -0.00006 ]
	SubspaceRotationAdjust: set factor to 0.0398
ElecMinimize: Iter:  29  F: -2491.173280876932495  |grad|_K:  1.987e-08  alpha:  2.702e-01  linmin:  3.722e-06  t[s]:  16974.46
	Linear fluid (dielectric constant: 78.4, screening length: 8.12261 Bohr) occupying 0.560451 of unit cell:	Completed after 2 iterations at t[s]:  17024.15
	Linear fluid (dielectric constant: 78.4, screening length: 8.12261 Bohr) occupying 0.560451 of unit cell:	Completed after 2 iterations at t[s]:  17060.69
	FillingsUpdate:  mu: -0.188056952  nElectrons: 448.000000  magneticMoment: [ Abs: 0.00006  Tot: -0.00006 ]
	SubspaceRotationAdjust: set factor to 0.0435
ElecMinimize: Iter:  30  F: -2491.173281009831953  |grad|_K:  1.731e-08  alpha:  4.997e-01  linmin: -4.640e-06  t[s]:  17118.02
	Linear fluid (dielectric constant: 78.4, screening length: 8.12261 Bohr) occupying 0.560450 of unit cell:	Completed after 3 iterations at t[s]:  17168.00
	Linear fluid (dielectric constant: 78.4, screening length: 8.12261 Bohr) occupying 0.560450 of unit cell:	Completed after 0 iterations at t[s]:  17204.05
	FillingsUpdate:  mu: -0.188089154  nElectrons: 448.000000  magneticMoment: [ Abs: 0.00006  Tot: -0.00006 ]
	SubspaceRotationAdjust: set factor to 0.0462
ElecMinimize: Iter:  31  F: -2491.173281116967246  |grad|_K:  1.570e-08  alpha:  5.041e-01  linmin: -4.050e-07  t[s]:  17262.66
	Linear fluid (dielectric constant: 78.4, screening length: 8.12261 Bohr) occupying 0.560450 of unit cell:	Completed after 2 iterations at t[s]:  17312.53
	Linear fluid (dielectric constant: 78.4, screening length: 8.12261 Bohr) occupying 0.560450 of unit cell:	Completed after 0 iterations at t[s]:  17348.50
	FillingsUpdate:  mu: -0.188144770  nElectrons: 448.000000  magneticMoment: [ Abs: 0.00006  Tot: -0.00006 ]
	SubspaceRotationAdjust: set factor to 0.0484
ElecMinimize: Iter:  32  F: -2491.173281192267495  |grad|_K:  1.426e-08  alpha:  4.468e-01  linmin: -2.146e-07  t[s]:  17405.74
	Linear fluid (dielectric constant: 78.4, screening length: 8.12261 Bohr) occupying 0.560450 of unit cell:	Completed after 2 iterations at t[s]:  17455.68
	Linear fluid (dielectric constant: 78.4, screening length: 8.12261 Bohr) occupying 0.560450 of unit cell:	Completed after 0 iterations at t[s]:  17491.74
	FillingsUpdate:  mu: -0.188123317  nElectrons: 448.000000  magneticMoment: [ Abs: 0.00006  Tot: -0.00006 ]
	SubspaceRotationAdjust: set factor to 0.0412
ElecMinimize: Iter:  33  F: -2491.173281243195106  |grad|_K:  1.310e-08  alpha:  3.620e-01  linmin:  1.599e-05  t[s]:  17548.89
ElecMinimize: Converged (|Delta F|<1.000000e-07 for 2 iters).
Setting wave functions to eigenvectors of Hamiltonian
Converging empty states (this may take a while): |deigs|: 5.087e-05
Single-point solvation energy estimate, DeltaF = -0.005641580571137

Computing DFT-D3 correction:
# coordination-number Pt 4.786 6.347 7.939 9.523 9.554 9.560 9.562 9.562 9.563 9.562 9.558 9.549 8.741 7.152 7.152 8.741 9.549 9.558 9.562 9.562 9.563 9.561 9.562 9.554 9.523 7.939 6.347 4.786
# diagonal-C6 Pt 336.87 336.87 336.87 336.87 336.87 336.87 336.87 336.87 336.87 336.87 336.87 336.87 336.87 336.87 336.87 336.87 336.87 336.87 336.87 336.87 336.87 336.87 336.87 336.87 336.87 336.87 336.87 336.87
EvdW_6 =   -0.253879
EvdW_8 =   -0.405405

# Ionic positions in cartesian coordinates:
ion Pt   9.062080999999999   0.000000000000000  27.190743000000001 1
ion Pt   6.041388000000000   6.458519999999999   1.483119000000000 1
ion Pt   6.041391000000001   1.614627000000000   3.460666999999999 1
ion Pt   3.020697000000001   8.073146999999999   5.438132000000000 1
ion Pt   3.020691000000000   3.229254000000000   7.415679999999999 1
ion Pt  -0.000002000000000   9.687773999999999   9.393144999999999 1
ion Pt   0.000000000000000   4.843880999999999  11.370691999999998 1
ion Pt   6.041388000000000   6.458519999999999  15.325704999999999 1
ion Pt   9.062080999999999   0.000000000000000  13.348156999999999 1
ion Pt   6.041391000000001   1.614627000000000  17.303169999999998 1
ion Pt   3.020697000000001   8.073146999999999  19.280716999999999 1
ion Pt   3.020691000000000   3.229254000000000  21.258182000000001 1
ion Pt  -0.000002000000000   9.687773999999999  23.235730000000000 1
ion Pt   0.000000000000000   4.843880999999999  25.213194999999995 1
ion Pt   1.510344000000000   4.036573000000000   2.471893000000000 1
ion Pt  -1.510346000000000  10.495081999999998   4.449357999999999 1
ion Pt   7.551735000000001   5.651199999999999   6.426906000000000 1
ion Pt   7.551735000000000   0.807319000000000   8.404370999999998 1
ion Pt   4.531044000000000   7.265828000000000  10.381917999999999 1
ion Pt   4.531044000000000   2.421946000000000  12.359465999999998 1
ion Pt   1.510344000000000   8.880454999999998  14.336930999999998 1
ion Pt  -1.510346000000000  10.495081999999998  18.291944000000001 1
ion Pt   1.510344000000000   4.036573000000000  16.314478999999995 1
ion Pt   7.551735000000001   5.651199999999999  20.269490999999999 1
ion Pt   7.551735000000000   0.807319000000000  22.246956000000001 1
ion Pt   4.531044000000000   7.265828000000000  24.224503999999996 1
ion Pt   4.531044000000000   2.421946000000000  26.201968999999995 1
ion Pt   1.510344000000000   8.880454999999998   0.494345000000000 1

# Forces in Cartesian coordinates:
force Pt  -0.001833095472698   0.007603564240707  -0.021928314852458 1
force Pt  -0.001242330783259  -0.000168842814493   0.000728612092444 1
force Pt   0.001654524778695  -0.003345957974578  -0.017272503041413 1
force Pt   0.001006937666658   0.005417555766133   0.003558509317238 1
force Pt  -0.000818437980656   0.000500872793594   0.005685443762039 1
force Pt   0.000485956984278  -0.000528151979922   0.004251051508944 1
force Pt  -0.000430239239679  -0.000069179177901   0.000297083376567 1
force Pt  -0.000553645108759   0.000626506310330  -0.000913852734222 1
force Pt   0.000082203355760   0.000030160447258   0.000026431509700 1
force Pt   0.000809623544826  -0.000105244102877   0.000707900306178 1
force Pt  -0.001711273196487   0.000581994274968  -0.003203439249509 1
force Pt   0.000706220194820   0.000517341290877  -0.004825082857033 1
force Pt   0.002767489097938  -0.008128783826234   0.015166781869615 1
force Pt   0.000121150253187   0.000691886408865   0.009154666367487 1
force Pt  -0.000124607865266  -0.000692392695468  -0.008981243936815 1
force Pt  -0.002764473489658   0.008108380089846  -0.015056875670828 1
force Pt  -0.000691702599885  -0.000502737860632   0.004820666799317 1
force Pt   0.001710354727526  -0.000593911044753   0.003104880444206 1
force Pt  -0.000821718916279   0.000114198584920  -0.000901788996975 1
force Pt   0.000548157436648  -0.000643771582097   0.000659321378836 1
force Pt  -0.000071381638751  -0.000019075305085  -0.000283495079653 1
force Pt  -0.000487245070590   0.000521101594330  -0.004405670343868 1
force Pt   0.000421791160423   0.000061454754328  -0.000522104516975 1
force Pt   0.000829137687173  -0.000484935290283  -0.005742353953899 1
force Pt  -0.001007507140040  -0.005437068256040  -0.003522225833879 1
force Pt  -0.001673815302779   0.003364124027178   0.017415588063030 1
force Pt   0.001238242252132   0.000142971021791  -0.000556806245128 1
force Pt   0.001845931763505  -0.007573275048955   0.022105638382217 1

# Energy components:
   A_diel =       -0.0061356314782481
   Eewald =    35720.6257166697396315
       EH =    37980.6675409201416187
     Eloc =   -76624.5557433835929260
      Enl =      -29.6194569056897379
     EvdW =       -0.6592841000463756
      Exc =     -796.5825521744955040
 Exc_core =      458.9586293254280918
       KE =      800.0031159784848569
-------------------------------------
     Etot =    -2491.1681693015070778
       TS =        0.0051119416878709
-------------------------------------
        F =    -2491.1732812431951061


Dumping 'jdft.fillings' ... done
Dumping 'jdft.wfns' ... done
Dumping 'jdft.fluidState' ... done
Dumping 'jdft.ionpos' ... done
Dumping 'jdft.lattice' ... done
Dumping 'jdft.eigenvals' ... done
Dumping 'jdft.eigStats' ... 
	eMin: -2.137993 at state 55 ( [ -0.428571 +0.000000 +0.000000 ] spin -1 )
	HOMO: -0.188177 at state 10 ( [ +0.285714 +0.000000 +0.000000 ] spin 1 )
	mu  : -0.188123
	LUMO: -0.188114 at state 62 ( [ -0.285714 +0.400000 +0.000000 ] spin -1 )
	eMax: +0.103689 at state 57 ( [ -0.428571 +0.400000 +0.000000 ] spin -1 )
	HOMO-LUMO gap: +0.000063
	Optical gap  : +0.000329 at state 2 ( [ +0.000000 +0.400000 +0.000000 ] spin 1 )
Dumping 'jdft.Ecomponents' ... done
IonicMinimize: Iter:   0  F: -2491.173281243195106  |grad|_K:  5.739e-03  t[s]:  18076.99

#--- Lowdin population analysis ---
# oxidation-state Pt +0.117 +0.003 -0.034 -0.006 +0.013 +0.012 +0.013 +0.007 +0.008 +0.013 +0.011 +0.007 -0.028 +0.004 +0.006 -0.026 +0.010 +0.013 +0.015 +0.008 +0.008 +0.010 +0.011 +0.010 -0.009 -0.037 +0.000 +0.119
# magnetic-moments Pt -0.000 -0.000 -0.000 -0.000 -0.000 -0.000 -0.000 -0.000 -0.000 -0.000 -0.000 -0.000 -0.000 -0.000 -0.000 -0.000 -0.000 -0.000 -0.000 -0.000 -0.000 -0.000 -0.000 -0.000 -0.000 -0.000 -0.000 -0.000


Computing DFT-D3 correction:
# coordination-number Pt 4.839 6.357 7.926 9.519 9.535 9.556 9.569 9.567 9.570 9.569 9.548 9.525 8.730 7.148 7.148 8.730 9.526 9.549 9.569 9.567 9.570 9.556 9.569 9.535 9.518 7.925 6.357 4.839
# diagonal-C6 Pt 336.87 336.87 336.87 336.87 336.87 336.87 336.87 336.87 336.87 336.87 336.87 336.87 336.87 336.87 336.87 336.87 336.87 336.87 336.87 336.87 336.87 336.87 336.87 336.87 336.87 336.87 336.87 336.87
EvdW_6 =   -0.253880
EvdW_8 =   -0.405355

-------- Electronic minimization -----------
	Linear fluid (dielectric constant: 78.4, screening length: 8.12261 Bohr) occupying 0.560438 of unit cell:	Completed after 22 iterations at t[s]:  18131.14
	FillingsUpdate:  mu: -0.185147085  nElectrons: 448.000000  magneticMoment: [ Abs: 0.00005  Tot: -0.00005 ]
ElecMinimize: Iter:   0  F: -2491.071689427987621  |grad|_K:  2.063e-05  alpha:  1.000e+00
	Linear fluid (dielectric constant: 78.4, screening length: 8.12261 Bohr) occupying 0.560663 of unit cell:	Completed after 26 iterations at t[s]:  18249.71
	Linear fluid (dielectric constant: 78.4, screening length: 8.12261 Bohr) occupying 0.560445 of unit cell:	Completed after 25 iterations at t[s]:  18290.19
	FillingsUpdate:  mu: -0.198668906  nElectrons: 448.000000  magneticMoment: [ Abs: 0.00005  Tot: -0.00005 ]
	SubspaceRotationAdjust: set factor to 0.0397
ElecMinimize: Iter:   1  F: -2491.163834243563997  |grad|_K:  5.458e-06  alpha:  3.157e-01  linmin:  1.499e-03  t[s]:  18347.13
	Linear fluid (dielectric constant: 78.4, screening length: 8.12261 Bohr) occupying 0.560478 of unit cell:	Completed after 22 iterations at t[s]:  18400.45
	Linear fluid (dielectric constant: 78.4, screening length: 8.12261 Bohr) occupying 0.560478 of unit cell:	Completed after 2 iterations at t[s]:  18437.06
	FillingsUpdate:  mu: -0.187272894  nElectrons: 448.000000  magneticMoment: [ Abs: 0.00005  Tot: -0.00005 ]
	SubspaceRotationAdjust: set factor to 0.0301
ElecMinimize: Iter:   2  F: -2491.170267744570538  |grad|_K:  2.718e-06  alpha:  3.149e-01  linmin: -3.414e-05  t[s]:  18494.16
	Linear fluid (dielectric constant: 78.4, screening length: 8.12261 Bohr) occupying 0.560505 of unit cell:	Completed after 15 iterations at t[s]:  18546.08
	Linear fluid (dielectric constant: 78.4, screening length: 8.12261 Bohr) occupying 0.560490 of unit cell:	Completed after 13 iterations at t[s]:  18584.63
	FillingsUpdate:  mu: -0.189143338  nElectrons: 448.000000  magneticMoment: [ Abs: 0.00005  Tot: -0.00005 ]
	SubspaceRotationAdjust: set factor to 0.0191
ElecMinimize: Iter:   3  F: -2491.171373814546314  |grad|_K:  1.365e-06  alpha:  2.181e-01  linmin: -3.199e-05  t[s]:  18641.60
[...]
force Pt   0.000188144951484  -0.000156782933839   0.000207711366515 1
force Pt   0.000159120310897  -0.000062034294678   0.000354059609762 1
force Pt   0.000029185240027  -0.000154468207238   0.000386565327900 1
force Pt   0.000121636247020   0.000075087126005  -0.000029843900513 1
force Pt   0.000051297771912   0.000075545620110   0.000005517776783 1
force Pt   0.000100688772073   0.000088544076268  -0.000139422789826 1
force Pt   0.000054493889031   0.000295170460361  -0.000125618792023 1
force Pt  -0.000027299180684   0.000095714384321   0.000039056735862 1
force Pt   0.000271327912968  -0.000027653881009  -0.000109072326643 1
force Pt   0.000033349809132   0.000179817297119   0.000166006443486 1
force Pt   0.000038746377858  -0.000028381140319  -0.000034447928011 1

# Energy components:
   A_diel =       -0.0065187753075458
   Eewald =    35720.1217270149718388
       EH =    37979.0451316823236994
     Eloc =   -76622.4083871441544034
      Enl =      -29.5119399528567499
     EvdW =       -0.6592268367932674
      Exc =     -796.6287751907249230
 Exc_core =      458.9586866578188165
       KE =      799.9021821547142963
-------------------------------------
     Etot =    -2491.1871203900063847
       TS =        0.0047388607602834
-------------------------------------
        F =    -2491.1918592507668109


Dumping 'jdft.fillings' ... done
Dumping 'jdft.wfns' ... done
Dumping 'jdft.fluidState' ... done
Dumping 'jdft.ionpos' ... done
Dumping 'jdft.lattice' ... done
Dumping 'jdft.eigenvals' ... done
Dumping 'jdft.eigStats' ... 
	eMin: -2.140387 at state 37 ( [ +0.000000 +0.400000 +0.000000 ] spin -1 )
	HOMO: -0.190562 at state 0 ( [ +0.000000 +0.000000 +0.000000 ] spin 1 )
	mu  : -0.190554
	LUMO: -0.190385 at state 38 ( [ +0.000000 -0.400000 +0.000000 ] spin -1 )
	eMax: +0.102264 at state 18 ( [ +0.428571 -0.400000 +0.000000 ] spin 1 )
	HOMO-LUMO gap: +0.000177
	Optical gap  : +0.000578 at state 50 ( [ +0.428571 +0.000000 +0.000000 ] spin -1 )
Dumping 'jdft.Ecomponents' ... done
IonicMinimize: Iter:  10  F: -2491.191859250766811  |grad|_K:  1.684e-04  alpha:  1.000e+00  linmin:  1.247e-01  t[s]:  69126.59

#--- Lowdin population analysis ---
# oxidation-state Pt +0.105 +0.013 -0.025 -0.004 +0.013 +0.011 +0.013 +0.007 +0.007 +0.013 +0.010 +0.005 -0.031 +0.009 +0.010 -0.029 +0.006 +0.012 +0.014 +0.007 +0.006 +0.010 +0.012 +0.011 -0.006 -0.026 +0.011 +0.106
# magnetic-moments Pt -0.000 -0.000 -0.000 -0.000 -0.000 -0.000 -0.000 -0.000 -0.000 -0.000 -0.000 -0.000 -0.000 -0.000 -0.000 -0.000 -0.000 -0.000 -0.000 -0.000 -0.000 -0.000 -0.000 -0.000 -0.000 -0.000 -0.000 -0.000


Computing DFT-D3 correction:
# coordination-number Pt 5.314 6.552 7.671 9.421 9.356 9.499 9.538 9.544 9.583 9.561 9.432 9.294 8.626 7.149 7.153 8.633 9.303 9.441 9.566 9.547 9.583 9.491 9.534 9.347 9.413 7.662 6.550 5.313
# diagonal-C6 Pt 336.87 336.87 336.87 336.87 336.87 336.87 336.87 336.87 336.87 336.87 336.87 336.87 336.87 336.87 336.87 336.87 336.87 336.87 336.87 336.87 336.87 336.87 336.87 336.87 336.87 336.87 336.87 336.87
EvdW_6 =   -0.253711
EvdW_8 =   -0.405483

-------- Electronic minimization -----------
	Linear fluid (dielectric constant: 78.4, screening length: 8.12261 Bohr) occupying 0.564590 of unit cell:	Completed after 11 iterations at t[s]:  69185.76
	FillingsUpdate:  mu: -0.190356056  nElectrons: 448.000000  magneticMoment: [ Abs: 0.00000  Tot: -0.00000 ]
ElecMinimize: Iter:   0  F: -2491.191823204347656  |grad|_K:  5.173e-07  alpha:  1.000e+00
	Linear fluid (dielectric constant: 78.4, screening length: 8.12261 Bohr) occupying 0.564619 of unit cell:	Completed after 19 iterations at t[s]:  69304.32
	Linear fluid (dielectric constant: 78.4, screening length: 8.12261 Bohr) occupying 0.564590 of unit cell:	Completed after 16 iterations at t[s]:  69343.48
	FillingsUpdate:  mu: -0.190688754  nElectrons: 448.000000  magneticMoment: [ Abs: 0.00000  Tot: -0.00000 ]
	SubspaceRotationAdjust: set factor to 0.0334
ElecMinimize: Iter:   1  F: -2491.191845229900991  |grad|_K:  1.299e-07  alpha:  1.206e-01  linmin:  8.874e-04  t[s]:  69400.79
	Linear fluid (dielectric constant: 78.4, screening length: 8.12261 Bohr) occupying 0.564590 of unit cell:	Completed after 2 iterations at t[s]:  69450.79
ElecMinimize: 	Predicted alpha/alphaT>3.000000, increasing alphaT to 3.617871e-01.
	Linear fluid (dielectric constant: 78.4, screening length: 8.12261 Bohr) occupying 0.564590 of unit cell:	Completed after 2 iterations at t[s]:  69487.83
	Linear fluid (dielectric constant: 78.4, screening length: 8.12261 Bohr) occupying 0.564590 of unit cell:	Completed after 2 iterations at t[s]:  69524.87
	FillingsUpdate:  mu: -0.190664087  nElectrons: 448.000000  magneticMoment: [ Abs: 0.00000  Tot: -0.00000 ]
	SubspaceRotationAdjust: set factor to 0.0456
ElecMinimize: Iter:   2  F: -2491.191850408100436  |grad|_K:  6.727e-08  alpha:  4.481e-01  linmin: -5.646e-04  t[s]:  69582.27
	Linear fluid (dielectric constant: 78.4, screening length: 8.12261 Bohr) occupying 0.564591 of unit cell:	Completed after 4 iterations at t[s]:  69632.82
	Linear fluid (dielectric constant: 78.4, screening length: 8.12261 Bohr) occupying 0.564591 of unit cell:	Completed after 3 iterations at t[s]:  69669.80
	FillingsUpdate:  mu: -0.190534717  nElectrons: 448.000000  magneticMoment: [ Abs: 0.00000  Tot: -0.00000 ]
	SubspaceRotationAdjust: set factor to 0.056
ElecMinimize: Iter:   3  F: -2491.191852365387604  |grad|_K:  6.377e-08  alpha:  6.286e-01  linmin:  3.447e-05  t[s]:  69726.86
	Linear fluid (dielectric constant: 78.4, screening length: 8.12261 Bohr) occupying 0.564592 of unit cell:	Completed after 5 iterations at t[s]:  69777.33
	Linear fluid (dielectric constant: 78.4, screening length: 8.12261 Bohr) occupying 0.564592 of unit cell:	Completed after 2 iterations at t[s]:  69814.27
	FillingsUpdate:  mu: -0.190712171  nElectrons: 448.000000  magneticMoment: [ Abs: 0.00000  Tot: -0.00000 ]
	SubspaceRotationAdjust: set factor to 0.0648
ElecMinimize: Iter:   4  F: -2491.191854570522992  |grad|_K:  7.479e-08  alpha:  7.913e-01  linmin:  7.243e-05  t[s]:  69871.28
	Linear fluid (dielectric constant: 78.4, screening length: 8.12261 Bohr) occupying 0.564594 of unit cell:	Completed after 10 iterations at t[s]:  69922.68
	Linear fluid (dielectric constant: 78.4, screening length: 8.12261 Bohr) occupying 0.564593 of unit cell:	Completed after 2 iterations at t[s]:  69959.59
	FillingsUpdate:  mu: -0.190226939  nElectrons: 448.000000  magneticMoment: [ Abs: 0.00000  Tot: -0.00000 ]
	SubspaceRotationAdjust: set factor to 0.0626
ElecMinimize: Iter:   5  F: -2491.191857253174476  |grad|_K:  1.002e-07  alpha:  6.980e-01  linmin:  3.455e-04  t[s]:  70016.93
	Linear fluid (dielectric constant: 78.4, screening length: 8.12261 Bohr) occupying 0.564593 of unit cell:	Completed after 12 iterations at t[s]:  70068.79
	Linear fluid (dielectric constant: 78.4, screening length: 8.12261 Bohr) occupying 0.564593 of unit cell:	Completed after 10 iterations at t[s]:  70107.59
	FillingsUpdate:  mu: -0.190819693  nElectrons: 448.000000  magneticMoment: [ Abs: 0.00000  Tot: -0.00000 ]
	SubspaceRotationAdjust: set factor to 0.0504
ElecMinimize: Iter:   6  F: -2491.191859615683825  |grad|_K:  9.851e-08  alpha:  3.518e-01  linmin:  4.246e-05  t[s]:  70164.88
	Linear fluid (dielectric constant: 78.4, screening length: 8.12261 Bohr) occupying 0.564594 of unit cell:	Completed after 9 iterations at t[s]:  70215.96
	Linear fluid (dielectric constant: 78.4, screening length: 8.12261 Bohr) occupying 0.564594 of unit cell:	Completed after 6 iterations at t[s]:  70253.67
	FillingsUpdate:  mu: -0.190708219  nElectrons: 448.000000  magneticMoment: [ Abs: 0.00000  Tot: -0.00000 ]
	SubspaceRotationAdjust: set factor to 0.0426
ElecMinimize: Iter:   7  F: -2491.191862867153759  |grad|_K:  1.062e-07  alpha:  4.884e-01  linmin: -4.500e-05  t[s]:  70310.78
	Linear fluid (dielectric constant: 78.4, screening length: 8.12261 Bohr) occupying 0.564595 of unit cell:	Completed after 11 iterations at t[s]:  70362.42
	Linear fluid (dielectric constant: 78.4, screening length: 8.12261 Bohr) occupying 0.564594 of unit cell:	Completed after 8 iterations at t[s]:  70400.27
	FillingsUpdate:  mu: -0.190323957  nElectrons: 448.000000  magneticMoment: [ Abs: 0.00000  Tot: -0.00000 ]
	SubspaceRotationAdjust: set factor to 0.031
ElecMinimize: Iter:   8  F: -2491.191865344975668  |grad|_K:  8.430e-08  alpha:  3.189e-01  linmin:  4.539e-05  t[s]:  70457.72
	Linear fluid (dielectric constant: 78.4, screening length: 8.12261 Bohr) occupying 0.564594 of unit cell:	Completed after 6 iterations at t[s]:  70508.65
	Linear fluid (dielectric constant: 78.4, screening length: 8.12261 Bohr) occupying 0.564594 of unit cell:	Completed after 6 iterations at t[s]:  70546.34
	FillingsUpdate:  mu: -0.190601042  nElectrons: 448.000000  magneticMoment: [ Abs: 0.00000  Tot: -0.00000 ]
	SubspaceRotationAdjust: set factor to 0.0316
ElecMinimize: Iter:   9  F: -2491.191867884586372  |grad|_K:  6.517e-08  alpha:  5.232e-01  linmin:  6.247e-05  t[s]:  70603.40
	Linear fluid (dielectric constant: 78.4, screening length: 8.12261 Bohr) occupying 0.564595 of unit cell:	Completed after 7 iterations at t[s]:  70654.40
	Linear fluid (dielectric constant: 78.4, screening length: 8.12261 Bohr) occupying 0.564595 of unit cell:	Completed after 0 iterations at t[s]:  70690.72
	FillingsUpdate:  mu: -0.190562163  nElectrons: 448.000000  magneticMoment: [ Abs: 0.00000  Tot: -0.00000 ]
	SubspaceRotationAdjust: set factor to 0.0309
ElecMinimize: Iter:  10  F: -2491.191869373863483  |grad|_K:  4.758e-08  alpha:  5.126e-01  linmin: -3.687e-06  t[s]:  70748.03
	Linear fluid (dielectric constant: 78.4, screening length: 8.12261 Bohr) occupying 0.564596 of unit cell:	Completed after 7 iterations at t[s]:  70798.95
	Linear fluid (dielectric constant: 78.4, screening length: 8.12261 Bohr) occupying 0.564596 of unit cell:	Completed after 2 iterations at t[s]:  70835.87
	FillingsUpdate:  mu: -0.190501996  nElectrons: 448.000000  magneticMoment: [ Abs: 0.00000  Tot: -0.00000 ]
	SubspaceRotationAdjust: set factor to 0.0246
ElecMinimize: Iter:  11  F: -2491.191869985577341  |grad|_K:  3.734e-08  alpha:  3.942e-01  linmin:  5.528e-04  t[s]:  70893.10
	Linear fluid (dielectric constant: 78.4, screening length: 8.12261 Bohr) occupying 0.564596 of unit cell:	Completed after 5 iterations at t[s]:  70943.78
	Linear fluid (dielectric constant: 78.4, screening length: 8.12261 Bohr) occupying 0.564596 of unit cell:	Completed after 0 iterations at t[s]:  70980.20
	FillingsUpdate:  mu: -0.190550325  nElectrons: 448.000000  magneticMoment: [ Abs: 0.00000  Tot: -0.00000 ]
	SubspaceRotationAdjust: set factor to 0.0239
ElecMinimize: Iter:  12  F: -2491.191870358683900  |grad|_K:  2.411e-08  alpha:  3.959e-01  linmin: -6.806e-04  t[s]:  71037.39
	Linear fluid (dielectric constant: 78.4, screening length: 8.12261 Bohr) occupying 0.564597 of unit cell:	Completed after 0 iterations at t[s]:  71087.26
	Linear fluid (dielectric constant: 78.4, screening length: 8.12261 Bohr) occupying 0.564597 of unit cell:	Completed after 0 iterations at t[s]:  71124.00
	FillingsUpdate:  mu: -0.190549737  nElectrons: 448.000000  magneticMoment: [ Abs: 0.00000  Tot: -0.00000 ]
	SubspaceRotationAdjust: set factor to 0.0269
ElecMinimize: Iter:  13  F: -2491.191870558691335  |grad|_K:  1.611e-08  alpha:  4.924e-01  linmin: -8.297e-04  t[s]:  71180.96
	Linear fluid (dielectric constant: 78.4, screening length: 8.12261 Bohr) occupying 0.564597 of unit cell:	Completed after 2 iterations at t[s]:  71230.80
	Linear fluid (dielectric constant: 78.4, screening length: 8.12261 Bohr) occupying 0.564597 of unit cell:	Completed after 0 iterations at t[s]:  71267.37
	FillingsUpdate:  mu: -0.190543151  nElectrons: 448.000000  magneticMoment: [ Abs: 0.00000  Tot: -0.00000 ]
	SubspaceRotationAdjust: set factor to 0.0304
ElecMinimize: Iter:  14  F: -2491.191870653818569  |grad|_K:  1.176e-08  alpha:  5.261e-01  linmin: -2.753e-03  t[s]:  71324.60
	Linear fluid (dielectric constant: 78.4, screening length: 8.12261 Bohr) occupying 0.564597 of unit cell:	Completed after 0 iterations at t[s]:  71374.16
	Linear fluid (dielectric constant: 78.4, screening length: 8.12261 Bohr) occupying 0.564597 of unit cell:	Completed after 0 iterations at t[s]:  71410.57
	FillingsUpdate:  mu: -0.190543161  nElectrons: 448.000000  magneticMoment: [ Abs: 0.00000  Tot: -0.00000 ]
	SubspaceRotationAdjust: set factor to 0.0367
ElecMinimize: Iter:  15  F: -2491.191870710669264  |grad|_K:  9.715e-09  alpha:  5.728e-01  linmin: -3.970e-05  t[s]:  71467.91
ElecMinimize: Converged (|Delta F|<1.000000e-07 for 2 iters).
Setting wave functions to eigenvectors of Hamiltonian
Converging empty states (this may take a while): |deigs|: 1.273e-08

Computing DFT-D3 correction:
# coordination-number Pt 5.314 6.552 7.671 9.421 9.356 9.499 9.538 9.544 9.583 9.561 9.432 9.294 8.626 7.149 7.153 8.633 9.303 9.441 9.566 9.547 9.583 9.491 9.534 9.347 9.413 7.662 6.550 5.313
# diagonal-C6 Pt 336.87 336.87 336.87 336.87 336.87 336.87 336.87 336.87 336.87 336.87 336.87 336.87 336.87 336.87 336.87 336.87 336.87 336.87 336.87 336.87 336.87 336.87 336.87 336.87 336.87 336.87 336.87 336.87
EvdW_6 =   -0.253711
EvdW_8 =   -0.405483

# Ionic positions in cartesian coordinates:
ion Pt   9.056336011795018   0.202884157851899  26.884789311445193 1
ion Pt   6.034796140954018   6.390583636866092   1.565436614802508 1
ion Pt   6.069941934610367   1.569829529376399   3.150637610827022 1
ion Pt   3.011266339045657   8.147559646900010   5.572093109097560 1
ion Pt   3.069354035913597   3.235204806187577   7.382751487593024 1
ion Pt  -0.035044453340850   9.747891341196476   9.412241097720036 1
ion Pt   0.000603215310333   4.858849955666620  11.365355085511865 1
ion Pt   6.023382265292073   6.450293863018511  15.317021972576685 1
ion Pt   9.069199514647556   0.009367810869814  13.351432846425734 1
ion Pt   6.065958162612147   1.581264857357997  17.300326781920987 1
ion Pt   2.994017563711859   8.013120144428129  19.308840734917503 1
ion Pt   2.997035597796837   3.219572395788371  21.233745766586480 1
ion Pt   0.080494180460688   9.596016110469812  23.383194150733079 1
ion Pt  -0.037271472757551   4.932791303606615  25.317303436235150 1
ion Pt   1.547562272761661   3.947289585854673   2.370816819387362 1
ion Pt  -1.591116457540504  10.587364554624948   4.304209930150273 1
ion Pt   7.575360533985041   5.660985424980605   6.451700020771530 1
ion Pt   7.577921252563258   0.866777172963534   8.374745489433776 1
ion Pt   4.506060660045357   7.299225977451299  10.381844639252350 1
ion Pt   4.549199366047353   2.429522508051687  12.365427005350391 1
ion Pt   1.503180076391228   8.871213559416411  14.330625843538984 1
ion Pt  -1.475212009999082  10.434447327282516  18.270861208912535 1
ion Pt   1.510118009787311   4.021445469648773  16.316866200964462 1
ion Pt   7.503236748545126   5.645651484673672  20.301497417572207 1
ion Pt   7.561569627488202   0.732920181625444  22.114644607289158 1
ion Pt   4.502430431668822   7.310691204461636  24.537773503025075 1
ion Pt   4.537992794730004   2.489984751740074  26.122782341097178 1
ion Pt   1.515919657474477   8.678463237640385   0.802599966861864 1

# Forces in Cartesian coordinates:
force Pt  -0.000009875453166   0.000000733037438   0.000156419052265 1
force Pt  -0.000024631596454  -0.000020883176763   0.000045446958743 1
force Pt  -0.000122225519708  -0.000150628783492   0.000092732258558 1
force Pt  -0.000047570671352  -0.000066772269619  -0.000243840073414 1
force Pt   0.000015691662667  -0.000195901898657  -0.000057973329603 1
force Pt  -0.000033689695277  -0.000041822569683  -0.000055107290641 1
force Pt  -0.000020633727925  -0.000059709255221   0.000035006509299 1
force Pt  -0.000024300375324  -0.000009911146747  -0.000154016993844 1
force Pt  -0.000031809575943   0.000000473979578   0.000015172434735 1
force Pt  -0.000071923173002   0.000103339239996  -0.000108774375367 1
force Pt  -0.000035517243177   0.000119683558055  -0.000047204001432 1
force Pt  -0.000084636453451   0.000073365363716  -0.000136768579453 1
force Pt   0.000110147469232   0.000116675343244   0.000051225395375 1
force Pt   0.000021665897496   0.000182100377942   0.000119790511222 1
force Pt  -0.000011368331896  -0.000019152048717  -0.000049074756182 1
force Pt  -0.000066455178948  -0.000212645152692  -0.000092935922094 1
force Pt   0.000133664159016  -0.000093683775227   0.000024873197113 1
force Pt   0.000083245530551  -0.000019223088502  -0.000021960678816 1
force Pt   0.000142260150288  -0.000134930504069   0.000204201589361 1
force Pt   0.000031350443882   0.000069412630953   0.000030479557250 1
force Pt   0.000055414357555  -0.000049841073394  -0.000058665027553 1
force Pt  -0.000044445302206   0.000106738927976  -0.000024277182632 1
force Pt  -0.000030539529433   0.000056870901166  -0.000082139140241 1
force Pt  -0.000040337640257   0.000136752011929   0.000016299198253 1
force Pt  -0.000035987779347   0.000031907035480  -0.000056217234690 1
force Pt   0.000097446935246   0.000170061484521  -0.000029956930247 1
force Pt  -0.000011240233040   0.000056792020040   0.000141303190357 1
force Pt   0.000038694388098  -0.000082881852403   0.000212800568247 1

# Energy components:
   A_diel =       -0.0065132699565899
   Eewald =    35718.9398778256145306
       EH =    37977.8642658980897977
     Eloc =   -76620.0449630438961321
      Enl =      -29.5125932668681870
     EvdW =       -0.6591937972277057
      Exc =     -796.6280043373067201
 Exc_core =      458.9586852867143421
       KE =      799.9013078036094839
-------------------------------------
     Etot =    -2491.1871309012308302
       TS =        0.0047398094384572
-------------------------------------
        F =    -2491.1918707106692636


Dumping 'jdft.fillings' ... done
Dumping 'jdft.wfns' ... done
Dumping 'jdft.fluidState' ... done
Dumping 'jdft.ionpos' ... done
Dumping 'jdft.lattice' ... done
Dumping 'jdft.eigenvals' ... done
Dumping 'jdft.eigStats' ... 
	eMin: -2.140365 at state 38 ( [ +0.000000 -0.400000 +0.000000 ] spin -1 )
	HOMO: -0.190566 at state 0 ( [ +0.000000 +0.000000 +0.000000 ] spin 1 )
	mu  : -0.190543
	LUMO: -0.190370 at state 37 ( [ +0.000000 +0.400000 +0.000000 ] spin -1 )
	eMax: +0.102299 at state 18 ( [ +0.428571 -0.400000 +0.000000 ] spin 1 )
	HOMO-LUMO gap: +0.000197
	Optical gap  : +0.000571 at state 15 ( [ +0.428571 +0.000000 +0.000000 ] spin 1 )
Dumping 'jdft.Ecomponents' ... done
IonicMinimize: Iter:  11  F: -2491.191870710669264  |grad|_K:  9.328e-05  alpha:  1.000e+00  linmin: -4.096e-01  t[s]:  71621.65
IonicMinimize: Converged (|grad|_K<1.000000e-04).

#--- Lowdin population analysis ---
# oxidation-state Pt +0.106 +0.011 -0.028 -0.005 +0.012 +0.011 +0.013 +0.007 +0.006 +0.014 +0.011 +0.006 -0.030 +0.009 +0.009 -0.030 +0.006 +0.012 +0.014 +0.007 +0.006 +0.010 +0.013 +0.012 -0.005 -0.027 +0.012 +0.105
# magnetic-moments Pt -0.000 -0.000 -0.000 -0.000 -0.000 -0.000 -0.000 -0.000 -0.000 -0.000 -0.000 -0.000 -0.000 -0.000 -0.000 -0.000 -0.000 -0.000 -0.000 -0.000 -0.000 -0.000 -0.000 -0.000 -0.000 -0.000 -0.000 -0.000


Dumping 'jdft.n_up' ... done
Dumping 'jdft.n_dn' ... done
Dumping 'jdft.tau_up' ... done
Dumping 'jdft.tau_dn' ... done
Dumping 'jdft.eigenvals' ... done
Dumping 'jdft.eigStats' ... 
	eMin: -2.140365 at state 38 ( [ +0.000000 -0.400000 +0.000000 ] spin -1 )
	HOMO: -0.190566 at state 0 ( [ +0.000000 +0.000000 +0.000000 ] spin 1 )
	mu  : -0.190543
	LUMO: -0.190370 at state 37 ( [ +0.000000 +0.400000 +0.000000 ] spin -1 )
	eMax: +0.102299 at state 18 ( [ +0.428571 -0.400000 +0.000000 ] spin 1 )
	HOMO-LUMO gap: +0.000197
	Optical gap  : +0.000571 at state 15 ( [ +0.428571 +0.000000 +0.000000 ] spin 1 )
Dumping 'jdft.kPts' ... done
Dumping 'jdft.dosUp' ... done.
Dumping 'jdft.dosDn' ... done.
End date and time: Tue Dec  7 12:19:26 2021  (Duration: 0-19:55:10.39)
Done!
