
*************** JDFTx 1.6.0  ***************

Start date and time: Sat Dec 11 13:02:48 2021
Executable /projects/musgravc/apps/jdftx-1.6.1/build/jdftx with command-line: -i in
Running on hosts (process indices):  shas0156.rc.int.colorado.edu (0-23)
Divided in process groups (process indices):  0 (0)  1 (1)  2 (2)  3 (3)  4 (4)  5 (5)  6 (6)  7 (7)  8 (8)  9 (9)  10 (10)  11 (11)  12 (12)  13 (13)  14 (14)  15 (15)  16 (16)  17 (17)  18 (18)  19 (19)  20 (20)  21 (21)  22 (22)  23 (23)
Resource initialization completed at t[s]:      0.00
Run totals: 24 processes, 24 threads, 0 GPUs


Input parsed successfully to the following command list (including defaults):

basis kpoint-dependent
converge-empty-states yes
coords-type Cartesian
core-overlap-check none
coulomb-interaction Periodic
davidson-band-ratio 1.1
density-of-states Etol 1.000000e-06 Esigma 1.000000e-03 \
		Complete \
	Total \
	OrthoOrbital Pt 1   s \
	OrthoOrbital Pt 1   p \
	OrthoOrbital Pt 1   px \
	OrthoOrbital Pt 1   py \
	OrthoOrbital Pt 1   pz \
	OrthoOrbital Pt 1   d \
	OrthoOrbital Pt 1   dxy \
	OrthoOrbital Pt 1   dyz \
	OrthoOrbital Pt 1   dz2 \
	OrthoOrbital Pt 1   dxz \
	OrthoOrbital Pt 1   dx2-y2 \
	OrthoOrbital Pt 2   s \
	OrthoOrbital Pt 2   p \
	OrthoOrbital Pt 2   px \
	OrthoOrbital Pt 2   py \
	OrthoOrbital Pt 2   pz \
	OrthoOrbital Pt 2   d \
	OrthoOrbital Pt 2   dxy \
	OrthoOrbital Pt 2   dyz \
	OrthoOrbital Pt 2   dz2 \
	OrthoOrbital Pt 2   dxz \
	OrthoOrbital Pt 2   dx2-y2 \
	OrthoOrbital Pt 3   s \
	OrthoOrbital Pt 3   p \
	OrthoOrbital Pt 3   px \
	OrthoOrbital Pt 3   py \
	OrthoOrbital Pt 3   pz \
	OrthoOrbital Pt 3   d \
	OrthoOrbital Pt 3   dxy \
	OrthoOrbital Pt 3   dyz \
	OrthoOrbital Pt 3   dz2 \
	OrthoOrbital Pt 3   dxz \
	OrthoOrbital Pt 3   dx2-y2 \
	OrthoOrbital Pt 4   s \
	OrthoOrbital Pt 4   p \
	OrthoOrbital Pt 4   px \
	OrthoOrbital Pt 4   py \
	OrthoOrbital Pt 4   pz \
	OrthoOrbital Pt 4   d \
	OrthoOrbital Pt 4   dxy \
	OrthoOrbital Pt 4   dyz \
	OrthoOrbital Pt 4   dz2 \
	OrthoOrbital Pt 4   dxz \
	OrthoOrbital Pt 4   dx2-y2 \
	OrthoOrbital Pt 5   s \
	OrthoOrbital Pt 5   p \
	OrthoOrbital Pt 5   px \
	OrthoOrbital Pt 5   py \
	OrthoOrbital Pt 5   pz \
	OrthoOrbital Pt 5   d \
	OrthoOrbital Pt 5   dxy \
	OrthoOrbital Pt 5   dyz \
	OrthoOrbital Pt 5   dz2 \
	OrthoOrbital Pt 5   dxz \
	OrthoOrbital Pt 5   dx2-y2 \
	OrthoOrbital Pt 6   s \
	OrthoOrbital Pt 6   p \
	OrthoOrbital Pt 6   px \
	OrthoOrbital Pt 6   py \
	OrthoOrbital Pt 6   pz \
	OrthoOrbital Pt 6   d \
	OrthoOrbital Pt 6   dxy \
	OrthoOrbital Pt 6   dyz \
	OrthoOrbital Pt 6   dz2 \
	OrthoOrbital Pt 6   dxz \
	OrthoOrbital Pt 6   dx2-y2 \
	OrthoOrbital Pt 7   s \
	OrthoOrbital Pt 7   p \
	OrthoOrbital Pt 7   px \
	OrthoOrbital Pt 7   py \
	OrthoOrbital Pt 7   pz \
	OrthoOrbital Pt 7   d \
	OrthoOrbital Pt 7   dxy \
	OrthoOrbital Pt 7   dyz \
	OrthoOrbital Pt 7   dz2 \
	OrthoOrbital Pt 7   dxz \
	OrthoOrbital Pt 7   dx2-y2 \
	OrthoOrbital Pt 8   s \
	OrthoOrbital Pt 8   p \
	OrthoOrbital Pt 8   px \
	OrthoOrbital Pt 8   py \
	OrthoOrbital Pt 8   pz \
	OrthoOrbital Pt 8   d \
	OrthoOrbital Pt 8   dxy \
	OrthoOrbital Pt 8   dyz \
	OrthoOrbital Pt 8   dz2 \
	OrthoOrbital Pt 8   dxz \
	OrthoOrbital Pt 8   dx2-y2 \
	OrthoOrbital Pt 9   s \
	OrthoOrbital Pt 9   p \
	OrthoOrbital Pt 9   px \
	OrthoOrbital Pt 9   py \
	OrthoOrbital Pt 9   pz \
	OrthoOrbital Pt 9   d \
	OrthoOrbital Pt 9   dxy \
	OrthoOrbital Pt 9   dyz \
	OrthoOrbital Pt 9   dz2 \
	OrthoOrbital Pt 9   dxz \
	OrthoOrbital Pt 9   dx2-y2 \
	OrthoOrbital Pt 10   s \
	OrthoOrbital Pt 10   p \
	OrthoOrbital Pt 10   px \
	OrthoOrbital Pt 10   py \
	OrthoOrbital Pt 10   pz \
	OrthoOrbital Pt 10   d \
	OrthoOrbital Pt 10   dxy \
	OrthoOrbital Pt 10   dyz \
	OrthoOrbital Pt 10   dz2 \
	OrthoOrbital Pt 10   dxz \
	OrthoOrbital Pt 10   dx2-y2 \
	OrthoOrbital Pt 11   s \
	OrthoOrbital Pt 11   p \
	OrthoOrbital Pt 11   px \
	OrthoOrbital Pt 11   py \
	OrthoOrbital Pt 11   pz \
	OrthoOrbital Pt 11   d \
	OrthoOrbital Pt 11   dxy \
	OrthoOrbital Pt 11   dyz \
	OrthoOrbital Pt 11   dz2 \
	OrthoOrbital Pt 11   dxz \
	OrthoOrbital Pt 11   dx2-y2 \
	OrthoOrbital Pt 12   s \
	OrthoOrbital Pt 12   p \
	OrthoOrbital Pt 12   px \
	OrthoOrbital Pt 12   py \
	OrthoOrbital Pt 12   pz \
	OrthoOrbital Pt 12   d \
	OrthoOrbital Pt 12   dxy \
	OrthoOrbital Pt 12   dyz \
	OrthoOrbital Pt 12   dz2 \
	OrthoOrbital Pt 12   dxz \
	OrthoOrbital Pt 12   dx2-y2 \
	OrthoOrbital Pt 13   s \
	OrthoOrbital Pt 13   p \
	OrthoOrbital Pt 13   px \
	OrthoOrbital Pt 13   py \
	OrthoOrbital Pt 13   pz \
	OrthoOrbital Pt 13   d \
	OrthoOrbital Pt 13   dxy \
	OrthoOrbital Pt 13   dyz \
	OrthoOrbital Pt 13   dz2 \
	OrthoOrbital Pt 13   dxz \
	OrthoOrbital Pt 13   dx2-y2 \
	OrthoOrbital Pt 14   s \
	OrthoOrbital Pt 14   p \
	OrthoOrbital Pt 14   px \
	OrthoOrbital Pt 14   py \
	OrthoOrbital Pt 14   pz \
	OrthoOrbital Pt 14   d \
	OrthoOrbital Pt 14   dxy \
	OrthoOrbital Pt 14   dyz \
	OrthoOrbital Pt 14   dz2 \
	OrthoOrbital Pt 14   dxz \
	OrthoOrbital Pt 14   dx2-y2 \
	OrthoOrbital Pt 15   s \
	OrthoOrbital Pt 15   p \
	OrthoOrbital Pt 15   px \
	OrthoOrbital Pt 15   py \
	OrthoOrbital Pt 15   pz \
	OrthoOrbital Pt 15   d \
	OrthoOrbital Pt 15   dxy \
	OrthoOrbital Pt 15   dyz \
	OrthoOrbital Pt 15   dz2 \
	OrthoOrbital Pt 15   dxz \
	OrthoOrbital Pt 15   dx2-y2 \
	OrthoOrbital Pt 16   s \
	OrthoOrbital Pt 16   p \
	OrthoOrbital Pt 16   px \
	OrthoOrbital Pt 16   py \
	OrthoOrbital Pt 16   pz \
	OrthoOrbital Pt 16   d \
	OrthoOrbital Pt 16   dxy \
	OrthoOrbital Pt 16   dyz \
	OrthoOrbital Pt 16   dz2 \
	OrthoOrbital Pt 16   dxz \
	OrthoOrbital Pt 16   dx2-y2 \
	OrthoOrbital Pt 17   s \
	OrthoOrbital Pt 17   p \
	OrthoOrbital Pt 17   px \
	OrthoOrbital Pt 17   py \
	OrthoOrbital Pt 17   pz \
	OrthoOrbital Pt 17   d \
	OrthoOrbital Pt 17   dxy \
	OrthoOrbital Pt 17   dyz \
	OrthoOrbital Pt 17   dz2 \
	OrthoOrbital Pt 17   dxz \
	OrthoOrbital Pt 17   dx2-y2 \
	OrthoOrbital Pt 18   s \
	OrthoOrbital Pt 18   p \
	OrthoOrbital Pt 18   px \
	OrthoOrbital Pt 18   py \
	OrthoOrbital Pt 18   pz \
	OrthoOrbital Pt 18   d \
	OrthoOrbital Pt 18   dxy \
	OrthoOrbital Pt 18   dyz \
	OrthoOrbital Pt 18   dz2 \
	OrthoOrbital Pt 18   dxz \
	OrthoOrbital Pt 18   dx2-y2 \
	OrthoOrbital Pt 19   s \
	OrthoOrbital Pt 19   p \
	OrthoOrbital Pt 19   px \
	OrthoOrbital Pt 19   py \
	OrthoOrbital Pt 19   pz \
	OrthoOrbital Pt 19   d \
	OrthoOrbital Pt 19   dxy \
	OrthoOrbital Pt 19   dyz \
	OrthoOrbital Pt 19   dz2 \
	OrthoOrbital Pt 19   dxz \
	OrthoOrbital Pt 19   dx2-y2 \
	OrthoOrbital Pt 20   s \
	OrthoOrbital Pt 20   p \
	OrthoOrbital Pt 20   px \
	OrthoOrbital Pt 20   py \
	OrthoOrbital Pt 20   pz \
	OrthoOrbital Pt 20   d \
	OrthoOrbital Pt 20   dxy \
	OrthoOrbital Pt 20   dyz \
	OrthoOrbital Pt 20   dz2 \
	OrthoOrbital Pt 20   dxz \
	OrthoOrbital Pt 20   dx2-y2 \
	OrthoOrbital Pt 21   s \
	OrthoOrbital Pt 21   p \
	OrthoOrbital Pt 21   px \
	OrthoOrbital Pt 21   py \
	OrthoOrbital Pt 21   pz \
	OrthoOrbital Pt 21   d \
	OrthoOrbital Pt 21   dxy \
	OrthoOrbital Pt 21   dyz \
	OrthoOrbital Pt 21   dz2 \
	OrthoOrbital Pt 21   dxz \
	OrthoOrbital Pt 21   dx2-y2 \
	OrthoOrbital Pt 22   s \
	OrthoOrbital Pt 22   p \
	OrthoOrbital Pt 22   px \
	OrthoOrbital Pt 22   py \
	OrthoOrbital Pt 22   pz \
	OrthoOrbital Pt 22   d \
	OrthoOrbital Pt 22   dxy \
	OrthoOrbital Pt 22   dyz \
	OrthoOrbital Pt 22   dz2 \
	OrthoOrbital Pt 22   dxz \
	OrthoOrbital Pt 22   dx2-y2 \
	OrthoOrbital Pt 23   s \
	OrthoOrbital Pt 23   p \
	OrthoOrbital Pt 23   px \
	OrthoOrbital Pt 23   py \
	OrthoOrbital Pt 23   pz \
	OrthoOrbital Pt 23   d \
	OrthoOrbital Pt 23   dxy \
	OrthoOrbital Pt 23   dyz \
	OrthoOrbital Pt 23   dz2 \
	OrthoOrbital Pt 23   dxz \
	OrthoOrbital Pt 23   dx2-y2 \
	OrthoOrbital Pt 24   s \
	OrthoOrbital Pt 24   p \
	OrthoOrbital Pt 24   px \
	OrthoOrbital Pt 24   py \
	OrthoOrbital Pt 24   pz \
	OrthoOrbital Pt 24   d \
	OrthoOrbital Pt 24   dxy \
	OrthoOrbital Pt 24   dyz \
	OrthoOrbital Pt 24   dz2 \
	OrthoOrbital Pt 24   dxz \
	OrthoOrbital Pt 24   dx2-y2 \
	OrthoOrbital Pt 25   s \
	OrthoOrbital Pt 25   p \
	OrthoOrbital Pt 25   px \
	OrthoOrbital Pt 25   py \
	OrthoOrbital Pt 25   pz \
	OrthoOrbital Pt 25   d \
	OrthoOrbital Pt 25   dxy \
	OrthoOrbital Pt 25   dyz \
	OrthoOrbital Pt 25   dz2 \
	OrthoOrbital Pt 25   dxz \
	OrthoOrbital Pt 25   dx2-y2 \
	OrthoOrbital Pt 26   s \
	OrthoOrbital Pt 26   p \
	OrthoOrbital Pt 26   px \
	OrthoOrbital Pt 26   py \
	OrthoOrbital Pt 26   pz \
	OrthoOrbital Pt 26   d \
	OrthoOrbital Pt 26   dxy \
	OrthoOrbital Pt 26   dyz \
	OrthoOrbital Pt 26   dz2 \
	OrthoOrbital Pt 26   dxz \
	OrthoOrbital Pt 26   dx2-y2 \
	OrthoOrbital Pt 27   s \
	OrthoOrbital Pt 27   p \
	OrthoOrbital Pt 27   px \
	OrthoOrbital Pt 27   py \
	OrthoOrbital Pt 27   pz \
	OrthoOrbital Pt 27   d \
	OrthoOrbital Pt 27   dxy \
	OrthoOrbital Pt 27   dyz \
	OrthoOrbital Pt 27   dz2 \
	OrthoOrbital Pt 27   dxz \
	OrthoOrbital Pt 27   dx2-y2 \
	OrthoOrbital Pt 28   s \
	OrthoOrbital Pt 28   p \
	OrthoOrbital Pt 28   px \
	OrthoOrbital Pt 28   py \
	OrthoOrbital Pt 28   pz \
	OrthoOrbital Pt 28   d \
	OrthoOrbital Pt 28   dxy \
	OrthoOrbital Pt 28   dyz \
	OrthoOrbital Pt 28   dz2 \
	OrthoOrbital Pt 28   dxz \
	OrthoOrbital Pt 28   dx2-y2 \
	OrthoOrbital Pt 29   s \
	OrthoOrbital Pt 29   p \
	OrthoOrbital Pt 29   px \
	OrthoOrbital Pt 29   py \
	OrthoOrbital Pt 29   pz \
	OrthoOrbital Pt 29   d \
	OrthoOrbital Pt 29   dxy \
	OrthoOrbital Pt 29   dyz \
	OrthoOrbital Pt 29   dz2 \
	OrthoOrbital Pt 29   dxz \
	OrthoOrbital Pt 29   dx2-y2 \
	OrthoOrbital Pt 30   s \
	OrthoOrbital Pt 30   p \
	OrthoOrbital Pt 30   px \
	OrthoOrbital Pt 30   py \
	OrthoOrbital Pt 30   pz \
	OrthoOrbital Pt 30   d \
	OrthoOrbital Pt 30   dxy \
	OrthoOrbital Pt 30   dyz \
	OrthoOrbital Pt 30   dz2 \
	OrthoOrbital Pt 30   dxz \
	OrthoOrbital Pt 30   dx2-y2 \
	OrthoOrbital Pt 31   s \
	OrthoOrbital Pt 31   p \
	OrthoOrbital Pt 31   px \
	OrthoOrbital Pt 31   py \
	OrthoOrbital Pt 31   pz \
	OrthoOrbital Pt 31   d \
	OrthoOrbital Pt 31   dxy \
	OrthoOrbital Pt 31   dyz \
	OrthoOrbital Pt 31   dz2 \
	OrthoOrbital Pt 31   dxz \
	OrthoOrbital Pt 31   dx2-y2 \
	OrthoOrbital Pt 32   s \
	OrthoOrbital Pt 32   p \
	OrthoOrbital Pt 32   px \
	OrthoOrbital Pt 32   py \
	OrthoOrbital Pt 32   pz \
	OrthoOrbital Pt 32   d \
	OrthoOrbital Pt 32   dxy \
	OrthoOrbital Pt 32   dyz \
	OrthoOrbital Pt 32   dz2 \
	OrthoOrbital Pt 32   dxz \
	OrthoOrbital Pt 32   dx2-y2 \
	OrthoOrbital Pt 33   s \
	OrthoOrbital Pt 33   p \
	OrthoOrbital Pt 33   px \
	OrthoOrbital Pt 33   py \
	OrthoOrbital Pt 33   pz \
	OrthoOrbital Pt 33   d \
	OrthoOrbital Pt 33   dxy \
	OrthoOrbital Pt 33   dyz \
	OrthoOrbital Pt 33   dz2 \
	OrthoOrbital Pt 33   dxz \
	OrthoOrbital Pt 33   dx2-y2 \
	OrthoOrbital Pt 34   s \
	OrthoOrbital Pt 34   p \
	OrthoOrbital Pt 34   px \
	OrthoOrbital Pt 34   py \
	OrthoOrbital Pt 34   pz \
	OrthoOrbital Pt 34   d \
	OrthoOrbital Pt 34   dxy \
	OrthoOrbital Pt 34   dyz \
	OrthoOrbital Pt 34   dz2 \
	OrthoOrbital Pt 34   dxz \
	OrthoOrbital Pt 34   dx2-y2 \
	OrthoOrbital Pt 35   s \
	OrthoOrbital Pt 35   p \
	OrthoOrbital Pt 35   px \
	OrthoOrbital Pt 35   py \
	OrthoOrbital Pt 35   pz \
	OrthoOrbital Pt 35   d \
	OrthoOrbital Pt 35   dxy \
	OrthoOrbital Pt 35   dyz \
	OrthoOrbital Pt 35   dz2 \
	OrthoOrbital Pt 35   dxz \
	OrthoOrbital Pt 35   dx2-y2 \
	OrthoOrbital Pt 36   s \
	OrthoOrbital Pt 36   p \
	OrthoOrbital Pt 36   px \
	OrthoOrbital Pt 36   py \
	OrthoOrbital Pt 36   pz \
	OrthoOrbital Pt 36   d \
	OrthoOrbital Pt 36   dxy \
	OrthoOrbital Pt 36   dyz \
	OrthoOrbital Pt 36   dz2 \
	OrthoOrbital Pt 36   dxz \
	OrthoOrbital Pt 36   dx2-y2 \
	OrthoOrbital Pt 37   s \
	OrthoOrbital Pt 37   p \
	OrthoOrbital Pt 37   px \
	OrthoOrbital Pt 37   py \
	OrthoOrbital Pt 37   pz \
	OrthoOrbital Pt 37   d \
	OrthoOrbital Pt 37   dxy \
	OrthoOrbital Pt 37   dyz \
	OrthoOrbital Pt 37   dz2 \
	OrthoOrbital Pt 37   dxz \
	OrthoOrbital Pt 37   dx2-y2 \
	OrthoOrbital Pt 38   s \
	OrthoOrbital Pt 38   p \
	OrthoOrbital Pt 38   px \
	OrthoOrbital Pt 38   py \
	OrthoOrbital Pt 38   pz \
	OrthoOrbital Pt 38   d \
	OrthoOrbital Pt 38   dxy \
	OrthoOrbital Pt 38   dyz \
	OrthoOrbital Pt 38   dz2 \
	OrthoOrbital Pt 38   dxz \
	OrthoOrbital Pt 38   dx2-y2 \
	OrthoOrbital Pt 39   s \
	OrthoOrbital Pt 39   p \
	OrthoOrbital Pt 39   px \
	OrthoOrbital Pt 39   py \
	OrthoOrbital Pt 39   pz \
	OrthoOrbital Pt 39   d \
	OrthoOrbital Pt 39   dxy \
	OrthoOrbital Pt 39   dyz \
	OrthoOrbital Pt 39   dz2 \
	OrthoOrbital Pt 39   dxz \
	OrthoOrbital Pt 39   dx2-y2 \
	OrthoOrbital Pt 40   s \
	OrthoOrbital Pt 40   p \
	OrthoOrbital Pt 40   px \
	OrthoOrbital Pt 40   py \
	OrthoOrbital Pt 40   pz \
	OrthoOrbital Pt 40   d \
	OrthoOrbital Pt 40   dxy \
	OrthoOrbital Pt 40   dyz \
	OrthoOrbital Pt 40   dz2 \
	OrthoOrbital Pt 40   dxz \
	OrthoOrbital Pt 40   dx2-y2 \
	OrthoOrbital Pt 41   s \
	OrthoOrbital Pt 41   p \
	OrthoOrbital Pt 41   px \
	OrthoOrbital Pt 41   py \
	OrthoOrbital Pt 41   pz \
	OrthoOrbital Pt 41   d \
	OrthoOrbital Pt 41   dxy \
	OrthoOrbital Pt 41   dyz \
	OrthoOrbital Pt 41   dz2 \
	OrthoOrbital Pt 41   dxz \
	OrthoOrbital Pt 41   dx2-y2 \
	OrthoOrbital Pt 42   s \
	OrthoOrbital Pt 42   p \
	OrthoOrbital Pt 42   px \
	OrthoOrbital Pt 42   py \
	OrthoOrbital Pt 42   pz \
	OrthoOrbital Pt 42   d \
	OrthoOrbital Pt 42   dxy \
	OrthoOrbital Pt 42   dyz \
	OrthoOrbital Pt 42   dz2 \
	OrthoOrbital Pt 42   dxz \
	OrthoOrbital Pt 42   dx2-y2 \
	OrthoOrbital Pt 43   s \
	OrthoOrbital Pt 43   p \
	OrthoOrbital Pt 43   px \
	OrthoOrbital Pt 43   py \
	OrthoOrbital Pt 43   pz \
	OrthoOrbital Pt 43   d \
	OrthoOrbital Pt 43   dxy \
	OrthoOrbital Pt 43   dyz \
	OrthoOrbital Pt 43   dz2 \
	OrthoOrbital Pt 43   dxz \
	OrthoOrbital Pt 43   dx2-y2 \
	OrthoOrbital Pt 44   s \
	OrthoOrbital Pt 44   p \
	OrthoOrbital Pt 44   px \
	OrthoOrbital Pt 44   py \
	OrthoOrbital Pt 44   pz \
	OrthoOrbital Pt 44   d \
	OrthoOrbital Pt 44   dxy \
	OrthoOrbital Pt 44   dyz \
	OrthoOrbital Pt 44   dz2 \
	OrthoOrbital Pt 44   dxz \
	OrthoOrbital Pt 44   dx2-y2
dump End ElecDensity KEdensity BandEigs EigStats RhoAtom DOS Kpoints
dump Ionic State IonicPositions Lattice EigStats Ecomponents
dump 
dump 
dump 
dump 
dump 
dump 
dump 
dump 
dump-name jdft.$VAR
elec-cutoff 20
elec-eigen-algo Davidson
elec-ex-corr gga-PBE
elec-initial-magnetization 0.000000 no
elec-n-bands 423
elec-smearing Fermi 0.001
electronic-minimize  \
	dirUpdateScheme      FletcherReeves \
	linminMethod         DirUpdateRecommended \
	nIterations          100 \
	history              15 \
	knormThreshold       0 \
	energyDiffThreshold  1e-07 \
	nEnergyDiff          2 \
	alphaTstart          1 \
	alphaTmin            1e-10 \
	updateTestStepSize   yes \
	alphaTreduceFactor   0.1 \
	alphaTincreaseFactor 3 \
	nAlphaAdjustMax      3 \
	wolfeEnergy          0.0001 \
	wolfeGradient        0.9 \
	fdTest               no
exchange-regularization WignerSeitzTruncated
fluid LinearPCM 298.000000 1.013250
fluid-anion F- 0.5 MeanFieldLJ \
	epsBulk 1 \
	pMol 0 \
	epsInf 1 \
	Pvap 0 \
	sigmaBulk 0 \
	Rvdw 2.24877 \
	Res 0 \
	tauNuc 343133
fluid-cation Na+ 0.5 MeanFieldLJ \
	epsBulk 1 \
	pMol 0 \
	epsInf 1 \
	Pvap 0 \
	sigmaBulk 0 \
	Rvdw 2.19208 \
	Res 0 \
	tauNuc 343133
fluid-ex-corr lda-TF lda-PZ
fluid-gummel-loop 10 1.000000e-05
fluid-minimize  \
	dirUpdateScheme      PolakRibiere \
	linminMethod         DirUpdateRecommended \
	nIterations          400 \
	history              15 \
	knormThreshold       1e-11 \
	energyDiffThreshold  0 \
	nEnergyDiff          2 \
	alphaTstart          1 \
	alphaTmin            1e-10 \
	updateTestStepSize   yes \
	alphaTreduceFactor   0.1 \
	alphaTincreaseFactor 3 \
	nAlphaAdjustMax      6 \
	wolfeEnergy          0.0001 \
	wolfeGradient        0.9 \
	fdTest               no
fluid-solvent H2O 55.338 ScalarEOS \
	epsBulk 78.4 \
	pMol 0.92466 \
	epsInf 1.77 \
	Pvap 1.06736e-10 \
	sigmaBulk 4.62e-05 \
	Rvdw 2.61727 \
	Res 1.42 \
	tauNuc 343133 \
	poleEl 15 7 1
forces-output-coords Positions
initial-state jdft.$VAR
ion Pt   0.000196507401998  15.429755852869953  68.240339755023214 1
ion Pt   0.000295016700325  22.530088862273079  65.392917448810238 1
ion Pt  -0.000045319194726   6.710297010356781  66.805734879228837 1
ion Pt  -0.000087665903803  13.349164737474341  63.427435917005440 1
ion Pt   0.000017833391500  20.208414955059972  60.340989466341988 1
ion Pt  -0.000015439213610  17.886903163792827  55.564078543213412 1
ion Pt  -0.000269785026054   0.295817683005591  35.295846854838302 1
ion Pt   5.231963267086653   4.474140956199280  61.974422567177825 1
ion Pt   5.231868223543315  11.163139876920619  58.727728546194584 1
ion Pt   5.231984296020097   2.220535980782233  57.251939608594718 1
ion Pt   5.231903533426899   8.923288576227993  54.017074626318120 1
ion Pt  -0.000034614912376  15.622887046255219  50.853268589454089 1
ion Pt   0.000001337329680  22.290547877378703  47.699038098015656 1
ion Pt   0.000016777053618  13.389652653189769  46.160600988531861 1
ion Pt  -0.000100329862033  20.023131328967139  42.810317226584473 1
ion Pt   0.000095753488744  24.534597429687132  52.498406530285031 1
ion Pt   0.000055677270815   6.667813602671236  49.294146190296004 1
ion Pt   5.232026126784378   4.406585250553860  44.620552902695124 1
ion Pt   5.232056601569824  11.168948678300604  41.433406739834147 1
ion Pt   5.231773243982105  17.721548973284545  37.927897400806948 1
ion Pt  -0.000034583902280   2.211351863665474  40.008956855522740 1
ion Pt   5.232119987617228   9.000304564434954  36.552341347411271 1
ion Pt   2.616082971638981  17.866525803371626  64.104224929152849 1
ion Pt   2.616117693814323   0.053851524039289  61.304088189326713 1
ion Pt   2.615880498952217   8.908307689012046  62.680586090476673 1
ion Pt   2.615972080071055  15.672119640669854  59.496231631047586 1
ion Pt   2.616029917476295  22.329191952662022  56.418873291587609 1
ion Pt   2.615959623633784  20.085943962708942  51.620270084938390 1
ion Pt   2.616168440513069   2.355822412717064  66.184734829220233 1
ion Pt   2.615908402091057   6.688345299108160  57.957029982840382 1
ion Pt   2.615930989024736  13.411093062428193  54.823055014977705 1
ion Pt   2.616049389266271   4.456316100734949  53.265024542332611 1
ion Pt   2.615985634302382  11.154792179936866  50.100877965313124 1
ion Pt   2.615981999816296  17.858473751165331  46.865790479872054 1
ion Pt   2.616005488987830  -0.131390510634486  43.774258778294367 1
ion Pt   2.615990602439352  15.602425336426084  42.139904361658452 1
ion Pt   2.615682687672623  22.088513083372618  38.719973649720387 1
ion Pt   2.616034288115962   2.193196198724008  48.553186574980614 1
ion Pt   2.616042842873141   8.914935654561351  45.389670906239303 1
ion Pt   2.616061390734712   6.729167576271722  40.685360350739963 1
ion Pt   2.616036193416896  13.367394605301554  37.307623364305066 1
ion Pt   2.616325164952246  19.782974475044750  68.818184011415923 1
ion Pt   2.615851408654513   4.649906358293855  35.871762150429078 1
ion Pt   2.616039846899977  11.078069920733062  67.560377738947608 1
ion-species /projects/musgravc/apps/jdftx-1.6.0/build/pseudopotentials/GBRV_v1.5/$ID_pbe_v1.uspp
ion-species /projects/musgravc/apps/jdftx-1.6.0/build/pseudopotentials/GBRV_v1.5/$ID_pbe_v1.2.uspp
ion-species /projects/musgravc/apps/jdftx-1.6.0/build/pseudopotentials/GBRV_v1.5/$ID_pbe_v1.4.uspp
ion-species /projects/musgravc/apps/jdftx-1.6.0/build/pseudopotentials/GBRV_v1.5/$ID_pbe_v1.5.uspp
ion-width Ecut
ionic-minimize  \
	dirUpdateScheme      L-BFGS \
	linminMethod         DirUpdateRecommended \
	nIterations          100 \
	history              15 \
	knormThreshold       0.0001 \
	energyDiffThreshold  1e-06 \
	nEnergyDiff          2 \
	alphaTstart          1 \
	alphaTmin            1e-10 \
	updateTestStepSize   yes \
	alphaTreduceFactor   0.1 \
	alphaTincreaseFactor 3 \
	nAlphaAdjustMax      3 \
	wolfeEnergy          0.0001 \
	wolfeGradient        0.9 \
	fdTest               no
kpoint   0.000000000000   0.000000000000   0.000000000000  1.00000000000000
kpoint-folding 11 2 1 
latt-move-scale 0 0 0
latt-scale 1 1 1 
lattice  \
	   5.231996000000000    0.000000000000000    0.000000000000000  \
	   0.000000000000000   24.540233000000001    0.000000000000000  \
	   0.000000000000000   -0.000000000000000   69.410258999999996 
lattice-minimize  \
	dirUpdateScheme      L-BFGS \
	linminMethod         DirUpdateRecommended \
	nIterations          0 \
	history              15 \
	knormThreshold       0 \
	energyDiffThreshold  1e-06 \
	nEnergyDiff          2 \
	alphaTstart          1 \
	alphaTmin            1e-10 \
	updateTestStepSize   yes \
	alphaTreduceFactor   0.1 \
	alphaTincreaseFactor 3 \
	nAlphaAdjustMax      3 \
	wolfeEnergy          0.0001 \
	wolfeGradient        0.9 \
	fdTest               no
lcao-params 30 1e-06 0.001
pcm-variant CANDLE
spintype z-spin
subspace-rotation-factor 1 yes
symmetries none
symmetry-threshold 0.0001
target-mu -0.0978 no

van-der-waals D3


Applied RMS atom displacement 0 bohrs to make symmetries exact.

---------- Initializing the Grid ----------
R = 
[        5.232            0            0  ]
[            0      24.5402            0  ]
[            0            0      69.4103  ]
unit cell volume = 8911.89
G =
[    1.20092         -0          0  ]
[          0   0.256036          0  ]
[         -0          0  0.0905224  ]
Minimum fftbox size, Smin = [  24  100  280  ]
Chosen fftbox size, S = [  24  100  280  ]

---------- Exchange Correlation functional ----------
Initalized PBE GGA exchange.
Initalized PBE GGA correlation.

---------- Setting up pseudopotentials ----------
Width of ionic core gaussian charges (only for fluid interactions / plotting) set to 0.397384

Reading pseudopotential file '/projects/musgravc/apps/jdftx-1.6.0/build/pseudopotentials/GBRV_v1.5/pt_pbe_v1.4.uspp':
  Title: Pt.  Created by USPP 7.3.6 on 31-3-15
  Reference state energy: -105.002503.  16 valence electrons in orbitals:
    |510>  occupation: 6  eigenvalue: -2.158104
    |520>  occupation: 9.5  eigenvalue: -0.335376
    |600>  occupation: 0  eigenvalue: -0.319640
    |610>  occupation: 0  eigenvalue: -0.122947
  lMax: 2  lLocal: 3  QijEcut: 5.5
  6 projectors sampled on a log grid with 745 points:
    l: 0  eig: -0.319640  rCut: 2.45
    l: 0  eig: 1.500000  rCut: 2.45
    l: 1  eig: -2.158104  rCut: 1.6
    l: 1  eig: -0.122947  rCut: 1.6
    l: 2  eig: -0.500000  rCut: 1.6
    l: 2  eig: -0.335375  rCut: 1.6
  Partial core density with radius 1.1
  Transforming core density to a uniform radial grid of dG=0.02 with 1159 points.
  Transforming local potential to a uniform radial grid of dG=0.02 with 1159 points.
  Transforming nonlocal projectors to a uniform radial grid of dG=0.02 with 432 points.
  Transforming density augmentations to a uniform radial grid of dG=0.02 with 1159 points.
  Transforming atomic orbitals to a uniform radial grid of dG=0.02 with 432 points.
  Core radius for overlap checks: 2.45 bohrs.

Initialized 1 species with 44 total atoms.

Folded 1 k-points by 11x2x1 to 22 k-points.

---------- Setting up k-points, bands, fillings ----------
No reducable k-points. 
Computing the number of bands and number of electrons
Reading initial fillings from file jdft.fillings.
nElectrons: 706.805097   nBands: 423   nStates: 44

----- Setting up reduced wavefunction bases (one per k-point) -----
average nbasis = 38070.500 , ideal nbasis = 38072.267

----- Initializing Supercell corresponding to k-point mesh -----
Lattice vector linear combinations in supercell:
[  11   0   0  ]
[   0   2   0  ]
[   0   0   1  ]
Supercell lattice vectors:
[  57.552  0  0  ]
[  0  49.0805  0  ]
[  0  0  69.4103  ]

Initializing DFT-D3 calculator:
	Parameters set for gga-PBE functional
	s6:  1.000  s_r6:  1.217
	s8:  0.722  s_r8:  1.000
	Per-atom parameters loaded for:
	Pt:  sqrtQ[a0]:  5.888  Rcov[a0]:  2.116  CN: [ 0.00 1.92 6.67 ]

Initializing DFT-D2 calculator for fluid / solvation:
	Pt:  C6:  815.23 Eh-a0^6  R0: 3.326 a0 (WARNING: beyond Grimme's data set)

---------- Setting up ewald sum ----------
Optimum gaussian width for ewald sums = 4.402079 bohr.
Real space sum over 665 unit cells with max indices [  9  3  2  ]
Reciprocal space sum over 7497 terms with max indices [  3  10  25  ]

Computing DFT-D3 correction:
# coordination-number Pt 7.045 8.289 7.126 9.320 9.391 9.552 5.893 9.333 9.550 9.479 9.567 9.537 9.544 9.526 9.317 9.560 9.565 9.502 9.373 7.040 9.087 7.056 9.093 9.326 9.378 9.509 9.550 9.559 7.044 9.532 9.563 9.539 9.567 9.471 9.382 9.326 8.286 9.550 9.546 9.315 7.126 5.892 7.043 7.055
# diagonal-C6 Pt 336.87 336.87 336.87 336.87 336.87 336.87 336.87 336.87 336.87 336.87 336.87 336.87 336.87 336.87 336.87 336.87 336.87 336.87 336.87 336.87 336.87 336.87 336.87 336.87 336.87 336.87 336.87 336.87 336.87 336.87 336.87 336.87 336.87 336.87 336.87 336.87 336.87 336.87 336.87 336.87 336.87 336.87 336.87 336.87
EvdW_6 =   -0.420239
EvdW_8 =   -0.656665

---------- Allocating electronic variables ----------
Initializing wave functions:  reading from 'jdft.wfns'
----- createFluidSolver() ----- (Fluid-side solver setup)
   Initializing fluid molecule 'H2O'
     Initializing site 'O'
       Electron density: proportional to exp(-r/0.36935)*erfc((r-0.51523)/0.36823) with norm 6.826
       Charge density: gaussian nuclear width 0.478731 with net site charge 0.826
       Polarizability: cuspless exponential with width 0.32 and norm 3.73
       Hard sphere radius: 2.57003 bohrs
       Positions in reference frame:
         [ +0.000000 +0.000000 +0.000000 ]
     Initializing site 'H'
       Electron density: proportional to exp(-r/0.34641)*erfc((r-0)/0.390882) with norm 0.587
       Charge density: gaussian nuclear width 0.377945 with net site charge -0.413
       Polarizability: cuspless exponential with width 0.39 and norm 3.3
       Positions in reference frame:
         [ +0.000000 -1.441945 +1.122523 ]
         [ +0.000000 +1.441945 +1.122523 ]
     Net charge: 0   dipole magnitude: 0.927204
     Initializing spherical shell mfKernel with radius 2.61727 Bohr
     deltaS corrections:
       site 'O': -7.54299
       site 'H': -6.83917
   Initializing fluid molecule 'Na+'
     Initializing site 'Na'
       Electron density: proportional to exp(-r/0.19682)*erfc((r-0.71491)/0.41314) with norm 8.1383
       Charge density: gaussian nuclear width 0.365347 with net site charge -1
       Hard sphere radius: 1.86327 bohrs
       Positions in reference frame:
         [ +0.000000 +0.000000 +0.000000 ]
     Net charge: -1   dipole magnitude: 0
     Initializing gaussian mfKernel with width: 1.55004 Bohr
     deltaS corrections:
       site 'Na': -22.3555
   Initializing fluid molecule 'F-'
     Initializing site 'F'
       Electron density: proportional to exp(-r/0.38886)*erfc((r-0)/0.438782) with norm 8
       Charge density: gaussian nuclear width 0.374796 with net site charge 1
       Hard sphere radius: 2.39995 bohrs
       Positions in reference frame:
         [ +0.000000 +0.000000 +0.000000 ]
     Net charge: 1   dipole magnitude: 0
     Initializing gaussian mfKernel with width: 1.59012 Bohr
     deltaS corrections:
       site 'F': -9.04335

Correction to mu due to finite nuclear width = -0.0783795
   Cavity determined by nc: 0.00142 and sigma: 0.707107
   Nonlocal vdW cavity from gaussian model electron density with norm = 8 and sigma = 0.993594 bohr
   Charge asymmetry in cavity with sensitivity pCavity = 36.5 e-bohr/Eh
   Electrostatic cavity expanded by eta = 1.46 bohrs
   Weighted density cavitation model constrained by Nbulk: 0.0049383 bohr^-3, Pvap: 3.14029 kPa, Rvdw: 2.61727 bohr and sigmaBulk: 4.62e-05 Eh/bohr^2 at T: 298 K.
   Weighted density dispersion model using vdW pair potentials with single solvent site with sqrtC6eff: 0.77 SI.
Reading fluid state from 'jdft.fluidState'


---- Citations for features of the code used in this run ----

   Software package:
      R. Sundararaman, K. Letchworth-Weaver, K.A. Schwarz, D. Gunceler, Y. Ozhabes and T.A. Arias, 'JDFTx: software for joint density-functional theory', SoftwareX 6, 278 (2017)

   gga-PBE exchange-correlation functional:
      J.P. Perdew, K. Burke and M. Ernzerhof, Phys. Rev. Lett. 77, 3865 (1996)

   Pseudopotentials:
      KF Garrity, JW Bennett, KM Rabe and D Vanderbilt, Comput. Mater. Sci. 81, 446 (2014)

   DFT-D3 dispersion correction:
      S. Grimme, J. Antony, S. Ehrlich and H. Krieg, J. Chem. Phys. 132, 154104 (2010)

   DFT-D2 dispersion correction:
      S. Grimme, J. Comput. Chem. 27, 1787 (2006)

   Charge-asymmetric nonlocally-determined local-electric (CANDLE) solvation model:
      R. Sundararaman and W.A. Goddard III, J. Chem. Phys. 142, 064107 (2015)

   Total energy minimization with Auxiliary Hamiltonian:
      C. Freysoldt, S. Boeck, and J. Neugebauer, Phys. Rev. B 79, 241103(R) (2009)

   Grand-canonical (fixed-potential) DFT:
      R. Sundararaman, W. A. Goddard III and T. A. Arias, J. Chem. Phys. 146, 114104 (2017)

   Linear-tetrahedron sampling for density of states:
      G. Lehmann and M. Taut, Phys. status solidi (b) 54, 469 (1972)

This list may not be complete. Please suggest additional citations or
report any other bugs at https://github.com/shankar1729/jdftx/issues

Initialization completed successfully at t[s]:     39.84


Computing DFT-D3 correction:
# coordination-number Pt 7.045 8.289 7.126 9.320 9.391 9.552 5.893 9.333 9.550 9.479 9.567 9.537 9.544 9.526 9.317 9.560 9.565 9.502 9.373 7.040 9.087 7.056 9.093 9.326 9.378 9.509 9.550 9.559 7.044 9.532 9.563 9.539 9.567 9.471 9.382 9.326 8.286 9.550 9.546 9.315 7.126 5.892 7.043 7.055
# diagonal-C6 Pt 336.87 336.87 336.87 336.87 336.87 336.87 336.87 336.87 336.87 336.87 336.87 336.87 336.87 336.87 336.87 336.87 336.87 336.87 336.87 336.87 336.87 336.87 336.87 336.87 336.87 336.87 336.87 336.87 336.87 336.87 336.87 336.87 336.87 336.87 336.87 336.87 336.87 336.87 336.87 336.87 336.87 336.87 336.87 336.87
EvdW_6 =   -0.420239
EvdW_8 =   -0.656665
Shifting auxilliary hamiltonian by -0.000022 to set nElectrons=706.805097

-------- Electronic minimization -----------
	Linear fluid (dielectric constant: 78.4, screening length: 8.12261 Bohr) occupying 0.415617 of unit cell:	Completed after 19 iterations at t[s]:     67.46
	FillingsUpdate:  mu: -0.097800000  nElectrons: 706.805097  magneticMoment: [ Abs: 0.00000  Tot: +0.00000 ]
ElecMinimize: Iter:   0  G: -3846.151321659710447  |grad|_K:  7.266e-06  alpha:  1.000e+00
	Linear fluid (dielectric constant: 78.4, screening length: 8.12261 Bohr) occupying 0.357119 of unit cell:	Completed after 32 iterations at t[s]:    253.96
	Linear fluid (dielectric constant: 78.4, screening length: 8.12261 Bohr) occupying 0.415497 of unit cell:	Completed after 48 iterations at t[s]:    312.69
	FillingsUpdate:  mu: -0.097800000  nElectrons: 706.794459  magneticMoment: [ Abs: 0.00000  Tot: +0.00000 ]
	SubspaceRotationAdjust: set factor to 0.511
ElecMinimize: Iter:   1  G: -3846.151368612321676  |grad|_K:  2.722e-06  alpha:  1.048e-03  linmin: -5.033e-02  t[s]:    387.54
	Linear fluid (dielectric constant: 78.4, screening length: 8.12261 Bohr) occupying 0.415485 of unit cell:	Completed after 15 iterations at t[s]:    462.06
ElecMinimize: 	Predicted alpha/alphaT>3.000000, increasing alphaT to 3.143694e-03.
	Linear fluid (dielectric constant: 78.4, screening length: 8.12261 Bohr) occupying 0.415459 of unit cell:	Completed after 15 iterations at t[s]:    514.03
	Linear fluid (dielectric constant: 78.4, screening length: 8.12261 Bohr) occupying 0.415446 of unit cell:	Completed after 15 iterations at t[s]:    566.38
	FillingsUpdate:  mu: -0.097800000  nElectrons: 706.789994  magneticMoment: [ Abs: 0.00000  Tot: +0.00000 ]
	SubspaceRotationAdjust: set factor to 0.258
ElecMinimize: Iter:   2  G: -3846.151394671558592  |grad|_K:  3.424e-06  alpha:  4.147e-03  linmin:  4.488e-05  t[s]:    641.31
	Linear fluid (dielectric constant: 78.4, screening length: 8.12261 Bohr) occupying 0.415554 of unit cell:	Completed after 19 iterations at t[s]:    716.15
	Linear fluid (dielectric constant: 78.4, screening length: 8.12261 Bohr) occupying 0.415570 of unit cell:	Completed after 10 iterations at t[s]:    768.01
	FillingsUpdate:  mu: -0.097800000  nElectrons: 706.801148  magneticMoment: [ Abs: 0.00000  Tot: +0.00000 ]
	SubspaceRotationAdjust: set factor to 0.13
	SubspaceRotationAdjust: resetting CG because factor has changed by 0.130224
	Linear fluid (dielectric constant: 78.4, screening length: 8.12261 Bohr) occupying 0.415570 of unit cell:	Completed after 0 iterations at t[s]:    859.96
ElecMinimize: 	State modified externally: resetting search direction.
ElecMinimize: Iter:   3  G: -3846.151434244552547  |grad|_K:  1.233e-06  alpha:  4.741e-03
	Linear fluid (dielectric constant: 78.4, screening length: 8.12261 Bohr) occupying 0.415607 of unit cell:	Completed after 15 iterations at t[s]:   1008.78
	Linear fluid (dielectric constant: 78.4, screening length: 8.12261 Bohr) occupying 0.415635 of unit cell:	Completed after 15 iterations at t[s]:   1061.16
	FillingsUpdate:  mu: -0.097800000  nElectrons: 706.806972  magneticMoment: [ Abs: 0.00000  Tot: +0.00000 ]
	SubspaceRotationAdjust: set factor to 0.0513
ElecMinimize: Iter:   4  G: -3846.151443461830695  |grad|_K:  2.403e-07  alpha:  8.346e-03  linmin: -1.613e-02  t[s]:   1136.38
	Linear fluid (dielectric constant: 78.4, screening length: 8.12261 Bohr) occupying 0.415634 of unit cell:	Completed after 5 iterations at t[s]:   1208.88
ElecMinimize: 	Predicted alpha/alphaT>3.000000, increasing alphaT to 2.503690e-02.
	Linear fluid (dielectric constant: 78.4, screening length: 8.12261 Bohr) occupying 0.415634 of unit cell:	Completed after 9 iterations at t[s]:   1259.73
	Linear fluid (dielectric constant: 78.4, screening length: 8.12261 Bohr) occupying 0.415632 of unit cell:	Completed after 13 iterations at t[s]:   1311.27
	FillingsUpdate:  mu: -0.097800000  nElectrons: 706.806709  magneticMoment: [ Abs: 0.00000  Tot: +0.00000 ]
	SubspaceRotationAdjust: set factor to 0.0288
ElecMinimize: Iter:   5  G: -3846.151446313591350  |grad|_K:  2.044e-07  alpha:  6.729e-02  linmin:  9.977e-05  t[s]:   1386.60
	Linear fluid (dielectric constant: 78.4, screening length: 8.12261 Bohr) occupying 0.415580 of unit cell:	Completed after 16 iterations at t[s]:   1461.39
	Linear fluid (dielectric constant: 78.4, screening length: 8.12261 Bohr) occupying 0.415605 of unit cell:	Completed after 15 iterations at t[s]:   1513.75
	FillingsUpdate:  mu: -0.097800000  nElectrons: 706.804324  magneticMoment: [ Abs: 0.00000  Tot: +0.00000 ]
	SubspaceRotationAdjust: set factor to 0.0197
ElecMinimize: Iter:   6  G: -3846.151447359028680  |grad|_K:  1.019e-07  alpha:  3.504e-02  linmin:  1.264e-04  t[s]:   1588.67
	Linear fluid (dielectric constant: 78.4, screening length: 8.12261 Bohr) occupying 0.415603 of unit cell:	Completed after 4 iterations at t[s]:   1660.94
ElecMinimize: 	Predicted alpha/alphaT>3.000000, increasing alphaT to 1.051218e-01.
	Linear fluid (dielectric constant: 78.4, screening length: 8.12261 Bohr) occupying 0.415599 of unit cell:	Completed after 9 iterations at t[s]:   1712.28
	Linear fluid (dielectric constant: 78.4, screening length: 8.12261 Bohr) occupying 0.415596 of unit cell:	Completed after 5 iterations at t[s]:   1762.79
	FillingsUpdate:  mu: -0.097800000  nElectrons: 706.803503  magneticMoment: [ Abs: 0.00000  Tot: +0.00000 ]
	SubspaceRotationAdjust: set factor to 0.0149
	SubspaceRotationAdjust: resetting CG because factor has changed by 0.11414
	Linear fluid (dielectric constant: 78.4, screening length: 8.12261 Bohr) occupying 0.415596 of unit cell:	Completed after 0 iterations at t[s]:   1854.68
ElecMinimize: 	State modified externally: resetting search direction.
ElecMinimize: Iter:   7  G: -3846.151448493269527  |grad|_K:  5.355e-08  alpha:  1.535e-01
	Linear fluid (dielectric constant: 78.4, screening length: 8.12261 Bohr) occupying 0.415610 of unit cell:	Completed after 14 iterations at t[s]:   2002.61
	Linear fluid (dielectric constant: 78.4, screening length: 8.12261 Bohr) occupying 0.415606 of unit cell:	Completed after 5 iterations at t[s]:   2053.27
	FillingsUpdate:  mu: -0.097800000  nElectrons: 706.804479  magneticMoment: [ Abs: 0.00000  Tot: +0.00000 ]
	SubspaceRotationAdjust: set factor to 0.00964
ElecMinimize: Iter:   8  G: -3846.151448735834038  |grad|_K:  3.907e-08  alpha:  1.169e-01  linmin:  1.060e-02  t[s]:   2128.48
	Linear fluid (dielectric constant: 78.4, screening length: 8.12261 Bohr) occupying 0.415606 of unit cell:	Completed after 6 iterations at t[s]:   2201.00
	Linear fluid (dielectric constant: 78.4, screening length: 8.12261 Bohr) occupying 0.415606 of unit cell:	Completed after 3 iterations at t[s]:   2251.19
	FillingsUpdate:  mu: -0.097800000  nElectrons: 706.804410  magneticMoment: [ Abs: 0.00000  Tot: +0.00000 ]
	SubspaceRotationAdjust: set factor to 0.0148
ElecMinimize: Iter:   9  G: -3846.151448952035935  |grad|_K:  1.568e-08  alpha:  1.987e-01  linmin: -3.487e-02  t[s]:   2326.25
	Linear fluid (dielectric constant: 78.4, screening length: 8.12261 Bohr) occupying 0.415604 of unit cell:	Completed after 6 iterations at t[s]:   2399.34
	Linear fluid (dielectric constant: 78.4, screening length: 8.12261 Bohr) occupying 0.415604 of unit cell:	Completed after 0 iterations at t[s]:   2448.72
	FillingsUpdate:  mu: -0.097800000  nElectrons: 706.804252  magneticMoment: [ Abs: 0.00000  Tot: +0.00000 ]
	SubspaceRotationAdjust: set factor to 0.00969
ElecMinimize: Iter:  10  G: -3846.151448991558937  |grad|_K:  1.958e-08  alpha:  2.060e-01  linmin: -3.495e-02  t[s]:   2523.79
	Linear fluid (dielectric constant: 78.4, screening length: 8.12261 Bohr) occupying 0.415608 of unit cell:	Completed after 5 iterations at t[s]:   2596.47
	Linear fluid (dielectric constant: 78.4, screening length: 8.12261 Bohr) occupying 0.415608 of unit cell:	Completed after 0 iterations at t[s]:   2645.67
	FillingsUpdate:  mu: -0.097800000  nElectrons: 706.804636  magneticMoment: [ Abs: 0.00000  Tot: +0.00000 ]
	SubspaceRotationAdjust: set factor to 0.015
ElecMinimize: Iter:  11  G: -3846.151449067619069  |grad|_K:  1.179e-08  alpha:  2.202e-01  linmin: -7.500e-03  t[s]:   2720.68
ElecMinimize: Converged (|Delta G|<1.000000e-07 for 2 iters).
Setting wave functions to eigenvectors of Hamiltonian
Converging empty states (this may take a while): |deigs|: 1.567e-09

Computing DFT-D3 correction:
# coordination-number Pt 7.045 8.289 7.126 9.320 9.391 9.552 5.893 9.333 9.550 9.479 9.567 9.537 9.544 9.526 9.317 9.560 9.565 9.502 9.373 7.040 9.087 7.056 9.093 9.326 9.378 9.509 9.550 9.559 7.044 9.532 9.563 9.539 9.567 9.471 9.382 9.326 8.286 9.550 9.546 9.315 7.126 5.892 7.043 7.055
# diagonal-C6 Pt 336.87 336.87 336.87 336.87 336.87 336.87 336.87 336.87 336.87 336.87 336.87 336.87 336.87 336.87 336.87 336.87 336.87 336.87 336.87 336.87 336.87 336.87 336.87 336.87 336.87 336.87 336.87 336.87 336.87 336.87 336.87 336.87 336.87 336.87 336.87 336.87 336.87 336.87 336.87 336.87 336.87 336.87 336.87 336.87
EvdW_6 =   -0.420239
EvdW_8 =   -0.656665

# Ionic positions in cartesian coordinates:
ion Pt   0.000196507401998  15.429755852869953  68.240339755023214 1
ion Pt   0.000295016700325  22.530088862273079  65.392917448810238 1
ion Pt  -0.000045319194726   6.710297010356781  66.805734879228837 1
ion Pt  -0.000087665903803  13.349164737474341  63.427435917005440 1
ion Pt   0.000017833391500  20.208414955059972  60.340989466341988 1
ion Pt  -0.000015439213610  17.886903163792827  55.564078543213412 1
ion Pt  -0.000269785026054   0.295817683005591  35.295846854838302 1
ion Pt   5.231963267086653   4.474140956199280  61.974422567177825 1
ion Pt   5.231868223543315  11.163139876920619  58.727728546194584 1
ion Pt   5.231984296020097   2.220535980782233  57.251939608594718 1
ion Pt   5.231903533426899   8.923288576227993  54.017074626318120 1
ion Pt  -0.000034614912376  15.622887046255219  50.853268589454089 1
ion Pt   0.000001337329680  22.290547877378703  47.699038098015656 1
ion Pt   0.000016777053618  13.389652653189769  46.160600988531861 1
ion Pt  -0.000100329862033  20.023131328967139  42.810317226584473 1
ion Pt   0.000095753488744  24.534597429687132  52.498406530285031 1
ion Pt   0.000055677270815   6.667813602671236  49.294146190296004 1
ion Pt   5.232026126784378   4.406585250553860  44.620552902695124 1
ion Pt   5.232056601569824  11.168948678300604  41.433406739834147 1
ion Pt   5.231773243982105  17.721548973284545  37.927897400806948 1
ion Pt  -0.000034583902280   2.211351863665474  40.008956855522740 1
ion Pt   5.232119987617228   9.000304564434954  36.552341347411271 1
ion Pt   2.616082971638981  17.866525803371626  64.104224929152849 1
ion Pt   2.616117693814323   0.053851524039289  61.304088189326713 1
ion Pt   2.615880498952217   8.908307689012046  62.680586090476673 1
ion Pt   2.615972080071055  15.672119640669854  59.496231631047586 1
ion Pt   2.616029917476295  22.329191952662022  56.418873291587609 1
ion Pt   2.615959623633784  20.085943962708942  51.620270084938390 1
ion Pt   2.616168440513069   2.355822412717064  66.184734829220233 1
ion Pt   2.615908402091057   6.688345299108160  57.957029982840382 1
ion Pt   2.615930989024736  13.411093062428193  54.823055014977705 1
ion Pt   2.616049389266271   4.456316100734949  53.265024542332611 1
ion Pt   2.615985634302382  11.154792179936866  50.100877965313124 1
ion Pt   2.615981999816296  17.858473751165331  46.865790479872054 1
ion Pt   2.616005488987830  -0.131390510634486  43.774258778294367 1
ion Pt   2.615990602439352  15.602425336426084  42.139904361658452 1
ion Pt   2.615682687672623  22.088513083372618  38.719973649720387 1
ion Pt   2.616034288115962   2.193196198724008  48.553186574980614 1
ion Pt   2.616042842873141   8.914935654561351  45.389670906239303 1
ion Pt   2.616061390734712   6.729167576271722  40.685360350739963 1
ion Pt   2.616036193416896  13.367394605301554  37.307623364305066 1
ion Pt   2.616325164952246  19.782974475044750  68.818184011415923 1
ion Pt   2.615851408654513   4.649906358293855  35.871762150429078 1
ion Pt   2.616039846899977  11.078069920733062  67.560377738947608 1

# Forces in Cartesian coordinates:
force Pt   0.000001416066246  -0.000098317654347   0.000665477398677 1
force Pt   0.000002350955873   0.000031888668814   0.000595163092586 1
force Pt   0.000003768738460  -0.000204568994426   0.000236529726584 1
force Pt   0.000001198449654  -0.000214378893325   0.000258107365164 1
force Pt   0.000002312342310   0.000207801029317  -0.000479438641284 1
force Pt  -0.000000472230180  -0.000071074507507  -0.000074636455794 1
force Pt  -0.000004296138820   0.000259214455896  -0.000542339947544 1
force Pt   0.000001756851831  -0.000287134617113  -0.000321127647163 1
force Pt   0.000000385875063   0.000130970476817  -0.000392441823839 1
force Pt   0.000002996013012  -0.000165470677663   0.000257613157747 1
force Pt   0.000000292771708   0.000199448298662  -0.000007315820737 1
force Pt  -0.000001165731569  -0.000064620656922  -0.000410457880006 1
force Pt  -0.000001632080371   0.000086711310103  -0.000334374527027 1
force Pt  -0.000000143723861  -0.000062019700870  -0.000255764029144 1
force Pt  -0.000002324564871   0.000141942883952   0.000494088827566 1
force Pt  -0.000000141688697   0.000021169397636   0.000146696635594 1
force Pt   0.000001216774909  -0.000011645792237  -0.000013502575670 1
force Pt   0.000001884414290  -0.000156175385282   0.000529847059227 1
force Pt  -0.000002062449142  -0.000188843547162   0.000425873970038 1
force Pt   0.000000998308532  -0.000251762917911  -0.000676835242913 1
force Pt   0.000000196975272  -0.000028875958292   0.000006847832475 1
force Pt  -0.000003779462017   0.000054804172174   0.000263414764394 1
force Pt  -0.000000888384081   0.000215286159517   0.000367570571794 1
force Pt  -0.000000020817307  -0.000202670235535  -0.000402914475764 1
force Pt   0.000000447010253   0.000112295888538  -0.000142700184916 1
force Pt  -0.000001612559834   0.000190622896169  -0.000863133494162 1
force Pt   0.000000466885925  -0.000036172535103   0.000220784556492 1
force Pt  -0.000000971163539   0.000011692472434  -0.000350157309420 1
force Pt   0.000000191818405   0.000285690496227   0.000788296925129 1
force Pt   0.000001367424422   0.000037418411220   0.000080849170176 1
force Pt  -0.000001254295080   0.000017777482312  -0.000056657198778 1
force Pt  -0.000000122292676   0.000056097346019   0.000190461435312 1
force Pt   0.000000102805553  -0.000189578240560  -0.000166797912160 1
force Pt  -0.000002733604927   0.000107327625094  -0.000414545304092 1
force Pt  -0.000001340483754  -0.000055275996243   0.000536101251766 1
force Pt  -0.000001887253310   0.000265466271707   0.000536165435806 1
force Pt  -0.000000027182625  -0.000133044651488  -0.000480812819246 1
force Pt   0.000001439341707   0.000010158446524  -0.000020345690412 1
force Pt   0.000000509473707  -0.000121237278982   0.000094230910938 1
force Pt   0.000000176399313   0.000133166975391   0.000145975019743 1
force Pt  -0.000000652375810   0.000163573328942  -0.000133704558615 1
force Pt   0.000001850882495  -0.000206688813132   0.000537148529505 1
force Pt   0.000001131953205   0.000058049348783  -0.000656127084206 1
force Pt   0.000003249708531  -0.000006129436571  -0.000130597278639 1

# Energy components:
   A_diel =       -1.5614661590843755
   Eewald =    31415.0826411880516389
       EH =    35043.3155361835961230
     Eloc =   -71050.3450410270888824
      Enl =      -46.4240649348311933
     EvdW =       -1.0769032950488169
      Exc =    -1252.6687554538839322
 Exc_core =      721.2207633014281782
       KE =     1257.4074322571359517
  MuShift =       -0.2198259711911714
-------------------------------------
     Etot =    -3915.2696839109230496
       TS =        0.0072585516946652
-------------------------------------
        F =    -3915.2769424626176260
      muN =      -69.1254933949987134
-------------------------------------
        G =    -3846.1514490676190690


Dumping 'jdft.fillings' ... done
Dumping 'jdft.wfns' ... done
Dumping 'jdft.fluidState' ... done
Dumping 'jdft.ionpos' ... done
Dumping 'jdft.lattice' ... done
Dumping 'jdft.eigenvals' ... done
Dumping 'jdft.eigStats' ... 
	eMin: -2.047699 at state 13 ( [ -0.454545 +0.500000 +0.000000 ] spin 1 )
	HOMO: -0.097799 at state 31 ( [ +0.363636 +0.500000 +0.000000 ] spin -1 )
	mu  : -0.097800
	LUMO: -0.097789 at state 21 ( [ -0.090909 +0.500000 +0.000000 ] spin 1 )
	eMax: +0.186955 at state 33 ( [ +0.454545 +0.500000 +0.000000 ] spin -1 )
	HOMO-LUMO gap: +0.000010
	Optical gap  : +0.000189 at state 32 ( [ +0.454545 +0.000000 +0.000000 ] spin -1 )
Dumping 'jdft.Ecomponents' ... done
IonicMinimize: Iter:   0  G: -3846.151449067619069  |grad|_K:  2.474e-04  t[s]:   2930.12

#--- Lowdin population analysis ---
# oxidation-state Pt -0.260 -0.082 -0.246 +0.003 +0.013 +0.008 -0.316 +0.010 +0.011 +0.009 +0.009 +0.009 +0.008 +0.014 +0.007 +0.008 +0.011 +0.016 +0.009 -0.194 -0.003 -0.245 -0.003 +0.006 +0.008 +0.016 +0.008 +0.009 -0.196 +0.015 +0.009 +0.010 +0.009 +0.008 +0.014 +0.011 -0.080 +0.008 +0.011 +0.003 -0.244 -0.315 -0.260 -0.245
# magnetic-moments Pt +0.000 +0.000 +0.000 +0.000 +0.000 +0.000 +0.000 +0.000 +0.000 +0.000 +0.000 +0.000 +0.000 +0.000 +0.000 +0.000 +0.000 +0.000 +0.000 +0.000 +0.000 +0.000 +0.000 +0.000 +0.000 +0.000 +0.000 +0.000 +0.000 +0.000 +0.000 +0.000 +0.000 +0.000 +0.000 +0.000 +0.000 +0.000 +0.000 +0.000 +0.000 +0.000 +0.000 +0.000


Computing DFT-D3 correction:
# coordination-number Pt 7.044 8.287 7.126 9.319 9.391 9.553 5.892 9.332 9.550 9.479 9.568 9.536 9.545 9.526 9.317 9.559 9.565 9.503 9.373 7.038 9.085 7.056 9.091 9.325 9.377 9.508 9.551 9.558 7.042 9.532 9.564 9.539 9.567 9.472 9.383 9.326 8.284 9.550 9.547 9.314 7.125 5.892 7.042 7.055
# diagonal-C6 Pt 336.87 336.87 336.87 336.87 336.87 336.87 336.87 336.87 336.87 336.87 336.87 336.87 336.87 336.87 336.87 336.87 336.87 336.87 336.87 336.87 336.87 336.87 336.87 336.87 336.87 336.87 336.87 336.87 336.87 336.87 336.87 336.87 336.87 336.87 336.87 336.87 336.87 336.87 336.87 336.87 336.87 336.87 336.87 336.87
EvdW_6 =   -0.420235
EvdW_8 =   -0.656652
Shifting auxilliary hamiltonian by 0.000007 to set nElectrons=706.804636

-------- Electronic minimization -----------
	Linear fluid (dielectric constant: 78.4, screening length: 8.12261 Bohr) occupying 0.415592 of unit cell:	Completed after 17 iterations at t[s]:   3015.93
	FillingsUpdate:  mu: -0.097800000  nElectrons: 706.804636  magneticMoment: [ Abs: 0.00000  Tot: +0.00000 ]
ElecMinimize: Iter:   0  G: -3846.151417013797072  |grad|_K:  3.144e-07  alpha:  1.000e+00
	Linear fluid (dielectric constant: 78.4, screening length: 8.12261 Bohr) occupying 0.415598 of unit cell:	Completed after 19 iterations at t[s]:   3180.19
	Linear fluid (dielectric constant: 78.4, screening length: 8.12261 Bohr) occupying 0.415595 of unit cell:	Completed after 19 iterations at t[s]:   3233.37
	FillingsUpdate:  mu: -0.097800000  nElectrons: 706.804584  magneticMoment: [ Abs: 0.00000  Tot: +0.00000 ]
	SubspaceRotationAdjust: set factor to 0.0184
ElecMinimize: Iter:   1  G: -3846.151440166708653  |grad|_K:  1.388e-07  alpha:  3.273e-01  linmin: -6.057e-04  t[s]:   3308.17
	Linear fluid (dielectric constant: 78.4, screening length: 8.12261 Bohr) occupying 0.415571 of unit cell:	Completed after 15 iterations at t[s]:   3382.85
	Linear fluid (dielectric constant: 78.4, screening length: 8.12261 Bohr) occupying 0.415573 of unit cell:	Completed after 2 iterations at t[s]:   3432.95
	FillingsUpdate:  mu: -0.097800000  nElectrons: 706.802491  magneticMoment: [ Abs: 0.00000  Tot: +0.00000 ]
	SubspaceRotationAdjust: set factor to 0.0115
ElecMinimize: Iter:   2  G: -3846.151444442255070  |grad|_K:  1.617e-07  alpha:  3.110e-01  linmin:  1.372e-03  t[s]:   3507.98
	Linear fluid (dielectric constant: 78.4, screening length: 8.12261 Bohr) occupying 0.415652 of unit cell:	Completed after 17 iterations at t[s]:   3583.85
	Linear fluid (dielectric constant: 78.4, screening length: 8.12261 Bohr) occupying 0.415597 of unit cell:	Completed after 16 iterations at t[s]:   3636.14
	FillingsUpdate:  mu: -0.097800000  nElectrons: 706.804620  magneticMoment: [ Abs: 0.00000  Tot: +0.00000 ]
	SubspaceRotationAdjust: set factor to 0.00775
ElecMinimize: Iter:   3  G: -3846.151446175609181  |grad|_K:  7.860e-08  alpha:  9.585e-02  linmin:  1.129e-03  t[s]:   3711.10
	Linear fluid (dielectric constant: 78.4, screening length: 8.12261 Bohr) occupying 0.415598 of unit cell:	Completed after 2 iterations at t[s]:   3783.12
ElecMinimize: 	Predicted alpha/alphaT>3.000000, increasing alphaT to 2.875614e-01.
	Linear fluid (dielectric constant: 78.4, screening length: 8.12261 Bohr) occupying 0.415599 of unit cell:	Completed after 6 iterations at t[s]:   3833.73
	Linear fluid (dielectric constant: 78.4, screening length: 8.12261 Bohr) occupying 0.415601 of unit cell:	Completed after 8 iterations at t[s]:   3884.77
	FillingsUpdate:  mu: -0.097800000  nElectrons: 706.804890  magneticMoment: [ Abs: 0.00000  Tot: +0.00000 ]
	SubspaceRotationAdjust: set factor to 0.0108
ElecMinimize: Iter:   4  G: -3846.151448228908976  |grad|_K:  6.100e-08  alpha:  4.689e-01  linmin: -5.504e-04  t[s]:   3959.67
	Linear fluid (dielectric constant: 78.4, screening length: 8.12261 Bohr) occupying 0.415583 of unit cell:	Completed after 14 iterations at t[s]:   4034.02
	Linear fluid (dielectric constant: 78.4, screening length: 8.12261 Bohr) occupying 0.415587 of unit cell:	Completed after 5 iterations at t[s]:   4084.54
	FillingsUpdate:  mu: -0.097800000  nElectrons: 706.803543  magneticMoment: [ Abs: 0.00000  Tot: +0.00000 ]
	SubspaceRotationAdjust: set factor to 0.00814
ElecMinimize: Iter:   5  G: -3846.151449255893567  |grad|_K:  8.216e-08  alpha:  3.841e-01  linmin:  1.463e-03  t[s]:   4159.53
	Linear fluid (dielectric constant: 78.4, screening length: 8.12261 Bohr) occupying 0.415606 of unit cell:	Completed after 15 iterations at t[s]:   4234.64
	Linear fluid (dielectric constant: 78.4, screening length: 8.12261 Bohr) occupying 0.415599 of unit cell:	Completed after 11 iterations at t[s]:   4286.33
	FillingsUpdate:  mu: -0.097800000  nElectrons: 706.804630  magneticMoment: [ Abs: 0.00000  Tot: +0.00000 ]
	SubspaceRotationAdjust: set factor to 0.00687
ElecMinimize: Iter:   6  G: -3846.151450432974798  |grad|_K:  5.256e-08  alpha:  2.519e-01  linmin: -2.045e-04  t[s]:   4361.14
	Linear fluid (dielectric constant: 78.4, screening length: 8.12261 Bohr) occupying 0.415599 of unit cell:	Completed after 2 iterations at t[s]:   4433.48
	Linear fluid (dielectric constant: 78.4, screening length: 8.12261 Bohr) occupying 0.415599 of unit cell:	Completed after 2 iterations at t[s]:   4483.59
	FillingsUpdate:  mu: -0.097800000  nElectrons: 706.804562  magneticMoment: [ Abs: 0.00000  Tot: +0.00000 ]
	SubspaceRotationAdjust: set factor to 0.00802
ElecMinimize: Iter:   7  G: -3846.151451760474174  |grad|_K:  5.032e-08  alpha:  6.708e-01  linmin: -3.278e-04  t[s]:   4558.73
	Linear fluid (dielectric constant: 78.4, screening length: 8.12261 Bohr) occupying 0.415585 of unit cell:	Completed after 14 iterations at t[s]:   4632.83
	Linear fluid (dielectric constant: 78.4, screening length: 8.12261 Bohr) occupying 0.415588 of unit cell:	Completed after 5 iterations at t[s]:   4683.21
	FillingsUpdate:  mu: -0.097800000  nElectrons: 706.803568  magneticMoment: [ Abs: 0.00000  Tot: +0.00000 ]
	SubspaceRotationAdjust: set factor to 0.00715
ElecMinimize: Iter:   8  G: -3846.151452689708094  |grad|_K:  5.583e-08  alpha:  5.103e-01  linmin:  7.418e-04  t[s]:   4758.24
	Linear fluid (dielectric constant: 78.4, screening length: 8.12261 Bohr) occupying 0.415608 of unit cell:	Completed after 14 iterations at t[s]:   4832.88
	Linear fluid (dielectric constant: 78.4, screening length: 8.12261 Bohr) occupying 0.415598 of unit cell:	Completed after 13 iterations at t[s]:   4884.93
	FillingsUpdate:  mu: -0.097800000  nElectrons: 706.804414  magneticMoment: [ Abs: 0.00000  Tot: +0.00000 ]
	SubspaceRotationAdjust: set factor to 0.00507
ElecMinimize: Iter:   9  G: -3846.151453216747541  |grad|_K:  4.226e-08  alpha:  2.480e-01  linmin:  1.246e-04  t[s]:   4959.89
	Linear fluid (dielectric constant: 78.4, screening length: 8.12261 Bohr) occupying 0.415596 of unit cell:	Completed after 3 iterations at t[s]:   5031.85
	Linear fluid (dielectric constant: 78.4, screening length: 8.12261 Bohr) occupying 0.415594 of unit cell:	Completed after 3 iterations at t[s]:   5082.97
	FillingsUpdate:  mu: -0.097800000  nElectrons: 706.804119  magneticMoment: [ Abs: 0.00000  Tot: +0.00000 ]
	SubspaceRotationAdjust: set factor to 0.00641
ElecMinimize: Iter:  10  G: -3846.151453861390564  |grad|_K:  3.160e-08  alpha:  5.110e-01  linmin:  7.016e-04  t[s]:   5158.05
	Linear fluid (dielectric constant: 78.4, screening length: 8.12261 Bohr) occupying 0.415588 of unit cell:	Completed after 12 iterations at t[s]:   5232.37
	Linear fluid (dielectric constant: 78.4, screening length: 8.12261 Bohr) occupying 0.415589 of unit cell:	Completed after 3 iterations at t[s]:   5282.50
	FillingsUpdate:  mu: -0.097800000  nElectrons: 706.803660  magneticMoment: [ Abs: 0.00000  Tot: +0.00000 ]
	SubspaceRotationAdjust: set factor to 0.00569
ElecMinimize: Iter:  11  G: -3846.151454122822997  |grad|_K:  3.364e-08  alpha:  3.811e-01  linmin: -2.519e-04  t[s]:   5357.60
	Linear fluid (dielectric constant: 78.4, screening length: 8.12261 Bohr) occupying 0.415597 of unit cell:	Completed after 12 iterations at t[s]:   5432.51
	Linear fluid (dielectric constant: 78.4, screening length: 8.12261 Bohr) occupying 0.415594 of unit cell:	Completed after 6 iterations at t[s]:   5483.18
	FillingsUpdate:  mu: -0.097800000  nElectrons: 706.804101  magneticMoment: [ Abs: 0.00000  Tot: +0.00000 ]
	SubspaceRotationAdjust: set factor to 0.0048
ElecMinimize: Iter:  12  G: -3846.151454307359472  |grad|_K:  2.113e-08  alpha:  2.352e-01  linmin:  9.876e-04  t[s]:   5558.30
	Linear fluid (dielectric constant: 78.4, screening length: 8.12261 Bohr) occupying 0.415595 of unit cell:	Completed after 0 iterations at t[s]:   5630.12
	Linear fluid (dielectric constant: 78.4, screening length: 8.12261 Bohr) occupying 0.415596 of unit cell:	Completed after 2 iterations at t[s]:   5681.15
	FillingsUpdate:  mu: -0.097800000  nElectrons: 706.804213  magneticMoment: [ Abs: 0.00000  Tot: +0.00000 ]
	SubspaceRotationAdjust: set factor to 0.00586
ElecMinimize: Iter:  13  G: -3846.151454463938990  |grad|_K:  1.743e-08  alpha:  5.350e-01  linmin:  6.578e-03  t[s]:   5756.24
	Linear fluid (dielectric constant: 78.4, screening length: 8.12261 Bohr) occupying 0.415592 of unit cell:	Completed after 7 iterations at t[s]:   5829.21
	Linear fluid (dielectric constant: 78.4, screening length: 8.12261 Bohr) occupying 0.415593 of unit cell:	Completed after 0 iterations at t[s]:   5878.76
	FillingsUpdate:  mu: -0.097800000  nElectrons: 706.803962  magneticMoment: [ Abs: 0.00000  Tot: +0.00000 ]
	SubspaceRotationAdjust: set factor to 0.00524
ElecMinimize: Iter:  14  G: -3846.151454560687853  |grad|_K:  1.795e-08  alpha:  4.697e-01  linmin:  5.710e-03  t[s]:   5953.73
	Linear fluid (dielectric constant: 78.4, screening length: 8.12261 Bohr) occupying 0.415597 of unit cell:	Completed after 7 iterations at t[s]:   6026.80
	Linear fluid (dielectric constant: 78.4, screening length: 8.12261 Bohr) occupying 0.415596 of unit cell:	Completed after 0 iterations at t[s]:   6076.27
	FillingsUpdate:  mu: -0.097800000  nElectrons: 706.804242  magneticMoment: [ Abs: 0.00000  Tot: +0.00000 ]
	SubspaceRotationAdjust: set factor to 0.00412
ElecMinimize: Iter:  15  G: -3846.151454629795808  |grad|_K:  1.561e-08  alpha:  3.297e-01  linmin:  6.911e-03  t[s]:   6151.31
ElecMinimize: Converged (|Delta G|<1.000000e-07 for 2 iters).
Setting wave functions to eigenvectors of Hamiltonian
Converging empty states (this may take a while): |deigs|: 4.237e-09

Computing DFT-D3 correction:
# coordination-number Pt 7.044 8.287 7.126 9.319 9.391 9.553 5.892 9.332 9.550 9.479 9.568 9.536 9.545 9.526 9.317 9.559 9.565 9.503 9.373 7.038 9.085 7.056 9.091 9.325 9.377 9.508 9.551 9.558 7.042 9.532 9.564 9.539 9.567 9.472 9.383 9.326 8.284 9.550 9.547 9.314 7.125 5.892 7.042 7.055
# diagonal-C6 Pt 336.87 336.87 336.87 336.87 336.87 336.87 336.87 336.87 336.87 336.87 336.87 336.87 336.87 336.87 336.87 336.87 336.87 336.87 336.87 336.87 336.87 336.87 336.87 336.87 336.87 336.87 336.87 336.87 336.87 336.87 336.87 336.87 336.87 336.87 336.87 336.87 336.87 336.87 336.87 336.87 336.87 336.87 336.87 336.87
EvdW_6 =   -0.420235
EvdW_8 =   -0.656652

# Ionic positions in cartesian coordinates:
ion Pt   0.000197828473740  15.429656560503071  68.241004084336993 1
ion Pt   0.000297272661693  22.530119776229359  65.393511463817930 1
ion Pt  -0.000041645450771   6.710091466649819  66.805970260870524 1
ion Pt  -0.000086562448653  13.348949383868481  63.427692876285711 1
ion Pt   0.000020050739306  20.208621781376756  60.340508879615818 1
ion Pt  -0.000016006438295  17.886831114572786  55.564002758672729 1
ion Pt  -0.000274176159378   0.296075922748951  35.295303366805868 1
ion Pt   5.231964928943979   4.473852846869632  61.974100291445779 1
ion Pt   5.231868514423874  11.163269872684900  58.727334956285858 1
ion Pt   5.231987197038604   2.220369535392035  57.252196073667569 1
ion Pt   5.231903731204103   8.923487049814121  54.017066162412490 1
ion Pt  -0.000035875638450  15.622821450885759  50.852856983489190 1
ion Pt  -0.000000389745195  22.290633613976269  47.698702575403743 1
ion Pt   0.000016538335252  13.389589658776364  46.160344076417822 1
ion Pt  -0.000102749421409  20.023272297138558  42.810810167327148 1
ion Pt   0.000095516805543  24.534617624372231  52.498552078835736 1
ion Pt   0.000056799051219   6.667800982166463  49.294131539635444 1
ion Pt   5.232027916204163   4.406428100456043  44.621081601669459 1
ion Pt   5.232054444126176  11.168758860040906  41.433831465719301 1
ion Pt   5.231774147296133  17.721296235654098  37.927219417479144 1
ion Pt  -0.000034481921512   2.211322012994647  40.008962555270330 1
ion Pt   5.232116113160706   9.000358393894592  36.552603614090778 1
ion Pt   2.616081988260395  17.866740114818608  64.104591351639755 1
ion Pt   2.616117578002511   0.053647879091218  61.303684126766051 1
ion Pt   2.615880850967965   8.908419010188048  62.680442242206865 1
ion Pt   2.615970372516717  15.672309288853487  59.495367349468530 1
ion Pt   2.616030289367715  22.329154805414380  56.419092928059214 1
ion Pt   2.615958557475741  20.085954680468841  51.619918779544079 1
ion Pt   2.616168537336970   2.356107128500755  66.185521978060478 1
ion Pt   2.615909674520974   6.688381742806844  57.957109683925665 1
ion Pt   2.615929639735151  13.411109865197970  54.822997209694037 1
ion Pt   2.616049171979090   4.456371223368433  53.265213855683037 1
ion Pt   2.615985642113430  11.154601626983769  50.100710019316075 1
ion Pt   2.615979171216863  17.858580104077888  46.865374786483073 1
ion Pt   2.616004053509571  -0.131446761343265  43.774793731461244 1
ion Pt   2.615988620191538  15.602689827985255  42.140439379009365 1
ion Pt   2.615682565495493  22.088379064008596  38.719491688816248 1
ion Pt   2.616035632463164   2.193205382457996  48.553165081205314 1
ion Pt   2.616043257352344   8.914813442569834  45.389763989065358 1
ion Pt   2.616061472139521   6.729299768534577  40.685505177674820 1
ion Pt   2.616035446046581  13.367557203917961  37.307488511661560 1
ion Pt   2.616326920840236  19.782766811519082  68.818720011860535 1
ion Pt   2.615852445613214   4.649963432930102  35.871104875259981 1
ion Pt   2.616043001614003  11.078062816583957  67.560245993584090 1

# Forces in Cartesian coordinates:
force Pt   0.000001399705535  -0.000121216268298   0.000266893978398 1
force Pt   0.000002262009636  -0.000078904647739   0.000145686572689 1
force Pt   0.000003688632000  -0.000103935543632  -0.000010643880469 1
force Pt   0.000001148993567  -0.000108050428804  -0.000011688291320 1
force Pt   0.000002204220775   0.000148487698110  -0.000491794245820 1
force Pt  -0.000000446007976  -0.000108239363908  -0.000014109200770 1
force Pt  -0.000004186042458   0.000317764455831  -0.000184322992409 1
force Pt   0.000001733209905  -0.000296987396770  -0.000519019393926 1
force Pt   0.000000343892385   0.000165583912553  -0.000476167261734 1
force Pt   0.000002950180567  -0.000155401331014   0.000232192449735 1
force Pt   0.000000290179910   0.000215719263492   0.000042181099528 1
force Pt  -0.000001187951031  -0.000119310372650  -0.000281770420793 1
force Pt  -0.000001555715876   0.000068188857544  -0.000364617535048 1
force Pt  -0.000000141691991   0.000019135827323  -0.000145464502602 1
force Pt  -0.000002231500100   0.000218760252706   0.000523181070501 1
force Pt  -0.000000151742629   0.000056416380498   0.000197253948057 1
force Pt   0.000001169070384  -0.000011096282648   0.000153657946287 1
force Pt   0.000001790813415  -0.000263166665758   0.000542899055292 1
force Pt  -0.000001927052888  -0.000107167583874   0.000516278539935 1
force Pt   0.000000872932804  -0.000214753782960  -0.000206291058386 1
force Pt   0.000000223603890  -0.000192078583582   0.000165623886433 1
force Pt  -0.000003647217528   0.000050453023454   0.000378581657854 1
force Pt  -0.000000799950449   0.000239915867144   0.000074977644037 1
force Pt   0.000000029386309  -0.000272916128167  -0.000507603521863 1
force Pt   0.000000437493456   0.000140034761405  -0.000389701917777 1
force Pt  -0.000001511751982   0.000190489165852  -0.000821500304133 1
force Pt   0.000000514460407  -0.000045301736040   0.000266048068598 1
force Pt  -0.000000960914471  -0.000002647285799  -0.000285176317922 1
force Pt   0.000000228699001   0.000273625115878   0.000345805308822 1
force Pt   0.000001353980304   0.000076947402538  -0.000021895108797 1
force Pt  -0.000001199677997  -0.000032381267610  -0.000013367519368 1
force Pt  -0.000000109251288   0.000127110987657   0.000241704905243 1
force Pt   0.000000104266036  -0.000195537510643   0.000026845301847 1
force Pt  -0.000002705658153   0.000173181933159  -0.000414739877349 1
force Pt  -0.000001318164045  -0.000119170210232   0.000491359223774 1
force Pt  -0.000001910848842   0.000407740706026   0.000612015897267 1
force Pt  -0.000000017635350  -0.000021288170367  -0.000055165987440 1
force Pt   0.000001372319991  -0.000018033841783   0.000033759510527 1
force Pt   0.000000516866613  -0.000144224239765   0.000237215867515 1
force Pt   0.000000175394566  -0.000009529664572   0.000243819178950 1
force Pt  -0.000000659163944   0.000110129765572   0.000062598225397 1
force Pt   0.000001830714848  -0.000328189569489   0.000006211538213 1
force Pt   0.000000904370008   0.000023963539263  -0.000327382514473 1
force Pt   0.000003161249386   0.000012844795552  -0.000398798492089 1

# Energy components:
   A_diel =       -1.5611134345144300
   Eewald =    31414.4283118442253908
       EH =    35042.6810400966933230
     Eloc =   -71049.0563308991258964
      Enl =      -46.4242490090665285
     EvdW =       -1.0768876410521855
      Exc =    -1252.6682780638659551
 Exc_core =      721.2207630894437216
       KE =     1257.4068895879322554
  MuShift =       -0.2197951111835014
-------------------------------------
     Etot =    -3915.2696495405079986
       TS =        0.0072599779342852
-------------------------------------
        F =    -3915.2769095184421531
      muN =      -69.1254548886464875
-------------------------------------
        G =    -3846.1514546297958077


Dumping 'jdft.fillings' ... done
Dumping 'jdft.wfns' ... done
Dumping 'jdft.fluidState' ... done
Dumping 'jdft.ionpos' ... done
Dumping 'jdft.lattice' ... done
Dumping 'jdft.eigenvals' ... done
Dumping 'jdft.eigStats' ... 
	eMin: -2.047555 at state 13 ( [ -0.454545 +0.500000 +0.000000 ] spin 1 )
	HOMO: -0.097728 at state 32 ( [ +0.454545 +0.000000 +0.000000 ] spin -1 )
	mu  : -0.097800
	LUMO: -0.097739 at state 3 ( [ +0.090909 +0.500000 +0.000000 ] spin 1 )
	eMax: +0.187046 at state 35 ( [ -0.454545 +0.500000 +0.000000 ] spin -1 )
	HOMO-LUMO gap: -0.000011
	Optical gap  : +0.000174 at state 32 ( [ +0.454545 +0.000000 +0.000000 ] spin -1 )
Dumping 'jdft.Ecomponents' ... done
IonicMinimize: Iter:   1  G: -3846.151454629795808  |grad|_K:  2.157e-04  alpha:  1.000e+00  linmin: -8.429e-01  t[s]:   6360.55

#--- Lowdin population analysis ---
# oxidation-state Pt -0.264 -0.082 -0.247 +0.006 +0.012 +0.009 -0.319 +0.011 +0.010 +0.010 +0.013 +0.012 +0.011 +0.014 +0.007 +0.012 +0.011 +0.013 +0.008 -0.200 -0.001 -0.244 -0.000 +0.007 +0.009 +0.014 +0.012 +0.010 -0.200 +0.014 +0.013 +0.013 +0.012 +0.010 +0.011 +0.012 -0.082 +0.009 +0.008 +0.005 -0.247 -0.322 -0.264 -0.244
# magnetic-moments Pt +0.000 +0.000 +0.000 +0.000 +0.000 +0.000 +0.000 +0.000 +0.000 +0.000 +0.000 +0.000 +0.000 +0.000 +0.000 +0.000 +0.000 +0.000 +0.000 +0.000 +0.000 +0.000 +0.000 +0.000 +0.000 +0.000 +0.000 +0.000 +0.000 +0.000 +0.000 +0.000 +0.000 +0.000 +0.000 +0.000 +0.000 +0.000 +0.000 +0.000 +0.000 +0.000 +0.000 +0.000


Computing DFT-D3 correction:
# coordination-number Pt 7.041 8.279 7.122 9.311 9.392 9.556 5.891 9.327 9.552 9.485 9.570 9.532 9.552 9.530 9.320 9.554 9.568 9.504 9.370 7.029 9.075 7.056 9.081 9.326 9.373 9.506 9.556 9.552 7.032 9.533 9.569 9.536 9.568 9.480 9.386 9.323 8.273 9.554 9.551 9.310 7.120 5.893 7.035 7.058
# diagonal-C6 Pt 336.87 336.87 336.87 336.87 336.87 336.87 336.87 336.87 336.87 336.87 336.87 336.87 336.87 336.87 336.87 336.87 336.87 336.87 336.87 336.87 336.87 336.87 336.87 336.87 336.87 336.87 336.87 336.87 336.87 336.87 336.87 336.87 336.87 336.87 336.87 336.87 336.87 336.87 336.87 336.87 336.87 336.87 336.87 336.87
EvdW_6 =   -0.420238
EvdW_8 =   -0.656626
Shifting auxilliary hamiltonian by -0.000075 to set nElectrons=706.804242

-------- Electronic minimization -----------
	Linear fluid (dielectric constant: 78.4, screening length: 8.12261 Bohr) occupying 0.415516 of unit cell:	Completed after 21 iterations at t[s]:   6446.98
	FillingsUpdate:  mu: -0.097800000  nElectrons: 706.804242  magneticMoment: [ Abs: 0.00000  Tot: +0.00000 ]
ElecMinimize: Iter:   0  G: -3846.151025865300198  |grad|_K:  1.483e-06  alpha:  1.000e+00
	Linear fluid (dielectric constant: 78.4, screening length: 8.12261 Bohr) occupying 0.416691 of unit cell:	Completed after 29 iterations at t[s]:   6613.50
	Linear fluid (dielectric constant: 78.4, screening length: 8.12261 Bohr) occupying 0.415758 of unit cell:	Completed after 27 iterations at t[s]:   6668.84
	FillingsUpdate:  mu: -0.097800000  nElectrons: 706.826248  magneticMoment: [ Abs: 0.00000  Tot: +0.00000 ]
	SubspaceRotationAdjust: set factor to 0.00388
ElecMinimize: Iter:   1  G: -3846.151333644288115  |grad|_K:  3.780e-07  alpha:  1.974e-01  linmin:  4.599e-03  t[s]:   6743.49
	Linear fluid (dielectric constant: 78.4, screening length: 8.12261 Bohr) occupying 0.415752 of unit cell:	Completed after 14 iterations at t[s]:   6817.73
	Linear fluid (dielectric constant: 78.4, screening length: 8.12261 Bohr) occupying 0.415744 of unit cell:	Completed after 15 iterations at t[s]:   6869.94
	FillingsUpdate:  mu: -0.097800000  nElectrons: 706.825262  magneticMoment: [ Abs: 0.00000  Tot: +0.00000 ]
	SubspaceRotationAdjust: set factor to 0.00528
ElecMinimize: Iter:   2  G: -3846.151376131005691  |grad|_K:  1.943e-07  alpha:  4.198e-01  linmin:  1.524e-03  t[s]:   6944.49
	Linear fluid (dielectric constant: 78.4, screening length: 8.12261 Bohr) occupying 0.415735 of unit cell:	Completed after 8 iterations at t[s]:   7017.67
	Linear fluid (dielectric constant: 78.4, screening length: 8.12261 Bohr) occupying 0.415732 of unit cell:	Completed after 6 iterations at t[s]:   7068.42
	FillingsUpdate:  mu: -0.097800000  nElectrons: 706.824819  magneticMoment: [ Abs: 0.00000  Tot: +0.00000 ]
	SubspaceRotationAdjust: set factor to 0.00675
ElecMinimize: Iter:   3  G: -3846.151391602666536  |grad|_K:  1.522e-07  alpha:  5.770e-01  linmin:  1.848e-04  t[s]:   7143.37
	Linear fluid (dielectric constant: 78.4, screening length: 8.12261 Bohr) occupying 0.415702 of unit cell:	Completed after 11 iterations at t[s]:   7216.99
	Linear fluid (dielectric constant: 78.4, screening length: 8.12261 Bohr) occupying 0.415695 of unit cell:	Completed after 7 iterations at t[s]:   7267.76
	FillingsUpdate:  mu: -0.097800000  nElectrons: 706.822303  magneticMoment: [ Abs: 0.00000  Tot: +0.00000 ]
	SubspaceRotationAdjust: set factor to 0.00825
ElecMinimize: Iter:   4  G: -3846.151403660451251  |grad|_K:  1.507e-07  alpha:  7.304e-01  linmin: -3.485e-04  t[s]:   7342.70
	Linear fluid (dielectric constant: 78.4, screening length: 8.12261 Bohr) occupying 0.415633 of unit cell:	Completed after 15 iterations at t[s]:   7417.01
	Linear fluid (dielectric constant: 78.4, screening length: 8.12261 Bohr) occupying 0.415634 of unit cell:	Completed after 0 iterations at t[s]:   7467.05
	FillingsUpdate:  mu: -0.097800000  nElectrons: 706.817474  magneticMoment: [ Abs: 0.00000  Tot: +0.00000 ]
	SubspaceRotationAdjust: set factor to 0.00905
ElecMinimize: Iter:   5  G: -3846.151415281077334  |grad|_K:  1.402e-07  alpha:  7.167e-01  linmin:  2.972e-04  t[s]:   7541.99
	Linear fluid (dielectric constant: 78.4, screening length: 8.12261 Bohr) occupying 0.415624 of unit cell:	Completed after 13 iterations at t[s]:   7616.18
	Linear fluid (dielectric constant: 78.4, screening length: 8.12261 Bohr) occupying 0.415626 of unit cell:	Completed after 11 iterations at t[s]:   7667.55
	FillingsUpdate:  mu: -0.097800000  nElectrons: 706.816760  magneticMoment: [ Abs: 0.00000  Tot: +0.00000 ]
	SubspaceRotationAdjust: set factor to 0.00803
ElecMinimize: Iter:   6  G: -3846.151422950007145  |grad|_K:  1.683e-07  alpha:  5.480e-01  linmin:  2.143e-04  t[s]:   7742.84
	Linear fluid (dielectric constant: 78.4, screening length: 8.12261 Bohr) occupying 0.415499 of unit cell:	Completed after 17 iterations at t[s]:   7818.05
	Linear fluid (dielectric constant: 78.4, screening length: 8.12261 Bohr) occupying 0.415575 of unit cell:	Completed after 16 iterations at t[s]:   7870.36
	FillingsUpdate:  mu: -0.097800000  nElectrons: 706.811914  magneticMoment: [ Abs: 0.00000  Tot: +0.00000 ]
	SubspaceRotationAdjust: set factor to 0.00575
ElecMinimize: Iter:   7  G: -3846.151427386091200  |grad|_K:  1.153e-07  alpha:  2.206e-01  linmin:  1.162e-05  t[s]:   7945.49
	Linear fluid (dielectric constant: 78.4, screening length: 8.12261 Bohr) occupying 0.415569 of unit cell:	Completed after 7 iterations at t[s]:   8018.39
	Linear fluid (dielectric constant: 78.4, screening length: 8.12261 Bohr) occupying 0.415560 of unit cell:	Completed after 12 iterations at t[s]:   8070.12
	FillingsUpdate:  mu: -0.097800000  nElectrons: 706.809618  magneticMoment: [ Abs: 0.00000  Tot: +0.00000 ]
	SubspaceRotationAdjust: set factor to 0.00632
ElecMinimize: Iter:   8  G: -3846.151432667460540  |grad|_K:  8.600e-08  alpha:  5.587e-01  linmin:  2.685e-04  t[s]:   8145.17
	Linear fluid (dielectric constant: 78.4, screening length: 8.12261 Bohr) occupying 0.415559 of unit cell:	Completed after 12 iterations at t[s]:   8219.14
	Linear fluid (dielectric constant: 78.4, screening length: 8.12261 Bohr) occupying 0.415559 of unit cell:	Completed after 0 iterations at t[s]:   8268.45
	FillingsUpdate:  mu: -0.097800000  nElectrons: 706.808509  magneticMoment: [ Abs: 0.00000  Tot: +0.00000 ]
	SubspaceRotationAdjust: set factor to 0.00693
ElecMinimize: Iter:   9  G: -3846.151435669269176  |grad|_K:  7.281e-08  alpha:  5.711e-01  linmin: -2.484e-04  t[s]:   8344.04
	Linear fluid (dielectric constant: 78.4, screening length: 8.12261 Bohr) occupying 0.415537 of unit cell:	Completed after 15 iterations at t[s]:   8418.76
	Linear fluid (dielectric constant: 78.4, screening length: 8.12261 Bohr) occupying 0.415545 of unit cell:	Completed after 12 iterations at t[s]:   8470.57
	FillingsUpdate:  mu: -0.097800000  nElectrons: 706.806560  magneticMoment: [ Abs: 0.00000  Tot: +0.00000 ]
	SubspaceRotationAdjust: set factor to 0.00609
ElecMinimize: Iter:  10  G: -3846.151437099552368  |grad|_K:  7.103e-08  alpha:  3.766e-01  linmin:  2.142e-04  t[s]:   8545.81
	Linear fluid (dielectric constant: 78.4, screening length: 8.12261 Bohr) occupying 0.415558 of unit cell:	Completed after 13 iterations at t[s]:   8619.85
	Linear fluid (dielectric constant: 78.4, screening length: 8.12261 Bohr) occupying 0.415559 of unit cell:	Completed after 0 iterations at t[s]:   8669.52
	FillingsUpdate:  mu: -0.097800000  nElectrons: 706.807105  magneticMoment: [ Abs: 0.00000  Tot: +0.00000 ]
	SubspaceRotationAdjust: set factor to 0.00605
ElecMinimize: Iter:  11  G: -3846.151438480654178  |grad|_K:  5.236e-08  alpha:  3.849e-01  linmin: -7.832e-04  t[s]:   8744.43
	Linear fluid (dielectric constant: 78.4, screening length: 8.12261 Bohr) occupying 0.415560 of unit cell:	Completed after 2 iterations at t[s]:   8816.44
	Linear fluid (dielectric constant: 78.4, screening length: 8.12261 Bohr) occupying 0.415561 of unit cell:	Completed after 2 iterations at t[s]:   8866.60
	FillingsUpdate:  mu: -0.097800000  nElectrons: 706.806592  magneticMoment: [ Abs: 0.00000  Tot: +0.00000 ]
	SubspaceRotationAdjust: set factor to 0.00767
ElecMinimize: Iter:  12  G: -3846.151439920216035  |grad|_K:  5.255e-08  alpha:  7.301e-01  linmin: -3.102e-04  t[s]:   8941.63
	Linear fluid (dielectric constant: 78.4, screening length: 8.12261 Bohr) occupying 0.415554 of unit cell:	Completed after 12 iterations at t[s]:   9015.32
	Linear fluid (dielectric constant: 78.4, screening length: 8.12261 Bohr) occupying 0.415555 of unit cell:	Completed after 5 iterations at t[s]:   9065.89
	FillingsUpdate:  mu: -0.097800000  nElectrons: 706.805669  magneticMoment: [ Abs: 0.00000  Tot: +0.00000 ]
	SubspaceRotationAdjust: set factor to 0.00663
ElecMinimize: Iter:  13  G: -3846.151441054901170  |grad|_K:  7.420e-08  alpha:  5.791e-01  linmin: -1.344e-04  t[s]:   9141.18
	Linear fluid (dielectric constant: 78.4, screening length: 8.12261 Bohr) occupying 0.415593 of unit cell:	Completed after 15 iterations at t[s]:   9215.40
	Linear fluid (dielectric constant: 78.4, screening length: 8.12261 Bohr) occupying 0.415574 of unit cell:	Completed after 14 iterations at t[s]:   9267.81
	FillingsUpdate:  mu: -0.097800000  nElectrons: 706.807073  magneticMoment: [ Abs: 0.00000  Tot: +0.00000 ]
	SubspaceRotationAdjust: set factor to 0.00564
ElecMinimize: Iter:  14  G: -3846.151442185409451  |grad|_K:  6.420e-08  alpha:  2.921e-01  linmin:  1.233e-05  t[s]:   9342.45
	Linear fluid (dielectric constant: 78.4, screening length: 8.12261 Bohr) occupying 0.415578 of unit cell:	Completed after 2 iterations at t[s]:   9414.26
	Linear fluid (dielectric constant: 78.4, screening length: 8.12261 Bohr) occupying 0.415585 of unit cell:	Completed after 5 iterations at t[s]:   9464.59
	FillingsUpdate:  mu: -0.097800000  nElectrons: 706.807797  magneticMoment: [ Abs: 0.00000  Tot: +0.00000 ]
	SubspaceRotationAdjust: set factor to 0.00664
ElecMinimize: Iter:  15  G: -3846.151444252060173  |grad|_K:  7.202e-08  alpha:  7.064e-01  linmin:  1.233e-04  t[s]:   9539.48
	Linear fluid (dielectric constant: 78.4, screening length: 8.12261 Bohr) occupying 0.415571 of unit cell:	Completed after 14 iterations at t[s]:   9613.99
	Linear fluid (dielectric constant: 78.4, screening length: 8.12261 Bohr) occupying 0.415575 of unit cell:	Completed after 10 iterations at t[s]:   9665.38
	FillingsUpdate:  mu: -0.097800000  nElectrons: 706.806953  magneticMoment: [ Abs: 0.00000  Tot: +0.00000 ]
	SubspaceRotationAdjust: set factor to 0.00585
ElecMinimize: Iter:  16  G: -3846.151446123721598  |grad|_K:  8.619e-08  alpha:  5.044e-01  linmin:  2.168e-04  t[s]:   9740.48
	Linear fluid (dielectric constant: 78.4, screening length: 8.12261 Bohr) occupying 0.415598 of unit cell:	Completed after 15 iterations at t[s]:   9814.58
	Linear fluid (dielectric constant: 78.4, screening length: 8.12261 Bohr) occupying 0.415592 of unit cell:	Completed after 7 iterations at t[s]:   9865.79
	FillingsUpdate:  mu: -0.097800000  nElectrons: 706.808673  magneticMoment: [ Abs: 0.00000  Tot: +0.00000 ]
	SubspaceRotationAdjust: set factor to 0.00503
ElecMinimize: Iter:  17  G: -3846.151448124732724  |grad|_K:  7.137e-08  alpha:  3.804e-01  linmin:  2.346e-04  t[s]:   9940.68
	Linear fluid (dielectric constant: 78.4, screening length: 8.12261 Bohr) occupying 0.415592 of unit cell:	Completed after 3 iterations at t[s]:  10012.85
	Linear fluid (dielectric constant: 78.4, screening length: 8.12261 Bohr) occupying 0.415591 of unit cell:	Completed after 2 iterations at t[s]:  10062.62
	FillingsUpdate:  mu: -0.097800000  nElectrons: 706.808935  magneticMoment: [ Abs: 0.00000  Tot: +0.00000 ]
	SubspaceRotationAdjust: set factor to 0.00572
ElecMinimize: Iter:  18  G: -3846.151450394031599  |grad|_K:  6.512e-08  alpha:  6.295e-01  linmin: -8.253e-05  t[s]:  10137.68
	Linear fluid (dielectric constant: 78.4, screening length: 8.12261 Bohr) occupying 0.415577 of unit cell:	Completed after 14 iterations at t[s]:  10212.10
	Linear fluid (dielectric constant: 78.4, screening length: 8.12261 Bohr) occupying 0.415580 of unit cell:	Completed after 6 iterations at t[s]:  10262.66
	FillingsUpdate:  mu: -0.097800000  nElectrons: 706.808181  magneticMoment: [ Abs: 0.00000  Tot: +0.00000 ]
	SubspaceRotationAdjust: set factor to 0.00538
ElecMinimize: Iter:  19  G: -3846.151451835279659  |grad|_K:  7.074e-08  alpha:  4.803e-01  linmin: -1.508e-04  t[s]:  10337.77
	Linear fluid (dielectric constant: 78.4, screening length: 8.12261 Bohr) occupying 0.415595 of unit cell:	Completed after 14 iterations at t[s]:  10412.00
	Linear fluid (dielectric constant: 78.4, screening length: 8.12261 Bohr) occupying 0.415590 of unit cell:	Completed after 10 iterations at t[s]:  10463.38
[...]
	FillingsUpdate:  mu: -0.097800000  nElectrons: 706.802616  magneticMoment: [ Abs: 0.00000  Tot: +0.00000 ]
	SubspaceRotationAdjust: set factor to 0.00431
ElecMinimize: Iter:  27  G: -3846.151506512326705  |grad|_K:  5.609e-08  alpha:  5.295e-01  linmin: -2.088e-04  t[s]:  47033.49
	Linear fluid (dielectric constant: 78.4, screening length: 8.12261 Bohr) occupying 0.415577 of unit cell:	Completed after 3 iterations at t[s]:  47106.14
	Linear fluid (dielectric constant: 78.4, screening length: 8.12261 Bohr) occupying 0.415577 of unit cell:	Completed after 0 iterations at t[s]:  47155.85
	FillingsUpdate:  mu: -0.097800000  nElectrons: 706.802678  magneticMoment: [ Abs: 0.00000  Tot: +0.00000 ]
	SubspaceRotationAdjust: set factor to 0.00479
ElecMinimize: Iter:  28  G: -3846.151507880133977  |grad|_K:  4.707e-08  alpha:  6.042e-01  linmin: -1.417e-04  t[s]:  47230.86
	Linear fluid (dielectric constant: 78.4, screening length: 8.12261 Bohr) occupying 0.415585 of unit cell:	Completed after 12 iterations at t[s]:  47305.09
	Linear fluid (dielectric constant: 78.4, screening length: 8.12261 Bohr) occupying 0.415584 of unit cell:	Completed after 2 iterations at t[s]:  47355.89
	FillingsUpdate:  mu: -0.097800000  nElectrons: 706.803232  magneticMoment: [ Abs: 0.00000  Tot: +0.00000 ]
	SubspaceRotationAdjust: set factor to 0.00477
ElecMinimize: Iter:  29  G: -3846.151508652884331  |grad|_K:  4.588e-08  alpha:  4.914e-01  linmin: -6.322e-05  t[s]:  47431.74
	Linear fluid (dielectric constant: 78.4, screening length: 8.12261 Bohr) occupying 0.415575 of unit cell:	Completed after 13 iterations at t[s]:  47506.11
	Linear fluid (dielectric constant: 78.4, screening length: 8.12261 Bohr) occupying 0.415578 of unit cell:	Completed after 6 iterations at t[s]:  47557.42
	FillingsUpdate:  mu: -0.097800000  nElectrons: 706.802734  magneticMoment: [ Abs: 0.00000  Tot: +0.00000 ]
	SubspaceRotationAdjust: set factor to 0.00438
ElecMinimize: Iter:  30  G: -3846.151509138353049  |grad|_K:  3.695e-08  alpha:  3.283e-01  linmin:  1.076e-04  t[s]:  47633.01
	Linear fluid (dielectric constant: 78.4, screening length: 8.12261 Bohr) occupying 0.415580 of unit cell:	Completed after 2 iterations at t[s]:  47706.02
	Linear fluid (dielectric constant: 78.4, screening length: 8.12261 Bohr) occupying 0.415582 of unit cell:	Completed after 5 iterations at t[s]:  47756.77
	FillingsUpdate:  mu: -0.097800000  nElectrons: 706.803131  magneticMoment: [ Abs: 0.00000  Tot: +0.00000 ]
	SubspaceRotationAdjust: set factor to 0.00552
ElecMinimize: Iter:  31  G: -3846.151509622650337  |grad|_K:  3.142e-08  alpha:  5.061e-01  linmin:  5.651e-05  t[s]:  47831.70
	Linear fluid (dielectric constant: 78.4, screening length: 8.12261 Bohr) occupying 0.415587 of unit cell:	Completed after 7 iterations at t[s]:  47904.76
	Linear fluid (dielectric constant: 78.4, screening length: 8.12261 Bohr) occupying 0.415588 of unit cell:	Completed after 1 iterations at t[s]:  47954.80
	FillingsUpdate:  mu: -0.097800000  nElectrons: 706.803770  magneticMoment: [ Abs: 0.00000  Tot: +0.00000 ]
	SubspaceRotationAdjust: set factor to 0.00613
ElecMinimize: Iter:  32  G: -3846.151510001222050  |grad|_K:  3.168e-08  alpha:  5.414e-01  linmin: -2.982e-04  t[s]:  48030.19
	Linear fluid (dielectric constant: 78.4, screening length: 8.12261 Bohr) occupying 0.415584 of unit cell:	Completed after 10 iterations at t[s]:  48103.83
	Linear fluid (dielectric constant: 78.4, screening length: 8.12261 Bohr) occupying 0.415584 of unit cell:	Completed after 0 iterations at t[s]:  48153.44
	FillingsUpdate:  mu: -0.097800000  nElectrons: 706.803596  magneticMoment: [ Abs: 0.00000  Tot: +0.00000 ]
	SubspaceRotationAdjust: set factor to 0.00579
ElecMinimize: Iter:  33  G: -3846.151510359034091  |grad|_K:  3.505e-08  alpha:  4.927e-01  linmin:  1.110e-03  t[s]:  48228.70
	Linear fluid (dielectric constant: 78.4, screening length: 8.12261 Bohr) occupying 0.415593 of unit cell:	Completed after 10 iterations at t[s]:  48302.87
	Linear fluid (dielectric constant: 78.4, screening length: 8.12261 Bohr) occupying 0.415593 of unit cell:	Completed after 0 iterations at t[s]:  48352.53
	FillingsUpdate:  mu: -0.097800000  nElectrons: 706.804511  magneticMoment: [ Abs: 0.00000  Tot: +0.00000 ]
	SubspaceRotationAdjust: set factor to 0.00589
ElecMinimize: Iter:  34  G: -3846.151510760393649  |grad|_K:  3.063e-08  alpha:  4.824e-01  linmin: -5.763e-04  t[s]:  48428.15
	Linear fluid (dielectric constant: 78.4, screening length: 8.12261 Bohr) occupying 0.415595 of unit cell:	Completed after 4 iterations at t[s]:  48501.01
	Linear fluid (dielectric constant: 78.4, screening length: 8.12261 Bohr) occupying 0.415596 of unit cell:	Completed after 3 iterations at t[s]:  48551.39
	FillingsUpdate:  mu: -0.097800000  nElectrons: 706.805008  magneticMoment: [ Abs: 0.00000  Tot: +0.00000 ]
	SubspaceRotationAdjust: set factor to 0.00636
ElecMinimize: Iter:  35  G: -3846.151511214477978  |grad|_K:  2.976e-08  alpha:  6.630e-01  linmin: -2.930e-04  t[s]:  48626.76
	Linear fluid (dielectric constant: 78.4, screening length: 8.12261 Bohr) occupying 0.415599 of unit cell:	Completed after 5 iterations at t[s]:  48700.04
	Linear fluid (dielectric constant: 78.4, screening length: 8.12261 Bohr) occupying 0.415599 of unit cell:	Completed after 0 iterations at t[s]:  48749.47
	FillingsUpdate:  mu: -0.097800000  nElectrons: 706.805514  magneticMoment: [ Abs: 0.00000  Tot: +0.00000 ]
	SubspaceRotationAdjust: set factor to 0.0068
ElecMinimize: Iter:  36  G: -3846.151511625765124  |grad|_K:  2.793e-08  alpha:  6.435e-01  linmin:  6.523e-05  t[s]:  48824.93
	Linear fluid (dielectric constant: 78.4, screening length: 8.12261 Bohr) occupying 0.415607 of unit cell:	Completed after 9 iterations at t[s]:  48899.55
	Linear fluid (dielectric constant: 78.4, screening length: 8.12261 Bohr) occupying 0.415605 of unit cell:	Completed after 2 iterations at t[s]:  48949.64
	FillingsUpdate:  mu: -0.097800000  nElectrons: 706.806237  magneticMoment: [ Abs: 0.00000  Tot: +0.00000 ]
	SubspaceRotationAdjust: set factor to 0.00645
ElecMinimize: Iter:  37  G: -3846.151511913892591  |grad|_K:  2.727e-08  alpha:  5.171e-01  linmin:  6.221e-04  t[s]:  49024.96
	Linear fluid (dielectric constant: 78.4, screening length: 8.12261 Bohr) occupying 0.415600 of unit cell:	Completed after 12 iterations at t[s]:  49099.56
	Linear fluid (dielectric constant: 78.4, screening length: 8.12261 Bohr) occupying 0.415602 of unit cell:	Completed after 5 iterations at t[s]:  49150.31
	FillingsUpdate:  mu: -0.097800000  nElectrons: 706.806011  magneticMoment: [ Abs: 0.00000  Tot: +0.00000 ]
	SubspaceRotationAdjust: set factor to 0.00508
ElecMinimize: Iter:  38  G: -3846.151512081212786  |grad|_K:  2.396e-08  alpha:  3.278e-01  linmin:  5.268e-04  t[s]:  49225.33
	Linear fluid (dielectric constant: 78.4, screening length: 8.12261 Bohr) occupying 0.415605 of unit cell:	Completed after 7 iterations at t[s]:  49298.11
	Linear fluid (dielectric constant: 78.4, screening length: 8.12261 Bohr) occupying 0.415605 of unit cell:	Completed after 0 iterations at t[s]:  49347.37
	FillingsUpdate:  mu: -0.097800000  nElectrons: 706.806388  magneticMoment: [ Abs: 0.00000  Tot: +0.00000 ]
	SubspaceRotationAdjust: set factor to 0.00564
ElecMinimize: Iter:  39  G: -3846.151512232134792  |grad|_K:  1.677e-08  alpha:  3.711e-01  linmin: -3.052e-03  t[s]:  49422.61
	Linear fluid (dielectric constant: 78.4, screening length: 8.12261 Bohr) occupying 0.415606 of unit cell:	Completed after 2 iterations at t[s]:  49496.25
	Linear fluid (dielectric constant: 78.4, screening length: 8.12261 Bohr) occupying 0.415606 of unit cell:	Completed after 0 iterations at t[s]:  49546.11
	FillingsUpdate:  mu: -0.097800000  nElectrons: 706.806529  magneticMoment: [ Abs: 0.00000  Tot: +0.00000 ]
	SubspaceRotationAdjust: set factor to 0.00679
ElecMinimize: Iter:  40  G: -3846.151512347175412  |grad|_K:  1.434e-08  alpha:  5.278e-01  linmin: -2.785e-03  t[s]:  49621.23
	Linear fluid (dielectric constant: 78.4, screening length: 8.12261 Bohr) occupying 0.415604 of unit cell:	Completed after 2 iterations at t[s]:  49693.46
	Linear fluid (dielectric constant: 78.4, screening length: 8.12261 Bohr) occupying 0.415603 of unit cell:	Completed after 0 iterations at t[s]:  49742.82
	FillingsUpdate:  mu: -0.097800000  nElectrons: 706.806279  magneticMoment: [ Abs: 0.00000  Tot: +0.00000 ]
	SubspaceRotationAdjust: set factor to 0.00853
ElecMinimize: Iter:  41  G: -3846.151512448305766  |grad|_K:  1.369e-08  alpha:  6.397e-01  linmin: -1.442e-03  t[s]:  49817.97
	Linear fluid (dielectric constant: 78.4, screening length: 8.12261 Bohr) occupying 0.415599 of unit cell:	Completed after 6 iterations at t[s]:  49891.11
	Linear fluid (dielectric constant: 78.4, screening length: 8.12261 Bohr) occupying 0.415600 of unit cell:	Completed after 0 iterations at t[s]:  49940.58
	FillingsUpdate:  mu: -0.097800000  nElectrons: 706.805950  magneticMoment: [ Abs: 0.00000  Tot: +0.00000 ]
	SubspaceRotationAdjust: set factor to 0.0066
ElecMinimize: Iter:  42  G: -3846.151512513900343  |grad|_K:  2.150e-08  alpha:  4.834e-01  linmin:  6.089e-04  t[s]:  50015.55
	Linear fluid (dielectric constant: 78.4, screening length: 8.12261 Bohr) occupying 0.415603 of unit cell:	Completed after 11 iterations at t[s]:  50089.60
	Linear fluid (dielectric constant: 78.4, screening length: 8.12261 Bohr) occupying 0.415601 of unit cell:	Completed after 7 iterations at t[s]:  50140.93
	FillingsUpdate:  mu: -0.097800000  nElectrons: 706.806049  magneticMoment: [ Abs: 0.00000  Tot: +0.00000 ]
	SubspaceRotationAdjust: set factor to 0.00655
ElecMinimize: Iter:  43  G: -3846.151512566009842  |grad|_K:  1.581e-08  alpha:  1.693e-01  linmin:  1.043e-03  t[s]:  50216.83
ElecMinimize: Converged (|Delta G|<1.000000e-07 for 2 iters).
Setting wave functions to eigenvectors of Hamiltonian
Converging empty states (this may take a while): |deigs|: 6.235e-08

Computing DFT-D3 correction:
# coordination-number Pt 7.022 8.267 7.129 9.309 9.385 9.552 5.896 9.321 9.541 9.474 9.569 9.535 9.550 9.526 9.315 9.557 9.573 9.514 9.371 7.032 9.065 7.074 9.066 9.314 9.367 9.506 9.549 9.555 7.034 9.520 9.566 9.536 9.572 9.474 9.387 9.322 8.266 9.557 9.552 9.313 7.128 5.899 7.019 7.074
# diagonal-C6 Pt 336.87 336.87 336.87 336.87 336.87 336.87 336.87 336.87 336.87 336.87 336.87 336.87 336.87 336.87 336.87 336.87 336.87 336.87 336.87 336.87 336.87 336.87 336.87 336.87 336.87 336.87 336.87 336.87 336.87 336.87 336.87 336.87 336.87 336.87 336.87 336.87 336.87 336.87 336.87 336.87 336.87 336.87 336.87 336.87
EvdW_6 =   -0.420196
EvdW_8 =   -0.656509

# Ionic positions in cartesian coordinates:
ion Pt   0.000360884567597  15.418598914592243  68.258222406522208 1
ion Pt   0.000399634449646  22.530415979045042  65.410950940297326 1
ion Pt   0.000157429033812   6.708657305183688  66.801628249547434 1
ion Pt  -0.000032921023984  13.356247040176601  63.425413678342998 1
ion Pt   0.000081356600168  20.206448371321887  60.337123237211621 1
ion Pt  -0.000049713309498  17.886851308328218  55.548237027586175 1
ion Pt  -0.000440820176094   0.309739262731719  35.289736171589212 1
ion Pt   5.232074597348840   4.464816467809376  61.977450179423890 1
ion Pt   5.231875842059926  11.173643880889644  58.721379092285417 1
ion Pt   5.232089386675664   2.215618295649882  57.262119041023645 1
ion Pt   5.231920047845922   8.929038884431337  54.017575422564960 1
ion Pt  -0.000146295828748  15.620399865935692  50.835022208703975 1
ion Pt  -0.000096545935729  22.296601396738520  47.696018856450642 1
ion Pt  -0.000052772618201  13.385314789409678  46.153321667680245 1
ion Pt  -0.000237775543460  20.033902893913524  42.803999518888538 1
ion Pt   0.000107554286110  24.534314962385992  52.507122390361218 1
ion Pt   0.000111756590661   6.663126188318473  49.302172124129676 1
ion Pt   5.232092191267159   4.398149990387386  44.628767742981601 1
ion Pt   5.231982536466987  11.166043455246912  41.444302634059795 1
ion Pt   5.231730241132322  17.721182322005838  37.918982025242215 1
ion Pt  -0.000068786118445   2.208520196659628  40.007316455049519 1
ion Pt   5.231950426392671   9.001361463791920  36.570801788994387 1
ion Pt   2.616112387635884  17.870281074522765  64.108177219223151 1
ion Pt   2.616214923651990   0.044284934760523  61.312277544748724 1
ion Pt   2.615954831518915   8.910029705026774  62.673781873190677 1
ion Pt   2.615931215490527  15.681324386220341  59.486829076495297 1
ion Pt   2.616080478839355  22.324410248243719  56.417959396441304 1
ion Pt   2.615879213209705  20.086568939815514  51.607185666501749 1
ion Pt   2.616317945850061   2.356870277565012  66.198523546623221 1
ion Pt   2.615994521040248   6.691897011000167  57.961542092452213 1
ion Pt   2.615878641035569  13.415800556974519  54.810792281761834 1
ion Pt   2.616064629837795   4.458517627748289  53.278280860813013 1
ion Pt   2.615972622436895  11.149123347920341  50.095514654072716 1
ion Pt   2.615827458476466  17.863046878759448  46.852509514550420 1
ion Pt   2.615931284011682  -0.127623433737105  43.779062478645287 1
ion Pt   2.615848252101243  15.611503171083825  42.140282546527700 1
ion Pt   2.615594892024208  22.088844253696411  38.704688427079716 1
ion Pt   2.616062965725622   2.193797142657705  48.565242543275410 1
ion Pt   2.616070377153065   8.904041696671207  45.393604133672511 1
ion Pt   2.616038775492903   6.720927779269505  40.691873604299246 1
ion Pt   2.615940168575660  13.368397664990042  37.315593517077033 1
ion Pt   2.616457851214170  19.767283508774643  68.824300027591178 1
ion Pt   2.615733368719582   4.659910499152662  35.856866745120819 1
ion Pt   2.616208941795146  11.076662493930652  67.545979390900783 1

# Forces in Cartesian coordinates:
force Pt   0.000001603007443   0.000027825674099  -0.000077744605722 1
force Pt   0.000002137895978  -0.000090698333485  -0.000045321500897 1
force Pt   0.000001031989098  -0.000012244354841   0.000058039119688 1
force Pt   0.000001240981740  -0.000050681353480  -0.000093336174621 1
force Pt   0.000001099701124   0.000176923638238   0.000032158374646 1
force Pt   0.000000560923997   0.000026975329800   0.000105977402820 1
force Pt  -0.000000744567507   0.000144302995010  -0.000104604869705 1
force Pt   0.000001189918215   0.000191785744325  -0.000128840461765 1
force Pt   0.000001106598825   0.000022226350372  -0.000008195626007 1
force Pt  -0.000000172118536   0.000029512485090   0.000187579572357 1
force Pt   0.000000298159177  -0.000098731129010   0.000202811417011 1
force Pt  -0.000000358627176   0.000100866223124  -0.000130778466100 1
force Pt   0.000000375866705  -0.000104327904946  -0.000061793997262 1
force Pt  -0.000000639326975   0.000043267494492  -0.000042227205849 1
force Pt  -0.000000442590558   0.000054584359211  -0.000050255650583 1
force Pt   0.000000117436467   0.000042669571580  -0.000046686841976 1
force Pt  -0.000000405835205   0.000038304923214  -0.000053433214431 1
force Pt  -0.000000888821435   0.000067984966214  -0.000010307976126 1
force Pt   0.000000037989464  -0.000006210518639  -0.000147571535589 1
force Pt  -0.000002511226702  -0.000047387743102   0.000043398030103 1
force Pt  -0.000001569648303   0.000020870921426  -0.000022704036140 1
force Pt  -0.000001271488469   0.000087168966865  -0.000038693621836 1
force Pt   0.000001470809425  -0.000061685169644   0.000007167419897 1
force Pt   0.000000514416781  -0.000098231199086  -0.000024149226897 1
force Pt   0.000000545256111   0.000060591058676  -0.000114650772309 1
force Pt   0.000000600445147  -0.000145097019289  -0.000082011405795 1
force Pt  -0.000000595077342  -0.000031307075827   0.000243878148081 1
force Pt  -0.000000170336581  -0.000038418314415  -0.000096339117511 1
force Pt   0.000001242170499  -0.000068867884817   0.000004295320901 1
force Pt   0.000000084261863   0.000006435941680   0.000137242090637 1
force Pt   0.000000000728421   0.000005752804980   0.000208329958506 1
force Pt   0.000000012228309  -0.000039075187968   0.000156897215799 1
force Pt  -0.000000752397149   0.000086493768869  -0.000148323501623 1
force Pt  -0.000000337876292   0.000056870579142  -0.000081021216548 1
force Pt  -0.000000524718534  -0.000128527198315  -0.000216641195104 1
force Pt  -0.000000133170384  -0.000120243677726  -0.000049237907258 1
force Pt  -0.000000715402010   0.000088553881189   0.000099504369893 1
force Pt  -0.000000005208707  -0.000099113678754   0.000024636840486 1
force Pt  -0.000000621062731  -0.000009586775673   0.000076488033571 1
force Pt  -0.000000803676930   0.000037724915720  -0.000116224797695 1
force Pt  -0.000001219561860   0.000039093940713  -0.000009457079157 1
force Pt   0.000001557414848  -0.000094325593223   0.000214216780570 1
force Pt  -0.000001436636749  -0.000071623492800   0.000186566914001 1
force Pt   0.000001098765068  -0.000071252561980   0.000090807526626 1

# Energy components:
   A_diel =       -1.5623019878143707
   Eewald =    31406.3454213891855034
       EH =    35034.6059831955790287
     Eloc =   -71032.8947696233371971
      Enl =      -46.4225817438295252
     EvdW =       -1.0767050949991375
      Exc =    -1252.6674488647795442
 Exc_core =      721.2207605343855903
       KE =     1257.4016883417195913
  MuShift =       -0.2199367015541092
-------------------------------------
     Etot =    -3915.2698905554439079
       TS =        0.0072535721650389
-------------------------------------
        F =    -3915.2771441276090627
      muN =      -69.1256315615993913
-------------------------------------
        G =    -3846.1515125660098420


Dumping 'jdft.fillings' ... done
Dumping 'jdft.wfns' ... done
Dumping 'jdft.fluidState' ... done
Dumping 'jdft.ionpos' ... done
Dumping 'jdft.lattice' ... done
Dumping 'jdft.eigenvals' ... done
Dumping 'jdft.eigStats' ... 
	eMin: -2.047706 at state 13 ( [ -0.454545 +0.500000 +0.000000 ] spin 1 )
	HOMO: -0.097761 at state 34 ( [ -0.454545 +0.000000 +0.000000 ] spin -1 )
	mu  : -0.097800
	LUMO: -0.097724 at state 11 ( [ +0.454545 +0.500000 +0.000000 ] spin 1 )
	eMax: +0.187011 at state 33 ( [ +0.454545 +0.500000 +0.000000 ] spin -1 )
	HOMO-LUMO gap: +0.000037
	Optical gap  : +0.000136 at state 34 ( [ -0.454545 +0.000000 +0.000000 ] spin -1 )
Dumping 'jdft.Ecomponents' ... done
IonicMinimize: Iter:   6  G: -3846.151512566009842  |grad|_K:  8.026e-05  alpha:  1.000e+00  linmin:  1.529e-01  t[s]:  50545.14
IonicMinimize: Converged (|grad|_K<1.000000e-04).

#--- Lowdin population analysis ---
# oxidation-state Pt -0.257 -0.078 -0.242 +0.006 +0.011 +0.006 -0.320 +0.012 +0.008 +0.007 +0.006 +0.010 +0.010 +0.014 +0.005 +0.010 +0.011 +0.015 +0.011 -0.200 -0.001 -0.241 +0.002 +0.007 +0.008 +0.012 +0.009 +0.010 -0.197 +0.011 +0.006 +0.010 +0.009 +0.008 +0.010 +0.012 -0.084 +0.008 +0.012 +0.007 -0.242 -0.317 -0.262 -0.240
# magnetic-moments Pt +0.000 +0.000 +0.000 +0.000 +0.000 +0.000 +0.000 +0.000 +0.000 +0.000 +0.000 +0.000 +0.000 +0.000 +0.000 +0.000 +0.000 +0.000 +0.000 +0.000 +0.000 +0.000 +0.000 +0.000 +0.000 +0.000 +0.000 +0.000 +0.000 +0.000 +0.000 +0.000 +0.000 +0.000 +0.000 +0.000 +0.000 +0.000 +0.000 +0.000 +0.000 +0.000 +0.000 +0.000


Dumping 'jdft.n_up' ... done
Dumping 'jdft.n_dn' ... done
Dumping 'jdft.tau_up' ... done
Dumping 'jdft.tau_dn' ... done
Dumping 'jdft.eigenvals' ... done
Dumping 'jdft.eigStats' ... 
	eMin: -2.047706 at state 13 ( [ -0.454545 +0.500000 +0.000000 ] spin 1 )
	HOMO: -0.097761 at state 34 ( [ -0.454545 +0.000000 +0.000000 ] spin -1 )
	mu  : -0.097800
	LUMO: -0.097724 at state 11 ( [ +0.454545 +0.500000 +0.000000 ] spin 1 )
	eMax: +0.187011 at state 33 ( [ +0.454545 +0.500000 +0.000000 ] spin -1 )
	HOMO-LUMO gap: +0.000037
	Optical gap  : +0.000136 at state 34 ( [ -0.454545 +0.000000 +0.000000 ] spin -1 )
Dumping 'jdft.kPts' ... done
Dumping 'jdft.dosUp' ... done.
Dumping 'jdft.dosDn' ... done.
End date and time: Sun Dec 12 03:07:08 2021  (Duration: 0-14:04:20.36)
Done!
