
*************** JDFTx 1.6.0  ***************

Start date and time: Mon Dec  6 04:38:00 2021
Executable /projects/musgravc/apps/jdftx-1.6.1/build/jdftx with command-line: -i in
Running on hosts (process indices):  shas0923.rc.int.colorado.edu (0-23)
Divided in process groups (process indices):  0 (0)  1 (1)  2 (2)  3 (3)  4 (4)  5 (5)  6 (6)  7 (7)  8 (8)  9 (9)  10 (10)  11 (11)  12 (12)  13 (13)  14 (14)  15 (15)  16 (16)  17 (17)  18 (18)  19 (19)  20 (20)  21 (21)  22 (22)  23 (23)
Resource initialization completed at t[s]:      0.00
Run totals: 24 processes, 24 threads, 0 GPUs


Input parsed successfully to the following command list (including defaults):

basis kpoint-dependent
converge-empty-states yes
coords-type Cartesian
core-overlap-check none
coulomb-interaction Periodic
davidson-band-ratio 1.1
density-of-states Etol 1.000000e-06 Esigma 1.000000e-03 \
		Complete \
	Total \
	OrthoOrbital Cu 1   s \
	OrthoOrbital Cu 1   p \
	OrthoOrbital Cu 1   px \
	OrthoOrbital Cu 1   py \
	OrthoOrbital Cu 1   pz \
	OrthoOrbital Cu 1   d \
	OrthoOrbital Cu 1   dxy \
	OrthoOrbital Cu 1   dyz \
	OrthoOrbital Cu 1   dz2 \
	OrthoOrbital Cu 1   dxz \
	OrthoOrbital Cu 1   dx2-y2 \
	OrthoOrbital Cu 2   s \
	OrthoOrbital Cu 2   p \
	OrthoOrbital Cu 2   px \
	OrthoOrbital Cu 2   py \
	OrthoOrbital Cu 2   pz \
	OrthoOrbital Cu 2   d \
	OrthoOrbital Cu 2   dxy \
	OrthoOrbital Cu 2   dyz \
	OrthoOrbital Cu 2   dz2 \
	OrthoOrbital Cu 2   dxz \
	OrthoOrbital Cu 2   dx2-y2 \
	OrthoOrbital Cu 3   s \
	OrthoOrbital Cu 3   p \
	OrthoOrbital Cu 3   px \
	OrthoOrbital Cu 3   py \
	OrthoOrbital Cu 3   pz \
	OrthoOrbital Cu 3   d \
	OrthoOrbital Cu 3   dxy \
	OrthoOrbital Cu 3   dyz \
	OrthoOrbital Cu 3   dz2 \
	OrthoOrbital Cu 3   dxz \
	OrthoOrbital Cu 3   dx2-y2 \
	OrthoOrbital Cu 4   s \
	OrthoOrbital Cu 4   p \
	OrthoOrbital Cu 4   px \
	OrthoOrbital Cu 4   py \
	OrthoOrbital Cu 4   pz \
	OrthoOrbital Cu 4   d \
	OrthoOrbital Cu 4   dxy \
	OrthoOrbital Cu 4   dyz \
	OrthoOrbital Cu 4   dz2 \
	OrthoOrbital Cu 4   dxz \
	OrthoOrbital Cu 4   dx2-y2 \
	OrthoOrbital Cu 5   s \
	OrthoOrbital Cu 5   p \
	OrthoOrbital Cu 5   px \
	OrthoOrbital Cu 5   py \
	OrthoOrbital Cu 5   pz \
	OrthoOrbital Cu 5   d \
	OrthoOrbital Cu 5   dxy \
	OrthoOrbital Cu 5   dyz \
	OrthoOrbital Cu 5   dz2 \
	OrthoOrbital Cu 5   dxz \
	OrthoOrbital Cu 5   dx2-y2 \
	OrthoOrbital Cu 6   s \
	OrthoOrbital Cu 6   p \
	OrthoOrbital Cu 6   px \
	OrthoOrbital Cu 6   py \
	OrthoOrbital Cu 6   pz \
	OrthoOrbital Cu 6   d \
	OrthoOrbital Cu 6   dxy \
	OrthoOrbital Cu 6   dyz \
	OrthoOrbital Cu 6   dz2 \
	OrthoOrbital Cu 6   dxz \
	OrthoOrbital Cu 6   dx2-y2 \
	OrthoOrbital Cu 7   s \
	OrthoOrbital Cu 7   p \
	OrthoOrbital Cu 7   px \
	OrthoOrbital Cu 7   py \
	OrthoOrbital Cu 7   pz \
	OrthoOrbital Cu 7   d \
	OrthoOrbital Cu 7   dxy \
	OrthoOrbital Cu 7   dyz \
	OrthoOrbital Cu 7   dz2 \
	OrthoOrbital Cu 7   dxz \
	OrthoOrbital Cu 7   dx2-y2 \
	OrthoOrbital Cu 8   s \
	OrthoOrbital Cu 8   p \
	OrthoOrbital Cu 8   px \
	OrthoOrbital Cu 8   py \
	OrthoOrbital Cu 8   pz \
	OrthoOrbital Cu 8   d \
	OrthoOrbital Cu 8   dxy \
	OrthoOrbital Cu 8   dyz \
	OrthoOrbital Cu 8   dz2 \
	OrthoOrbital Cu 8   dxz \
	OrthoOrbital Cu 8   dx2-y2 \
	OrthoOrbital Cu 9   s \
	OrthoOrbital Cu 9   p \
	OrthoOrbital Cu 9   px \
	OrthoOrbital Cu 9   py \
	OrthoOrbital Cu 9   pz \
	OrthoOrbital Cu 9   d \
	OrthoOrbital Cu 9   dxy \
	OrthoOrbital Cu 9   dyz \
	OrthoOrbital Cu 9   dz2 \
	OrthoOrbital Cu 9   dxz \
	OrthoOrbital Cu 9   dx2-y2 \
	OrthoOrbital Cu 10   s \
	OrthoOrbital Cu 10   p \
	OrthoOrbital Cu 10   px \
	OrthoOrbital Cu 10   py \
	OrthoOrbital Cu 10   pz \
	OrthoOrbital Cu 10   d \
	OrthoOrbital Cu 10   dxy \
	OrthoOrbital Cu 10   dyz \
	OrthoOrbital Cu 10   dz2 \
	OrthoOrbital Cu 10   dxz \
	OrthoOrbital Cu 10   dx2-y2 \
	OrthoOrbital Cu 11   s \
	OrthoOrbital Cu 11   p \
	OrthoOrbital Cu 11   px \
	OrthoOrbital Cu 11   py \
	OrthoOrbital Cu 11   pz \
	OrthoOrbital Cu 11   d \
	OrthoOrbital Cu 11   dxy \
	OrthoOrbital Cu 11   dyz \
	OrthoOrbital Cu 11   dz2 \
	OrthoOrbital Cu 11   dxz \
	OrthoOrbital Cu 11   dx2-y2 \
	OrthoOrbital Cu 12   s \
	OrthoOrbital Cu 12   p \
	OrthoOrbital Cu 12   px \
	OrthoOrbital Cu 12   py \
	OrthoOrbital Cu 12   pz \
	OrthoOrbital Cu 12   d \
	OrthoOrbital Cu 12   dxy \
	OrthoOrbital Cu 12   dyz \
	OrthoOrbital Cu 12   dz2 \
	OrthoOrbital Cu 12   dxz \
	OrthoOrbital Cu 12   dx2-y2 \
	OrthoOrbital Cu 13   s \
	OrthoOrbital Cu 13   p \
	OrthoOrbital Cu 13   px \
	OrthoOrbital Cu 13   py \
	OrthoOrbital Cu 13   pz \
	OrthoOrbital Cu 13   d \
	OrthoOrbital Cu 13   dxy \
	OrthoOrbital Cu 13   dyz \
	OrthoOrbital Cu 13   dz2 \
	OrthoOrbital Cu 13   dxz \
	OrthoOrbital Cu 13   dx2-y2 \
	OrthoOrbital Cu 14   s \
	OrthoOrbital Cu 14   p \
	OrthoOrbital Cu 14   px \
	OrthoOrbital Cu 14   py \
	OrthoOrbital Cu 14   pz \
	OrthoOrbital Cu 14   d \
	OrthoOrbital Cu 14   dxy \
	OrthoOrbital Cu 14   dyz \
	OrthoOrbital Cu 14   dz2 \
	OrthoOrbital Cu 14   dxz \
	OrthoOrbital Cu 14   dx2-y2 \
	OrthoOrbital Cu 15   s \
	OrthoOrbital Cu 15   p \
	OrthoOrbital Cu 15   px \
	OrthoOrbital Cu 15   py \
	OrthoOrbital Cu 15   pz \
	OrthoOrbital Cu 15   d \
	OrthoOrbital Cu 15   dxy \
	OrthoOrbital Cu 15   dyz \
	OrthoOrbital Cu 15   dz2 \
	OrthoOrbital Cu 15   dxz \
	OrthoOrbital Cu 15   dx2-y2 \
	OrthoOrbital Cu 16   s \
	OrthoOrbital Cu 16   p \
	OrthoOrbital Cu 16   px \
	OrthoOrbital Cu 16   py \
	OrthoOrbital Cu 16   pz \
	OrthoOrbital Cu 16   d \
	OrthoOrbital Cu 16   dxy \
	OrthoOrbital Cu 16   dyz \
	OrthoOrbital Cu 16   dz2 \
	OrthoOrbital Cu 16   dxz \
	OrthoOrbital Cu 16   dx2-y2 \
	OrthoOrbital Cu 17   s \
	OrthoOrbital Cu 17   p \
	OrthoOrbital Cu 17   px \
	OrthoOrbital Cu 17   py \
	OrthoOrbital Cu 17   pz \
	OrthoOrbital Cu 17   d \
	OrthoOrbital Cu 17   dxy \
	OrthoOrbital Cu 17   dyz \
	OrthoOrbital Cu 17   dz2 \
	OrthoOrbital Cu 17   dxz \
	OrthoOrbital Cu 17   dx2-y2 \
	OrthoOrbital Cu 18   s \
	OrthoOrbital Cu 18   p \
	OrthoOrbital Cu 18   px \
	OrthoOrbital Cu 18   py \
	OrthoOrbital Cu 18   pz \
	OrthoOrbital Cu 18   d \
	OrthoOrbital Cu 18   dxy \
	OrthoOrbital Cu 18   dyz \
	OrthoOrbital Cu 18   dz2 \
	OrthoOrbital Cu 18   dxz \
	OrthoOrbital Cu 18   dx2-y2
dump End ElecDensity KEdensity BandEigs EigStats RhoAtom DOS Kpoints
dump Ionic State IonicPositions Lattice EigStats Ecomponents
dump 
dump 
dump 
dump 
dump 
dump 
dump 
dump 
dump-name jdft.$VAR
elec-cutoff 20
elec-eigen-algo Davidson
elec-ex-corr gga-PBE
elec-initial-magnetization 0.000000 no
elec-n-bands 206
elec-smearing Fermi 0.001
electronic-minimize  \
	dirUpdateScheme      FletcherReeves \
	linminMethod         DirUpdateRecommended \
	nIterations          100 \
	history              15 \
	knormThreshold       0 \
	energyDiffThreshold  1e-07 \
	nEnergyDiff          2 \
	alphaTstart          1 \
	alphaTmin            1e-10 \
	updateTestStepSize   yes \
	alphaTreduceFactor   0.1 \
	alphaTincreaseFactor 3 \
	nAlphaAdjustMax      3 \
	wolfeEnergy          0.0001 \
	wolfeGradient        0.9 \
	fdTest               no
exchange-regularization WignerSeitzTruncated
fluid None
fluid-ex-corr lda-TF lda-PZ
fluid-gummel-loop 10 1.000000e-05
fluid-minimize  \
	dirUpdateScheme      PolakRibiere \
	linminMethod         DirUpdateRecommended \
	nIterations          100 \
	history              15 \
	knormThreshold       0 \
	energyDiffThreshold  0 \
	nEnergyDiff          2 \
	alphaTstart          1 \
	alphaTmin            1e-10 \
	updateTestStepSize   yes \
	alphaTreduceFactor   0.1 \
	alphaTincreaseFactor 3 \
	nAlphaAdjustMax      3 \
	wolfeEnergy          0.0001 \
	wolfeGradient        0.9 \
	fdTest               no
fluid-solvent H2O 55.338 ScalarEOS \
	epsBulk 78.4 \
	pMol 0.92466 \
	epsInf 1.77 \
	Pvap 1.06736e-10 \
	sigmaBulk 4.62e-05 \
	Rvdw 2.61727 \
	Res 1.42 \
	tauNuc 343133 \
	poleEl 15 7 1
forces-output-coords Positions
ion Cu   0.000000000000000   6.355490999999999  58.983941999999999 1
ion Cu   0.000000000000000  12.710997000000001  56.736935999999993 1
ion Cu   4.766623000000000   0.000000000000000  41.007897000000000 1
ion Cu   0.000000000000000   4.766618000000000  54.489930999999999 1
ion Cu   0.000000000000000  11.122123999999999  52.242924999999993 1
ion Cu   0.000000000000000   3.177746000000000  49.995919999999998 1
ion Cu   0.000000000000000   9.533251000000000  47.748913999999999 1
ion Cu   0.000000000000000   1.588873000000000  45.501907999999993 1
ion Cu   0.000000000000000   7.944378000000000  43.254902999999999 1
ion Cu   2.383311000000000   8.738806999999998  55.613464000000000 1
ion Cu   2.383311000000000   0.794444000000000  53.366458000000002 1
ion Cu   2.383311000000000   2.383316000000000  57.860469000000002 1
ion Cu   2.383311000000000   7.149934999999999  51.119453000000000 1
ion Cu   2.383311000000000  13.505425999999998  48.872447000000001 1
ion Cu   2.383311000000000   5.561062000000000  46.625442000000000 1
ion Cu   2.383311000000000  11.916553000000000  44.378374999999998 1
ion Cu   2.383311000000000   3.972189000000000  42.131369999999990 1
ion Cu   2.383311000000000  10.327680000000001  60.107475000000001 1
ion-species /projects/musgravc/apps/jdftx-1.6.0/build/pseudopotentials/GBRV_v1.5/$ID_pbe_v1.uspp
ion-species /projects/musgravc/apps/jdftx-1.6.0/build/pseudopotentials/GBRV_v1.5/$ID_pbe_v1.2.uspp
ion-species /projects/musgravc/apps/jdftx-1.6.0/build/pseudopotentials/GBRV_v1.5/$ID_pbe_v1.4.uspp
ion-species /projects/musgravc/apps/jdftx-1.6.0/build/pseudopotentials/GBRV_v1.5/$ID_pbe_v1.5.uspp
ion-width 0
ionic-minimize  \
	dirUpdateScheme      L-BFGS \
	linminMethod         DirUpdateRecommended \
	nIterations          100 \
	history              15 \
	knormThreshold       0.0001 \
	energyDiffThreshold  1e-06 \
	nEnergyDiff          2 \
	alphaTstart          1 \
	alphaTmin            1e-10 \
	updateTestStepSize   yes \
	alphaTreduceFactor   0.1 \
	alphaTincreaseFactor 3 \
	nAlphaAdjustMax      3 \
	wolfeEnergy          0.0001 \
	wolfeGradient        0.9 \
	fdTest               no
kpoint   0.000000000000   0.000000000000   0.000000000000  1.00000000000000
kpoint-folding 12 4 1 
latt-move-scale 0 0 0
latt-scale 1 1 1 
lattice  \
	   4.766623000000000    0.000000000000000    0.000000000000000  \
	   0.000000000000000   14.299868999999999    0.000000000000000  \
	   0.000000000000000   -0.000000000000000   60.669210999999997 
lattice-minimize  \
	dirUpdateScheme      L-BFGS \
	linminMethod         DirUpdateRecommended \
	nIterations          0 \
	history              15 \
	knormThreshold       0 \
	energyDiffThreshold  1e-06 \
	nEnergyDiff          2 \
	alphaTstart          1 \
	alphaTmin            1e-10 \
	updateTestStepSize   yes \
	alphaTreduceFactor   0.1 \
	alphaTincreaseFactor 3 \
	nAlphaAdjustMax      3 \
	wolfeEnergy          0.0001 \
	wolfeGradient        0.9 \
	fdTest               no
lcao-params 30 1e-06 0.001
pcm-variant GLSSA13
spintype z-spin
subspace-rotation-factor 1 yes
symmetries none
symmetry-threshold 0.0001
van-der-waals D3


Applied RMS atom displacement 0 bohrs to make symmetries exact.

---------- Initializing the Grid ----------
R = 
[      4.76662            0            0  ]
[            0      14.2999            0  ]
[            0            0      60.6692  ]
unit cell volume = 4135.34
G =
[    1.31816         -0          0  ]
[          0   0.439388          0  ]
[         -0          0   0.103565  ]
Minimum fftbox size, Smin = [  20  60  248  ]
Chosen fftbox size, S = [  20  60  250  ]

---------- Exchange Correlation functional ----------
Initalized PBE GGA exchange.
Initalized PBE GGA correlation.

---------- Setting up pseudopotentials ----------
Width of ionic core gaussian charges (only for fluid interactions / plotting) set to 0

Reading pseudopotential file '/projects/musgravc/apps/jdftx-1.6.0/build/pseudopotentials/GBRV_v1.5/cu_pbe_v1.2.uspp':
  Title: Cu.  Created by USPP 7.3.6 on 3-2-2014
  Reference state energy: -201.059491.  19 valence electrons in orbitals:
    |300>  occupation: 2  eigenvalue: -5.020764
    |310>  occupation: 6  eigenvalue: -3.445588
    |320>  occupation: 8  eigenvalue: -0.925168
    |400>  occupation: 2  eigenvalue: -0.567638
    |410>  occupation: 0  eigenvalue: -0.326154
  lMax: 2  lLocal: 3  QijEcut: 6
  6 projectors sampled on a log grid with 613 points:
    l: 0  eig: -5.020767  rCut: 1.4
    l: 0  eig: -0.567640  rCut: 1.4
    l: 1  eig: -3.445589  rCut: 1.55
    l: 1  eig: -0.326157  rCut: 1.55
    l: 2  eig: -0.925170  rCut: 1.5
    l: 2  eig: 1.500000  rCut: 1.5
  Partial core density with radius 0.8
  Transforming core density to a uniform radial grid of dG=0.02 with 1140 points.
  Transforming local potential to a uniform radial grid of dG=0.02 with 1140 points.
  Transforming nonlocal projectors to a uniform radial grid of dG=0.02 with 432 points.
  Transforming density augmentations to a uniform radial grid of dG=0.02 with 1140 points.
  Transforming atomic orbitals to a uniform radial grid of dG=0.02 with 432 points.
  Core radius for overlap checks: 1.55 bohrs.

Initialized 1 species with 18 total atoms.

Folded 1 k-points by 12x4x1 to 48 k-points.

---------- Setting up k-points, bands, fillings ----------
No reducable k-points. 
Computing the number of bands and number of electrons
Calculating initial fillings.
nElectrons: 342.000000   nBands: 206   nStates: 96

----- Setting up reduced wavefunction bases (one per k-point) -----
average nbasis = 17664.146 , ideal nbasis = 17666.487

----- Initializing Supercell corresponding to k-point mesh -----
Lattice vector linear combinations in supercell:
[  12   0   0  ]
[   0   4   0  ]
[   0   0   1  ]
Supercell lattice vectors:
[  57.1995  0  0  ]
[  0  57.1995  0  ]
[  0  0  60.6692  ]

Initializing DFT-D3 calculator:
	Parameters set for gga-PBE functional
	s6:  1.000  s_r6:  1.217
	s8:  0.722  s_r8:  1.000
	Per-atom parameters loaded for:
	Cu:  sqrtQ[a0]:  5.226  Rcov[a0]:  1.909  CN: [ 0.00 0.96 ]

---------- Setting up ewald sum ----------
Optimum gaussian width for ewald sums = 3.955503 bohr.
Real space sum over 855 unit cells with max indices [  9  4  2  ]
Reciprocal space sum over 5355 terms with max indices [  3  7  25  ]

Computing DFT-D3 correction:
# coordination-number Cu 6.829 8.356 5.330 9.149 9.157 9.158 9.152 9.143 6.857 9.143 9.152 6.857 9.158 9.157 9.149 8.356 6.829 5.330
# diagonal-C6 Cu 175.00 175.00 175.00 175.00 175.00 175.00 175.00 175.00 175.00 175.00 175.00 175.00 175.00 175.00 175.00 175.00 175.00 175.00
EvdW_6 =   -0.104776
EvdW_8 =   -0.157411

---------- Allocating electronic variables ----------
Initializing wave functions:  linear combination of atomic orbitals
Cu pseudo-atom occupations:   s ( 2 1 )  p ( 6 0 )  d ( 10 )
	FillingsUpdate:  mu: -3.465879907  nElectrons: 342.000000  magneticMoment: [ Abs: 0.16927  Tot: +0.00520 ]
LCAOMinimize: Iter:   0  F: -3546.3560413851109843  |grad|_K:  2.790e-02  alpha:  1.000e+00
LCAOMinimize: 	Step increased F by 8.297398e+02, reducing alpha to 4.098091e-02.
LCAOMinimize: 	Step increased F by 8.192076e+01, reducing alpha to 4.098091e-03.
	FillingsUpdate:  mu: -3.190174312  nElectrons: 342.000000  magneticMoment: [ Abs: 0.16980  Tot: +0.00370 ]
LCAOMinimize: Iter:   1  F: -3559.3113401886266729  |grad|_K:  1.548e-02  alpha:  4.098e-03  linmin: -1.843e-01  cgtest:  9.310e-01  t[s]:    145.88
LCAOMinimize: Encountered beta<0, resetting CG.
	FillingsUpdate:  mu: -1.874858600  nElectrons: 342.000000  magneticMoment: [ Abs: 0.17567  Tot: +0.00195 ]
LCAOMinimize: Iter:   2  F: -3566.2667414524185006  |grad|_K:  1.173e-02  alpha:  1.216e-02  linmin:  1.824e-02  cgtest: -1.326e-01  t[s]:    182.52
LCAOMinimize: 	Predicted alpha/alphaT>3.000000, increasing alphaT to 3.648957e-02.
LCAOMinimize: 	Wrong curvature in test step, increasing alphaT to 1.094687e-01.
	FillingsUpdate:  mu: -0.385005303  nElectrons: 342.000000  magneticMoment: [ Abs: 0.03879  Tot: +0.00162 ]
LCAOMinimize: Iter:   3  F: -3592.1001870479526588  |grad|_K:  1.327e-02  alpha: -2.387e-01  linmin: -5.146e-02  cgtest:  7.666e-01  t[s]:    227.33
	FillingsUpdate:  mu: +0.544158097  nElectrons: 342.000000  magneticMoment: [ Abs: 0.00147  Tot: +0.00066 ]
LCAOMinimize: Iter:   4  F: -3607.8829721718993824  |grad|_K:  5.043e-03  alpha:  4.983e-01  linmin:  1.334e-02  cgtest: -3.108e+00  t[s]:    265.15
LCAOMinimize: 	Step increased F by 7.739029e-01, reducing alpha to 1.119038e-02.
	FillingsUpdate:  mu: +0.708070310  nElectrons: 342.000000  magneticMoment: [ Abs: 0.00156  Tot: +0.00056 ]
LCAOMinimize: Iter:   5  F: -3608.3989409783353040  |grad|_K:  3.920e-03  alpha:  1.119e-02  linmin: -1.285e-02  cgtest:  1.083e+00  t[s]:    329.18
LCAOMinimize: Encountered beta<0, resetting CG.
LCAOMinimize: 	Wrong curvature in test step, increasing alphaT to 3.357115e-02.
	FillingsUpdate:  mu: +0.779257398  nElectrons: 342.000000  magneticMoment: [ Abs: 0.00125  Tot: +0.00005 ]
LCAOMinimize: Iter:   6  F: -3609.3133166257089215  |grad|_K:  3.527e-03  alpha: -1.766e+00  linmin: -5.301e-02  cgtest:  9.742e-01  t[s]:    364.63
LCAOMinimize: Encountered beta<0, resetting CG.
	FillingsUpdate:  mu: +0.847020119  nElectrons: 342.000000  magneticMoment: [ Abs: 0.00132  Tot: -0.00022 ]
LCAOMinimize: Iter:   7  F: -3610.4313972601935347  |grad|_K:  3.317e-03  alpha:  1.756e-02  linmin: -3.379e-02  cgtest:  8.967e-01  t[s]:    401.28
LCAOMinimize: 	Predicted alpha/alphaT>3.000000, increasing alphaT to 5.266659e-02.
	FillingsUpdate:  mu: +1.255257713  nElectrons: 342.000000  magneticMoment: [ Abs: 0.00097  Tot: -0.00031 ]
LCAOMinimize: Iter:   8  F: -3614.0444326710676251  |grad|_K:  2.657e-03  alpha:  1.038e-01  linmin: -9.549e-03  cgtest:  6.637e-02  t[s]:    447.69
LCAOMinimize: 	Predicted alpha/alphaT>3.000000, increasing alphaT to 3.112789e-01.
	FillingsUpdate:  mu: +1.309949774  nElectrons: 342.000000  magneticMoment: [ Abs: 0.00091  Tot: -0.00022 ]
LCAOMinimize: Iter:   9  F: -3614.9194968105534826  |grad|_K:  2.409e-03  alpha:  2.113e-02  linmin: -2.943e-02  cgtest:  9.444e-01  t[s]:    493.73
LCAOMinimize: Encountered beta<0, resetting CG.
LCAOMinimize: 	Predicted alpha/alphaT>3.000000, increasing alphaT to 6.338603e-02.
	FillingsUpdate:  mu: +1.345403829  nElectrons: 342.000000  magneticMoment: [ Abs: 0.00073  Tot: +0.00009 ]
LCAOMinimize: Iter:  10  F: -3616.9541761720852264  |grad|_K:  3.114e-03  alpha:  1.240e-01  linmin: -6.202e-03  cgtest: -1.570e-01  t[s]:    540.67
	FillingsUpdate:  mu: +1.329260110  nElectrons: 342.000000  magneticMoment: [ Abs: 0.00071  Tot: +0.00003 ]
LCAOMinimize: Iter:  11  F: -3617.7138984197972604  |grad|_K:  3.161e-03  alpha:  1.215e-02  linmin: -3.405e-02  cgtest:  9.794e-01  t[s]:    577.36
LCAOMinimize: 	Predicted alpha/alphaT>3.000000, increasing alphaT to 3.644204e-02.
	FillingsUpdate:  mu: +1.320887927  nElectrons: 342.000000  magneticMoment: [ Abs: 0.00077  Tot: -0.00004 ]
LCAOMinimize: Iter:  12  F: -3619.6873047955832590  |grad|_K:  3.960e-03  alpha:  9.826e-02  linmin:  2.025e-02  cgtest: -3.997e-01  t[s]:    623.72
	FillingsUpdate:  mu: +1.327510703  nElectrons: 342.000000  magneticMoment: [ Abs: 0.00077  Tot: -0.00001 ]
LCAOMinimize: Iter:  13  F: -3619.7142613221776628  |grad|_K:  4.025e-03  alpha:  1.131e-03  linmin: -7.206e-03  cgtest:  1.001e+00  t[s]:    660.78
LCAOMinimize: 	Predicted alpha/alphaT>3.000000, increasing alphaT to 3.392222e-03.
LCAOMinimize: 	Predicted alpha/alphaT>3.000000, increasing alphaT to 1.017667e-02.
LCAOMinimize: 	Predicted alpha/alphaT>3.000000, increasing alphaT to 3.053000e-02.
	FillingsUpdate:  mu: +0.977321758  nElectrons: 342.000000  magneticMoment: [ Abs: 0.00085  Tot: -0.00030 ]
LCAOMinimize: Iter:  14  F: -3622.1171449624084744  |grad|_K:  2.026e-03  alpha:  4.973e-02  linmin: -3.558e-02  cgtest:  5.657e-02  t[s]:    716.88
LCAOMinimize: 	Wrong curvature in test step, increasing alphaT to 1.491766e-01.
	FillingsUpdate:  mu: +0.903518226  nElectrons: 342.000000  magneticMoment: [ Abs: 0.00087  Tot: -0.00025 ]
LCAOMinimize: Iter:  15  F: -3623.3493045881214130  |grad|_K:  2.077e-03  alpha: -7.912e-01  linmin: -9.722e-02  cgtest:  8.971e-01  t[s]:    752.32
	FillingsUpdate:  mu: +0.885748871  nElectrons: 342.000000  magneticMoment: [ Abs: 0.00090  Tot: -0.00025 ]
LCAOMinimize: Iter:  16  F: -3623.7786319269348496  |grad|_K:  1.909e-03  alpha:  1.678e-02  linmin: -1.383e-01  cgtest:  9.463e-01  t[s]:    789.02
LCAOMinimize: Encountered beta<0, resetting CG.
LCAOMinimize: 	Predicted alpha/alphaT>3.000000, increasing alphaT to 5.034350e-02.
LCAOMinimize: 	Predicted alpha/alphaT>3.000000, increasing alphaT to 1.510305e-01.
LCAOMinimize: 	Step increased F by 4.842986e+00, reducing alpha to 2.868675e-02.
	FillingsUpdate:  mu: +0.881259055  nElectrons: 342.000000  magneticMoment: [ Abs: 0.00092  Tot: -0.00027 ]
LCAOMinimize: Iter:  17  F: -3624.3250957756240496  |grad|_K:  1.797e-03  alpha:  2.869e-02  linmin: -1.487e-01  cgtest:  9.280e-01  t[s]:    872.72
LCAOMinimize: 	Predicted alpha/alphaT>3.000000, increasing alphaT to 8.606026e-02.
LCAOMinimize: 	Wrong curvature in test step, increasing alphaT to 2.581808e-01.
	FillingsUpdate:  mu: +0.769911467  nElectrons: 342.000000  magneticMoment: [ Abs: 0.00102  Tot: -0.00020 ]
LCAOMinimize: Iter:  18  F: -3625.8236559102315368  |grad|_K:  1.639e-03  alpha: -1.083e+01  linmin: -1.690e-01  cgtest:  8.537e-01  t[s]:    917.51
	FillingsUpdate:  mu: +0.749112096  nElectrons: 342.000000  magneticMoment: [ Abs: 0.00104  Tot: -0.00013 ]
LCAOMinimize: Iter:  19  F: -3626.1613564295876131  |grad|_K:  1.583e-03  alpha:  2.233e-02  linmin: -1.765e-01  cgtest:  9.621e-01  t[s]:    954.33
LCAOMinimize: 	Wrong curvature in test step, increasing alphaT to 6.698543e-02.
	FillingsUpdate:  mu: +0.733619473  nElectrons: 342.000000  magneticMoment: [ Abs: 0.00107  Tot: -0.00006 ]
LCAOMinimize: Iter:  20  F: -3626.4600849706939698  |grad|_K:  1.544e-03  alpha: -4.810e+00  linmin: -1.878e-01  cgtest:  9.695e-01  t[s]:    989.80
	FillingsUpdate:  mu: +0.721399642  nElectrons: 342.000000  magneticMoment: [ Abs: 0.00110  Tot: -0.00001 ]
LCAOMinimize: Iter:  21  F: -3626.7293273545583361  |grad|_K:  1.510e-03  alpha:  2.109e-02  linmin: -1.942e-01  cgtest:  9.707e-01  t[s]:   1026.62
LCAOMinimize: 	Wrong curvature in test step, increasing alphaT to 6.327920e-02.
	FillingsUpdate:  mu: +0.710094767  nElectrons: 342.000000  magneticMoment: [ Abs: 0.00114  Tot: +0.00004 ]
LCAOMinimize: Iter:  22  F: -3626.9871700368848906  |grad|_K:  1.477e-03  alpha: -2.611e+00  linmin: -1.981e-01  cgtest:  9.695e-01  t[s]:   1061.84
	FillingsUpdate:  mu: +0.699841209  nElectrons: 342.000000  magneticMoment: [ Abs: 0.00118  Tot: +0.00009 ]
LCAOMinimize: Iter:  23  F: -3627.2184086629345074  |grad|_K:  1.448e-03  alpha:  1.972e-02  linmin: -1.975e-01  cgtest:  9.703e-01  t[s]:   1098.53
LCAOMinimize: 	Wrong curvature in test step, increasing alphaT to 5.917448e-02.
	FillingsUpdate:  mu: +0.689504382  nElectrons: 342.000000  magneticMoment: [ Abs: 0.00123  Tot: +0.00014 ]
LCAOMinimize: Iter:  24  F: -3627.4410901564256164  |grad|_K:  1.420e-03  alpha: -1.733e+00  linmin: -1.885e-01  cgtest:  9.689e-01  t[s]:   1133.92
	FillingsUpdate:  mu: +0.679460408  nElectrons: 342.000000  magneticMoment: [ Abs: 0.00128  Tot: +0.00020 ]
LCAOMinimize: Iter:  25  F: -3627.6473182810996150  |grad|_K:  1.394e-03  alpha:  1.895e-02  linmin: -1.771e-01  cgtest:  9.693e-01  t[s]:   1171.26
LCAOMinimize: 	Wrong curvature in test step, increasing alphaT to 5.683904e-02.
	FillingsUpdate:  mu: +0.669271220  nElectrons: 342.000000  magneticMoment: [ Abs: 0.00133  Tot: +0.00023 ]
LCAOMinimize: Iter:  26  F: -3627.8461075475379403  |grad|_K:  1.367e-03  alpha: -1.578e+00  linmin: -1.743e-01  cgtest:  9.690e-01  t[s]:   1206.88
	FillingsUpdate:  mu: +0.657794090  nElectrons: 342.000000  magneticMoment: [ Abs: 0.00137  Tot: +0.00023 ]
LCAOMinimize: Iter:  27  F: -3628.0348610832211307  |grad|_K:  1.341e-03  alpha:  1.870e-02  linmin: -1.789e-01  cgtest:  9.689e-01  t[s]:   1243.51
LCAOMinimize: 	Wrong curvature in test step, increasing alphaT to 5.609865e-02.
	FillingsUpdate:  mu: +0.644507228  nElectrons: 342.000000  magneticMoment: [ Abs: 0.00141  Tot: +0.00023 ]
LCAOMinimize: Iter:  28  F: -3628.2165203326694609  |grad|_K:  1.315e-03  alpha: -1.463e+00  linmin: -1.790e-01  cgtest:  9.678e-01  t[s]:   1279.10
	FillingsUpdate:  mu: +0.629937112  nElectrons: 342.000000  magneticMoment: [ Abs: 0.00145  Tot: +0.00022 ]
LCAOMinimize: Iter:  29  F: -3628.3972429412942802  |grad|_K:  1.288e-03  alpha:  1.931e-02  linmin: -1.718e-01  cgtest:  9.661e-01  t[s]:   1315.98
LCAOMinimize: 	Wrong curvature in test step, increasing alphaT to 5.792626e-02.
	FillingsUpdate:  mu: +0.613526493  nElectrons: 342.000000  magneticMoment: [ Abs: 0.00149  Tot: +0.00019 ]
LCAOMinimize: Iter:  30  F: -3628.5704028811533135  |grad|_K:  1.259e-03  alpha: -1.772e+00  linmin: -1.763e-01  cgtest:  9.667e-01  t[s]:   1351.43
LCAOMinimize: None of the convergence criteria satisfied after 30 iterations.


---- Citations for features of the code used in this run ----

   Software package:
      R. Sundararaman, K. Letchworth-Weaver, K.A. Schwarz, D. Gunceler, Y. Ozhabes and T.A. Arias, 'JDFTx: software for joint density-functional theory', SoftwareX 6, 278 (2017)

   gga-PBE exchange-correlation functional:
      J.P. Perdew, K. Burke and M. Ernzerhof, Phys. Rev. Lett. 77, 3865 (1996)

   Pseudopotentials:
      KF Garrity, JW Bennett, KM Rabe and D Vanderbilt, Comput. Mater. Sci. 81, 446 (2014)

   DFT-D3 dispersion correction:
      S. Grimme, J. Antony, S. Ehrlich and H. Krieg, J. Chem. Phys. 132, 154104 (2010)

   Total energy minimization with Auxiliary Hamiltonian:
      C. Freysoldt, S. Boeck, and J. Neugebauer, Phys. Rev. B 79, 241103(R) (2009)

   Linear-tetrahedron sampling for density of states:
      G. Lehmann and M. Taut, Phys. status solidi (b) 54, 469 (1972)

This list may not be complete. Please suggest additional citations or
report any other bugs at https://github.com/shankar1729/jdftx/issues

Initialization completed successfully at t[s]:   1358.94


Computing DFT-D3 correction:
# coordination-number Cu 6.829 8.356 5.330 9.149 9.157 9.158 9.152 9.143 6.857 9.143 9.152 6.857 9.158 9.157 9.149 8.356 6.829 5.330
# diagonal-C6 Cu 175.00 175.00 175.00 175.00 175.00 175.00 175.00 175.00 175.00 175.00 175.00 175.00 175.00 175.00 175.00 175.00 175.00 175.00
EvdW_6 =   -0.104776
EvdW_8 =   -0.157411

-------- Electronic minimization -----------
	FillingsUpdate:  mu: +0.625471697  nElectrons: 342.000000  magneticMoment: [ Abs: 0.00149  Tot: +0.00019 ]
ElecMinimize: Iter:   0  F: -3628.570402881153768  |grad|_K:  3.447e-04  alpha:  1.000e+00
	FillingsUpdate:  mu: +0.252405491  nElectrons: 342.000000  magneticMoment: [ Abs: 0.00166  Tot: -0.00002 ]
	SubspaceRotationAdjust: set factor to 0.955
ElecMinimize: Iter:   1  F: -3631.962519963642990  |grad|_K:  9.785e-05  alpha:  8.919e-02  linmin:  9.718e-04  t[s]:   1451.55
	FillingsUpdate:  mu: +0.250592752  nElectrons: 342.000000  magneticMoment: [ Abs: 0.00133  Tot: +0.00011 ]
	SubspaceRotationAdjust: set factor to 0.983
ElecMinimize: Iter:   2  F: -3632.623122904358297  |grad|_K:  9.382e-05  alpha:  2.189e-01  linmin: -2.493e-06  t[s]:   1509.60
	FillingsUpdate:  mu: +0.206619888  nElectrons: 342.000000  magneticMoment: [ Abs: 0.00123  Tot: +0.00010 ]
	SubspaceRotationAdjust: set factor to 0.883
ElecMinimize: Iter:   3  F: -3632.975838195564847  |grad|_K:  5.654e-05  alpha:  8.419e-02  linmin: -2.984e-04  t[s]:   1567.86
	FillingsUpdate:  mu: +0.155248885  nElectrons: 342.000000  magneticMoment: [ Abs: 0.00118  Tot: +0.00015 ]
	SubspaceRotationAdjust: set factor to 0.569
ElecMinimize: Iter:   4  F: -3633.068443561081949  |grad|_K:  5.673e-05  alpha:  6.276e-02  linmin:  2.359e-06  t[s]:   1626.01
	FillingsUpdate:  mu: +0.072830416  nElectrons: 342.000000  magneticMoment: [ Abs: 0.00113  Tot: +0.00016 ]
	SubspaceRotationAdjust: set factor to 0.496
ElecMinimize: Iter:   5  F: -3633.114309676769153  |grad|_K:  4.302e-05  alpha:  4.103e-02  linmin:  6.312e-08  t[s]:   1684.33
ElecMinimize: 	Predicted alpha/alphaT>3.000000, increasing alphaT to 1.230974e-01.
	FillingsUpdate:  mu: +0.139311071  nElectrons: 342.000000  magneticMoment: [ Abs: 0.00091  Tot: +0.00006 ]
	SubspaceRotationAdjust: set factor to 0.288
ElecMinimize: Iter:   6  F: -3633.206390510213168  |grad|_K:  5.114e-05  alpha:  1.413e-01  linmin: -5.503e-06  t[s]:   1756.89
	FillingsUpdate:  mu: +0.058846764  nElectrons: 342.000000  magneticMoment: [ Abs: 0.00080  Tot: +0.00003 ]
	SubspaceRotationAdjust: set factor to 0.322
ElecMinimize: Iter:   7  F: -3633.249509464738821  |grad|_K:  2.325e-05  alpha:  4.881e-02  linmin:  1.113e-05  t[s]:   1815.01
	FillingsUpdate:  mu: +0.068447410  nElectrons: 342.000000  magneticMoment: [ Abs: 0.00070  Tot: +0.00003 ]
	SubspaceRotationAdjust: set factor to 0.253
ElecMinimize: Iter:   8  F: -3633.268120263376659  |grad|_K:  1.958e-05  alpha:  1.009e-01  linmin: -3.332e-06  t[s]:   1873.06
	FillingsUpdate:  mu: +0.075877477  nElectrons: 342.000000  magneticMoment: [ Abs: 0.00061  Tot: +0.00003 ]
	SubspaceRotationAdjust: set factor to 0.256
ElecMinimize: Iter:   9  F: -3633.282485301125689  |grad|_K:  1.752e-05  alpha:  1.059e-01  linmin: -3.315e-06  t[s]:   1931.09
	FillingsUpdate:  mu: +0.089931571  nElectrons: 342.000000  magneticMoment: [ Abs: 0.00053  Tot: +0.00005 ]
	SubspaceRotationAdjust: set factor to 0.208
ElecMinimize: Iter:  10  F: -3633.295855377081352  |grad|_K:  1.430e-05  alpha:  1.227e-01  linmin: -2.229e-06  t[s]:   1989.34
	FillingsUpdate:  mu: +0.094985483  nElectrons: 342.000000  magneticMoment: [ Abs: 0.00048  Tot: +0.00007 ]
	SubspaceRotationAdjust: set factor to 0.214
ElecMinimize: Iter:  11  F: -3633.303303882241835  |grad|_K:  1.085e-05  alpha:  1.035e-01  linmin: -2.097e-06  t[s]:   2047.81
	FillingsUpdate:  mu: +0.093548463  nElectrons: 342.000000  magneticMoment: [ Abs: 0.00046  Tot: +0.00009 ]
	SubspaceRotationAdjust: set factor to 0.232
ElecMinimize: Iter:  12  F: -3633.307959359968663  |grad|_K:  8.040e-06  alpha:  1.120e-01  linmin: -1.587e-06  t[s]:   2106.33
	FillingsUpdate:  mu: +0.091305464  nElectrons: 342.000000  magneticMoment: [ Abs: 0.00045  Tot: +0.00011 ]
	SubspaceRotationAdjust: set factor to 0.252
ElecMinimize: Iter:  13  F: -3633.310656770292553  |grad|_K:  6.745e-06  alpha:  1.185e-01  linmin: -1.350e-06  t[s]:   2164.66
	FillingsUpdate:  mu: +0.092960044  nElectrons: 342.000000  magneticMoment: [ Abs: 0.00044  Tot: +0.00012 ]
	SubspaceRotationAdjust: set factor to 0.267
ElecMinimize: Iter:  14  F: -3633.312691842443201  |grad|_K:  6.016e-06  alpha:  1.270e-01  linmin:  4.234e-07  t[s]:   2223.14
	FillingsUpdate:  mu: +0.096569050  nElectrons: 342.000000  magneticMoment: [ Abs: 0.00041  Tot: +0.00014 ]
	SubspaceRotationAdjust: set factor to 0.288
ElecMinimize: Iter:  15  F: -3633.314328473798469  |grad|_K:  5.521e-06  alpha:  1.288e-01  linmin: -5.961e-08  t[s]:   2281.35
	FillingsUpdate:  mu: +0.098334979  nElectrons: 342.000000  magneticMoment: [ Abs: 0.00038  Tot: +0.00014 ]
	SubspaceRotationAdjust: set factor to 0.308
ElecMinimize: Iter:  16  F: -3633.315530927864074  |grad|_K:  4.000e-06  alpha:  1.122e-01  linmin:  5.157e-07  t[s]:   2340.83
	FillingsUpdate:  mu: +0.097993243  nElectrons: 342.000000  magneticMoment: [ Abs: 0.00036  Tot: +0.00014 ]
	SubspaceRotationAdjust: set factor to 0.332
ElecMinimize: Iter:  17  F: -3633.316083047715892  |grad|_K:  3.274e-06  alpha:  9.829e-02  linmin: -5.833e-09  t[s]:   2399.03
	FillingsUpdate:  mu: +0.097713003  nElectrons: 342.000000  magneticMoment: [ Abs: 0.00034  Tot: +0.00013 ]
	SubspaceRotationAdjust: set factor to 0.372
ElecMinimize: Iter:  18  F: -3633.316630822526349  |grad|_K:  3.258e-06  alpha:  1.455e-01  linmin:  5.048e-07  t[s]:   2457.30
	FillingsUpdate:  mu: +0.097834183  nElectrons: 342.000000  magneticMoment: [ Abs: 0.00031  Tot: +0.00012 ]
	SubspaceRotationAdjust: set factor to 0.374
ElecMinimize: Iter:  19  F: -3633.317009310160756  |grad|_K:  2.597e-06  alpha:  1.016e-01  linmin: -5.435e-08  t[s]:   2515.65
	FillingsUpdate:  mu: +0.098092334  nElectrons: 342.000000  magneticMoment: [ Abs: 0.00028  Tot: +0.00011 ]
	SubspaceRotationAdjust: set factor to 0.436
ElecMinimize: Iter:  20  F: -3633.317280723652402  |grad|_K:  2.181e-06  alpha:  1.145e-01  linmin: -6.886e-07  t[s]:   2573.84
	FillingsUpdate:  mu: +0.098305437  nElectrons: 342.000000  magneticMoment: [ Abs: 0.00025  Tot: +0.00010 ]
	SubspaceRotationAdjust: set factor to 0.432
ElecMinimize: Iter:  21  F: -3633.317471985096290  |grad|_K:  2.033e-06  alpha:  1.144e-01  linmin:  2.646e-07  t[s]:   2632.01
	FillingsUpdate:  mu: +0.098563432  nElectrons: 342.000000  magneticMoment: [ Abs: 0.00021  Tot: +0.00008 ]
	SubspaceRotationAdjust: set factor to 0.439
ElecMinimize: Iter:  22  F: -3633.317616811570588  |grad|_K:  1.515e-06  alpha:  9.975e-02  linmin:  5.317e-07  t[s]:   2691.50
	FillingsUpdate:  mu: +0.098710666  nElectrons: 342.000000  magneticMoment: [ Abs: 0.00018  Tot: +0.00007 ]
	SubspaceRotationAdjust: set factor to 0.508
ElecMinimize: Iter:  23  F: -3633.317706447192450  |grad|_K:  1.291e-06  alpha:  1.111e-01  linmin:  2.056e-07  t[s]:   2750.17
	FillingsUpdate:  mu: +0.098449514  nElectrons: 342.000000  magneticMoment: [ Abs: 0.00016  Tot: +0.00006 ]
	SubspaceRotationAdjust: set factor to 0.475
ElecMinimize: Iter:  24  F: -3633.317775023796912  |grad|_K:  1.328e-06  alpha:  1.171e-01  linmin:  4.030e-07  t[s]:   2808.53
	FillingsUpdate:  mu: +0.097860890  nElectrons: 342.000000  magneticMoment: [ Abs: 0.00012  Tot: +0.00005 ]
	SubspaceRotationAdjust: set factor to 0.449
ElecMinimize: Iter:  25  F: -3633.317835779468624  |grad|_K:  9.418e-07  alpha:  9.801e-02  linmin:  7.768e-07  t[s]:   2866.86
	FillingsUpdate:  mu: +0.097597502  nElectrons: 342.000000  magneticMoment: [ Abs: 0.00010  Tot: +0.00005 ]
	SubspaceRotationAdjust: set factor to 0.522
ElecMinimize: Iter:  26  F: -3633.317867298219880  |grad|_K:  6.999e-07  alpha:  1.012e-01  linmin:  7.380e-07  t[s]:   2925.05
	FillingsUpdate:  mu: +0.097590049  nElectrons: 342.000000  magneticMoment: [ Abs: 0.00009  Tot: +0.00004 ]
	SubspaceRotationAdjust: set factor to 0.464
ElecMinimize: Iter:  27  F: -3633.317886848039507  |grad|_K:  6.654e-07  alpha:  1.137e-01  linmin:  4.526e-07  t[s]:   2984.23
	FillingsUpdate:  mu: +0.097563068  nElectrons: 342.000000  magneticMoment: [ Abs: 0.00007  Tot: +0.00003 ]
	SubspaceRotationAdjust: set factor to 0.417
ElecMinimize: Iter:  28  F: -3633.317901896094099  |grad|_K:  5.138e-07  alpha:  9.677e-02  linmin:  1.422e-07  t[s]:   3042.52
	FillingsUpdate:  mu: +0.097425136  nElectrons: 342.000000  magneticMoment: [ Abs: 0.00006  Tot: +0.00003 ]
	SubspaceRotationAdjust: set factor to 0.448
ElecMinimize: Iter:  29  F: -3633.317912028882347  |grad|_K:  3.962e-07  alpha:  1.093e-01  linmin:  2.408e-07  t[s]:   3100.53
	FillingsUpdate:  mu: +0.097305840  nElectrons: 342.000000  magneticMoment: [ Abs: 0.00005  Tot: +0.00002 ]
	SubspaceRotationAdjust: set factor to 0.438
ElecMinimize: Iter:  30  F: -3633.317918474347607  |grad|_K:  3.278e-07  alpha:  1.169e-01  linmin:  1.768e-07  t[s]:   3158.76
	FillingsUpdate:  mu: +0.097322683  nElectrons: 342.000000  magneticMoment: [ Abs: 0.00004  Tot: +0.00002 ]
	SubspaceRotationAdjust: set factor to 0.404
ElecMinimize: Iter:  31  F: -3633.317922045448995  |grad|_K:  2.425e-07  alpha:  9.460e-02  linmin: -1.034e-08  t[s]:   3217.03
	FillingsUpdate:  mu: +0.097412346  nElectrons: 342.000000  magneticMoment: [ Abs: 0.00003  Tot: +0.00002 ]
	SubspaceRotationAdjust: set factor to 0.411
ElecMinimize: Iter:  32  F: -3633.317924331299309  |grad|_K:  2.008e-07  alpha:  1.106e-01  linmin: -2.105e-07  t[s]:   3276.17
	FillingsUpdate:  mu: +0.097462410  nElectrons: 342.000000  magneticMoment: [ Abs: 0.00003  Tot: +0.00002 ]
	SubspaceRotationAdjust: set factor to 0.442
ElecMinimize: Iter:  33  F: -3633.317926294267181  |grad|_K:  1.905e-07  alpha:  1.385e-01  linmin:  2.089e-08  t[s]:   3334.45
	FillingsUpdate:  mu: +0.097424206  nElectrons: 342.000000  magneticMoment: [ Abs: 0.00002  Tot: +0.00001 ]
	SubspaceRotationAdjust: set factor to 0.408
ElecMinimize: Iter:  34  F: -3633.317927541604604  |grad|_K:  1.359e-07  alpha:  9.786e-02  linmin:  3.271e-08  t[s]:   3392.91
	FillingsUpdate:  mu: +0.097362239  nElectrons: 342.000000  magneticMoment: [ Abs: 0.00002  Tot: +0.00001 ]
	SubspaceRotationAdjust: set factor to 0.448
ElecMinimize: Iter:  35  F: -3633.317928200066945  |grad|_K:  1.034e-07  alpha:  1.015e-01  linmin:  1.684e-07  t[s]:   3451.02
	FillingsUpdate:  mu: +0.097336059  nElectrons: 342.000000  magneticMoment: [ Abs: 0.00002  Tot: +0.00001 ]
	SubspaceRotationAdjust: set factor to 0.488
ElecMinimize: Iter:  36  F: -3633.317928736020804  |grad|_K:  1.066e-07  alpha:  1.429e-01  linmin: -4.534e-08  t[s]:   3509.33
	FillingsUpdate:  mu: +0.097368645  nElectrons: 342.000000  magneticMoment: [ Abs: 0.00002  Tot: +0.00001 ]
	SubspaceRotationAdjust: set factor to 0.454
ElecMinimize: Iter:  37  F: -3633.317929204935808  |grad|_K:  9.280e-08  alpha:  1.174e-01  linmin: -7.958e-08  t[s]:   3568.86
	FillingsUpdate:  mu: +0.097415641  nElectrons: 342.000000  magneticMoment: [ Abs: 0.00001  Tot: +0.00001 ]
	SubspaceRotationAdjust: set factor to 0.471
ElecMinimize: Iter:  38  F: -3633.317929484526758  |grad|_K:  6.301e-08  alpha:  9.241e-02  linmin:  1.155e-07  t[s]:   3627.06
	FillingsUpdate:  mu: +0.097434955  nElectrons: 342.000000  magneticMoment: [ Abs: 0.00001  Tot: +0.00001 ]
	SubspaceRotationAdjust: set factor to 0.53
ElecMinimize: Iter:  39  F: -3633.317929655769149  |grad|_K:  5.650e-08  alpha:  1.227e-01  linmin: -2.611e-08  t[s]:   3685.36
	FillingsUpdate:  mu: +0.097420010  nElectrons: 342.000000  magneticMoment: [ Abs: 0.00001  Tot: +0.00001 ]
	SubspaceRotationAdjust: set factor to 0.537
ElecMinimize: Iter:  40  F: -3633.317929805728909  |grad|_K:  5.488e-08  alpha:  1.339e-01  linmin:  1.874e-07  t[s]:   3743.56
	FillingsUpdate:  mu: +0.097394508  nElectrons: 342.000000  magneticMoment: [ Abs: 0.00001  Tot: +0.00000 ]
	SubspaceRotationAdjust: set factor to 0.479
ElecMinimize: Iter:  41  F: -3633.317929907103462  |grad|_K:  4.394e-08  alpha:  9.566e-02  linmin:  2.669e-09  t[s]:   3801.64
	FillingsUpdate:  mu: +0.097382601  nElectrons: 342.000000  magneticMoment: [ Abs: 0.00001  Tot: +0.00000 ]
	SubspaceRotationAdjust: set factor to 0.458
ElecMinimize: Iter:  42  F: -3633.317929974623439  |grad|_K:  3.489e-08  alpha:  9.912e-02  linmin: -9.928e-07  t[s]:   3860.44
	FillingsUpdate:  mu: +0.097390606  nElectrons: 342.000000  magneticMoment: [ Abs: 0.00001  Tot: +0.00000 ]
	SubspaceRotationAdjust: set factor to 0.515
ElecMinimize: Iter:  43  F: -3633.317930030799289  |grad|_K:  3.019e-08  alpha:  1.314e-01  linmin:  1.079e-06  t[s]:   3918.74
ElecMinimize: Converged (|Delta F|<1.000000e-07 for 2 iters).
Setting wave functions to eigenvectors of Hamiltonian
Converging empty states (this may take a while): |deigs|: 2.204e-02

Computing DFT-D3 correction:
# coordination-number Cu 6.829 8.356 5.330 9.149 9.157 9.158 9.152 9.143 6.857 9.143 9.152 6.857 9.158 9.157 9.149 8.356 6.829 5.330
# diagonal-C6 Cu 175.00 175.00 175.00 175.00 175.00 175.00 175.00 175.00 175.00 175.00 175.00 175.00 175.00 175.00 175.00 175.00 175.00 175.00
EvdW_6 =   -0.104776
EvdW_8 =   -0.157411

# Ionic positions in cartesian coordinates:
ion Cu   0.000000000000000   6.355490999999999  58.983941999999999 1
ion Cu   0.000000000000000  12.710997000000001  56.736935999999993 1
ion Cu   4.766623000000000   0.000000000000000  41.007897000000000 1
ion Cu   0.000000000000000   4.766618000000000  54.489930999999999 1
ion Cu   0.000000000000000  11.122123999999999  52.242924999999993 1
ion Cu   0.000000000000000   3.177746000000000  49.995919999999998 1
ion Cu   0.000000000000000   9.533251000000000  47.748913999999999 1
ion Cu   0.000000000000000   1.588873000000000  45.501907999999993 1
ion Cu   0.000000000000000   7.944378000000000  43.254902999999999 1
ion Cu   2.383311000000000   8.738806999999998  55.613464000000000 1
ion Cu   2.383311000000000   0.794444000000000  53.366458000000002 1
ion Cu   2.383311000000000   2.383316000000000  57.860469000000002 1
ion Cu   2.383311000000000   7.149934999999999  51.119453000000000 1
ion Cu   2.383311000000000  13.505425999999998  48.872447000000001 1
ion Cu   2.383311000000000   5.561062000000000  46.625442000000000 1
ion Cu   2.383311000000000  11.916553000000000  44.378374999999998 1
ion Cu   2.383311000000000   3.972189000000000  42.131369999999990 1
ion Cu   2.383311000000000  10.327680000000001  60.107475000000001 1

# Forces in Cartesian coordinates:
force Cu   0.000000426572454  -0.000965333971967   0.001829611483070 1
force Cu   0.000000801336076   0.003180057011079   0.006076476616168 1
force Cu   0.000000293430769  -0.000254811395690   0.005266429595845 1
force Cu   0.000001733867171  -0.000033353173062  -0.000993082427831 1
force Cu  -0.000002468341521  -0.000002876781221  -0.000754956215262 1
force Cu   0.000000092775613   0.000130347600012   0.000275100044623 1
force Cu   0.000000830836374   0.000967194289510   0.002185506827869 1
force Cu   0.000001658640972  -0.000487768386174   0.002055165416357 1
force Cu  -0.000002394797896   0.001408149278192  -0.003257893788195 1
force Cu  -0.000001146155716   0.000606171039976  -0.002158155305216 1
force Cu   0.000001215483965  -0.001014299894051  -0.002135578227967 1
force Cu   0.000001428422824  -0.001455883732259   0.003136256520362 1
force Cu   0.000002198161544  -0.000189740535199  -0.000273623214831 1
force Cu  -0.000000189826669   0.000141614407880   0.000585924669017 1
force Cu  -0.000000874896968  -0.000029846660908   0.000898710330184 1
force Cu   0.000002108420273  -0.003233265278588  -0.006020013672167 1
force Cu   0.000000431638104   0.001103756306460  -0.001862177336113 1
force Cu  -0.000000462336010   0.000180179476248  -0.005329841695933 1

# Energy components:
   Eewald =    22121.4834926764160627
       EH =    25444.4118976869976905
     Eloc =   -51881.2242216543018003
      Enl =      659.2054501140792127
     EvdW =       -0.2621868938954149
      Exc =     -349.2897508169166372
 Exc_core =        0.8454409420131483
       KE =      371.5125596720082513
-------------------------------------
     Etot =    -3633.3173182736031777
       TS =        0.0006117571963353
-------------------------------------
        F =    -3633.3179300307992889


Dumping 'jdft.fillings' ... done
Dumping 'jdft.wfns' ... done
Dumping 'jdft.ionpos' ... done
Dumping 'jdft.lattice' ... done
Dumping 'jdft.eigenvals' ... done
Dumping 'jdft.eigStats' ... 
	eMin: -4.042761 at state 0 ( [ +0.000000 +0.000000 +0.000000 ] spin 1 )
	HOMO: +0.097379 at state 50 ( [ +0.000000 +0.500000 +0.000000 ] spin -1 )
	mu  : +0.097391
	LUMO: +0.097432 at state 39 ( [ -0.250000 -0.250000 +0.000000 ] spin 1 )
	eMax: +0.463678 at state 73 ( [ +0.500000 +0.250000 +0.000000 ] spin -1 )
	HOMO-LUMO gap: +0.000054
	Optical gap  : +0.001745 at state 51 ( [ +0.000000 -0.250000 +0.000000 ] spin -1 )
Dumping 'jdft.Ecomponents' ... done
IonicMinimize: Iter:   0  F: -3633.317930030799289  |grad|_K:  1.959e-03  t[s]:   4165.54

#--- Lowdin population analysis ---
# oxidation-state Cu +0.090 +0.027 +0.186 +0.063 +0.073 +0.075 +0.070 +0.058 +0.117 +0.058 +0.070 +0.117 +0.075 +0.073 +0.063 +0.027 +0.091 +0.185
# magnetic-moments Cu +0.000 +0.000 +0.000 +0.000 +0.000 +0.000 +0.000 +0.000 +0.000 +0.000 +0.000 +0.000 +0.000 +0.000 +0.000 +0.000 +0.000 +0.000


Computing DFT-D3 correction:
# coordination-number Cu 6.824 8.355 5.342 9.142 9.158 9.163 9.147 9.137 6.855 9.137 9.148 6.855 9.163 9.158 9.142 8.355 6.824 5.342
# diagonal-C6 Cu 175.00 175.00 175.00 175.00 175.00 175.00 175.00 175.00 175.00 175.00 175.00 175.00 175.00 175.00 175.00 175.00 175.00 175.00
EvdW_6 =   -0.104776
EvdW_8 =   -0.157411

-------- Electronic minimization -----------
	FillingsUpdate:  mu: +0.097486644  nElectrons: 342.000000  magneticMoment: [ Abs: 0.00000  Tot: +0.00000 ]
ElecMinimize: Iter:   0  F: -3633.318067446810346  |grad|_K:  6.355e-07  alpha:  1.000e+00
	FillingsUpdate:  mu: +0.097404135  nElectrons: 342.000000  magneticMoment: [ Abs: 0.00000  Tot: +0.00000 ]
	SubspaceRotationAdjust: set factor to 0.384
ElecMinimize: Iter:   1  F: -3633.318080727479355  |grad|_K:  5.510e-07  alpha:  9.362e-02  linmin:  6.248e-06  t[s]:   4272.29
	FillingsUpdate:  mu: +0.097296370  nElectrons: 342.000000  magneticMoment: [ Abs: 0.00000  Tot: +0.00000 ]
	SubspaceRotationAdjust: set factor to 0.297
ElecMinimize: Iter:   2  F: -3633.318092588049240  |grad|_K:  5.145e-07  alpha:  1.112e-01  linmin: -4.050e-07  t[s]:   4330.24
	FillingsUpdate:  mu: +0.097240335  nElectrons: 342.000000  magneticMoment: [ Abs: 0.00000  Tot: +0.00000 ]
	SubspaceRotationAdjust: set factor to 0.437
ElecMinimize: Iter:   3  F: -3633.318108981995920  |grad|_K:  3.632e-07  alpha:  1.762e-01  linmin: -2.651e-07  t[s]:   4388.24
	FillingsUpdate:  mu: +0.097311144  nElectrons: 342.000000  magneticMoment: [ Abs: 0.00000  Tot: +0.00000 ]
	SubspaceRotationAdjust: set factor to 0.352
ElecMinimize: Iter:   4  F: -3633.318115344214220  |grad|_K:  3.288e-07  alpha:  1.373e-01  linmin:  2.300e-07  t[s]:   4446.68
	FillingsUpdate:  mu: +0.097379385  nElectrons: 342.000000  magneticMoment: [ Abs: 0.00000  Tot: +0.00000 ]
	SubspaceRotationAdjust: set factor to 0.274
ElecMinimize: Iter:   5  F: -3633.318119372612728  |grad|_K:  2.305e-07  alpha:  1.060e-01  linmin: -1.928e-07  t[s]:   4504.55
	FillingsUpdate:  mu: +0.097387976  nElectrons: 342.000000  magneticMoment: [ Abs: 0.00000  Tot: +0.00000 ]
	SubspaceRotationAdjust: set factor to 0.299
ElecMinimize: Iter:   6  F: -3633.318122679481348  |grad|_K:  2.295e-07  alpha:  1.771e-01  linmin: -3.082e-06  t[s]:   4562.67
	FillingsUpdate:  mu: +0.097368251  nElectrons: 342.000000  magneticMoment: [ Abs: 0.00000  Tot: +0.00000 ]
	SubspaceRotationAdjust: set factor to 0.316
ElecMinimize: Iter:   7  F: -3633.318126715287235  |grad|_K:  1.602e-07  alpha:  2.179e-01  linmin: -3.650e-07  t[s]:   4620.88
	FillingsUpdate:  mu: +0.097367873  nElectrons: 342.000000  magneticMoment: [ Abs: 0.00000  Tot: +0.00000 ]
	SubspaceRotationAdjust: set factor to 0.231
ElecMinimize: Iter:   8  F: -3633.318127611797991  |grad|_K:  9.718e-08  alpha:  9.939e-02  linmin:  9.827e-07  t[s]:   4679.02
	FillingsUpdate:  mu: +0.097379151  nElectrons: 342.000000  magneticMoment: [ Abs: 0.00000  Tot: +0.00000 ]
	SubspaceRotationAdjust: set factor to 0.23
ElecMinimize: Iter:   9  F: -3633.318128280855490  |grad|_K:  1.028e-07  alpha:  2.011e-01  linmin: -1.935e-05  t[s]:   4738.15
	FillingsUpdate:  mu: +0.097381266  nElectrons: 342.000000  magneticMoment: [ Abs: 0.00000  Tot: +0.00000 ]
	SubspaceRotationAdjust: set factor to 0.273
ElecMinimize: Iter:  10  F: -3633.318128929385693  |grad|_K:  5.818e-08  alpha:  1.742e-01  linmin:  4.672e-06  t[s]:   4796.78
	FillingsUpdate:  mu: +0.097367085  nElectrons: 342.000000  magneticMoment: [ Abs: 0.00000  Tot: +0.00000 ]
	SubspaceRotationAdjust: set factor to 0.236
ElecMinimize: Iter:  11  F: -3633.318129096898701  |grad|_K:  4.614e-08  alpha:  1.410e-01  linmin: -9.438e-06  t[s]:   4855.21
	FillingsUpdate:  mu: +0.097354929  nElectrons: 342.000000  magneticMoment: [ Abs: 0.00000  Tot: +0.00000 ]
	SubspaceRotationAdjust: set factor to 0.243
ElecMinimize: Iter:  12  F: -3633.318129225895973  |grad|_K:  3.658e-08  alpha:  1.718e-01  linmin: -2.442e-05  t[s]:   4913.57
	FillingsUpdate:  mu: +0.097361582  nElectrons: 342.000000  magneticMoment: [ Abs: 0.00000  Tot: +0.00000 ]
	SubspaceRotationAdjust: set factor to 0.266
ElecMinimize: Iter:  13  F: -3633.318129316004615  |grad|_K:  3.034e-08  alpha:  1.909e-01  linmin: -3.459e-05  t[s]:   4971.42
	FillingsUpdate:  mu: +0.097371957  nElectrons: 342.000000  magneticMoment: [ Abs: 0.00000  Tot: +0.00000 ]
	SubspaceRotationAdjust: set factor to 0.262
ElecMinimize: Iter:  14  F: -3633.318129370807583  |grad|_K:  2.074e-08  alpha:  1.679e-01  linmin: -4.133e-05  t[s]:   5029.57
ElecMinimize: Converged (|Delta F|<1.000000e-07 for 2 iters).
Setting wave functions to eigenvectors of Hamiltonian
Converging empty states (this may take a while): |deigs|: 2.831e-08

Computing DFT-D3 correction:
# coordination-number Cu 6.824 8.355 5.342 9.142 9.158 9.163 9.147 9.137 6.855 9.137 9.148 6.855 9.163 9.158 9.142 8.355 6.824 5.342
# diagonal-C6 Cu 175.00 175.00 175.00 175.00 175.00 175.00 175.00 175.00 175.00 175.00 175.00 175.00 175.00 175.00 175.00 175.00 175.00 175.00
EvdW_6 =   -0.104776
EvdW_8 =   -0.157411
IonicMinimize: 	Wolfe criterion not satisfied: alpha: 1  (E-E0)/|gdotd0|: -0.962081  gdotd/gdotd0: 0.93332 (taking cubic step)

Computing DFT-D3 correction:
# coordination-number Cu 6.812 8.352 5.365 9.128 9.161 9.172 9.137 9.126 6.849 9.126 9.138 6.849 9.172 9.161 9.128 8.351 6.812 5.366
# diagonal-C6 Cu 175.00 175.00 175.00 175.00 175.00 175.00 175.00 175.00 175.00 175.00 175.00 175.00 175.00 175.00 175.00 175.00 175.00 175.00
EvdW_6 =   -0.104775
EvdW_8 =   -0.157410

-------- Electronic minimization -----------
	FillingsUpdate:  mu: +0.097271872  nElectrons: 342.000000  magneticMoment: [ Abs: 0.00000  Tot: +0.00000 ]
ElecMinimize: Iter:   0  F: -3633.318237911735196  |grad|_K:  1.135e-06  alpha:  1.000e+00
	FillingsUpdate:  mu: +0.097288313  nElectrons: 342.000000  magneticMoment: [ Abs: 0.00000  Tot: +0.00000 ]
	SubspaceRotationAdjust: set factor to 0.264
ElecMinimize: Iter:   1  F: -3633.318294770319426  |grad|_K:  8.159e-07  alpha:  1.256e-01  linmin: -3.720e-06  t[s]:   5195.72
	FillingsUpdate:  mu: +0.097274095  nElectrons: 342.000000  magneticMoment: [ Abs: 0.00000  Tot: +0.00000 ]
	SubspaceRotationAdjust: set factor to 0.274
ElecMinimize: Iter:   2  F: -3633.318362340259227  |grad|_K:  7.338e-07  alpha:  2.889e-01  linmin: -6.744e-07  t[s]:   5253.99
	FillingsUpdate:  mu: +0.097272805  nElectrons: 342.000000  magneticMoment: [ Abs: 0.00000  Tot: +0.00000 ]
	SubspaceRotationAdjust: set factor to 0.294
ElecMinimize: Iter:   3  F: -3633.318392741750813  |grad|_K:  5.945e-07  alpha:  1.607e-01  linmin:  5.416e-08  t[s]:   5312.07
	FillingsUpdate:  mu: +0.097268361  nElectrons: 342.000000  magneticMoment: [ Abs: 0.00000  Tot: +0.00000 ]
	SubspaceRotationAdjust: set factor to 0.352
ElecMinimize: Iter:   4  F: -3633.318415639650539  |grad|_K:  4.309e-07  alpha:  1.844e-01  linmin: -4.100e-08  t[s]:   5370.83
	FillingsUpdate:  mu: +0.097326295  nElectrons: 342.000000  magneticMoment: [ Abs: 0.00000  Tot: +0.00000 ]
	SubspaceRotationAdjust: set factor to 0.363
ElecMinimize: Iter:   5  F: -3633.318439334426785  |grad|_K:  6.288e-07  alpha:  3.631e-01  linmin:  1.443e-07  t[s]:   5428.88
	FillingsUpdate:  mu: +0.097381035  nElectrons: 342.000000  magneticMoment: [ Abs: 0.00000  Tot: +0.00000 ]
	SubspaceRotationAdjust: set factor to 0.288
ElecMinimize: Iter:   6  F: -3633.318460333652183  |grad|_K:  3.615e-07  alpha:  1.512e-01  linmin:  1.464e-07  t[s]:   5487.18
	FillingsUpdate:  mu: +0.097336815  nElectrons: 342.000000  magneticMoment: [ Abs: 0.00000  Tot: +0.00000 ]
	SubspaceRotationAdjust: set factor to 0.223
ElecMinimize: Iter:   7  F: -3633.318465910516352  |grad|_K:  2.901e-07  alpha:  1.215e-01  linmin:  7.273e-08  t[s]:   5545.30
	FillingsUpdate:  mu: +0.097225281  nElectrons: 342.000000  magneticMoment: [ Abs: 0.00000  Tot: +0.00000 ]
	SubspaceRotationAdjust: set factor to 0.211
ElecMinimize: Iter:   8  F: -3633.318474827770842  |grad|_K:  2.915e-07  alpha:  3.016e-01  linmin:  1.540e-06  t[s]:   5603.46
	FillingsUpdate:  mu: +0.097223282  nElectrons: 342.000000  magneticMoment: [ Abs: 0.00000  Tot: +0.00000 ]
	SubspaceRotationAdjust: set factor to 0.231
ElecMinimize: Iter:   9  F: -3633.318478195867101  |grad|_K:  1.542e-07  alpha:  1.129e-01  linmin:  9.292e-08  t[s]:   5662.23
	FillingsUpdate:  mu: +0.097281793  nElectrons: 342.000000  magneticMoment: [ Abs: 0.00000  Tot: +0.00000 ]
	SubspaceRotationAdjust: set factor to 0.217
ElecMinimize: Iter:  10  F: -3633.318480087567423  |grad|_K:  1.376e-07  alpha:  2.265e-01  linmin:  1.152e-05  t[s]:   5720.35
	FillingsUpdate:  mu: +0.097306724  nElectrons: 342.000000  magneticMoment: [ Abs: 0.00000  Tot: +0.00000 ]
	SubspaceRotationAdjust: set factor to 0.208
ElecMinimize: Iter:  11  F: -3633.318481091883768  |grad|_K:  1.091e-07  alpha:  1.511e-01  linmin: -2.054e-06  t[s]:   5778.56
	FillingsUpdate:  mu: +0.097299999  nElectrons: 342.000000  magneticMoment: [ Abs: 0.00000  Tot: +0.00000 ]
	SubspaceRotationAdjust: set factor to 0.218
ElecMinimize: Iter:  12  F: -3633.318481888136375  |grad|_K:  8.247e-08  alpha:  1.905e-01  linmin: -8.161e-06  t[s]:   5836.74
	FillingsUpdate:  mu: +0.097289152  nElectrons: 342.000000  magneticMoment: [ Abs: 0.00000  Tot: +0.00000 ]
	SubspaceRotationAdjust: set factor to 0.21
ElecMinimize: Iter:  13  F: -3633.318482209450394  |grad|_K:  4.622e-08  alpha:  1.344e-01  linmin:  2.212e-05  t[s]:   5894.85
	FillingsUpdate:  mu: +0.097287249  nElectrons: 342.000000  magneticMoment: [ Abs: 0.00000  Tot: +0.00000 ]
	SubspaceRotationAdjust: set factor to 0.213
ElecMinimize: Iter:  14  F: -3633.318482383252558  |grad|_K:  4.515e-08  alpha:  2.314e-01  linmin:  5.094e-07  t[s]:   5952.98
	FillingsUpdate:  mu: +0.097289788  nElectrons: 342.000000  magneticMoment: [ Abs: 0.00000  Tot: +0.00000 ]
	SubspaceRotationAdjust: set factor to 0.22
ElecMinimize: Iter:  15  F: -3633.318482476945974  |grad|_K:  2.527e-08  alpha:  1.314e-01  linmin: -3.208e-05  t[s]:   6011.06
	FillingsUpdate:  mu: +0.097295336  nElectrons: 342.000000  magneticMoment: [ Abs: 0.00000  Tot: +0.00000 ]
	SubspaceRotationAdjust: set factor to 0.216
ElecMinimize: Iter:  16  F: -3633.318482524292449  |grad|_K:  2.481e-08  alpha:  2.128e-01  linmin:  3.422e-04  t[s]:   6069.05
ElecMinimize: Converged (|Delta F|<1.000000e-07 for 2 iters).
Setting wave functions to eigenvectors of Hamiltonian
Converging empty states (this may take a while): |deigs|: 8.604e-08

Computing DFT-D3 correction:
# coordination-number Cu 6.812 8.352 5.365 9.128 9.161 9.172 9.137 9.126 6.849 9.126 9.138 6.849 9.172 9.161 9.128 8.351 6.812 5.366
# diagonal-C6 Cu 175.00 175.00 175.00 175.00 175.00 175.00 175.00 175.00 175.00 175.00 175.00 175.00 175.00 175.00 175.00 175.00 175.00 175.00
EvdW_6 =   -0.104775
EvdW_8 =   -0.157410

# Ionic positions in cartesian coordinates:
ion Cu   0.000000332512135   6.352586616484057  58.989510191179207 1
ion Cu   0.000001456803002  12.720528789433198  56.755244786578501 1
ion Cu   4.766622933087080  -0.000772815787110  41.023775645517539 1
ion Cu   0.000004254396286   4.766509558880776  54.487031109446505 1
ion Cu  -0.000008352229790  11.122106988056297  52.240739488084216 1
ion Cu  -0.000000668878387   3.178128661199996  49.996824656863865 1
ion Cu   0.000001545303894   9.536144201268488  47.755549877213603 1
ion Cu   0.000004028717689   1.587401313241437  45.508152852979066 1
ion Cu  -0.000008131598913   7.948594066234535  43.245208675365411 1
ion Cu   2.383306614327626   8.740617131519887  55.607068890814354 1
ion Cu   2.383313699246669   0.791392718717808  53.360130622046100 1
ion Cu   2.383314338063245   2.378939967203183  57.869957126291098 1
ion Cu   2.383316647279405   7.149357396794362  51.118711487085513 1
ion Cu   2.383309483314767  13.505842461623597  48.874284130737053 1
ion Cu   2.383307428103868   5.560964078417237  46.628217487720555 1
ion Cu   2.383316378055594  11.906844822564198  44.360394315713499 1
ion Cu   2.383311347709085   3.975491887319341  42.125862824721658 1
ion Cu   2.383308665786744  10.328212156828705  60.091564831642202 1

# Forces in Cartesian coordinates:
force Cu   0.000000356786031  -0.000915641226560   0.001243816428588 1
force Cu   0.000000074087567   0.002816909689028   0.004412594740916 1
force Cu  -0.000000893526019  -0.000021923521382   0.004381706379414 1
force Cu   0.000001308349716  -0.000312214066392  -0.000446912565243 1
force Cu  -0.000001918824011   0.000117875346769  -0.000145992186430 1
force Cu   0.000000184723657   0.000137095479847   0.000107967729122 1
force Cu   0.000003037973478   0.000855487790023   0.001098663918817 1
force Cu   0.000001343768680  -0.000510762911372   0.001620679482535 1
force Cu  -0.000001522852017   0.000817743728583  -0.002716724995104 1
force Cu  -0.000000931848446   0.000604935628411  -0.001730255224780 1
force Cu   0.000001699146407  -0.000919970383428  -0.001119292690701 1
force Cu   0.000000745960726  -0.000828808155353   0.002634949377795 1
force Cu   0.000001828424541  -0.000163754740450  -0.000210897082995 1
force Cu  -0.000000006780083  -0.000012986622634  -0.000073926518112 1
force Cu  -0.000000565623108   0.000292473570528   0.000330699551427 1
force Cu   0.000002715313414  -0.002843974246094  -0.004358705083675 1
force Cu   0.000000399273694   0.001032188064617  -0.001282752200826 1
force Cu  -0.000001968231236  -0.000041077295219  -0.004429717108897 1

# Energy components:
   Eewald =    22119.0784364663377346
       EH =    25441.9884790023279493
     Eloc =   -51876.3928930692491122
      Enl =      659.2055055553694274
     EvdW =       -0.2621857504070358
      Exc =     -349.2884535607985299
 Exc_core =        0.8454418044652128
       KE =      371.5078064510950071
-------------------------------------
     Etot =    -3633.3178631008631783
       TS =        0.0006194234294667
-------------------------------------
        F =    -3633.3184825242924489


Dumping 'jdft.fillings' ... done
Dumping 'jdft.wfns' ... done
Dumping 'jdft.ionpos' ... done
Dumping 'jdft.lattice' ... done
Dumping 'jdft.eigenvals' ... done
Dumping 'jdft.eigStats' ... 
	eMin: -4.042800 at state 0 ( [ +0.000000 +0.000000 +0.000000 ] spin 1 )
	HOMO: +0.096181 at state 51 ( [ +0.000000 -0.250000 +0.000000 ] spin -1 )
	mu  : +0.097295
	LUMO: +0.097340 at state 2 ( [ +0.000000 +0.500000 +0.000000 ] spin 1 )
	eMax: +0.463638 at state 73 ( [ +0.500000 +0.250000 +0.000000 ] spin -1 )
	HOMO-LUMO gap: +0.001159
	Optical gap  : +0.001399 at state 51 ( [ +0.000000 -0.250000 +0.000000 ] spin -1 )
Dumping 'jdft.Ecomponents' ... done
IonicMinimize: Iter:   1  F: -3633.318482524292449  |grad|_K:  1.521e-03  alpha:  3.000e+00  linmin: -9.892e-01  t[s]:   6132.24

#--- Lowdin population analysis ---
# oxidation-state Cu +0.091 +0.026 +0.185 +0.063 +0.073 +0.075 +0.071 +0.059 +0.117 +0.059 +0.070 +0.116 +0.075 +0.073 +0.064 +0.027 +0.092 +0.184
# magnetic-moments Cu +0.000 +0.000 +0.000 +0.000 +0.000 +0.000 +0.000 +0.000 +0.000 +0.000 +0.000 +0.000 +0.000 +0.000 +0.000 +0.000 +0.000 +0.000


Computing DFT-D3 correction:
# coordination-number Cu 6.772 8.354 5.502 9.041 9.145 9.159 9.095 9.054 6.869 9.046 9.087 6.864 9.159 9.150 9.052 8.360 6.774 5.506
# diagonal-C6 Cu 175.00 175.00 175.00 175.00 175.00 175.00 175.00 175.00 175.00 175.00 175.00 175.00 175.00 175.00 175.00 175.00 175.00 175.00
EvdW_6 =   -0.104755
EvdW_8 =   -0.157420

-------- Electronic minimization -----------
	FillingsUpdate:  mu: +0.106926464  nElectrons: 342.000000  magneticMoment: [ Abs: 0.00000  Tot: +0.00000 ]
ElecMinimize: Iter:   0  F: -3632.196026549871021  |grad|_K:  9.954e-05  alpha:  1.000e+00
	FillingsUpdate:  mu: +0.136490758  nElectrons: 342.000000  magneticMoment: [ Abs: 0.00000  Tot: +0.00000 ]
	SubspaceRotationAdjust: set factor to 0.218
ElecMinimize: Iter:   1  F: -3632.675645967239689  |grad|_K:  9.522e-05  alpha:  1.700e-01  linmin:  4.454e-03  t[s]:   6237.30
	FillingsUpdate:  mu: +0.067730585  nElectrons: 342.000000  magneticMoment: [ Abs: 0.00000  Tot: +0.00000 ]
	SubspaceRotationAdjust: set factor to 0.225
ElecMinimize: Iter:   2  F: -3633.149265515851312  |grad|_K:  4.150e-05  alpha:  1.806e-01  linmin:  1.998e-04  t[s]:   6295.75
	FillingsUpdate:  mu: +0.080735449  nElectrons: 342.000000  magneticMoment: [ Abs: 0.00000  Tot: +0.00000 ]
	SubspaceRotationAdjust: set factor to 0.261
ElecMinimize: Iter:   3  F: -3633.209162683031082  |grad|_K:  2.309e-05  alpha:  9.958e-02  linmin:  5.031e-06  t[s]:   6353.80
	FillingsUpdate:  mu: +0.107889268  nElectrons: 342.000000  magneticMoment: [ Abs: 0.00000  Tot: +0.00000 ]
	SubspaceRotationAdjust: set factor to 0.296
ElecMinimize: Iter:   4  F: -3633.246375564632217  |grad|_K:  1.757e-05  alpha:  1.986e-01  linmin: -8.718e-06  t[s]:   6411.82
	FillingsUpdate:  mu: +0.109459579  nElectrons: 342.000000  magneticMoment: [ Abs: 0.00000  Tot: +0.00000 ]
	SubspaceRotationAdjust: set factor to 0.375
ElecMinimize: Iter:   5  F: -3633.261107079479643  |grad|_K:  1.380e-05  alpha:  1.355e-01  linmin:  5.777e-07  t[s]:   6470.07
	FillingsUpdate:  mu: +0.097248824  nElectrons: 342.000000  magneticMoment: [ Abs: 0.00000  Tot: +0.00000 ]
	SubspaceRotationAdjust: set factor to 0.489
ElecMinimize: Iter:   6  F: -3633.274622218752484  |grad|_K:  1.166e-05  alpha:  2.016e-01  linmin: -1.563e-05  t[s]:   6528.46
	FillingsUpdate:  mu: +0.093201640  nElectrons: 342.000000  magneticMoment: [ Abs: 0.00000  Tot: +0.00000 ]
	SubspaceRotationAdjust: set factor to 0.587
ElecMinimize: Iter:   7  F: -3633.283470309735094  |grad|_K:  1.356e-05  alpha:  1.847e-01  linmin: -1.024e-05  t[s]:   6587.47
	FillingsUpdate:  mu: +0.100083850  nElectrons: 342.000000  magneticMoment: [ Abs: 0.00000  Tot: +0.00000 ]
	SubspaceRotationAdjust: set factor to 0.611
ElecMinimize: Iter:   8  F: -3633.300599039363078  |grad|_K:  1.572e-05  alpha:  2.675e-01  linmin:  3.714e-05  t[s]:   6645.52
	FillingsUpdate:  mu: +0.099138899  nElectrons: 342.000000  magneticMoment: [ Abs: 0.00000  Tot: +0.00000 ]
	SubspaceRotationAdjust: set factor to 0.682
ElecMinimize: Iter:   9  F: -3633.309956624114875  |grad|_K:  1.025e-05  alpha:  1.074e-01  linmin: -5.424e-05  t[s]:   6703.48
	FillingsUpdate:  mu: +0.094374749  nElectrons: 342.000000  magneticMoment: [ Abs: 0.00000  Tot: +0.00000 ]
	SubspaceRotationAdjust: set factor to 0.611
ElecMinimize: Iter:  10  F: -3633.313588138176783  |grad|_K:  8.918e-06  alpha:  9.489e-02  linmin: -5.259e-06  t[s]:   6761.49
	FillingsUpdate:  mu: +0.093545596  nElectrons: 342.000000  magneticMoment: [ Abs: 0.00000  Tot: +0.00000 ]
	SubspaceRotationAdjust: set factor to 0.445
ElecMinimize: Iter:  11  F: -3633.316001779174258  |grad|_K:  7.780e-06  alpha:  8.609e-02  linmin: -1.006e-06  t[s]:   6819.60
	FillingsUpdate:  mu: +0.095712930  nElectrons: 342.000000  magneticMoment: [ Abs: 0.00000  Tot: +0.00000 ]
	SubspaceRotationAdjust: set factor to 0.409
ElecMinimize: Iter:  12  F: -3633.317547975412708  |grad|_K:  3.857e-06  alpha:  7.261e-02  linmin:  3.211e-06  t[s]:   6878.54
	FillingsUpdate:  mu: +0.097158883  nElectrons: 342.000000  magneticMoment: [ Abs: 0.00000  Tot: +0.00000 ]
	SubspaceRotationAdjust: set factor to 0.442
ElecMinimize: Iter:  13  F: -3633.318145073019878  |grad|_K:  3.236e-06  alpha:  1.144e-01  linmin:  3.554e-06  t[s]:   6936.51
	FillingsUpdate:  mu: +0.098440963  nElectrons: 342.000000  magneticMoment: [ Abs: 0.00000  Tot: +0.00000 ]
	SubspaceRotationAdjust: set factor to 0.437
ElecMinimize: Iter:  14  F: -3633.318616552298408  |grad|_K:  2.838e-06  alpha:  1.283e-01  linmin: -1.287e-06  t[s]:   6994.55
	FillingsUpdate:  mu: +0.098030738  nElectrons: 342.000000  magneticMoment: [ Abs: 0.00000  Tot: +0.00000 ]
	SubspaceRotationAdjust: set factor to 0.47
ElecMinimize: Iter:  15  F: -3633.318883492167970  |grad|_K:  2.040e-06  alpha:  9.434e-02  linmin: -7.656e-07  t[s]:   7052.90
	FillingsUpdate:  mu: +0.095945669  nElectrons: 342.000000  magneticMoment: [ Abs: 0.00000  Tot: +0.00000 ]
	SubspaceRotationAdjust: set factor to 0.545
ElecMinimize: Iter:  16  F: -3633.319083492718164  |grad|_K:  1.832e-06  alpha:  1.367e-01  linmin: -9.577e-07  t[s]:   7110.91
	FillingsUpdate:  mu: +0.094875685  nElectrons: 342.000000  magneticMoment: [ Abs: 0.00000  Tot: +0.00000 ]
	SubspaceRotationAdjust: set factor to 0.544
ElecMinimize: Iter:  17  F: -3633.319238320753811  |grad|_K:  1.767e-06  alpha:  1.312e-01  linmin: -3.155e-07  t[s]:   7170.07
	FillingsUpdate:  mu: +0.096297871  nElectrons: 342.000000  magneticMoment: [ Abs: 0.00000  Tot: +0.00000 ]
	SubspaceRotationAdjust: set factor to 0.553
ElecMinimize: Iter:  18  F: -3633.319337909009391  |grad|_K:  1.498e-06  alpha:  9.075e-02  linmin: -4.927e-08  t[s]:   7228.27
	FillingsUpdate:  mu: +0.098445098  nElectrons: 342.000000  magneticMoment: [ Abs: 0.00000  Tot: +0.00000 ]
	SubspaceRotationAdjust: set factor to 0.54
ElecMinimize: Iter:  19  F: -3633.319422952034074  |grad|_K:  1.324e-06  alpha:  1.078e-01  linmin: -7.745e-08  t[s]:   7286.46
	FillingsUpdate:  mu: +0.098374584  nElectrons: 342.000000  magneticMoment: [ Abs: 0.00000  Tot: +0.00000 ]
	SubspaceRotationAdjust: set factor to 0.752
ElecMinimize: Iter:  20  F: -3633.319513781656042  |grad|_K:  1.163e-06  alpha:  1.474e-01  linmin: -4.532e-07  t[s]:   7344.48
	FillingsUpdate:  mu: +0.096636555  nElectrons: 342.000000  magneticMoment: [ Abs: 0.00000  Tot: +0.00000 ]
	SubspaceRotationAdjust: set factor to 0.69
ElecMinimize: Iter:  21  F: -3633.319563935952374  |grad|_K:  1.033e-06  alpha:  1.056e-01  linmin: -3.599e-07  t[s]:   7402.58
	FillingsUpdate:  mu: +0.096013496  nElectrons: 342.000000  magneticMoment: [ Abs: 0.00000  Tot: +0.00000 ]
	SubspaceRotationAdjust: set factor to 0.564
ElecMinimize: Iter:  22  F: -3633.319592770977124  |grad|_K:  1.026e-06  alpha:  7.692e-02  linmin: -2.044e-07  t[s]:   7461.26
	FillingsUpdate:  mu: +0.096437589  nElectrons: 342.000000  magneticMoment: [ Abs: 0.00000  Tot: +0.00000 ]
	SubspaceRotationAdjust: set factor to 0.592
ElecMinimize: Iter:  23  F: -3633.319623955645511  |grad|_K:  6.790e-07  alpha:  8.423e-02  linmin: -3.448e-07  t[s]:   7519.50
	FillingsUpdate:  mu: +0.097173667  nElectrons: 342.000000  magneticMoment: [ Abs: 0.00000  Tot: +0.00000 ]
	SubspaceRotationAdjust: set factor to 0.591
ElecMinimize: Iter:  24  F: -3633.319641648402921  |grad|_K:  4.849e-07  alpha:  1.092e-01  linmin:  8.287e-07  t[s]:   7577.56
	FillingsUpdate:  mu: +0.097147556  nElectrons: 342.000000  magneticMoment: [ Abs: 0.00000  Tot: +0.00000 ]
	SubspaceRotationAdjust: set factor to 0.524
ElecMinimize: Iter:  25  F: -3633.319650359081152  |grad|_K:  5.324e-07  alpha:  1.055e-01  linmin:  4.781e-08  t[s]:   7635.61
	FillingsUpdate:  mu: +0.096905157  nElectrons: 342.000000  magneticMoment: [ Abs: 0.00000  Tot: -0.00000 ]
	SubspaceRotationAdjust: set factor to 0.426
ElecMinimize: Iter:  26  F: -3633.319659555636008  |grad|_K:  4.453e-07  alpha:  9.233e-02  linmin: -1.366e-07  t[s]:   7693.64
	FillingsUpdate:  mu: +0.096835732  nElectrons: 342.000000  magneticMoment: [ Abs: 0.00000  Tot: -0.00000 ]
	SubspaceRotationAdjust: set factor to 0.515
ElecMinimize: Iter:  27  F: -3633.319667054456659  |grad|_K:  2.887e-07  alpha:  1.076e-01  linmin:  3.692e-07  t[s]:   7751.86
	FillingsUpdate:  mu: +0.096888069  nElectrons: 342.000000  magneticMoment: [ Abs: 0.00000  Tot: -0.00000 ]
	SubspaceRotationAdjust: set factor to 0.471
ElecMinimize: Iter:  28  F: -3633.319669999013058  |grad|_K:  2.614e-07  alpha:  1.006e-01  linmin:  3.513e-07  t[s]:   7809.95
	FillingsUpdate:  mu: +0.096953536  nElectrons: 342.000000  magneticMoment: [ Abs: 0.00000  Tot: -0.00000 ]
	SubspaceRotationAdjust: set factor to 0.436
ElecMinimize: Iter:  29  F: -3633.319672507042469  |grad|_K:  2.246e-07  alpha:  1.045e-01  linmin: -1.060e-08  t[s]:   7867.97
	FillingsUpdate:  mu: +0.096995779  nElectrons: 342.000000  magneticMoment: [ Abs: 0.00000  Tot: -0.00000 ]
	SubspaceRotationAdjust: set factor to 0.545
ElecMinimize: Iter:  30  F: -3633.319674632133228  |grad|_K:  1.626e-07  alpha:  1.199e-01  linmin: -1.508e-06  t[s]:   7926.11
	FillingsUpdate:  mu: +0.096993444  nElectrons: 342.000000  magneticMoment: [ Abs: 0.00000  Tot: -0.00000 ]
	SubspaceRotationAdjust: set factor to 0.575
ElecMinimize: Iter:  31  F: -3633.319675787851338  |grad|_K:  1.655e-07  alpha:  1.245e-01  linmin: -1.695e-06  t[s]:   7984.29
	FillingsUpdate:  mu: +0.096930814  nElectrons: 342.000000  magneticMoment: [ Abs: 0.00000  Tot: -0.00000 ]
	SubspaceRotationAdjust: set factor to 0.517
ElecMinimize: Iter:  32  F: -3633.319676745584275  |grad|_K:  1.523e-07  alpha:  9.948e-02  linmin:  1.022e-06  t[s]:   8042.98
	FillingsUpdate:  mu: +0.096869801  nElectrons: 342.000000  magneticMoment: [ Abs: 0.00000  Tot: -0.00000 ]
	SubspaceRotationAdjust: set factor to 0.556
ElecMinimize: Iter:  33  F: -3633.319677615190358  |grad|_K:  1.213e-07  alpha:  1.067e-01  linmin: -3.732e-07  t[s]:   8100.96
	FillingsUpdate:  mu: +0.096935786  nElectrons: 342.000000  magneticMoment: [ Abs: 0.00000  Tot: -0.00000 ]
	SubspaceRotationAdjust: set factor to 0.614
ElecMinimize: Iter:  34  F: -3633.319678406222465  |grad|_K:  1.130e-07  alpha:  1.532e-01  linmin:  3.148e-07  t[s]:   8158.86
	FillingsUpdate:  mu: +0.096996167  nElectrons: 342.000000  magneticMoment: [ Abs: 0.00000  Tot: -0.00000 ]
	SubspaceRotationAdjust: set factor to 0.61
ElecMinimize: Iter:  35  F: -3633.319678920942806  |grad|_K:  9.341e-08  alpha:  1.148e-01  linmin:  2.375e-07  t[s]:   8217.18
	FillingsUpdate:  mu: +0.096961964  nElectrons: 342.000000  magneticMoment: [ Abs: 0.00000  Tot: -0.00000 ]
	SubspaceRotationAdjust: set factor to 0.492
ElecMinimize: Iter:  36  F: -3633.319679150868978  |grad|_K:  7.690e-08  alpha:  7.496e-02  linmin: -1.867e-06  t[s]:   8275.55
	FillingsUpdate:  mu: +0.096888245  nElectrons: 342.000000  magneticMoment: [ Abs: 0.00000  Tot: -0.00000 ]
	SubspaceRotationAdjust: set factor to 0.419
ElecMinimize: Iter:  37  F: -3633.319679367144090  |grad|_K:  6.687e-08  alpha:  1.038e-01  linmin: -4.121e-06  t[s]:   8333.66
	FillingsUpdate:  mu: +0.096882297  nElectrons: 342.000000  magneticMoment: [ Abs: 0.00000  Tot: -0.00000 ]
	SubspaceRotationAdjust: set factor to 0.523
ElecMinimize: Iter:  38  F: -3633.319679586848906  |grad|_K:  5.451e-08  alpha:  1.394e-01  linmin: -2.069e-06  t[s]:   8392.89
	FillingsUpdate:  mu: +0.096941033  nElectrons: 342.000000  magneticMoment: [ Abs: 0.00000  Tot: -0.00000 ]
	SubspaceRotationAdjust: set factor to 0.483
ElecMinimize: Iter:  39  F: -3633.319679702118719  |grad|_K:  4.431e-08  alpha:  1.101e-01  linmin:  9.622e-07  t[s]:   8450.80
	FillingsUpdate:  mu: +0.096976036  nElectrons: 342.000000  magneticMoment: [ Abs: 0.00000  Tot: -0.00000 ]
	SubspaceRotationAdjust: set factor to 0.404
ElecMinimize: Iter:  40  F: -3633.319679768098922  |grad|_K:  3.792e-08  alpha:  9.589e-02  linmin: -1.907e-05  t[s]:   8508.94
	FillingsUpdate:  mu: +0.096966005  nElectrons: 342.000000  magneticMoment: [ Abs: 0.00000  Tot: -0.00000 ]
	SubspaceRotationAdjust: set factor to 0.454
ElecMinimize: Iter:  41  F: -3633.319679831173744  |grad|_K:  3.061e-08  alpha:  1.258e-01  linmin:  6.852e-05  t[s]:   8566.97
ElecMinimize: Converged (|Delta F|<1.000000e-07 for 2 iters).
Setting wave functions to eigenvectors of Hamiltonian
Converging empty states (this may take a while): |deigs|: 2.365e-06

Computing DFT-D3 correction:
# coordination-number Cu 6.772 8.354 5.502 9.041 9.145 9.159 9.095 9.054 6.869 9.046 9.087 6.864 9.159 9.150 9.052 8.360 6.774 5.506
# diagonal-C6 Cu 175.00 175.00 175.00 175.00 175.00 175.00 175.00 175.00 175.00 175.00 175.00 175.00 175.00 175.00 175.00 175.00 175.00 175.00
EvdW_6 =   -0.104755
EvdW_8 =   -0.157420

# Ionic positions in cartesian coordinates:
ion Cu  -0.000000788859003   6.332521049132998  59.006094845338239 1
ion Cu  -0.000020768060076  12.776774805616867  56.820426107286117 1
ion Cu   4.766568316100089   0.003708877225162  41.105585170241405 1
ion Cu   0.000017014568874   4.752955875129028  54.490073715442136 1
ion Cu  -0.000047819146597  11.127295942264618  52.252072034905893 1
ion Cu  -0.000002132995195   3.181221354070977  49.996706761408625 1
ion Cu   0.000112498545207   9.553056702986062  47.757661741878721 1
ion Cu   0.000020061965377   1.574992558489045  45.536736368772566 1
ion Cu  -0.000031354667411   7.953991297497491  43.196148192265824 1
ion Cu   2.383282296664217   8.754248444260622  55.578084116654914 1
ion Cu   2.383355639527421   0.772221124938803  53.358231577759383 1
ion Cu   2.383308499443130   2.373709736193818  57.920286558430298 1
ion Cu   2.383342561245696   7.145986911332503  51.116403932098279 1
ion Cu   2.383305659533654  13.501907508733234  48.859037161664773 1
ion Cu   2.383293612055724   5.574637087649299  46.624282177195845 1
ion Cu   2.383384336227241  11.850165108144155  44.298645315489608 1
ion Cu   2.383312032164047   3.997344893922783  42.110499780026025 1
ion Cu   2.383222335687604  10.322150722412530  60.011253443141307 1

# Forces in Cartesian coordinates:
force Cu  -0.000000743088176   0.000054514499236  -0.000438843727758 1
force Cu  -0.000000324004714   0.000824551261579  -0.000301650829899 1
force Cu   0.000000561781761   0.000877769410610   0.001201688805020 1
force Cu   0.000001472567302  -0.000377058222914   0.000259706373757 1
force Cu   0.000000932972436   0.000340639769596  -0.000720751884242 1
force Cu   0.000000783937173  -0.000351904976056   0.000358950587802 1
force Cu  -0.000000725887878  -0.000333870596636   0.000183879593021 1
force Cu   0.000001932364603   0.000241005237069  -0.000124243153220 1
force Cu   0.000000810233905  -0.000752884379979  -0.001454629615118 1
force Cu  -0.000000847386151  -0.000166455287350   0.000068332861508 1
force Cu   0.000000494760407   0.000385633180199  -0.000084696951971 1
force Cu   0.000002813196464   0.000826310127790   0.001444219720071 1
force Cu   0.000000705071165   0.000295309031559  -0.000054954244146 1
force Cu   0.000000470371412  -0.000338774192823   0.000832168424810 1
force Cu   0.000001404207934   0.000358384457422  -0.000231182208504 1
force Cu  -0.000003307670453  -0.000661174759560   0.000123404923005 1
force Cu   0.000000854819309  -0.000138094195126   0.000348565963229 1
force Cu  -0.000002339084843  -0.000880858001556  -0.001113724028300 1

# Energy components:
   Eewald =    22111.4590146744303638
       EH =    25434.2799496695479320
     Eloc =   -51861.0558776491670869
      Enl =      659.2009865324234852
     EvdW =       -0.2621749411387204
      Exc =     -349.2869331996148503
 Exc_core =        0.8454460462455923
       KE =      371.5005233626307017
-------------------------------------
     Etot =    -3633.3190655046387292
       TS =        0.0006143265348579
-------------------------------------
        F =    -3633.3196798311737439


Dumping 'jdft.fillings' ... done
Dumping 'jdft.wfns' ... done
Dumping 'jdft.ionpos' ... done
Dumping 'jdft.lattice' ... done
Dumping 'jdft.eigenvals' ... done
Dumping 'jdft.eigStats' ... 
	eMin: -4.042921 at state 0 ( [ +0.000000 +0.000000 +0.000000 ] spin 1 )
	HOMO: +0.096799 at state 3 ( [ +0.000000 -0.250000 +0.000000 ] spin 1 )
	mu  : +0.096966
	LUMO: +0.097106 at state 61 ( [ +0.250000 +0.250000 +0.000000 ] spin -1 )
	eMax: +0.463721 at state 73 ( [ +0.500000 +0.250000 +0.000000 ] spin -1 )
	HOMO-LUMO gap: +0.000308
	Optical gap  : +0.004684 at state 2 ( [ +0.000000 +0.500000 +0.000000 ] spin 1 )
Dumping 'jdft.Ecomponents' ... done
IonicMinimize: Iter:   2  F: -3633.319679831173744  |grad|_K:  5.059e-04  alpha:  1.000e+00  linmin: -4.738e-01  t[s]:   8686.86

#--- Lowdin population analysis ---
# oxidation-state Cu +0.094 +0.024 +0.180 +0.066 +0.072 +0.075 +0.072 +0.061 +0.113 +0.061 +0.072 +0.114 +0.075 +0.072 +0.066 +0.024 +0.094 +0.180
# magnetic-moments Cu -0.000 +0.000 +0.000 -0.000 +0.000 +0.000 -0.000 +0.000 +0.000 -0.000 -0.000 -0.000 +0.000 -0.000 -0.000 +0.000 -0.000 -0.000


Computing DFT-D3 correction:
# coordination-number Cu 6.839 8.314 5.565 9.025 9.158 9.143 9.096 9.024 6.847 9.017 9.101 6.849 9.145 9.158 9.023 8.316 6.839 5.560
# diagonal-C6 Cu 175.00 175.00 175.00 175.00 175.00 175.00 175.00 175.00 175.00 175.00 175.00 175.00 175.00 175.00 175.00 175.00 175.00 175.00
EvdW_6 =   -0.104765
EvdW_8 =   -0.157462

-------- Electronic minimization -----------
	FillingsUpdate:  mu: +0.088293252  nElectrons: 342.000000  magneticMoment: [ Abs: 0.00000  Tot: -0.00000 ]
ElecMinimize: Iter:   0  F: -3633.067096666739417  |grad|_K:  4.516e-05  alpha:  1.000e+00
	FillingsUpdate:  mu: +0.092110973  nElectrons: 342.000000  magneticMoment: [ Abs: 0.00000  Tot: -0.00000 ]
	SubspaceRotationAdjust: set factor to 0.465
ElecMinimize: Iter:   1  F: -3633.187429040562165  |grad|_K:  4.108e-05  alpha:  1.760e-01  linmin:  5.237e-04  t[s]:   8791.27
	FillingsUpdate:  mu: +0.098379213  nElectrons: 342.000000  magneticMoment: [ Abs: 0.00000  Tot: -0.00000 ]
	SubspaceRotationAdjust: set factor to 0.443
ElecMinimize: Iter:   2  F: -3633.289827636876453  |grad|_K:  1.639e-05  alpha:  1.803e-01  linmin:  5.252e-05  t[s]:   8849.14
	FillingsUpdate:  mu: +0.100610562  nElectrons: 342.000000  magneticMoment: [ Abs: 0.00000  Tot: -0.00000 ]
	SubspaceRotationAdjust: set factor to 0.367
ElecMinimize: Iter:   3  F: -3633.298806035002599  |grad|_K:  1.284e-05  alpha:  9.565e-02  linmin:  1.269e-05  t[s]:   8907.38
	FillingsUpdate:  mu: +0.100894887  nElectrons: 342.000000  magneticMoment: [ Abs: 0.00000  Tot: -0.00000 ]
	SubspaceRotationAdjust: set factor to 0.285
ElecMinimize: Iter:   4  F: -3633.306338720815347  |grad|_K:  1.089e-05  alpha:  1.302e-01  linmin: -4.407e-06  t[s]:   8966.44
	FillingsUpdate:  mu: +0.100174324  nElectrons: 342.000000  magneticMoment: [ Abs: 0.00000  Tot: -0.00000 ]
	SubspaceRotationAdjust: set factor to 0.39
ElecMinimize: Iter:   5  F: -3633.311466613900848  |grad|_K:  6.149e-06  alpha:  1.229e-01  linmin:  8.011e-06  t[s]:   9024.70
	FillingsUpdate:  mu: +0.097956845  nElectrons: 342.000000  magneticMoment: [ Abs: 0.00000  Tot: -0.00000 ]
	SubspaceRotationAdjust: set factor to 0.308
ElecMinimize: Iter:   6  F: -3633.313784505643980  |grad|_K:  5.553e-06  alpha:  1.747e-01  linmin: -4.884e-06  t[s]:   9082.79
	FillingsUpdate:  mu: +0.097296440  nElectrons: 342.000000  magneticMoment: [ Abs: 0.00000  Tot: -0.00000 ]
	SubspaceRotationAdjust: set factor to 0.258
ElecMinimize: Iter:   7  F: -3633.314929914331969  |grad|_K:  4.271e-06  alpha:  1.056e-01  linmin: -7.762e-09  t[s]:   9140.98
	FillingsUpdate:  mu: +0.097138370  nElectrons: 342.000000  magneticMoment: [ Abs: 0.00000  Tot: -0.00000 ]
	SubspaceRotationAdjust: set factor to 0.3
ElecMinimize: Iter:   8  F: -3633.316374150457250  |grad|_K:  5.082e-06  alpha:  2.259e-01  linmin:  6.073e-06  t[s]:   9199.32
	FillingsUpdate:  mu: +0.096649131  nElectrons: 342.000000  magneticMoment: [ Abs: 0.00000  Tot: -0.00000 ]
	SubspaceRotationAdjust: set factor to 0.295
ElecMinimize: Iter:   9  F: -3633.318055781200201  |grad|_K:  3.983e-06  alpha:  1.862e-01  linmin: -8.876e-07  t[s]:   9257.57
	FillingsUpdate:  mu: +0.096749131  nElectrons: 342.000000  magneticMoment: [ Abs: 0.00000  Tot: -0.00000 ]
	SubspaceRotationAdjust: set factor to 0.251
ElecMinimize: Iter:  10  F: -3633.318658432325265  |grad|_K:  2.840e-06  alpha:  1.081e-01  linmin:  5.950e-09  t[s]:   9315.82
	FillingsUpdate:  mu: +0.096430595  nElectrons: 342.000000  magneticMoment: [ Abs: 0.00000  Tot: -0.00000 ]
	SubspaceRotationAdjust: set factor to 0.289
ElecMinimize: Iter:  11  F: -3633.319283839897707  |grad|_K:  2.552e-06  alpha:  2.209e-01  linmin:  3.721e-06  t[s]:   9373.77
	FillingsUpdate:  mu: +0.096063945  nElectrons: 342.000000  magneticMoment: [ Abs: 0.00000  Tot: -0.00000 ]
	SubspaceRotationAdjust: set factor to 0.281
ElecMinimize: Iter:  12  F: -3633.319528921540041  |grad|_K:  1.345e-06  alpha:  1.074e-01  linmin:  8.776e-07  t[s]:   9431.71
	FillingsUpdate:  mu: +0.096337276  nElectrons: 342.000000  magneticMoment: [ Abs: 0.00000  Tot: -0.00000 ]
	SubspaceRotationAdjust: set factor to 0.292
ElecMinimize: Iter:  13  F: -3633.319625197411369  |grad|_K:  1.183e-06  alpha:  1.515e-01  linmin: -3.640e-07  t[s]:   9489.74
	FillingsUpdate:  mu: +0.096773596  nElectrons: 342.000000  magneticMoment: [ Abs: 0.00000  Tot: -0.00000 ]
	SubspaceRotationAdjust: set factor to 0.315
ElecMinimize: Iter:  14  F: -3633.319702123644220  |grad|_K:  7.806e-07  alpha:  1.565e-01  linmin:  6.196e-07  t[s]:   9548.37
[...]
# oxidation-state Cu +0.092 +0.025 +0.179 +0.067 +0.072 +0.075 +0.072 +0.062 +0.114 +0.062 +0.071 +0.114 +0.075 +0.072 +0.067 +0.026 +0.092 +0.179
# magnetic-moments Cu -0.000 +0.000 -0.000 +0.000 +0.000 -0.000 -0.000 +0.000 +0.000 -0.000 -0.000 -0.000 +0.000 -0.000 -0.000 +0.000 -0.000 -0.000


Computing DFT-D3 correction:
# coordination-number Cu 6.827 8.331 5.547 9.027 9.151 9.153 9.094 9.034 6.841 9.030 9.092 6.841 9.152 9.155 9.031 8.333 6.823 5.549
# diagonal-C6 Cu 175.00 175.00 175.00 175.00 175.00 175.00 175.00 175.00 175.00 175.00 175.00 175.00 175.00 175.00 175.00 175.00 175.00 175.00
EvdW_6 =   -0.104771
EvdW_8 =   -0.157507

-------- Electronic minimization -----------
	FillingsUpdate:  mu: +0.096319020  nElectrons: 342.000000  magneticMoment: [ Abs: 0.00000  Tot: -0.00000 ]
ElecMinimize: Iter:   0  F: -3633.319578369036662  |grad|_K:  1.136e-06  alpha:  1.000e+00
	FillingsUpdate:  mu: +0.096794564  nElectrons: 342.000000  magneticMoment: [ Abs: 0.00000  Tot: -0.00000 ]
	SubspaceRotationAdjust: set factor to 0.393
ElecMinimize: Iter:   1  F: -3633.319637446486013  |grad|_K:  9.612e-07  alpha:  1.304e-01  linmin: -4.558e-07  t[s]:  10568.70
	FillingsUpdate:  mu: +0.097161174  nElectrons: 342.000000  magneticMoment: [ Abs: 0.00000  Tot: -0.00000 ]
	SubspaceRotationAdjust: set factor to 0.309
ElecMinimize: Iter:   2  F: -3633.319692596879577  |grad|_K:  1.063e-06  alpha:  1.699e-01  linmin:  7.040e-07  t[s]:  10626.74
	FillingsUpdate:  mu: +0.097105116  nElectrons: 342.000000  magneticMoment: [ Abs: 0.00000  Tot: -0.00000 ]
	SubspaceRotationAdjust: set factor to 0.309
ElecMinimize: Iter:   3  F: -3633.319742474692703  |grad|_K:  6.337e-07  alpha:  1.257e-01  linmin:  1.557e-07  t[s]:  10684.78
	FillingsUpdate:  mu: +0.096734810  nElectrons: 342.000000  magneticMoment: [ Abs: 0.00000  Tot: -0.00000 ]
	SubspaceRotationAdjust: set factor to 0.395
ElecMinimize: Iter:   4  F: -3633.319773349031948  |grad|_K:  4.603e-07  alpha:  2.188e-01  linmin:  1.818e-07  t[s]:  10744.22
	FillingsUpdate:  mu: +0.096663801  nElectrons: 342.000000  magneticMoment: [ Abs: 0.00000  Tot: -0.00000 ]
	SubspaceRotationAdjust: set factor to 0.385
ElecMinimize: Iter:   5  F: -3633.319787170667496  |grad|_K:  5.270e-07  alpha:  1.857e-01  linmin:  3.374e-07  t[s]:  10802.61
	FillingsUpdate:  mu: +0.096895690  nElectrons: 342.000000  magneticMoment: [ Abs: 0.00000  Tot: -0.00000 ]
	SubspaceRotationAdjust: set factor to 0.296
ElecMinimize: Iter:   6  F: -3633.319806132682515  |grad|_K:  5.403e-07  alpha:  1.944e-01  linmin:  1.993e-07  t[s]:  10860.78
	FillingsUpdate:  mu: +0.096965809  nElectrons: 342.000000  magneticMoment: [ Abs: 0.00000  Tot: +0.00000 ]
	SubspaceRotationAdjust: set factor to 0.251
ElecMinimize: Iter:   7  F: -3633.319816343227558  |grad|_K:  2.342e-07  alpha:  9.954e-02  linmin: -1.263e-07  t[s]:  10918.79
	FillingsUpdate:  mu: +0.096802958  nElectrons: 342.000000  magneticMoment: [ Abs: 0.00000  Tot: +0.00000 ]
	SubspaceRotationAdjust: set factor to 0.265
ElecMinimize: Iter:   8  F: -3633.319819652867864  |grad|_K:  2.254e-07  alpha:  1.719e-01  linmin:  4.377e-06  t[s]:  10976.97
	FillingsUpdate:  mu: +0.096697128  nElectrons: 342.000000  magneticMoment: [ Abs: 0.00000  Tot: +0.00000 ]
	SubspaceRotationAdjust: set factor to 0.282
ElecMinimize: Iter:   9  F: -3633.319823369299684  |grad|_K:  1.702e-07  alpha:  2.082e-01  linmin: -4.638e-07  t[s]:  11034.92
	FillingsUpdate:  mu: +0.096819452  nElectrons: 342.000000  magneticMoment: [ Abs: 0.00000  Tot: +0.00000 ]
	SubspaceRotationAdjust: set factor to 0.269
ElecMinimize: Iter:  10  F: -3633.319824785688525  |grad|_K:  1.276e-07  alpha:  1.392e-01  linmin: -7.172e-07  t[s]:  11094.02
	FillingsUpdate:  mu: +0.096950250  nElectrons: 342.000000  magneticMoment: [ Abs: 0.00000  Tot: +0.00000 ]
	SubspaceRotationAdjust: set factor to 0.259
ElecMinimize: Iter:  11  F: -3633.319825643618515  |grad|_K:  7.938e-08  alpha:  1.500e-01  linmin: -5.663e-06  t[s]:  11152.13
	FillingsUpdate:  mu: +0.096935874  nElectrons: 342.000000  magneticMoment: [ Abs: 0.00000  Tot: +0.00000 ]
	SubspaceRotationAdjust: set factor to 0.28
ElecMinimize: Iter:  12  F: -3633.319826155716783  |grad|_K:  8.059e-08  alpha:  2.313e-01  linmin:  9.696e-06  t[s]:  11210.30
	FillingsUpdate:  mu: +0.096877577  nElectrons: 342.000000  magneticMoment: [ Abs: 0.00000  Tot: +0.00000 ]
	SubspaceRotationAdjust: set factor to 0.29
ElecMinimize: Iter:  13  F: -3633.319826491409913  |grad|_K:  4.896e-08  alpha:  1.472e-01  linmin: -1.059e-06  t[s]:  11268.39
	FillingsUpdate:  mu: +0.096859955  nElectrons: 342.000000  magneticMoment: [ Abs: 0.00000  Tot: +0.00000 ]
	SubspaceRotationAdjust: set factor to 0.298
ElecMinimize: Iter:  14  F: -3633.319826608344101  |grad|_K:  3.900e-08  alpha:  1.386e-01  linmin: -1.879e-05  t[s]:  11326.48
	FillingsUpdate:  mu: +0.096869534  nElectrons: 342.000000  magneticMoment: [ Abs: 0.00000  Tot: +0.00000 ]
	SubspaceRotationAdjust: set factor to 0.313
ElecMinimize: Iter:  15  F: -3633.319826720434776  |grad|_K:  2.729e-08  alpha:  2.098e-01  linmin:  7.864e-06  t[s]:  11385.52
	FillingsUpdate:  mu: +0.096874431  nElectrons: 342.000000  magneticMoment: [ Abs: 0.00000  Tot: +0.00000 ]
	SubspaceRotationAdjust: set factor to 0.328
ElecMinimize: Iter:  16  F: -3633.319826759766784  |grad|_K:  2.345e-08  alpha:  1.512e-01  linmin:  2.227e-05  t[s]:  11443.51
	FillingsUpdate:  mu: +0.096876976  nElectrons: 342.000000  magneticMoment: [ Abs: 0.00000  Tot: +0.00000 ]
	SubspaceRotationAdjust: set factor to 0.357
ElecMinimize: Iter:  17  F: -3633.319826794179335  |grad|_K:  1.648e-08  alpha:  1.802e-01  linmin:  1.049e-04  t[s]:  11501.65
ElecMinimize: Converged (|Delta F|<1.000000e-07 for 2 iters).
Setting wave functions to eigenvectors of Hamiltonian
Converging empty states (this may take a while): |deigs|: 3.747e-08

Computing DFT-D3 correction:
# coordination-number Cu 6.827 8.331 5.547 9.027 9.151 9.153 9.094 9.034 6.841 9.030 9.092 6.841 9.152 9.155 9.031 8.333 6.823 5.549
# diagonal-C6 Cu 175.00 175.00 175.00 175.00 175.00 175.00 175.00 175.00 175.00 175.00 175.00 175.00 175.00 175.00 175.00 175.00 175.00 175.00
EvdW_6 =   -0.104771
EvdW_8 =   -0.157507

# Ionic positions in cartesian coordinates:
ion Cu  -0.000028887672257   6.331757185862711  58.999178725711602 1
ion Cu  -0.000044804252289  12.803497781277576  56.816485652003720 1
ion Cu   4.766594047428206   0.021590220322224  41.140456801267277 1
ion Cu   0.000038294346924   4.744889490609991  54.495040355032678 1
ion Cu  -0.000047557359400  11.132118846561763  52.246298452062966 1
ion Cu   0.000014062025642   3.178500440572995  49.997581321458256 1
ion Cu   0.000071119800124   9.546017037111225  47.753909719488433 1
ion Cu   0.000065236860798   1.574988621191623  45.550307710102096 1
ion Cu  -0.000017361151805   7.941290133446604  43.154374289662051 1
ion Cu   2.383256068407295   8.755816716736412  55.564864908699249 1
ion Cu   2.383358874716225   0.779569960970993  53.362686083522398 1
ion Cu   2.383376672459756   2.386973288140184  57.961753735486603 1
ion Cu   2.383352821964045   7.147019274664318  51.118280190041958 1
ion Cu   2.383323416713055  13.497103040501216  48.864859025495974 1
ion Cu   2.383322590777758   5.582431521508440  46.620716167570770 1
ion Cu   2.383300520111217  11.824717507941525  44.300374185423280 1
ion Cu   2.383331265794972   3.997311711421067  42.114846152354247 1
ion Cu   2.383155619029736  10.303297221159129  59.976215524616400 1

# Forces in Cartesian coordinates:
force Cu   0.000000377688231   0.000202636600365  -0.000174548466877 1
force Cu   0.000000286282334  -0.000281030939253  -0.000124843499773 1
force Cu   0.000001450273766  -0.000233697016114   0.000130115749594 1
force Cu   0.000000166771566  -0.000057617814847   0.000354919356120 1
force Cu   0.000000618434697   0.000304985902189  -0.000310710311454 1
force Cu   0.000001085283939   0.000076243832031   0.000264309827188 1
force Cu   0.000002108657688  -0.000237375569491   0.000051260110665 1
force Cu   0.000001324874004  -0.000064076650080  -0.000362124793694 1
force Cu   0.000000998546143  -0.000002194011269  -0.000116971533411 1
force Cu   0.000001660251822   0.000080184349382   0.000300588186746 1
force Cu  -0.000000265606618   0.000270052820784  -0.000036213225335 1
force Cu   0.000001505673998  -0.000045092133618   0.000198524738888 1
force Cu  -0.000000036175413  -0.000028683649481  -0.000178402245548 1
force Cu   0.000000559598697  -0.000324842105154   0.000336884263916 1
force Cu   0.000000668039850   0.000104116109404  -0.000366880842968 1
force Cu   0.000000029556326   0.000332007185304   0.000180127727414 1
force Cu   0.000001265334458  -0.000216117170417   0.000259398029442 1
force Cu   0.000000143972362   0.000264454873035  -0.000032884436219 1

# Energy components:
   Eewald =    22119.7712762171322538
       EH =    25442.5255362555508327
     Eloc =   -51877.6122178617952159
      Enl =      659.1984170844716573
     EvdW =       -0.2622786471475427
      Exc =     -349.2885658622759024
 Exc_core =        0.8454402137820457
       KE =      371.5031772801114585
-------------------------------------
     Etot =    -3633.3192153201698602
       TS =        0.0006114740095629
-------------------------------------
        F =    -3633.3198267941793347


Dumping 'jdft.fillings' ... done
Dumping 'jdft.wfns' ... done
Dumping 'jdft.ionpos' ... done
Dumping 'jdft.lattice' ... done
Dumping 'jdft.eigenvals' ... done
Dumping 'jdft.eigStats' ... 
	eMin: -4.043096 at state 0 ( [ +0.000000 +0.000000 +0.000000 ] spin 1 )
	HOMO: +0.096242 at state 51 ( [ +0.000000 -0.250000 +0.000000 ] spin -1 )
	mu  : +0.096877
	LUMO: +0.097034 at state 3 ( [ +0.000000 -0.250000 +0.000000 ] spin 1 )
	eMax: +0.463847 at state 73 ( [ +0.500000 +0.250000 +0.000000 ] spin -1 )
	HOMO-LUMO gap: +0.000792
	Optical gap  : +0.000792 at state 1 ( [ +0.000000 +0.250000 +0.000000 ] spin 1 )
Dumping 'jdft.Ecomponents' ... done
IonicMinimize: Iter:   4  F: -3633.319826794179335  |grad|_K:  1.810e-04  alpha:  1.000e+00  linmin:  3.302e-01  t[s]:  11572.45

#--- Lowdin population analysis ---
# oxidation-state Cu +0.092 +0.025 +0.179 +0.067 +0.072 +0.075 +0.071 +0.062 +0.115 +0.062 +0.071 +0.115 +0.075 +0.072 +0.067 +0.025 +0.092 +0.180
# magnetic-moments Cu +0.000 -0.000 +0.000 +0.000 -0.000 -0.000 +0.000 -0.000 +0.000 +0.000 +0.000 +0.000 +0.000 -0.000 -0.000 -0.000 +0.000 +0.000


Computing DFT-D3 correction:
# coordination-number Cu 6.831 8.334 5.546 9.029 9.151 9.150 9.097 9.038 6.838 9.033 9.095 6.837 9.149 9.155 9.033 8.336 6.828 5.548
# diagonal-C6 Cu 175.00 175.00 175.00 175.00 175.00 175.00 175.00 175.00 175.00 175.00 175.00 175.00 175.00 175.00 175.00 175.00 175.00 175.00
EvdW_6 =   -0.104771
EvdW_8 =   -0.157500

-------- Electronic minimization -----------
	FillingsUpdate:  mu: +0.096904027  nElectrons: 342.000000  magneticMoment: [ Abs: 0.00000  Tot: +0.00000 ]
ElecMinimize: Iter:   0  F: -3633.319810785091704  |grad|_K:  3.445e-07  alpha:  1.000e+00
	FillingsUpdate:  mu: +0.096926129  nElectrons: 342.000000  magneticMoment: [ Abs: 0.00000  Tot: +0.00000 ]
	SubspaceRotationAdjust: set factor to 0.385
ElecMinimize: Iter:   1  F: -3633.319816703346532  |grad|_K:  2.771e-07  alpha:  1.419e-01  linmin: -1.086e-06  t[s]:  11679.41
	FillingsUpdate:  mu: +0.096953725  nElectrons: 342.000000  magneticMoment: [ Abs: 0.00000  Tot: +0.00000 ]
	SubspaceRotationAdjust: set factor to 0.348
ElecMinimize: Iter:   2  F: -3633.319823138580887  |grad|_K:  2.880e-07  alpha:  2.386e-01  linmin:  1.614e-06  t[s]:  11737.51
	FillingsUpdate:  mu: +0.096940430  nElectrons: 342.000000  magneticMoment: [ Abs: 0.00000  Tot: +0.00000 ]
	SubspaceRotationAdjust: set factor to 0.256
ElecMinimize: Iter:   3  F: -3633.319826248884056  |grad|_K:  2.108e-07  alpha:  1.067e-01  linmin: -2.488e-07  t[s]:  11795.91
	FillingsUpdate:  mu: +0.096904102  nElectrons: 342.000000  magneticMoment: [ Abs: 0.00000  Tot: -0.00000 ]
	SubspaceRotationAdjust: set factor to 0.304
ElecMinimize: Iter:   4  F: -3633.319829171573474  |grad|_K:  1.375e-07  alpha:  1.872e-01  linmin: -1.499e-06  t[s]:  11854.04
	FillingsUpdate:  mu: +0.096902915  nElectrons: 342.000000  magneticMoment: [ Abs: 0.00000  Tot: -0.00000 ]
	SubspaceRotationAdjust: set factor to 0.333
ElecMinimize: Iter:   5  F: -3633.319830536046993  |grad|_K:  1.551e-07  alpha:  2.053e-01  linmin:  3.281e-07  t[s]:  11912.55
	FillingsUpdate:  mu: +0.096908390  nElectrons: 342.000000  magneticMoment: [ Abs: 0.00000  Tot: -0.00000 ]
	SubspaceRotationAdjust: set factor to 0.325
ElecMinimize: Iter:   6  F: -3633.319832644336657  |grad|_K:  1.233e-07  alpha:  2.496e-01  linmin:  7.640e-07  t[s]:  11971.71
	FillingsUpdate:  mu: +0.096903918  nElectrons: 342.000000  magneticMoment: [ Abs: 0.00000  Tot: -0.00000 ]
	SubspaceRotationAdjust: set factor to 0.257
ElecMinimize: Iter:   7  F: -3633.319833178390581  |grad|_K:  7.419e-08  alpha:  1.000e-01  linmin: -9.270e-07  t[s]:  12029.58
	FillingsUpdate:  mu: +0.096891508  nElectrons: 342.000000  magneticMoment: [ Abs: 0.00000  Tot: -0.00000 ]
	SubspaceRotationAdjust: set factor to 0.239
ElecMinimize: Iter:   8  F: -3633.319833609371017  |grad|_K:  8.573e-08  alpha:  2.221e-01  linmin: -2.175e-05  t[s]:  12087.65
	FillingsUpdate:  mu: +0.096884391  nElectrons: 342.000000  magneticMoment: [ Abs: 0.00000  Tot: -0.00000 ]
	SubspaceRotationAdjust: set factor to 0.301
ElecMinimize: Iter:   9  F: -3633.319834048325902  |grad|_K:  4.718e-08  alpha:  1.694e-01  linmin: -3.692e-06  t[s]:  12145.95
	FillingsUpdate:  mu: +0.096893989  nElectrons: 342.000000  magneticMoment: [ Abs: 0.00000  Tot: -0.00000 ]
	SubspaceRotationAdjust: set factor to 0.268
ElecMinimize: Iter:  10  F: -3633.319834170513786  |grad|_K:  4.150e-08  alpha:  1.560e-01  linmin:  8.138e-06  t[s]:  12204.03
	FillingsUpdate:  mu: +0.096903161  nElectrons: 342.000000  magneticMoment: [ Abs: 0.00000  Tot: -0.00000 ]
	SubspaceRotationAdjust: set factor to 0.247
ElecMinimize: Iter:  11  F: -3633.319834260117204  |grad|_K:  2.866e-08  alpha:  1.483e-01  linmin: -7.247e-06  t[s]:  12263.38
	FillingsUpdate:  mu: +0.096898685  nElectrons: 342.000000  magneticMoment: [ Abs: 0.00000  Tot: -0.00000 ]
	SubspaceRotationAdjust: set factor to 0.259
ElecMinimize: Iter:  12  F: -3633.319834319143865  |grad|_K:  2.608e-08  alpha:  2.043e-01  linmin: -1.549e-05  t[s]:  12321.50
ElecMinimize: Converged (|Delta F|<1.000000e-07 for 2 iters).
Setting wave functions to eigenvectors of Hamiltonian
Converging empty states (this may take a while): |deigs|: 4.621e-09

Computing DFT-D3 correction:
# coordination-number Cu 6.831 8.334 5.546 9.029 9.151 9.150 9.097 9.038 6.838 9.033 9.095 6.837 9.149 9.155 9.033 8.336 6.828 5.548
# diagonal-C6 Cu 175.00 175.00 175.00 175.00 175.00 175.00 175.00 175.00 175.00 175.00 175.00 175.00 175.00 175.00 175.00 175.00 175.00 175.00
EvdW_6 =   -0.104771
EvdW_8 =   -0.157500

# Ionic positions in cartesian coordinates:
ion Cu  -0.000031607431941   6.333379219954411  58.997709501645254 1
ion Cu  -0.000047488281442  12.800846636751487  56.813926097658353 1
ion Cu   4.766600822503984   0.020205296308881  41.139367275198907 1
ion Cu   0.000034543610795   4.744921060395606  54.496775070389944 1
ion Cu  -0.000047904516237  11.133535991151161  52.244441805260742 1
ion Cu   0.000016224513006   3.178996976540513  49.998664863866026 1
ion Cu   0.000073499709054   9.544085543062611  47.753761840201726 1
ion Cu   0.000068703106534   1.574747156422310  45.548231898789837 1
ion Cu  -0.000015242459655   7.941192153100614  43.154218150257527 1
ion Cu   2.383261401079940   8.756059446971017  55.566487037060298 1
ion Cu   2.383351664235498   0.781655946829135  53.362658667364272 1
ion Cu   2.383382278810246   2.386689948351291  57.962112919726060 1
ion Cu   2.383347676453297   7.146689231966367  51.117411455545344 1
ion Cu   2.383323116513672  13.495473384338723  48.866680411231435 1
ion Cu   2.383322881434535   5.582588093908464  46.618795000537020 1
ion Cu   2.383293071727763  11.827504383914224  44.302989914008521 1
ion Cu   2.383334478306291   3.995534956875347  42.116497254987266 1
ion Cu   2.383153880684659  10.304784573157830  59.977499836271427 1

# Forces in Cartesian coordinates:
force Cu   0.000000579105797   0.000117142297869  -0.000057306544132 1
force Cu   0.000000475772064  -0.000036296926287  -0.000053453078759 1
force Cu   0.000000945230917  -0.000212983735785   0.000095280173049 1
force Cu   0.000000571731323   0.000012164612901   0.000202111672641 1
force Cu   0.000000267083455   0.000111714400494  -0.000029317362103 1
force Cu   0.000000844006486   0.000039275413553   0.000092897156834 1
force Cu   0.000001616155756  -0.000113222198710   0.000052955716765 1
force Cu   0.000001156776620  -0.000072026180248   0.000013045443267 1
force Cu   0.000000914080576   0.000114380575073  -0.000163708491293 1
force Cu   0.000001058779261   0.000105223034469  -0.000030825648851 1
force Cu  -0.000000009795400   0.000126456313465   0.000027668039168 1
force Cu   0.000001323086876  -0.000141478314715   0.000166363719632 1
force Cu   0.000000261616256  -0.000011955631183   0.000031880833946 1
force Cu   0.000000797139142  -0.000084841971425   0.000132695835834 1
force Cu   0.000000677776087  -0.000000042609764  -0.000165442137192 1
force Cu   0.000000471805905   0.000070719814064   0.000053477150676 1
force Cu   0.000001330035599  -0.000121291547660   0.000042228187846 1
force Cu   0.000000300145606   0.000253362722487  -0.000099469542354 1

# Energy components:
   Eewald =    22120.1146604197747365
       EH =    25442.8731565024427255
     Eloc =   -51878.3035668922821060
      Enl =      659.1987615582331728
     EvdW =       -0.2622713676324521
      Exc =     -349.2887003915550963
 Exc_core =        0.8454401964968319
       KE =      371.5032986673800792
-------------------------------------
     Etot =    -3633.3192213071388323
       TS =        0.0006130120051399
-------------------------------------
        F =    -3633.3198343191438653


Dumping 'jdft.fillings' ... done
Dumping 'jdft.wfns' ... done
Dumping 'jdft.ionpos' ... done
Dumping 'jdft.lattice' ... done
Dumping 'jdft.eigenvals' ... done
Dumping 'jdft.eigStats' ... 
	eMin: -4.043082 at state 0 ( [ +0.000000 +0.000000 +0.000000 ] spin 1 )
	HOMO: +0.096294 at state 51 ( [ +0.000000 -0.250000 +0.000000 ] spin -1 )
	mu  : +0.096899
	LUMO: +0.097044 at state 51 ( [ +0.000000 -0.250000 +0.000000 ] spin -1 )
	eMax: +0.463857 at state 73 ( [ +0.500000 +0.250000 +0.000000 ] spin -1 )
	HOMO-LUMO gap: +0.000750
	Optical gap  : +0.000750 at state 51 ( [ +0.000000 -0.250000 +0.000000 ] spin -1 )
Dumping 'jdft.Ecomponents' ... done
IonicMinimize: Iter:   5  F: -3633.319834319143865  |grad|_K:  8.846e-05  alpha:  1.000e+00  linmin: -5.880e-01  t[s]:  12381.12
IonicMinimize: Converged (|grad|_K<1.000000e-04).

#--- Lowdin population analysis ---
# oxidation-state Cu +0.092 +0.025 +0.180 +0.067 +0.072 +0.075 +0.071 +0.061 +0.115 +0.062 +0.071 +0.115 +0.075 +0.072 +0.066 +0.025 +0.092 +0.180
# magnetic-moments Cu -0.000 +0.000 +0.000 -0.000 +0.000 +0.000 -0.000 -0.000 +0.000 +0.000 -0.000 -0.000 -0.000 +0.000 +0.000 +0.000 -0.000 -0.000


Dumping 'jdft.n_up' ... done
Dumping 'jdft.n_dn' ... done
Dumping 'jdft.tau_up' ... done
Dumping 'jdft.tau_dn' ... done
Dumping 'jdft.eigenvals' ... done
Dumping 'jdft.eigStats' ... 
	eMin: -4.043082 at state 0 ( [ +0.000000 +0.000000 +0.000000 ] spin 1 )
	HOMO: +0.096294 at state 51 ( [ +0.000000 -0.250000 +0.000000 ] spin -1 )
	mu  : +0.096899
	LUMO: +0.097044 at state 51 ( [ +0.000000 -0.250000 +0.000000 ] spin -1 )
	eMax: +0.463857 at state 73 ( [ +0.500000 +0.250000 +0.000000 ] spin -1 )
	HOMO-LUMO gap: +0.000750
	Optical gap  : +0.000750 at state 51 ( [ +0.000000 -0.250000 +0.000000 ] spin -1 )
Dumping 'jdft.kPts' ... done
Dumping 'jdft.dosUp' ... done.
Dumping 'jdft.dosDn' ... done.
End date and time: Mon Dec  6 08:04:59 2021  (Duration: 0-3:26:59.50)
Done!
