
*************** JDFTx 1.7.0 (git hash 5f12716a) ***************

Start date and time: Sat Sep 10 11:30:10 2022
Executable /home/nisi6161/jdftx_alpine/build/jdftx with command-line: -i in
Running on hosts (process indices):  c3cpu-a2-u30-1 (0-23)
Divided in process groups (process indices):  0 (0)  1 (1)  2 (2)  3 (3)  4 (4)  5 (5)  6 (6)  7 (7)  8 (8)  9 (9)  10 (10)  11 (11)  12 (12)  13 (13)  14 (14)  15 (15)  16 (16)  17 (17)  18 (18)  19 (19)  20 (20)  21 (21)  22 (22)  23 (23)
Resource initialization completed at t[s]:      0.01
Run totals: 24 processes, 64 threads, 0 GPUs


Input parsed successfully to the following command list (including defaults):

basis kpoint-dependent
converge-empty-states yes
coords-type Cartesian
core-overlap-check none
coulomb-interaction Periodic
davidson-band-ratio 1.1
density-of-states Etol 1.000000e-06 Esigma 1.000000e-03 \
		Complete \
	Total \
	OrthoOrbital Pt 1   s \
	OrthoOrbital Pt 1   p \
	OrthoOrbital Pt 1   px \
	OrthoOrbital Pt 1   py \
	OrthoOrbital Pt 1   pz \
	OrthoOrbital Pt 1   d \
	OrthoOrbital Pt 1   dxy \
	OrthoOrbital Pt 1   dyz \
	OrthoOrbital Pt 1   dz2 \
	OrthoOrbital Pt 1   dxz \
	OrthoOrbital Pt 1   dx2-y2 \
	OrthoOrbital Pt 2   s \
	OrthoOrbital Pt 2   p \
	OrthoOrbital Pt 2   px \
	OrthoOrbital Pt 2   py \
	OrthoOrbital Pt 2   pz \
	OrthoOrbital Pt 2   d \
	OrthoOrbital Pt 2   dxy \
	OrthoOrbital Pt 2   dyz \
	OrthoOrbital Pt 2   dz2 \
	OrthoOrbital Pt 2   dxz \
	OrthoOrbital Pt 2   dx2-y2 \
	OrthoOrbital Pt 3   s \
	OrthoOrbital Pt 3   p \
	OrthoOrbital Pt 3   px \
	OrthoOrbital Pt 3   py \
	OrthoOrbital Pt 3   pz \
	OrthoOrbital Pt 3   d \
	OrthoOrbital Pt 3   dxy \
	OrthoOrbital Pt 3   dyz \
	OrthoOrbital Pt 3   dz2 \
	OrthoOrbital Pt 3   dxz \
	OrthoOrbital Pt 3   dx2-y2 \
	OrthoOrbital Pt 4   s \
	OrthoOrbital Pt 4   p \
	OrthoOrbital Pt 4   px \
	OrthoOrbital Pt 4   py \
	OrthoOrbital Pt 4   pz \
	OrthoOrbital Pt 4   d \
	OrthoOrbital Pt 4   dxy \
	OrthoOrbital Pt 4   dyz \
	OrthoOrbital Pt 4   dz2 \
	OrthoOrbital Pt 4   dxz \
	OrthoOrbital Pt 4   dx2-y2 \
	OrthoOrbital Pt 5   s \
	OrthoOrbital Pt 5   p \
	OrthoOrbital Pt 5   px \
	OrthoOrbital Pt 5   py \
	OrthoOrbital Pt 5   pz \
	OrthoOrbital Pt 5   d \
	OrthoOrbital Pt 5   dxy \
	OrthoOrbital Pt 5   dyz \
	OrthoOrbital Pt 5   dz2 \
	OrthoOrbital Pt 5   dxz \
	OrthoOrbital Pt 5   dx2-y2 \
	OrthoOrbital Pt 6   s \
	OrthoOrbital Pt 6   p \
	OrthoOrbital Pt 6   px \
	OrthoOrbital Pt 6   py \
	OrthoOrbital Pt 6   pz \
	OrthoOrbital Pt 6   d \
	OrthoOrbital Pt 6   dxy \
	OrthoOrbital Pt 6   dyz \
	OrthoOrbital Pt 6   dz2 \
	OrthoOrbital Pt 6   dxz \
	OrthoOrbital Pt 6   dx2-y2 \
	OrthoOrbital Pt 7   s \
	OrthoOrbital Pt 7   p \
	OrthoOrbital Pt 7   px \
	OrthoOrbital Pt 7   py \
	OrthoOrbital Pt 7   pz \
	OrthoOrbital Pt 7   d \
	OrthoOrbital Pt 7   dxy \
	OrthoOrbital Pt 7   dyz \
	OrthoOrbital Pt 7   dz2 \
	OrthoOrbital Pt 7   dxz \
	OrthoOrbital Pt 7   dx2-y2 \
	OrthoOrbital Pt 8   s \
	OrthoOrbital Pt 8   p \
	OrthoOrbital Pt 8   px \
	OrthoOrbital Pt 8   py \
	OrthoOrbital Pt 8   pz \
	OrthoOrbital Pt 8   d \
	OrthoOrbital Pt 8   dxy \
	OrthoOrbital Pt 8   dyz \
	OrthoOrbital Pt 8   dz2 \
	OrthoOrbital Pt 8   dxz \
	OrthoOrbital Pt 8   dx2-y2 \
	OrthoOrbital Pt 9   s \
	OrthoOrbital Pt 9   p \
	OrthoOrbital Pt 9   px \
	OrthoOrbital Pt 9   py \
	OrthoOrbital Pt 9   pz \
	OrthoOrbital Pt 9   d \
	OrthoOrbital Pt 9   dxy \
	OrthoOrbital Pt 9   dyz \
	OrthoOrbital Pt 9   dz2 \
	OrthoOrbital Pt 9   dxz \
	OrthoOrbital Pt 9   dx2-y2 \
	OrthoOrbital Pt 10   s \
	OrthoOrbital Pt 10   p \
	OrthoOrbital Pt 10   px \
	OrthoOrbital Pt 10   py \
	OrthoOrbital Pt 10   pz \
	OrthoOrbital Pt 10   d \
	OrthoOrbital Pt 10   dxy \
	OrthoOrbital Pt 10   dyz \
	OrthoOrbital Pt 10   dz2 \
	OrthoOrbital Pt 10   dxz \
	OrthoOrbital Pt 10   dx2-y2 \
	OrthoOrbital Pt 11   s \
	OrthoOrbital Pt 11   p \
	OrthoOrbital Pt 11   px \
	OrthoOrbital Pt 11   py \
	OrthoOrbital Pt 11   pz \
	OrthoOrbital Pt 11   d \
	OrthoOrbital Pt 11   dxy \
	OrthoOrbital Pt 11   dyz \
	OrthoOrbital Pt 11   dz2 \
	OrthoOrbital Pt 11   dxz \
	OrthoOrbital Pt 11   dx2-y2 \
	OrthoOrbital Pt 12   s \
	OrthoOrbital Pt 12   p \
	OrthoOrbital Pt 12   px \
	OrthoOrbital Pt 12   py \
	OrthoOrbital Pt 12   pz \
	OrthoOrbital Pt 12   d \
	OrthoOrbital Pt 12   dxy \
	OrthoOrbital Pt 12   dyz \
	OrthoOrbital Pt 12   dz2 \
	OrthoOrbital Pt 12   dxz \
	OrthoOrbital Pt 12   dx2-y2
dump End ElecDensity KEdensity BandEigs EigStats RhoAtom DOS Kpoints
dump Ionic State IonicPositions Lattice EigStats Ecomponents
dump 
dump 
dump 
dump 
dump 
dump 
dump 
dump 
dump-name jdft.$VAR
elec-cutoff 20
elec-eigen-algo Davidson
elec-ex-corr gga-PBE
elec-initial-magnetization 0.000000 no
elec-n-bands 116
elec-smearing Fermi 0.001
electronic-minimize  \
	dirUpdateScheme      FletcherReeves \
	linminMethod         DirUpdateRecommended \
	nIterations          100 \
	history              15 \
	knormThreshold       0 \
	energyDiffThreshold  1e-07 \
	nEnergyDiff          2 \
	alphaTstart          1 \
	alphaTmin            1e-10 \
	updateTestStepSize   yes \
	alphaTreduceFactor   0.1 \
	alphaTincreaseFactor 3 \
	nAlphaAdjustMax      3 \
	wolfeEnergy          0.0001 \
	wolfeGradient        0.9 \
	fdTest               no
exchange-regularization WignerSeitzTruncated
fluid LinearPCM 298.000000 1.013250
fluid-anion F- 0.5 MeanFieldLJ \
	epsBulk 1 \
	pMol 0 \
	epsInf 1 \
	Pvap 0 \
	sigmaBulk 0 \
	Rvdw 2.24877 \
	Res 0 \
	tauNuc 343133
fluid-cation Na+ 0.5 MeanFieldLJ \
	epsBulk 1 \
	pMol 0 \
	epsInf 1 \
	Pvap 0 \
	sigmaBulk 0 \
	Rvdw 2.19208 \
	Res 0 \
	tauNuc 343133
fluid-ex-corr lda-TF lda-PZ
fluid-gummel-loop 10 1.000000e-05
fluid-minimize  \
	dirUpdateScheme      PolakRibiere \
	linminMethod         DirUpdateRecommended \
	nIterations          400 \
	history              15 \
	knormThreshold       1e-11 \
	energyDiffThreshold  0 \
	nEnergyDiff          2 \
	alphaTstart          1 \
	alphaTmin            1e-10 \
	updateTestStepSize   yes \
	alphaTreduceFactor   0.1 \
	alphaTincreaseFactor 3 \
	nAlphaAdjustMax      6 \
	wolfeEnergy          0.0001 \
	wolfeGradient        0.9 \
	fdTest               no
fluid-solvent H2O 55.338 ScalarEOS \
	epsBulk 78.4 \
	pMol 0.92466 \
	epsInf 1.77 \
	Pvap 1.06736e-10 \
	sigmaBulk 4.62e-05 \
	Rvdw 2.61727 \
	Res 1.42 \
	tauNuc 343133 \
	poleEl 15 7 1
forces-output-coords Positions
initial-state jdft.$VAR
ion Pt   0.000120000000000   0.325481000000000  17.096232000000001 1
ion Pt  -0.000262000000000   4.007308000000000   2.157500000000000 1
ion Pt  -0.000021000000000   8.525387000000000   5.424145000000000 1
ion Pt  -0.000115000000000  -0.007856000000000   8.224055999999999 1
ion Pt   0.000162000000000   4.344913000000000  11.340306000000000 1
ion Pt   0.000288000000000   8.667821000000000  14.695850000000000 1
ion Pt   2.615773000000000  -0.123749000000000   3.430034000000000 1
ion Pt   2.615841000000000   4.198737000000000   6.780358000000000 1
ion Pt   2.616155000000000   8.552645999999999   9.901774000000000 1
ion Pt   2.616019000000001   0.018698000000000  12.702392000000000 1
ion Pt   2.616244000000000   4.535007999999999  15.961207000000000 1
ion Pt   2.615789000000000   8.218477000000000   1.031174000000000 1
ion-species /projects/musgravc/apps/jdftx-1.6.0/build/pseudopotentials/GBRV_v1.5/$ID_pbe_v1.uspp
ion-species /projects/musgravc/apps/jdftx-1.6.0/build/pseudopotentials/GBRV_v1.5/$ID_pbe_v1.2.uspp
ion-species /projects/musgravc/apps/jdftx-1.6.0/build/pseudopotentials/GBRV_v1.5/$ID_pbe_v1.4.uspp
ion-species /projects/musgravc/apps/jdftx-1.6.0/build/pseudopotentials/GBRV_v1.5/$ID_pbe_v1.5.uspp
ion-width Ecut
ionic-minimize  \
	dirUpdateScheme      L-BFGS \
	linminMethod         DirUpdateRecommended \
	nIterations          100 \
	history              15 \
	knormThreshold       0.0001 \
	energyDiffThreshold  0.0001 \
	nEnergyDiff          2 \
	alphaTstart          1 \
	alphaTmin            1e-10 \
	updateTestStepSize   yes \
	alphaTreduceFactor   0.1 \
	alphaTincreaseFactor 3 \
	nAlphaAdjustMax      3 \
	wolfeEnergy          0.0001 \
	wolfeGradient        0.9 \
	fdTest               no
kpoint   0.000000000000   0.000000000000   0.000000000000  1.00000000000000
kpoint-folding 12 5 1 
latt-move-scale 0 0 0
latt-scale 1 1 1 
lattice  \
	   5.231996000000000    0.000000000000000    0.000000000000000  \
	   0.000000000000000   12.815718000000000    0.000000000000000  \
	   0.000000000000000    0.000000000000000   54.372487000000000 
lattice-minimize  \
	dirUpdateScheme      L-BFGS \
	linminMethod         DirUpdateRecommended \
	nIterations          0 \
	history              15 \
	knormThreshold       0 \
	energyDiffThreshold  1e-06 \
	nEnergyDiff          2 \
	alphaTstart          1 \
	alphaTmin            1e-10 \
	updateTestStepSize   yes \
	alphaTreduceFactor   0.1 \
	alphaTincreaseFactor 3 \
	nAlphaAdjustMax      3 \
	wolfeEnergy          0.0001 \
	wolfeGradient        0.9 \
	fdTest               no
lcao-params 30 1e-06 0.001
pcm-variant CANDLE
spintype z-spin
subspace-rotation-factor 1 yes
symmetries automatic
symmetry-threshold 0.0001
target-mu -0.1345 no

van-der-waals D3



---------- Setting up symmetries ----------

Found 8 point-group symmetries of the bravais lattice
Found 1 space-group symmetries with basis
Applied RMS atom displacement 0 bohrs to make symmetries exact.

---------- Initializing the Grid ----------
R = 
[        5.232            0            0  ]
[            0      12.8157            0  ]
[            0            0      54.3725  ]
unit cell volume = 3645.77
G =
[    1.20092          0          0  ]
[          0   0.490272          0  ]
[          0          0   0.115558  ]
Minimum fftbox size, Smin = [  24  52  220  ]
Chosen fftbox size, S = [  24  54  224  ]

---------- Exchange Correlation functional ----------
Initalized PBE GGA exchange.
Initalized PBE GGA correlation.

---------- Setting up pseudopotentials ----------
Width of ionic core gaussian charges (only for fluid interactions / plotting) set to 0.397384

Reading pseudopotential file '/projects/musgravc/apps/jdftx-1.6.0/build/pseudopotentials/GBRV_v1.5/pt_pbe_v1.4.uspp':
  Title: Pt.  Created by USPP 7.3.6 on 31-3-15
  Reference state energy: -105.002503.  16 valence electrons in orbitals:
    |510>  occupation: 6  eigenvalue: -2.158104
    |520>  occupation: 9.5  eigenvalue: -0.335376
    |600>  occupation: 0  eigenvalue: -0.319640
    |610>  occupation: 0  eigenvalue: -0.122947
  lMax: 2  lLocal: 3  QijEcut: 5.5
  6 projectors sampled on a log grid with 745 points:
    l: 0  eig: -0.319640  rCut: 2.45
    l: 0  eig: 1.500000  rCut: 2.45
    l: 1  eig: -2.158104  rCut: 1.6
    l: 1  eig: -0.122947  rCut: 1.6
    l: 2  eig: -0.500000  rCut: 1.6
    l: 2  eig: -0.335375  rCut: 1.6
  Partial core density with radius 1.1
  Transforming core density to a uniform radial grid of dG=0.02 with 1179 points.
  Transforming local potential to a uniform radial grid of dG=0.02 with 1179 points.
  Transforming nonlocal projectors to a uniform radial grid of dG=0.02 with 432 points.
  Transforming density augmentations to a uniform radial grid of dG=0.02 with 1179 points.
  Transforming atomic orbitals to a uniform radial grid of dG=0.02 with 432 points.
  Core radius for overlap checks: 2.45 bohrs.

Initialized 1 species with 12 total atoms.

Folded 1 k-points by 12x5x1 to 60 k-points.

---------- Setting up k-points, bands, fillings ----------
Adding inversion symmetry to k-mesh for non-inversion-symmetric unit cell.
Reduced to 31 k-points under symmetry. 
Computing the number of bands and number of electrons
Reading initial fillings from file jdft.fillings.
nElectrons: 191.587826   nBands: 116   nStates: 62

----- Setting up reduced wavefunction bases (one per k-point) -----
average nbasis = 15576.517 , ideal nbasis = 15575.017

----- Initializing Supercell corresponding to k-point mesh -----
Lattice vector linear combinations in supercell:
[  12   0   0  ]
[   0   5   0  ]
[   0   0   1  ]
Supercell lattice vectors:
[  62.784  0  0  ]
[  0  64.0786  0  ]
[  0  0  54.3725  ]

Initializing DFT-D3 calculator:
	Parameters set for gga-PBE functional
	s6:  1.000  s_r6:  1.217
	s8:  0.722  s_r8:  1.000
	Per-atom parameters loaded for:
	Pt:  sqrtQ[a0]:  5.888  Rcov[a0]:  2.116  CN: [ 0.00 1.92 6.67 ]

Initializing DFT-D2 calculator for fluid / solvation:
	Pt:  C6:  815.23 Eh-a0^6  R0: 3.326 a0 (WARNING: beyond Grimme's data set)

---------- Setting up ewald sum ----------
Optimum gaussian width for ewald sums = 4.057978 bohr.
Real space sum over 1045 unit cells with max indices [  9  5  2  ]
Reciprocal space sum over 4095 terms with max indices [  3  6  22  ]

Computing DFT-D3 correction:
# coordination-number Pt 5.937 7.116 9.422 9.322 9.273 7.651 7.654 9.272 9.320 9.424 7.123 5.939
# diagonal-C6 Pt 336.87 336.87 336.87 336.87 336.87 336.87 336.87 336.87 336.87 336.87 336.87 336.87
EvdW_6 =   -0.093362
EvdW_8 =   -0.155988

---------- Allocating electronic variables ----------
Initializing wave functions:  reading from 'jdft.wfns'
----- createFluidSolver() ----- (Fluid-side solver setup)
   Initializing fluid molecule 'H2O'
     Initializing site 'O'
       Electron density: proportional to exp(-r/0.36935)*erfc((r-0.51523)/0.36823) with norm 6.826
       Charge density: gaussian nuclear width 0.478731 with net site charge 0.826
       Polarizability: cuspless exponential with width 0.32 and norm 3.73
       Hard sphere radius: 2.57003 bohrs
       Positions in reference frame:
         [ +0.000000 +0.000000 +0.000000 ]
     Initializing site 'H'
       Electron density: proportional to exp(-r/0.34641)*erfc((r-0)/0.390882) with norm 0.587
       Charge density: gaussian nuclear width 0.377945 with net site charge -0.413
       Polarizability: cuspless exponential with width 0.39 and norm 3.3
       Positions in reference frame:
         [ +0.000000 -1.441945 +1.122523 ]
         [ +0.000000 +1.441945 +1.122523 ]
     Net charge: 0   dipole magnitude: 0.927204
     Initializing spherical shell mfKernel with radius 2.61727 Bohr
     deltaS corrections:
       site 'O': -7.54299
       site 'H': -6.83917
   Initializing fluid molecule 'Na+'
     Initializing site 'Na'
       Electron density: proportional to exp(-r/0.19682)*erfc((r-0.71491)/0.41314) with norm 8.1383
       Charge density: gaussian nuclear width 0.365347 with net site charge -1
       Hard sphere radius: 1.86327 bohrs
       Positions in reference frame:
         [ +0.000000 +0.000000 +0.000000 ]
     Net charge: -1   dipole magnitude: 0
     Initializing gaussian mfKernel with width: 1.55004 Bohr
     deltaS corrections:
       site 'Na': -22.3555
   Initializing fluid molecule 'F-'
     Initializing site 'F'
       Electron density: proportional to exp(-r/0.38886)*erfc((r-0)/0.438782) with norm 8
       Charge density: gaussian nuclear width 0.374796 with net site charge 1
       Hard sphere radius: 2.39995 bohrs
       Positions in reference frame:
         [ +0.000000 +0.000000 +0.000000 ]
     Net charge: 1   dipole magnitude: 0
     Initializing gaussian mfKernel with width: 1.59012 Bohr
     deltaS corrections:
       site 'F': -9.04335

Correction to mu due to finite nuclear width = -0.052253
   Cavity determined by nc: 0.00142 and sigma: 0.707107
   Nonlocal vdW cavity from gaussian model electron density with norm = 8 and sigma = 0.993594 bohr
   Charge asymmetry in cavity with sensitivity pCavity = 36.5 e-bohr/Eh
   Electrostatic cavity expanded by eta = 1.46 bohrs
   Weighted density cavitation model constrained by Nbulk: 0.0049383 bohr^-3, Pvap: 3.14029 kPa, Rvdw: 2.61727 bohr and sigmaBulk: 4.62e-05 Eh/bohr^2 at T: 298 K.
   Weighted density dispersion model using vdW pair potentials with single solvent site with sqrtC6eff: 0.77 SI.
Reading fluid state from 'jdft.fluidState'


---- Citations for features of the code used in this run ----

   Software package:
      R. Sundararaman, K. Letchworth-Weaver, K.A. Schwarz, D. Gunceler, Y. Ozhabes and T.A. Arias, 'JDFTx: software for joint density-functional theory', SoftwareX 6, 278 (2017)

   gga-PBE exchange-correlation functional:
      J.P. Perdew, K. Burke and M. Ernzerhof, Phys. Rev. Lett. 77, 3865 (1996)

   Pseudopotentials:
      KF Garrity, JW Bennett, KM Rabe and D Vanderbilt, Comput. Mater. Sci. 81, 446 (2014)

   DFT-D3 dispersion correction:
      S. Grimme, J. Antony, S. Ehrlich and H. Krieg, J. Chem. Phys. 132, 154104 (2010)

   DFT-D2 dispersion correction:
      S. Grimme, J. Comput. Chem. 27, 1787 (2006)

   Charge-asymmetric nonlocally-determined local-electric (CANDLE) solvation model:
      R. Sundararaman and W.A. Goddard III, J. Chem. Phys. 142, 064107 (2015)

   Total energy minimization with Auxiliary Hamiltonian:
      C. Freysoldt, S. Boeck, and J. Neugebauer, Phys. Rev. B 79, 241103(R) (2009)

   Grand-canonical (fixed-potential) DFT:
      R. Sundararaman, W. A. Goddard III and T. A. Arias, J. Chem. Phys. 146, 114104 (2017)

   Linear-tetrahedron sampling for density of states:
      G. Lehmann and M. Taut, Phys. status solidi (b) 54, 469 (1972)

This list may not be complete. Please suggest additional citations or
report any other bugs at https://github.com/shankar1729/jdftx/issues

Initialization completed successfully at t[s]:     10.64


Computing DFT-D3 correction:
# coordination-number Pt 5.937 7.116 9.422 9.322 9.273 7.651 7.654 9.272 9.320 9.424 7.123 5.939
# diagonal-C6 Pt 336.87 336.87 336.87 336.87 336.87 336.87 336.87 336.87 336.87 336.87 336.87 336.87
EvdW_6 =   -0.093362
EvdW_8 =   -0.155988
Shifting auxilliary hamiltonian by 0.110209 to set nElectrons=191.587826

-------- Electronic minimization -----------
	Linear fluid (dielectric constant: 78.4, screening length: 8.12261 Bohr) occupying 0.524677 of unit cell:	Completed after 20 iterations at t[s]:     21.68
	FillingsUpdate:  mu: -0.134500000  nElectrons: 191.587826  magneticMoment: [ Abs: 0.00015  Tot: +0.00014 ]
ElecMinimize: Iter:   0  G: -1041.261243105404674  |grad|_K:  1.990e-04  alpha:  1.000e+00
	Linear fluid (dielectric constant: 78.4, screening length: 8.12261 Bohr) occupying 0.507736 of unit cell:	Completed after 31 iterations at t[s]:     58.74
	Linear fluid (dielectric constant: 78.4, screening length: 8.12261 Bohr) occupying 0.524596 of unit cell:	Completed after 36 iterations at t[s]:     74.22
	FillingsUpdate:  mu: -0.134500000  nElectrons: 191.275893  magneticMoment: [ Abs: 0.00013  Tot: +0.00011 ]
	SubspaceRotationAdjust: set factor to 0.645
ElecMinimize: Iter:   1  G: -1041.287121027811736  |grad|_K:  2.061e-04  alpha:  6.984e-03  linmin:  8.045e-03  t[s]:     92.76
	Linear fluid (dielectric constant: 78.4, screening length: 8.12261 Bohr) occupying 0.524277 of unit cell:	Completed after 20 iterations at t[s]:    108.29
ElecMinimize: 	Predicted alpha/alphaT>3.000000, increasing alphaT to 2.095314e-02.
	Linear fluid (dielectric constant: 78.4, screening length: 8.12261 Bohr) occupying 0.523602 of unit cell:	Completed after 23 iterations at t[s]:    122.33
	Linear fluid (dielectric constant: 78.4, screening length: 8.12261 Bohr) occupying 0.522409 of unit cell:	Completed after 24 iterations at t[s]:    136.46
	FillingsUpdate:  mu: -0.134500000  nElectrons: 192.031905  magneticMoment: [ Abs: 0.00014  Tot: +0.00013 ]
	SubspaceRotationAdjust: set factor to 0.378
ElecMinimize: Iter:   2  G: -1041.479756560275064  |grad|_K:  1.743e-04  alpha:  5.135e-02  linmin:  3.804e-04  t[s]:    155.20
	Linear fluid (dielectric constant: 78.4, screening length: 8.12261 Bohr) occupying 0.586614 of unit cell:	Completed after 28 iterations at t[s]:    171.83
	Linear fluid (dielectric constant: 78.4, screening length: 8.12261 Bohr) occupying 0.560636 of unit cell:	Completed after 32 iterations at t[s]:    186.99
	FillingsUpdate:  mu: -0.134500000  nElectrons: 192.608882  magneticMoment: [ Abs: 0.00014  Tot: +0.00013 ]
	SubspaceRotationAdjust: set factor to 0.242
ElecMinimize: Iter:   3  G: -1041.517088683201564  |grad|_K:  1.222e-04  alpha:  1.349e-02  linmin:  2.771e-03  t[s]:    205.74
	Linear fluid (dielectric constant: 78.4, screening length: 8.12261 Bohr) occupying 0.560212 of unit cell:	Completed after 22 iterations at t[s]:    221.44
ElecMinimize: 	Predicted alpha/alphaT>3.000000, increasing alphaT to 4.046626e-02.
	Linear fluid (dielectric constant: 78.4, screening length: 8.12261 Bohr) occupying 0.559492 of unit cell:	Completed after 24 iterations at t[s]:    235.64
ElecMinimize: 	Predicted alpha/alphaT>3.000000, increasing alphaT to 1.213988e-01.
	Linear fluid (dielectric constant: 78.4, screening length: 8.12261 Bohr) occupying 0.557785 of unit cell:	Completed after 27 iterations at t[s]:    250.15
	Linear fluid (dielectric constant: 78.4, screening length: 8.12261 Bohr) occupying 0.557580 of unit cell:	Completed after 20 iterations at t[s]:    263.92
	FillingsUpdate:  mu: -0.134500000  nElectrons: 192.609532  magneticMoment: [ Abs: 0.00012  Tot: +0.00010 ]
	SubspaceRotationAdjust: set factor to 0.323
ElecMinimize: Iter:   4  G: -1041.719079050321625  |grad|_K:  3.405e-05  alpha:  1.304e-01  linmin: -5.247e-04  t[s]:    282.65
	Linear fluid (dielectric constant: 78.4, screening length: 8.12261 Bohr) occupying 0.532564 of unit cell:	Completed after 24 iterations at t[s]:    298.83
	Linear fluid (dielectric constant: 78.4, screening length: 8.12261 Bohr) occupying 0.531164 of unit cell:	Completed after 18 iterations at t[s]:    312.30
	FillingsUpdate:  mu: -0.134500000  nElectrons: 192.315643  magneticMoment: [ Abs: 0.00012  Tot: +0.00010 ]
	SubspaceRotationAdjust: set factor to 0.179
ElecMinimize: Iter:   5  G: -1041.737207075022297  |grad|_K:  6.552e-05  alpha:  1.376e-01  linmin: -1.183e-03  t[s]:    330.86
	Linear fluid (dielectric constant: 78.4, screening length: 8.12261 Bohr) occupying 0.560380 of unit cell:	Completed after 32 iterations at t[s]:    346.35
	Linear fluid (dielectric constant: 78.4, screening length: 8.12261 Bohr) occupying 0.540142 of unit cell:	Completed after 28 iterations at t[s]:    359.58
	FillingsUpdate:  mu: -0.134500000  nElectrons: 192.423549  magneticMoment: [ Abs: 0.00012  Tot: +0.00010 ]
	SubspaceRotationAdjust: set factor to 0.0822
	SubspaceRotationAdjust: resetting CG because factor has changed by 0.0822163
	Linear fluid (dielectric constant: 78.4, screening length: 8.12261 Bohr) occupying 0.540142 of unit cell:	Completed after 0 iterations at t[s]:    383.50
ElecMinimize: 	State modified externally: resetting search direction.
ElecMinimize: Iter:   6  G: -1041.752714704566642  |grad|_K:  1.702e-05  alpha:  3.261e-02
	Linear fluid (dielectric constant: 78.4, screening length: 8.12261 Bohr) occupying 0.539438 of unit cell:	Completed after 20 iterations at t[s]:    414.60
ElecMinimize: 	Predicted alpha/alphaT>3.000000, increasing alphaT to 9.783173e-02.
	Linear fluid (dielectric constant: 78.4, screening length: 8.12261 Bohr) occupying 0.538016 of unit cell:	Completed after 22 iterations at t[s]:    427.23
	Linear fluid (dielectric constant: 78.4, screening length: 8.12261 Bohr) occupying 0.534422 of unit cell:	Completed after 23 iterations at t[s]:    439.93
	FillingsUpdate:  mu: -0.134500000  nElectrons: 192.371485  magneticMoment: [ Abs: 0.00011  Tot: +0.00010 ]
	SubspaceRotationAdjust: set factor to 0.0492
ElecMinimize: Iter:   7  G: -1041.761157823542362  |grad|_K:  1.705e-05  alpha:  2.600e-01  linmin:  9.680e-04  t[s]:    456.99
	Linear fluid (dielectric constant: 78.4, screening length: 8.12261 Bohr) occupying 0.560316 of unit cell:	Completed after 29 iterations at t[s]:    472.06
	Linear fluid (dielectric constant: 78.4, screening length: 8.12261 Bohr) occupying 0.544738 of unit cell:	Completed after 25 iterations at t[s]:    484.97
	FillingsUpdate:  mu: -0.134500000  nElectrons: 192.488605  magneticMoment: [ Abs: 0.00011  Tot: +0.00009 ]
	SubspaceRotationAdjust: set factor to 0.0412
ElecMinimize: Iter:   8  G: -1041.764241697901525  |grad|_K:  7.830e-06  alpha:  9.180e-02  linmin: -4.902e-03  t[s]:    502.02
	Linear fluid (dielectric constant: 78.4, screening length: 8.12261 Bohr) occupying 0.546011 of unit cell:	Completed after 20 iterations at t[s]:    516.13
ElecMinimize: 	Predicted alpha/alphaT>3.000000, increasing alphaT to 2.754135e-01.
	Linear fluid (dielectric constant: 78.4, screening length: 8.12261 Bohr) occupying 0.548468 of unit cell:	Completed after 21 iterations at t[s]:    528.60
	Linear fluid (dielectric constant: 78.4, screening length: 8.12261 Bohr) occupying 0.553507 of unit cell:	Completed after 23 iterations at t[s]:    541.29
	FillingsUpdate:  mu: -0.134500000  nElectrons: 192.625785  magneticMoment: [ Abs: 0.00011  Tot: +0.00009 ]
	SubspaceRotationAdjust: set factor to 0.0451
ElecMinimize: Iter:   9  G: -1041.769081546053712  |grad|_K:  1.105e-05  alpha:  6.926e-01  linmin:  2.398e-03  t[s]:    558.37
	Linear fluid (dielectric constant: 78.4, screening length: 8.12261 Bohr) occupying 0.542788 of unit cell:	Completed after 27 iterations at t[s]:    573.22
	Linear fluid (dielectric constant: 78.4, screening length: 8.12261 Bohr) occupying 0.551049 of unit cell:	Completed after 26 iterations at t[s]:    586.24
	FillingsUpdate:  mu: -0.134500000  nElectrons: 192.612964  magneticMoment: [ Abs: 0.00011  Tot: +0.00008 ]
	SubspaceRotationAdjust: set factor to 0.0353
ElecMinimize: Iter:  10  G: -1041.771349366733375  |grad|_K:  8.061e-06  alpha:  1.694e-01  linmin: -9.732e-04  t[s]:    603.33
	Linear fluid (dielectric constant: 78.4, screening length: 8.12261 Bohr) occupying 0.552620 of unit cell:	Completed after 21 iterations at t[s]:    617.54
	Linear fluid (dielectric constant: 78.4, screening length: 8.12261 Bohr) occupying 0.553821 of unit cell:	Completed after 20 iterations at t[s]:    629.91
	FillingsUpdate:  mu: -0.134500000  nElectrons: 192.674518  magneticMoment: [ Abs: 0.00010  Tot: +0.00008 ]
	SubspaceRotationAdjust: set factor to 0.051
ElecMinimize: Iter:  11  G: -1041.773657544840034  |grad|_K:  5.272e-06  alpha:  3.107e-01  linmin:  7.960e-04  t[s]:    646.92
	Linear fluid (dielectric constant: 78.4, screening length: 8.12261 Bohr) occupying 0.557492 of unit cell:	Completed after 25 iterations at t[s]:    661.57
	Linear fluid (dielectric constant: 78.4, screening length: 8.12261 Bohr) occupying 0.556680 of unit cell:	Completed after 18 iterations at t[s]:    673.75
	FillingsUpdate:  mu: -0.134500000  nElectrons: 192.726967  magneticMoment: [ Abs: 0.00010  Tot: +0.00008 ]
	SubspaceRotationAdjust: set factor to 0.0351
ElecMinimize: Iter:  12  G: -1041.774388029863530  |grad|_K:  6.262e-06  alpha:  2.376e-01  linmin:  2.600e-04  t[s]:    690.82
	Linear fluid (dielectric constant: 78.4, screening length: 8.12261 Bohr) occupying 0.555012 of unit cell:	Completed after 22 iterations at t[s]:    705.18
	Linear fluid (dielectric constant: 78.4, screening length: 8.12261 Bohr) occupying 0.554660 of unit cell:	Completed after 15 iterations at t[s]:    716.99
	FillingsUpdate:  mu: -0.134500000  nElectrons: 192.714010  magneticMoment: [ Abs: 0.00010  Tot: +0.00008 ]
	SubspaceRotationAdjust: set factor to 0.0391
ElecMinimize: Iter:  13  G: -1041.775638196384307  |grad|_K:  4.267e-06  alpha:  2.858e-01  linmin:  5.211e-04  t[s]:    734.03
	Linear fluid (dielectric constant: 78.4, screening length: 8.12261 Bohr) occupying 0.554445 of unit cell:	Completed after 20 iterations at t[s]:    748.14
	Linear fluid (dielectric constant: 78.4, screening length: 8.12261 Bohr) occupying 0.554071 of unit cell:	Completed after 20 iterations at t[s]:    760.48
	FillingsUpdate:  mu: -0.134500000  nElectrons: 192.725351  magneticMoment: [ Abs: 0.00010  Tot: +0.00008 ]
	SubspaceRotationAdjust: set factor to 0.0455
ElecMinimize: Iter:  14  G: -1041.777028433396254  |grad|_K:  4.301e-06  alpha:  6.925e-01  linmin:  4.835e-04  t[s]:    777.57
	Linear fluid (dielectric constant: 78.4, screening length: 8.12261 Bohr) occupying 0.558126 of unit cell:	Completed after 25 iterations at t[s]:    792.25
	Linear fluid (dielectric constant: 78.4, screening length: 8.12261 Bohr) occupying 0.556866 of unit cell:	Completed after 21 iterations at t[s]:    804.80
	FillingsUpdate:  mu: -0.134500000  nElectrons: 192.781999  magneticMoment: [ Abs: 0.00009  Tot: +0.00008 ]
	SubspaceRotationAdjust: set factor to 0.0379
ElecMinimize: Iter:  15  G: -1041.777940247560764  |grad|_K:  6.075e-06  alpha:  4.562e-01  linmin:  1.030e-04  t[s]:    821.89
	Linear fluid (dielectric constant: 78.4, screening length: 8.12261 Bohr) occupying 0.553372 of unit cell:	Completed after 25 iterations at t[s]:    836.53
	Linear fluid (dielectric constant: 78.4, screening length: 8.12261 Bohr) occupying 0.555317 of unit cell:	Completed after 23 iterations at t[s]:    849.23
	FillingsUpdate:  mu: -0.134500000  nElectrons: 192.769009  magneticMoment: [ Abs: 0.00009  Tot: +0.00007 ]
	SubspaceRotationAdjust: set factor to 0.029
ElecMinimize: Iter:  16  G: -1041.778855043277190  |grad|_K:  4.399e-06  alpha:  2.183e-01  linmin: -1.958e-04  t[s]:    866.31
	Linear fluid (dielectric constant: 78.4, screening length: 8.12261 Bohr) occupying 0.555819 of unit cell:	Completed after 17 iterations at t[s]:    880.07
ElecMinimize: 	Predicted alpha/alphaT>3.000000, increasing alphaT to 6.549661e-01.
	Linear fluid (dielectric constant: 78.4, screening length: 8.12261 Bohr) occupying 0.556607 of unit cell:	Completed after 20 iterations at t[s]:    892.41
	Linear fluid (dielectric constant: 78.4, screening length: 8.12261 Bohr) occupying 0.556650 of unit cell:	Completed after 10 iterations at t[s]:    903.73
	FillingsUpdate:  mu: -0.134500000  nElectrons: 192.810136  magneticMoment: [ Abs: 0.00008  Tot: +0.00007 ]
	SubspaceRotationAdjust: set factor to 0.0349
ElecMinimize: Iter:  17  G: -1041.780359995817662  |grad|_K:  4.976e-06  alpha:  6.843e-01  linmin: -1.484e-08  t[s]:    920.81
	Linear fluid (dielectric constant: 78.4, screening length: 8.12261 Bohr) occupying 0.560728 of unit cell:	Completed after 26 iterations at t[s]:    935.56
	Linear fluid (dielectric constant: 78.4, screening length: 8.12261 Bohr) occupying 0.559657 of unit cell:	Completed after 22 iterations at t[s]:    948.53
	FillingsUpdate:  mu: -0.134500000  nElectrons: 192.883289  magneticMoment: [ Abs: 0.00008  Tot: +0.00007 ]
	SubspaceRotationAdjust: set factor to 0.0303
ElecMinimize: Iter:  18  G: -1041.781629414358576  |grad|_K:  5.608e-06  alpha:  4.670e-01  linmin: -5.712e-05  t[s]:    966.79
	Linear fluid (dielectric constant: 78.4, screening length: 8.12261 Bohr) occupying 0.557604 of unit cell:	Completed after 24 iterations at t[s]:    982.78
	Linear fluid (dielectric constant: 78.4, screening length: 8.12261 Bohr) occupying 0.558524 of unit cell:	Completed after 21 iterations at t[s]:    996.78
	FillingsUpdate:  mu: -0.134500000  nElectrons: 192.877143  magneticMoment: [ Abs: 0.00007  Tot: +0.00007 ]
	SubspaceRotationAdjust: set factor to 0.0231
ElecMinimize: Iter:  19  G: -1041.782627364112614  |grad|_K:  4.358e-06  alpha:  2.758e-01  linmin: -1.231e-04  t[s]:   1014.71
	Linear fluid (dielectric constant: 78.4, screening length: 8.12261 Bohr) occupying 0.559064 of unit cell:	Completed after 18 iterations at t[s]:   1029.93
	Linear fluid (dielectric constant: 78.4, screening length: 8.12261 Bohr) occupying 0.559438 of unit cell:	Completed after 18 iterations at t[s]:   1043.45
	FillingsUpdate:  mu: -0.134500000  nElectrons: 192.914194  magneticMoment: [ Abs: 0.00007  Tot: +0.00006 ]
	SubspaceRotationAdjust: set factor to 0.0265
ElecMinimize: Iter:  20  G: -1041.783726370340446  |grad|_K:  3.586e-06  alpha:  5.123e-01  linmin:  1.179e-04  t[s]:   1062.30
	Linear fluid (dielectric constant: 78.4, screening length: 8.12261 Bohr) occupying 0.560779 of unit cell:	Completed after 23 iterations at t[s]:   1078.43
	Linear fluid (dielectric constant: 78.4, screening length: 8.12261 Bohr) occupying 0.560636 of unit cell:	Completed after 15 iterations at t[s]:   1091.77
	FillingsUpdate:  mu: -0.134500000  nElectrons: 192.952229  magneticMoment: [ Abs: 0.00006  Tot: +0.00006 ]
	SubspaceRotationAdjust: set factor to 0.0237
ElecMinimize: Iter:  21  G: -1041.784374334079303  |grad|_K:  3.268e-06  alpha:  4.524e-01  linmin: -1.099e-04  t[s]:   1109.77
	Linear fluid (dielectric constant: 78.4, screening length: 8.12261 Bohr) occupying 0.559612 of unit cell:	Completed after 23 iterations at t[s]:   1125.72
	Linear fluid (dielectric constant: 78.4, screening length: 8.12261 Bohr) occupying 0.559971 of unit cell:	Completed after 17 iterations at t[s]:   1139.22
	FillingsUpdate:  mu: -0.134500000  nElectrons: 192.945320  magneticMoment: [ Abs: 0.00006  Tot: +0.00005 ]
	SubspaceRotationAdjust: set factor to 0.0187
ElecMinimize: Iter:  22  G: -1041.784734057297101  |grad|_K:  2.311e-06  alpha:  2.968e-01  linmin: -9.392e-06  t[s]:   1158.00
	Linear fluid (dielectric constant: 78.4, screening length: 8.12261 Bohr) occupying 0.560097 of unit cell:	Completed after 14 iterations at t[s]:   1173.21
	Linear fluid (dielectric constant: 78.4, screening length: 8.12261 Bohr) occupying 0.560163 of unit cell:	Completed after 13 iterations at t[s]:   1186.05
	FillingsUpdate:  mu: -0.134500000  nElectrons: 192.955449  magneticMoment: [ Abs: 0.00006  Tot: +0.00005 ]
	SubspaceRotationAdjust: set factor to 0.0219
ElecMinimize: Iter:  23  G: -1041.785011125620258  |grad|_K:  1.689e-06  alpha:  4.610e-01  linmin: -1.938e-05  t[s]:   1204.29
	Linear fluid (dielectric constant: 78.4, screening length: 8.12261 Bohr) occupying 0.560525 of unit cell:	Completed after 17 iterations at t[s]:   1219.69
	Linear fluid (dielectric constant: 78.4, screening length: 8.12261 Bohr) occupying 0.560514 of unit cell:	Completed after 8 iterations at t[s]:   1232.11
	FillingsUpdate:  mu: -0.134500000  nElectrons: 192.966322  magneticMoment: [ Abs: 0.00006  Tot: +0.00005 ]
	SubspaceRotationAdjust: set factor to 0.0206
ElecMinimize: Iter:  24  G: -1041.785154655180804  |grad|_K:  1.423e-06  alpha:  4.472e-01  linmin: -4.486e-05  t[s]:   1250.84
	Linear fluid (dielectric constant: 78.4, screening length: 8.12261 Bohr) occupying 0.560183 of unit cell:	Completed after 17 iterations at t[s]:   1266.42
	Linear fluid (dielectric constant: 78.4, screening length: 8.12261 Bohr) occupying 0.560245 of unit cell:	Completed after 14 iterations at t[s]:   1279.03
	FillingsUpdate:  mu: -0.134500000  nElectrons: 192.962038  magneticMoment: [ Abs: 0.00006  Tot: +0.00005 ]
	SubspaceRotationAdjust: set factor to 0.0185
ElecMinimize: Iter:  25  G: -1041.785238007910493  |grad|_K:  1.027e-06  alpha:  3.654e-01  linmin:  2.718e-05  t[s]:   1297.78
	Linear fluid (dielectric constant: 78.4, screening length: 8.12261 Bohr) occupying 0.560295 of unit cell:	Completed after 14 iterations at t[s]:   1312.63
	Linear fluid (dielectric constant: 78.4, screening length: 8.12261 Bohr) occupying 0.560307 of unit cell:	Completed after 10 iterations at t[s]:   1325.14
	FillingsUpdate:  mu: -0.134500000  nElectrons: 192.964356  magneticMoment: [ Abs: 0.00006  Tot: +0.00005 ]
	SubspaceRotationAdjust: set factor to 0.0214
ElecMinimize: Iter:  26  G: -1041.785291312797426  |grad|_K:  7.647e-07  alpha:  4.495e-01  linmin: -3.984e-06  t[s]:   1344.01
	Linear fluid (dielectric constant: 78.4, screening length: 8.12261 Bohr) occupying 0.560380 of unit cell:	Completed after 14 iterations at t[s]:   1359.23
	Linear fluid (dielectric constant: 78.4, screening length: 8.12261 Bohr) occupying 0.560385 of unit cell:	Completed after 4 iterations at t[s]:   1370.42
	FillingsUpdate:  mu: -0.134500000  nElectrons: 192.966518  magneticMoment: [ Abs: 0.00006  Tot: +0.00005 ]
	SubspaceRotationAdjust: set factor to 0.0224
ElecMinimize: Iter:  27  G: -1041.785322903986071  |grad|_K:  6.511e-07  alpha:  4.804e-01  linmin:  7.320e-06  t[s]:   1389.10
	Linear fluid (dielectric constant: 78.4, screening length: 8.12261 Bohr) occupying 0.560185 of unit cell:	Completed after 15 iterations at t[s]:   1404.10
	Linear fluid (dielectric constant: 78.4, screening length: 8.12261 Bohr) occupying 0.560215 of unit cell:	Completed after 10 iterations at t[s]:   1416.68
	FillingsUpdate:  mu: -0.134500000  nElectrons: 192.962886  magneticMoment: [ Abs: 0.00006  Tot: +0.00005 ]
	SubspaceRotationAdjust: set factor to 0.0219
ElecMinimize: Iter:  28  G: -1041.785342354935210  |grad|_K:  5.361e-07  alpha:  4.078e-01  linmin:  1.156e-04  t[s]:   1435.70
	Linear fluid (dielectric constant: 78.4, screening length: 8.12261 Bohr) occupying 0.560240 of unit cell:	Completed after 12 iterations at t[s]:   1450.35
	Linear fluid (dielectric constant: 78.4, screening length: 8.12261 Bohr) occupying 0.560244 of unit cell:	Completed after 9 iterations at t[s]:   1462.99
	FillingsUpdate:  mu: -0.134500000  nElectrons: 192.963489  magneticMoment: [ Abs: 0.00005  Tot: +0.00005 ]
	SubspaceRotationAdjust: set factor to 0.025
ElecMinimize: Iter:  29  G: -1041.785357450278980  |grad|_K:  4.512e-07  alpha:  4.684e-01  linmin:  2.704e-06  t[s]:   1481.55
	Linear fluid (dielectric constant: 78.4, screening length: 8.12261 Bohr) occupying 0.560212 of unit cell:	Completed after 12 iterations at t[s]:   1496.03
	Linear fluid (dielectric constant: 78.4, screening length: 8.12261 Bohr) occupying 0.560204 of unit cell:	Completed after 3 iterations at t[s]:   1507.67
	FillingsUpdate:  mu: -0.134500000  nElectrons: 192.962476  magneticMoment: [ Abs: 0.00005  Tot: +0.00005 ]
	SubspaceRotationAdjust: set factor to 0.0295
ElecMinimize: Iter:  30  G: -1041.785370833538536  |grad|_K:  4.296e-07  alpha:  5.845e-01  linmin: -1.851e-05  t[s]:   1526.58
	Linear fluid (dielectric constant: 78.4, screening length: 8.12261 Bohr) occupying 0.559986 of unit cell:	Completed after 15 iterations at t[s]:   1541.72
	Linear fluid (dielectric constant: 78.4, screening length: 8.12261 Bohr) occupying 0.560016 of unit cell:	Completed after 10 iterations at t[s]:   1554.49
	FillingsUpdate:  mu: -0.134500000  nElectrons: 192.958203  magneticMoment: [ Abs: 0.00005  Tot: +0.00005 ]
	SubspaceRotationAdjust: set factor to 0.0299
ElecMinimize: Iter:  31  G: -1041.785381295165507  |grad|_K:  4.726e-07  alpha:  5.029e-01  linmin:  6.439e-05  t[s]:   1572.83
	Linear fluid (dielectric constant: 78.4, screening length: 8.12261 Bohr) occupying 0.560053 of unit cell:	Completed after 15 iterations at t[s]:   1587.86
	Linear fluid (dielectric constant: 78.4, screening length: 8.12261 Bohr) occupying 0.560046 of unit cell:	Completed after 11 iterations at t[s]:   1600.51
	FillingsUpdate:  mu: -0.134500000  nElectrons: 192.958661  magneticMoment: [ Abs: 0.00005  Tot: +0.00005 ]
	SubspaceRotationAdjust: set factor to 0.0284
ElecMinimize: Iter:  32  G: -1041.785391235580619  |grad|_K:  4.453e-07  alpha:  3.974e-01  linmin: -2.453e-05  t[s]:   1619.37
	Linear fluid (dielectric constant: 78.4, screening length: 8.12261 Bohr) occupying 0.559896 of unit cell:	Completed after 14 iterations at t[s]:   1634.45
	Linear fluid (dielectric constant: 78.4, screening length: 8.12261 Bohr) occupying 0.559819 of unit cell:	Completed after 11 iterations at t[s]:   1647.34
	FillingsUpdate:  mu: -0.134500000  nElectrons: 192.953454  magneticMoment: [ Abs: 0.00005  Tot: +0.00005 ]
	SubspaceRotationAdjust: set factor to 0.0306
ElecMinimize: Iter:  33  G: -1041.785404601158689  |grad|_K:  4.527e-07  alpha:  6.004e-01  linmin:  5.916e-05  t[s]:   1665.49
	Linear fluid (dielectric constant: 78.4, screening length: 8.12261 Bohr) occupying 0.559660 of unit cell:	Completed after 14 iterations at t[s]:   1680.31
	Linear fluid (dielectric constant: 78.4, screening length: 8.12261 Bohr) occupying 0.559654 of unit cell:	Completed after 2 iterations at t[s]:   1691.96
	FillingsUpdate:  mu: -0.134500000  nElectrons: 192.949601  magneticMoment: [ Abs: 0.00005  Tot: +0.00004 ]
	SubspaceRotationAdjust: set factor to 0.0344
ElecMinimize: Iter:  34  G: -1041.785418895298335  |grad|_K:  4.547e-07  alpha:  6.236e-01  linmin: -1.427e-05  t[s]:   1710.85
	Linear fluid (dielectric constant: 78.4, screening length: 8.12261 Bohr) occupying 0.559578 of unit cell:	Completed after 15 iterations at t[s]:   1725.98
	Linear fluid (dielectric constant: 78.4, screening length: 8.12261 Bohr) occupying 0.559580 of unit cell:	Completed after 2 iterations at t[s]:   1737.81
	FillingsUpdate:  mu: -0.134500000  nElectrons: 192.947710  magneticMoment: [ Abs: 0.00005  Tot: +0.00004 ]
	SubspaceRotationAdjust: set factor to 0.037
ElecMinimize: Iter:  35  G: -1041.785432891623032  |grad|_K:  4.777e-07  alpha:  6.012e-01  linmin: -2.770e-05  t[s]:   1755.82
	Linear fluid (dielectric constant: 78.4, screening length: 8.12261 Bohr) occupying 0.559260 of unit cell:	Completed after 17 iterations at t[s]:   1771.00
	Linear fluid (dielectric constant: 78.4, screening length: 8.12261 Bohr) occupying 0.559362 of unit cell:	Completed after 14 iterations at t[s]:   1784.14
	FillingsUpdate:  mu: -0.134500000  nElectrons: 192.942875  magneticMoment: [ Abs: 0.00004  Tot: +0.00004 ]
	SubspaceRotationAdjust: set factor to 0.0334
ElecMinimize: Iter:  36  G: -1041.785443521092702  |grad|_K:  5.566e-07  alpha:  4.116e-01  linmin: -1.174e-05  t[s]:   1803.01
	Linear fluid (dielectric constant: 78.4, screening length: 8.12261 Bohr) occupying 0.559509 of unit cell:	Completed after 15 iterations at t[s]:   1818.29
	Linear fluid (dielectric constant: 78.4, screening length: 8.12261 Bohr) occupying 0.559466 of unit cell:	Completed after 13 iterations at t[s]:   1831.21
	FillingsUpdate:  mu: -0.134500000  nElectrons: 192.944879  magneticMoment: [ Abs: 0.00004  Tot: +0.00004 ]
	SubspaceRotationAdjust: set factor to 0.0283
ElecMinimize: Iter:  37  G: -1041.785453665052501  |grad|_K:  4.427e-07  alpha:  2.910e-01  linmin: -1.139e-05  t[s]:   1849.44
	Linear fluid (dielectric constant: 78.4, screening length: 8.12261 Bohr) occupying 0.559427 of unit cell:	Completed after 11 iterations at t[s]:   1864.07
	Linear fluid (dielectric constant: 78.4, screening length: 8.12261 Bohr) occupying 0.559399 of unit cell:	Completed after 10 iterations at t[s]:   1876.74
	FillingsUpdate:  mu: -0.134500000  nElectrons: 192.943351  magneticMoment: [ Abs: 0.00004  Tot: +0.00004 ]
	SubspaceRotationAdjust: set factor to 0.0315
ElecMinimize: Iter:  38  G: -1041.785464655634769  |grad|_K:  3.834e-07  alpha:  4.983e-01  linmin:  3.495e-06  t[s]:   1895.53
	Linear fluid (dielectric constant: 78.4, screening length: 8.12261 Bohr) occupying 0.559365 of unit cell:	Completed after 10 iterations at t[s]:   1910.22
	Linear fluid (dielectric constant: 78.4, screening length: 8.12261 Bohr) occupying 0.559362 of unit cell:	Completed after 2 iterations at t[s]:   1921.63
	FillingsUpdate:  mu: -0.134500000  nElectrons: 192.942597  magneticMoment: [ Abs: 0.00004  Tot: +0.00003 ]
	SubspaceRotationAdjust: set factor to 0.0343
ElecMinimize: Iter:  39  G: -1041.785473500739727  |grad|_K:  3.361e-07  alpha:  5.353e-01  linmin:  1.125e-06  t[s]:   1940.11
	Linear fluid (dielectric constant: 78.4, screening length: 8.12261 Bohr) occupying 0.559446 of unit cell:	Completed after 14 iterations at t[s]:   1955.13
	Linear fluid (dielectric constant: 78.4, screening length: 8.12261 Bohr) occupying 0.559431 of unit cell:	Completed after 9 iterations at t[s]:   1967.58
	FillingsUpdate:  mu: -0.134500000  nElectrons: 192.944166  magneticMoment: [ Abs: 0.00004  Tot: +0.00003 ]
	SubspaceRotationAdjust: set factor to 0.033
ElecMinimize: Iter:  40  G: -1041.785479090661738  |grad|_K:  3.253e-07  alpha:  4.401e-01  linmin:  1.448e-05  t[s]:   1986.45
	Linear fluid (dielectric constant: 78.4, screening length: 8.12261 Bohr) occupying 0.559280 of unit cell:	Completed after 14 iterations at t[s]:   2001.69
	Linear fluid (dielectric constant: 78.4, screening length: 8.12261 Bohr) occupying 0.559341 of unit cell:	Completed after 13 iterations at t[s]:   2013.90
	FillingsUpdate:  mu: -0.134500000  nElectrons: 192.942386  magneticMoment: [ Abs: 0.00004  Tot: +0.00003 ]
	SubspaceRotationAdjust: set factor to 0.0263
ElecMinimize: Iter:  41  G: -1041.785482222314386  |grad|_K:  2.638e-07  alpha:  2.634e-01  linmin:  3.917e-06  t[s]:   2032.51
	Linear fluid (dielectric constant: 78.4, screening length: 8.12261 Bohr) occupying 0.559376 of unit cell:	Completed after 11 iterations at t[s]:   2047.07
	Linear fluid (dielectric constant: 78.4, screening length: 8.12261 Bohr) occupying 0.559394 of unit cell:	Completed after 10 iterations at t[s]:   2059.62
	FillingsUpdate:  mu: -0.134500000  nElectrons: 192.943676  magneticMoment: [ Abs: 0.00003  Tot: +0.00003 ]
	SubspaceRotationAdjust: set factor to 0.0271
ElecMinimize: Iter:  42  G: -1041.785485343304117  |grad|_K:  1.962e-07  alpha:  3.989e-01  linmin:  4.515e-06  t[s]:   2078.62
	Linear fluid (dielectric constant: 78.4, screening length: 8.12261 Bohr) occupying 0.559402 of unit cell:	Completed after 5 iterations at t[s]:   2092.77
	Linear fluid (dielectric constant: 78.4, screening length: 8.12261 Bohr) occupying 0.559404 of unit cell:	Completed after 2 iterations at t[s]:   2103.70
	FillingsUpdate:  mu: -0.134500000  nElectrons: 192.944066  magneticMoment: [ Abs: 0.00003  Tot: +0.00003 ]
	SubspaceRotationAdjust: set factor to 0.0308
ElecMinimize: Iter:  43  G: -1041.785487397947236  |grad|_K:  1.552e-07  alpha:  4.749e-01  linmin: -8.042e-06  t[s]:   2122.38
	Linear fluid (dielectric constant: 78.4, screening length: 8.12261 Bohr) occupying 0.559374 of unit cell:	Completed after 11 iterations at t[s]:   2137.15
	Linear fluid (dielectric constant: 78.4, screening length: 8.12261 Bohr) occupying 0.559375 of unit cell:	Completed after 0 iterations at t[s]:   2148.37
	FillingsUpdate:  mu: -0.134500000  nElectrons: 192.943594  magneticMoment: [ Abs: 0.00003  Tot: +0.00003 ]
	SubspaceRotationAdjust: set factor to 0.031
ElecMinimize: Iter:  44  G: -1041.785488636101263  |grad|_K:  1.433e-07  alpha:  4.565e-01  linmin:  1.029e-04  t[s]:   2167.32
	Linear fluid (dielectric constant: 78.4, screening length: 8.12261 Bohr) occupying 0.559432 of unit cell:	Completed after 13 iterations at t[s]:   2182.39
	Linear fluid (dielectric constant: 78.4, screening length: 8.12261 Bohr) occupying 0.559412 of unit cell:	Completed after 10 iterations at t[s]:   2194.27
	FillingsUpdate:  mu: -0.134500000  nElectrons: 192.944474  magneticMoment: [ Abs: 0.00003  Tot: +0.00003 ]
	SubspaceRotationAdjust: set factor to 0.0267
ElecMinimize: Iter:  45  G: -1041.785489309517970  |grad|_K:  1.263e-07  alpha:  2.970e-01  linmin: -3.197e-05  t[s]:   2212.99
	Linear fluid (dielectric constant: 78.4, screening length: 8.12261 Bohr) occupying 0.559391 of unit cell:	Completed after 10 iterations at t[s]:   2227.60
	Linear fluid (dielectric constant: 78.4, screening length: 8.12261 Bohr) occupying 0.559385 of unit cell:	Completed after 2 iterations at t[s]:   2239.23
	FillingsUpdate:  mu: -0.134500000  nElectrons: 192.943985  magneticMoment: [ Abs: 0.00003  Tot: +0.00003 ]
	SubspaceRotationAdjust: set factor to 0.0294
ElecMinimize: Iter:  46  G: -1041.785490003343511  |grad|_K:  9.609e-08  alpha:  3.852e-01  linmin: -9.571e-05  t[s]:   2258.13
	Linear fluid (dielectric constant: 78.4, screening length: 8.12261 Bohr) occupying 0.559379 of unit cell:	Completed after 3 iterations at t[s]:   2271.84
	Linear fluid (dielectric constant: 78.4, screening length: 8.12261 Bohr) occupying 0.559376 of unit cell:	Completed after 3 iterations at t[s]:   2283.04
	FillingsUpdate:  mu: -0.134500000  nElectrons: 192.943879  magneticMoment: [ Abs: 0.00003  Tot: +0.00003 ]
	SubspaceRotationAdjust: set factor to 0.0352
ElecMinimize: Iter:  47  G: -1041.785490545714993  |grad|_K:  8.936e-08  alpha:  5.186e-01  linmin: -2.410e-06  t[s]:   2301.78
	Linear fluid (dielectric constant: 78.4, screening length: 8.12261 Bohr) occupying 0.559408 of unit cell:	Completed after 11 iterations at t[s]:   2316.50
	Linear fluid (dielectric constant: 78.4, screening length: 8.12261 Bohr) occupying 0.559401 of unit cell:	Completed after 5 iterations at t[s]:   2328.42
	FillingsUpdate:  mu: -0.134500000  nElectrons: 192.944418  magneticMoment: [ Abs: 0.00003  Tot: +0.00003 ]
	SubspaceRotationAdjust: set factor to 0.0333
ElecMinimize: Iter:  48  G: -1041.785490907079975  |grad|_K:  9.940e-08  alpha:  4.000e-01  linmin:  9.464e-05  t[s]:   2347.41
	Linear fluid (dielectric constant: 78.4, screening length: 8.12261 Bohr) occupying 0.559362 of unit cell:	Completed after 11 iterations at t[s]:   2361.88
	Linear fluid (dielectric constant: 78.4, screening length: 8.12261 Bohr) occupying 0.559373 of unit cell:	Completed after 5 iterations at t[s]:   2373.61
	FillingsUpdate:  mu: -0.134500000  nElectrons: 192.943846  magneticMoment: [ Abs: 0.00003  Tot: +0.00003 ]
	SubspaceRotationAdjust: set factor to 0.0295
ElecMinimize: Iter:  49  G: -1041.785491219020287  |grad|_K:  8.335e-08  alpha:  2.861e-01  linmin:  3.361e-05  t[s]:   2392.22
	Linear fluid (dielectric constant: 78.4, screening length: 8.12261 Bohr) occupying 0.559377 of unit cell:	Completed after 9 iterations at t[s]:   2406.64
	Linear fluid (dielectric constant: 78.4, screening length: 8.12261 Bohr) occupying 0.559380 of unit cell:	Completed after 3 iterations at t[s]:   2418.30
	FillingsUpdate:  mu: -0.134500000  nElectrons: 192.943996  magneticMoment: [ Abs: 0.00003  Tot: +0.00003 ]
	SubspaceRotationAdjust: set factor to 0.0337
ElecMinimize: Iter:  50  G: -1041.785491590659376  |grad|_K:  7.085e-08  alpha:  4.719e-01  linmin: -1.607e-04  t[s]:   2437.37
	Linear fluid (dielectric constant: 78.4, screening length: 8.12261 Bohr) occupying 0.559381 of unit cell:	Completed after 3 iterations at t[s]:   2450.71
	Linear fluid (dielectric constant: 78.4, screening length: 8.12261 Bohr) occupying 0.559381 of unit cell:	Completed after 0 iterations at t[s]:   2461.78
	FillingsUpdate:  mu: -0.134500000  nElectrons: 192.943974  magneticMoment: [ Abs: 0.00003  Tot: +0.00003 ]
	SubspaceRotationAdjust: set factor to 0.0383
ElecMinimize: Iter:  51  G: -1041.785491930533681  |grad|_K:  6.944e-08  alpha:  5.850e-01  linmin: -7.182e-05  t[s]:   2480.37
	Linear fluid (dielectric constant: 78.4, screening length: 8.12261 Bohr) occupying 0.559363 of unit cell:	Completed after 9 iterations at t[s]:   2494.75
	Linear fluid (dielectric constant: 78.4, screening length: 8.12261 Bohr) occupying 0.559365 of unit cell:	Completed after 2 iterations at t[s]:   2506.30
	FillingsUpdate:  mu: -0.134500000  nElectrons: 192.943591  magneticMoment: [ Abs: 0.00003  Tot: +0.00003 ]
	SubspaceRotationAdjust: set factor to 0.04
ElecMinimize: Iter:  52  G: -1041.785492212838108  |grad|_K:  7.033e-08  alpha:  5.132e-01  linmin:  1.831e-05  t[s]:   2525.45
	Linear fluid (dielectric constant: 78.4, screening length: 8.12261 Bohr) occupying 0.559396 of unit cell:	Completed after 11 iterations at t[s]:   2539.64
	Linear fluid (dielectric constant: 78.4, screening length: 8.12261 Bohr) occupying 0.559385 of unit cell:	Completed after 6 iterations at t[s]:   2551.50
	FillingsUpdate:  mu: -0.134500000  nElectrons: 192.943960  magneticMoment: [ Abs: 0.00003  Tot: +0.00003 ]
	SubspaceRotationAdjust: set factor to 0.0343
ElecMinimize: Iter:  53  G: -1041.785492397251346  |grad|_K:  7.729e-08  alpha:  3.323e-01  linmin:  4.700e-05  t[s]:   2570.33
	Linear fluid (dielectric constant: 78.4, screening length: 8.12261 Bohr) occupying 0.559360 of unit cell:	Completed after 10 iterations at t[s]:   2584.73
	Linear fluid (dielectric constant: 78.4, screening length: 8.12261 Bohr) occupying 0.559365 of unit cell:	Completed after 2 iterations at t[s]:   2596.39
	FillingsUpdate:  mu: -0.134500000  nElectrons: 192.943478  magneticMoment: [ Abs: 0.00003  Tot: +0.00002 ]
	SubspaceRotationAdjust: set factor to 0.0285
ElecMinimize: Iter:  54  G: -1041.785492571917075  |grad|_K:  6.117e-08  alpha:  2.656e-01  linmin:  8.301e-06  t[s]:   2615.59
	Linear fluid (dielectric constant: 78.4, screening length: 8.12261 Bohr) occupying 0.559370 of unit cell:	Completed after 3 iterations at t[s]:   2628.63
	Linear fluid (dielectric constant: 78.4, screening length: 8.12261 Bohr) occupying 0.559374 of unit cell:	Completed after 3 iterations at t[s]:   2640.28
	FillingsUpdate:  mu: -0.134500000  nElectrons: 192.943595  magneticMoment: [ Abs: 0.00003  Tot: +0.00002 ]
	SubspaceRotationAdjust: set factor to 0.0301
ElecMinimize: Iter:  55  G: -1041.785492764606033  |grad|_K:  5.383e-08  alpha:  4.561e-01  linmin: -4.609e-05  t[s]:   2659.08
	Linear fluid (dielectric constant: 78.4, screening length: 8.12261 Bohr) occupying 0.559370 of unit cell:	Completed after 3 iterations at t[s]:   2672.74
	Linear fluid (dielectric constant: 78.4, screening length: 8.12261 Bohr) occupying 0.559370 of unit cell:	Completed after 0 iterations at t[s]:   2684.05
	FillingsUpdate:  mu: -0.134500000  nElectrons: 192.943447  magneticMoment: [ Abs: 0.00002  Tot: +0.00002 ]
	SubspaceRotationAdjust: set factor to 0.0342
ElecMinimize: Iter:  56  G: -1041.785492939106689  |grad|_K:  4.873e-08  alpha:  5.271e-01  linmin: -5.574e-05  t[s]:   2703.21
	Linear fluid (dielectric constant: 78.4, screening length: 8.12261 Bohr) occupying 0.559373 of unit cell:	Completed after 3 iterations at t[s]:   2716.26
	Linear fluid (dielectric constant: 78.4, screening length: 8.12261 Bohr) occupying 0.559374 of unit cell:	Completed after 0 iterations at t[s]:   2727.37
	FillingsUpdate:  mu: -0.134500000  nElectrons: 192.943474  magneticMoment: [ Abs: 0.00002  Tot: +0.00002 ]
	SubspaceRotationAdjust: set factor to 0.0396
ElecMinimize: Iter:  57  G: -1041.785493093969535  |grad|_K:  4.649e-08  alpha:  5.695e-01  linmin: -4.017e-05  t[s]:   2746.18
	Linear fluid (dielectric constant: 78.4, screening length: 8.12261 Bohr) occupying 0.559384 of unit cell:	Completed after 3 iterations at t[s]:   2759.73
	Linear fluid (dielectric constant: 78.4, screening length: 8.12261 Bohr) occupying 0.559384 of unit cell:	Completed after 0 iterations at t[s]:   2771.02
	FillingsUpdate:  mu: -0.134500000  nElectrons: 192.943644  magneticMoment: [ Abs: 0.00002  Tot: +0.00002 ]
	SubspaceRotationAdjust: set factor to 0.0436
ElecMinimize: Iter:  58  G: -1041.785493228192763  |grad|_K:  4.855e-08  alpha:  5.454e-01  linmin:  1.329e-05  t[s]:   2790.14
	Linear fluid (dielectric constant: 78.4, screening length: 8.12261 Bohr) occupying 0.559365 of unit cell:	Completed after 10 iterations at t[s]:   2804.01
	Linear fluid (dielectric constant: 78.4, screening length: 8.12261 Bohr) occupying 0.559371 of unit cell:	Completed after 4 iterations at t[s]:   2815.77
	FillingsUpdate:  mu: -0.134500000  nElectrons: 192.943345  magneticMoment: [ Abs: 0.00002  Tot: +0.00002 ]
	SubspaceRotationAdjust: set factor to 0.0386
ElecMinimize: Iter:  59  G: -1041.785493326940923  |grad|_K:  5.466e-08  alpha:  3.680e-01  linmin:  5.294e-05  t[s]:   2834.66
	Linear fluid (dielectric constant: 78.4, screening length: 8.12261 Bohr) occupying 0.559396 of unit cell:	Completed after 10 iterations at t[s]:   2849.15
	Linear fluid (dielectric constant: 78.4, screening length: 8.12261 Bohr) occupying 0.559388 of unit cell:	Completed after 3 iterations at t[s]:   2860.92
	FillingsUpdate:  mu: -0.134500000  nElectrons: 192.943672  magneticMoment: [ Abs: 0.00002  Tot: +0.00002 ]
	SubspaceRotationAdjust: set factor to 0.0298
ElecMinimize: Iter:  60  G: -1041.785493404931685  |grad|_K:  4.618e-08  alpha:  2.398e-01  linmin:  4.388e-05  t[s]:   2880.09
ElecMinimize: Converged (|Delta G|<1.000000e-07 for 2 iters).
Setting wave functions to eigenvectors of Hamiltonian
Converging empty states (this may take a while): |deigs|: 8.096e-04

Computing DFT-D3 correction:
# coordination-number Pt 5.937 7.116 9.422 9.322 9.273 7.651 7.654 9.272 9.320 9.424 7.123 5.939
# diagonal-C6 Pt 336.87 336.87 336.87 336.87 336.87 336.87 336.87 336.87 336.87 336.87 336.87 336.87
EvdW_6 =   -0.093362
EvdW_8 =   -0.155988

# Ionic positions in cartesian coordinates:
ion Pt   0.000120000000000   0.325481000000000  17.096232000000001 1
ion Pt  -0.000262000000000   4.007308000000000   2.157500000000000 1
ion Pt  -0.000021000000000   8.525387000000000   5.424145000000000 1
ion Pt  -0.000115000000000  -0.007856000000000   8.224055999999999 1
ion Pt   0.000162000000000   4.344913000000000  11.340306000000000 1
ion Pt   0.000288000000000   8.667821000000000  14.695850000000000 1
ion Pt   2.615773000000000  -0.123749000000000   3.430034000000000 1
ion Pt   2.615841000000000   4.198737000000000   6.780358000000000 1
ion Pt   2.616155000000000   8.552645999999999   9.901774000000000 1
ion Pt   2.616019000000001   0.018698000000000  12.702392000000000 1
ion Pt   2.616244000000000   4.535007999999999  15.961207000000000 1
ion Pt   2.615789000000000   8.218477000000000   1.031174000000000 1

# Forces in Cartesian coordinates:
force Pt   0.000002097007731   0.000288256751868   0.001466447058632 1
force Pt  -0.000001806289817   0.000636668275095  -0.002078524952479 1
force Pt  -0.000000201438030   0.000661158734152  -0.000127532159717 1
force Pt   0.000000380116520   0.000097794102499  -0.001177258057842 1
force Pt   0.000001407836342   0.000096632012776   0.000511917189056 1
force Pt   0.000002526001086   0.001293485411430  -0.000028340073498 1
force Pt  -0.000001645817084  -0.001305721673478   0.000015435160754 1
force Pt  -0.000001532679588  -0.000082273741222  -0.000385217994808 1
force Pt   0.000000571455442  -0.000154943110471   0.001188393281015 1
force Pt   0.000000729170058  -0.000614251150592   0.000192326488424 1
force Pt   0.000002923009786  -0.000717532009169   0.002035738119678 1
force Pt  -0.000001521753947  -0.000199809659970   0.000494400447817 1

# Energy components:
   A_diel =       -0.3459436468995422
   Eewald =     6051.0069256065135050
       EH =     7043.8947650548288948
     Eloc =   -14347.2857261285462300
      Enl =      -12.6023079395546791
     EvdW =       -0.2493496135758904
      Exc =     -341.5210847454039822
 Exc_core =      196.6965788137295874
       KE =      342.7206820894357406
  MuShift =       -0.0493097008522963
-------------------------------------
     Etot =    -1067.7347702103249958
       TS =        0.0016470837122408
-------------------------------------
        F =    -1067.7364172940372100
      muN =      -25.9509238891055141
-------------------------------------
        G =    -1041.7854934049316853


Dumping 'jdft.fillings' ... done
Dumping 'jdft.wfns' ... done
Dumping 'jdft.fluidState' ... done
Dumping 'jdft.ionpos' ... done
Dumping 'jdft.lattice' ... done
Dumping 'jdft.eigenvals' ... done
Dumping 'jdft.eigStats' ... 
	eMin: -2.081725 at state 2 ( [ +0.000000 +0.400000 +0.000000 ] spin 1 )
	HOMO: -0.134567 at state 32 ( [ +0.000000 +0.200000 +0.000000 ] spin -1 )
	mu  : -0.134500
	LUMO: -0.134356 at state 10 ( [ +0.166667 +0.400000 +0.000000 ] spin 1 )
	eMax: +0.145323 at state 61 ( [ +0.500000 +0.400000 +0.000000 ] spin -1 )
	HOMO-LUMO gap: +0.000211
	Optical gap  : +0.001983 at state 31 ( [ +0.000000 +0.000000 +0.000000 ] spin -1 )
Dumping 'jdft.Ecomponents' ... done
IonicMinimize: Iter:   0  G: -1041.785493404931685  |grad|_K:  7.272e-04  t[s]:   2970.06

#--- Lowdin population analysis ---
# oxidation-state Pt -0.181 -0.145 -0.017 +0.015 +0.008 -0.084 -0.085 +0.007 +0.016 -0.018 -0.141 -0.196
# magnetic-moments Pt +0.000 +0.000 +0.000 +0.000 +0.000 +0.000 +0.000 +0.000 +0.000 +0.000 +0.000 +0.000


Computing DFT-D3 correction:
# coordination-number Pt 5.937 7.112 9.422 9.321 9.269 7.653 7.656 9.268 9.320 9.423 7.119 5.941
# diagonal-C6 Pt 336.87 336.87 336.87 336.87 336.87 336.87 336.87 336.87 336.87 336.87 336.87 336.87
EvdW_6 =   -0.093354
EvdW_8 =   -0.155965
Shifting auxilliary hamiltonian by -0.000068 to set nElectrons=192.943672

-------- Electronic minimization -----------
	Linear fluid (dielectric constant: 78.4, screening length: 8.12261 Bohr) occupying 0.559348 of unit cell:	Completed after 15 iterations at t[s]:   2986.32
	FillingsUpdate:  mu: -0.134500000  nElectrons: 192.943672  magneticMoment: [ Abs: 0.00002  Tot: +0.00001 ]
ElecMinimize: Iter:   0  G: -1041.785499976801930  |grad|_K:  6.978e-07  alpha:  1.000e+00
	Linear fluid (dielectric constant: 78.4, screening length: 8.12261 Bohr) occupying 0.560610 of unit cell:	Completed after 23 iterations at t[s]:   3022.68
	Linear fluid (dielectric constant: 78.4, screening length: 8.12261 Bohr) occupying 0.559536 of unit cell:	Completed after 23 iterations at t[s]:   3036.90
	FillingsUpdate:  mu: -0.134500000  nElectrons: 192.947666  magneticMoment: [ Abs: 0.00002  Tot: +0.00001 ]
	SubspaceRotationAdjust: set factor to 0.0174
ElecMinimize: Iter:   1  G: -1041.785507798083927  |grad|_K:  2.568e-07  alpha:  1.451e-01  linmin:  6.739e-03  t[s]:   3056.05
	Linear fluid (dielectric constant: 78.4, screening length: 8.12261 Bohr) occupying 0.559506 of unit cell:	Completed after 10 iterations at t[s]:   3069.77
	Linear fluid (dielectric constant: 78.4, screening length: 8.12261 Bohr) occupying 0.559457 of unit cell:	Completed after 11 iterations at t[s]:   3082.44
	FillingsUpdate:  mu: -0.134500000  nElectrons: 192.946039  magneticMoment: [ Abs: 0.00001  Tot: +0.00001 ]
	SubspaceRotationAdjust: set factor to 0.0237
ElecMinimize: Iter:   2  G: -1041.785510550643721  |grad|_K:  1.156e-07  alpha:  3.767e-01  linmin: -4.470e-04  t[s]:   3101.23
	Linear fluid (dielectric constant: 78.4, screening length: 8.12261 Bohr) occupying 0.559445 of unit cell:	Completed after 4 iterations at t[s]:   3115.07
	Linear fluid (dielectric constant: 78.4, screening length: 8.12261 Bohr) occupying 0.559441 of unit cell:	Completed after 3 iterations at t[s]:   3126.78
	FillingsUpdate:  mu: -0.134500000  nElectrons: 192.945726  magneticMoment: [ Abs: 0.00001  Tot: +0.00001 ]
	SubspaceRotationAdjust: set factor to 0.0298
ElecMinimize: Iter:   3  G: -1041.785511288881935  |grad|_K:  7.744e-08  alpha:  4.913e-01  linmin:  2.288e-04  t[s]:   3145.69
	Linear fluid (dielectric constant: 78.4, screening length: 8.12261 Bohr) occupying 0.559426 of unit cell:	Completed after 4 iterations at t[s]:   3158.99
	Linear fluid (dielectric constant: 78.4, screening length: 8.12261 Bohr) occupying 0.559420 of unit cell:	Completed after 3 iterations at t[s]:   3170.59
	FillingsUpdate:  mu: -0.134500000  nElectrons: 192.945295  magneticMoment: [ Abs: 0.00001  Tot: +0.00001 ]
	SubspaceRotationAdjust: set factor to 0.0366
ElecMinimize: Iter:   4  G: -1041.785511728644906  |grad|_K:  7.209e-08  alpha:  6.543e-01  linmin:  4.563e-05  t[s]:   3189.46
	Linear fluid (dielectric constant: 78.4, screening length: 8.12261 Bohr) occupying 0.559397 of unit cell:	Completed after 6 iterations at t[s]:   3203.48
	Linear fluid (dielectric constant: 78.4, screening length: 8.12261 Bohr) occupying 0.559394 of unit cell:	Completed after 2 iterations at t[s]:   3215.10
	FillingsUpdate:  mu: -0.134500000  nElectrons: 192.944727  magneticMoment: [ Abs: 0.00001  Tot: +0.00001 ]
	SubspaceRotationAdjust: set factor to 0.0422
ElecMinimize: Iter:   5  G: -1041.785512145356051  |grad|_K:  6.225e-08  alpha:  7.151e-01  linmin: -3.262e-05  t[s]:   3233.92
	Linear fluid (dielectric constant: 78.4, screening length: 8.12261 Bohr) occupying 0.559400 of unit cell:	Completed after 10 iterations at t[s]:   3247.99
	Linear fluid (dielectric constant: 78.4, screening length: 8.12261 Bohr) occupying 0.559400 of unit cell:	Completed after 0 iterations at t[s]:   3259.07
	FillingsUpdate:  mu: -0.134500000  nElectrons: 192.944786  magneticMoment: [ Abs: 0.00001  Tot: +0.00001 ]
	SubspaceRotationAdjust: set factor to 0.0361
ElecMinimize: Iter:   6  G: -1041.785512428954007  |grad|_K:  8.044e-08  alpha:  6.474e-01  linmin:  3.881e-04  t[s]:   3278.10
	Linear fluid (dielectric constant: 78.4, screening length: 8.12261 Bohr) occupying 0.559293 of unit cell:	Completed after 14 iterations at t[s]:   3292.96
	Linear fluid (dielectric constant: 78.4, screening length: 8.12261 Bohr) occupying 0.559372 of unit cell:	Completed after 13 iterations at t[s]:   3306.10
	FillingsUpdate:  mu: -0.134500000  nElectrons: 192.944173  magneticMoment: [ Abs: 0.00001  Tot: +0.00001 ]
	SubspaceRotationAdjust: set factor to 0.0239
ElecMinimize: Iter:   7  G: -1041.785512535305088  |grad|_K:  5.816e-08  alpha:  1.662e-01  linmin:  3.284e-04  t[s]:   3324.53
	Linear fluid (dielectric constant: 78.4, screening length: 8.12261 Bohr) occupying 0.559373 of unit cell:	Completed after 2 iterations at t[s]:   3337.90
ElecMinimize: 	Predicted alpha/alphaT>3.000000, increasing alphaT to 4.986540e-01.
	Linear fluid (dielectric constant: 78.4, screening length: 8.12261 Bohr) occupying 0.559373 of unit cell:	Completed after 2 iterations at t[s]:   3349.39
	Linear fluid (dielectric constant: 78.4, screening length: 8.12261 Bohr) occupying 0.559373 of unit cell:	Completed after 0 iterations at t[s]:   3360.61
	FillingsUpdate:  mu: -0.134500000  nElectrons: 192.944108  magneticMoment: [ Abs: 0.00001  Tot: +0.00001 ]
	SubspaceRotationAdjust: set factor to 0.0329
ElecMinimize: Iter:   8  G: -1041.785512720393172  |grad|_K:  4.371e-08  alpha:  5.003e-01  linmin: -1.753e-05  t[s]:   3379.43
	Linear fluid (dielectric constant: 78.4, screening length: 8.12261 Bohr) occupying 0.559389 of unit cell:	Completed after 10 iterations at t[s]:   3394.15
	Linear fluid (dielectric constant: 78.4, screening length: 8.12261 Bohr) occupying 0.559386 of unit cell:	Completed after 1 iterations at t[s]:   3405.64
	FillingsUpdate:  mu: -0.134500000  nElectrons: 192.944320  magneticMoment: [ Abs: 0.00001  Tot: +0.00001 ]
	SubspaceRotationAdjust: set factor to 0.0244
ElecMinimize: Iter:   9  G: -1041.785512802317498  |grad|_K:  5.378e-08  alpha:  3.878e-01  linmin:  2.509e-05  t[s]:   3423.81
	Linear fluid (dielectric constant: 78.4, screening length: 8.12261 Bohr) occupying 0.559363 of unit cell:	Completed after 10 iterations at t[s]:   3438.33
	Linear fluid (dielectric constant: 78.4, screening length: 8.12261 Bohr) occupying 0.559373 of unit cell:	Completed after 5 iterations at t[s]:   3450.36
	FillingsUpdate:  mu: -0.134500000  nElectrons: 192.943998  magneticMoment: [ Abs: 0.00001  Tot: +0.00001 ]
	SubspaceRotationAdjust: set factor to 0.0216
ElecMinimize: Iter:  10  G: -1041.785512872480467  |grad|_K:  3.314e-08  alpha:  2.210e-01  linmin:  1.777e-04  t[s]:   3469.02
ElecMinimize: Converged (|Delta G|<1.000000e-07 for 2 iters).
Setting wave functions to eigenvectors of Hamiltonian
Converging empty states (this may take a while): |deigs|: 8.525e-09

Computing DFT-D3 correction:
# coordination-number Pt 5.937 7.112 9.422 9.321 9.269 7.653 7.656 9.268 9.320 9.423 7.119 5.941
# diagonal-C6 Pt 336.87 336.87 336.87 336.87 336.87 336.87 336.87 336.87 336.87 336.87 336.87 336.87
EvdW_6 =   -0.093354
EvdW_8 =   -0.155965
IonicMinimize: 	Wolfe criterion not satisfied: alpha: 1  (E-E0)/|gdotd0|: -1.02259  gdotd/gdotd0: 0.906882 (taking cubic step)

Computing DFT-D3 correction:
# coordination-number Pt 5.937 7.109 9.422 9.320 9.265 7.654 7.657 9.264 9.319 9.421 7.116 5.943
# diagonal-C6 Pt 336.87 336.87 336.87 336.87 336.87 336.87 336.87 336.87 336.87 336.87 336.87 336.87
EvdW_6 =   -0.093346
EvdW_8 =   -0.155943
Shifting auxilliary hamiltonian by 0.000037 to set nElectrons=192.943998

-------- Electronic minimization -----------
	Linear fluid (dielectric constant: 78.4, screening length: 8.12261 Bohr) occupying 0.559350 of unit cell:	Completed after 15 iterations at t[s]:   3527.33
	FillingsUpdate:  mu: -0.134500000  nElectrons: 192.943998  magneticMoment: [ Abs: 0.00001  Tot: +0.00001 ]
ElecMinimize: Iter:   0  G: -1041.785525589672034  |grad|_K:  3.323e-07  alpha:  1.000e+00
	Linear fluid (dielectric constant: 78.4, screening length: 8.12261 Bohr) occupying 0.559782 of unit cell:	Completed after 18 iterations at t[s]:   3563.52
	Linear fluid (dielectric constant: 78.4, screening length: 8.12261 Bohr) occupying 0.559440 of unit cell:	Completed after 17 iterations at t[s]:   3577.07
	FillingsUpdate:  mu: -0.134500000  nElectrons: 192.945923  magneticMoment: [ Abs: 0.00001  Tot: +0.00001 ]
	SubspaceRotationAdjust: set factor to 0.0138
ElecMinimize: Iter:   1  G: -1041.785528155617385  |grad|_K:  1.463e-07  alpha:  2.062e-01  linmin:  6.853e-04  t[s]:   3595.13
	Linear fluid (dielectric constant: 78.4, screening length: 8.12261 Bohr) occupying 0.559419 of unit cell:	Completed after 10 iterations at t[s]:   3609.48
	Linear fluid (dielectric constant: 78.4, screening length: 8.12261 Bohr) occupying 0.559403 of unit cell:	Completed after 9 iterations at t[s]:   3621.96
	FillingsUpdate:  mu: -0.134500000  nElectrons: 192.945189  magneticMoment: [ Abs: 0.00001  Tot: +0.00001 ]
	SubspaceRotationAdjust: set factor to 0.0167
ElecMinimize: Iter:   2  G: -1041.785529025994720  |grad|_K:  6.830e-08  alpha:  3.609e-01  linmin: -2.487e-03  t[s]:   3640.72
	Linear fluid (dielectric constant: 78.4, screening length: 8.12261 Bohr) occupying 0.559396 of unit cell:	Completed after 3 iterations at t[s]:   3654.65
	Linear fluid (dielectric constant: 78.4, screening length: 8.12261 Bohr) occupying 0.559393 of unit cell:	Completed after 2 iterations at t[s]:   3666.14
	FillingsUpdate:  mu: -0.134500000  nElectrons: 192.945014  magneticMoment: [ Abs: 0.00001  Tot: +0.00001 ]
	SubspaceRotationAdjust: set factor to 0.021
ElecMinimize: Iter:   3  G: -1041.785529296433879  |grad|_K:  4.772e-08  alpha:  5.134e-01  linmin: -4.311e-05  t[s]:   3684.43
	Linear fluid (dielectric constant: 78.4, screening length: 8.12261 Bohr) occupying 0.559390 of unit cell:	Completed after 2 iterations at t[s]:   3698.00
	Linear fluid (dielectric constant: 78.4, screening length: 8.12261 Bohr) occupying 0.559390 of unit cell:	Completed after 0 iterations at t[s]:   3709.30
	FillingsUpdate:  mu: -0.134500000  nElectrons: 192.944990  magneticMoment: [ Abs: 0.00001  Tot: +0.00001 ]
	SubspaceRotationAdjust: set factor to 0.0256
ElecMinimize: Iter:   4  G: -1041.785529456149561  |grad|_K:  4.260e-08  alpha:  6.194e-01  linmin: -5.412e-03  t[s]:   3728.04
	Linear fluid (dielectric constant: 78.4, screening length: 8.12261 Bohr) occupying 0.559379 of unit cell:	Completed after 3 iterations at t[s]:   3741.97
	Linear fluid (dielectric constant: 78.4, screening length: 8.12261 Bohr) occupying 0.559377 of unit cell:	Completed after 2 iterations at t[s]:   3753.40
	FillingsUpdate:  mu: -0.134500000  nElectrons: 192.944730  magneticMoment: [ Abs: 0.00001  Tot: +0.00001 ]
	SubspaceRotationAdjust: set factor to 0.0301
ElecMinimize: Iter:   5  G: -1041.785529608946717  |grad|_K:  3.908e-08  alpha:  7.251e-01  linmin: -1.426e-03  t[s]:   3771.75
	Linear fluid (dielectric constant: 78.4, screening length: 8.12261 Bohr) occupying 0.559370 of unit cell:	Completed after 2 iterations at t[s]:   3785.29
	Linear fluid (dielectric constant: 78.4, screening length: 8.12261 Bohr) occupying 0.559370 of unit cell:	Completed after 0 iterations at t[s]:   3796.51
	FillingsUpdate:  mu: -0.134500000  nElectrons: 192.944577  magneticMoment: [ Abs: 0.00001  Tot: +0.00001 ]
	SubspaceRotationAdjust: set factor to 0.0347
ElecMinimize: Iter:   6  G: -1041.785529748897716  |grad|_K:  3.907e-08  alpha:  8.043e-01  linmin: -6.506e-04  t[s]:   3815.19
	Linear fluid (dielectric constant: 78.4, screening length: 8.12261 Bohr) occupying 0.559371 of unit cell:	Completed after 4 iterations at t[s]:   3829.23
	Linear fluid (dielectric constant: 78.4, screening length: 8.12261 Bohr) occupying 0.559371 of unit cell:	Completed after 2 iterations at t[s]:   3840.60
	FillingsUpdate:  mu: -0.134500000  nElectrons: 192.944562  magneticMoment: [ Abs: 0.00001  Tot: +0.00001 ]
	SubspaceRotationAdjust: set factor to 0.0367
ElecMinimize: Iter:   7  G: -1041.785529857878828  |grad|_K:  3.975e-08  alpha:  6.356e-01  linmin: -1.518e-04  t[s]:   3859.01
	Linear fluid (dielectric constant: 78.4, screening length: 8.12261 Bohr) occupying 0.559339 of unit cell:	Completed after 10 iterations at t[s]:   3873.74
	Linear fluid (dielectric constant: 78.4, screening length: 8.12261 Bohr) occupying 0.559353 of unit cell:	Completed after 8 iterations at t[s]:   3885.95
	FillingsUpdate:  mu: -0.134500000  nElectrons: 192.944159  magneticMoment: [ Abs: 0.00001  Tot: +0.00001 ]
	SubspaceRotationAdjust: set factor to 0.0301
ElecMinimize: Iter:   8  G: -1041.785529920929775  |grad|_K:  4.587e-08  alpha:  3.497e-01  linmin:  7.667e-04  t[s]:   3904.79
	Linear fluid (dielectric constant: 78.4, screening length: 8.12261 Bohr) occupying 0.559363 of unit cell:	Completed after 9 iterations at t[s]:   3919.37
	Linear fluid (dielectric constant: 78.4, screening length: 8.12261 Bohr) occupying 0.559362 of unit cell:	Completed after 0 iterations at t[s]:   3929.93
	FillingsUpdate:  mu: -0.134500000  nElectrons: 192.944305  magneticMoment: [ Abs: 0.00001  Tot: +0.00001 ]
	SubspaceRotationAdjust: set factor to 0.0243
ElecMinimize: Iter:   9  G: -1041.785529994303715  |grad|_K:  3.383e-08  alpha:  3.147e-01  linmin:  1.557e-03  t[s]:   3948.50
ElecMinimize: Converged (|Delta G|<1.000000e-07 for 2 iters).
Setting wave functions to eigenvectors of Hamiltonian
Converging empty states (this may take a while): |deigs|: 4.896e-09

Computing DFT-D3 correction:
# coordination-number Pt 5.937 7.109 9.422 9.320 9.265 7.654 7.657 9.264 9.319 9.421 7.116 5.943
# diagonal-C6 Pt 336.87 336.87 336.87 336.87 336.87 336.87 336.87 336.87 336.87 336.87 336.87 336.87
EvdW_6 =   -0.093346
EvdW_8 =   -0.155943

# Ionic positions in cartesian coordinates:
ion Pt   0.000123518303329   0.326054136999770  17.098798079227137 1
ion Pt  -0.000266241367852   4.008573771579329   2.153018751470232 1
ion Pt  -0.000022050957177   8.526701458082734   5.423542282984405 1
ion Pt  -0.000114894839300  -0.007661498631582   8.221366450581833 1
ion Pt   0.000164148245499   4.345105191159161  11.340974494472288 1
ion Pt   0.000292371132848   8.670392509853594  14.695444474708426 1
ion Pt   2.615769077648473  -0.126344657666491   3.429715498928205 1
ion Pt   2.615837302563370   4.198573530386080   6.779243009112424 1
ion Pt   2.616155485538344   8.552338065250281   9.903787314325534 1
ion Pt   2.616019799071592   0.017476970791434  12.702425155065274 1
ion Pt   2.616249160377566   4.533581650676317  15.964904817555027 1
ion Pt   2.615785324283310   8.218079871519372   1.031807671569213 1

# Forces in Cartesian coordinates:
force Pt   0.000002063326758   0.000144477813765   0.001341968190248 1
force Pt  -0.000002393828792   0.000093205660823  -0.001735360891390 1
force Pt  -0.000000443726321   0.000383788822138   0.000153976443276 1
force Pt   0.000000427659883   0.000054757028247  -0.000803985502400 1
force Pt   0.000001615786476  -0.000048169581371   0.000565364907525 1
force Pt   0.000002507117413   0.000761738043434   0.000340011101374 1
force Pt  -0.000001863111389  -0.000678745342357  -0.000221161368302 1
force Pt  -0.000001306774864   0.000051319515499  -0.000491738151943 1
force Pt   0.000000478823708  -0.000087363531446   0.000753957138377 1
force Pt   0.000000787803495  -0.000338850435718   0.000161117578766 1
force Pt   0.000002853873083  -0.000205558509911   0.001916565936572 1
force Pt  -0.000001551555512  -0.000122116948351   0.000215035677758 1

# Energy components:
   A_diel =       -0.3462255949640882
   Eewald =     6049.3499797104668687
       EH =     7042.2603712892205294
     Eloc =   -14343.9926189560228522
      Enl =      -12.6026292268878972
     EvdW =       -0.2492889606259638
      Exc =     -341.5200737272315337
 Exc_core =      196.6965785802618711
       KE =      342.7183573172722504
  MuShift =       -0.0493427783691187
-------------------------------------
     Etot =    -1067.7348923468805424
       TS =        0.0016466785394728
-------------------------------------
        F =    -1067.7365390254199156
      muN =      -25.9510090311162038
-------------------------------------
        G =    -1041.7855299943037153


Dumping 'jdft.fillings' ... done
Dumping 'jdft.wfns' ... done
Dumping 'jdft.fluidState' ... done
Dumping 'jdft.ionpos' ... done
Dumping 'jdft.lattice' ... done
Dumping 'jdft.eigenvals' ... done
Dumping 'jdft.eigStats' ... 
	eMin: -2.081714 at state 2 ( [ +0.000000 +0.400000 +0.000000 ] spin 1 )
	HOMO: -0.134651 at state 32 ( [ +0.000000 +0.200000 +0.000000 ] spin -1 )
	mu  : -0.134500
	LUMO: -0.134389 at state 18 ( [ +0.333333 +0.000000 +0.000000 ] spin 1 )
	eMax: +0.145282 at state 61 ( [ +0.500000 +0.400000 +0.000000 ] spin -1 )
	HOMO-LUMO gap: +0.000262
	Optical gap  : +0.002031 at state 49 ( [ +0.333333 +0.000000 +0.000000 ] spin -1 )
Dumping 'jdft.Ecomponents' ... done
IonicMinimize: Iter:   1  G: -1041.785529994303715  |grad|_K:  5.658e-04  alpha:  1.988e+00  linmin: -9.379e-01  t[s]:   3990.65

#--- Lowdin population analysis ---
# oxidation-state Pt -0.183 -0.145 -0.017 +0.016 +0.007 -0.084 -0.085 +0.007 +0.015 -0.017 -0.140 -0.197
# magnetic-moments Pt +0.000 +0.000 +0.000 +0.000 +0.000 +0.000 +0.000 +0.000 +0.000 +0.000 +0.000 +0.000


Computing DFT-D3 correction:
# coordination-number Pt 5.926 7.074 9.415 9.306 9.218 7.652 7.664 9.223 9.305 9.398 7.076 5.952
# diagonal-C6 Pt 336.87 336.87 336.87 336.87 336.87 336.87 336.87 336.87 336.87 336.87 336.87 336.87
EvdW_6 =   -0.093245
EvdW_8 =   -0.155677
Shifting auxilliary hamiltonian by -0.000041 to set nElectrons=192.944305

-------- Electronic minimization -----------
	Linear fluid (dielectric constant: 78.4, screening length: 8.12261 Bohr) occupying 0.559463 of unit cell:	Completed after 29 iterations at t[s]:   4008.23
	FillingsUpdate:  mu: -0.134500000  nElectrons: 192.944305  magneticMoment: [ Abs: 0.00001  Tot: +0.00001 ]
ElecMinimize: Iter:   0  G: -1041.707958239349864  |grad|_K:  4.938e-05  alpha:  1.000e+00
	Linear fluid (dielectric constant: 78.4, screening length: 8.12261 Bohr) occupying 0.492732 of unit cell:	Completed after 24 iterations at t[s]:   4044.12
	Linear fluid (dielectric constant: 78.4, screening length: 8.12261 Bohr) occupying 0.548119 of unit cell:	Completed after 36 iterations at t[s]:   4059.63
	FillingsUpdate:  mu: -0.134500000  nElectrons: 192.750020  magneticMoment: [ Abs: 0.00001  Tot: +0.00001 ]
	SubspaceRotationAdjust: set factor to 0.014
ElecMinimize: Iter:   1  G: -1041.767863240242150  |grad|_K:  2.044e-05  alpha:  2.110e-01  linmin: -2.532e-02  t[s]:   4078.59
	Linear fluid (dielectric constant: 78.4, screening length: 8.12261 Bohr) occupying 0.555599 of unit cell:	Completed after 26 iterations at t[s]:   4095.02
	Linear fluid (dielectric constant: 78.4, screening length: 8.12261 Bohr) occupying 0.557301 of unit cell:	Completed after 23 iterations at t[s]:   4108.63
	FillingsUpdate:  mu: -0.134500000  nElectrons: 192.900684  magneticMoment: [ Abs: 0.00001  Tot: +0.00001 ]
	SubspaceRotationAdjust: set factor to 0.0143
ElecMinimize: Iter:   2  G: -1041.780942722101827  |grad|_K:  6.548e-06  alpha:  2.677e-01  linmin: -2.163e-03  t[s]:   4127.26
	Linear fluid (dielectric constant: 78.4, screening length: 8.12261 Bohr) occupying 0.558156 of unit cell:	Completed after 20 iterations at t[s]:   4142.82
	Linear fluid (dielectric constant: 78.4, screening length: 8.12261 Bohr) occupying 0.558454 of unit cell:	Completed after 15 iterations at t[s]:   4155.98
	FillingsUpdate:  mu: -0.134500000  nElectrons: 192.923565  magneticMoment: [ Abs: 0.00001  Tot: +0.00001 ]
	SubspaceRotationAdjust: set factor to 0.0152
ElecMinimize: Iter:   3  G: -1041.782701161785781  |grad|_K:  2.698e-06  alpha:  3.638e-01  linmin:  1.172e-03  t[s]:   4175.13
	Linear fluid (dielectric constant: 78.4, screening length: 8.12261 Bohr) occupying 0.558512 of unit cell:	Completed after 16 iterations at t[s]:   4189.64
	Linear fluid (dielectric constant: 78.4, screening length: 8.12261 Bohr) occupying 0.558519 of unit cell:	Completed after 13 iterations at t[s]:   4202.48
	FillingsUpdate:  mu: -0.134500000  nElectrons: 192.925512  magneticMoment: [ Abs: 0.00001  Tot: +0.00001 ]
	SubspaceRotationAdjust: set factor to 0.0166
ElecMinimize: Iter:   4  G: -1041.783031095433216  |grad|_K:  1.587e-06  alpha:  4.040e-01  linmin:  3.032e-05  t[s]:   4221.16
[...]
	FillingsUpdate:  mu: -0.134500000  nElectrons: 192.965021  magneticMoment: [ Abs: 0.00000  Tot: +0.00000 ]
	SubspaceRotationAdjust: set factor to 0.0234
ElecMinimize: Iter:   2  G: -1041.785673521314720  |grad|_K:  2.152e-07  alpha:  4.667e-01  linmin: -1.837e-04  t[s]:   8225.76
	Linear fluid (dielectric constant: 78.4, screening length: 8.12261 Bohr) occupying 0.559029 of unit cell:	Completed after 10 iterations at t[s]:   8239.85
	Linear fluid (dielectric constant: 78.4, screening length: 8.12261 Bohr) occupying 0.559027 of unit cell:	Completed after 2 iterations at t[s]:   8251.16
	FillingsUpdate:  mu: -0.134500000  nElectrons: 192.964738  magneticMoment: [ Abs: 0.00000  Tot: +0.00000 ]
	SubspaceRotationAdjust: set factor to 0.0281
ElecMinimize: Iter:   3  G: -1041.785676502435308  |grad|_K:  1.657e-07  alpha:  5.719e-01  linmin: -5.076e-04  t[s]:   8269.53
	Linear fluid (dielectric constant: 78.4, screening length: 8.12261 Bohr) occupying 0.558990 of unit cell:	Completed after 10 iterations at t[s]:   8283.53
	Linear fluid (dielectric constant: 78.4, screening length: 8.12261 Bohr) occupying 0.558981 of unit cell:	Completed after 3 iterations at t[s]:   8294.75
	FillingsUpdate:  mu: -0.134500000  nElectrons: 192.963723  magneticMoment: [ Abs: 0.00000  Tot: +0.00000 ]
	SubspaceRotationAdjust: set factor to 0.0333
ElecMinimize: Iter:   4  G: -1041.785678660027997  |grad|_K:  1.571e-07  alpha:  6.981e-01  linmin:  1.667e-04  t[s]:   8312.72
	Linear fluid (dielectric constant: 78.4, screening length: 8.12261 Bohr) occupying 0.559040 of unit cell:	Completed after 14 iterations at t[s]:   8327.21
	Linear fluid (dielectric constant: 78.4, screening length: 8.12261 Bohr) occupying 0.559028 of unit cell:	Completed after 9 iterations at t[s]:   8339.34
	FillingsUpdate:  mu: -0.134500000  nElectrons: 192.964670  magneticMoment: [ Abs: 0.00000  Tot: +0.00000 ]
	SubspaceRotationAdjust: set factor to 0.027
ElecMinimize: Iter:   5  G: -1041.785680189563664  |grad|_K:  2.143e-07  alpha:  5.499e-01  linmin:  3.091e-04  t[s]:   8357.27
	Linear fluid (dielectric constant: 78.4, screening length: 8.12261 Bohr) occupying 0.558900 of unit cell:	Completed after 14 iterations at t[s]:   8371.58
	Linear fluid (dielectric constant: 78.4, screening length: 8.12261 Bohr) occupying 0.558951 of unit cell:	Completed after 13 iterations at t[s]:   8383.98
	FillingsUpdate:  mu: -0.134500000  nElectrons: 192.962884  magneticMoment: [ Abs: 0.00000  Tot: +0.00000 ]
	SubspaceRotationAdjust: set factor to 0.0218
ElecMinimize: Iter:   6  G: -1041.785681880993934  |grad|_K:  1.852e-07  alpha:  3.293e-01  linmin: -9.947e-06  t[s]:   8402.27
	Linear fluid (dielectric constant: 78.4, screening length: 8.12261 Bohr) occupying 0.558961 of unit cell:	Completed after 9 iterations at t[s]:   8416.17
	Linear fluid (dielectric constant: 78.4, screening length: 8.12261 Bohr) occupying 0.558972 of unit cell:	Completed after 9 iterations at t[s]:   8428.28
	FillingsUpdate:  mu: -0.134500000  nElectrons: 192.963098  magneticMoment: [ Abs: 0.00000  Tot: +0.00000 ]
	SubspaceRotationAdjust: set factor to 0.0242
ElecMinimize: Iter:   7  G: -1041.785684774066112  |grad|_K:  1.905e-07  alpha:  7.499e-01  linmin: -1.484e-05  t[s]:   8446.80
	Linear fluid (dielectric constant: 78.4, screening length: 8.12261 Bohr) occupying 0.558989 of unit cell:	Completed after 9 iterations at t[s]:   8460.72
	Linear fluid (dielectric constant: 78.4, screening length: 8.12261 Bohr) occupying 0.558993 of unit cell:	Completed after 2 iterations at t[s]:   8471.79
	FillingsUpdate:  mu: -0.134500000  nElectrons: 192.963274  magneticMoment: [ Abs: 0.00000  Tot: +0.00000 ]
	SubspaceRotationAdjust: set factor to 0.0255
ElecMinimize: Iter:   8  G: -1041.785688721147608  |grad|_K:  2.195e-07  alpha:  9.667e-01  linmin: -6.502e-05  t[s]:   8489.65
	Linear fluid (dielectric constant: 78.4, screening length: 8.12261 Bohr) occupying 0.558923 of unit cell:	Completed after 14 iterations at t[s]:   8504.09
	Linear fluid (dielectric constant: 78.4, screening length: 8.12261 Bohr) occupying 0.558941 of unit cell:	Completed after 10 iterations at t[s]:   8516.34
	FillingsUpdate:  mu: -0.134500000  nElectrons: 192.961896  magneticMoment: [ Abs: 0.00000  Tot: +0.00000 ]
	SubspaceRotationAdjust: set factor to 0.0239
ElecMinimize: Iter:   9  G: -1041.785692695404805  |grad|_K:  2.397e-07  alpha:  7.307e-01  linmin:  5.738e-05  t[s]:   8534.39
	Linear fluid (dielectric constant: 78.4, screening length: 8.12261 Bohr) occupying 0.559092 of unit cell:	Completed after 14 iterations at t[s]:   8548.68
	Linear fluid (dielectric constant: 78.4, screening length: 8.12261 Bohr) occupying 0.559017 of unit cell:	Completed after 14 iterations at t[s]:   8561.15
	FillingsUpdate:  mu: -0.134500000  nElectrons: 192.963471  magneticMoment: [ Abs: 0.00000  Tot: +0.00000 ]
	SubspaceRotationAdjust: set factor to 0.0178
ElecMinimize: Iter:  10  G: -1041.785695052120445  |grad|_K:  2.267e-07  alpha:  3.668e-01  linmin:  6.328e-05  t[s]:   8579.41
	Linear fluid (dielectric constant: 78.4, screening length: 8.12261 Bohr) occupying 0.558977 of unit cell:	Completed after 12 iterations at t[s]:   8593.65
	Linear fluid (dielectric constant: 78.4, screening length: 8.12261 Bohr) occupying 0.558967 of unit cell:	Completed after 9 iterations at t[s]:   8605.78
	FillingsUpdate:  mu: -0.134500000  nElectrons: 192.962306  magneticMoment: [ Abs: 0.00000  Tot: +0.00000 ]
	SubspaceRotationAdjust: set factor to 0.0163
ElecMinimize: Iter:  11  G: -1041.785697714471098  |grad|_K:  1.600e-07  alpha:  4.622e-01  linmin:  5.455e-05  t[s]:   8624.27
	Linear fluid (dielectric constant: 78.4, screening length: 8.12261 Bohr) occupying 0.558962 of unit cell:	Completed after 3 iterations at t[s]:   8637.50
	Linear fluid (dielectric constant: 78.4, screening length: 8.12261 Bohr) occupying 0.558961 of unit cell:	Completed after 1 iterations at t[s]:   8648.48
	FillingsUpdate:  mu: -0.134500000  nElectrons: 192.962165  magneticMoment: [ Abs: 0.00000  Tot: +0.00000 ]
	SubspaceRotationAdjust: set factor to 0.0178
ElecMinimize: Iter:  12  G: -1041.785699317774970  |grad|_K:  1.210e-07  alpha:  5.574e-01  linmin: -3.367e-05  t[s]:   8666.33
	Linear fluid (dielectric constant: 78.4, screening length: 8.12261 Bohr) occupying 0.558987 of unit cell:	Completed after 11 iterations at t[s]:   8680.41
	Linear fluid (dielectric constant: 78.4, screening length: 8.12261 Bohr) occupying 0.558984 of unit cell:	Completed after 2 iterations at t[s]:   8691.75
	FillingsUpdate:  mu: -0.134500000  nElectrons: 192.962682  magneticMoment: [ Abs: 0.00000  Tot: +0.00000 ]
	SubspaceRotationAdjust: set factor to 0.0168
ElecMinimize: Iter:  13  G: -1041.785700139773780  |grad|_K:  9.654e-08  alpha:  4.990e-01  linmin:  3.990e-04  t[s]:   8709.82
	Linear fluid (dielectric constant: 78.4, screening length: 8.12261 Bohr) occupying 0.558958 of unit cell:	Completed after 11 iterations at t[s]:   8723.80
	Linear fluid (dielectric constant: 78.4, screening length: 8.12261 Bohr) occupying 0.558963 of unit cell:	Completed after 4 iterations at t[s]:   8735.16
	FillingsUpdate:  mu: -0.134500000  nElectrons: 192.962229  magneticMoment: [ Abs: 0.00000  Tot: +0.00000 ]
	SubspaceRotationAdjust: set factor to 0.0143
ElecMinimize: Iter:  14  G: -1041.785700559071984  |grad|_K:  7.446e-08  alpha:  4.041e-01  linmin:  1.671e-04  t[s]:   8753.35
	Linear fluid (dielectric constant: 78.4, screening length: 8.12261 Bohr) occupying 0.558976 of unit cell:	Completed after 9 iterations at t[s]:   8767.29
	Linear fluid (dielectric constant: 78.4, screening length: 8.12261 Bohr) occupying 0.558978 of unit cell:	Completed after 1 iterations at t[s]:   8778.50
	FillingsUpdate:  mu: -0.134500000  nElectrons: 192.962577  magneticMoment: [ Abs: 0.00000  Tot: +0.00000 ]
	SubspaceRotationAdjust: set factor to 0.0159
ElecMinimize: Iter:  15  G: -1041.785700850699186  |grad|_K:  5.376e-08  alpha:  4.671e-01  linmin: -1.989e-03  t[s]:   8796.94
	Linear fluid (dielectric constant: 78.4, screening length: 8.12261 Bohr) occupying 0.558983 of unit cell:	Completed after 2 iterations at t[s]:   8810.02
	Linear fluid (dielectric constant: 78.4, screening length: 8.12261 Bohr) occupying 0.558985 of unit cell:	Completed after 2 iterations at t[s]:   8821.13
	FillingsUpdate:  mu: -0.134500000  nElectrons: 192.962748  magneticMoment: [ Abs: 0.00000  Tot: +0.00000 ]
	SubspaceRotationAdjust: set factor to 0.019
ElecMinimize: Iter:  16  G: -1041.785701043289009  |grad|_K:  4.657e-08  alpha:  5.798e-01  linmin: -3.761e-04  t[s]:   8839.09
	Linear fluid (dielectric constant: 78.4, screening length: 8.12261 Bohr) occupying 0.558975 of unit cell:	Completed after 6 iterations at t[s]:   8852.77
	Linear fluid (dielectric constant: 78.4, screening length: 8.12261 Bohr) occupying 0.558975 of unit cell:	Completed after 0 iterations at t[s]:   8863.65
	FillingsUpdate:  mu: -0.134500000  nElectrons: 192.962572  magneticMoment: [ Abs: 0.00000  Tot: +0.00000 ]
	SubspaceRotationAdjust: set factor to 0.0193
ElecMinimize: Iter:  17  G: -1041.785701177252122  |grad|_K:  4.436e-08  alpha:  5.457e-01  linmin:  1.696e-03  t[s]:   8881.54
	Linear fluid (dielectric constant: 78.4, screening length: 8.12261 Bohr) occupying 0.558987 of unit cell:	Completed after 5 iterations at t[s]:   8894.87
	Linear fluid (dielectric constant: 78.4, screening length: 8.12261 Bohr) occupying 0.558986 of unit cell:	Completed after 0 iterations at t[s]:   8905.77
	FillingsUpdate:  mu: -0.134500000  nElectrons: 192.962844  magneticMoment: [ Abs: 0.00000  Tot: +0.00000 ]
	SubspaceRotationAdjust: set factor to 0.0204
ElecMinimize: Iter:  18  G: -1041.785701290691350  |grad|_K:  4.096e-08  alpha:  5.266e-01  linmin: -5.687e-04  t[s]:   8924.03
	Linear fluid (dielectric constant: 78.4, screening length: 8.12261 Bohr) occupying 0.558985 of unit cell:	Completed after 3 iterations at t[s]:   8937.28
	Linear fluid (dielectric constant: 78.4, screening length: 8.12261 Bohr) occupying 0.558985 of unit cell:	Completed after 0 iterations at t[s]:   8948.31
	FillingsUpdate:  mu: -0.134500000  nElectrons: 192.962858  magneticMoment: [ Abs: 0.00000  Tot: +0.00000 ]
	SubspaceRotationAdjust: set factor to 0.0239
ElecMinimize: Iter:  19  G: -1041.785701409434068  |grad|_K:  3.905e-08  alpha:  6.223e-01  linmin: -7.789e-04  t[s]:   8966.77
	Linear fluid (dielectric constant: 78.4, screening length: 8.12261 Bohr) occupying 0.558980 of unit cell:	Completed after 6 iterations at t[s]:   8980.25
	Linear fluid (dielectric constant: 78.4, screening length: 8.12261 Bohr) occupying 0.558980 of unit cell:	Completed after 0 iterations at t[s]:   8990.86
	FillingsUpdate:  mu: -0.134500000  nElectrons: 192.962785  magneticMoment: [ Abs: 0.00000  Tot: +0.00000 ]
	SubspaceRotationAdjust: set factor to 0.0246
ElecMinimize: Iter:  20  G: -1041.785701512952301  |grad|_K:  4.242e-08  alpha:  5.962e-01  linmin: -7.319e-04  t[s]:   9008.90
	Linear fluid (dielectric constant: 78.4, screening length: 8.12261 Bohr) occupying 0.559004 of unit cell:	Completed after 10 iterations at t[s]:   9023.03
	Linear fluid (dielectric constant: 78.4, screening length: 8.12261 Bohr) occupying 0.558995 of unit cell:	Completed after 5 iterations at t[s]:   9034.48
	FillingsUpdate:  mu: -0.134500000  nElectrons: 192.963120  magneticMoment: [ Abs: 0.00000  Tot: +0.00000 ]
	SubspaceRotationAdjust: set factor to 0.0198
ElecMinimize: Iter:  21  G: -1041.785701588765733  |grad|_K:  3.929e-08  alpha:  3.586e-01  linmin:  1.222e-03  t[s]:   9052.44
	Linear fluid (dielectric constant: 78.4, screening length: 8.12261 Bohr) occupying 0.558990 of unit cell:	Completed after 6 iterations at t[s]:   9065.81
	Linear fluid (dielectric constant: 78.4, screening length: 8.12261 Bohr) occupying 0.558989 of unit cell:	Completed after 1 iterations at t[s]:   9076.90
	FillingsUpdate:  mu: -0.134500000  nElectrons: 192.963011  magneticMoment: [ Abs: 0.00000  Tot: +0.00000 ]
	SubspaceRotationAdjust: set factor to 0.0216
ElecMinimize: Iter:  22  G: -1041.785701664315638  |grad|_K:  2.848e-08  alpha:  4.446e-01  linmin: -2.804e-03  t[s]:   9095.17
ElecMinimize: Converged (|Delta G|<1.000000e-07 for 2 iters).
Setting wave functions to eigenvectors of Hamiltonian
Converging empty states (this may take a while): |deigs|: 2.322e-08

Computing DFT-D3 correction:
# coordination-number Pt 5.922 7.040 9.384 9.264 9.169 7.636 7.637 9.175 9.269 9.370 7.038 5.951
# diagonal-C6 Pt 336.87 336.87 336.87 336.87 336.87 336.87 336.87 336.87 336.87 336.87 336.87 336.87
EvdW_6 =   -0.093094
EvdW_8 =   -0.155309

# Ionic positions in cartesian coordinates:
ion Pt   0.000215364446635   0.330631617299554  17.124597294240367 1
ion Pt  -0.000376133295560   4.000521001899628   2.098310035016298 1
ion Pt  -0.000061126640294   8.530538178854970   5.424103231989465 1
ion Pt  -0.000125890293043  -0.000769587830752   8.203272117964396 1
ion Pt   0.000212865320378   4.339742493941633  11.357780902548152 1
ion Pt   0.000383549045055   8.681023812023833  14.709878714593547 1
ion Pt   2.615656715896461  -0.135943092040089   3.405149087579137 1
ion Pt   2.615815959812459   4.203042723100487   6.756463268059014 1
ion Pt   2.616170935794103   8.548297772142575   9.915849854658235 1
ion Pt   2.616048244330132   0.015648812811348  12.706300716636129 1
ion Pt   2.616353403333096   4.538714662818943  16.019057290940317 1
ion Pt   2.615699112250581   8.211422604977866   1.024265485774947 1

# Forces in Cartesian coordinates:
force Pt   0.000002881075574  -0.000022366497205  -0.000473216344088 1
force Pt  -0.000003155496316  -0.000707594884375   0.000868053184093 1
force Pt  -0.000001576779555  -0.000249170899199   0.000004959208869 1
force Pt  -0.000000620747244   0.000293758504022   0.000581827594870 1
force Pt   0.000001264727286   0.000110353878945   0.000346318069904 1
force Pt   0.000001940763330  -0.000586187589489   0.000557512816787 1
force Pt  -0.000002776983058   0.000546199233589  -0.000060169986856 1
force Pt   0.000001066878797  -0.000113573383228   0.000211403002290 1
force Pt   0.000000081344824  -0.000193383851502   0.000009405307467 1
force Pt   0.000000686777035   0.000353166397538   0.000616076256523 1
force Pt   0.000001927733552   0.000632066061126   0.000287110752973 1
force Pt  -0.000001502078617  -0.000064656279914   0.000224992682596 1

# Energy components:
   A_diel =       -0.3543060689627294
   Eewald =     6021.2841112459727810
       EH =     7014.6032516183377084
     Eloc =   -14288.2383496306993038
      Enl =      -12.6099464797352141
     EvdW =       -0.2484035998652945
      Exc =     -341.5048407318723775
 Exc_core =      196.6965760696239727
       KE =      342.6846322327378971
  MuShift =       -0.0503202301484783
-------------------------------------
     Etot =    -1067.7375955746110776
       TS =        0.0016310959556805
-------------------------------------
        F =    -1067.7392266705667225
      muN =      -25.9535250062510165
-------------------------------------
        G =    -1041.7857016643156385


Dumping 'jdft.fillings' ... done
Dumping 'jdft.wfns' ... done
Dumping 'jdft.fluidState' ... done
Dumping 'jdft.ionpos' ... done
Dumping 'jdft.lattice' ... done
Dumping 'jdft.eigenvals' ... done
Dumping 'jdft.eigStats' ... 
	eMin: -2.081184 at state 2 ( [ +0.000000 +0.400000 +0.000000 ] spin 1 )
	HOMO: -0.134704 at state 49 ( [ +0.333333 +0.000000 +0.000000 ] spin -1 )
	mu  : -0.134500
	LUMO: -0.134299 at state 10 ( [ +0.166667 +0.400000 +0.000000 ] spin 1 )
	eMax: +0.145173 at state 61 ( [ +0.500000 +0.400000 +0.000000 ] spin -1 )
	HOMO-LUMO gap: +0.000404
	Optical gap  : +0.002304 at state 31 ( [ +0.000000 +0.000000 +0.000000 ] spin -1 )
Dumping 'jdft.Ecomponents' ... done
IonicMinimize: Iter:   4  G: -1041.785701664315638  |grad|_K:  3.051e-04  alpha:  1.000e+00  linmin: -5.007e-01  t[s]:   9136.77
IonicMinimize: Converged (|Delta G|<1.000000e-04 for 2 iters).

#--- Lowdin population analysis ---
# oxidation-state Pt -0.185 -0.153 -0.018 +0.013 +0.006 -0.084 -0.086 +0.006 +0.012 -0.017 -0.141 -0.193
# magnetic-moments Pt +0.000 +0.000 +0.000 +0.000 +0.000 +0.000 +0.000 +0.000 +0.000 +0.000 +0.000 +0.000


Dumping 'jdft.n_up' ... done
Dumping 'jdft.n_dn' ... done
Dumping 'jdft.tau_up' ... done
Dumping 'jdft.tau_dn' ... done
Dumping 'jdft.eigenvals' ... done
Dumping 'jdft.eigStats' ... 
	eMin: -2.081184 at state 2 ( [ +0.000000 +0.400000 +0.000000 ] spin 1 )
	HOMO: -0.134704 at state 49 ( [ +0.333333 +0.000000 +0.000000 ] spin -1 )
	mu  : -0.134500
	LUMO: -0.134299 at state 10 ( [ +0.166667 +0.400000 +0.000000 ] spin 1 )
	eMax: +0.145173 at state 61 ( [ +0.500000 +0.400000 +0.000000 ] spin -1 )
	HOMO-LUMO gap: +0.000404
	Optical gap  : +0.002304 at state 31 ( [ +0.000000 +0.000000 +0.000000 ] spin -1 )
Dumping 'jdft.kPts' ... done
Dumping 'jdft.kMap' ... done
Dumping 'jdft.dosUp' ... done.
Dumping 'jdft.dosDn' ... done.
End date and time: Sat Sep 10 14:02:55 2022  (Duration: 0-2:32:44.80)
Done!

PROFILER:             augmentDensityGrid     2.472024 +/-     0.079028 s,  390 calls,    964.089288 s total
PROFILER:         augmentDensityGridGrad     0.153557 +/-     0.033182 s,  201 calls,     30.864989 s total
PROFILER:        augmentDensitySpherical     0.001100 +/-     0.000081 s,  780 calls,      0.857794 s total
PROFILER:    augmentDensitySphericalGrad     0.001154 +/-     0.000130 s,  440 calls,      0.507816 s total
PROFILER:                 augmentOverlap     0.572986 +/-     0.044710 s, 1622 calls,    929.383668 s total
PROFILER:                     diagouterI     2.312401 +/-     0.102768 s,  786 calls,   1817.547346 s total
PROFILER:              EdensityAndVscloc     2.454615 +/-     0.933974 s,  390 calls,    957.299689 s total
PROFILER:                     EnlAndGrad     0.002373 +/-     0.000320 s,  830 calls,      1.969883 s total
PROFILER:            ExCorrCommunication     0.013804 +/-     0.039130 s, 2408 calls,     33.239710 s total
PROFILER:               ExCorrFunctional     0.004208 +/-     0.000568 s,  409 calls,      1.720911 s total
PROFILER:                    ExCorrTotal     0.129880 +/-     0.083216 s,  409 calls,     53.120985 s total
PROFILER:                   Idag_DiagV_I     4.453835 +/-     0.722315 s,  428 calls,   1906.241422 s total
PROFILER:                    initWeights     1.979734 +/-     0.000000 s,    1 calls,      1.979734 s total
PROFILER:                    inv(matrix)     0.001151 +/-     0.000112 s,  772 calls,      0.888501 s total
PROFILER:            matrix::diagonalize     0.004478 +/-     0.001836 s, 1206 calls,      5.399922 s total
PROFILER:                    matrix::set     0.000004 +/-     0.000005 s, 15472 calls,      0.066124 s total
PROFILER:            orthoMatrix(matrix)     0.000717 +/-     0.000399 s,  804 calls,      0.576096 s total
PROFILER:     RadialFunctionR::transform     0.026602 +/-     0.180235 s,   55 calls,      1.463125 s total
PROFILER:                    reduceKmesh     0.001471 +/-     0.000000 s,    1 calls,      0.001471 s total
PROFILER:   VanDerWaalsD3::energyAndGrad     0.005593 +/-     0.000248 s,   13 calls,      0.072710 s total
PROFILER:               WavefunctionDrag     5.266678 +/-     0.901262 s,    6 calls,     31.600068 s total
PROFILER:                            Y*M     0.151217 +/-     0.056074 s, 5274 calls,    797.519518 s total
PROFILER:                          Y1^Y2     0.173396 +/-     0.055770 s, 3360 calls,    582.612017 s total

MEMUSAGE:                   ColumnBundle     0.292586 GB
MEMUSAGE:        complexScalarFieldTilde     0.008652 GB
MEMUSAGE:                    IndexArrays     0.014390 GB
MEMUSAGE:                         matrix     0.013357 GB
MEMUSAGE:                           misc     0.008706 GB
MEMUSAGE:                    ScalarField     0.062725 GB
MEMUSAGE:               ScalarFieldTilde     0.045827 GB
MEMUSAGE:                          Total     0.357248 GB
