
*************** JDFTx 1.7.0 (git hash 5f12716a) ***************

Start date and time: Fri Sep  9 01:35:50 2022
Executable /home/nisi6161/jdftx_alpine/build/jdftx with command-line: -i in
Running on hosts (process indices):  c3cpu-a2-u28-2.rc.int.colorado.edu (0-23)
Divided in process groups (process indices):  0 (0)  1 (1)  2 (2)  3 (3)  4 (4)  5 (5)  6 (6)  7 (7)  8 (8)  9 (9)  10 (10)  11 (11)  12 (12)  13 (13)  14 (14)  15 (15)  16 (16)  17 (17)  18 (18)  19 (19)  20 (20)  21 (21)  22 (22)  23 (23)
Resource initialization completed at t[s]:      0.00
Run totals: 24 processes, 64 threads, 0 GPUs


Input parsed successfully to the following command list (including defaults):

basis kpoint-dependent
converge-empty-states yes
coords-type Cartesian
core-overlap-check none
coulomb-interaction Periodic
davidson-band-ratio 1.1
density-of-states Etol 1.000000e-06 Esigma 1.000000e-03 \
		Complete \
	Total \
	OrthoOrbital Pt 1   s \
	OrthoOrbital Pt 1   p \
	OrthoOrbital Pt 1   px \
	OrthoOrbital Pt 1   py \
	OrthoOrbital Pt 1   pz \
	OrthoOrbital Pt 1   d \
	OrthoOrbital Pt 1   dxy \
	OrthoOrbital Pt 1   dyz \
	OrthoOrbital Pt 1   dz2 \
	OrthoOrbital Pt 1   dxz \
	OrthoOrbital Pt 1   dx2-y2 \
	OrthoOrbital Pt 2   s \
	OrthoOrbital Pt 2   p \
	OrthoOrbital Pt 2   px \
	OrthoOrbital Pt 2   py \
	OrthoOrbital Pt 2   pz \
	OrthoOrbital Pt 2   d \
	OrthoOrbital Pt 2   dxy \
	OrthoOrbital Pt 2   dyz \
	OrthoOrbital Pt 2   dz2 \
	OrthoOrbital Pt 2   dxz \
	OrthoOrbital Pt 2   dx2-y2 \
	OrthoOrbital Pt 3   s \
	OrthoOrbital Pt 3   p \
	OrthoOrbital Pt 3   px \
	OrthoOrbital Pt 3   py \
	OrthoOrbital Pt 3   pz \
	OrthoOrbital Pt 3   d \
	OrthoOrbital Pt 3   dxy \
	OrthoOrbital Pt 3   dyz \
	OrthoOrbital Pt 3   dz2 \
	OrthoOrbital Pt 3   dxz \
	OrthoOrbital Pt 3   dx2-y2 \
	OrthoOrbital Pt 4   s \
	OrthoOrbital Pt 4   p \
	OrthoOrbital Pt 4   px \
	OrthoOrbital Pt 4   py \
	OrthoOrbital Pt 4   pz \
	OrthoOrbital Pt 4   d \
	OrthoOrbital Pt 4   dxy \
	OrthoOrbital Pt 4   dyz \
	OrthoOrbital Pt 4   dz2 \
	OrthoOrbital Pt 4   dxz \
	OrthoOrbital Pt 4   dx2-y2 \
	OrthoOrbital Pt 5   s \
	OrthoOrbital Pt 5   p \
	OrthoOrbital Pt 5   px \
	OrthoOrbital Pt 5   py \
	OrthoOrbital Pt 5   pz \
	OrthoOrbital Pt 5   d \
	OrthoOrbital Pt 5   dxy \
	OrthoOrbital Pt 5   dyz \
	OrthoOrbital Pt 5   dz2 \
	OrthoOrbital Pt 5   dxz \
	OrthoOrbital Pt 5   dx2-y2 \
	OrthoOrbital Pt 6   s \
	OrthoOrbital Pt 6   p \
	OrthoOrbital Pt 6   px \
	OrthoOrbital Pt 6   py \
	OrthoOrbital Pt 6   pz \
	OrthoOrbital Pt 6   d \
	OrthoOrbital Pt 6   dxy \
	OrthoOrbital Pt 6   dyz \
	OrthoOrbital Pt 6   dz2 \
	OrthoOrbital Pt 6   dxz \
	OrthoOrbital Pt 6   dx2-y2 \
	OrthoOrbital Pt 7   s \
	OrthoOrbital Pt 7   p \
	OrthoOrbital Pt 7   px \
	OrthoOrbital Pt 7   py \
	OrthoOrbital Pt 7   pz \
	OrthoOrbital Pt 7   d \
	OrthoOrbital Pt 7   dxy \
	OrthoOrbital Pt 7   dyz \
	OrthoOrbital Pt 7   dz2 \
	OrthoOrbital Pt 7   dxz \
	OrthoOrbital Pt 7   dx2-y2 \
	OrthoOrbital Pt 8   s \
	OrthoOrbital Pt 8   p \
	OrthoOrbital Pt 8   px \
	OrthoOrbital Pt 8   py \
	OrthoOrbital Pt 8   pz \
	OrthoOrbital Pt 8   d \
	OrthoOrbital Pt 8   dxy \
	OrthoOrbital Pt 8   dyz \
	OrthoOrbital Pt 8   dz2 \
	OrthoOrbital Pt 8   dxz \
	OrthoOrbital Pt 8   dx2-y2 \
	OrthoOrbital Pt 9   s \
	OrthoOrbital Pt 9   p \
	OrthoOrbital Pt 9   px \
	OrthoOrbital Pt 9   py \
	OrthoOrbital Pt 9   pz \
	OrthoOrbital Pt 9   d \
	OrthoOrbital Pt 9   dxy \
	OrthoOrbital Pt 9   dyz \
	OrthoOrbital Pt 9   dz2 \
	OrthoOrbital Pt 9   dxz \
	OrthoOrbital Pt 9   dx2-y2 \
	OrthoOrbital Pt 10   s \
	OrthoOrbital Pt 10   p \
	OrthoOrbital Pt 10   px \
	OrthoOrbital Pt 10   py \
	OrthoOrbital Pt 10   pz \
	OrthoOrbital Pt 10   d \
	OrthoOrbital Pt 10   dxy \
	OrthoOrbital Pt 10   dyz \
	OrthoOrbital Pt 10   dz2 \
	OrthoOrbital Pt 10   dxz \
	OrthoOrbital Pt 10   dx2-y2 \
	OrthoOrbital Pt 11   s \
	OrthoOrbital Pt 11   p \
	OrthoOrbital Pt 11   px \
	OrthoOrbital Pt 11   py \
	OrthoOrbital Pt 11   pz \
	OrthoOrbital Pt 11   d \
	OrthoOrbital Pt 11   dxy \
	OrthoOrbital Pt 11   dyz \
	OrthoOrbital Pt 11   dz2 \
	OrthoOrbital Pt 11   dxz \
	OrthoOrbital Pt 11   dx2-y2 \
	OrthoOrbital Pt 12   s \
	OrthoOrbital Pt 12   p \
	OrthoOrbital Pt 12   px \
	OrthoOrbital Pt 12   py \
	OrthoOrbital Pt 12   pz \
	OrthoOrbital Pt 12   d \
	OrthoOrbital Pt 12   dxy \
	OrthoOrbital Pt 12   dyz \
	OrthoOrbital Pt 12   dz2 \
	OrthoOrbital Pt 12   dxz \
	OrthoOrbital Pt 12   dx2-y2 \
	OrthoOrbital Pt 13   s \
	OrthoOrbital Pt 13   p \
	OrthoOrbital Pt 13   px \
	OrthoOrbital Pt 13   py \
	OrthoOrbital Pt 13   pz \
	OrthoOrbital Pt 13   d \
	OrthoOrbital Pt 13   dxy \
	OrthoOrbital Pt 13   dyz \
	OrthoOrbital Pt 13   dz2 \
	OrthoOrbital Pt 13   dxz \
	OrthoOrbital Pt 13   dx2-y2 \
	OrthoOrbital Pt 14   s \
	OrthoOrbital Pt 14   p \
	OrthoOrbital Pt 14   px \
	OrthoOrbital Pt 14   py \
	OrthoOrbital Pt 14   pz \
	OrthoOrbital Pt 14   d \
	OrthoOrbital Pt 14   dxy \
	OrthoOrbital Pt 14   dyz \
	OrthoOrbital Pt 14   dz2 \
	OrthoOrbital Pt 14   dxz \
	OrthoOrbital Pt 14   dx2-y2 \
	OrthoOrbital Pt 15   s \
	OrthoOrbital Pt 15   p \
	OrthoOrbital Pt 15   px \
	OrthoOrbital Pt 15   py \
	OrthoOrbital Pt 15   pz \
	OrthoOrbital Pt 15   d \
	OrthoOrbital Pt 15   dxy \
	OrthoOrbital Pt 15   dyz \
	OrthoOrbital Pt 15   dz2 \
	OrthoOrbital Pt 15   dxz \
	OrthoOrbital Pt 15   dx2-y2 \
	OrthoOrbital Pt 16   s \
	OrthoOrbital Pt 16   p \
	OrthoOrbital Pt 16   px \
	OrthoOrbital Pt 16   py \
	OrthoOrbital Pt 16   pz \
	OrthoOrbital Pt 16   d \
	OrthoOrbital Pt 16   dxy \
	OrthoOrbital Pt 16   dyz \
	OrthoOrbital Pt 16   dz2 \
	OrthoOrbital Pt 16   dxz \
	OrthoOrbital Pt 16   dx2-y2 \
	OrthoOrbital Pt 17   s \
	OrthoOrbital Pt 17   p \
	OrthoOrbital Pt 17   px \
	OrthoOrbital Pt 17   py \
	OrthoOrbital Pt 17   pz \
	OrthoOrbital Pt 17   d \
	OrthoOrbital Pt 17   dxy \
	OrthoOrbital Pt 17   dyz \
	OrthoOrbital Pt 17   dz2 \
	OrthoOrbital Pt 17   dxz \
	OrthoOrbital Pt 17   dx2-y2 \
	OrthoOrbital Pt 18   s \
	OrthoOrbital Pt 18   p \
	OrthoOrbital Pt 18   px \
	OrthoOrbital Pt 18   py \
	OrthoOrbital Pt 18   pz \
	OrthoOrbital Pt 18   d \
	OrthoOrbital Pt 18   dxy \
	OrthoOrbital Pt 18   dyz \
	OrthoOrbital Pt 18   dz2 \
	OrthoOrbital Pt 18   dxz \
	OrthoOrbital Pt 18   dx2-y2 \
	OrthoOrbital Pt 19   s \
	OrthoOrbital Pt 19   p \
	OrthoOrbital Pt 19   px \
	OrthoOrbital Pt 19   py \
	OrthoOrbital Pt 19   pz \
	OrthoOrbital Pt 19   d \
	OrthoOrbital Pt 19   dxy \
	OrthoOrbital Pt 19   dyz \
	OrthoOrbital Pt 19   dz2 \
	OrthoOrbital Pt 19   dxz \
	OrthoOrbital Pt 19   dx2-y2 \
	OrthoOrbital Pt 20   s \
	OrthoOrbital Pt 20   p \
	OrthoOrbital Pt 20   px \
	OrthoOrbital Pt 20   py \
	OrthoOrbital Pt 20   pz \
	OrthoOrbital Pt 20   d \
	OrthoOrbital Pt 20   dxy \
	OrthoOrbital Pt 20   dyz \
	OrthoOrbital Pt 20   dz2 \
	OrthoOrbital Pt 20   dxz \
	OrthoOrbital Pt 20   dx2-y2 \
	OrthoOrbital Pt 21   s \
	OrthoOrbital Pt 21   p \
	OrthoOrbital Pt 21   px \
	OrthoOrbital Pt 21   py \
	OrthoOrbital Pt 21   pz \
	OrthoOrbital Pt 21   d \
	OrthoOrbital Pt 21   dxy \
	OrthoOrbital Pt 21   dyz \
	OrthoOrbital Pt 21   dz2 \
	OrthoOrbital Pt 21   dxz \
	OrthoOrbital Pt 21   dx2-y2 \
	OrthoOrbital Pt 22   s \
	OrthoOrbital Pt 22   p \
	OrthoOrbital Pt 22   px \
	OrthoOrbital Pt 22   py \
	OrthoOrbital Pt 22   pz \
	OrthoOrbital Pt 22   d \
	OrthoOrbital Pt 22   dxy \
	OrthoOrbital Pt 22   dyz \
	OrthoOrbital Pt 22   dz2 \
	OrthoOrbital Pt 22   dxz \
	OrthoOrbital Pt 22   dx2-y2 \
	OrthoOrbital Pt 23   s \
	OrthoOrbital Pt 23   p \
	OrthoOrbital Pt 23   px \
	OrthoOrbital Pt 23   py \
	OrthoOrbital Pt 23   pz \
	OrthoOrbital Pt 23   d \
	OrthoOrbital Pt 23   dxy \
	OrthoOrbital Pt 23   dyz \
	OrthoOrbital Pt 23   dz2 \
	OrthoOrbital Pt 23   dxz \
	OrthoOrbital Pt 23   dx2-y2 \
	OrthoOrbital Pt 24   s \
	OrthoOrbital Pt 24   p \
	OrthoOrbital Pt 24   px \
	OrthoOrbital Pt 24   py \
	OrthoOrbital Pt 24   pz \
	OrthoOrbital Pt 24   d \
	OrthoOrbital Pt 24   dxy \
	OrthoOrbital Pt 24   dyz \
	OrthoOrbital Pt 24   dz2 \
	OrthoOrbital Pt 24   dxz \
	OrthoOrbital Pt 24   dx2-y2 \
	OrthoOrbital Pt 25   s \
	OrthoOrbital Pt 25   p \
	OrthoOrbital Pt 25   px \
	OrthoOrbital Pt 25   py \
	OrthoOrbital Pt 25   pz \
	OrthoOrbital Pt 25   d \
	OrthoOrbital Pt 25   dxy \
	OrthoOrbital Pt 25   dyz \
	OrthoOrbital Pt 25   dz2 \
	OrthoOrbital Pt 25   dxz \
	OrthoOrbital Pt 25   dx2-y2 \
	OrthoOrbital Pt 26   s \
	OrthoOrbital Pt 26   p \
	OrthoOrbital Pt 26   px \
	OrthoOrbital Pt 26   py \
	OrthoOrbital Pt 26   pz \
	OrthoOrbital Pt 26   d \
	OrthoOrbital Pt 26   dxy \
	OrthoOrbital Pt 26   dyz \
	OrthoOrbital Pt 26   dz2 \
	OrthoOrbital Pt 26   dxz \
	OrthoOrbital Pt 26   dx2-y2 \
	OrthoOrbital Pt 27   s \
	OrthoOrbital Pt 27   p \
	OrthoOrbital Pt 27   px \
	OrthoOrbital Pt 27   py \
	OrthoOrbital Pt 27   pz \
	OrthoOrbital Pt 27   d \
	OrthoOrbital Pt 27   dxy \
	OrthoOrbital Pt 27   dyz \
	OrthoOrbital Pt 27   dz2 \
	OrthoOrbital Pt 27   dxz \
	OrthoOrbital Pt 27   dx2-y2 \
	OrthoOrbital Pt 28   s \
	OrthoOrbital Pt 28   p \
	OrthoOrbital Pt 28   px \
	OrthoOrbital Pt 28   py \
	OrthoOrbital Pt 28   pz \
	OrthoOrbital Pt 28   d \
	OrthoOrbital Pt 28   dxy \
	OrthoOrbital Pt 28   dyz \
	OrthoOrbital Pt 28   dz2 \
	OrthoOrbital Pt 28   dxz \
	OrthoOrbital Pt 28   dx2-y2 \
	OrthoOrbital Pt 29   s \
	OrthoOrbital Pt 29   p \
	OrthoOrbital Pt 29   px \
	OrthoOrbital Pt 29   py \
	OrthoOrbital Pt 29   pz \
	OrthoOrbital Pt 29   d \
	OrthoOrbital Pt 29   dxy \
	OrthoOrbital Pt 29   dyz \
	OrthoOrbital Pt 29   dz2 \
	OrthoOrbital Pt 29   dxz \
	OrthoOrbital Pt 29   dx2-y2 \
	OrthoOrbital Pt 30   s \
	OrthoOrbital Pt 30   p \
	OrthoOrbital Pt 30   px \
	OrthoOrbital Pt 30   py \
	OrthoOrbital Pt 30   pz \
	OrthoOrbital Pt 30   d \
	OrthoOrbital Pt 30   dxy \
	OrthoOrbital Pt 30   dyz \
	OrthoOrbital Pt 30   dz2 \
	OrthoOrbital Pt 30   dxz \
	OrthoOrbital Pt 30   dx2-y2 \
	OrthoOrbital Pt 31   s \
	OrthoOrbital Pt 31   p \
	OrthoOrbital Pt 31   px \
	OrthoOrbital Pt 31   py \
	OrthoOrbital Pt 31   pz \
	OrthoOrbital Pt 31   d \
	OrthoOrbital Pt 31   dxy \
	OrthoOrbital Pt 31   dyz \
	OrthoOrbital Pt 31   dz2 \
	OrthoOrbital Pt 31   dxz \
	OrthoOrbital Pt 31   dx2-y2 \
	OrthoOrbital Pt 32   s \
	OrthoOrbital Pt 32   p \
	OrthoOrbital Pt 32   px \
	OrthoOrbital Pt 32   py \
	OrthoOrbital Pt 32   pz \
	OrthoOrbital Pt 32   d \
	OrthoOrbital Pt 32   dxy \
	OrthoOrbital Pt 32   dyz \
	OrthoOrbital Pt 32   dz2 \
	OrthoOrbital Pt 32   dxz \
	OrthoOrbital Pt 32   dx2-y2 \
	OrthoOrbital Pt 33   s \
	OrthoOrbital Pt 33   p \
	OrthoOrbital Pt 33   px \
	OrthoOrbital Pt 33   py \
	OrthoOrbital Pt 33   pz \
	OrthoOrbital Pt 33   d \
	OrthoOrbital Pt 33   dxy \
	OrthoOrbital Pt 33   dyz \
	OrthoOrbital Pt 33   dz2 \
	OrthoOrbital Pt 33   dxz \
	OrthoOrbital Pt 33   dx2-y2 \
	OrthoOrbital Pt 34   s \
	OrthoOrbital Pt 34   p \
	OrthoOrbital Pt 34   px \
	OrthoOrbital Pt 34   py \
	OrthoOrbital Pt 34   pz \
	OrthoOrbital Pt 34   d \
	OrthoOrbital Pt 34   dxy \
	OrthoOrbital Pt 34   dyz \
	OrthoOrbital Pt 34   dz2 \
	OrthoOrbital Pt 34   dxz \
	OrthoOrbital Pt 34   dx2-y2 \
	OrthoOrbital Pt 35   s \
	OrthoOrbital Pt 35   p \
	OrthoOrbital Pt 35   px \
	OrthoOrbital Pt 35   py \
	OrthoOrbital Pt 35   pz \
	OrthoOrbital Pt 35   d \
	OrthoOrbital Pt 35   dxy \
	OrthoOrbital Pt 35   dyz \
	OrthoOrbital Pt 35   dz2 \
	OrthoOrbital Pt 35   dxz \
	OrthoOrbital Pt 35   dx2-y2 \
	OrthoOrbital Pt 36   s \
	OrthoOrbital Pt 36   p \
	OrthoOrbital Pt 36   px \
	OrthoOrbital Pt 36   py \
	OrthoOrbital Pt 36   pz \
	OrthoOrbital Pt 36   d \
	OrthoOrbital Pt 36   dxy \
	OrthoOrbital Pt 36   dyz \
	OrthoOrbital Pt 36   dz2 \
	OrthoOrbital Pt 36   dxz \
	OrthoOrbital Pt 36   dx2-y2 \
	OrthoOrbital Pt 37   s \
	OrthoOrbital Pt 37   p \
	OrthoOrbital Pt 37   px \
	OrthoOrbital Pt 37   py \
	OrthoOrbital Pt 37   pz \
	OrthoOrbital Pt 37   d \
	OrthoOrbital Pt 37   dxy \
	OrthoOrbital Pt 37   dyz \
	OrthoOrbital Pt 37   dz2 \
	OrthoOrbital Pt 37   dxz \
	OrthoOrbital Pt 37   dx2-y2 \
	OrthoOrbital Pt 38   s \
	OrthoOrbital Pt 38   p \
	OrthoOrbital Pt 38   px \
	OrthoOrbital Pt 38   py \
	OrthoOrbital Pt 38   pz \
	OrthoOrbital Pt 38   d \
	OrthoOrbital Pt 38   dxy \
	OrthoOrbital Pt 38   dyz \
	OrthoOrbital Pt 38   dz2 \
	OrthoOrbital Pt 38   dxz \
	OrthoOrbital Pt 38   dx2-y2 \
	OrthoOrbital Pt 39   s \
	OrthoOrbital Pt 39   p \
	OrthoOrbital Pt 39   px \
	OrthoOrbital Pt 39   py \
	OrthoOrbital Pt 39   pz \
	OrthoOrbital Pt 39   d \
	OrthoOrbital Pt 39   dxy \
	OrthoOrbital Pt 39   dyz \
	OrthoOrbital Pt 39   dz2 \
	OrthoOrbital Pt 39   dxz \
	OrthoOrbital Pt 39   dx2-y2 \
	OrthoOrbital Pt 40   s \
	OrthoOrbital Pt 40   p \
	OrthoOrbital Pt 40   px \
	OrthoOrbital Pt 40   py \
	OrthoOrbital Pt 40   pz \
	OrthoOrbital Pt 40   d \
	OrthoOrbital Pt 40   dxy \
	OrthoOrbital Pt 40   dyz \
	OrthoOrbital Pt 40   dz2 \
	OrthoOrbital Pt 40   dxz \
	OrthoOrbital Pt 40   dx2-y2 \
	OrthoOrbital Pt 41   s \
	OrthoOrbital Pt 41   p \
	OrthoOrbital Pt 41   px \
	OrthoOrbital Pt 41   py \
	OrthoOrbital Pt 41   pz \
	OrthoOrbital Pt 41   d \
	OrthoOrbital Pt 41   dxy \
	OrthoOrbital Pt 41   dyz \
	OrthoOrbital Pt 41   dz2 \
	OrthoOrbital Pt 41   dxz \
	OrthoOrbital Pt 41   dx2-y2 \
	OrthoOrbital Pt 42   s \
	OrthoOrbital Pt 42   p \
	OrthoOrbital Pt 42   px \
	OrthoOrbital Pt 42   py \
	OrthoOrbital Pt 42   pz \
	OrthoOrbital Pt 42   d \
	OrthoOrbital Pt 42   dxy \
	OrthoOrbital Pt 42   dyz \
	OrthoOrbital Pt 42   dz2 \
	OrthoOrbital Pt 42   dxz \
	OrthoOrbital Pt 42   dx2-y2 \
	OrthoOrbital Pt 43   s \
	OrthoOrbital Pt 43   p \
	OrthoOrbital Pt 43   px \
	OrthoOrbital Pt 43   py \
	OrthoOrbital Pt 43   pz \
	OrthoOrbital Pt 43   d \
	OrthoOrbital Pt 43   dxy \
	OrthoOrbital Pt 43   dyz \
	OrthoOrbital Pt 43   dz2 \
	OrthoOrbital Pt 43   dxz \
	OrthoOrbital Pt 43   dx2-y2 \
	OrthoOrbital Pt 44   s \
	OrthoOrbital Pt 44   p \
	OrthoOrbital Pt 44   px \
	OrthoOrbital Pt 44   py \
	OrthoOrbital Pt 44   pz \
	OrthoOrbital Pt 44   d \
	OrthoOrbital Pt 44   dxy \
	OrthoOrbital Pt 44   dyz \
	OrthoOrbital Pt 44   dz2 \
	OrthoOrbital Pt 44   dxz \
	OrthoOrbital Pt 44   dx2-y2
dump End ElecDensity KEdensity BandEigs EigStats RhoAtom DOS Kpoints
dump Ionic State IonicPositions Lattice EigStats Ecomponents
dump 
dump 
dump 
dump 
dump 
dump 
dump 
dump 
dump-name jdft.$VAR
elec-cutoff 20
elec-eigen-algo Davidson
elec-ex-corr gga-PBE
elec-initial-magnetization 0.000000 no
elec-n-bands 423
elec-smearing Fermi 0.001
electronic-minimize  \
	dirUpdateScheme      FletcherReeves \
	linminMethod         DirUpdateRecommended \
	nIterations          100 \
	history              15 \
	knormThreshold       0 \
	energyDiffThreshold  1e-07 \
	nEnergyDiff          2 \
	alphaTstart          1 \
	alphaTmin            1e-10 \
	updateTestStepSize   yes \
	alphaTreduceFactor   0.1 \
	alphaTincreaseFactor 3 \
	nAlphaAdjustMax      3 \
	wolfeEnergy          0.0001 \
	wolfeGradient        0.9 \
	fdTest               no
exchange-regularization WignerSeitzTruncated
fluid LinearPCM 298.000000 1.013250
fluid-anion F- 0.5 MeanFieldLJ \
	epsBulk 1 \
	pMol 0 \
	epsInf 1 \
	Pvap 0 \
	sigmaBulk 0 \
	Rvdw 2.24877 \
	Res 0 \
	tauNuc 343133
fluid-cation Na+ 0.5 MeanFieldLJ \
	epsBulk 1 \
	pMol 0 \
	epsInf 1 \
	Pvap 0 \
	sigmaBulk 0 \
	Rvdw 2.19208 \
	Res 0 \
	tauNuc 343133
fluid-ex-corr lda-TF lda-PZ
fluid-gummel-loop 10 1.000000e-05
fluid-minimize  \
	dirUpdateScheme      PolakRibiere \
	linminMethod         DirUpdateRecommended \
	nIterations          400 \
	history              15 \
	knormThreshold       1e-11 \
	energyDiffThreshold  0 \
	nEnergyDiff          2 \
	alphaTstart          1 \
	alphaTmin            1e-10 \
	updateTestStepSize   yes \
	alphaTreduceFactor   0.1 \
	alphaTincreaseFactor 3 \
	nAlphaAdjustMax      6 \
	wolfeEnergy          0.0001 \
	wolfeGradient        0.9 \
	fdTest               no
fluid-solvent H2O 55.338 ScalarEOS \
	epsBulk 78.4 \
	pMol 0.92466 \
	epsInf 1.77 \
	Pvap 1.06736e-10 \
	sigmaBulk 4.62e-05 \
	Rvdw 2.61727 \
	Res 1.42 \
	tauNuc 343133 \
	poleEl 15 7 1
forces-output-coords Positions
ion Pt   0.000251000000000  15.366848000000001  68.237432999999996 1
ion Pt   0.000340000000000  22.560891000000005  65.398275999999996 1
ion Pt   0.000152000000000   6.705717000000001  66.760591000000019 1
ion Pt  -0.000073000000000  13.357911000000001  63.424457000000004 1
ion Pt   0.000042000000000  20.217839000000005  60.333895000000005 1
ion Pt  -0.000042000000000  17.868480000000005  55.558956000000002 1
ion Pt  -0.000356000000000   0.354557000000000  35.346201999999998 1
ion Pt   5.232085000000000   4.458641000000000  61.946851000000009 1
ion Pt   5.231944000000000  11.183475000000001  58.745650000000005 1
ion Pt   5.232111000000000   2.209652000000001  57.240836000000009 1
ion Pt   5.231975000000000   8.941283000000002  54.034567000000003 1
ion Pt  -0.000141000000000  15.600692000000000  50.846485000000008 1
ion Pt   0.000005000000000  22.305820000000001  47.706851000000007 1
ion Pt  -0.000105000000000  13.392808000000000  46.153657000000010 1
ion Pt  -0.000194000000000  20.042082000000001  42.826684999999998 1
ion Pt   0.000141000000000  24.541558000000002  52.498587999999998 1
ion Pt   0.000099000000000   6.668661000000000  49.280588999999999 1
ion Pt   5.232127000000001   4.374297000000001  44.586165000000008 1
ion Pt   5.232017000000000  11.171180000000000  41.456178999999999 1
ion Pt   5.231645000000000  17.700404000000002  37.973381000000010 1
ion Pt  -0.000068000000000   2.183786000000000  39.993427000000004 1
ion Pt   5.231870000000001   9.019909999999999  36.607526000000000 1
ion Pt   2.616092000000000  17.894738000000004  64.120502999999999 1
ion Pt   2.616171000000000   0.036295000000000  61.288910999999999 1
ion Pt   2.615967000000000   8.906435999999999  62.659278000000008 1
ion Pt   2.615909000000000  15.704841000000002  59.528736000000002 1
ion Pt   2.616056000000000  22.314336000000004  56.408745000000003 1
ion Pt   2.615935000000000  20.078794000000002  51.617632999999998 1
ion Pt   2.616270000000000   2.377605000000000  66.142493000000016 1
ion Pt   2.616071000000000   6.685618000000000  57.962494000000007 1
ion Pt   2.615904000000000  13.410256000000002  54.835007000000004 1
ion Pt   2.616108000000001   4.478126000000000  53.269528000000001 1
ion Pt   2.615925000000000  11.137168000000003  50.081653000000010 1
ion Pt   2.615893000000000  17.869658000000005  46.875177000000008 1
ion Pt   2.616003000000000  -0.139487000000000  43.781283999999999 1
ion Pt   2.615867000000000  15.619196000000002  42.168953000000002 1
ion Pt   2.615626000000000  22.057988000000005  38.717320000000008 1
ion Pt   2.616118000000000   2.211590000000001  48.556293000000004 1
ion Pt   2.616035000000000   8.894681000000000  45.369737999999998 1
ion Pt   2.616087000000000   6.719803000000000  40.689889999999998 1
ion Pt   2.615820000000000  13.371629000000000  37.355144000000003 1
ion Pt   2.616328000000001  19.721611000000003  68.768561000000005 1
ion Pt   2.615763000000000   4.710031000000000  35.876705000000001 1
ion Pt   2.616144000000000  11.057510000000001  67.507375999999994 1
ion-species /projects/musgravc/apps/jdftx-1.6.0/build/pseudopotentials/GBRV_v1.5/$ID_pbe_v1.uspp
ion-species /projects/musgravc/apps/jdftx-1.6.0/build/pseudopotentials/GBRV_v1.5/$ID_pbe_v1.2.uspp
ion-species /projects/musgravc/apps/jdftx-1.6.0/build/pseudopotentials/GBRV_v1.5/$ID_pbe_v1.4.uspp
ion-species /projects/musgravc/apps/jdftx-1.6.0/build/pseudopotentials/GBRV_v1.5/$ID_pbe_v1.5.uspp
ion-width Ecut
ionic-minimize  \
	dirUpdateScheme      L-BFGS \
	linminMethod         DirUpdateRecommended \
	nIterations          100 \
	history              15 \
	knormThreshold       0.0001 \
	energyDiffThreshold  0.0001 \
	nEnergyDiff          2 \
	alphaTstart          1 \
	alphaTmin            1e-10 \
	updateTestStepSize   yes \
	alphaTreduceFactor   0.1 \
	alphaTincreaseFactor 3 \
	nAlphaAdjustMax      3 \
	wolfeEnergy          0.0001 \
	wolfeGradient        0.9 \
	fdTest               no
kpoint   0.000000000000   0.000000000000   0.000000000000  1.00000000000000
kpoint-folding 11 2 1 
latt-move-scale 0 0 0
latt-scale 1 1 1 
lattice  \
	   5.231996000000000    0.000000000000000    0.000000000000000  \
	   0.000000000000000   24.540233000000001    0.000000000000000  \
	   0.000000000000000   -0.000000000000000   69.410258999999996 
lattice-minimize  \
	dirUpdateScheme      L-BFGS \
	linminMethod         DirUpdateRecommended \
	nIterations          0 \
	history              15 \
	knormThreshold       0 \
	energyDiffThreshold  1e-06 \
	nEnergyDiff          2 \
	alphaTstart          1 \
	alphaTmin            1e-10 \
	updateTestStepSize   yes \
	alphaTreduceFactor   0.1 \
	alphaTincreaseFactor 3 \
	nAlphaAdjustMax      3 \
	wolfeEnergy          0.0001 \
	wolfeGradient        0.9 \
	fdTest               no
lcao-params 30 1e-06 0.001
pcm-variant CANDLE
spintype z-spin
subspace-rotation-factor 1 yes
symmetries automatic
symmetry-threshold 0.0001
target-mu -0.24475 no

van-der-waals D3



---------- Setting up symmetries ----------

Found 8 point-group symmetries of the bravais lattice
Found 1 space-group symmetries with basis
Applied RMS atom displacement 0 bohrs to make symmetries exact.

---------- Initializing the Grid ----------
R = 
[        5.232            0            0  ]
[            0      24.5402            0  ]
[            0            0      69.4103  ]
unit cell volume = 8911.89
G =
[    1.20092         -0          0  ]
[          0   0.256036          0  ]
[         -0          0  0.0905224  ]
Minimum fftbox size, Smin = [  24  100  280  ]
Chosen fftbox size, S = [  24  100  280  ]

---------- Exchange Correlation functional ----------
Initalized PBE GGA exchange.
Initalized PBE GGA correlation.

---------- Setting up pseudopotentials ----------
Width of ionic core gaussian charges (only for fluid interactions / plotting) set to 0.397384

Reading pseudopotential file '/projects/musgravc/apps/jdftx-1.6.0/build/pseudopotentials/GBRV_v1.5/pt_pbe_v1.4.uspp':
  Title: Pt.  Created by USPP 7.3.6 on 31-3-15
  Reference state energy: -105.002503.  16 valence electrons in orbitals:
    |510>  occupation: 6  eigenvalue: -2.158104
    |520>  occupation: 9.5  eigenvalue: -0.335376
    |600>  occupation: 0  eigenvalue: -0.319640
    |610>  occupation: 0  eigenvalue: -0.122947
  lMax: 2  lLocal: 3  QijEcut: 5.5
  6 projectors sampled on a log grid with 745 points:
    l: 0  eig: -0.319640  rCut: 2.45
    l: 0  eig: 1.500000  rCut: 2.45
    l: 1  eig: -2.158104  rCut: 1.6
    l: 1  eig: -0.122947  rCut: 1.6
    l: 2  eig: -0.500000  rCut: 1.6
    l: 2  eig: -0.335375  rCut: 1.6
  Partial core density with radius 1.1
  Transforming core density to a uniform radial grid of dG=0.02 with 1159 points.
  Transforming local potential to a uniform radial grid of dG=0.02 with 1159 points.
  Transforming nonlocal projectors to a uniform radial grid of dG=0.02 with 432 points.
  Transforming density augmentations to a uniform radial grid of dG=0.02 with 1159 points.
  Transforming atomic orbitals to a uniform radial grid of dG=0.02 with 432 points.
  Core radius for overlap checks: 2.45 bohrs.

Initialized 1 species with 44 total atoms.

Folded 1 k-points by 11x2x1 to 22 k-points.

---------- Setting up k-points, bands, fillings ----------
Adding inversion symmetry to k-mesh for non-inversion-symmetric unit cell.
Reduced to 12 k-points under symmetry. 
Computing the number of bands and number of electrons
Calculating initial fillings.
nElectrons: 704.000000   nBands: 423   nStates: 24

----- Setting up reduced wavefunction bases (one per k-point) -----
average nbasis = 38070.500 , ideal nbasis = 38072.267

----- Initializing Supercell corresponding to k-point mesh -----
Lattice vector linear combinations in supercell:
[  11   0   0  ]
[   0   2   0  ]
[   0   0   1  ]
Supercell lattice vectors:
[  57.552  0  0  ]
[  0  49.0805  0  ]
[  0  0  69.4103  ]

Initializing DFT-D3 calculator:
	Parameters set for gga-PBE functional
	s6:  1.000  s_r6:  1.217
	s8:  0.722  s_r8:  1.000
	Per-atom parameters loaded for:
	Pt:  sqrtQ[a0]:  5.888  Rcov[a0]:  2.116  CN: [ 0.00 1.92 6.67 ]

Initializing DFT-D2 calculator for fluid / solvation:
	Pt:  C6:  815.23 Eh-a0^6  R0: 3.326 a0 (WARNING: beyond Grimme's data set)

---------- Setting up ewald sum ----------
Optimum gaussian width for ewald sums = 4.402079 bohr.
Real space sum over 665 unit cells with max indices [  9  3  2  ]
Reciprocal space sum over 7497 terms with max indices [  3  10  25  ]

Computing DFT-D3 correction:
# coordination-number Pt 7.053 8.279 7.193 9.369 9.427 9.549 5.926 9.397 9.551 9.484 9.552 9.520 9.559 9.538 9.365 9.543 9.560 9.526 9.437 7.118 9.078 7.156 9.076 9.366 9.437 9.526 9.561 9.542 7.119 9.540 9.560 9.521 9.552 9.482 9.425 9.396 8.280 9.549 9.551 9.370 7.193 5.926 7.053 7.156
# diagonal-C6 Pt 336.87 336.87 336.87 336.87 336.87 336.87 336.87 336.87 336.87 336.87 336.87 336.87 336.87 336.87 336.87 336.87 336.87 336.87 336.87 336.87 336.87 336.87 336.87 336.87 336.87 336.87 336.87 336.87 336.87 336.87 336.87 336.87 336.87 336.87 336.87 336.87 336.87 336.87 336.87 336.87 336.87 336.87 336.87 336.87
EvdW_6 =   -0.420770
EvdW_8 =   -0.657890

---------- Allocating electronic variables ----------
Initializing wave functions:  linear combination of atomic orbitals
Pt pseudo-atom occupations:   s ( 0 )  p ( 6 0 )  d ( 10 )
	FillingsUpdate:  mu: -0.244750000  nElectrons: 704.000000  magneticMoment: [ Abs: 0.00485  Tot: +0.00012 ]
LCAOMinimize: Iter:   0  G: -3722.5008270538291981  |grad|_K:  2.258e-02  alpha:  1.000e+00
LCAOMinimize: 	Step increased G by 1.752032e+03, reducing alpha to 1.767805e-02.
LCAOMinimize: 	Step increased G by 6.865416e+00, reducing alpha to 1.767805e-03.
	FillingsUpdate:  mu: -0.244750000  nElectrons: 704.000000  magneticMoment: [ Abs: 0.00474  Tot: +0.00008 ]
LCAOMinimize: Iter:   1  G: -3728.0367547016007848  |grad|_K:  1.799e-02  alpha:  1.768e-03  linmin: -1.382e-01  cgtest:  9.853e-01  t[s]:    551.14
LCAOMinimize: Encountered beta<0, resetting CG.
LCAOMinimize: 	Predicted alpha/alphaT>3.000000, increasing alphaT to 5.303415e-03.
	FillingsUpdate:  mu: -0.244750000  nElectrons: 704.000000  magneticMoment: [ Abs: 0.00440  Tot: +0.00018 ]
LCAOMinimize: Iter:   2  G: -3736.7504790452594534  |grad|_K:  5.594e-03  alpha:  8.980e-03  linmin:  8.417e-02  cgtest: -5.970e-01  t[s]:    717.38
	FillingsUpdate:  mu: -0.244750000  nElectrons: 704.000000  magneticMoment: [ Abs: 0.00410  Tot: +0.00008 ]
LCAOMinimize: Iter:   3  G: -3737.6288018015511625  |grad|_K:  7.489e-03  alpha:  1.762e-02  linmin:  5.758e-03  cgtest:  7.982e-01  t[s]:    849.49
	FillingsUpdate:  mu: -0.244750000  nElectrons: 704.000000  magneticMoment: [ Abs: 0.00397  Tot: -0.00006 ]
LCAOMinimize: Iter:   4  G: -3739.1694213447935908  |grad|_K:  1.894e-03  alpha:  7.879e-03  linmin:  2.306e-02  cgtest: -2.474e-01  t[s]:    982.22
LCAOMinimize: 	Predicted alpha/alphaT>3.000000, increasing alphaT to 2.363568e-02.
LCAOMinimize: 	Predicted alpha/alphaT>3.000000, increasing alphaT to 7.090704e-02.
	FillingsUpdate:  mu: -0.244750000  nElectrons: 704.000000  magneticMoment: [ Abs: 0.00341  Tot: -0.00010 ]
LCAOMinimize: Iter:   5  G: -3740.0243460686278922  |grad|_K:  6.183e-03  alpha:  7.634e-02  linmin:  1.680e-03  cgtest:  5.946e-02  t[s]:   1182.12
LCAOMinimize: 	Step increased G by 6.388508e-01, reducing alpha to 9.550599e-04.
	FillingsUpdate:  mu: -0.244750000  nElectrons: 704.000000  magneticMoment: [ Abs: 0.00335  Tot: -0.00010 ]
LCAOMinimize: Iter:   6  G: -3740.2282639266968545  |grad|_K:  4.804e-03  alpha:  9.551e-04  linmin: -2.567e-02  cgtest:  9.856e-01  t[s]:   1415.17
LCAOMinimize: Encountered beta<0, resetting CG.
	FillingsUpdate:  mu: -0.244750000  nElectrons: 704.000000  magneticMoment: [ Abs: 0.00334  Tot: -0.00012 ]
LCAOMinimize: Iter:   7  G: -3740.4344853091429286  |grad|_K:  1.784e-03  alpha:  2.665e-03  linmin:  9.156e-04  cgtest: -3.106e-03  t[s]:   1547.68
LCAOMinimize: 	Predicted alpha/alphaT>3.000000, increasing alphaT to 7.994834e-03.
	FillingsUpdate:  mu: -0.244750000  nElectrons: 704.000000  magneticMoment: [ Abs: 0.00327  Tot: -0.00015 ]
LCAOMinimize: Iter:   8  G: -3740.6440718771441425  |grad|_K:  1.704e-03  alpha:  1.968e-02  linmin: -3.645e-04  cgtest: -6.396e-04  t[s]:   1715.47
	FillingsUpdate:  mu: -0.244750000  nElectrons: 704.000000  magneticMoment: [ Abs: 0.00318  Tot: -0.00011 ]
LCAOMinimize: Iter:   9  G: -3740.8000078332038356  |grad|_K:  1.573e-03  alpha:  1.596e-02  linmin: -1.710e-04  cgtest: -3.049e-02  t[s]:   1849.63
	FillingsUpdate:  mu: -0.244750000  nElectrons: 704.000000  magneticMoment: [ Abs: 0.00288  Tot: -0.00003 ]
LCAOMinimize: Iter:  10  G: -3741.1339102390047628  |grad|_K:  1.400e-03  alpha:  4.046e-02  linmin:  6.256e-04  cgtest:  3.259e-02  t[s]:   1981.77
	FillingsUpdate:  mu: -0.244750000  nElectrons: 704.000000  magneticMoment: [ Abs: 0.00244  Tot: -0.00006 ]
LCAOMinimize: Iter:  11  G: -3741.5403126208866524  |grad|_K:  2.773e-03  alpha:  6.261e-02  linmin:  3.022e-04  cgtest: -1.809e-03  t[s]:   2113.77
	FillingsUpdate:  mu: -0.244750000  nElectrons: 704.000000  magneticMoment: [ Abs: 0.00234  Tot: +0.00002 ]
LCAOMinimize: Iter:  12  G: -3741.6126540911814118  |grad|_K:  1.475e-03  alpha:  3.889e-03  linmin:  1.279e-02  cgtest: -5.030e-01  t[s]:   2247.26
	FillingsUpdate:  mu: -0.244750000  nElectrons: 704.000000  magneticMoment: [ Abs: 0.00224  Tot: +0.00008 ]
LCAOMinimize: Iter:  13  G: -3741.6421523947533387  |grad|_K:  1.794e-03  alpha:  8.323e-03  linmin: -2.346e-05  cgtest:  8.947e-01  t[s]:   2379.49
	FillingsUpdate:  mu: -0.244750000  nElectrons: 704.000000  magneticMoment: [ Abs: 0.00222  Tot: +0.00009 ]
LCAOMinimize: Iter:  14  G: -3741.6799578704121814  |grad|_K:  1.142e-03  alpha:  3.468e-03  linmin: -6.285e-04  cgtest: -2.650e-02  t[s]:   2512.90
LCAOMinimize: 	Predicted alpha/alphaT>3.000000, increasing alphaT to 1.040421e-02.
	FillingsUpdate:  mu: -0.244750000  nElectrons: 704.000000  magneticMoment: [ Abs: 0.00217  Tot: +0.00008 ]
LCAOMinimize: Iter:  15  G: -3741.7655927104437978  |grad|_K:  1.026e-03  alpha:  1.934e-02  linmin: -9.308e-04  cgtest: -2.093e-02  t[s]:   2678.72
	FillingsUpdate:  mu: -0.244750000  nElectrons: 704.000000  magneticMoment: [ Abs: 0.00215  Tot: +0.00005 ]
LCAOMinimize: Iter:  16  G: -3741.8052570800523426  |grad|_K:  7.068e-04  alpha:  1.117e-02  linmin:  1.354e-04  cgtest:  1.002e-02  t[s]:   2810.56
	FillingsUpdate:  mu: -0.244750000  nElectrons: 704.000000  magneticMoment: [ Abs: 0.00214  Tot: +0.00004 ]
LCAOMinimize: Iter:  17  G: -3741.8147080363478381  |grad|_K:  7.633e-04  alpha:  5.638e-03  linmin: -1.632e-04  cgtest:  2.665e-03  t[s]:   2943.64
	FillingsUpdate:  mu: -0.244750000  nElectrons: 704.000000  magneticMoment: [ Abs: 0.00211  Tot: +0.00003 ]
LCAOMinimize: Iter:  18  G: -3741.8453198573824920  |grad|_K:  4.482e-04  alpha:  1.554e-02  linmin: -7.297e-04  cgtest: -1.864e-02  t[s]:   3076.09
	FillingsUpdate:  mu: -0.244750000  nElectrons: 704.000000  magneticMoment: [ Abs: 0.00209  Tot: +0.00003 ]
LCAOMinimize: Iter:  19  G: -3741.8653307928379945  |grad|_K:  6.530e-04  alpha:  2.926e-02  linmin: -6.251e-04  cgtest:  1.347e-02  t[s]:   3211.23
	FillingsUpdate:  mu: -0.244750000  nElectrons: 704.000000  magneticMoment: [ Abs: 0.00208  Tot: +0.00004 ]
LCAOMinimize: Iter:  20  G: -3741.8711074911252581  |grad|_K:  4.371e-04  alpha:  3.714e-03  linmin: -4.600e-03  cgtest:  8.089e-02  t[s]:   3343.99
LCAOMinimize: 	Predicted alpha/alphaT>3.000000, increasing alphaT to 1.114292e-02.
	FillingsUpdate:  mu: -0.244750000  nElectrons: 704.000000  magneticMoment: [ Abs: 0.00207  Tot: +0.00005 ]
LCAOMinimize: Iter:  21  G: -3741.8804841744149599  |grad|_K:  4.877e-04  alpha:  1.384e-02  linmin:  1.228e-03  cgtest: -1.080e-01  t[s]:   3510.05
	FillingsUpdate:  mu: -0.244750000  nElectrons: 704.000000  magneticMoment: [ Abs: 0.00206  Tot: +0.00005 ]
LCAOMinimize: Iter:  22  G: -3741.9014255616339142  |grad|_K:  5.958e-04  alpha:  2.708e-02  linmin:  5.135e-04  cgtest:  3.101e-01  t[s]:   3642.41
	FillingsUpdate:  mu: -0.244750000  nElectrons: 704.000000  magneticMoment: [ Abs: 0.00206  Tot: +0.00005 ]
LCAOMinimize: Iter:  23  G: -3741.9068924615171454  |grad|_K:  4.902e-04  alpha:  4.716e-03  linmin:  5.797e-04  cgtest: -7.382e-03  t[s]:   3774.34
	FillingsUpdate:  mu: -0.244750000  nElectrons: 704.000000  magneticMoment: [ Abs: 0.00206  Tot: +0.00005 ]
LCAOMinimize: Iter:  24  G: -3741.9130854749655555  |grad|_K:  3.707e-04  alpha:  7.731e-03  linmin: -7.157e-04  cgtest:  2.223e-02  t[s]:   3906.34
	FillingsUpdate:  mu: -0.244750000  nElectrons: 704.000000  magneticMoment: [ Abs: 0.00206  Tot: +0.00006 ]
LCAOMinimize: Iter:  25  G: -3741.9178556783363092  |grad|_K:  1.494e-04  alpha:  1.023e-02  linmin:  3.220e-04  cgtest: -5.773e-02  t[s]:   4038.30
	FillingsUpdate:  mu: -0.244750000  nElectrons: 704.000000  magneticMoment: [ Abs: 0.00206  Tot: +0.00006 ]
LCAOMinimize: Iter:  26  G: -3741.9182052080350331  |grad|_K:  1.436e-04  alpha:  4.665e-03  linmin:  5.192e-05  cgtest:  3.832e-03  t[s]:   4170.07
LCAOMinimize: 	Predicted alpha/alphaT>3.000000, increasing alphaT to 1.399361e-02.
	FillingsUpdate:  mu: -0.244750000  nElectrons: 704.000000  magneticMoment: [ Abs: 0.00206  Tot: +0.00007 ]
LCAOMinimize: Iter:  27  G: -3741.9193603684116169  |grad|_K:  1.166e-04  alpha:  1.673e-02  linmin:  7.993e-04  cgtest: -1.505e-02  t[s]:   4335.76
	FillingsUpdate:  mu: -0.244750000  nElectrons: 704.000000  magneticMoment: [ Abs: 0.00206  Tot: +0.00007 ]
LCAOMinimize: Iter:  28  G: -3741.9197268339621587  |grad|_K:  8.185e-05  alpha:  8.151e-03  linmin: -2.534e-04  cgtest:  1.788e-02  t[s]:   4467.75
	FillingsUpdate:  mu: -0.244750000  nElectrons: 704.000000  magneticMoment: [ Abs: 0.00206  Tot: +0.00007 ]
LCAOMinimize: Iter:  29  G: -3741.9198672080683536  |grad|_K:  9.600e-05  alpha:  6.252e-03  linmin: -8.730e-04  cgtest:  7.342e-03  t[s]:   4601.24
	FillingsUpdate:  mu: -0.244750000  nElectrons: 704.000000  magneticMoment: [ Abs: 0.00206  Tot: +0.00008 ]
LCAOMinimize: Iter:  30  G: -3741.9203225657943221  |grad|_K:  5.398e-05  alpha:  1.409e-02  linmin: -4.854e-03  cgtest: -4.905e-03  t[s]:   4735.45
LCAOMinimize: None of the convergence criteria satisfied after 30 iterations.
----- createFluidSolver() ----- (Fluid-side solver setup)
   Initializing fluid molecule 'H2O'
     Initializing site 'O'
       Electron density: proportional to exp(-r/0.36935)*erfc((r-0.51523)/0.36823) with norm 6.826
       Charge density: gaussian nuclear width 0.478731 with net site charge 0.826
       Polarizability: cuspless exponential with width 0.32 and norm 3.73
       Hard sphere radius: 2.57003 bohrs
       Positions in reference frame:
         [ +0.000000 +0.000000 +0.000000 ]
     Initializing site 'H'
       Electron density: proportional to exp(-r/0.34641)*erfc((r-0)/0.390882) with norm 0.587
       Charge density: gaussian nuclear width 0.377945 with net site charge -0.413
       Polarizability: cuspless exponential with width 0.39 and norm 3.3
       Positions in reference frame:
         [ +0.000000 -1.441945 +1.122523 ]
         [ +0.000000 +1.441945 +1.122523 ]
     Net charge: 0   dipole magnitude: 0.927204
     Initializing spherical shell mfKernel with radius 2.61727 Bohr
     deltaS corrections:
       site 'O': -7.54299
       site 'H': -6.83917
   Initializing fluid molecule 'Na+'
     Initializing site 'Na'
       Electron density: proportional to exp(-r/0.19682)*erfc((r-0.71491)/0.41314) with norm 8.1383
       Charge density: gaussian nuclear width 0.365347 with net site charge -1
       Hard sphere radius: 1.86327 bohrs
       Positions in reference frame:
         [ +0.000000 +0.000000 +0.000000 ]
     Net charge: -1   dipole magnitude: 0
     Initializing gaussian mfKernel with width: 1.55004 Bohr
     deltaS corrections:
       site 'Na': -22.3555
   Initializing fluid molecule 'F-'
     Initializing site 'F'
       Electron density: proportional to exp(-r/0.38886)*erfc((r-0)/0.438782) with norm 8
       Charge density: gaussian nuclear width 0.374796 with net site charge 1
       Hard sphere radius: 2.39995 bohrs
       Positions in reference frame:
         [ +0.000000 +0.000000 +0.000000 ]
     Net charge: 1   dipole magnitude: 0
     Initializing gaussian mfKernel with width: 1.59012 Bohr
     deltaS corrections:
       site 'F': -9.04335

Correction to mu due to finite nuclear width = -0.0783795
   Cavity determined by nc: 0.00142 and sigma: 0.707107
   Nonlocal vdW cavity from gaussian model electron density with norm = 8 and sigma = 0.993594 bohr
   Charge asymmetry in cavity with sensitivity pCavity = 36.5 e-bohr/Eh
   Electrostatic cavity expanded by eta = 1.46 bohrs
   Weighted density cavitation model constrained by Nbulk: 0.0049383 bohr^-3, Pvap: 3.14029 kPa, Rvdw: 2.61727 bohr and sigmaBulk: 4.62e-05 Eh/bohr^2 at T: 298 K.
   Weighted density dispersion model using vdW pair potentials with single solvent site with sqrtC6eff: 0.77 SI.


---- Citations for features of the code used in this run ----

   Software package:
      R. Sundararaman, K. Letchworth-Weaver, K.A. Schwarz, D. Gunceler, Y. Ozhabes and T.A. Arias, 'JDFTx: software for joint density-functional theory', SoftwareX 6, 278 (2017)

   gga-PBE exchange-correlation functional:
      J.P. Perdew, K. Burke and M. Ernzerhof, Phys. Rev. Lett. 77, 3865 (1996)

   Pseudopotentials:
      KF Garrity, JW Bennett, KM Rabe and D Vanderbilt, Comput. Mater. Sci. 81, 446 (2014)

   DFT-D3 dispersion correction:
      S. Grimme, J. Antony, S. Ehrlich and H. Krieg, J. Chem. Phys. 132, 154104 (2010)

   DFT-D2 dispersion correction:
      S. Grimme, J. Comput. Chem. 27, 1787 (2006)

   Charge-asymmetric nonlocally-determined local-electric (CANDLE) solvation model:
      R. Sundararaman and W.A. Goddard III, J. Chem. Phys. 142, 064107 (2015)

   Total energy minimization with Auxiliary Hamiltonian:
      C. Freysoldt, S. Boeck, and J. Neugebauer, Phys. Rev. B 79, 241103(R) (2009)

   Grand-canonical (fixed-potential) DFT:
      R. Sundararaman, W. A. Goddard III and T. A. Arias, J. Chem. Phys. 146, 114104 (2017)

   Linear-tetrahedron sampling for density of states:
      G. Lehmann and M. Taut, Phys. status solidi (b) 54, 469 (1972)

This list may not be complete. Please suggest additional citations or
report any other bugs at https://github.com/shankar1729/jdftx/issues

Initialization completed successfully at t[s]:   4769.82


Computing DFT-D3 correction:
# coordination-number Pt 7.053 8.279 7.193 9.369 9.427 9.549 5.926 9.397 9.551 9.484 9.552 9.520 9.559 9.538 9.365 9.543 9.560 9.526 9.437 7.118 9.078 7.156 9.076 9.366 9.437 9.526 9.561 9.542 7.119 9.540 9.560 9.521 9.552 9.482 9.425 9.396 8.280 9.549 9.551 9.370 7.193 5.926 7.053 7.156
# diagonal-C6 Pt 336.87 336.87 336.87 336.87 336.87 336.87 336.87 336.87 336.87 336.87 336.87 336.87 336.87 336.87 336.87 336.87 336.87 336.87 336.87 336.87 336.87 336.87 336.87 336.87 336.87 336.87 336.87 336.87 336.87 336.87 336.87 336.87 336.87 336.87 336.87 336.87 336.87 336.87 336.87 336.87 336.87 336.87 336.87 336.87
EvdW_6 =   -0.420770
EvdW_8 =   -0.657890
Fluid solver invoked on fresh (random / LCAO) wavefunctions
Running a vacuum solve first:

-------- Initial electronic minimization -----------
	FillingsUpdate:  mu: +0.298412001  nElectrons: 704.000000  magneticMoment: [ Abs: 0.00206  Tot: +0.00008 ]
ElecMinimize: Iter:   0  G: -3741.928547943692138  |grad|_K:  5.447e-05  alpha:  1.000e+00
	FillingsUpdate:  mu: +0.451722820  nElectrons: 704.000000  magneticMoment: [ Abs: 0.00172  Tot: +0.00013 ]
	SubspaceRotationAdjust: set factor to 0.506
ElecMinimize: Iter:   1  G: -3742.267133705250671  |grad|_K:  2.832e-04  alpha:  2.984e-01  linmin:  5.146e-05  t[s]:   5089.31
ElecMinimize: 	Step increased G by 2.494773e-01, reducing alpha to 9.306513e-04.
	FillingsUpdate:  mu: +0.419121161  nElectrons: 704.000000  magneticMoment: [ Abs: 0.00171  Tot: +0.00013 ]
	SubspaceRotationAdjust: set factor to 0.262
ElecMinimize: Iter:   2  G: -3742.317772117761706  |grad|_K:  1.468e-04  alpha:  9.307e-04  linmin: -2.981e-03  t[s]:   5420.74
ElecMinimize: 	Predicted alpha/alphaT>3.000000, increasing alphaT to 2.791954e-03.
	FillingsUpdate:  mu: +0.373939765  nElectrons: 704.000000  magneticMoment: [ Abs: 0.00169  Tot: +0.00012 ]
	SubspaceRotationAdjust: set factor to 0.156
ElecMinimize: Iter:   3  G: -3742.370502874372050  |grad|_K:  6.358e-05  alpha:  3.690e-03  linmin: -4.176e-05  t[s]:   5674.92
ElecMinimize: 	Predicted alpha/alphaT>3.000000, increasing alphaT to 1.107002e-02.
	FillingsUpdate:  mu: +0.348161110  nElectrons: 704.000000  magneticMoment: [ Abs: 0.00164  Tot: +0.00011 ]
	SubspaceRotationAdjust: set factor to 0.095
	SubspaceRotationAdjust: resetting CG because factor has changed by 0.0950351
ElecMinimize: 	State modified externally: resetting search direction.
ElecMinimize: Iter:   4  G: -3742.400594979288599  |grad|_K:  4.605e-05  alpha:  1.905e-02
	FillingsUpdate:  mu: +0.327469680  nElectrons: 704.000000  magneticMoment: [ Abs: 0.00162  Tot: +0.00012 ]
	SubspaceRotationAdjust: set factor to 0.0433
ElecMinimize: Iter:   5  G: -3742.426446697008487  |grad|_K:  2.804e-05  alpha:  3.145e-02  linmin:  3.761e-04  t[s]:   6231.88
ElecMinimize: 	Predicted alpha/alphaT>3.000000, increasing alphaT to 9.434461e-02.
	FillingsUpdate:  mu: +0.369370769  nElectrons: 704.000000  magneticMoment: [ Abs: 0.00144  Tot: +0.00012 ]
	SubspaceRotationAdjust: set factor to 0.0299
ElecMinimize: Iter:   6  G: -3742.479338097793061  |grad|_K:  2.227e-05  alpha:  1.742e-01  linmin:  6.603e-05  t[s]:   6483.66
	FillingsUpdate:  mu: +0.321354156  nElectrons: 704.000000  magneticMoment: [ Abs: 0.00116  Tot: +0.00011 ]
	SubspaceRotationAdjust: set factor to 0.0313
ElecMinimize: Iter:   7  G: -3742.527242104162269  |grad|_K:  1.497e-05  alpha:  2.490e-01  linmin:  3.674e-05  t[s]:   6688.27
	FillingsUpdate:  mu: +0.319309972  nElectrons: 704.000000  magneticMoment: [ Abs: 0.00095  Tot: +0.00011 ]
	SubspaceRotationAdjust: set factor to 0.0277
ElecMinimize: Iter:   8  G: -3742.551514184723146  |grad|_K:  1.094e-05  alpha:  2.792e-01  linmin:  1.551e-06  t[s]:   6893.62
	FillingsUpdate:  mu: +0.321757435  nElectrons: 704.000000  magneticMoment: [ Abs: 0.00088  Tot: +0.00011 ]
	SubspaceRotationAdjust: set factor to 0.0196
ElecMinimize: Iter:   9  G: -3742.557060604843628  |grad|_K:  6.628e-06  alpha:  1.192e-01  linmin: -1.752e-05  t[s]:   7095.53
	FillingsUpdate:  mu: +0.332060829  nElectrons: 704.000000  magneticMoment: [ Abs: 0.00081  Tot: +0.00011 ]
	SubspaceRotationAdjust: set factor to 0.0161
ElecMinimize: Iter:  10  G: -3742.560558951821349  |grad|_K:  4.760e-06  alpha:  2.048e-01  linmin:  1.074e-05  t[s]:   7299.57
	FillingsUpdate:  mu: +0.327441856  nElectrons: 704.000000  magneticMoment: [ Abs: 0.00073  Tot: +0.00010 ]
	SubspaceRotationAdjust: set factor to 0.0219
ElecMinimize: Iter:  11  G: -3742.563511287717120  |grad|_K:  3.719e-06  alpha:  3.355e-01  linmin:  1.725e-05  t[s]:   7502.95
	FillingsUpdate:  mu: +0.320741777  nElectrons: 704.000000  magneticMoment: [ Abs: 0.00070  Tot: +0.00010 ]
	SubspaceRotationAdjust: set factor to 0.0186
ElecMinimize: Iter:  12  G: -3742.564791785639500  |grad|_K:  2.868e-06  alpha:  2.386e-01  linmin:  1.292e-05  t[s]:   7705.84
	FillingsUpdate:  mu: +0.319440315  nElectrons: 704.000000  magneticMoment: [ Abs: 0.00068  Tot: +0.00010 ]
	SubspaceRotationAdjust: set factor to 0.0187
ElecMinimize: Iter:  13  G: -3742.565570279897656  |grad|_K:  2.031e-06  alpha:  2.437e-01  linmin:  1.346e-05  t[s]:   7908.85
	FillingsUpdate:  mu: +0.323221597  nElectrons: 704.000000  magneticMoment: [ Abs: 0.00066  Tot: +0.00010 ]
	SubspaceRotationAdjust: set factor to 0.0197
ElecMinimize: Iter:  14  G: -3742.566137120661097  |grad|_K:  1.836e-06  alpha:  3.540e-01  linmin:  1.107e-05  t[s]:   8110.75
	FillingsUpdate:  mu: +0.323384449  nElectrons: 704.000000  magneticMoment: [ Abs: 0.00065  Tot: +0.00009 ]
	SubspaceRotationAdjust: set factor to 0.0247
ElecMinimize: Iter:  15  G: -3742.566689956681330  |grad|_K:  1.719e-06  alpha:  4.227e-01  linmin:  1.287e-05  t[s]:   8317.21
	FillingsUpdate:  mu: +0.320084756  nElectrons: 704.000000  magneticMoment: [ Abs: 0.00064  Tot: +0.00009 ]
	SubspaceRotationAdjust: set factor to 0.0238
ElecMinimize: Iter:  16  G: -3742.567067205177409  |grad|_K:  1.922e-06  alpha:  3.295e-01  linmin:  4.903e-06  t[s]:   8522.03
	FillingsUpdate:  mu: +0.318582497  nElectrons: 704.000000  magneticMoment: [ Abs: 0.00064  Tot: +0.00008 ]
	SubspaceRotationAdjust: set factor to 0.0232
ElecMinimize: Iter:  17  G: -3742.567528368895637  |grad|_K:  2.222e-06  alpha:  3.219e-01  linmin:  1.951e-06  t[s]:   8725.77
	FillingsUpdate:  mu: +0.320313234  nElectrons: 704.000000  magneticMoment: [ Abs: 0.00063  Tot: +0.00008 ]
	SubspaceRotationAdjust: set factor to 0.0215
ElecMinimize: Iter:  18  G: -3742.568124040535622  |grad|_K:  2.078e-06  alpha:  3.108e-01  linmin: -6.984e-08  t[s]:   8929.49
	FillingsUpdate:  mu: +0.321001214  nElectrons: 704.000000  magneticMoment: [ Abs: 0.00062  Tot: +0.00007 ]
	SubspaceRotationAdjust: set factor to 0.0239
ElecMinimize: Iter:  19  G: -3742.568905864558474  |grad|_K:  2.293e-06  alpha:  4.659e-01  linmin: -3.531e-06  t[s]:   9132.52
	FillingsUpdate:  mu: +0.314608300  nElectrons: 704.000000  magneticMoment: [ Abs: 0.00060  Tot: +0.00006 ]
	SubspaceRotationAdjust: set factor to 0.023
ElecMinimize: Iter:  20  G: -3742.569824815416268  |grad|_K:  2.494e-06  alpha:  4.484e-01  linmin: -7.700e-06  t[s]:   9336.09
	FillingsUpdate:  mu: +0.313168009  nElectrons: 704.000000  magneticMoment: [ Abs: 0.00055  Tot: +0.00005 ]
	SubspaceRotationAdjust: set factor to 0.026
ElecMinimize: Iter:  21  G: -3742.570862062181732  |grad|_K:  2.254e-06  alpha:  4.257e-01  linmin: -1.006e-05  t[s]:   9538.51
	FillingsUpdate:  mu: +0.316549042  nElectrons: 704.000000  magneticMoment: [ Abs: 0.00050  Tot: +0.00005 ]
	SubspaceRotationAdjust: set factor to 0.0219
ElecMinimize: Iter:  22  G: -3742.571473075368885  |grad|_K:  2.263e-06  alpha:  3.069e-01  linmin: -4.487e-06  t[s]:   9742.52
	FillingsUpdate:  mu: +0.316644955  nElectrons: 704.000000  magneticMoment: [ Abs: 0.00045  Tot: +0.00005 ]
	SubspaceRotationAdjust: set factor to 0.0178
ElecMinimize: Iter:  23  G: -3742.571958413396715  |grad|_K:  2.023e-06  alpha:  2.428e-01  linmin: -2.741e-06  t[s]:   9946.40
	FillingsUpdate:  mu: +0.313201104  nElectrons: 704.000000  magneticMoment: [ Abs: 0.00040  Tot: +0.00005 ]
	SubspaceRotationAdjust: set factor to 0.0165
ElecMinimize: Iter:  24  G: -3742.572336023400112  |grad|_K:  1.333e-06  alpha:  2.368e-01  linmin: -2.626e-06  t[s]:  10151.34
	FillingsUpdate:  mu: +0.312029099  nElectrons: 704.000000  magneticMoment: [ Abs: 0.00036  Tot: +0.00005 ]
	SubspaceRotationAdjust: set factor to 0.0183
ElecMinimize: Iter:  25  G: -3742.572587100909004  |grad|_K:  1.075e-06  alpha:  3.626e-01  linmin: -1.354e-06  t[s]:  10356.23
	FillingsUpdate:  mu: +0.313011117  nElectrons: 704.000000  magneticMoment: [ Abs: 0.00034  Tot: +0.00005 ]
	SubspaceRotationAdjust: set factor to 0.0161
ElecMinimize: Iter:  26  G: -3742.572709988444331  |grad|_K:  9.005e-07  alpha:  2.736e-01  linmin:  1.119e-07  t[s]:  10560.42
	FillingsUpdate:  mu: +0.313675923  nElectrons: 704.000000  magneticMoment: [ Abs: 0.00032  Tot: +0.00005 ]
	SubspaceRotationAdjust: set factor to 0.015
ElecMinimize: Iter:  27  G: -3742.572798197588781  |grad|_K:  6.789e-07  alpha:  2.799e-01  linmin: -1.248e-07  t[s]:  10763.99
	FillingsUpdate:  mu: +0.312821706  nElectrons: 704.000000  magneticMoment: [ Abs: 0.00031  Tot: +0.00005 ]
	SubspaceRotationAdjust: set factor to 0.0176
ElecMinimize: Iter:  28  G: -3742.572856533071899  |grad|_K:  5.009e-07  alpha:  3.256e-01  linmin: -2.004e-06  t[s]:  10967.24
	FillingsUpdate:  mu: +0.312492834  nElectrons: 704.000000  magneticMoment: [ Abs: 0.00031  Tot: +0.00005 ]
	SubspaceRotationAdjust: set factor to 0.0182
ElecMinimize: Iter:  29  G: -3742.572891390958375  |grad|_K:  4.811e-07  alpha:  3.572e-01  linmin: -4.145e-06  t[s]:  11169.27
	FillingsUpdate:  mu: +0.312907989  nElectrons: 704.000000  magneticMoment: [ Abs: 0.00031  Tot: +0.00005 ]
	SubspaceRotationAdjust: set factor to 0.0182
ElecMinimize: Iter:  30  G: -3742.572916501974305  |grad|_K:  4.016e-07  alpha:  2.786e-01  linmin: -4.875e-06  t[s]:  11372.09
	FillingsUpdate:  mu: +0.313467689  nElectrons: 704.000000  magneticMoment: [ Abs: 0.00031  Tot: +0.00005 ]
	SubspaceRotationAdjust: set factor to 0.0211
ElecMinimize: Iter:  31  G: -3742.572940500999721  |grad|_K:  3.833e-07  alpha:  3.818e-01  linmin: -7.626e-06  t[s]:  11574.70
	FillingsUpdate:  mu: +0.312975367  nElectrons: 704.000000  magneticMoment: [ Abs: 0.00031  Tot: +0.00005 ]
	SubspaceRotationAdjust: set factor to 0.0238
ElecMinimize: Iter:  32  G: -3742.572966465061654  |grad|_K:  4.141e-07  alpha:  4.524e-01  linmin: -9.063e-06  t[s]:  11777.94
	FillingsUpdate:  mu: +0.312722114  nElectrons: 704.000000  magneticMoment: [ Abs: 0.00030  Tot: +0.00005 ]
	SubspaceRotationAdjust: set factor to 0.0234
ElecMinimize: Iter:  33  G: -3742.572992012399027  |grad|_K:  5.133e-07  alpha:  3.803e-01  linmin: -8.162e-06  t[s]:  11981.55
	FillingsUpdate:  mu: +0.313108346  nElectrons: 704.000000  magneticMoment: [ Abs: 0.00030  Tot: +0.00005 ]
	SubspaceRotationAdjust: set factor to 0.021
ElecMinimize: Iter:  34  G: -3742.573017741955027  |grad|_K:  4.708e-07  alpha:  2.493e-01  linmin: -6.948e-06  t[s]:  12187.06
	FillingsUpdate:  mu: +0.314060340  nElectrons: 704.000000  magneticMoment: [ Abs: 0.00030  Tot: +0.00005 ]
	SubspaceRotationAdjust: set factor to 0.0211
ElecMinimize: Iter:  35  G: -3742.573053934054769  |grad|_K:  5.050e-07  alpha:  4.159e-01  linmin: -7.989e-06  t[s]:  12391.12
	FillingsUpdate:  mu: +0.313631194  nElectrons: 704.000000  magneticMoment: [ Abs: 0.00028  Tot: +0.00005 ]
	SubspaceRotationAdjust: set factor to 0.0231
ElecMinimize: Iter:  36  G: -3742.573096338749565  |grad|_K:  4.774e-07  alpha:  4.224e-01  linmin: -6.427e-06  t[s]:  12592.46
	FillingsUpdate:  mu: +0.313234126  nElectrons: 704.000000  magneticMoment: [ Abs: 0.00027  Tot: +0.00005 ]
	SubspaceRotationAdjust: set factor to 0.0227
ElecMinimize: Iter:  37  G: -3742.573133017064720  |grad|_K:  5.214e-07  alpha:  4.095e-01  linmin: -3.745e-06  t[s]:  12795.75
	FillingsUpdate:  mu: +0.313727453  nElectrons: 704.000000  magneticMoment: [ Abs: 0.00025  Tot: +0.00005 ]
	SubspaceRotationAdjust: set factor to 0.0194
ElecMinimize: Iter:  38  G: -3742.573159508228855  |grad|_K:  4.793e-07  alpha:  2.494e-01  linmin: -1.471e-06  t[s]:  12997.34
	FillingsUpdate:  mu: +0.314460103  nElectrons: 704.000000  magneticMoment: [ Abs: 0.00023  Tot: +0.00005 ]
	SubspaceRotationAdjust: set factor to 0.0175
ElecMinimize: Iter:  39  G: -3742.573184982144085  |grad|_K:  4.174e-07  alpha:  2.845e-01  linmin: -8.404e-07  t[s]:  13200.45
	FillingsUpdate:  mu: +0.314238698  nElectrons: 704.000000  magneticMoment: [ Abs: 0.00021  Tot: +0.00005 ]
	SubspaceRotationAdjust: set factor to 0.0212
ElecMinimize: Iter:  40  G: -3742.573209507728279  |grad|_K:  3.349e-07  alpha:  3.616e-01  linmin: -3.758e-07  t[s]:  13402.07
	FillingsUpdate:  mu: +0.313861504  nElectrons: 704.000000  magneticMoment: [ Abs: 0.00019  Tot: +0.00005 ]
	SubspaceRotationAdjust: set factor to 0.0214
ElecMinimize: Iter:  41  G: -3742.573225308208748  |grad|_K:  3.350e-07  alpha:  3.622e-01  linmin: -3.079e-07  t[s]:  13605.11
	FillingsUpdate:  mu: +0.314051199  nElectrons: 704.000000  magneticMoment: [ Abs: 0.00018  Tot: +0.00005 ]
	SubspaceRotationAdjust: set factor to 0.0201
ElecMinimize: Iter:  42  G: -3742.573236636234469  |grad|_K:  2.966e-07  alpha:  2.597e-01  linmin: -6.890e-08  t[s]:  13807.78
	FillingsUpdate:  mu: +0.314479956  nElectrons: 704.000000  magneticMoment: [ Abs: 0.00018  Tot: +0.00005 ]
	SubspaceRotationAdjust: set factor to 0.0197
ElecMinimize: Iter:  43  G: -3742.573246489440407  |grad|_K:  2.555e-07  alpha:  2.880e-01  linmin: -1.707e-08  t[s]:  14011.08
	FillingsUpdate:  mu: +0.314378660  nElectrons: 704.000000  magneticMoment: [ Abs: 0.00018  Tot: +0.00005 ]
	SubspaceRotationAdjust: set factor to 0.0242
ElecMinimize: Iter:  44  G: -3742.573256746349671  |grad|_K:  2.285e-07  alpha:  4.040e-01  linmin: -1.223e-07  t[s]:  14214.10
	FillingsUpdate:  mu: +0.314075601  nElectrons: 704.000000  magneticMoment: [ Abs: 0.00018  Tot: +0.00005 ]
	SubspaceRotationAdjust: set factor to 0.0246
ElecMinimize: Iter:  45  G: -3742.573264510243916  |grad|_K:  2.420e-07  alpha:  3.825e-01  linmin: -7.446e-08  t[s]:  14419.42
	FillingsUpdate:  mu: +0.314204464  nElectrons: 704.000000  magneticMoment: [ Abs: 0.00019  Tot: +0.00005 ]
	SubspaceRotationAdjust: set factor to 0.0223
ElecMinimize: Iter:  46  G: -3742.573270287245577  |grad|_K:  2.348e-07  alpha:  2.538e-01  linmin:  1.067e-07  t[s]:  14624.49
	FillingsUpdate:  mu: +0.314504863  nElectrons: 704.000000  magneticMoment: [ Abs: 0.00019  Tot: +0.00005 ]
	SubspaceRotationAdjust: set factor to 0.0196
ElecMinimize: Iter:  47  G: -3742.573275587347780  |grad|_K:  2.011e-07  alpha:  2.475e-01  linmin:  8.059e-08  t[s]:  14827.07
	FillingsUpdate:  mu: +0.314468204  nElectrons: 704.000000  magneticMoment: [ Abs: 0.00018  Tot: +0.00005 ]
	SubspaceRotationAdjust: set factor to 0.0237
ElecMinimize: Iter:  48  G: -3742.573281811235574  |grad|_K:  1.737e-07  alpha:  3.962e-01  linmin:  3.811e-07  t[s]:  15030.75
	FillingsUpdate:  mu: +0.314207277  nElectrons: 704.000000  magneticMoment: [ Abs: 0.00017  Tot: +0.00005 ]
	SubspaceRotationAdjust: set factor to 0.0234
ElecMinimize: Iter:  49  G: -3742.573286091912905  |grad|_K:  1.690e-07  alpha:  3.652e-01  linmin: -4.450e-07  t[s]:  15233.67
	FillingsUpdate:  mu: +0.314273965  nElectrons: 704.000000  magneticMoment: [ Abs: 0.00016  Tot: +0.00005 ]
	SubspaceRotationAdjust: set factor to 0.021
ElecMinimize: Iter:  50  G: -3742.573289052782457  |grad|_K:  1.631e-07  alpha:  2.664e-01  linmin: -7.394e-07  t[s]:  15436.49
	FillingsUpdate:  mu: +0.314449751  nElectrons: 704.000000  magneticMoment: [ Abs: 0.00015  Tot: +0.00005 ]
	SubspaceRotationAdjust: set factor to 0.018
ElecMinimize: Iter:  51  G: -3742.573291395967317  |grad|_K:  1.261e-07  alpha:  2.264e-01  linmin: -1.092e-06  t[s]:  15639.41
	FillingsUpdate:  mu: +0.314447902  nElectrons: 704.000000  magneticMoment: [ Abs: 0.00014  Tot: +0.00005 ]
	SubspaceRotationAdjust: set factor to 0.0224
ElecMinimize: Iter:  52  G: -3742.573293781912525  |grad|_K:  1.061e-07  alpha:  3.857e-01  linmin: -3.907e-07  t[s]:  15841.36
	FillingsUpdate:  mu: +0.314300824  nElectrons: 704.000000  magneticMoment: [ Abs: 0.00013  Tot: +0.00005 ]
	SubspaceRotationAdjust: set factor to 0.0219
ElecMinimize: Iter:  53  G: -3742.573295287047586  |grad|_K:  1.025e-07  alpha:  3.440e-01  linmin: -1.312e-06  t[s]:  16044.32
	FillingsUpdate:  mu: +0.314301138  nElectrons: 704.000000  magneticMoment: [ Abs: 0.00012  Tot: +0.00004 ]
	SubspaceRotationAdjust: set factor to 0.0195
ElecMinimize: Iter:  54  G: -3742.573296277048939  |grad|_K:  9.196e-08  alpha:  2.424e-01  linmin: -5.286e-07  t[s]:  16246.56
	FillingsUpdate:  mu: +0.314409375  nElectrons: 704.000000  magneticMoment: [ Abs: 0.00011  Tot: +0.00004 ]
	SubspaceRotationAdjust: set factor to 0.0191
ElecMinimize: Iter:  55  G: -3742.573297179297242  |grad|_K:  7.169e-08  alpha:  2.745e-01  linmin:  6.709e-07  t[s]:  16451.74
	FillingsUpdate:  mu: +0.314409007  nElectrons: 704.000000  magneticMoment: [ Abs: 0.00010  Tot: +0.00004 ]
	SubspaceRotationAdjust: set factor to 0.0236
ElecMinimize: Iter:  56  G: -3742.573298018126025  |grad|_K:  6.395e-08  alpha:  4.198e-01  linmin: -5.401e-06  t[s]:  16657.47
	FillingsUpdate:  mu: +0.314315975  nElectrons: 704.000000  magneticMoment: [ Abs: 0.00010  Tot: +0.00004 ]
	SubspaceRotationAdjust: set factor to 0.0219
ElecMinimize: Iter:  57  G: -3742.573298524186612  |grad|_K:  6.493e-08  alpha:  3.175e-01  linmin: -4.258e-07  t[s]:  16860.42
	FillingsUpdate:  mu: +0.314289806  nElectrons: 704.000000  magneticMoment: [ Abs: 0.00010  Tot: +0.00004 ]
	SubspaceRotationAdjust: set factor to 0.0193
ElecMinimize: Iter:  58  G: -3742.573298920509387  |grad|_K:  5.778e-08  alpha:  2.419e-01  linmin: -1.994e-07  t[s]:  17064.38
	FillingsUpdate:  mu: +0.314356056  nElectrons: 704.000000  magneticMoment: [ Abs: 0.00010  Tot: +0.00004 ]
	SubspaceRotationAdjust: set factor to 0.0198
ElecMinimize: Iter:  59  G: -3742.573299315109125  |grad|_K:  4.525e-08  alpha:  3.053e-01  linmin:  5.994e-06  t[s]:  17268.20
	FillingsUpdate:  mu: +0.314362965  nElectrons: 704.000000  magneticMoment: [ Abs: 0.00009  Tot: +0.00004 ]
	SubspaceRotationAdjust: set factor to 0.0236
ElecMinimize: Iter:  60  G: -3742.573299666723415  |grad|_K:  4.283e-08  alpha:  4.424e-01  linmin: -5.784e-06  t[s]:  17470.12
	FillingsUpdate:  mu: +0.314299364  nElectrons: 704.000000  magneticMoment: [ Abs: 0.00009  Tot: +0.00004 ]
	SubspaceRotationAdjust: set factor to 0.0219
ElecMinimize: Iter:  61  G: -3742.573299896362641  |grad|_K:  4.402e-08  alpha:  3.214e-01  linmin:  3.028e-07  t[s]:  17673.35
	FillingsUpdate:  mu: +0.314274507  nElectrons: 704.000000  magneticMoment: [ Abs: 0.00009  Tot: +0.00004 ]
	SubspaceRotationAdjust: set factor to 0.0196
ElecMinimize: Iter:  62  G: -3742.573300084919993  |grad|_K:  4.062e-08  alpha:  2.495e-01  linmin:  2.690e-06  t[s]:  17875.01
	FillingsUpdate:  mu: +0.314316792  nElectrons: 704.000000  magneticMoment: [ Abs: 0.00009  Tot: +0.00004 ]
	SubspaceRotationAdjust: set factor to 0.0207
ElecMinimize: Iter:  63  G: -3742.573300295528043  |grad|_K:  3.412e-08  alpha:  3.295e-01  linmin: -3.599e-06  t[s]:  18077.44
	FillingsUpdate:  mu: +0.314324117  nElectrons: 704.000000  magneticMoment: [ Abs: 0.00008  Tot: +0.00004 ]
	SubspaceRotationAdjust: set factor to 0.0248
ElecMinimize: Iter:  64  G: -3742.573300512404330  |grad|_K:  3.470e-08  alpha:  4.794e-01  linmin:  3.446e-06  t[s]:  18280.86
	FillingsUpdate:  mu: +0.314267432  nElectrons: 704.000000  magneticMoment: [ Abs: 0.00008  Tot: +0.00004 ]
	SubspaceRotationAdjust: set factor to 0.0235
ElecMinimize: Iter:  65  G: -3742.573300674878283  |grad|_K:  3.882e-08  alpha:  3.479e-01  linmin:  1.841e-07  t[s]:  18486.37
	FillingsUpdate:  mu: +0.314243425  nElectrons: 704.000000  magneticMoment: [ Abs: 0.00008  Tot: +0.00004 ]
	SubspaceRotationAdjust: set factor to 0.0208
ElecMinimize: Iter:  66  G: -3742.573300819960423  |grad|_K:  3.839e-08  alpha:  2.495e-01  linmin: -2.628e-06  t[s]:  18691.22
	FillingsUpdate:  mu: +0.314281032  nElectrons: 704.000000  magneticMoment: [ Abs: 0.00008  Tot: +0.00004 ]
	SubspaceRotationAdjust: set factor to 0.0208
ElecMinimize: Iter:  67  G: -3742.573301009407714  |grad|_K:  3.302e-08  alpha:  3.308e-01  linmin:  7.145e-06  t[s]:  18895.20
	FillingsUpdate:  mu: +0.314287196  nElectrons: 704.000000  magneticMoment: [ Abs: 0.00008  Tot: +0.00004 ]
	SubspaceRotationAdjust: set factor to 0.0241
ElecMinimize: Iter:  68  G: -3742.573301213328250  |grad|_K:  3.319e-08  alpha:  4.846e-01  linmin: -6.610e-06  t[s]:  19098.55
	FillingsUpdate:  mu: +0.314227180  nElectrons: 704.000000  magneticMoment: [ Abs: 0.00008  Tot: +0.00004 ]
	SubspaceRotationAdjust: set factor to 0.0227
ElecMinimize: Iter:  69  G: -3742.573301376668951  |grad|_K:  3.469e-08  alpha:  3.775e-01  linmin:  2.118e-06  t[s]:  19302.10
	FillingsUpdate:  mu: +0.314216059  nElectrons: 704.000000  magneticMoment: [ Abs: 0.00007  Tot: +0.00004 ]
	SubspaceRotationAdjust: set factor to 0.0192
ElecMinimize: Iter:  70  G: -3742.573301492272549  |grad|_K:  3.403e-08  alpha:  2.475e-01  linmin: -7.314e-08  t[s]:  19505.01
	FillingsUpdate:  mu: +0.314248144  nElectrons: 704.000000  magneticMoment: [ Abs: 0.00007  Tot: +0.00004 ]
	SubspaceRotationAdjust: set factor to 0.0183
ElecMinimize: Iter:  71  G: -3742.573301617534071  |grad|_K:  2.588e-08  alpha:  2.772e-01  linmin: -1.118e-06  t[s]:  19708.20
	FillingsUpdate:  mu: +0.314253178  nElectrons: 704.000000  magneticMoment: [ Abs: 0.00007  Tot: +0.00004 ]
	SubspaceRotationAdjust: set factor to 0.0216
ElecMinimize: Iter:  72  G: -3742.573301729531522  |grad|_K:  2.345e-08  alpha:  4.325e-01  linmin:  3.440e-06  t[s]:  19911.10
	FillingsUpdate:  mu: +0.314223719  nElectrons: 704.000000  magneticMoment: [ Abs: 0.00006  Tot: +0.00004 ]
	SubspaceRotationAdjust: set factor to 0.0196
ElecMinimize: Iter:  73  G: -3742.573301796327087  |grad|_K:  2.336e-08  alpha:  3.156e-01  linmin: -9.974e-07  t[s]:  20113.59
	FillingsUpdate:  mu: +0.314210993  nElectrons: 704.000000  magneticMoment: [ Abs: 0.00006  Tot: +0.00004 ]
	SubspaceRotationAdjust: set factor to 0.0172
ElecMinimize: Iter:  74  G: -3742.573301849344261  |grad|_K:  1.921e-08  alpha:  2.498e-01  linmin:  2.753e-06  t[s]:  20315.33
ElecMinimize: Converged (|Delta G|<1.000000e-07 for 2 iters).
Setting wave functions to eigenvectors of Hamiltonian
Converging empty states (this may take a while): |deigs|: 9.682e-04
Vacuum energy after initial minimize, F = -3742.573301849344261

Shifting auxilliary hamiltonian by -0.558961 to set nElectrons=704.000000

-------- Electronic minimization -----------
	Linear fluid (dielectric constant: 78.4, screening length: 8.12261 Bohr) occupying 0.380437 of unit cell:	Completed after 30 iterations at t[s]:  21058.44
	FillingsUpdate:  mu: -0.244750000  nElectrons: 704.000000  magneticMoment: [ Abs: 0.00004  Tot: +0.00003 ]
ElecMinimize: Iter:   0  G: -3742.580527246477686  |grad|_K:  1.235e-05  alpha:  1.000e+00
	Linear fluid (dielectric constant: 78.4, screening length: 8.12261 Bohr) occupying 0.381095 of unit cell:	Completed after 31 iterations at t[s]:  21234.88
	Linear fluid (dielectric constant: 78.4, screening length: 8.12261 Bohr) occupying 0.380462 of unit cell:	Completed after 30 iterations at t[s]:  21296.29
	FillingsUpdate:  mu: -0.244750000  nElectrons: 703.880723  magneticMoment: [ Abs: 0.00004  Tot: +0.00003 ]
	SubspaceRotationAdjust: set factor to 0.0157
ElecMinimize: Iter:   1  G: -3742.583888135198777  |grad|_K:  4.037e-06  alpha:  5.335e-02  linmin: -2.795e-02  t[s]:  21378.35
	Linear fluid (dielectric constant: 78.4, screening length: 8.12261 Bohr) occupying 0.380499 of unit cell:	Completed after 21 iterations at t[s]:  21459.33
ElecMinimize: 	Predicted alpha/alphaT>3.000000, increasing alphaT to 1.600446e-01.
	Linear fluid (dielectric constant: 78.4, screening length: 8.12261 Bohr) occupying 0.380572 of unit cell:	Completed after 22 iterations at t[s]:  21518.92
	Linear fluid (dielectric constant: 78.4, screening length: 8.12261 Bohr) occupying 0.380741 of unit cell:	Completed after 25 iterations at t[s]:  21577.82
	FillingsUpdate:  mu: -0.244750000  nElectrons: 703.726671  magneticMoment: [ Abs: 0.00004  Tot: +0.00003 ]
	SubspaceRotationAdjust: set factor to 0.0105
ElecMinimize: Iter:   2  G: -3742.586598970137402  |grad|_K:  5.497e-06  alpha:  4.054e-01  linmin:  5.640e-04  t[s]:  21659.98
	Linear fluid (dielectric constant: 78.4, screening length: 8.12261 Bohr) occupying 0.381515 of unit cell:	Completed after 25 iterations at t[s]:  21741.58
	Linear fluid (dielectric constant: 78.4, screening length: 8.12261 Bohr) occupying 0.380916 of unit cell:	Completed after 25 iterations at t[s]:  21802.05
	FillingsUpdate:  mu: -0.244750000  nElectrons: 703.723009  magneticMoment: [ Abs: 0.00004  Tot: +0.00003 ]
	SubspaceRotationAdjust: set factor to 0.00936
ElecMinimize: Iter:   3  G: -3742.587648978193101  |grad|_K:  3.409e-06  alpha:  9.109e-02  linmin:  1.158e-03  t[s]:  21882.91
	Linear fluid (dielectric constant: 78.4, screening length: 8.12261 Bohr) occupying 0.381041 of unit cell:	Completed after 19 iterations at t[s]:  21962.70
ElecMinimize: 	Predicted alpha/alphaT>3.000000, increasing alphaT to 2.732578e-01.
	Linear fluid (dielectric constant: 78.4, screening length: 8.12261 Bohr) occupying 0.381292 of unit cell:	Completed after 23 iterations at t[s]:  22022.20
	Linear fluid (dielectric constant: 78.4, screening length: 8.12261 Bohr) occupying 0.381386 of unit cell:	Completed after 18 iterations at t[s]:  22080.60
	FillingsUpdate:  mu: -0.244750000  nElectrons: 703.665119  magneticMoment: [ Abs: 0.00004  Tot: +0.00003 ]
	SubspaceRotationAdjust: set factor to 0.00984
ElecMinimize: Iter:   4  G: -3742.589177045912493  |grad|_K:  3.499e-06  alpha:  3.416e-01  linmin: -2.211e-04  t[s]:  22161.29
	Linear fluid (dielectric constant: 78.4, screening length: 8.12261 Bohr) occupying 0.382090 of unit cell:	Completed after 24 iterations at t[s]:  22242.07
	Linear fluid (dielectric constant: 78.4, screening length: 8.12261 Bohr) occupying 0.381657 of unit cell:	Completed after 24 iterations at t[s]:  22301.71
	FillingsUpdate:  mu: -0.244750000  nElectrons: 703.602161  magneticMoment: [ Abs: 0.00004  Tot: +0.00003 ]
	SubspaceRotationAdjust: set factor to 0.00737
ElecMinimize: Iter:   5  G: -3742.589806319766922  |grad|_K:  2.452e-06  alpha:  1.314e-01  linmin: -3.342e-04  t[s]:  22382.14
	Linear fluid (dielectric constant: 78.4, screening length: 8.12261 Bohr) occupying 0.381867 of unit cell:	Completed after 19 iterations at t[s]:  22462.96
	Linear fluid (dielectric constant: 78.4, screening length: 8.12261 Bohr) occupying 0.382273 of unit cell:	Completed after 21 iterations at t[s]:  22520.32
	FillingsUpdate:  mu: -0.244750000  nElectrons: 703.564927  magneticMoment: [ Abs: 0.00004  Tot: +0.00003 ]
	SubspaceRotationAdjust: set factor to 0.0061
ElecMinimize: Iter:   6  G: -3742.590712426640494  |grad|_K:  2.464e-06  alpha:  3.865e-01  linmin: -4.618e-04  t[s]:  22602.56
	Linear fluid (dielectric constant: 78.4, screening length: 8.12261 Bohr) occupying 0.383049 of unit cell:	Completed after 23 iterations at t[s]:  22683.96
	Linear fluid (dielectric constant: 78.4, screening length: 8.12261 Bohr) occupying 0.382610 of unit cell:	Completed after 23 iterations at t[s]:  22742.91
	FillingsUpdate:  mu: -0.244750000  nElectrons: 703.583547  magneticMoment: [ Abs: 0.00004  Tot: +0.00003 ]
	SubspaceRotationAdjust: set factor to 0.00469
ElecMinimize: Iter:   7  G: -3742.591109105522264  |grad|_K:  1.655e-06  alpha:  1.675e-01  linmin: -1.749e-04  t[s]:  22824.55
	Linear fluid (dielectric constant: 78.4, screening length: 8.12261 Bohr) occupying 0.382810 of unit cell:	Completed after 16 iterations at t[s]:  22903.68
	Linear fluid (dielectric constant: 78.4, screening length: 8.12261 Bohr) occupying 0.383085 of unit cell:	Completed after 16 iterations at t[s]:  22961.39
	FillingsUpdate:  mu: -0.244750000  nElectrons: 703.581968  magneticMoment: [ Abs: 0.00004  Tot: +0.00003 ]
	SubspaceRotationAdjust: set factor to 0.00484
ElecMinimize: Iter:   8  G: -3742.591534365581538  |grad|_K:  1.606e-06  alpha:  3.982e-01  linmin: -5.108e-04  t[s]:  23041.92
	Linear fluid (dielectric constant: 78.4, screening length: 8.12261 Bohr) occupying 0.383570 of unit cell:	Completed after 20 iterations at t[s]:  23122.15
	Linear fluid (dielectric constant: 78.4, screening length: 8.12261 Bohr) occupying 0.383388 of unit cell:	Completed after 18 iterations at t[s]:  23178.53
	FillingsUpdate:  mu: -0.244750000  nElectrons: 703.556909  magneticMoment: [ Abs: 0.00004  Tot: +0.00003 ]
	SubspaceRotationAdjust: set factor to 0.00436
ElecMinimize: Iter:   9  G: -3742.591785693344718  |grad|_K:  1.203e-06  alpha:  2.478e-01  linmin: -6.374e-04  t[s]:  23260.43
	Linear fluid (dielectric constant: 78.4, screening length: 8.12261 Bohr) occupying 0.383557 of unit cell:	Completed after 15 iterations at t[s]:  23338.85
	Linear fluid (dielectric constant: 78.4, screening length: 8.12261 Bohr) occupying 0.383675 of unit cell:	Completed after 15 iterations at t[s]:  23397.85
	FillingsUpdate:  mu: -0.244750000  nElectrons: 703.544098  magneticMoment: [ Abs: 0.00004  Tot: +0.00003 ]
	SubspaceRotationAdjust: set factor to 0.0053
ElecMinimize: Iter:  10  G: -3742.592025428350098  |grad|_K:  1.234e-06  alpha:  4.222e-01  linmin: -5.268e-04  t[s]:  23478.71
	Linear fluid (dielectric constant: 78.4, screening length: 8.12261 Bohr) occupying 0.383936 of unit cell:	Completed after 16 iterations at t[s]:  23559.68
	Linear fluid (dielectric constant: 78.4, screening length: 8.12261 Bohr) occupying 0.383878 of unit cell:	Completed after 14 iterations at t[s]:  23618.66
	FillingsUpdate:  mu: -0.244750000  nElectrons: 703.553343  magneticMoment: [ Abs: 0.00004  Tot: +0.00003 ]
	SubspaceRotationAdjust: set factor to 0.00485
ElecMinimize: Iter:  11  G: -3742.592221014276674  |grad|_K:  1.187e-06  alpha:  3.265e-01  linmin: -4.865e-04  t[s]:  23699.90
	Linear fluid (dielectric constant: 78.4, screening length: 8.12261 Bohr) occupying 0.384024 of unit cell:	Completed after 13 iterations at t[s]:  23779.47
	Linear fluid (dielectric constant: 78.4, screening length: 8.12261 Bohr) occupying 0.384084 of unit cell:	Completed after 9 iterations at t[s]:  23833.73
	FillingsUpdate:  mu: -0.244750000  nElectrons: 703.546508  magneticMoment: [ Abs: 0.00004  Tot: +0.00003 ]
	SubspaceRotationAdjust: set factor to 0.00613
ElecMinimize: Iter:  12  G: -3742.592478793927512  |grad|_K:  1.232e-06  alpha:  4.654e-01  linmin: -5.179e-04  t[s]:  23916.12
	Linear fluid (dielectric constant: 78.4, screening length: 8.12261 Bohr) occupying 0.384244 of unit cell:	Completed after 18 iterations at t[s]:  23995.93
	Linear fluid (dielectric constant: 78.4, screening length: 8.12261 Bohr) occupying 0.384227 of unit cell:	Completed after 13 iterations at t[s]:  24053.27
	FillingsUpdate:  mu: -0.244750000  nElectrons: 703.521218  magneticMoment: [ Abs: 0.00004  Tot: +0.00003 ]
	SubspaceRotationAdjust: set factor to 0.00553
ElecMinimize: Iter:  13  G: -3742.592725958048504  |grad|_K:  1.522e-06  alpha:  4.119e-01  linmin: -3.489e-04  t[s]:  24134.43
	Linear fluid (dielectric constant: 78.4, screening length: 8.12261 Bohr) occupying 0.384417 of unit cell:	Completed after 16 iterations at t[s]:  24214.55
	Linear fluid (dielectric constant: 78.4, screening length: 8.12261 Bohr) occupying 0.384417 of unit cell:	Completed after 0 iterations at t[s]:  24266.82
	FillingsUpdate:  mu: -0.244750000  nElectrons: 703.520282  magneticMoment: [ Abs: 0.00004  Tot: +0.00003 ]
	SubspaceRotationAdjust: set factor to 0.00614
ElecMinimize: Iter:  14  G: -3742.593104208775912  |grad|_K:  1.377e-06  alpha:  4.135e-01  linmin: -6.479e-04  t[s]:  24347.69
	Linear fluid (dielectric constant: 78.4, screening length: 8.12261 Bohr) occupying 0.384592 of unit cell:	Completed after 16 iterations at t[s]:  24426.79
	Linear fluid (dielectric constant: 78.4, screening length: 8.12261 Bohr) occupying 0.384660 of unit cell:	Completed after 14 iterations at t[s]:  24483.98
	FillingsUpdate:  mu: -0.244750000  nElectrons: 703.522874  magneticMoment: [ Abs: 0.00004  Tot: +0.00003 ]
	SubspaceRotationAdjust: set factor to 0.00618
ElecMinimize: Iter:  15  G: -3742.593543858055000  |grad|_K:  1.857e-06  alpha:  5.813e-01  linmin: -3.761e-04  t[s]:  24565.42
	Linear fluid (dielectric constant: 78.4, screening length: 8.12261 Bohr) occupying 0.385134 of unit cell:	Completed after 18 iterations at t[s]:  24645.21
	Linear fluid (dielectric constant: 78.4, screening length: 8.12261 Bohr) occupying 0.384906 of unit cell:	Completed after 18 iterations at t[s]:  24703.02
	FillingsUpdate:  mu: -0.244750000  nElectrons: 703.486875  magneticMoment: [ Abs: 0.00004  Tot: +0.00003 ]
	SubspaceRotationAdjust: set factor to 0.00517
ElecMinimize: Iter:  16  G: -3742.593941708827515  |grad|_K:  1.591e-06  alpha:  2.898e-01  linmin: -3.746e-04  t[s]:  24784.42
	Linear fluid (dielectric constant: 78.4, screening length: 8.12261 Bohr) occupying 0.385144 of unit cell:	Completed after 15 iterations at t[s]:  24862.91
	Linear fluid (dielectric constant: 78.4, screening length: 8.12261 Bohr) occupying 0.385360 of unit cell:	Completed after 16 iterations at t[s]:  24920.72
	FillingsUpdate:  mu: -0.244750000  nElectrons: 703.461258  magneticMoment: [ Abs: 0.00004  Tot: +0.00003 ]
	SubspaceRotationAdjust: set factor to 0.00609
ElecMinimize: Iter:  17  G: -3742.594508233582474  |grad|_K:  1.571e-06  alpha:  5.645e-01  linmin: -4.087e-04  t[s]:  25001.50
	Linear fluid (dielectric constant: 78.4, screening length: 8.12261 Bohr) occupying 0.385887 of unit cell:	Completed after 16 iterations at t[s]:  25081.75
	Linear fluid (dielectric constant: 78.4, screening length: 8.12261 Bohr) occupying 0.385698 of unit cell:	Completed after 16 iterations at t[s]:  25138.17
	FillingsUpdate:  mu: -0.244750000  nElectrons: 703.465406  magneticMoment: [ Abs: 0.00004  Tot: +0.00003 ]
	SubspaceRotationAdjust: set factor to 0.00519
ElecMinimize: Iter:  18  G: -3742.594859234799515  |grad|_K:  1.628e-06  alpha:  3.584e-01  linmin: -1.678e-04  t[s]:  25220.51
	Linear fluid (dielectric constant: 78.4, screening length: 8.12261 Bohr) occupying 0.386082 of unit cell:	Completed after 18 iterations at t[s]:  25298.51
	Linear fluid (dielectric constant: 78.4, screening length: 8.12261 Bohr) occupying 0.386096 of unit cell:	Completed after 11 iterations at t[s]:  25355.77
	FillingsUpdate:  mu: -0.244750000  nElectrons: 703.430905  magneticMoment: [ Abs: 0.00004  Tot: +0.00003 ]
	SubspaceRotationAdjust: set factor to 0.0052
ElecMinimize: Iter:  19  G: -3742.595246120271895  |grad|_K:  1.234e-06  alpha:  3.716e-01  linmin: -2.015e-04  t[s]:  25435.87
	Linear fluid (dielectric constant: 78.4, screening length: 8.12261 Bohr) occupying 0.386338 of unit cell:	Completed after 15 iterations at t[s]:  25517.26
	Linear fluid (dielectric constant: 78.4, screening length: 8.12261 Bohr) occupying 0.386456 of unit cell:	Completed after 14 iterations at t[s]:  25571.23
	FillingsUpdate:  mu: -0.244750000  nElectrons: 703.407320  magneticMoment: [ Abs: 0.00004  Tot: +0.00003 ]
	SubspaceRotationAdjust: set factor to 0.00596
ElecMinimize: Iter:  20  G: -3742.595578277129334  |grad|_K:  1.259e-06  alpha:  5.561e-01  linmin: -9.703e-05  t[s]:  25651.64
	Linear fluid (dielectric constant: 78.4, screening length: 8.12261 Bohr) occupying 0.386823 of unit cell:	Completed after 16 iterations at t[s]:  25729.48
	Linear fluid (dielectric constant: 78.4, screening length: 8.12261 Bohr) occupying 0.386691 of unit cell:	Completed after 15 iterations at t[s]:  25784.89
	FillingsUpdate:  mu: -0.244750000  nElectrons: 703.412085  magneticMoment: [ Abs: 0.00004  Tot: +0.00003 ]
	SubspaceRotationAdjust: set factor to 0.00518
ElecMinimize: Iter:  21  G: -3742.595797458723609  |grad|_K:  1.238e-06  alpha:  3.542e-01  linmin: -3.848e-05  t[s]:  25864.59
	Linear fluid (dielectric constant: 78.4, screening length: 8.12261 Bohr) occupying 0.386894 of unit cell:	Completed after 16 iterations at t[s]:  25944.13
	Linear fluid (dielectric constant: 78.4, screening length: 8.12261 Bohr) occupying 0.386961 of unit cell:	Completed after 13 iterations at t[s]:  25999.09
	FillingsUpdate:  mu: -0.244750000  nElectrons: 703.385779  magneticMoment: [ Abs: 0.00004  Tot: +0.00003 ]
	SubspaceRotationAdjust: set factor to 0.00551
ElecMinimize: Iter:  22  G: -3742.596078884007511  |grad|_K:  1.134e-06  alpha:  4.715e-01  linmin: -1.956e-06  t[s]:  26078.61
	Linear fluid (dielectric constant: 78.4, screening length: 8.12261 Bohr) occupying 0.387156 of unit cell:	Completed after 15 iterations at t[s]:  26157.66
	Linear fluid (dielectric constant: 78.4, screening length: 8.12261 Bohr) occupying 0.387242 of unit cell:	Completed after 14 iterations at t[s]:  26212.50
	FillingsUpdate:  mu: -0.244750000  nElectrons: 703.362314  magneticMoment: [ Abs: 0.00004  Tot: +0.00003 ]
	SubspaceRotationAdjust: set factor to 0.00618
ElecMinimize: Iter:  23  G: -3742.596419231929303  |grad|_K:  1.337e-06  alpha:  6.812e-01  linmin:  3.884e-06  t[s]:  26292.14
	Linear fluid (dielectric constant: 78.4, screening length: 8.12261 Bohr) occupying 0.387588 of unit cell:	Completed after 18 iterations at t[s]:  26371.86
	Linear fluid (dielectric constant: 78.4, screening length: 8.12261 Bohr) occupying 0.387473 of unit cell:	Completed after 15 iterations at t[s]:  26426.99
	FillingsUpdate:  mu: -0.244750000  nElectrons: 703.366710  magneticMoment: [ Abs: 0.00004  Tot: +0.00003 ]
	SubspaceRotationAdjust: set factor to 0.00536
ElecMinimize: Iter:  24  G: -3742.596734069196827  |grad|_K:  1.580e-06  alpha:  4.537e-01  linmin: -1.578e-05  t[s]:  26508.07
	Linear fluid (dielectric constant: 78.4, screening length: 8.12261 Bohr) occupying 0.387750 of unit cell:	Completed after 16 iterations at t[s]:  26585.31
	Linear fluid (dielectric constant: 78.4, screening length: 8.12261 Bohr) occupying 0.387735 of unit cell:	Completed after 11 iterations at t[s]:  26641.06
	FillingsUpdate:  mu: -0.244750000  nElectrons: 703.331607  magneticMoment: [ Abs: 0.00004  Tot: +0.00003 ]
	SubspaceRotationAdjust: set factor to 0.00488
ElecMinimize: Iter:  25  G: -3742.597151079489322  |grad|_K:  1.469e-06  alpha:  4.293e-01  linmin: -3.219e-05  t[s]:  26720.89
	Linear fluid (dielectric constant: 78.4, screening length: 8.12261 Bohr) occupying 0.387937 of unit cell:	Completed after 15 iterations at t[s]:  26798.74
	Linear fluid (dielectric constant: 78.4, screening length: 8.12261 Bohr) occupying 0.388046 of unit cell:	Completed after 14 iterations at t[s]:  26854.67
	FillingsUpdate:  mu: -0.244750000  nElectrons: 703.308136  magneticMoment: [ Abs: 0.00003  Tot: +0.00003 ]
	SubspaceRotationAdjust: set factor to 0.0054
ElecMinimize: Iter:  26  G: -3742.597708584736210  |grad|_K:  1.466e-06  alpha:  6.621e-01  linmin: -9.326e-05  t[s]:  26935.43
	Linear fluid (dielectric constant: 78.4, screening length: 8.12261 Bohr) occupying 0.388327 of unit cell:	Completed after 16 iterations at t[s]:  27013.48
	Linear fluid (dielectric constant: 78.4, screening length: 8.12261 Bohr) occupying 0.388267 of unit cell:	Completed after 14 iterations at t[s]:  27068.90
	FillingsUpdate:  mu: -0.244750000  nElectrons: 703.309708  magneticMoment: [ Abs: 0.00003  Tot: +0.00003 ]
	SubspaceRotationAdjust: set factor to 0.00488
ElecMinimize: Iter:  27  G: -3742.598145135908908  |grad|_K:  1.555e-06  alpha:  5.198e-01  linmin: -5.319e-05  t[s]:  27148.97
	Linear fluid (dielectric constant: 78.4, screening length: 8.12261 Bohr) occupying 0.388486 of unit cell:	Completed after 17 iterations at t[s]:  27227.17
	Linear fluid (dielectric constant: 78.4, screening length: 8.12261 Bohr) occupying 0.388416 of unit cell:	Completed after 15 iterations at t[s]:  27283.84
	FillingsUpdate:  mu: -0.244750000  nElectrons: 703.281409  magneticMoment: [ Abs: 0.00003  Tot: +0.00003 ]
	SubspaceRotationAdjust: set factor to 0.00398
ElecMinimize: Iter:  28  G: -3742.598478000438263  |grad|_K:  1.244e-06  alpha:  3.528e-01  linmin: -5.195e-05  t[s]:  27363.60
	Linear fluid (dielectric constant: 78.4, screening length: 8.12261 Bohr) occupying 0.388508 of unit cell:	Completed after 14 iterations at t[s]:  27440.48
	Linear fluid (dielectric constant: 78.4, screening length: 8.12261 Bohr) occupying 0.388544 of unit cell:	Completed after 12 iterations at t[s]:  27496.40
	FillingsUpdate:  mu: -0.244750000  nElectrons: 703.277406  magneticMoment: [ Abs: 0.00003  Tot: +0.00003 ]
	SubspaceRotationAdjust: set factor to 0.0044
ElecMinimize: Iter:  29  G: -3742.598776851471030  |grad|_K:  9.863e-07  alpha:  4.947e-01  linmin: -6.824e-05  t[s]:  27576.16
	Linear fluid (dielectric constant: 78.4, screening length: 8.12261 Bohr) occupying 0.388623 of unit cell:	Completed after 15 iterations at t[s]:  27653.60
	Linear fluid (dielectric constant: 78.4, screening length: 8.12261 Bohr) occupying 0.388622 of unit cell:	Completed after 0 iterations at t[s]:  27706.01
	FillingsUpdate:  mu: -0.244750000  nElectrons: 703.280420  magneticMoment: [ Abs: 0.00003  Tot: +0.00003 ]
	SubspaceRotationAdjust: set factor to 0.00448
ElecMinimize: Iter:  30  G: -3742.598961967998548  |grad|_K:  8.339e-07  alpha:  4.879e-01  linmin:  2.880e-06  t[s]:  27785.86
	Linear fluid (dielectric constant: 78.4, screening length: 8.12261 Bohr) occupying 0.388673 of unit cell:	Completed after 16 iterations at t[s]:  27863.66
[...]
	SubspaceRotationAdjust: set factor to 0.00678
ElecMinimize: Iter:  32  G: -3742.600404681767031  |grad|_K:  4.436e-08  alpha:  4.699e-01  linmin: -5.532e-04  t[s]:  82156.37
	Linear fluid (dielectric constant: 78.4, screening length: 8.12261 Bohr) occupying 0.390168 of unit cell:	Completed after 11 iterations at t[s]:  82228.29
	Linear fluid (dielectric constant: 78.4, screening length: 8.12261 Bohr) occupying 0.390168 of unit cell:	Completed after 0 iterations at t[s]:  82276.75
	FillingsUpdate:  mu: -0.244750000  nElectrons: 703.238407  magneticMoment: [ Abs: 0.00425  Tot: -0.00277 ]
	SubspaceRotationAdjust: set factor to 0.00548
ElecMinimize: Iter:  33  G: -3742.600405014704393  |grad|_K:  5.876e-08  alpha:  4.266e-01  linmin:  4.632e-05  t[s]:  82351.48
	Linear fluid (dielectric constant: 78.4, screening length: 8.12261 Bohr) occupying 0.390164 of unit cell:	Completed after 11 iterations at t[s]:  82423.39
	Linear fluid (dielectric constant: 78.4, screening length: 8.12261 Bohr) occupying 0.390166 of unit cell:	Completed after 9 iterations at t[s]:  82474.50
	FillingsUpdate:  mu: -0.244750000  nElectrons: 703.239236  magneticMoment: [ Abs: 0.00421  Tot: -0.00275 ]
	SubspaceRotationAdjust: set factor to 0.00531
ElecMinimize: Iter:  34  G: -3742.600405335113464  |grad|_K:  4.449e-08  alpha:  2.464e-01  linmin:  4.883e-05  t[s]:  82549.50
	Linear fluid (dielectric constant: 78.4, screening length: 8.12261 Bohr) occupying 0.390164 of unit cell:	Completed after 2 iterations at t[s]:  82619.12
	Linear fluid (dielectric constant: 78.4, screening length: 8.12261 Bohr) occupying 0.390162 of unit cell:	Completed after 7 iterations at t[s]:  82669.73
	FillingsUpdate:  mu: -0.244750000  nElectrons: 703.239828  magneticMoment: [ Abs: 0.00412  Tot: -0.00273 ]
	SubspaceRotationAdjust: set factor to 0.00624
ElecMinimize: Iter:  35  G: -3742.600405747161403  |grad|_K:  5.176e-08  alpha:  5.562e-01  linmin:  4.916e-04  t[s]:  82745.66
	Linear fluid (dielectric constant: 78.4, screening length: 8.12261 Bohr) occupying 0.390159 of unit cell:	Completed after 11 iterations at t[s]:  82818.22
	Linear fluid (dielectric constant: 78.4, screening length: 8.12261 Bohr) occupying 0.390160 of unit cell:	Completed after 11 iterations at t[s]:  82869.92
	FillingsUpdate:  mu: -0.244750000  nElectrons: 703.239328  magneticMoment: [ Abs: 0.00405  Tot: -0.00272 ]
	SubspaceRotationAdjust: set factor to 0.00538
ElecMinimize: Iter:  36  G: -3742.600406055346866  |grad|_K:  4.694e-08  alpha:  3.046e-01  linmin:  6.707e-05  t[s]:  82944.56
	Linear fluid (dielectric constant: 78.4, screening length: 8.12261 Bohr) occupying 0.390159 of unit cell:	Completed after 2 iterations at t[s]:  83014.35
	Linear fluid (dielectric constant: 78.4, screening length: 8.12261 Bohr) occupying 0.390159 of unit cell:	Completed after 2 iterations at t[s]:  83064.59
	FillingsUpdate:  mu: -0.244750000  nElectrons: 703.239460  magneticMoment: [ Abs: 0.00396  Tot: -0.00270 ]
	SubspaceRotationAdjust: set factor to 0.00661
ElecMinimize: Iter:  37  G: -3742.600406437155925  |grad|_K:  4.228e-08  alpha:  4.492e-01  linmin:  1.023e-04  t[s]:  83139.43
	Linear fluid (dielectric constant: 78.4, screening length: 8.12261 Bohr) occupying 0.390159 of unit cell:	Completed after 10 iterations at t[s]:  83211.85
	Linear fluid (dielectric constant: 78.4, screening length: 8.12261 Bohr) occupying 0.390159 of unit cell:	Completed after 3 iterations at t[s]:  83261.52
	FillingsUpdate:  mu: -0.244750000  nElectrons: 703.239924  magneticMoment: [ Abs: 0.00392  Tot: -0.00269 ]
	SubspaceRotationAdjust: set factor to 0.00583
ElecMinimize: Iter:  38  G: -3742.600406670304437  |grad|_K:  5.019e-08  alpha:  3.398e-01  linmin:  4.173e-04  t[s]:  83336.09
	Linear fluid (dielectric constant: 78.4, screening length: 8.12261 Bohr) occupying 0.390160 of unit cell:	Completed after 11 iterations at t[s]:  83407.84
	Linear fluid (dielectric constant: 78.4, screening length: 8.12261 Bohr) occupying 0.390160 of unit cell:	Completed after 3 iterations at t[s]:  83457.34
	FillingsUpdate:  mu: -0.244750000  nElectrons: 703.239404  magneticMoment: [ Abs: 0.00388  Tot: -0.00269 ]
	SubspaceRotationAdjust: set factor to 0.00514
ElecMinimize: Iter:  39  G: -3742.600406891290277  |grad|_K:  3.239e-08  alpha:  2.378e-01  linmin:  3.078e-04  t[s]:  83532.15
	Linear fluid (dielectric constant: 78.4, screening length: 8.12261 Bohr) occupying 0.390161 of unit cell:	Completed after 1 iterations at t[s]:  83601.55
	Linear fluid (dielectric constant: 78.4, screening length: 8.12261 Bohr) occupying 0.390162 of unit cell:	Completed after 2 iterations at t[s]:  83651.04
	FillingsUpdate:  mu: -0.244750000  nElectrons: 703.239186  magneticMoment: [ Abs: 0.00383  Tot: -0.00269 ]
	SubspaceRotationAdjust: set factor to 0.00612
ElecMinimize: Iter:  40  G: -3742.600407090165390  |grad|_K:  2.552e-08  alpha:  4.872e-01  linmin: -7.106e-04  t[s]:  83725.71
	Linear fluid (dielectric constant: 78.4, screening length: 8.12261 Bohr) occupying 0.390165 of unit cell:	Completed after 3 iterations at t[s]:  83795.59
	Linear fluid (dielectric constant: 78.4, screening length: 8.12261 Bohr) occupying 0.390165 of unit cell:	Completed after 0 iterations at t[s]:  83844.69
	FillingsUpdate:  mu: -0.244750000  nElectrons: 703.239260  magneticMoment: [ Abs: 0.00380  Tot: -0.00269 ]
	SubspaceRotationAdjust: set factor to 0.00633
ElecMinimize: Iter:  41  G: -3742.600407219663794  |grad|_K:  2.248e-08  alpha:  4.978e-01  linmin: -6.428e-04  t[s]:  83919.45
	Linear fluid (dielectric constant: 78.4, screening length: 8.12261 Bohr) occupying 0.390167 of unit cell:	Completed after 3 iterations at t[s]:  83989.33
	Linear fluid (dielectric constant: 78.4, screening length: 8.12261 Bohr) occupying 0.390166 of unit cell:	Completed after 0 iterations at t[s]:  84038.43
	FillingsUpdate:  mu: -0.244750000  nElectrons: 703.238969  magneticMoment: [ Abs: 0.00382  Tot: -0.00266 ]
	SubspaceRotationAdjust: set factor to 0.0069
ElecMinimize: Iter:  42  G: -3742.600407287461167  |grad|_K:  2.223e-08  alpha:  3.624e-01  linmin: -4.646e-04  t[s]:  84113.67
	Linear fluid (dielectric constant: 78.4, screening length: 8.12261 Bohr) occupying 0.390168 of unit cell:	Completed after 2 iterations at t[s]:  84183.45
	Linear fluid (dielectric constant: 78.4, screening length: 8.12261 Bohr) occupying 0.390168 of unit cell:	Completed after 0 iterations at t[s]:  84232.03
	FillingsUpdate:  mu: -0.244750000  nElectrons: 703.238722  magneticMoment: [ Abs: 0.00379  Tot: -0.00266 ]
	SubspaceRotationAdjust: set factor to 0.00839
ElecMinimize: Iter:  43  G: -3742.600407357578206  |grad|_K:  1.879e-08  alpha:  3.584e-01  linmin: -9.406e-04  t[s]:  84306.70
ElecMinimize: Converged (|Delta G|<1.000000e-07 for 2 iters).
Setting wave functions to eigenvectors of Hamiltonian
Converging empty states (this may take a while): |deigs|: 6.336e-08

Computing DFT-D3 correction:
# coordination-number Pt 7.102 8.322 7.221 9.386 9.446 9.536 5.921 9.422 9.541 9.479 9.534 9.498 9.550 9.530 9.392 9.525 9.542 9.524 9.460 7.142 9.120 7.178 9.119 9.394 9.462 9.526 9.551 9.525 7.142 9.533 9.541 9.500 9.533 9.476 9.445 9.420 8.322 9.536 9.539 9.386 7.220 5.921 7.101 7.179
# diagonal-C6 Pt 336.87 336.87 336.87 336.87 336.87 336.87 336.87 336.87 336.87 336.87 336.87 336.87 336.87 336.87 336.87 336.87 336.87 336.87 336.87 336.87 336.87 336.87 336.87 336.87 336.87 336.87 336.87 336.87 336.87 336.87 336.87 336.87 336.87 336.87 336.87 336.87 336.87 336.87 336.87 336.87 336.87 336.87 336.87 336.87
EvdW_6 =   -0.420835
EvdW_8 =   -0.658083

# Ionic positions in cartesian coordinates:
ion Pt   0.000283784326286  15.348254108180617  68.207836683953772 1
ion Pt   0.000326117126445  22.570461896708821  65.391755627498100 1
ion Pt   0.000173125694297   6.702279926477720  66.747733965610152 1
ion Pt  -0.000029740909040  13.363630634623387  63.425336091713369 1
ion Pt   0.000053136854476  20.219262001977274  60.340678289356617 1
ion Pt  -0.000025663251968  17.860604030057353  55.564873904362955 1
ion Pt  -0.000351412214896   0.362226878507932  35.352076962389461 1
ion Pt   5.232068147056751   4.456368286750911  61.945586814062260 1
ion Pt   5.231948104242016  11.190495627891144  58.759786436139429 1
ion Pt   5.232107831407467   2.205155804995811  57.246636423176398 1
ion Pt   5.231984426663386   8.946284949082974  54.043323816962349 1
ion Pt  -0.000128082703419  15.600065591627631  50.844695512386430 1
ion Pt   0.000008942933739  22.313192021164497  47.706107253033800 1
ion Pt  -0.000104771211263  13.394725447951076  46.144637956482875 1
ion Pt  -0.000189385105538  20.045377311546581  42.826535834783549 1
ion Pt   0.000121199184173  24.543610826978711  52.497193724273927 1
ion Pt   0.000086823107374   6.673107409170234  49.279422900224141 1
ion Pt   5.232112790022596   4.362158542132667  44.565343256735154 1
ion Pt   5.231990674792911  11.171025032850510  41.453958548021802 1
ion Pt   5.231630813445247  17.700664682674361  37.980706956059727 1
ion Pt  -0.000104299099620   2.161033431230804  39.971122527111341 1
ion Pt   5.231832523166523   9.029496370471227  36.615115189799027 1
ion Pt   2.616136508250690  17.917349699380317  64.143225612153060 1
ion Pt   2.616161114748230   0.032857632257339  61.288900631464564 1
ion Pt   2.615987155917627   8.906690915305752  62.661336535042899 1
ion Pt   2.615931570724879  15.716542538038693  59.549405012858927 1
ion Pt   2.616058244079571  22.307098719774050  56.410211997788558 1
ion Pt   2.615955859849311  20.076932994288018  51.618762769753708 1
ion Pt   2.616268778053239   2.377023402470222  66.134720327634881 1
ion Pt   2.616056122544068   6.683791247743262  57.971764781577292 1
ion Pt   2.615923214119645  13.406059415746943  54.836773627206952 1
ion Pt   2.616095659681223   4.479165962866122  53.271557704764014 1
ion Pt   2.615923288004248  11.132081637105831  50.073071841767998 1
ion Pt   2.615898314506709  17.874437228370692  46.869859233713868 1
ion Pt   2.615995002609095  -0.140609356481239  43.774212690377695 1
ion Pt   2.615866970378907  15.621750649393622  42.170072535768291 1
ion Pt   2.615623761619451  22.047993157959702  38.723691359972598 1
ion Pt   2.616108280118179   2.219159241807068  48.550835086461269 1
ion Pt   2.616025601049694   8.888030856331749  45.355900743422367 1
ion Pt   2.616048638025069   6.714067197580302  40.688816574135366 1
ion Pt   2.615797783613671  13.375024759637329  37.367613700108016 1
ion Pt   2.616323625298254  19.713694120419881  68.762276487815427 1
ion Pt   2.615732620187279   4.728444071026749  35.905991556674344 1
ion Pt   2.616203801093021  11.047848095925424  67.499203515401419 1

# Forces in Cartesian coordinates:
force Pt   0.000001120956996   0.000006093398231  -0.000105563276944 1
force Pt  -0.000000343716021  -0.000025457747366   0.000173212189295 1
force Pt   0.000000255823667  -0.000142113645179  -0.000131354994270 1
force Pt   0.000000692424692   0.000218995544234  -0.000076518721145 1
force Pt   0.000000532793058  -0.000058528575259   0.000247556369701 1
force Pt   0.000000382923234  -0.000190138906631  -0.000055197932626 1
force Pt  -0.000000480153037   0.000009012114130  -0.000215979969538 1
force Pt  -0.000000019771994  -0.000139983631768   0.000021756264147 1
force Pt   0.000000031083811   0.000116882889155  -0.000048943008220 1
force Pt  -0.000000234414397  -0.000136288024888  -0.000378004768794 1
force Pt  -0.000000146287219  -0.000071525528606   0.000105832705239 1
force Pt   0.000000051499212  -0.000278928784952  -0.000193129348022 1
force Pt  -0.000000133248015  -0.000060703963108   0.000258740639772 1
force Pt  -0.000000258539535  -0.000064604283657   0.000243723997350 1
force Pt   0.000000249774859   0.000001154694499   0.000004209972295 1
force Pt   0.000000052094125  -0.000010275701972   0.000136494196402 1
force Pt  -0.000000280262791   0.000018108824565  -0.000059685534308 1
force Pt  -0.000000158006688  -0.000212086648117  -0.000153032329778 1
force Pt  -0.000000225106742   0.000007706289921   0.000046123034583 1
force Pt  -0.000000556545359   0.000098371281553   0.000052728679815 1
force Pt  -0.000000721111052  -0.000172463695884   0.000221394041276 1
force Pt  -0.000001950911952   0.000286738634698   0.000238443929210 1
force Pt   0.000001338617372   0.000172601700296  -0.000229603220190 1
force Pt  -0.000000502765501   0.000018116002527   0.000031941692163 1
force Pt   0.000000115526099  -0.000022397082191  -0.000011892588603 1
force Pt   0.000000750369712   0.000250010110061   0.000171534342722 1
force Pt   0.000000104189690   0.000080836493428  -0.000378128394509 1
force Pt   0.000000032784904   0.000003068141434  -0.000124949984471 1
force Pt  -0.000000001207943  -0.000100288130201  -0.000016773178759 1
force Pt  -0.000000532293953   0.000089429793003  -0.000303098333638 1
force Pt   0.000000090460082  -0.000052107848832  -0.000041576694587 1
force Pt  -0.000000176106653   0.000254795257684   0.000151630394395 1
force Pt   0.000000061457594   0.000103384327425  -0.000136358816178 1
force Pt   0.000000045371325   0.000127149626234   0.000294019844644 1
force Pt   0.000000309435180   0.000006358598795  -0.000207464137730 1
force Pt  -0.000000135548594   0.000127041205527   0.000027815738324 1
force Pt  -0.000000358792360   0.000021341103147  -0.000140107009615 1
force Pt   0.000000017091505   0.000222912577600  -0.000034691599380 1
force Pt  -0.000000488718393  -0.000150978604528  -0.000016146321915 1
force Pt  -0.000000556047430  -0.000204049213918   0.000126710965274 1
force Pt  -0.000001797377532   0.000114546914740   0.000158691849461 1
force Pt   0.000000565844275  -0.000006822538605   0.000272543430351 1
force Pt  -0.000000739650944  -0.000028349321581   0.000154864987928 1
force Pt   0.000001246581223  -0.000283250193456  -0.000194220908195 1

# Energy components:
   A_diel =        0.2953241054637628
   Eewald =    31523.8054335371634807
       EH =    35201.4149112484956277
     Eloc =   -71319.1634839254693361
      Enl =      -46.4681824825044245
     EvdW =       -1.0789175031728599
      Exc =    -1251.8053472128149224
 Exc_core =      721.2207669147981051
       KE =     1257.0099730167696634
  MuShift =        0.0596686040935932
-------------------------------------
     Etot =    -3914.7098536971780049
       TS =        0.0082308299580236
-------------------------------------
        F =    -3914.7180845271359431
      muN =     -172.1176771695577372
-------------------------------------
        G =    -3742.6004073575782058


Dumping 'jdft.fillings' ... done
Dumping 'jdft.wfns' ... done
Dumping 'jdft.fluidState' ... done
Dumping 'jdft.ionpos' ... done
Dumping 'jdft.lattice' ... done
Dumping 'jdft.eigenvals' ... done
Dumping 'jdft.eigStats' ... 
	eMin: -2.195085 at state 13 ( [ +0.000000 +0.500000 +0.000000 ] spin -1 )
	HOMO: -0.244852 at state 6 ( [ +0.272727 +0.000000 +0.000000 ] spin 1 )
	mu  : -0.244750
	LUMO: -0.244682 at state 15 ( [ +0.090909 +0.500000 +0.000000 ] spin -1 )
	eMax: +0.083914 at state 8 ( [ +0.363636 +0.000000 +0.000000 ] spin 1 )
	HOMO-LUMO gap: +0.000170
	Optical gap  : +0.000228 at state 23 ( [ +0.454545 +0.500000 +0.000000 ] spin -1 )
Dumping 'jdft.Ecomponents' ... done
IonicMinimize: Iter:   4  G: -3742.600407357578206  |grad|_K:  1.295e-04  alpha:  1.000e+00  linmin: -5.340e-02  t[s]:  84575.87
IonicMinimize: Converged (|Delta G|<1.000000e-04 for 2 iters).

#--- Lowdin population analysis ---
# oxidation-state Pt +0.064 -0.023 +0.059 +0.018 +0.015 +0.006 +0.189 +0.018 +0.013 +0.008 +0.004 +0.007 +0.007 +0.012 +0.013 +0.005 +0.003 +0.014 +0.019 +0.077 +0.023 +0.064 +0.023 +0.013 +0.019 +0.013 +0.007 +0.005 +0.077 +0.012 +0.003 +0.006 +0.004 +0.008 +0.015 +0.018 -0.022 +0.006 +0.013 +0.018 +0.059 +0.189 +0.064 +0.064
# magnetic-moments Pt +0.000 +0.000 +0.000 +0.000 -0.000 -0.000 +0.000 -0.000 -0.000 -0.000 -0.000 -0.000 -0.000 -0.000 -0.000 -0.000 -0.000 -0.000 -0.000 +0.000 +0.000 +0.000 +0.000 -0.000 -0.000 -0.000 -0.000 -0.000 +0.000 -0.000 -0.000 -0.000 -0.000 -0.000 -0.000 -0.000 +0.000 -0.000 -0.000 +0.000 +0.000 +0.000 +0.000 +0.000


Dumping 'jdft.n_up' ... done
Dumping 'jdft.n_dn' ... done
Dumping 'jdft.tau_up' ... done
Dumping 'jdft.tau_dn' ... done
Dumping 'jdft.eigenvals' ... done
Dumping 'jdft.eigStats' ... 
	eMin: -2.195085 at state 13 ( [ +0.000000 +0.500000 +0.000000 ] spin -1 )
	HOMO: -0.244852 at state 6 ( [ +0.272727 +0.000000 +0.000000 ] spin 1 )
	mu  : -0.244750
	LUMO: -0.244682 at state 15 ( [ +0.090909 +0.500000 +0.000000 ] spin -1 )
	eMax: +0.083914 at state 8 ( [ +0.363636 +0.000000 +0.000000 ] spin 1 )
	HOMO-LUMO gap: +0.000170
	Optical gap  : +0.000228 at state 23 ( [ +0.454545 +0.500000 +0.000000 ] spin -1 )
Dumping 'jdft.kPts' ... done
Dumping 'jdft.kMap' ... done
Dumping 'jdft.dosUp' ... done.
Dumping 'jdft.dosDn' ... done.
End date and time: Sat Sep 10 01:07:21 2022  (Duration: 0-23:31:31.68)
Done!

PROFILER:             augmentDensityGrid     1.718890 +/-     0.124573 s,  807 calls,   1387.143964 s total
PROFILER:         augmentDensityGridGrad     1.072223 +/-     0.183071 s,  408 calls,    437.466946 s total
PROFILER:        augmentDensitySpherical     0.008578 +/-     0.000770 s,  807 calls,      6.922810 s total
PROFILER:    augmentDensitySphericalGrad     0.008555 +/-     0.001623 s,  439 calls,      3.755723 s total
PROFILER:                 augmentOverlap    15.294952 +/-     1.502891 s, 1525 calls,  23324.801128 s total
PROFILER:        ColumnBundle::randomize     0.002596 +/-     0.000000 s,    1 calls,      0.002596 s total
PROFILER:                     diagouterI    19.354935 +/-     1.619260 s,  810 calls,  15677.497648 s total
PROFILER:              EdensityAndVscloc     4.280884 +/-     2.846425 s,  808 calls,   3458.953973 s total
PROFILER:                     EnlAndGrad     0.073440 +/-     0.012096 s,  773 calls,     56.768801 s total
PROFILER:            ExCorrCommunication     0.036267 +/-     0.080686 s, 4905 calls,    177.888841 s total
PROFILER:               ExCorrFunctional     0.009987 +/-     0.001043 s,  824 calls,      8.228978 s total
PROFILER:                    ExCorrTotal     0.326448 +/-     0.165700 s,  824 calls,    268.993336 s total
PROFILER:                   Idag_DiagV_I    37.232598 +/-     7.336012 s,  434 calls,  16158.947610 s total
PROFILER:                    initWeights     2.041510 +/-     0.000000 s,    1 calls,      2.041510 s total
PROFILER:                    inv(matrix)     0.091954 +/-     0.044662 s,  732 calls,     67.310650 s total
PROFILER:            matrix::diagonalize     0.117434 +/-     0.049900 s, 1240 calls,    145.617797 s total
PROFILER:                    matrix::set     0.000015 +/-     0.000013 s, 53552 calls,      0.823489 s total
PROFILER:            orthoMatrix(matrix)     0.019257 +/-     0.010303 s,  760 calls,     14.635683 s total
PROFILER:     RadialFunctionR::transform     0.007759 +/-     0.033332 s,   56 calls,      0.434477 s total
PROFILER:                    reduceKmesh     0.001708 +/-     0.000000 s,    1 calls,      0.001708 s total
PROFILER:   VanDerWaalsD3::energyAndGrad     0.034636 +/-     0.001497 s,   11 calls,      0.380992 s total
PROFILER:               WavefunctionDrag    54.309629 +/-    13.135945 s,    5 calls,    271.548143 s total
PROFILER:                            Y*M     5.061978 +/-     1.729708 s, 5071 calls,  25669.292590 s total
PROFILER:                          Y1^Y2     5.445381 +/-     1.890254 s, 3164 calls,  17229.184607 s total

MEMUSAGE:                   ColumnBundle     1.652526 GB
MEMUSAGE:        complexScalarFieldTilde     0.020027 GB
MEMUSAGE:                    IndexArrays     0.013617 GB
MEMUSAGE:                         matrix     0.124501 GB
MEMUSAGE:                           misc     0.020142 GB
MEMUSAGE:                    ScalarField     0.145197 GB
MEMUSAGE:               ScalarFieldTilde     0.105894 GB
MEMUSAGE:                          Total     1.816149 GB
