
*************** JDFTx 1.6.0  ***************

Start date and time: Thu Feb 17 02:28:17 2022
Executable /projects/musgravc/apps/jdftx-1.6.1/build/jdftx with command-line: -i in
Running on hosts (process indices):  shas0352.rc.int.colorado.edu (0-23)
Divided in process groups (process indices):  0 (0)  1 (1)  2 (2)  3 (3)  4 (4)  5 (5)  6 (6)  7 (7)  8 (8)  9 (9)  10 (10)  11 (11)  12 (12)  13 (13)  14 (14)  15 (15)  16 (16)  17 (17)  18 (18)  19 (19)  20 (20)  21 (21)  22 (22)  23 (23)
Resource initialization completed at t[s]:      0.00
Run totals: 24 processes, 24 threads, 0 GPUs


Input parsed successfully to the following command list (including defaults):

basis kpoint-dependent
converge-empty-states yes
coords-type Cartesian
core-overlap-check none
coulomb-interaction Periodic
davidson-band-ratio 1.1
density-of-states Etol 1.000000e-06 Esigma 1.000000e-03 \
		Complete \
	Total \
	OrthoOrbital Cu 1   s \
	OrthoOrbital Cu 1   p \
	OrthoOrbital Cu 1   px \
	OrthoOrbital Cu 1   py \
	OrthoOrbital Cu 1   pz \
	OrthoOrbital Cu 1   d \
	OrthoOrbital Cu 1   dxy \
	OrthoOrbital Cu 1   dyz \
	OrthoOrbital Cu 1   dz2 \
	OrthoOrbital Cu 1   dxz \
	OrthoOrbital Cu 1   dx2-y2 \
	OrthoOrbital Cu 2   s \
	OrthoOrbital Cu 2   p \
	OrthoOrbital Cu 2   px \
	OrthoOrbital Cu 2   py \
	OrthoOrbital Cu 2   pz \
	OrthoOrbital Cu 2   d \
	OrthoOrbital Cu 2   dxy \
	OrthoOrbital Cu 2   dyz \
	OrthoOrbital Cu 2   dz2 \
	OrthoOrbital Cu 2   dxz \
	OrthoOrbital Cu 2   dx2-y2 \
	OrthoOrbital Cu 3   s \
	OrthoOrbital Cu 3   p \
	OrthoOrbital Cu 3   px \
	OrthoOrbital Cu 3   py \
	OrthoOrbital Cu 3   pz \
	OrthoOrbital Cu 3   d \
	OrthoOrbital Cu 3   dxy \
	OrthoOrbital Cu 3   dyz \
	OrthoOrbital Cu 3   dz2 \
	OrthoOrbital Cu 3   dxz \
	OrthoOrbital Cu 3   dx2-y2 \
	OrthoOrbital Cu 4   s \
	OrthoOrbital Cu 4   p \
	OrthoOrbital Cu 4   px \
	OrthoOrbital Cu 4   py \
	OrthoOrbital Cu 4   pz \
	OrthoOrbital Cu 4   d \
	OrthoOrbital Cu 4   dxy \
	OrthoOrbital Cu 4   dyz \
	OrthoOrbital Cu 4   dz2 \
	OrthoOrbital Cu 4   dxz \
	OrthoOrbital Cu 4   dx2-y2 \
	OrthoOrbital Cu 5   s \
	OrthoOrbital Cu 5   p \
	OrthoOrbital Cu 5   px \
	OrthoOrbital Cu 5   py \
	OrthoOrbital Cu 5   pz \
	OrthoOrbital Cu 5   d \
	OrthoOrbital Cu 5   dxy \
	OrthoOrbital Cu 5   dyz \
	OrthoOrbital Cu 5   dz2 \
	OrthoOrbital Cu 5   dxz \
	OrthoOrbital Cu 5   dx2-y2 \
	OrthoOrbital Cu 6   s \
	OrthoOrbital Cu 6   p \
	OrthoOrbital Cu 6   px \
	OrthoOrbital Cu 6   py \
	OrthoOrbital Cu 6   pz \
	OrthoOrbital Cu 6   d \
	OrthoOrbital Cu 6   dxy \
	OrthoOrbital Cu 6   dyz \
	OrthoOrbital Cu 6   dz2 \
	OrthoOrbital Cu 6   dxz \
	OrthoOrbital Cu 6   dx2-y2 \
	OrthoOrbital Cu 7   s \
	OrthoOrbital Cu 7   p \
	OrthoOrbital Cu 7   px \
	OrthoOrbital Cu 7   py \
	OrthoOrbital Cu 7   pz \
	OrthoOrbital Cu 7   d \
	OrthoOrbital Cu 7   dxy \
	OrthoOrbital Cu 7   dyz \
	OrthoOrbital Cu 7   dz2 \
	OrthoOrbital Cu 7   dxz \
	OrthoOrbital Cu 7   dx2-y2 \
	OrthoOrbital Cu 8   s \
	OrthoOrbital Cu 8   p \
	OrthoOrbital Cu 8   px \
	OrthoOrbital Cu 8   py \
	OrthoOrbital Cu 8   pz \
	OrthoOrbital Cu 8   d \
	OrthoOrbital Cu 8   dxy \
	OrthoOrbital Cu 8   dyz \
	OrthoOrbital Cu 8   dz2 \
	OrthoOrbital Cu 8   dxz \
	OrthoOrbital Cu 8   dx2-y2 \
	OrthoOrbital Cu 9   s \
	OrthoOrbital Cu 9   p \
	OrthoOrbital Cu 9   px \
	OrthoOrbital Cu 9   py \
	OrthoOrbital Cu 9   pz \
	OrthoOrbital Cu 9   d \
	OrthoOrbital Cu 9   dxy \
	OrthoOrbital Cu 9   dyz \
	OrthoOrbital Cu 9   dz2 \
	OrthoOrbital Cu 9   dxz \
	OrthoOrbital Cu 9   dx2-y2 \
	OrthoOrbital Cu 10   s \
	OrthoOrbital Cu 10   p \
	OrthoOrbital Cu 10   px \
	OrthoOrbital Cu 10   py \
	OrthoOrbital Cu 10   pz \
	OrthoOrbital Cu 10   d \
	OrthoOrbital Cu 10   dxy \
	OrthoOrbital Cu 10   dyz \
	OrthoOrbital Cu 10   dz2 \
	OrthoOrbital Cu 10   dxz \
	OrthoOrbital Cu 10   dx2-y2 \
	OrthoOrbital Cu 11   s \
	OrthoOrbital Cu 11   p \
	OrthoOrbital Cu 11   px \
	OrthoOrbital Cu 11   py \
	OrthoOrbital Cu 11   pz \
	OrthoOrbital Cu 11   d \
	OrthoOrbital Cu 11   dxy \
	OrthoOrbital Cu 11   dyz \
	OrthoOrbital Cu 11   dz2 \
	OrthoOrbital Cu 11   dxz \
	OrthoOrbital Cu 11   dx2-y2 \
	OrthoOrbital Cu 12   s \
	OrthoOrbital Cu 12   p \
	OrthoOrbital Cu 12   px \
	OrthoOrbital Cu 12   py \
	OrthoOrbital Cu 12   pz \
	OrthoOrbital Cu 12   d \
	OrthoOrbital Cu 12   dxy \
	OrthoOrbital Cu 12   dyz \
	OrthoOrbital Cu 12   dz2 \
	OrthoOrbital Cu 12   dxz \
	OrthoOrbital Cu 12   dx2-y2 \
	OrthoOrbital Cu 13   s \
	OrthoOrbital Cu 13   p \
	OrthoOrbital Cu 13   px \
	OrthoOrbital Cu 13   py \
	OrthoOrbital Cu 13   pz \
	OrthoOrbital Cu 13   d \
	OrthoOrbital Cu 13   dxy \
	OrthoOrbital Cu 13   dyz \
	OrthoOrbital Cu 13   dz2 \
	OrthoOrbital Cu 13   dxz \
	OrthoOrbital Cu 13   dx2-y2 \
	OrthoOrbital Cu 14   s \
	OrthoOrbital Cu 14   p \
	OrthoOrbital Cu 14   px \
	OrthoOrbital Cu 14   py \
	OrthoOrbital Cu 14   pz \
	OrthoOrbital Cu 14   d \
	OrthoOrbital Cu 14   dxy \
	OrthoOrbital Cu 14   dyz \
	OrthoOrbital Cu 14   dz2 \
	OrthoOrbital Cu 14   dxz \
	OrthoOrbital Cu 14   dx2-y2 \
	OrthoOrbital Cu 15   s \
	OrthoOrbital Cu 15   p \
	OrthoOrbital Cu 15   px \
	OrthoOrbital Cu 15   py \
	OrthoOrbital Cu 15   pz \
	OrthoOrbital Cu 15   d \
	OrthoOrbital Cu 15   dxy \
	OrthoOrbital Cu 15   dyz \
	OrthoOrbital Cu 15   dz2 \
	OrthoOrbital Cu 15   dxz \
	OrthoOrbital Cu 15   dx2-y2 \
	OrthoOrbital Cu 16   s \
	OrthoOrbital Cu 16   p \
	OrthoOrbital Cu 16   px \
	OrthoOrbital Cu 16   py \
	OrthoOrbital Cu 16   pz \
	OrthoOrbital Cu 16   d \
	OrthoOrbital Cu 16   dxy \
	OrthoOrbital Cu 16   dyz \
	OrthoOrbital Cu 16   dz2 \
	OrthoOrbital Cu 16   dxz \
	OrthoOrbital Cu 16   dx2-y2 \
	OrthoOrbital Cu 17   s \
	OrthoOrbital Cu 17   p \
	OrthoOrbital Cu 17   px \
	OrthoOrbital Cu 17   py \
	OrthoOrbital Cu 17   pz \
	OrthoOrbital Cu 17   d \
	OrthoOrbital Cu 17   dxy \
	OrthoOrbital Cu 17   dyz \
	OrthoOrbital Cu 17   dz2 \
	OrthoOrbital Cu 17   dxz \
	OrthoOrbital Cu 17   dx2-y2 \
	OrthoOrbital Cu 18   s \
	OrthoOrbital Cu 18   p \
	OrthoOrbital Cu 18   px \
	OrthoOrbital Cu 18   py \
	OrthoOrbital Cu 18   pz \
	OrthoOrbital Cu 18   d \
	OrthoOrbital Cu 18   dxy \
	OrthoOrbital Cu 18   dyz \
	OrthoOrbital Cu 18   dz2 \
	OrthoOrbital Cu 18   dxz \
	OrthoOrbital Cu 18   dx2-y2 \
	OrthoOrbital Cu 19   s \
	OrthoOrbital Cu 19   p \
	OrthoOrbital Cu 19   px \
	OrthoOrbital Cu 19   py \
	OrthoOrbital Cu 19   pz \
	OrthoOrbital Cu 19   d \
	OrthoOrbital Cu 19   dxy \
	OrthoOrbital Cu 19   dyz \
	OrthoOrbital Cu 19   dz2 \
	OrthoOrbital Cu 19   dxz \
	OrthoOrbital Cu 19   dx2-y2 \
	OrthoOrbital Cu 20   s \
	OrthoOrbital Cu 20   p \
	OrthoOrbital Cu 20   px \
	OrthoOrbital Cu 20   py \
	OrthoOrbital Cu 20   pz \
	OrthoOrbital Cu 20   d \
	OrthoOrbital Cu 20   dxy \
	OrthoOrbital Cu 20   dyz \
	OrthoOrbital Cu 20   dz2 \
	OrthoOrbital Cu 20   dxz \
	OrthoOrbital Cu 20   dx2-y2 \
	OrthoOrbital Cu 21   s \
	OrthoOrbital Cu 21   p \
	OrthoOrbital Cu 21   px \
	OrthoOrbital Cu 21   py \
	OrthoOrbital Cu 21   pz \
	OrthoOrbital Cu 21   d \
	OrthoOrbital Cu 21   dxy \
	OrthoOrbital Cu 21   dyz \
	OrthoOrbital Cu 21   dz2 \
	OrthoOrbital Cu 21   dxz \
	OrthoOrbital Cu 21   dx2-y2 \
	OrthoOrbital Cu 22   s \
	OrthoOrbital Cu 22   p \
	OrthoOrbital Cu 22   px \
	OrthoOrbital Cu 22   py \
	OrthoOrbital Cu 22   pz \
	OrthoOrbital Cu 22   d \
	OrthoOrbital Cu 22   dxy \
	OrthoOrbital Cu 22   dyz \
	OrthoOrbital Cu 22   dz2 \
	OrthoOrbital Cu 22   dxz \
	OrthoOrbital Cu 22   dx2-y2 \
	OrthoOrbital Cu 23   s \
	OrthoOrbital Cu 23   p \
	OrthoOrbital Cu 23   px \
	OrthoOrbital Cu 23   py \
	OrthoOrbital Cu 23   pz \
	OrthoOrbital Cu 23   d \
	OrthoOrbital Cu 23   dxy \
	OrthoOrbital Cu 23   dyz \
	OrthoOrbital Cu 23   dz2 \
	OrthoOrbital Cu 23   dxz \
	OrthoOrbital Cu 23   dx2-y2 \
	OrthoOrbital Cu 24   s \
	OrthoOrbital Cu 24   p \
	OrthoOrbital Cu 24   px \
	OrthoOrbital Cu 24   py \
	OrthoOrbital Cu 24   pz \
	OrthoOrbital Cu 24   d \
	OrthoOrbital Cu 24   dxy \
	OrthoOrbital Cu 24   dyz \
	OrthoOrbital Cu 24   dz2 \
	OrthoOrbital Cu 24   dxz \
	OrthoOrbital Cu 24   dx2-y2 \
	OrthoOrbital Cu 25   s \
	OrthoOrbital Cu 25   p \
	OrthoOrbital Cu 25   px \
	OrthoOrbital Cu 25   py \
	OrthoOrbital Cu 25   pz \
	OrthoOrbital Cu 25   d \
	OrthoOrbital Cu 25   dxy \
	OrthoOrbital Cu 25   dyz \
	OrthoOrbital Cu 25   dz2 \
	OrthoOrbital Cu 25   dxz \
	OrthoOrbital Cu 25   dx2-y2 \
	OrthoOrbital Cu 26   s \
	OrthoOrbital Cu 26   p \
	OrthoOrbital Cu 26   px \
	OrthoOrbital Cu 26   py \
	OrthoOrbital Cu 26   pz \
	OrthoOrbital Cu 26   d \
	OrthoOrbital Cu 26   dxy \
	OrthoOrbital Cu 26   dyz \
	OrthoOrbital Cu 26   dz2 \
	OrthoOrbital Cu 26   dxz \
	OrthoOrbital Cu 26   dx2-y2 \
	OrthoOrbital Cu 27   s \
	OrthoOrbital Cu 27   p \
	OrthoOrbital Cu 27   px \
	OrthoOrbital Cu 27   py \
	OrthoOrbital Cu 27   pz \
	OrthoOrbital Cu 27   d \
	OrthoOrbital Cu 27   dxy \
	OrthoOrbital Cu 27   dyz \
	OrthoOrbital Cu 27   dz2 \
	OrthoOrbital Cu 27   dxz \
	OrthoOrbital Cu 27   dx2-y2 \
	OrthoOrbital Cu 28   s \
	OrthoOrbital Cu 28   p \
	OrthoOrbital Cu 28   px \
	OrthoOrbital Cu 28   py \
	OrthoOrbital Cu 28   pz \
	OrthoOrbital Cu 28   d \
	OrthoOrbital Cu 28   dxy \
	OrthoOrbital Cu 28   dyz \
	OrthoOrbital Cu 28   dz2 \
	OrthoOrbital Cu 28   dxz \
	OrthoOrbital Cu 28   dx2-y2 \
	OrthoOrbital Cu 29   s \
	OrthoOrbital Cu 29   p \
	OrthoOrbital Cu 29   px \
	OrthoOrbital Cu 29   py \
	OrthoOrbital Cu 29   pz \
	OrthoOrbital Cu 29   d \
	OrthoOrbital Cu 29   dxy \
	OrthoOrbital Cu 29   dyz \
	OrthoOrbital Cu 29   dz2 \
	OrthoOrbital Cu 29   dxz \
	OrthoOrbital Cu 29   dx2-y2 \
	OrthoOrbital Cu 30   s \
	OrthoOrbital Cu 30   p \
	OrthoOrbital Cu 30   px \
	OrthoOrbital Cu 30   py \
	OrthoOrbital Cu 30   pz \
	OrthoOrbital Cu 30   d \
	OrthoOrbital Cu 30   dxy \
	OrthoOrbital Cu 30   dyz \
	OrthoOrbital Cu 30   dz2 \
	OrthoOrbital Cu 30   dxz \
	OrthoOrbital Cu 30   dx2-y2 \
	OrthoOrbital Cu 31   s \
	OrthoOrbital Cu 31   p \
	OrthoOrbital Cu 31   px \
	OrthoOrbital Cu 31   py \
	OrthoOrbital Cu 31   pz \
	OrthoOrbital Cu 31   d \
	OrthoOrbital Cu 31   dxy \
	OrthoOrbital Cu 31   dyz \
	OrthoOrbital Cu 31   dz2 \
	OrthoOrbital Cu 31   dxz \
	OrthoOrbital Cu 31   dx2-y2 \
	OrthoOrbital Cu 32   s \
	OrthoOrbital Cu 32   p \
	OrthoOrbital Cu 32   px \
	OrthoOrbital Cu 32   py \
	OrthoOrbital Cu 32   pz \
	OrthoOrbital Cu 32   d \
	OrthoOrbital Cu 32   dxy \
	OrthoOrbital Cu 32   dyz \
	OrthoOrbital Cu 32   dz2 \
	OrthoOrbital Cu 32   dxz \
	OrthoOrbital Cu 32   dx2-y2 \
	OrthoOrbital Cu 33   s \
	OrthoOrbital Cu 33   p \
	OrthoOrbital Cu 33   px \
	OrthoOrbital Cu 33   py \
	OrthoOrbital Cu 33   pz \
	OrthoOrbital Cu 33   d \
	OrthoOrbital Cu 33   dxy \
	OrthoOrbital Cu 33   dyz \
	OrthoOrbital Cu 33   dz2 \
	OrthoOrbital Cu 33   dxz \
	OrthoOrbital Cu 33   dx2-y2 \
	OrthoOrbital Cu 34   s \
	OrthoOrbital Cu 34   p \
	OrthoOrbital Cu 34   px \
	OrthoOrbital Cu 34   py \
	OrthoOrbital Cu 34   pz \
	OrthoOrbital Cu 34   d \
	OrthoOrbital Cu 34   dxy \
	OrthoOrbital Cu 34   dyz \
	OrthoOrbital Cu 34   dz2 \
	OrthoOrbital Cu 34   dxz \
	OrthoOrbital Cu 34   dx2-y2 \
	OrthoOrbital Cu 35   s \
	OrthoOrbital Cu 35   p \
	OrthoOrbital Cu 35   px \
	OrthoOrbital Cu 35   py \
	OrthoOrbital Cu 35   pz \
	OrthoOrbital Cu 35   d \
	OrthoOrbital Cu 35   dxy \
	OrthoOrbital Cu 35   dyz \
	OrthoOrbital Cu 35   dz2 \
	OrthoOrbital Cu 35   dxz \
	OrthoOrbital Cu 35   dx2-y2 \
	OrthoOrbital Cu 36   s \
	OrthoOrbital Cu 36   p \
	OrthoOrbital Cu 36   px \
	OrthoOrbital Cu 36   py \
	OrthoOrbital Cu 36   pz \
	OrthoOrbital Cu 36   d \
	OrthoOrbital Cu 36   dxy \
	OrthoOrbital Cu 36   dyz \
	OrthoOrbital Cu 36   dz2 \
	OrthoOrbital Cu 36   dxz \
	OrthoOrbital Cu 36   dx2-y2 \
	OrthoOrbital Cu 37   s \
	OrthoOrbital Cu 37   p \
	OrthoOrbital Cu 37   px \
	OrthoOrbital Cu 37   py \
	OrthoOrbital Cu 37   pz \
	OrthoOrbital Cu 37   d \
	OrthoOrbital Cu 37   dxy \
	OrthoOrbital Cu 37   dyz \
	OrthoOrbital Cu 37   dz2 \
	OrthoOrbital Cu 37   dxz \
	OrthoOrbital Cu 37   dx2-y2 \
	OrthoOrbital Cu 38   s \
	OrthoOrbital Cu 38   p \
	OrthoOrbital Cu 38   px \
	OrthoOrbital Cu 38   py \
	OrthoOrbital Cu 38   pz \
	OrthoOrbital Cu 38   d \
	OrthoOrbital Cu 38   dxy \
	OrthoOrbital Cu 38   dyz \
	OrthoOrbital Cu 38   dz2 \
	OrthoOrbital Cu 38   dxz \
	OrthoOrbital Cu 38   dx2-y2 \
	OrthoOrbital Cu 39   s \
	OrthoOrbital Cu 39   p \
	OrthoOrbital Cu 39   px \
	OrthoOrbital Cu 39   py \
	OrthoOrbital Cu 39   pz \
	OrthoOrbital Cu 39   d \
	OrthoOrbital Cu 39   dxy \
	OrthoOrbital Cu 39   dyz \
	OrthoOrbital Cu 39   dz2 \
	OrthoOrbital Cu 39   dxz \
	OrthoOrbital Cu 39   dx2-y2 \
	OrthoOrbital Cu 40   s \
	OrthoOrbital Cu 40   p \
	OrthoOrbital Cu 40   px \
	OrthoOrbital Cu 40   py \
	OrthoOrbital Cu 40   pz \
	OrthoOrbital Cu 40   d \
	OrthoOrbital Cu 40   dxy \
	OrthoOrbital Cu 40   dyz \
	OrthoOrbital Cu 40   dz2 \
	OrthoOrbital Cu 40   dxz \
	OrthoOrbital Cu 40   dx2-y2 \
	OrthoOrbital Cu 41   s \
	OrthoOrbital Cu 41   p \
	OrthoOrbital Cu 41   px \
	OrthoOrbital Cu 41   py \
	OrthoOrbital Cu 41   pz \
	OrthoOrbital Cu 41   d \
	OrthoOrbital Cu 41   dxy \
	OrthoOrbital Cu 41   dyz \
	OrthoOrbital Cu 41   dz2 \
	OrthoOrbital Cu 41   dxz \
	OrthoOrbital Cu 41   dx2-y2 \
	OrthoOrbital Cu 42   s \
	OrthoOrbital Cu 42   p \
	OrthoOrbital Cu 42   px \
	OrthoOrbital Cu 42   py \
	OrthoOrbital Cu 42   pz \
	OrthoOrbital Cu 42   d \
	OrthoOrbital Cu 42   dxy \
	OrthoOrbital Cu 42   dyz \
	OrthoOrbital Cu 42   dz2 \
	OrthoOrbital Cu 42   dxz \
	OrthoOrbital Cu 42   dx2-y2 \
	OrthoOrbital Cu 43   s \
	OrthoOrbital Cu 43   p \
	OrthoOrbital Cu 43   px \
	OrthoOrbital Cu 43   py \
	OrthoOrbital Cu 43   pz \
	OrthoOrbital Cu 43   d \
	OrthoOrbital Cu 43   dxy \
	OrthoOrbital Cu 43   dyz \
	OrthoOrbital Cu 43   dz2 \
	OrthoOrbital Cu 43   dxz \
	OrthoOrbital Cu 43   dx2-y2 \
	OrthoOrbital Cu 44   s \
	OrthoOrbital Cu 44   p \
	OrthoOrbital Cu 44   px \
	OrthoOrbital Cu 44   py \
	OrthoOrbital Cu 44   pz \
	OrthoOrbital Cu 44   d \
	OrthoOrbital Cu 44   dxy \
	OrthoOrbital Cu 44   dyz \
	OrthoOrbital Cu 44   dz2 \
	OrthoOrbital Cu 44   dxz \
	OrthoOrbital Cu 44   dx2-y2 \
	OrthoOrbital C 1   s \
	OrthoOrbital C 1   p \
	OrthoOrbital C 1   px \
	OrthoOrbital C 1   py \
	OrthoOrbital C 1   pz \
	OrthoOrbital O 1   s \
	OrthoOrbital O 1   p \
	OrthoOrbital O 1   px \
	OrthoOrbital O 1   py \
	OrthoOrbital O 1   pz
dump End ElecDensity KEdensity BandEigs EigStats RhoAtom DOS Kpoints
dump Ionic State IonicPositions Lattice EigStats Ecomponents
dump 
dump 
dump 
dump 
dump 
dump 
dump 
dump 
dump-name jdft.$VAR
elec-cutoff 20
elec-eigen-algo Davidson
elec-ex-corr gga-PBE
elec-initial-magnetization 0.000000 no
elec-n-bands 508
elec-smearing Fermi 0.001
electronic-minimize  \
	dirUpdateScheme      FletcherReeves \
	linminMethod         DirUpdateRecommended \
	nIterations          100 \
	history              15 \
	knormThreshold       0 \
	energyDiffThreshold  1e-07 \
	nEnergyDiff          2 \
	alphaTstart          1 \
	alphaTmin            1e-10 \
	updateTestStepSize   yes \
	alphaTreduceFactor   0.1 \
	alphaTincreaseFactor 3 \
	nAlphaAdjustMax      3 \
	wolfeEnergy          0.0001 \
	wolfeGradient        0.9 \
	fdTest               no
exchange-regularization WignerSeitzTruncated
fluid LinearPCM 298.000000 1.013250
fluid-anion F- 0.5 MeanFieldLJ \
	epsBulk 1 \
	pMol 0 \
	epsInf 1 \
	Pvap 0 \
	sigmaBulk 0 \
	Rvdw 2.24877 \
	Res 0 \
	tauNuc 343133
fluid-cation Na+ 0.5 MeanFieldLJ \
	epsBulk 1 \
	pMol 0 \
	epsInf 1 \
	Pvap 0 \
	sigmaBulk 0 \
	Rvdw 2.19208 \
	Res 0 \
	tauNuc 343133
fluid-ex-corr lda-TF lda-PZ
fluid-gummel-loop 10 1.000000e-05
fluid-minimize  \
	dirUpdateScheme      PolakRibiere \
	linminMethod         DirUpdateRecommended \
	nIterations          400 \
	history              15 \
	knormThreshold       1e-11 \
	energyDiffThreshold  0 \
	nEnergyDiff          2 \
	alphaTstart          1 \
	alphaTmin            1e-10 \
	updateTestStepSize   yes \
	alphaTreduceFactor   0.1 \
	alphaTincreaseFactor 3 \
	nAlphaAdjustMax      6 \
	wolfeEnergy          0.0001 \
	wolfeGradient        0.9 \
	fdTest               no
fluid-solvent H2O 55.338 ScalarEOS \
	epsBulk 78.4 \
	pMol 0.92466 \
	epsInf 1.77 \
	Pvap 1.06736e-10 \
	sigmaBulk 4.62e-05 \
	Rvdw 2.61727 \
	Res 1.42 \
	tauNuc 343133 \
	poleEl 15 7 1
forces-output-coords Positions
ion Cu  -4.764959000000000  15.804627000000000  21.261259999999996 0
ion Cu  -2.381638000000000   7.900077000000000  21.261259999999996 0
ion Cu   0.001672999999999  15.804627000000000  21.261259999999996 0
ion Cu   2.384984000000000   7.900077000000000  21.261259999999996 0
ion Cu  -0.002340000000000   4.315647000000000   1.097505000000000 0
ion Cu  -2.385642000000001  12.220198000000000   1.097505000000000 0
ion Cu   4.764282000000000   4.315647000000000   1.097505000000000 0
ion Cu   2.380971000000000  12.220198000000000   1.097505000000000 0
ion Cu   2.381794999999999   0.713275000000000   2.921133999999999 0
ion Cu  -0.001516000000001   8.617826000000001   2.921133999999999 0
ion Cu   7.148417999999999   0.713275000000000   2.921133999999999 0
ion Cu   4.765107000000000   8.617826000000001   2.921133999999999 0
ion Cu   2.382486999999999   5.058106000000000   5.065168999999999 0
ion Cu  -0.000825000000000  12.962657000000000   5.065168999999999 0
ion Cu   7.149109000000000   5.058106000000000   5.065168999999999 0
ion Cu   4.765797999999998  12.962657000000000   5.065168999999999 0
ion Cu   0.002769000000000   1.431814000000000   7.100813999999999 0
ion Cu  -2.380532000000001   9.336365000000001   7.100813999999999 0
ion Cu   4.769392000000000   1.431814000000000   7.100813999999999 0
ion Cu   2.386080999999999   9.336365000000001   7.100813999999999 0
ion Cu   0.000024000000000   5.742261000000000   9.138538999999998 0
ion Cu  -2.383287000000001  13.646811000000000   9.138538999999998 0
ion Cu   4.766646000000000   5.742261000000000   9.138538999999998 0
ion Cu   2.383335000000000  13.646811000000000   9.138538999999998 0
ion Cu   2.383383000000000   2.155998000000000  11.179549999999999 0
ion Cu   0.000070999999999  10.060548000000001  11.179549999999999 0
ion Cu   7.150005000000000   2.155998000000000  11.179549999999999 0
ion Cu   4.766693999999999  10.060548000000001  11.179549999999999 0
ion Cu   2.382868000000000   6.473874000000000  13.215530999999999 0
ion Cu  -0.000443000000001  14.378425000000000  13.215530999999999 0
ion Cu   7.149489999999999   6.473874000000000  13.215530999999999 0
ion Cu   4.766178999999999  14.378425000000000  13.215530999999999 0
ion Cu  -0.002007000000000   2.879960000000000  15.258352999999996 0
ion Cu  -2.385318000000001  10.784509999999999  15.258352999999996 0
ion Cu   4.764615999999999   2.879960000000000  15.258352999999996 0
ion Cu   2.381304999999999  10.784509999999999  15.258352999999996 0
ion Cu   0.000862999999999   7.157744000000000  17.290979999999998 0
ion Cu  -2.382448000000000  15.062295000000001  17.290979999999998 0
ion Cu   4.767476000000000   7.157744000000000  17.290979999999998 0
ion Cu   2.384173999999999  15.062295000000001  17.290979999999998 0
ion Cu   2.385027000000000   3.598594000000000  19.437361999999997 0
ion Cu   0.001716000000000  11.503145000000000  19.437361999999997 0
ion Cu   7.151650000000000   3.598594000000000  19.437361999999997 0
ion Cu   4.768337999999999  11.503145000000000  19.437361999999997 0
ion C   0.001668000000000  10.534931999999998  23.028548999999998 1  Linear 0 0 1
ion O   0.061766000000000  10.534931999999998  25.183918999999996 1  Linear 0 0 1
ion-species /projects/musgravc/apps/jdftx-1.6.0/build/pseudopotentials/GBRV_v1.5/$ID_pbe_v1.uspp
ion-species /projects/musgravc/apps/jdftx-1.6.0/build/pseudopotentials/GBRV_v1.5/$ID_pbe_v1.2.uspp
ion-species /projects/musgravc/apps/jdftx-1.6.0/build/pseudopotentials/GBRV_v1.5/$ID_pbe_v1.4.uspp
ion-species /projects/musgravc/apps/jdftx-1.6.0/build/pseudopotentials/GBRV_v1.5/$ID_pbe_v1.5.uspp
ion-width Ecut
ionic-minimize  \
	dirUpdateScheme      L-BFGS \
	linminMethod         DirUpdateRecommended \
	nIterations          100 \
	history              15 \
	knormThreshold       0.0001 \
	energyDiffThreshold  1e-06 \
	nEnergyDiff          2 \
	alphaTstart          1 \
	alphaTmin            1e-10 \
	updateTestStepSize   yes \
	alphaTreduceFactor   0.1 \
	alphaTincreaseFactor 3 \
	nAlphaAdjustMax      3 \
	wolfeEnergy          0.0001 \
	wolfeGradient        0.9 \
	fdTest               no
kpoint   0.000000000000   0.000000000000   0.000000000000  1.00000000000000
kpoint-folding 6 3 1 
latt-move-scale 0 0 0
latt-scale 1 1 1 
lattice  \
	   9.533245000000001   -4.766623000000000    0.000000000000000  \
	   0.000000000000000   15.809101000000000    0.000000000000000  \
	   0.000000000000000    0.000000000000000   67.072337000000005 
lattice-minimize  \
	dirUpdateScheme      L-BFGS \
	linminMethod         DirUpdateRecommended \
	nIterations          0 \
	history              15 \
	knormThreshold       0 \
	energyDiffThreshold  1e-06 \
	nEnergyDiff          2 \
	alphaTstart          1 \
	alphaTmin            1e-10 \
	updateTestStepSize   yes \
	alphaTreduceFactor   0.1 \
	alphaTincreaseFactor 3 \
	nAlphaAdjustMax      3 \
	wolfeEnergy          0.0001 \
	wolfeGradient        0.9 \
	fdTest               no
lcao-params 30 1e-06 0.001
pcm-variant CANDLE
spintype z-spin
subspace-rotation-factor 1 yes
symmetries automatic
symmetry-threshold 0.0001
van-der-waals D3



---------- Setting up symmetries ----------

Found 8 point-group symmetries of the bravais lattice
Found 1 space-group symmetries with basis
Applied RMS atom displacement 0 bohrs to make symmetries exact.

---------- Initializing the Grid ----------
R = 
[      9.53325     -4.76662            0  ]
[            0      15.8091            0  ]
[            0            0      67.0723  ]
unit cell volume = 10108.6
G =
[   0.659081   0.198721         -0  ]
[          0   0.397441          0  ]
[          0         -0  0.0936777  ]
Minimum fftbox size, Smin = [  40  68  272  ]
Chosen fftbox size, S = [  40  70  280  ]

---------- Exchange Correlation functional ----------
Initalized PBE GGA exchange.
Initalized PBE GGA correlation.

---------- Setting up pseudopotentials ----------
Width of ionic core gaussian charges (only for fluid interactions / plotting) set to 0.397384

Reading pseudopotential file '/projects/musgravc/apps/jdftx-1.6.0/build/pseudopotentials/GBRV_v1.5/cu_pbe_v1.2.uspp':
  Title: Cu.  Created by USPP 7.3.6 on 3-2-2014
  Reference state energy: -201.059491.  19 valence electrons in orbitals:
    |300>  occupation: 2  eigenvalue: -5.020764
    |310>  occupation: 6  eigenvalue: -3.445588
    |320>  occupation: 8  eigenvalue: -0.925168
    |400>  occupation: 2  eigenvalue: -0.567638
    |410>  occupation: 0  eigenvalue: -0.326154
  lMax: 2  lLocal: 3  QijEcut: 6
  6 projectors sampled on a log grid with 613 points:
    l: 0  eig: -5.020767  rCut: 1.4
    l: 0  eig: -0.567640  rCut: 1.4
    l: 1  eig: -3.445589  rCut: 1.55
    l: 1  eig: -0.326157  rCut: 1.55
    l: 2  eig: -0.925170  rCut: 1.5
    l: 2  eig: 1.500000  rCut: 1.5
  Partial core density with radius 0.8
  Transforming core density to a uniform radial grid of dG=0.02 with 1295 points.
  Transforming local potential to a uniform radial grid of dG=0.02 with 1295 points.
  Transforming nonlocal projectors to a uniform radial grid of dG=0.02 with 432 points.
  Transforming density augmentations to a uniform radial grid of dG=0.02 with 1295 points.
  Transforming atomic orbitals to a uniform radial grid of dG=0.02 with 432 points.
  Core radius for overlap checks: 1.55 bohrs.

Reading pseudopotential file '/projects/musgravc/apps/jdftx-1.6.0/build/pseudopotentials/GBRV_v1.5/c_pbe_v1.2.uspp':
  Title: C.  Created by USPP 7.3.6 on 3-2-2014
  Reference state energy: -5.406344.  4 valence electrons in orbitals:
    |200>  occupation: 2  eigenvalue: -0.504890
    |210>  occupation: 2  eigenvalue: -0.194356
  lMax: 1  lLocal: 2  QijEcut: 5
  4 projectors sampled on a log grid with 503 points:
    l: 0  eig: -0.504890  rCut: 1.3
    l: 0  eig: 0.000000  rCut: 1.3
    l: 1  eig: -0.194357  rCut: 1.3
    l: 1  eig: 0.000000  rCut: 1.3
  Partial core density with radius 1.1
  Transforming core density to a uniform radial grid of dG=0.02 with 1295 points.
  Transforming local potential to a uniform radial grid of dG=0.02 with 1295 points.
  Transforming nonlocal projectors to a uniform radial grid of dG=0.02 with 432 points.
  Transforming density augmentations to a uniform radial grid of dG=0.02 with 1295 points.
  Transforming atomic orbitals to a uniform radial grid of dG=0.02 with 432 points.
  Core radius for overlap checks: 1.30 bohrs.

Reading pseudopotential file '/projects/musgravc/apps/jdftx-1.6.0/build/pseudopotentials/GBRV_v1.5/o_pbe_v1.2.uspp':
  Title: O.  Created by USPP 7.3.6 on 3-2-2014
  Reference state energy: -15.894388.  6 valence electrons in orbitals:
    |200>  occupation: 2  eigenvalue: -0.878823
    |210>  occupation: 4  eigenvalue: -0.332131
  lMax: 2  lLocal: 2  QijEcut: 6
  5 projectors sampled on a log grid with 511 points:
    l: 0  eig: -0.878823  rCut: 1.25
    l: 0  eig: 0.000000  rCut: 1.25
    l: 1  eig: -0.332132  rCut: 1.25
    l: 1  eig: 0.000000  rCut: 1.25
    l: 2  eig: 1.000000  rCut: 1.25
  Partial core density with radius 0.7
  Transforming core density to a uniform radial grid of dG=0.02 with 1295 points.
  Transforming local potential to a uniform radial grid of dG=0.02 with 1295 points.
  Transforming nonlocal projectors to a uniform radial grid of dG=0.02 with 432 points.
  Transforming density augmentations to a uniform radial grid of dG=0.02 with 1295 points.
  Transforming atomic orbitals to a uniform radial grid of dG=0.02 with 432 points.
  Core radius for overlap checks: 1.25 bohrs.

Initialized 3 species with 46 total atoms.

Folded 1 k-points by 6x3x1 to 18 k-points.

---------- Setting up k-points, bands, fillings ----------
Adding inversion symmetry to k-mesh for non-inversion-symmetric unit cell.
Reduced to 10 k-points under symmetry. 
Computing the number of bands and number of electrons
Calculating initial fillings.
nElectrons: 846.000000   nBands: 508   nStates: 20

----- Setting up reduced wavefunction bases (one per k-point) -----
average nbasis = 43189.722 , ideal nbasis = 43184.745

----- Initializing Supercell corresponding to k-point mesh -----
Lattice vector linear combinations in supercell:
[   6   0   0  ]
[   0   3   0  ]
[   0   0   1  ]
Supercell lattice vectors:
[  57.1995  -14.2999  0  ]
[  0  47.4273  0  ]
[  0  0  67.0723  ]

Initializing DFT-D3 calculator:
	Parameters set for gga-PBE functional
	s6:  1.000  s_r6:  1.217
	s8:  0.722  s_r8:  1.000
	Per-atom parameters loaded for:
	Cu:  sqrtQ[a0]:  5.226  Rcov[a0]:  1.909  CN: [ 0.00 0.96 ]
	 C:  sqrtQ[a0]:  3.105  Rcov[a0]:  1.417  CN: [ 0.00 0.99 2.00 3.00 3.98 ]
	 O:  sqrtQ[a0]:  2.594  Rcov[a0]:  1.191  CN: [ 0.00 0.99 1.99 ]

Initializing DFT-D2 calculator for fluid / solvation:
	Cu:  C6:  187.33 Eh-a0^6  R0: 2.952 a0
	 C:  C6:   30.35 Eh-a0^6  R0: 2.744 a0
	 O:  C6:   12.14 Eh-a0^6  R0: 2.536 a0

---------- Setting up ewald sum ----------
Optimum gaussian width for ewald sums = 4.557019 bohr.
Real space sum over 585 unit cells with max indices [  6  4  2  ]
Reciprocal space sum over 8085 terms with max indices [  5  7  24  ]

Computing DFT-D3 correction:
# coordination-number Cu 5.606 6.498 5.642 6.501 5.604 5.604 5.604 5.604 7.547 7.547 7.547 7.547 9.114 9.114 9.114 9.114 8.978 8.978 8.978 8.978 9.124 9.124 9.124 9.124 9.116 9.116 9.116 9.116 9.122 9.122 9.122 9.122 8.977 8.977 8.977 8.977 9.115 9.111 9.111 9.111 7.546 8.511 7.546 7.574
# coordination-number C 3.780
# coordination-number O 1.078
# diagonal-C6 Cu 175.00 175.00 175.00 175.00 175.00 175.00 175.00 175.00 175.00 175.00 175.00 175.00 175.00 175.00 175.00 175.00 175.00 175.00 175.00 175.00 175.00 175.00 175.00 175.00 175.00 175.00 175.00 175.00 175.00 175.00 175.00 175.00 175.00 175.00 175.00 175.00 175.00 175.00 175.00 175.00 175.00 175.00 175.00 175.00
# diagonal-C6 C 18.84
# diagonal-C6 O 12.75
EvdW_6 =   -0.270967
EvdW_8 =   -0.400230

---------- Allocating electronic variables ----------
Initializing wave functions:  linear combination of atomic orbitals
Cu pseudo-atom occupations:   s ( 2 1 )  p ( 6 0 )  d ( 10 )
C pseudo-atom occupations:   s ( 2 )  p ( 2 )
O pseudo-atom occupations:   s ( 2 )  p ( 4 )
	FillingsUpdate:  mu: -3.654191702  nElectrons: 846.000000  magneticMoment: [ Abs: 0.37291  Tot: -0.00594 ]
LCAOMinimize: Iter:   0  F: -8677.3823737212842389  |grad|_K:  4.525e-02  alpha:  1.000e+00
LCAOMinimize: 	Step increased F by 2.891411e+03, reducing alpha to 3.779780e-02.
LCAOMinimize: 	Step increased F by 3.599449e+02, reducing alpha to 3.779780e-03.
	FillingsUpdate:  mu: -2.975744366  nElectrons: 846.000000  magneticMoment: [ Abs: 0.37571  Tot: -0.00395 ]
LCAOMinimize: Iter:   1  F: -8714.0585176441873045  |grad|_K:  2.473e-02  alpha:  3.780e-03  linmin: -1.113e-01  cgtest:  5.538e-01  t[s]:    288.28
LCAOMinimize: Encountered beta<0, resetting CG.
	FillingsUpdate:  mu: -2.307939353  nElectrons: 846.000000  magneticMoment: [ Abs: 0.37930  Tot: -0.00874 ]
LCAOMinimize: Iter:   2  F: -8728.0693557068407245  |grad|_K:  2.056e-02  alpha:  6.829e-03  linmin: -7.210e-03  cgtest: -4.044e-02  t[s]:    358.32
	FillingsUpdate:  mu: -1.390057246  nElectrons: 846.000000  magneticMoment: [ Abs: 0.39955  Tot: -0.01847 ]
LCAOMinimize: Iter:   3  F: -8743.4013069416305370  |grad|_K:  2.272e-02  alpha:  1.010e-02  linmin:  6.227e-05  cgtest: -1.261e-01  t[s]:    427.69
LCAOMinimize: 	Wrong curvature in test step, increasing alphaT to 3.030197e-02.
	FillingsUpdate:  mu: -0.345997740  nElectrons: 846.000000  magneticMoment: [ Abs: 0.16470  Tot: +0.02487 ]
LCAOMinimize: Iter:   4  F: -8778.9818634612092865  |grad|_K:  2.430e-02  alpha: -4.133e-01  linmin: -3.915e-02  cgtest:  9.751e-01  t[s]:    492.64
LCAOMinimize: 	Step increased F by 8.451241e+02, reducing alpha to 4.283796e-02.
LCAOMinimize: 	Step increased F by 2.381842e+02, reducing alpha to 4.283796e-03.
	FillingsUpdate:  mu: -0.950485228  nElectrons: 846.000000  magneticMoment: [ Abs: 0.12685  Tot: +0.00977 ]
LCAOMinimize: Iter:   5  F: -8792.6931247753254866  |grad|_K:  1.609e-02  alpha:  4.284e-03  linmin: -1.006e-01  cgtest:  4.356e-01  t[s]:    664.51
LCAOMinimize: 	Predicted alpha/alphaT>3.000000, increasing alphaT to 1.285139e-02.
	FillingsUpdate:  mu: -1.572119343  nElectrons: 846.000000  magneticMoment: [ Abs: 0.08187  Tot: +0.00354 ]
LCAOMinimize: Iter:   6  F: -8803.4915010345976043  |grad|_K:  2.013e-02  alpha:  1.058e-02  linmin:  4.935e-03  cgtest: -5.134e-02  t[s]:    752.10
	FillingsUpdate:  mu: -2.003181591  nElectrons: 846.000000  magneticMoment: [ Abs: 0.04239  Tot: -0.00005 ]
LCAOMinimize: Iter:   7  F: -8815.3378729316973477  |grad|_K:  2.326e-02  alpha:  9.815e-03  linmin: -1.545e-02  cgtest:  2.099e-01  t[s]:    821.41
	FillingsUpdate:  mu: -0.809450456  nElectrons: 846.000000  magneticMoment: [ Abs: 0.02337  Tot: +0.00179 ]
LCAOMinimize: Iter:   8  F: -8836.7282451433038659  |grad|_K:  2.861e-02  alpha:  9.513e-03  linmin: -5.281e-03  cgtest: -2.458e-01  t[s]:    890.96
	FillingsUpdate:  mu: +0.997981080  nElectrons: 846.000000  magneticMoment: [ Abs: 0.01289  Tot: +0.00250 ]
LCAOMinimize: Iter:   9  F: -8863.7707207516050403  |grad|_K:  2.229e-02  alpha:  8.107e-03  linmin:  1.436e-03  cgtest: -4.556e-01  t[s]:    960.46
	FillingsUpdate:  mu: +1.142683190  nElectrons: 846.000000  magneticMoment: [ Abs: 0.01141  Tot: +0.00246 ]
LCAOMinimize: Iter:  10  F: -8871.8517428869872674  |grad|_K:  1.647e-02  alpha:  3.135e-03  linmin: -1.557e-02  cgtest:  9.504e-01  t[s]:   1029.77
LCAOMinimize: Encountered beta<0, resetting CG.
	FillingsUpdate:  mu: +0.693376279  nElectrons: 846.000000  magneticMoment: [ Abs: 0.00970  Tot: +0.00121 ]
LCAOMinimize: Iter:  11  F: -8878.9773332284421485  |grad|_K:  1.226e-02  alpha:  6.830e-03  linmin: -3.852e-02  cgtest:  1.064e-01  t[s]:   1099.15
	FillingsUpdate:  mu: +0.133580408  nElectrons: 846.000000  magneticMoment: [ Abs: 0.00919  Tot: +0.00045 ]
LCAOMinimize: Iter:  12  F: -8884.0661865300644422  |grad|_K:  4.780e-03  alpha:  7.987e-03  linmin: -4.746e-02  cgtest:  1.061e-01  t[s]:   1168.51
LCAOMinimize: 	Predicted alpha/alphaT>3.000000, increasing alphaT to 2.395978e-02.
	FillingsUpdate:  mu: +0.203123408  nElectrons: 846.000000  magneticMoment: [ Abs: 0.00897  Tot: +0.00037 ]
LCAOMinimize: Iter:  13  F: -8887.0619286791607010  |grad|_K:  5.257e-03  alpha:  3.444e-02  linmin: -9.385e-03  cgtest:  1.389e-01  t[s]:   1257.13
	FillingsUpdate:  mu: +0.342425887  nElectrons: 846.000000  magneticMoment: [ Abs: 0.00915  Tot: +0.00066 ]
LCAOMinimize: Iter:  14  F: -8888.6474298147295485  |grad|_K:  4.807e-03  alpha:  1.353e-02  linmin: -1.263e-02  cgtest:  8.745e-02  t[s]:   1326.63
	FillingsUpdate:  mu: +0.618025119  nElectrons: 846.000000  magneticMoment: [ Abs: 0.00844  Tot: +0.00040 ]
LCAOMinimize: Iter:  15  F: -8890.5644807741500699  |grad|_K:  7.443e-03  alpha:  2.361e-02  linmin:  8.513e-03  cgtest: -1.337e-01  t[s]:   1396.03
	FillingsUpdate:  mu: +0.629871081  nElectrons: 846.000000  magneticMoment: [ Abs: 0.00738  Tot: -0.00049 ]
LCAOMinimize: Iter:  16  F: -8892.6711072703328682  |grad|_K:  1.047e-02  alpha:  1.536e-02  linmin:  4.814e-04  cgtest:  7.377e-01  t[s]:   1465.17
	FillingsUpdate:  mu: +0.495642921  nElectrons: 846.000000  magneticMoment: [ Abs: 0.00645  Tot: +0.00013 ]
LCAOMinimize: Iter:  17  F: -8894.8978097096096462  |grad|_K:  4.317e-03  alpha:  8.347e-03  linmin:  3.417e-03  cgtest:  1.929e-01  t[s]:   1535.43
	FillingsUpdate:  mu: +0.224472744  nElectrons: 846.000000  magneticMoment: [ Abs: 0.00625  Tot: +0.00007 ]
LCAOMinimize: Iter:  18  F: -8895.7853654800401273  |grad|_K:  1.675e-03  alpha:  1.393e-02  linmin: -1.969e-02  cgtest:  6.328e-02  t[s]:   1604.74
	FillingsUpdate:  mu: +0.169307974  nElectrons: 846.000000  magneticMoment: [ Abs: 0.00621  Tot: +0.00015 ]
LCAOMinimize: Iter:  19  F: -8896.0192795915281749  |grad|_K:  9.209e-04  alpha:  2.162e-02  linmin: -6.427e-02  cgtest:  1.935e-01  t[s]:   1674.04
	FillingsUpdate:  mu: +0.224309526  nElectrons: 846.000000  magneticMoment: [ Abs: 0.00621  Tot: +0.00019 ]
LCAOMinimize: Iter:  20  F: -8896.1133166733634425  |grad|_K:  1.038e-03  alpha:  2.919e-02  linmin:  2.159e-03  cgtest: -1.806e-01  t[s]:   1743.47
	FillingsUpdate:  mu: +0.227134238  nElectrons: 846.000000  magneticMoment: [ Abs: 0.00621  Tot: +0.00034 ]
LCAOMinimize: Iter:  21  F: -8896.1994964388723020  |grad|_K:  7.892e-04  alpha:  2.384e-02  linmin:  2.641e-03  cgtest:  3.544e-01  t[s]:   1813.36
	FillingsUpdate:  mu: +0.193153823  nElectrons: 846.000000  magneticMoment: [ Abs: 0.00613  Tot: +0.00035 ]
LCAOMinimize: Iter:  22  F: -8896.2737369768528879  |grad|_K:  5.822e-04  alpha:  3.496e-02  linmin: -8.484e-03  cgtest:  3.181e-04  t[s]:   1882.86
	FillingsUpdate:  mu: +0.187100563  nElectrons: 846.000000  magneticMoment: [ Abs: 0.00610  Tot: +0.00037 ]
LCAOMinimize: Iter:  23  F: -8896.2985889480096375  |grad|_K:  5.517e-04  alpha:  2.056e-02  linmin: -4.340e-05  cgtest: -6.422e-02  t[s]:   1952.40
	FillingsUpdate:  mu: +0.168749008  nElectrons: 846.000000  magneticMoment: [ Abs: 0.00612  Tot: +0.00050 ]
LCAOMinimize: Iter:  24  F: -8896.3325483915486984  |grad|_K:  3.016e-04  alpha:  3.306e-02  linmin:  3.622e-04  cgtest:  2.599e-01  t[s]:   2021.63
	FillingsUpdate:  mu: +0.167259869  nElectrons: 846.000000  magneticMoment: [ Abs: 0.00612  Tot: +0.00050 ]
LCAOMinimize: Iter:  25  F: -8896.3394285158319690  |grad|_K:  3.102e-04  alpha:  2.248e-02  linmin: -2.216e-05  cgtest: -9.878e-04  t[s]:   2091.14
	FillingsUpdate:  mu: +0.140092209  nElectrons: 846.000000  magneticMoment: [ Abs: 0.00612  Tot: +0.00049 ]
LCAOMinimize: Iter:  26  F: -8896.3477776854451804  |grad|_K:  1.729e-04  alpha:  2.569e-02  linmin: -5.438e-04  cgtest: -3.675e-03  t[s]:   2160.65
	FillingsUpdate:  mu: +0.144268041  nElectrons: 846.000000  magneticMoment: [ Abs: 0.00613  Tot: +0.00054 ]
LCAOMinimize: Iter:  27  F: -8896.3522059910283133  |grad|_K:  1.536e-04  alpha:  4.415e-02  linmin:  2.599e-03  cgtest: -1.766e-02  t[s]:   2229.86
	FillingsUpdate:  mu: +0.142215308  nElectrons: 846.000000  magneticMoment: [ Abs: 0.00613  Tot: +0.00054 ]
LCAOMinimize: Iter:  28  F: -8896.3539330795592832  |grad|_K:  1.543e-04  alpha:  2.213e-02  linmin: -4.111e-05  cgtest:  2.954e-02  t[s]:   2299.14
	FillingsUpdate:  mu: +0.131434162  nElectrons: 846.000000  magneticMoment: [ Abs: 0.00611  Tot: +0.00052 ]
LCAOMinimize: Iter:  29  F: -8896.3561878293057816  |grad|_K:  5.907e-05  alpha:  2.797e-02  linmin: -1.831e-03  cgtest: -4.147e-02  t[s]:   2368.37
	FillingsUpdate:  mu: +0.135629332  nElectrons: 846.000000  magneticMoment: [ Abs: 0.00608  Tot: +0.00051 ]
LCAOMinimize: Iter:  30  F: -8896.3569987540413422  |grad|_K:  8.841e-05  alpha:  6.820e-02  linmin: -2.162e-04  cgtest: -4.463e-03  t[s]:   2438.65
LCAOMinimize: None of the convergence criteria satisfied after 30 iterations.
----- createFluidSolver() ----- (Fluid-side solver setup)
   Initializing fluid molecule 'H2O'
     Initializing site 'O'
       Electron density: proportional to exp(-r/0.36935)*erfc((r-0.51523)/0.36823) with norm 6.826
       Charge density: gaussian nuclear width 0.478731 with net site charge 0.826
       Polarizability: cuspless exponential with width 0.32 and norm 3.73
       Hard sphere radius: 2.57003 bohrs
       Positions in reference frame:
         [ +0.000000 +0.000000 +0.000000 ]
     Initializing site 'H'
       Electron density: proportional to exp(-r/0.34641)*erfc((r-0)/0.390882) with norm 0.587
       Charge density: gaussian nuclear width 0.377945 with net site charge -0.413
       Polarizability: cuspless exponential with width 0.39 and norm 3.3
       Positions in reference frame:
         [ +0.000000 -1.441945 +1.122523 ]
         [ +0.000000 +1.441945 +1.122523 ]
     Net charge: 0   dipole magnitude: 0.927204
     Initializing spherical shell mfKernel with radius 2.61727 Bohr
     deltaS corrections:
       site 'O': -7.54299
       site 'H': -6.83917
   Initializing fluid molecule 'Na+'
     Initializing site 'Na'
       Electron density: proportional to exp(-r/0.19682)*erfc((r-0.71491)/0.41314) with norm 8.1383
       Charge density: gaussian nuclear width 0.365347 with net site charge -1
       Hard sphere radius: 1.86327 bohrs
       Positions in reference frame:
         [ +0.000000 +0.000000 +0.000000 ]
     Net charge: -1   dipole magnitude: 0
     Initializing gaussian mfKernel with width: 1.55004 Bohr
     deltaS corrections:
       site 'Na': -22.3555
   Initializing fluid molecule 'F-'
     Initializing site 'F'
       Electron density: proportional to exp(-r/0.38886)*erfc((r-0)/0.438782) with norm 8
       Charge density: gaussian nuclear width 0.374796 with net site charge 1
       Hard sphere radius: 2.39995 bohrs
       Positions in reference frame:
         [ +0.000000 +0.000000 +0.000000 ]
     Net charge: 1   dipole magnitude: 0
     Initializing gaussian mfKernel with width: 1.59012 Bohr
     deltaS corrections:
       site 'F': -9.04335

Correction to mu due to finite nuclear width = -0.0830383
   Cavity determined by nc: 0.00142 and sigma: 0.707107
   Nonlocal vdW cavity from gaussian model electron density with norm = 8 and sigma = 0.993594 bohr
   Charge asymmetry in cavity with sensitivity pCavity = 36.5 e-bohr/Eh
   Electrostatic cavity expanded by eta = 1.46 bohrs
   Weighted density cavitation model constrained by Nbulk: 0.0049383 bohr^-3, Pvap: 3.14029 kPa, Rvdw: 2.61727 bohr and sigmaBulk: 4.62e-05 Eh/bohr^2 at T: 298 K.
   Weighted density dispersion model using vdW pair potentials with single solvent site with sqrtC6eff: 0.77 SI.


---- Citations for features of the code used in this run ----

   Software package:
      R. Sundararaman, K. Letchworth-Weaver, K.A. Schwarz, D. Gunceler, Y. Ozhabes and T.A. Arias, 'JDFTx: software for joint density-functional theory', SoftwareX 6, 278 (2017)

   gga-PBE exchange-correlation functional:
      J.P. Perdew, K. Burke and M. Ernzerhof, Phys. Rev. Lett. 77, 3865 (1996)

   Pseudopotentials:
      KF Garrity, JW Bennett, KM Rabe and D Vanderbilt, Comput. Mater. Sci. 81, 446 (2014)

   DFT-D3 dispersion correction:
      S. Grimme, J. Antony, S. Ehrlich and H. Krieg, J. Chem. Phys. 132, 154104 (2010)

   DFT-D2 dispersion correction:
      S. Grimme, J. Comput. Chem. 27, 1787 (2006)

   Charge-asymmetric nonlocally-determined local-electric (CANDLE) solvation model:
      R. Sundararaman and W.A. Goddard III, J. Chem. Phys. 142, 064107 (2015)

   Total energy minimization with Auxiliary Hamiltonian:
      C. Freysoldt, S. Boeck, and J. Neugebauer, Phys. Rev. B 79, 241103(R) (2009)

   Linear-tetrahedron sampling for density of states:
      G. Lehmann and M. Taut, Phys. status solidi (b) 54, 469 (1972)

This list may not be complete. Please suggest additional citations or
report any other bugs at https://github.com/shankar1729/jdftx/issues

Initialization completed successfully at t[s]:   2463.56


Computing DFT-D3 correction:
# coordination-number Cu 5.606 6.498 5.642 6.501 5.604 5.604 5.604 5.604 7.547 7.547 7.547 7.547 9.114 9.114 9.114 9.114 8.978 8.978 8.978 8.978 9.124 9.124 9.124 9.124 9.116 9.116 9.116 9.116 9.122 9.122 9.122 9.122 8.977 8.977 8.977 8.977 9.115 9.111 9.111 9.111 7.546 8.511 7.546 7.574
# coordination-number C 3.780
# coordination-number O 1.078
# diagonal-C6 Cu 175.00 175.00 175.00 175.00 175.00 175.00 175.00 175.00 175.00 175.00 175.00 175.00 175.00 175.00 175.00 175.00 175.00 175.00 175.00 175.00 175.00 175.00 175.00 175.00 175.00 175.00 175.00 175.00 175.00 175.00 175.00 175.00 175.00 175.00 175.00 175.00 175.00 175.00 175.00 175.00 175.00 175.00 175.00 175.00
# diagonal-C6 C 18.84
# diagonal-C6 O 12.75
EvdW_6 =   -0.270967
EvdW_8 =   -0.400230
Fluid solver invoked on fresh (random / LCAO) wavefunctions
Running a vacuum solve first:

-------- Initial electronic minimization -----------
	FillingsUpdate:  mu: +0.135629882  nElectrons: 846.000000  magneticMoment: [ Abs: 0.00608  Tot: +0.00051 ]
ElecMinimize: Iter:   0  F: -8896.356998754074084  |grad|_K:  2.600e-04  alpha:  1.000e+00
	FillingsUpdate:  mu: +0.023714585  nElectrons: 846.000000  magneticMoment: [ Abs: 0.00576  Tot: +0.00051 ]
	SubspaceRotationAdjust: set factor to 0.792
ElecMinimize: Iter:   1  F: -8899.224076273911123  |grad|_K:  1.521e-04  alpha:  9.999e-02  linmin:  1.941e-04  t[s]:   2668.47
	FillingsUpdate:  mu: +0.225357809  nElectrons: 846.000000  magneticMoment: [ Abs: 0.00544  Tot: +0.00051 ]
	SubspaceRotationAdjust: set factor to 0.466
ElecMinimize: Iter:   2  F: -8899.553028081763841  |grad|_K:  2.332e-04  alpha:  3.800e-02  linmin:  5.588e-05  t[s]:   2802.34
	FillingsUpdate:  mu: +0.350180096  nElectrons: 846.000000  magneticMoment: [ Abs: 0.00346  Tot: +0.00001 ]
	SubspaceRotationAdjust: set factor to 0.457
ElecMinimize: Iter:   3  F: -8902.002381443477134  |grad|_K:  1.089e-04  alpha:  1.019e-01  linmin: -1.007e-04  t[s]:   2936.32
	FillingsUpdate:  mu: +0.321485204  nElectrons: 846.000000  magneticMoment: [ Abs: 0.00300  Tot: +0.00004 ]
	SubspaceRotationAdjust: set factor to 0.294
ElecMinimize: Iter:   4  F: -8902.525497565708065  |grad|_K:  9.935e-05  alpha:  9.141e-02  linmin: -7.816e-05  t[s]:   3070.60
	FillingsUpdate:  mu: +0.158563308  nElectrons: 846.000000  magneticMoment: [ Abs: 0.00274  Tot: +0.00005 ]
	SubspaceRotationAdjust: set factor to 0.193
ElecMinimize: Iter:   5  F: -8902.823875408417734  |grad|_K:  5.628e-05  alpha:  6.628e-02  linmin: -3.752e-06  t[s]:   3204.61
	FillingsUpdate:  mu: +0.137719081  nElectrons: 846.000000  magneticMoment: [ Abs: 0.00231  Tot: +0.00006 ]
	SubspaceRotationAdjust: set factor to 0.271
ElecMinimize: Iter:   6  F: -8903.058486935728070  |grad|_K:  4.089e-05  alpha:  1.657e-01  linmin: -1.792e-05  t[s]:   3338.95
	FillingsUpdate:  mu: +0.116109613  nElectrons: 846.000000  magneticMoment: [ Abs: 0.00201  Tot: +0.00007 ]
	SubspaceRotationAdjust: set factor to 0.219
ElecMinimize: Iter:   7  F: -8903.152956575735516  |grad|_K:  2.296e-05  alpha:  1.263e-01  linmin: -3.507e-06  t[s]:   3473.10
	FillingsUpdate:  mu: +0.119324491  nElectrons: 846.000000  magneticMoment: [ Abs: 0.00171  Tot: +0.00007 ]
	SubspaceRotationAdjust: set factor to 0.186
ElecMinimize: Iter:   8  F: -8903.188296243886725  |grad|_K:  1.856e-05  alpha:  1.515e-01  linmin: -6.174e-08  t[s]:   3607.98
	FillingsUpdate:  mu: +0.118097669  nElectrons: 846.000000  magneticMoment: [ Abs: 0.00145  Tot: +0.00007 ]
	SubspaceRotationAdjust: set factor to 0.212
ElecMinimize: Iter:   9  F: -8903.213897189469208  |grad|_K:  1.327e-05  alpha:  1.684e-01  linmin: -2.463e-06  t[s]:   3742.35
	FillingsUpdate:  mu: +0.106976329  nElectrons: 846.000000  magneticMoment: [ Abs: 0.00130  Tot: +0.00007 ]
	SubspaceRotationAdjust: set factor to 0.233
ElecMinimize: Iter:  10  F: -8903.227400620828121  |grad|_K:  1.051e-05  alpha:  1.735e-01  linmin: -1.906e-07  t[s]:   3876.59
	FillingsUpdate:  mu: +0.101227980  nElectrons: 846.000000  magneticMoment: [ Abs: 0.00120  Tot: +0.00006 ]
	SubspaceRotationAdjust: set factor to 0.25
ElecMinimize: Iter:  11  F: -8903.235786483537595  |grad|_K:  8.032e-06  alpha:  1.718e-01  linmin:  1.887e-07  t[s]:   4010.59
	FillingsUpdate:  mu: +0.101724253  nElectrons: 846.000000  magneticMoment: [ Abs: 0.00111  Tot: +0.00006 ]
	SubspaceRotationAdjust: set factor to 0.275
ElecMinimize: Iter:  12  F: -8903.240458064359700  |grad|_K:  7.134e-06  alpha:  1.641e-01  linmin: -4.734e-07  t[s]:   4144.86
	FillingsUpdate:  mu: +0.104362393  nElectrons: 846.000000  magneticMoment: [ Abs: 0.00099  Tot: +0.00006 ]
	SubspaceRotationAdjust: set factor to 0.305
ElecMinimize: Iter:  13  F: -8903.245494942488222  |grad|_K:  6.314e-06  alpha:  2.240e-01  linmin: -3.250e-08  t[s]:   4279.53
	FillingsUpdate:  mu: +0.104408155  nElectrons: 846.000000  magneticMoment: [ Abs: 0.00092  Tot: +0.00005 ]
	SubspaceRotationAdjust: set factor to 0.344
ElecMinimize: Iter:  14  F: -8903.248581798252417  |grad|_K:  5.830e-06  alpha:  1.754e-01  linmin:  8.413e-08  t[s]:   4413.77
	FillingsUpdate:  mu: +0.099785664  nElectrons: 846.000000  magneticMoment: [ Abs: 0.00082  Tot: +0.00004 ]
	SubspaceRotationAdjust: set factor to 0.382
ElecMinimize: Iter:  15  F: -8903.252025641753789  |grad|_K:  5.165e-06  alpha:  2.297e-01  linmin:  4.650e-07  t[s]:   4548.04
	FillingsUpdate:  mu: +0.098492939  nElectrons: 846.000000  magneticMoment: [ Abs: 0.00076  Tot: +0.00003 ]
	SubspaceRotationAdjust: set factor to 0.417
ElecMinimize: Iter:  16  F: -8903.253795735046879  |grad|_K:  4.026e-06  alpha:  1.505e-01  linmin:  1.859e-10  t[s]:   4682.60
	FillingsUpdate:  mu: +0.100327770  nElectrons: 846.000000  magneticMoment: [ Abs: 0.00068  Tot: +0.00003 ]
	SubspaceRotationAdjust: set factor to 0.357
ElecMinimize: Iter:  17  F: -8903.254963848945408  |grad|_K:  4.096e-06  alpha:  1.632e-01  linmin: -3.217e-07  t[s]:   4816.88
	FillingsUpdate:  mu: +0.100958796  nElectrons: 846.000000  magneticMoment: [ Abs: 0.00060  Tot: +0.00002 ]
	SubspaceRotationAdjust: set factor to 0.247
ElecMinimize: Iter:  18  F: -8903.255735444578022  |grad|_K:  3.126e-06  alpha:  1.042e-01  linmin:  3.485e-08  t[s]:   4951.33
	FillingsUpdate:  mu: +0.099481590  nElectrons: 846.000000  magneticMoment: [ Abs: 0.00051  Tot: +0.00002 ]
	SubspaceRotationAdjust: set factor to 0.249
ElecMinimize: Iter:  19  F: -8903.256315239674223  |grad|_K:  2.290e-06  alpha:  1.344e-01  linmin: -1.764e-07  t[s]:   5085.40
	FillingsUpdate:  mu: +0.098904680  nElectrons: 846.000000  magneticMoment: [ Abs: 0.00042  Tot: +0.00002 ]
	SubspaceRotationAdjust: set factor to 0.27
ElecMinimize: Iter:  20  F: -8903.256686679198538  |grad|_K:  1.785e-06  alpha:  1.605e-01  linmin:  2.991e-07  t[s]:   5219.92
	FillingsUpdate:  mu: +0.099710415  nElectrons: 846.000000  magneticMoment: [ Abs: 0.00034  Tot: +0.00001 ]
	SubspaceRotationAdjust: set factor to 0.237
ElecMinimize: Iter:  21  F: -8903.256921454169060  |grad|_K:  1.577e-06  alpha:  1.671e-01  linmin: -1.393e-07  t[s]:   5354.86
	FillingsUpdate:  mu: +0.100407618  nElectrons: 846.000000  magneticMoment: [ Abs: 0.00027  Tot: +0.00001 ]
	SubspaceRotationAdjust: set factor to 0.244
ElecMinimize: Iter:  22  F: -8903.257076200372467  |grad|_K:  1.031e-06  alpha:  1.410e-01  linmin: -1.476e-07  t[s]:   5490.86
	FillingsUpdate:  mu: +0.100462432  nElectrons: 846.000000  magneticMoment: [ Abs: 0.00022  Tot: +0.00001 ]
	SubspaceRotationAdjust: set factor to 0.277
ElecMinimize: Iter:  23  F: -8903.257149218210543  |grad|_K:  8.747e-07  alpha:  1.557e-01  linmin: -3.834e-08  t[s]:   5625.62
	FillingsUpdate:  mu: +0.100139272  nElectrons: 846.000000  magneticMoment: [ Abs: 0.00017  Tot: +0.00001 ]
	SubspaceRotationAdjust: set factor to 0.283
ElecMinimize: Iter:  24  F: -8903.257211286781967  |grad|_K:  7.425e-07  alpha:  1.838e-01  linmin: -1.891e-07  t[s]:   5760.62
	FillingsUpdate:  mu: +0.099997743  nElectrons: 846.000000  magneticMoment: [ Abs: 0.00013  Tot: +0.00001 ]
	SubspaceRotationAdjust: set factor to 0.298
ElecMinimize: Iter:  25  F: -8903.257245177661389  |grad|_K:  5.711e-07  alpha:  1.392e-01  linmin: -4.968e-08  t[s]:   5895.30
	FillingsUpdate:  mu: +0.100369201  nElectrons: 846.000000  magneticMoment: [ Abs: 0.00010  Tot: +0.00001 ]
	SubspaceRotationAdjust: set factor to 0.337
ElecMinimize: Iter:  26  F: -8903.257271377840880  |grad|_K:  4.937e-07  alpha:  1.820e-01  linmin:  1.832e-07  t[s]:   6030.03
	FillingsUpdate:  mu: +0.100710717  nElectrons: 846.000000  magneticMoment: [ Abs: 0.00008  Tot: +0.00001 ]
	SubspaceRotationAdjust: set factor to 0.385
ElecMinimize: Iter:  27  F: -8903.257287109474419  |grad|_K:  3.829e-07  alpha:  1.462e-01  linmin:  6.513e-08  t[s]:   6164.28
	FillingsUpdate:  mu: +0.100675369  nElectrons: 846.000000  magneticMoment: [ Abs: 0.00007  Tot: +0.00001 ]
	SubspaceRotationAdjust: set factor to 0.443
ElecMinimize: Iter:  28  F: -8903.257300019013201  |grad|_K:  3.716e-07  alpha:  1.995e-01  linmin:  1.165e-07  t[s]:   6298.68
	FillingsUpdate:  mu: +0.100554223  nElectrons: 846.000000  magneticMoment: [ Abs: 0.00006  Tot: +0.00000 ]
	SubspaceRotationAdjust: set factor to 0.418
ElecMinimize: Iter:  29  F: -8903.257307707461223  |grad|_K:  3.045e-07  alpha:  1.261e-01  linmin: -3.347e-08  t[s]:   6433.69
	FillingsUpdate:  mu: +0.100522490  nElectrons: 846.000000  magneticMoment: [ Abs: 0.00006  Tot: +0.00000 ]
	SubspaceRotationAdjust: set factor to 0.338
ElecMinimize: Iter:  30  F: -8903.257312282144994  |grad|_K:  2.983e-07  alpha:  1.118e-01  linmin:  1.337e-08  t[s]:   6567.75
	FillingsUpdate:  mu: +0.100632149  nElectrons: 846.000000  magneticMoment: [ Abs: 0.00005  Tot: +0.00000 ]
	SubspaceRotationAdjust: set factor to 0.325
ElecMinimize: Iter:  31  F: -8903.257318545058297  |grad|_K:  2.378e-07  alpha:  1.595e-01  linmin:  2.328e-07  t[s]:   6702.70
	FillingsUpdate:  mu: +0.100670874  nElectrons: 846.000000  magneticMoment: [ Abs: 0.00005  Tot: +0.00000 ]
	SubspaceRotationAdjust: set factor to 0.384
ElecMinimize: Iter:  32  F: -8903.257321532795686  |grad|_K:  1.574e-07  alpha:  1.198e-01  linmin: -2.315e-08  t[s]:   6837.41
	FillingsUpdate:  mu: +0.100671369  nElectrons: 846.000000  magneticMoment: [ Abs: 0.00004  Tot: +0.00000 ]
	SubspaceRotationAdjust: set factor to 0.393
ElecMinimize: Iter:  33  F: -8903.257323678000830  |grad|_K:  1.712e-07  alpha:  1.959e-01  linmin: -3.244e-07  t[s]:   6971.72
	FillingsUpdate:  mu: +0.100666441  nElectrons: 846.000000  magneticMoment: [ Abs: 0.00004  Tot: +0.00000 ]
	SubspaceRotationAdjust: set factor to 0.326
ElecMinimize: Iter:  34  F: -8903.257325277818381  |grad|_K:  1.360e-07  alpha:  1.236e-01  linmin: -3.839e-08  t[s]:   7106.03
	FillingsUpdate:  mu: +0.100647218  nElectrons: 846.000000  magneticMoment: [ Abs: 0.00003  Tot: +0.00000 ]
	SubspaceRotationAdjust: set factor to 0.295
ElecMinimize: Iter:  35  F: -8903.257326191673201  |grad|_K:  1.106e-07  alpha:  1.119e-01  linmin:  3.844e-07  t[s]:   7240.55
	FillingsUpdate:  mu: +0.100649417  nElectrons: 846.000000  magneticMoment: [ Abs: 0.00002  Tot: +0.00000 ]
	SubspaceRotationAdjust: set factor to 0.335
ElecMinimize: Iter:  36  F: -8903.257327215060286  |grad|_K:  9.608e-08  alpha:  1.894e-01  linmin: -7.476e-07  t[s]:   7375.08
	FillingsUpdate:  mu: +0.100666222  nElectrons: 846.000000  magneticMoment: [ Abs: 0.00002  Tot: +0.00000 ]
	SubspaceRotationAdjust: set factor to 0.355
ElecMinimize: Iter:  37  F: -8903.257327722629270  |grad|_K:  7.055e-08  alpha:  1.240e-01  linmin: -1.592e-07  t[s]:   7510.03
	FillingsUpdate:  mu: +0.100660983  nElectrons: 846.000000  magneticMoment: [ Abs: 0.00002  Tot: +0.00000 ]
	SubspaceRotationAdjust: set factor to 0.314
ElecMinimize: Iter:  38  F: -8903.257328041727305  |grad|_K:  6.911e-08  alpha:  1.448e-01  linmin: -6.503e-07  t[s]:   7644.54
	FillingsUpdate:  mu: +0.100643119  nElectrons: 846.000000  magneticMoment: [ Abs: 0.00001  Tot: +0.00000 ]
	SubspaceRotationAdjust: set factor to 0.299
ElecMinimize: Iter:  39  F: -8903.257328324452828  |grad|_K:  5.033e-08  alpha:  1.338e-01  linmin:  1.843e-08  t[s]:   7779.47
	FillingsUpdate:  mu: +0.100628707  nElectrons: 846.000000  magneticMoment: [ Abs: 0.00001  Tot: +0.00000 ]
	SubspaceRotationAdjust: set factor to 0.345
ElecMinimize: Iter:  40  F: -8903.257328500203585  |grad|_K:  4.504e-08  alpha:  1.577e-01  linmin:  8.752e-07  t[s]:   7913.99
	FillingsUpdate:  mu: +0.100626792  nElectrons: 846.000000  magneticMoment: [ Abs: 0.00001  Tot: +0.00000 ]
	SubspaceRotationAdjust: set factor to 0.342
ElecMinimize: Iter:  41  F: -8903.257328646339374  |grad|_K:  3.645e-08  alpha:  1.638e-01  linmin:  4.577e-07  t[s]:   8049.00
	FillingsUpdate:  mu: +0.100630058  nElectrons: 846.000000  magneticMoment: [ Abs: 0.00001  Tot: +0.00000 ]
	SubspaceRotationAdjust: set factor to 0.289
ElecMinimize: Iter:  42  F: -8903.257328708437853  |grad|_K:  2.793e-08  alpha:  1.080e-01  linmin: -1.193e-06  t[s]:   8183.98
	FillingsUpdate:  mu: +0.100628868  nElectrons: 846.000000  magneticMoment: [ Abs: 0.00001  Tot: +0.00000 ]
	SubspaceRotationAdjust: set factor to 0.298
ElecMinimize: Iter:  43  F: -8903.257328768970183  |grad|_K:  2.674e-08  alpha:  1.751e-01  linmin:  1.446e-06  t[s]:   8318.78
ElecMinimize: Converged (|Delta F|<1.000000e-07 for 2 iters).
Setting wave functions to eigenvectors of Hamiltonian
Converging empty states (this may take a while): |deigs|: 1.516e-02
Vacuum energy after initial minimize, F = -8903.257328768970183


-------- Electronic minimization -----------
	Linear fluid (dielectric constant: 78.4, screening length: 8.12261 Bohr) occupying 0.521332 of unit cell:	Completed after 22 iterations at t[s]:   9093.78
	FillingsUpdate:  mu: -0.160361103  nElectrons: 846.000000  magneticMoment: [ Abs: 0.00000  Tot: +0.00000 ]
ElecMinimize: Iter:   0  F: -8903.257626864495251  |grad|_K:  7.437e-07  alpha:  1.000e+00
	Linear fluid (dielectric constant: 78.4, screening length: 8.12261 Bohr) occupying 0.522137 of unit cell:	Completed after 20 iterations at t[s]:   9207.22
	Linear fluid (dielectric constant: 78.4, screening length: 8.12261 Bohr) occupying 0.521800 of unit cell:	Completed after 17 iterations at t[s]:   9247.36
	FillingsUpdate:  mu: -0.157619847  nElectrons: 846.000000  magneticMoment: [ Abs: 0.00000  Tot: +0.00000 ]
	SubspaceRotationAdjust: set factor to 0.253
ElecMinimize: Iter:   1  F: -8903.257768020124786  |grad|_K:  1.199e-06  alpha:  5.806e-01  linmin:  4.877e-08  t[s]:   9299.20
	Linear fluid (dielectric constant: 78.4, screening length: 8.12261 Bohr) occupying 0.523153 of unit cell:	Completed after 20 iterations at t[s]:   9354.48
	Linear fluid (dielectric constant: 78.4, screening length: 8.12261 Bohr) occupying 0.522226 of unit cell:	Completed after 20 iterations at t[s]:   9394.02
	FillingsUpdate:  mu: -0.157040971  nElectrons: 846.000000  magneticMoment: [ Abs: 0.00000  Tot: +0.00000 ]
	SubspaceRotationAdjust: set factor to 0.335
ElecMinimize: Iter:   2  F: -8903.257879924105509  |grad|_K:  9.206e-07  alpha:  1.776e-01  linmin:  1.269e-07  t[s]:   9446.64
	Linear fluid (dielectric constant: 78.4, screening length: 8.12261 Bohr) occupying 0.522499 of unit cell:	Completed after 12 iterations at t[s]:   9499.32
	Linear fluid (dielectric constant: 78.4, screening length: 8.12261 Bohr) occupying 0.522473 of unit cell:	Completed after 6 iterations at t[s]:   9536.75
	FillingsUpdate:  mu: -0.157502602  nElectrons: 846.000000  magneticMoment: [ Abs: 0.00000  Tot: +0.00000 ]
	SubspaceRotationAdjust: set factor to 0.362
ElecMinimize: Iter:   3  F: -8903.257939431256091  |grad|_K:  5.629e-07  alpha:  1.598e-01  linmin: -1.708e-08  t[s]:   9589.20
	Linear fluid (dielectric constant: 78.4, screening length: 8.12261 Bohr) occupying 0.522594 of unit cell:	Completed after 8 iterations at t[s]:   9641.37
	Linear fluid (dielectric constant: 78.4, screening length: 8.12261 Bohr) occupying 0.522733 of unit cell:	Completed after 9 iterations at t[s]:   9679.19
	FillingsUpdate:  mu: -0.157658211  nElectrons: 846.000000  magneticMoment: [ Abs: 0.00000  Tot: +0.00000 ]
	SubspaceRotationAdjust: set factor to 0.399
ElecMinimize: Iter:   4  F: -8903.257987911165401  |grad|_K:  5.235e-07  alpha:  3.462e-01  linmin: -3.937e-08  t[s]:   9731.35
	Linear fluid (dielectric constant: 78.4, screening length: 8.12261 Bohr) occupying 0.523002 of unit cell:	Completed after 12 iterations at t[s]:   9784.41
	Linear fluid (dielectric constant: 78.4, screening length: 8.12261 Bohr) occupying 0.522856 of unit cell:	Completed after 12 iterations at t[s]:   9822.73
	FillingsUpdate:  mu: -0.157056679  nElectrons: 846.000000  magneticMoment: [ Abs: 0.00000  Tot: +0.00000 ]
	SubspaceRotationAdjust: set factor to 0.44
ElecMinimize: Iter:   5  F: -8903.258006835301785  |grad|_K:  3.963e-07  alpha:  1.567e-01  linmin:  2.498e-08  t[s]:   9875.01
	Linear fluid (dielectric constant: 78.4, screening length: 8.12261 Bohr) occupying 0.522938 of unit cell:	Completed after 9 iterations at t[s]:   9927.34
	Linear fluid (dielectric constant: 78.4, screening length: 8.12261 Bohr) occupying 0.522951 of unit cell:	Completed after 2 iterations at t[s]:   9963.84
	FillingsUpdate:  mu: -0.156837543  nElectrons: 846.000000  magneticMoment: [ Abs: 0.00000  Tot: +0.00000 ]
	SubspaceRotationAdjust: set factor to 0.479
ElecMinimize: Iter:   6  F: -8903.258019374445212  |grad|_K:  3.014e-07  alpha:  1.810e-01  linmin: -1.218e-07  t[s]:  10016.09
	Linear fluid (dielectric constant: 78.4, screening length: 8.12261 Bohr) occupying 0.523015 of unit cell:	Completed after 8 iterations at t[s]:  10068.30
	Linear fluid (dielectric constant: 78.4, screening length: 8.12261 Bohr) occupying 0.523023 of unit cell:	Completed after 2 iterations at t[s]:  10104.84
	FillingsUpdate:  mu: -0.156847770  nElectrons: 846.000000  magneticMoment: [ Abs: 0.00000  Tot: +0.00000 ]
	SubspaceRotationAdjust: set factor to 0.512
ElecMinimize: Iter:   7  F: -8903.258027584002775  |grad|_K:  2.713e-07  alpha:  2.037e-01  linmin: -4.895e-08  t[s]:  10156.87
	Linear fluid (dielectric constant: 78.4, screening length: 8.12261 Bohr) occupying 0.523086 of unit cell:	Completed after 8 iterations at t[s]:  10209.66
	Linear fluid (dielectric constant: 78.4, screening length: 8.12261 Bohr) occupying 0.523072 of unit cell:	Completed after 2 iterations at t[s]:  10246.46
	FillingsUpdate:  mu: -0.156762888  nElectrons: 846.000000  magneticMoment: [ Abs: 0.00000  Tot: +0.00000 ]
	SubspaceRotationAdjust: set factor to 0.599
ElecMinimize: Iter:   8  F: -8903.258032771675062  |grad|_K:  1.779e-07  alpha:  1.594e-01  linmin: -8.511e-09  t[s]:  10298.53
	Linear fluid (dielectric constant: 78.4, screening length: 8.12261 Bohr) occupying 0.523094 of unit cell:	Completed after 8 iterations at t[s]:  10350.81
	Linear fluid (dielectric constant: 78.4, screening length: 8.12261 Bohr) occupying 0.523093 of unit cell:	Completed after 0 iterations at t[s]:  10386.55
	FillingsUpdate:  mu: -0.156617560  nElectrons: 846.000000  magneticMoment: [ Abs: 0.00000  Tot: +0.00000 ]
	SubspaceRotationAdjust: set factor to 0.581
ElecMinimize: Iter:   9  F: -8903.258034897002290  |grad|_K:  1.511e-07  alpha:  1.521e-01  linmin:  1.037e-07  t[s]:  10438.37
	Linear fluid (dielectric constant: 78.4, screening length: 8.12261 Bohr) occupying 0.523108 of unit cell:	Completed after 6 iterations at t[s]:  10490.12
	Linear fluid (dielectric constant: 78.4, screening length: 8.12261 Bohr) occupying 0.523114 of unit cell:	Completed after 2 iterations at t[s]:  10526.68
	FillingsUpdate:  mu: -0.156641590  nElectrons: 846.000000  magneticMoment: [ Abs: 0.00000  Tot: +0.00000 ]
	SubspaceRotationAdjust: set factor to 0.529
ElecMinimize: Iter:  10  F: -8903.258036945384447  |grad|_K:  1.332e-07  alpha:  2.030e-01  linmin: -4.210e-07  t[s]:  10578.90
	Linear fluid (dielectric constant: 78.4, screening length: 8.12261 Bohr) occupying 0.523126 of unit cell:	Completed after 8 iterations at t[s]:  10630.96
	Linear fluid (dielectric constant: 78.4, screening length: 8.12261 Bohr) occupying 0.523120 of unit cell:	Completed after 2 iterations at t[s]:  10667.70
	FillingsUpdate:  mu: -0.156764280  nElectrons: 846.000000  magneticMoment: [ Abs: 0.00000  Tot: +0.00000 ]
	SubspaceRotationAdjust: set factor to 0.479
ElecMinimize: Iter:  11  F: -8903.258037863453865  |grad|_K:  7.372e-08  alpha:  1.131e-01  linmin:  4.817e-07  t[s]:  10719.96
	Linear fluid (dielectric constant: 78.4, screening length: 8.12261 Bohr) occupying 0.523123 of unit cell:	Completed after 2 iterations at t[s]:  10771.19
	Linear fluid (dielectric constant: 78.4, screening length: 8.12261 Bohr) occupying 0.523124 of unit cell:	Completed after 3 iterations at t[s]:  10808.71
	FillingsUpdate:  mu: -0.156703567  nElectrons: 846.000000  magneticMoment: [ Abs: 0.00000  Tot: +0.00000 ]
	SubspaceRotationAdjust: set factor to 0.476
ElecMinimize: Iter:  12  F: -8903.258038250645768  |grad|_K:  5.906e-08  alpha:  1.631e-01  linmin: -1.674e-06  t[s]:  10861.07
	Linear fluid (dielectric constant: 78.4, screening length: 8.12261 Bohr) occupying 0.523124 of unit cell:	Completed after 2 iterations at t[s]:  10911.95
	Linear fluid (dielectric constant: 78.4, screening length: 8.12261 Bohr) occupying 0.523124 of unit cell:	Completed after 0 iterations at t[s]:  10947.77
	FillingsUpdate:  mu: -0.156706296  nElectrons: 846.000000  magneticMoment: [ Abs: 0.00000  Tot: +0.00000 ]
	SubspaceRotationAdjust: set factor to 0.514
ElecMinimize: Iter:  13  F: -8903.258038540194320  |grad|_K:  4.929e-08  alpha:  1.798e-01  linmin: -7.728e-07  t[s]:  10999.93
	Linear fluid (dielectric constant: 78.4, screening length: 8.12261 Bohr) occupying 0.523122 of unit cell:	Completed after 2 iterations at t[s]:  11050.85
	Linear fluid (dielectric constant: 78.4, screening length: 8.12261 Bohr) occupying 0.523122 of unit cell:	Completed after 0 iterations at t[s]:  11086.68
	FillingsUpdate:  mu: -0.156718118  nElectrons: 846.000000  magneticMoment: [ Abs: 0.00000  Tot: +0.00000 ]
	SubspaceRotationAdjust: set factor to 0.514
ElecMinimize: Iter:  14  F: -8903.258038713187489  |grad|_K:  3.667e-08  alpha:  1.587e-01  linmin:  9.589e-07  t[s]:  11138.94
	Linear fluid (dielectric constant: 78.4, screening length: 8.12261 Bohr) occupying 0.523120 of unit cell:	Completed after 2 iterations at t[s]:  11189.87
	Linear fluid (dielectric constant: 78.4, screening length: 8.12261 Bohr) occupying 0.523120 of unit cell:	Completed after 0 iterations at t[s]:  11225.64
	FillingsUpdate:  mu: -0.156730717  nElectrons: 846.000000  magneticMoment: [ Abs: 0.00000  Tot: +0.00000 ]
	SubspaceRotationAdjust: set factor to 0.485
ElecMinimize: Iter:  15  F: -8903.258038793119340  |grad|_K:  2.527e-08  alpha:  1.371e-01  linmin:  7.051e-06  t[s]:  11277.75
	Linear fluid (dielectric constant: 78.4, screening length: 8.12261 Bohr) occupying 0.523118 of unit cell:	Completed after 2 iterations at t[s]:  11328.85
	Linear fluid (dielectric constant: 78.4, screening length: 8.12261 Bohr) occupying 0.523118 of unit cell:	Completed after 0 iterations at t[s]:  11364.58
	FillingsUpdate:  mu: -0.156735872  nElectrons: 846.000000  magneticMoment: [ Abs: 0.00000  Tot: +0.00000 ]
	SubspaceRotationAdjust: set factor to 0.546
ElecMinimize: Iter:  16  F: -8903.258038834655963  |grad|_K:  1.906e-08  alpha:  1.462e-01  linmin: -1.434e-05  t[s]:  11416.77
ElecMinimize: Converged (|Delta F|<1.000000e-07 for 2 iters).
Setting wave functions to eigenvectors of Hamiltonian
Converging empty states (this may take a while): |deigs|: 1.300e-04
Single-point solvation energy estimate, DeltaF = -0.000710065685780

Computing DFT-D3 correction:
# coordination-number Cu 5.606 6.498 5.642 6.501 5.604 5.604 5.604 5.604 7.547 7.547 7.547 7.547 9.114 9.114 9.114 9.114 8.978 8.978 8.978 8.978 9.124 9.124 9.124 9.124 9.116 9.116 9.116 9.116 9.122 9.122 9.122 9.122 8.977 8.977 8.977 8.977 9.115 9.111 9.111 9.111 7.546 8.511 7.546 7.574
# coordination-number C 3.780
# coordination-number O 1.078
# diagonal-C6 Cu 175.00 175.00 175.00 175.00 175.00 175.00 175.00 175.00 175.00 175.00 175.00 175.00 175.00 175.00 175.00 175.00 175.00 175.00 175.00 175.00 175.00 175.00 175.00 175.00 175.00 175.00 175.00 175.00 175.00 175.00 175.00 175.00 175.00 175.00 175.00 175.00 175.00 175.00 175.00 175.00 175.00 175.00 175.00 175.00
# diagonal-C6 C 18.84
# diagonal-C6 O 12.75
EvdW_6 =   -0.270967
EvdW_8 =   -0.400230

# Ionic positions in cartesian coordinates:
ion Cu  -4.764959000000000  15.804627000000000  21.261259999999996 0
ion Cu  -2.381638000000000   7.900077000000000  21.261259999999996 0
ion Cu   0.001672999999999  15.804627000000000  21.261259999999996 0
ion Cu   2.384984000000000   7.900077000000000  21.261259999999996 0
ion Cu  -0.002340000000000   4.315647000000000   1.097505000000000 0
ion Cu  -2.385642000000001  12.220198000000000   1.097505000000000 0
ion Cu   4.764282000000000   4.315647000000000   1.097505000000000 0
ion Cu   2.380971000000000  12.220198000000000   1.097505000000000 0
ion Cu   2.381794999999999   0.713275000000000   2.921133999999999 0
ion Cu  -0.001516000000001   8.617826000000001   2.921133999999999 0
ion Cu   7.148417999999999   0.713275000000000   2.921133999999999 0
ion Cu   4.765107000000000   8.617826000000001   2.921133999999999 0
ion Cu   2.382486999999999   5.058106000000000   5.065168999999999 0
ion Cu  -0.000825000000000  12.962657000000000   5.065168999999999 0
ion Cu   7.149109000000000   5.058106000000000   5.065168999999999 0
ion Cu   4.765797999999998  12.962657000000000   5.065168999999999 0
ion Cu   0.002769000000000   1.431814000000000   7.100813999999999 0
ion Cu  -2.380532000000001   9.336365000000001   7.100813999999999 0
ion Cu   4.769392000000000   1.431814000000000   7.100813999999999 0
ion Cu   2.386080999999999   9.336365000000001   7.100813999999999 0
ion Cu   0.000024000000000   5.742261000000000   9.138538999999998 0
ion Cu  -2.383287000000001  13.646811000000000   9.138538999999998 0
ion Cu   4.766646000000000   5.742261000000000   9.138538999999998 0
ion Cu   2.383335000000000  13.646811000000000   9.138538999999998 0
ion Cu   2.383383000000000   2.155998000000000  11.179549999999999 0
ion Cu   0.000070999999999  10.060548000000001  11.179549999999999 0
ion Cu   7.150005000000000   2.155998000000000  11.179549999999999 0
ion Cu   4.766693999999999  10.060548000000001  11.179549999999999 0
ion Cu   2.382868000000000   6.473874000000000  13.215530999999999 0
ion Cu  -0.000443000000001  14.378425000000000  13.215530999999999 0
ion Cu   7.149489999999999   6.473874000000000  13.215530999999999 0
ion Cu   4.766178999999999  14.378425000000000  13.215530999999999 0
ion Cu  -0.002007000000000   2.879960000000000  15.258352999999996 0
ion Cu  -2.385318000000001  10.784509999999999  15.258352999999996 0
ion Cu   4.764615999999999   2.879960000000000  15.258352999999996 0
ion Cu   2.381304999999999  10.784509999999999  15.258352999999996 0
ion Cu   0.000862999999999   7.157744000000000  17.290979999999998 0
ion Cu  -2.382448000000000  15.062295000000001  17.290979999999998 0
ion Cu   4.767476000000000   7.157744000000000  17.290979999999998 0
ion Cu   2.384173999999999  15.062295000000001  17.290979999999998 0
ion Cu   2.385027000000000   3.598594000000000  19.437361999999997 0
ion Cu   0.001716000000000  11.503145000000000  19.437361999999997 0
ion Cu   7.151650000000000   3.598594000000000  19.437361999999997 0
ion Cu   4.768337999999999  11.503145000000000  19.437361999999997 0
ion C   0.001668000000000  10.534931999999998  23.028548999999998 1  Linear 0 0 1
ion O   0.061766000000000  10.534931999999998  25.183918999999996 1  Linear 0 0 1

# Forces in Cartesian coordinates:
force Cu  -0.000125825419741   0.001835920795331  -0.000597720581499 0
force Cu  -0.004860477947338  -0.003313768353397  -0.000680088010628 0
force Cu   0.000014011832413   0.001665451564783   0.000009429995106 0
force Cu   0.005121953294173  -0.004018145508715  -0.001309320391915 0
force Cu   0.000132425934499  -0.000302177681606  -0.000385467914297 0
force Cu  -0.000177219699213  -0.000246693871470  -0.000620793628707 0
force Cu  -0.000046128008226  -0.000151555355216  -0.000266983363444 0
force Cu   0.000269116219310  -0.000401459636522  -0.000485083548687 0
force Cu   0.000166938305724   0.000252753122147  -0.000027857061855 0
force Cu   0.000191272445399   0.000435055997108  -0.000237991171498 0
force Cu  -0.000190793890134   0.000364348724259  -0.000140050625419 0
force Cu  -0.000035464619343   0.000288036128704  -0.000254685586967 0
force Cu   0.000118389467035   0.000188856007246   0.000326990506446 0
force Cu  -0.000076568336815   0.000188987855458   0.000458058640079 0
force Cu  -0.000005358128895   0.000282146828669   0.000368752173071 0
force Cu   0.000180304082086   0.000135091167981   0.000260289401523 0
force Cu  -0.000114898673920   0.000361041109693   0.000471992203229 0
force Cu  -0.000235875016205   0.000072708089692   0.000398671873995 0
force Cu  -0.000287348679859   0.000115524936669   0.000152791241664 0
force Cu  -0.000031243896426   0.000181313835706   0.000310023218921 0
force Cu  -0.000085492103096  -0.000047496460861   0.000545407853244 0
force Cu   0.000045027021120  -0.000061471306413  -0.000123200507965 0
force Cu  -0.000188936799000  -0.000100114778550  -0.000793394568833 0
force Cu  -0.000144193435336  -0.000018640109937  -0.000078468150613 0
force Cu  -0.000112848724819  -0.000195000410825  -0.000053173588657 0
force Cu   0.000029008043209  -0.000012733325875  -0.000733659633559 0
force Cu   0.000186966348354  -0.000156261834513  -0.000054278402762 0
force Cu  -0.000130275317979  -0.000146326079344   0.001173206432692 0
force Cu   0.000400712460303   0.000189718649790  -0.000332818142167 0
force Cu   0.000019269041137   0.000446907196808  -0.000647749954898 0
force Cu  -0.000413367925474   0.000184735220630  -0.000059195874955 0
force Cu   0.000240444541301  -0.000256654962853  -0.000790860292835 0
force Cu   0.000144969672509  -0.000689849468117   0.000506224795771 0
force Cu   0.001345689561041  -0.000494901325651   0.001708386817136 0
force Cu   0.000194471279877   0.000308188074430  -0.000253522575802 0
force Cu  -0.001043400136345  -0.000479410077255   0.001740479157567 0
force Cu   0.000111049273428  -0.003279138542342  -0.007643439582630 0
force Cu  -0.000748162528717  -0.000024294221988  -0.001151808903930 0
force Cu   0.000044604083445   0.000545950839971   0.000718677021141 0
force Cu   0.000660484120595   0.000043078966049  -0.001173601972645 0
force Cu  -0.000274669825430   0.000468325107457   0.000788433649095 0
force Cu  -0.000187149716433   0.005248406823790   0.004624546724167 0
force Cu   0.000320618611775   0.000435771372674   0.000764591685598 0
force Cu  -0.000257787917652   0.002117986095181  -0.005247532565961 0
force C  -0.001937026101609  -0.012590273125030  -0.083136939182709 1  Linear 0 0 1
force O   0.001728719581959   0.010710016329015   0.091747850920329 1  Linear 0 0 1

# Energy components:
   A_diel =       -0.0014015974316595
   Eewald =    67671.1520454713318031
       EH =    75818.0695296196790878
     Eloc =  -154067.9442672390141524
      Enl =     1614.5755177995381473
     EvdW =       -0.6711976882426305
      Exc =     -859.3211290293249931
 Exc_core =        2.1654530898652147
       KE =      918.7186189620208552
-------------------------------------
     Etot =    -8903.2568306115790620
       TS =        0.0012082230761616
-------------------------------------
        F =    -8903.2580388346559630


Dumping 'jdft.fillings' ... done
Dumping 'jdft.wfns' ... done
Dumping 'jdft.fluidState' ... done
Dumping 'jdft.ionpos' ... done
Dumping 'jdft.lattice' ... done
Dumping 'jdft.eigenvals' ... done
Dumping 'jdft.eigStats' ... 
	eMin: -4.313731 at state 10 ( [ +0.000000 +0.000000 +0.000000 ] spin -1 )
	HOMO: -0.158307 at state 1 ( [ +0.000000 +0.333333 +0.000000 ] spin 1 )
	mu  : -0.156736
	LUMO: -0.156368 at state 2 ( [ +0.166667 +0.000000 +0.000000 ] spin 1 )
	eMax: +0.186012 at state 1 ( [ +0.000000 +0.333333 +0.000000 ] spin 1 )
	HOMO-LUMO gap: +0.001938
	Optical gap  : +0.002430 at state 2 ( [ +0.166667 +0.000000 +0.000000 ] spin 1 )
Dumping 'jdft.Ecomponents' ... done
IonicMinimize: Iter:   0  F: -8903.258038834655963  |grad|_K:  8.755e-02  t[s]:  12044.25

#--- Lowdin population analysis ---
# oxidation-state Cu +0.189 +0.125 +0.181 +0.127 +0.189 +0.184 +0.185 +0.184 +0.048 +0.050 +0.050 +0.047 +0.044 +0.045 +0.044 +0.045 +0.075 +0.076 +0.077 +0.076 +0.075 +0.075 +0.074 +0.075 +0.076 +0.074 +0.076 +0.075 +0.075 +0.077 +0.075 +0.074 +0.077 +0.074 +0.076 +0.074 +0.045 +0.044 +0.046 +0.044 +0.048 -0.024 +0.048 +0.067
# magnetic-moments Cu +0.000 -0.000 -0.000 -0.000 +0.000 -0.000 +0.000 -0.000 -0.000 -0.000 -0.000 -0.000 -0.000 +0.000 -0.000 -0.000 +0.000 -0.000 +0.000 -0.000 +0.000 +0.000 -0.000 -0.000 -0.000 -0.000 -0.000 +0.000 +0.000 -0.000 -0.000 -0.000 -0.000 +0.000 -0.000 -0.000 +0.000 -0.000 -0.000 +0.000 -0.000 -0.000 -0.000 -0.000
# oxidation-state C +0.350
# magnetic-moments C +0.000
# oxidation-state O -0.131
# magnetic-moments O +0.000


Computing DFT-D3 correction:
# coordination-number Cu 5.606 6.512 5.644 6.515 5.604 5.604 5.604 5.604 7.547 7.547 7.547 7.547 9.114 9.114 9.114 9.114 8.978 8.978 8.978 8.978 9.124 9.124 9.124 9.124 9.116 9.116 9.116 9.116 9.122 9.122 9.122 9.122 8.977 8.977 8.977 8.977 9.115 9.111 9.111 9.111 7.546 8.524 7.546 7.577
# coordination-number C 3.836
# coordination-number O 1.067
# diagonal-C6 Cu 175.00 175.00 175.00 175.00 175.00 175.00 175.00 175.00 175.00 175.00 175.00 175.00 175.00 175.00 175.00 175.00 175.00 175.00 175.00 175.00 175.00 175.00 175.00 175.00 175.00 175.00 175.00 175.00 175.00 175.00 175.00 175.00 175.00 175.00 175.00 175.00 175.00 175.00 175.00 175.00 175.00 175.00 175.00 175.00
# diagonal-C6 C 18.62
# diagonal-C6 O 12.76
EvdW_6 =   -0.270927
EvdW_8 =   -0.400243

-------- Electronic minimization -----------
	Linear fluid (dielectric constant: 78.4, screening length: 8.12261 Bohr) occupying 0.523055 of unit cell:	Completed after 22 iterations at t[s]:  12098.88
	FillingsUpdate:  mu: -0.155602510  nElectrons: 846.000000  magneticMoment: [ Abs: 0.00000  Tot: -0.00000 ]
ElecMinimize: Iter:   0  F: -8903.152905410670428  |grad|_K:  2.053e-05  alpha:  1.000e+00
	Linear fluid (dielectric constant: 78.4, screening length: 8.12261 Bohr) occupying 0.522449 of unit cell:	Completed after 24 iterations at t[s]:  12214.37
	Linear fluid (dielectric constant: 78.4, screening length: 8.12261 Bohr) occupying 0.522740 of unit cell:	Completed after 23 iterations at t[s]:  12254.95
	FillingsUpdate:  mu: -0.147604757  nElectrons: 846.000000  magneticMoment: [ Abs: 0.00000  Tot: +0.00000 ]
	SubspaceRotationAdjust: set factor to 0.52
ElecMinimize: Iter:   1  F: -8903.246270402061782  |grad|_K:  9.872e-06  alpha:  5.071e-01  linmin:  2.276e-04  t[s]:  12307.97
	Linear fluid (dielectric constant: 78.4, screening length: 8.12261 Bohr) occupying 0.522948 of unit cell:	Completed after 25 iterations at t[s]:  12363.77
	Linear fluid (dielectric constant: 78.4, screening length: 8.12261 Bohr) occupying 0.522596 of unit cell:	Completed after 24 iterations at t[s]:  12405.46
	FillingsUpdate:  mu: -0.167718374  nElectrons: 846.000000  magneticMoment: [ Abs: 0.00000  Tot: +0.00000 ]
	SubspaceRotationAdjust: set factor to 0.39
ElecMinimize: Iter:   2  F: -8903.252568003703345  |grad|_K:  6.704e-06  alpha:  1.463e-01  linmin: -9.216e-05  t[s]:  12457.74
	Linear fluid (dielectric constant: 78.4, screening length: 8.12261 Bohr) occupying 0.522653 of unit cell:	Completed after 21 iterations at t[s]:  12512.16
	Linear fluid (dielectric constant: 78.4, screening length: 8.12261 Bohr) occupying 0.522650 of unit cell:	Completed after 11 iterations at t[s]:  12551.59
	FillingsUpdate:  mu: -0.162424665  nElectrons: 846.000000  magneticMoment: [ Abs: 0.00000  Tot: +0.00000 ]
	SubspaceRotationAdjust: set factor to 0.375
ElecMinimize: Iter:   3  F: -8903.255337579919797  |grad|_K:  4.682e-06  alpha:  1.386e-01  linmin: -1.568e-06  t[s]:  12604.10
	Linear fluid (dielectric constant: 78.4, screening length: 8.12261 Bohr) occupying 0.522726 of unit cell:	Completed after 16 iterations at t[s]:  12658.54
	Linear fluid (dielectric constant: 78.4, screening length: 8.12261 Bohr) occupying 0.522759 of unit cell:	Completed after 13 iterations at t[s]:  12697.65
	FillingsUpdate:  mu: -0.157720584  nElectrons: 846.000000  magneticMoment: [ Abs: 0.00000  Tot: -0.00000 ]
	SubspaceRotationAdjust: set factor to 0.416
ElecMinimize: Iter:   4  F: -8903.257200834663308  |grad|_K:  3.459e-06  alpha:  1.926e-01  linmin:  3.633e-06  t[s]:  12749.66
	Linear fluid (dielectric constant: 78.4, screening length: 8.12261 Bohr) occupying 0.522811 of unit cell:	Completed after 20 iterations at t[s]:  12804.37
	Linear fluid (dielectric constant: 78.4, screening length: 8.12261 Bohr) occupying 0.522799 of unit cell:	Completed after 12 iterations at t[s]:  12843.27
	FillingsUpdate:  mu: -0.160889736  nElectrons: 846.000000  magneticMoment: [ Abs: 0.00000  Tot: -0.00000 ]
	SubspaceRotationAdjust: set factor to 0.541
ElecMinimize: Iter:   5  F: -8903.258015282110136  |grad|_K:  1.913e-06  alpha:  1.542e-01  linmin:  9.443e-06  t[s]:  12895.54
	Linear fluid (dielectric constant: 78.4, screening length: 8.12261 Bohr) occupying 0.522816 of unit cell:	Completed after 15 iterations at t[s]:  12949.26
	Linear fluid (dielectric constant: 78.4, screening length: 8.12261 Bohr) occupying 0.522825 of unit cell:	Completed after 12 iterations at t[s]:  12988.23
	FillingsUpdate:  mu: -0.163957688  nElectrons: 846.000000  magneticMoment: [ Abs: 0.00000  Tot: -0.00000 ]
	SubspaceRotationAdjust: set factor to 0.55
ElecMinimize: Iter:   6  F: -8903.258380542119994  |grad|_K:  2.138e-06  alpha:  2.266e-01  linmin:  8.270e-06  t[s]:  13040.81
	Linear fluid (dielectric constant: 78.4, screening length: 8.12261 Bohr) occupying 0.522904 of unit cell:	Completed after 19 iterations at t[s]:  13095.99
	Linear fluid (dielectric constant: 78.4, screening length: 8.12261 Bohr) occupying 0.522890 of unit cell:	Completed after 12 iterations at t[s]:  13134.59
	FillingsUpdate:  mu: -0.161415289  nElectrons: 846.000000  magneticMoment: [ Abs: 0.00000  Tot: -0.00000 ]
	SubspaceRotationAdjust: set factor to 0.536
ElecMinimize: Iter:   7  F: -8903.258755618384384  |grad|_K:  1.427e-06  alpha:  1.864e-01  linmin: -1.746e-06  t[s]:  13186.75
	Linear fluid (dielectric constant: 78.4, screening length: 8.12261 Bohr) occupying 0.523003 of unit cell:	Completed after 19 iterations at t[s]:  13241.25
	Linear fluid (dielectric constant: 78.4, screening length: 8.12261 Bohr) occupying 0.522977 of unit cell:	Completed after 11 iterations at t[s]:  13280.03
	FillingsUpdate:  mu: -0.159680721  nElectrons: 846.000000  magneticMoment: [ Abs: 0.00000  Tot: -0.00000 ]
	SubspaceRotationAdjust: set factor to 0.464
[...]
force Cu  -0.000035511319726  -0.000141757925744  -0.000233990686915 0
force Cu   0.000289367134978  -0.000397233836222  -0.000431491856650 0
force Cu   0.000145035660268   0.000261635513939   0.000097576741679 0
force Cu   0.000182525390195   0.000447055937965  -0.000090590554377 0
force Cu  -0.000178143441052   0.000363563215985  -0.000009759507662 0
force Cu  -0.000035086751843   0.000299219185621  -0.000102165755965 0
force Cu   0.000128819290571   0.000189139578548   0.000306043458003 0
force Cu  -0.000069249713665   0.000155459935100   0.000439495693536 0
force Cu  -0.000025622981504   0.000292081224242   0.000330748805809 0
force Cu   0.000174315439853   0.000142162219893   0.000191585908379 0
force Cu  -0.000123222009133   0.000385078960005   0.000594817067239 0
force Cu  -0.000240504368443   0.000065474319518   0.000506246021561 0
force Cu  -0.000280445585697   0.000091659751996   0.000245103157912 0
force Cu  -0.000017506418317   0.000174434400113   0.000412480817687 0
force Cu  -0.000082350341946  -0.000047227091399   0.000570497805092 0
force Cu   0.000046850274389  -0.000088931442539  -0.000072879101795 0
force Cu  -0.000186400861994  -0.000097625902689  -0.000722456119441 0
force Cu  -0.000139185369507  -0.000023473772428  -0.000021249315459 0
force Cu  -0.000069689436169  -0.000202624200986  -0.000019789185933 0
force Cu   0.000028918015824   0.000007829280787  -0.000689732722762 0
force Cu   0.000161896309599  -0.000165714217167  -0.000021075459106 0
force Cu  -0.000132946050728  -0.000172268573281   0.001221152876195 0
force Cu   0.000372822964005   0.000198796267603  -0.000409807653141 0
force Cu   0.000024337698704   0.000528351043331  -0.000688581194106 0
force Cu  -0.000395471463734   0.000182327170487  -0.000138175548655 0
force Cu   0.000240413159256  -0.000245447466095  -0.000827653919933 0
force Cu   0.000142357405201  -0.000726949014298   0.000400160762280 0
force Cu   0.001346128366482  -0.000486158816889   0.001689059613520 0
force Cu   0.000192458076709   0.000295247525502  -0.000325254224606 0
force Cu  -0.001041775665137  -0.000483357207727   0.001700923896911 0
force Cu   0.000097998990939  -0.003104601324023  -0.007518765235218 0
force Cu  -0.000768810630602  -0.000041159130112  -0.001171503269627 0
force Cu   0.000062869576242   0.000482039153212   0.000756801550651 0
force Cu   0.000671021894523   0.000037946242703  -0.001181082946840 0
force Cu  -0.000228433521118   0.000459120391181   0.000653634187909 0
force Cu  -0.000153732271273   0.004649719158858   0.007813939453143 0
force Cu   0.000286388460978   0.000425191543642   0.000611551330030 0
force Cu  -0.000255221777702   0.002035605326566  -0.005209823517775 0
force C   0.000479171818171  -0.013838213157021  -0.000294621958877 1  Linear 0 0 1
force O  -0.000684868337449   0.009267533244295   0.000427414070516 1  Linear 0 0 1

# Energy components:
   A_diel =       -0.0025692729203572
   Eewald =    67648.0219211211224319
       EH =    75793.1733037112717284
     Eloc =  -154019.8145013003959320
      Enl =     1614.5464787337145935
     EvdW =       -0.6711504778964762
      Exc =     -859.2781444425119162
 Exc_core =        2.1654556604576651
       KE =      918.5983573586320290
-------------------------------------
     Etot =    -8903.2608489085450856
       TS =        0.0012344309409569
-------------------------------------
        F =    -8903.2620833394867077


Dumping 'jdft.fillings' ... done
Dumping 'jdft.wfns' ... done
Dumping 'jdft.fluidState' ... done
Dumping 'jdft.ionpos' ... done
Dumping 'jdft.lattice' ... done
Dumping 'jdft.eigenvals' ... done
Dumping 'jdft.eigStats' ... 
	eMin: -4.313405 at state 10 ( [ +0.000000 +0.000000 +0.000000 ] spin -1 )
	HOMO: -0.160078 at state 11 ( [ +0.000000 +0.333333 +0.000000 ] spin -1 )
	mu  : -0.158622
	LUMO: -0.158071 at state 2 ( [ +0.166667 +0.000000 +0.000000 ] spin 1 )
	eMax: +0.184794 at state 11 ( [ +0.000000 +0.333333 +0.000000 ] spin -1 )
	HOMO-LUMO gap: +0.002007
	Optical gap  : +0.002572 at state 2 ( [ +0.166667 +0.000000 +0.000000 ] spin 1 )
Dumping 'jdft.Ecomponents' ... done
IonicMinimize: Iter:   8  F: -8903.262083339486708  |grad|_K:  3.671e-04  alpha:  1.000e+00  linmin:  2.145e-03  t[s]:  33130.53

#--- Lowdin population analysis ---
# oxidation-state Cu +0.195 +0.128 +0.185 +0.131 +0.193 +0.188 +0.189 +0.188 +0.048 +0.050 +0.050 +0.047 +0.044 +0.045 +0.044 +0.045 +0.075 +0.076 +0.077 +0.076 +0.075 +0.076 +0.074 +0.075 +0.077 +0.074 +0.077 +0.075 +0.075 +0.077 +0.075 +0.074 +0.078 +0.074 +0.076 +0.074 +0.045 +0.044 +0.047 +0.044 +0.050 -0.017 +0.049 +0.070
# magnetic-moments Cu -0.000 -0.000 +0.000 -0.000 +0.000 +0.000 +0.000 +0.000 -0.000 +0.000 +0.000 -0.000 -0.000 +0.000 +0.000 +0.000 +0.000 -0.000 +0.000 +0.000 +0.000 -0.000 +0.000 -0.000 +0.000 +0.000 +0.000 +0.000 -0.000 -0.000 -0.000 +0.000 +0.000 +0.000 +0.000 -0.000 -0.000 -0.000 +0.000 +0.000 +0.000 -0.000 +0.000 +0.000
# oxidation-state C +0.327
# magnetic-moments C +0.000
# oxidation-state O -0.170
# magnetic-moments O -0.000


Computing DFT-D3 correction:
# coordination-number Cu 5.606 6.477 5.640 6.480 5.604 5.604 5.604 5.604 7.547 7.547 7.547 7.547 9.114 9.114 9.114 9.114 8.978 8.978 8.978 8.978 9.124 9.124 9.124 9.124 9.116 9.116 9.116 9.116 9.122 9.122 9.122 9.122 8.977 8.977 8.977 8.977 9.114 9.111 9.111 9.111 7.546 8.495 7.546 7.572
# coordination-number C 3.733
# coordination-number O 1.062
# diagonal-C6 Cu 175.00 175.00 175.00 175.00 175.00 175.00 175.00 175.00 175.00 175.00 175.00 175.00 175.00 175.00 175.00 175.00 175.00 175.00 175.00 175.00 175.00 175.00 175.00 175.00 175.00 175.00 175.00 175.00 175.00 175.00 175.00 175.00 175.00 175.00 175.00 175.00 175.00 175.00 175.00 175.00 175.00 175.00 175.00 175.00
# diagonal-C6 C 19.09
# diagonal-C6 O 12.76
EvdW_6 =   -0.270938
EvdW_8 =   -0.400212

-------- Electronic minimization -----------
	Linear fluid (dielectric constant: 78.4, screening length: 8.12261 Bohr) occupying 0.522397 of unit cell:	Completed after 10 iterations at t[s]:  33190.57
	FillingsUpdate:  mu: -0.159128737  nElectrons: 846.000000  magneticMoment: [ Abs: 0.00000  Tot: +0.00000 ]
ElecMinimize: Iter:   0  F: -8903.262081818813385  |grad|_K:  2.253e-07  alpha:  1.000e+00
	Linear fluid (dielectric constant: 78.4, screening length: 8.12261 Bohr) occupying 0.522473 of unit cell:	Completed after 19 iterations at t[s]:  33305.08
	Linear fluid (dielectric constant: 78.4, screening length: 8.12261 Bohr) occupying 0.522402 of unit cell:	Completed after 19 iterations at t[s]:  33345.19
	FillingsUpdate:  mu: -0.158660541  nElectrons: 846.000000  magneticMoment: [ Abs: 0.00000  Tot: +0.00000 ]
	SubspaceRotationAdjust: set factor to 0.661
ElecMinimize: Iter:   1  F: -8903.262083302597603  |grad|_K:  5.364e-08  alpha:  6.678e-02  linmin:  6.403e-05  t[s]:  33397.11
	Linear fluid (dielectric constant: 78.4, screening length: 8.12261 Bohr) occupying 0.522402 of unit cell:	Completed after 2 iterations at t[s]:  33448.51
	Linear fluid (dielectric constant: 78.4, screening length: 8.12261 Bohr) occupying 0.522402 of unit cell:	Completed after 2 iterations at t[s]:  33485.19
	FillingsUpdate:  mu: -0.158626722  nElectrons: 846.000000  magneticMoment: [ Abs: 0.00000  Tot: +0.00000 ]
	SubspaceRotationAdjust: set factor to 0.729
ElecMinimize: Iter:   2  F: -8903.262083440498827  |grad|_K:  3.404e-08  alpha:  1.058e-01  linmin: -7.110e-04  t[s]:  33537.42
	Linear fluid (dielectric constant: 78.4, screening length: 8.12261 Bohr) occupying 0.522402 of unit cell:	Completed after 0 iterations at t[s]:  33588.24
ElecMinimize: 	Predicted alpha/alphaT>3.000000, increasing alphaT to 3.173195e-01.
	Linear fluid (dielectric constant: 78.4, screening length: 8.12261 Bohr) occupying 0.522402 of unit cell:	Completed after 2 iterations at t[s]:  33624.72
	Linear fluid (dielectric constant: 78.4, screening length: 8.12261 Bohr) occupying 0.522402 of unit cell:	Completed after 0 iterations at t[s]:  33660.81
	FillingsUpdate:  mu: -0.158628997  nElectrons: 846.000000  magneticMoment: [ Abs: 0.00000  Tot: +0.00000 ]
	SubspaceRotationAdjust: set factor to 0.883
ElecMinimize: Iter:   3  F: -8903.262083615116353  |grad|_K:  2.737e-08  alpha:  3.211e-01  linmin: -2.138e-04  t[s]:  33712.88
	Linear fluid (dielectric constant: 78.4, screening length: 8.12261 Bohr) occupying 0.522401 of unit cell:	Completed after 3 iterations at t[s]:  33764.52
	Linear fluid (dielectric constant: 78.4, screening length: 8.12261 Bohr) occupying 0.522402 of unit cell:	Completed after 2 iterations at t[s]:  33801.01
	FillingsUpdate:  mu: -0.158682521  nElectrons: 846.000000  magneticMoment: [ Abs: 0.00000  Tot: +0.00000 ]
	SubspaceRotationAdjust: set factor to 0.682
ElecMinimize: Iter:   4  F: -8903.262083660149074  |grad|_K:  2.310e-08  alpha:  1.288e-01  linmin:  3.993e-04  t[s]:  33853.06
	Linear fluid (dielectric constant: 78.4, screening length: 8.12261 Bohr) occupying 0.522403 of unit cell:	Completed after 2 iterations at t[s]:  33904.37
	Linear fluid (dielectric constant: 78.4, screening length: 8.12261 Bohr) occupying 0.522402 of unit cell:	Completed after 0 iterations at t[s]:  33941.38
	FillingsUpdate:  mu: -0.158638386  nElectrons: 846.000000  magneticMoment: [ Abs: 0.00000  Tot: +0.00000 ]
	SubspaceRotationAdjust: set factor to 0.578
ElecMinimize: Iter:   5  F: -8903.262083681596778  |grad|_K:  2.083e-08  alpha:  9.652e-02  linmin:  2.446e-05  t[s]:  33993.42
ElecMinimize: Converged (|Delta F|<1.000000e-07 for 2 iters).
Setting wave functions to eigenvectors of Hamiltonian
Converging empty states (this may take a while): |deigs|: 4.018e-09

Computing DFT-D3 correction:
# coordination-number Cu 5.606 6.477 5.640 6.480 5.604 5.604 5.604 5.604 7.547 7.547 7.547 7.547 9.114 9.114 9.114 9.114 8.978 8.978 8.978 8.978 9.124 9.124 9.124 9.124 9.116 9.116 9.116 9.116 9.122 9.122 9.122 9.122 8.977 8.977 8.977 8.977 9.114 9.111 9.111 9.111 7.546 8.495 7.546 7.572
# coordination-number C 3.733
# coordination-number O 1.062
# diagonal-C6 Cu 175.00 175.00 175.00 175.00 175.00 175.00 175.00 175.00 175.00 175.00 175.00 175.00 175.00 175.00 175.00 175.00 175.00 175.00 175.00 175.00 175.00 175.00 175.00 175.00 175.00 175.00 175.00 175.00 175.00 175.00 175.00 175.00 175.00 175.00 175.00 175.00 175.00 175.00 175.00 175.00 175.00 175.00 175.00 175.00
# diagonal-C6 C 19.09
# diagonal-C6 O 12.76
EvdW_6 =   -0.270938
EvdW_8 =   -0.400212

# Ionic positions in cartesian coordinates:
ion Cu  -4.764959000000000  15.804627000000000  21.261259999999996 0
ion Cu  -2.381638000000000   7.900077000000000  21.261259999999996 0
ion Cu   0.001672999999999  15.804627000000000  21.261259999999996 0
ion Cu   2.384984000000000   7.900077000000000  21.261259999999996 0
ion Cu  -0.002340000000000   4.315647000000000   1.097505000000000 0
ion Cu  -2.385642000000001  12.220198000000000   1.097505000000000 0
ion Cu   4.764282000000000   4.315647000000000   1.097505000000000 0
ion Cu   2.380971000000000  12.220198000000000   1.097505000000000 0
ion Cu   2.381794999999999   0.713275000000000   2.921133999999999 0
ion Cu  -0.001516000000001   8.617826000000001   2.921133999999999 0
ion Cu   7.148417999999999   0.713275000000000   2.921133999999999 0
ion Cu   4.765107000000000   8.617826000000001   2.921133999999999 0
ion Cu   2.382486999999999   5.058106000000000   5.065168999999999 0
ion Cu  -0.000825000000000  12.962657000000000   5.065168999999999 0
ion Cu   7.149109000000000   5.058106000000000   5.065168999999999 0
ion Cu   4.765797999999998  12.962657000000000   5.065168999999999 0
ion Cu   0.002769000000000   1.431814000000000   7.100813999999999 0
ion Cu  -2.380532000000001   9.336365000000001   7.100813999999999 0
ion Cu   4.769392000000000   1.431814000000000   7.100813999999999 0
ion Cu   2.386080999999999   9.336365000000001   7.100813999999999 0
ion Cu   0.000024000000000   5.742261000000000   9.138538999999998 0
ion Cu  -2.383287000000001  13.646811000000000   9.138538999999998 0
ion Cu   4.766646000000000   5.742261000000000   9.138538999999998 0
ion Cu   2.383335000000000  13.646811000000000   9.138538999999998 0
ion Cu   2.383383000000000   2.155998000000000  11.179549999999999 0
ion Cu   0.000070999999999  10.060548000000001  11.179549999999999 0
ion Cu   7.150005000000000   2.155998000000000  11.179549999999999 0
ion Cu   4.766693999999999  10.060548000000001  11.179549999999999 0
ion Cu   2.382868000000000   6.473874000000000  13.215530999999999 0
ion Cu  -0.000443000000001  14.378425000000000  13.215530999999999 0
ion Cu   7.149489999999999   6.473874000000000  13.215530999999999 0
ion Cu   4.766178999999999  14.378425000000000  13.215530999999999 0
ion Cu  -0.002007000000000   2.879960000000000  15.258352999999996 0
ion Cu  -2.385318000000001  10.784509999999999  15.258352999999996 0
ion Cu   4.764615999999999   2.879960000000000  15.258352999999996 0
ion Cu   2.381304999999999  10.784509999999999  15.258352999999996 0
ion Cu   0.000862999999999   7.157744000000000  17.290979999999998 0
ion Cu  -2.382448000000000  15.062295000000001  17.290979999999998 0
ion Cu   4.767476000000000   7.157744000000000  17.290979999999998 0
ion Cu   2.384173999999999  15.062295000000001  17.290979999999998 0
ion Cu   2.385027000000000   3.598594000000000  19.437361999999997 0
ion Cu   0.001716000000000  11.503145000000000  19.437361999999997 0
ion Cu   7.151650000000000   3.598594000000000  19.437361999999997 0
ion Cu   4.768337999999999  11.503145000000000  19.437361999999997 0
ion C   0.001668000000000  10.534931999999998  23.087986627501106 1  Linear 0 0 1
ion O   0.061766000000000  10.534931999999998  25.331067254487767 1  Linear 0 0 1

# Forces in Cartesian coordinates:
force Cu  -0.000129334821021   0.001800770160796  -0.000647127423943 0
force Cu  -0.003272039785382  -0.001476580838545   0.001519506957036 0
force Cu   0.000018899332699   0.001111769464625   0.000368318112732 0
force Cu   0.003483099379708  -0.002093249089432   0.000967532079504 0
force Cu   0.000118977433265  -0.000287847981785  -0.000380735378306 0
force Cu  -0.000197335786955  -0.000251409042668  -0.000618913292669 0
force Cu  -0.000035787015874  -0.000128926096422  -0.000287742213966 0
force Cu   0.000290712552580  -0.000406247505029  -0.000476475738970 0
force Cu   0.000143265976123   0.000249030511522   0.000049032451193 0
force Cu   0.000182342064955   0.000461129097936  -0.000128774931001 0
force Cu  -0.000176432595148   0.000350915538787  -0.000057469441453 0
force Cu  -0.000035333737145   0.000314622541331  -0.000140923895773 0
force Cu   0.000128716742957   0.000207334796192   0.000269135667160 0
force Cu  -0.000069097942555   0.000135601121307   0.000406560782773 0
force Cu  -0.000026192908588   0.000309920642518   0.000294380024390 0
force Cu   0.000173999566192   0.000121154603614   0.000156811075767 0
force Cu  -0.000123699076321   0.000372338712844   0.000574756795600 0
force Cu  -0.000242273022669   0.000078461069879   0.000484272002130 0
force Cu  -0.000280689911801   0.000079692376183   0.000227098353350 0
force Cu  -0.000015792495186   0.000187735328037   0.000390184246963 0
force Cu  -0.000081769003362  -0.000026569433162   0.000577464742859 0
force Cu   0.000046469389738  -0.000111784426441  -0.000068836736163 0
force Cu  -0.000186206233474  -0.000075988584810  -0.000717588495311 0
force Cu  -0.000138524588365  -0.000046153046805  -0.000016808643261 0
force Cu  -0.000069554449040  -0.000206146201304   0.000025842488128 0
force Cu   0.000029253686676   0.000012389661130  -0.000655170563168 0
force Cu   0.000162700250386  -0.000169300707581   0.000024637647195 0
force Cu  -0.000132879811395  -0.000167245030751   0.001259207613905 0
force Cu   0.000373169545953   0.000213124728407  -0.000344649773015 0
force Cu   0.000024411644744   0.000515764942990  -0.000631101674083 0
force Cu  -0.000395510787063   0.000196270165041  -0.000074110836450 0
force Cu   0.000240696791646  -0.000259590223575  -0.000766394486933 0
force Cu   0.000142061725937  -0.000723742678669   0.000465948616428 0
force Cu   0.001348511407082  -0.000492261943733   0.001744465944981 0
force Cu   0.000192980637945   0.000293824757378  -0.000262207389320 0
force Cu  -0.001043556915540  -0.000489537069146   0.001757081516757 0
force Cu   0.000097493415560  -0.003096079368679  -0.007482090042232 0
force Cu  -0.000769703231148  -0.000043440273201  -0.001142400854911 0
force Cu   0.000063032723929   0.000485553665633   0.000789787882525 0
force Cu   0.000671367888035   0.000035910108118  -0.001152373671164 0
force Cu  -0.000230200529086   0.000470559713399   0.000657845329289 0
force Cu  -0.000153157809319   0.004642052575083   0.007822571062428 0
force Cu   0.000287441099225   0.000437342274002   0.000615867961286 0
force Cu  -0.000254807364647   0.002027632093424  -0.005196450598859 0
force C   0.000486324494498  -0.013839411173943   0.000050251768223 1  Linear 0 0 1
force O  -0.000702966010274   0.009281494518032  -0.000009076851385 1  Linear 0 0 1

# Energy components:
   A_diel =       -0.0025772879966757
   Eewald =    67647.7555758376838639
       EH =    75792.8851695322227897
     Eloc =  -154019.2598758053500205
      Enl =     1614.5470979480678579
     EvdW =       -0.6711503565212618
      Exc =     -859.2780139574969098
 Exc_core =        2.1654554035704132
       KE =      918.5974695340281642
-------------------------------------
     Etot =    -8903.2608491518003575
       TS =        0.0012345297969315
-------------------------------------
        F =    -8903.2620836815967778


Dumping 'jdft.fillings' ... done
Dumping 'jdft.wfns' ... done
Dumping 'jdft.fluidState' ... done
Dumping 'jdft.ionpos' ... done
Dumping 'jdft.lattice' ... done
Dumping 'jdft.eigenvals' ... done
Dumping 'jdft.eigStats' ... 
	eMin: -4.313390 at state 0 ( [ +0.000000 +0.000000 +0.000000 ] spin 1 )
	HOMO: -0.160093 at state 11 ( [ +0.000000 +0.333333 +0.000000 ] spin -1 )
	mu  : -0.158638
	LUMO: -0.158086 at state 2 ( [ +0.166667 +0.000000 +0.000000 ] spin 1 )
	eMax: +0.184785 at state 1 ( [ +0.000000 +0.333333 +0.000000 ] spin 1 )
	HOMO-LUMO gap: +0.002007
	Optical gap  : +0.002573 at state 2 ( [ +0.166667 +0.000000 +0.000000 ] spin 1 )
Dumping 'jdft.Ecomponents' ... done
IonicMinimize: Iter:   9  F: -8903.262083681596778  |grad|_K:  3.611e-05  alpha:  1.000e+00  linmin: -1.018e-03  t[s]:  34142.51
IonicMinimize: Converged (|grad|_K<1.000000e-04).

#--- Lowdin population analysis ---
# oxidation-state Cu +0.195 +0.129 +0.185 +0.131 +0.193 +0.188 +0.189 +0.188 +0.048 +0.050 +0.050 +0.047 +0.044 +0.045 +0.044 +0.045 +0.075 +0.076 +0.077 +0.076 +0.075 +0.076 +0.074 +0.075 +0.077 +0.074 +0.077 +0.075 +0.075 +0.077 +0.075 +0.074 +0.078 +0.074 +0.076 +0.074 +0.045 +0.044 +0.047 +0.044 +0.050 -0.016 +0.049 +0.070
# magnetic-moments Cu +0.000 -0.000 +0.000 +0.000 -0.000 -0.000 +0.000 +0.000 -0.000 +0.000 -0.000 +0.000 -0.000 +0.000 +0.000 +0.000 +0.000 -0.000 +0.000 -0.000 -0.000 -0.000 +0.000 +0.000 +0.000 -0.000 -0.000 -0.000 -0.000 -0.000 -0.000 -0.000 -0.000 +0.000 +0.000 +0.000 -0.000 +0.000 +0.000 -0.000 +0.000 -0.000 +0.000 -0.000
# oxidation-state C +0.327
# magnetic-moments C -0.000
# oxidation-state O -0.170
# magnetic-moments O +0.000


Dumping 'jdft.n_up' ... done
Dumping 'jdft.n_dn' ... done
Dumping 'jdft.tau_up' ... done
Dumping 'jdft.tau_dn' ... done
Dumping 'jdft.eigenvals' ... done
Dumping 'jdft.eigStats' ... 
	eMin: -4.313390 at state 0 ( [ +0.000000 +0.000000 +0.000000 ] spin 1 )
	HOMO: -0.160093 at state 11 ( [ +0.000000 +0.333333 +0.000000 ] spin -1 )
	mu  : -0.158638
	LUMO: -0.158086 at state 2 ( [ +0.166667 +0.000000 +0.000000 ] spin 1 )
	eMax: +0.184785 at state 1 ( [ +0.000000 +0.333333 +0.000000 ] spin 1 )
	HOMO-LUMO gap: +0.002007
	Optical gap  : +0.002573 at state 2 ( [ +0.166667 +0.000000 +0.000000 ] spin 1 )
Dumping 'jdft.kPts' ... done
Dumping 'jdft.kMap' ... done
Dumping 'jdft.dosUp' ... done.
Dumping 'jdft.dosDn' ... done.
End date and time: Thu Feb 17 11:58:41 2022  (Duration: 0-9:30:24.59)
Done!
