
*************** JDFTx 1.7.0 (git hash 5f12716a) ***************

Start date and time: Sat Sep 10 11:30:13 2022
Executable /home/nisi6161/jdftx_alpine/build/jdftx with command-line: -i in
Running on hosts (process indices):  c3cpu-a2-u32-3.rc.int.colorado.edu (0-23)
Divided in process groups (process indices):  0 (0)  1 (1)  2 (2)  3 (3)  4 (4)  5 (5)  6 (6)  7 (7)  8 (8)  9 (9)  10 (10)  11 (11)  12 (12)  13 (13)  14 (14)  15 (15)  16 (16)  17 (17)  18 (18)  19 (19)  20 (20)  21 (21)  22 (22)  23 (23)
Resource initialization completed at t[s]:      0.18
Run totals: 24 processes, 64 threads, 0 GPUs


Input parsed successfully to the following command list (including defaults):

basis kpoint-dependent
converge-empty-states yes
coords-type Cartesian
core-overlap-check none
coulomb-interaction Periodic
davidson-band-ratio 1.1
density-of-states Etol 1.000000e-06 Esigma 1.000000e-03 \
		Complete \
	Total \
	OrthoOrbital Pt 1   s \
	OrthoOrbital Pt 1   p \
	OrthoOrbital Pt 1   px \
	OrthoOrbital Pt 1   py \
	OrthoOrbital Pt 1   pz \
	OrthoOrbital Pt 1   d \
	OrthoOrbital Pt 1   dxy \
	OrthoOrbital Pt 1   dyz \
	OrthoOrbital Pt 1   dz2 \
	OrthoOrbital Pt 1   dxz \
	OrthoOrbital Pt 1   dx2-y2 \
	OrthoOrbital Pt 2   s \
	OrthoOrbital Pt 2   p \
	OrthoOrbital Pt 2   px \
	OrthoOrbital Pt 2   py \
	OrthoOrbital Pt 2   pz \
	OrthoOrbital Pt 2   d \
	OrthoOrbital Pt 2   dxy \
	OrthoOrbital Pt 2   dyz \
	OrthoOrbital Pt 2   dz2 \
	OrthoOrbital Pt 2   dxz \
	OrthoOrbital Pt 2   dx2-y2 \
	OrthoOrbital Pt 3   s \
	OrthoOrbital Pt 3   p \
	OrthoOrbital Pt 3   px \
	OrthoOrbital Pt 3   py \
	OrthoOrbital Pt 3   pz \
	OrthoOrbital Pt 3   d \
	OrthoOrbital Pt 3   dxy \
	OrthoOrbital Pt 3   dyz \
	OrthoOrbital Pt 3   dz2 \
	OrthoOrbital Pt 3   dxz \
	OrthoOrbital Pt 3   dx2-y2 \
	OrthoOrbital Pt 4   s \
	OrthoOrbital Pt 4   p \
	OrthoOrbital Pt 4   px \
	OrthoOrbital Pt 4   py \
	OrthoOrbital Pt 4   pz \
	OrthoOrbital Pt 4   d \
	OrthoOrbital Pt 4   dxy \
	OrthoOrbital Pt 4   dyz \
	OrthoOrbital Pt 4   dz2 \
	OrthoOrbital Pt 4   dxz \
	OrthoOrbital Pt 4   dx2-y2 \
	OrthoOrbital Pt 5   s \
	OrthoOrbital Pt 5   p \
	OrthoOrbital Pt 5   px \
	OrthoOrbital Pt 5   py \
	OrthoOrbital Pt 5   pz \
	OrthoOrbital Pt 5   d \
	OrthoOrbital Pt 5   dxy \
	OrthoOrbital Pt 5   dyz \
	OrthoOrbital Pt 5   dz2 \
	OrthoOrbital Pt 5   dxz \
	OrthoOrbital Pt 5   dx2-y2 \
	OrthoOrbital Pt 6   s \
	OrthoOrbital Pt 6   p \
	OrthoOrbital Pt 6   px \
	OrthoOrbital Pt 6   py \
	OrthoOrbital Pt 6   pz \
	OrthoOrbital Pt 6   d \
	OrthoOrbital Pt 6   dxy \
	OrthoOrbital Pt 6   dyz \
	OrthoOrbital Pt 6   dz2 \
	OrthoOrbital Pt 6   dxz \
	OrthoOrbital Pt 6   dx2-y2 \
	OrthoOrbital Pt 7   s \
	OrthoOrbital Pt 7   p \
	OrthoOrbital Pt 7   px \
	OrthoOrbital Pt 7   py \
	OrthoOrbital Pt 7   pz \
	OrthoOrbital Pt 7   d \
	OrthoOrbital Pt 7   dxy \
	OrthoOrbital Pt 7   dyz \
	OrthoOrbital Pt 7   dz2 \
	OrthoOrbital Pt 7   dxz \
	OrthoOrbital Pt 7   dx2-y2 \
	OrthoOrbital Pt 8   s \
	OrthoOrbital Pt 8   p \
	OrthoOrbital Pt 8   px \
	OrthoOrbital Pt 8   py \
	OrthoOrbital Pt 8   pz \
	OrthoOrbital Pt 8   d \
	OrthoOrbital Pt 8   dxy \
	OrthoOrbital Pt 8   dyz \
	OrthoOrbital Pt 8   dz2 \
	OrthoOrbital Pt 8   dxz \
	OrthoOrbital Pt 8   dx2-y2 \
	OrthoOrbital Pt 9   s \
	OrthoOrbital Pt 9   p \
	OrthoOrbital Pt 9   px \
	OrthoOrbital Pt 9   py \
	OrthoOrbital Pt 9   pz \
	OrthoOrbital Pt 9   d \
	OrthoOrbital Pt 9   dxy \
	OrthoOrbital Pt 9   dyz \
	OrthoOrbital Pt 9   dz2 \
	OrthoOrbital Pt 9   dxz \
	OrthoOrbital Pt 9   dx2-y2 \
	OrthoOrbital Pt 10   s \
	OrthoOrbital Pt 10   p \
	OrthoOrbital Pt 10   px \
	OrthoOrbital Pt 10   py \
	OrthoOrbital Pt 10   pz \
	OrthoOrbital Pt 10   d \
	OrthoOrbital Pt 10   dxy \
	OrthoOrbital Pt 10   dyz \
	OrthoOrbital Pt 10   dz2 \
	OrthoOrbital Pt 10   dxz \
	OrthoOrbital Pt 10   dx2-y2 \
	OrthoOrbital Pt 11   s \
	OrthoOrbital Pt 11   p \
	OrthoOrbital Pt 11   px \
	OrthoOrbital Pt 11   py \
	OrthoOrbital Pt 11   pz \
	OrthoOrbital Pt 11   d \
	OrthoOrbital Pt 11   dxy \
	OrthoOrbital Pt 11   dyz \
	OrthoOrbital Pt 11   dz2 \
	OrthoOrbital Pt 11   dxz \
	OrthoOrbital Pt 11   dx2-y2
dump End ElecDensity KEdensity BandEigs EigStats RhoAtom DOS Kpoints
dump Ionic State IonicPositions Lattice EigStats Ecomponents
dump 
dump 
dump 
dump 
dump 
dump 
dump 
dump 
dump-name jdft.$VAR
elec-cutoff 20
elec-eigen-algo Davidson
elec-ex-corr gga-PBE
elec-initial-magnetization 0.000000 no
elec-n-bands 106
elec-smearing Fermi 0.001
electronic-minimize  \
	dirUpdateScheme      FletcherReeves \
	linminMethod         DirUpdateRecommended \
	nIterations          100 \
	history              15 \
	knormThreshold       0 \
	energyDiffThreshold  1e-07 \
	nEnergyDiff          2 \
	alphaTstart          1 \
	alphaTmin            1e-10 \
	updateTestStepSize   yes \
	alphaTreduceFactor   0.1 \
	alphaTincreaseFactor 3 \
	nAlphaAdjustMax      3 \
	wolfeEnergy          0.0001 \
	wolfeGradient        0.9 \
	fdTest               no
exchange-regularization WignerSeitzTruncated
fluid LinearPCM 298.000000 1.013250
fluid-anion F- 0.5 MeanFieldLJ \
	epsBulk 1 \
	pMol 0 \
	epsInf 1 \
	Pvap 0 \
	sigmaBulk 0 \
	Rvdw 2.24877 \
	Res 0 \
	tauNuc 343133
fluid-cation Na+ 0.5 MeanFieldLJ \
	epsBulk 1 \
	pMol 0 \
	epsInf 1 \
	Pvap 0 \
	sigmaBulk 0 \
	Rvdw 2.19208 \
	Res 0 \
	tauNuc 343133
fluid-ex-corr lda-TF lda-PZ
fluid-gummel-loop 10 1.000000e-05
fluid-minimize  \
	dirUpdateScheme      PolakRibiere \
	linminMethod         DirUpdateRecommended \
	nIterations          400 \
	history              15 \
	knormThreshold       1e-11 \
	energyDiffThreshold  0 \
	nEnergyDiff          2 \
	alphaTstart          1 \
	alphaTmin            1e-10 \
	updateTestStepSize   yes \
	alphaTreduceFactor   0.1 \
	alphaTincreaseFactor 3 \
	nAlphaAdjustMax      6 \
	wolfeEnergy          0.0001 \
	wolfeGradient        0.9 \
	fdTest               no
fluid-solvent H2O 55.338 ScalarEOS \
	epsBulk 78.4 \
	pMol 0.92466 \
	epsInf 1.77 \
	Pvap 1.06736e-10 \
	sigmaBulk 4.62e-05 \
	Rvdw 2.61727 \
	Res 1.42 \
	tauNuc 343133 \
	poleEl 15 7 1
forces-output-coords Positions
initial-state jdft.$VAR
ion Pt   5.239595000000000   0.280253000000000  23.222839000000004 1
ion Pt  -0.007683000000000   4.453197000000000   1.317884000000000 1
ion Pt   2.607096000000000   0.501949000000000   3.042523000000000 1
ion Pt   2.610994000000000   5.481510000000000   5.631836000000000 1
ion Pt  -0.002477000000000   1.548430000000000   7.767131000000001 1
ion Pt  -0.002610000000000   6.306530000000001  10.051066000000002 1
ion Pt   2.616218000000000   2.365120000000000  12.270582000000001 1
ion Pt   2.618706000000000   7.104114000000001  14.489142000000001 1
ion Pt   0.002603000000000   3.182625000000000  16.772635000000001 1
ion Pt   0.004942000000000   7.927615000000001  18.907856000000002 1
ion Pt   2.624597000000001   4.230078000000000  21.497979999999998 1
ion-species /projects/musgravc/apps/jdftx-1.6.0/build/pseudopotentials/GBRV_v1.5/$ID_pbe_v1.uspp
ion-species /projects/musgravc/apps/jdftx-1.6.0/build/pseudopotentials/GBRV_v1.5/$ID_pbe_v1.2.uspp
ion-species /projects/musgravc/apps/jdftx-1.6.0/build/pseudopotentials/GBRV_v1.5/$ID_pbe_v1.4.uspp
ion-species /projects/musgravc/apps/jdftx-1.6.0/build/pseudopotentials/GBRV_v1.5/$ID_pbe_v1.5.uspp
ion-width Ecut
ionic-minimize  \
	dirUpdateScheme      L-BFGS \
	linminMethod         DirUpdateRecommended \
	nIterations          100 \
	history              15 \
	knormThreshold       0.0001 \
	energyDiffThreshold  0.0001 \
	nEnergyDiff          2 \
	alphaTstart          1 \
	alphaTmin            1e-10 \
	updateTestStepSize   yes \
	alphaTreduceFactor   0.1 \
	alphaTincreaseFactor 3 \
	nAlphaAdjustMax      3 \
	wolfeEnergy          0.0001 \
	wolfeGradient        0.9 \
	fdTest               no
kpoint   0.000000000000   0.000000000000   0.000000000000  1.00000000000000
kpoint-folding 13 7 1 
latt-move-scale 0 0 0
latt-scale 1 1 1 
lattice  \
	   5.231996000000000   -2.615997000000000    0.000000000000000  \
	   0.000000000000000    8.676283000000000    0.000000000000000  \
	   0.000000000000000    0.000000000000000   73.620697000000007 
lattice-minimize  \
	dirUpdateScheme      L-BFGS \
	linminMethod         DirUpdateRecommended \
	nIterations          0 \
	history              15 \
	knormThreshold       0 \
	energyDiffThreshold  1e-06 \
	nEnergyDiff          2 \
	alphaTstart          1 \
	alphaTmin            1e-10 \
	updateTestStepSize   yes \
	alphaTreduceFactor   0.1 \
	alphaTincreaseFactor 3 \
	nAlphaAdjustMax      3 \
	wolfeEnergy          0.0001 \
	wolfeGradient        0.9 \
	fdTest               no
lcao-params 30 1e-06 0.001
pcm-variant CANDLE
spintype z-spin
subspace-rotation-factor 1 yes
symmetries automatic
symmetry-threshold 0.0001
target-mu -0.1345 no

van-der-waals D3



---------- Setting up symmetries ----------

Found 8 point-group symmetries of the bravais lattice
Found 1 space-group symmetries with basis
Applied RMS atom displacement 0 bohrs to make symmetries exact.

---------- Initializing the Grid ----------
R = 
[        5.232       -2.616            0  ]
[            0      8.67628            0  ]
[            0            0      73.6207  ]
unit cell volume = 3341.96
G =
[    1.20092    0.36209         -0  ]
[          0   0.724179          0  ]
[          0         -0  0.0853454  ]
Minimum fftbox size, Smin = [  24  40  300  ]
Chosen fftbox size, S = [  24  40  300  ]

---------- Exchange Correlation functional ----------
Initalized PBE GGA exchange.
Initalized PBE GGA correlation.

---------- Setting up pseudopotentials ----------
Width of ionic core gaussian charges (only for fluid interactions / plotting) set to 0.397384

Reading pseudopotential file '/projects/musgravc/apps/jdftx-1.6.0/build/pseudopotentials/GBRV_v1.5/pt_pbe_v1.4.uspp':
  Title: Pt.  Created by USPP 7.3.6 on 31-3-15
  Reference state energy: -105.002503.  16 valence electrons in orbitals:
    |510>  occupation: 6  eigenvalue: -2.158104
    |520>  occupation: 9.5  eigenvalue: -0.335376
    |600>  occupation: 0  eigenvalue: -0.319640
    |610>  occupation: 0  eigenvalue: -0.122947
  lMax: 2  lLocal: 3  QijEcut: 5.5
  6 projectors sampled on a log grid with 745 points:
    l: 0  eig: -0.319640  rCut: 2.45
    l: 0  eig: 1.500000  rCut: 2.45
    l: 1  eig: -2.158104  rCut: 1.6
    l: 1  eig: -0.122947  rCut: 1.6
    l: 2  eig: -0.500000  rCut: 1.6
    l: 2  eig: -0.335375  rCut: 1.6
  Partial core density with radius 1.1
  Transforming core density to a uniform radial grid of dG=0.02 with 1353 points.
  Transforming local potential to a uniform radial grid of dG=0.02 with 1353 points.
  Transforming nonlocal projectors to a uniform radial grid of dG=0.02 with 432 points.
  Transforming density augmentations to a uniform radial grid of dG=0.02 with 1353 points.
  Transforming atomic orbitals to a uniform radial grid of dG=0.02 with 432 points.
  Core radius for overlap checks: 2.45 bohrs.

Initialized 1 species with 11 total atoms.

Folded 1 k-points by 13x7x1 to 91 k-points.

---------- Setting up k-points, bands, fillings ----------
Adding inversion symmetry to k-mesh for non-inversion-symmetric unit cell.
Reduced to 46 k-points under symmetry. 
Computing the number of bands and number of electrons
Reading initial fillings from file jdft.fillings.
nElectrons: 175.729544   nBands: 106   nStates: 92

----- Setting up reduced wavefunction bases (one per k-point) -----
average nbasis = 14277.418 , ideal nbasis = 14277.101

----- Initializing Supercell corresponding to k-point mesh -----
Lattice vector linear combinations in supercell:
[  13   0   0  ]
[   0   7   0  ]
[   0   0   1  ]
Supercell lattice vectors:
[  68.0159  -18.312  0  ]
[  0  60.734  0  ]
[  0  0  73.6207  ]

Initializing DFT-D3 calculator:
	Parameters set for gga-PBE functional
	s6:  1.000  s_r6:  1.217
	s8:  0.722  s_r8:  1.000
	Per-atom parameters loaded for:
	Pt:  sqrtQ[a0]:  5.888  Rcov[a0]:  2.116  CN: [ 0.00 1.92 6.67 ]

Initializing DFT-D2 calculator for fluid / solvation:
	Pt:  C6:  815.23 Eh-a0^6  R0: 3.326 a0 (WARNING: beyond Grimme's data set)

---------- Setting up ewald sum ----------
Optimum gaussian width for ewald sums = 3.999555 bohr.
Real space sum over 1235 unit cells with max indices [  9  6  2  ]
Reciprocal space sum over 4543 terms with max indices [  3  5  29  ]

Computing DFT-D3 correction:
# coordination-number Pt 5.968 5.969 7.630 9.467 9.211 9.585 9.494 9.587 9.211 9.467 7.628
# diagonal-C6 Pt 336.87 336.87 336.87 336.87 336.87 336.87 336.87 336.87 336.87 336.87 336.87
EvdW_6 =   -0.096209
EvdW_8 =   -0.155943

---------- Allocating electronic variables ----------
Initializing wave functions:  reading from 'jdft.wfns'
----- createFluidSolver() ----- (Fluid-side solver setup)
   Initializing fluid molecule 'H2O'
     Initializing site 'O'
       Electron density: proportional to exp(-r/0.36935)*erfc((r-0.51523)/0.36823) with norm 6.826
       Charge density: gaussian nuclear width 0.478731 with net site charge 0.826
       Polarizability: cuspless exponential with width 0.32 and norm 3.73
       Hard sphere radius: 2.57003 bohrs
       Positions in reference frame:
         [ +0.000000 +0.000000 +0.000000 ]
     Initializing site 'H'
       Electron density: proportional to exp(-r/0.34641)*erfc((r-0)/0.390882) with norm 0.587
       Charge density: gaussian nuclear width 0.377945 with net site charge -0.413
       Polarizability: cuspless exponential with width 0.39 and norm 3.3
       Positions in reference frame:
         [ +0.000000 -1.441945 +1.122523 ]
         [ +0.000000 +1.441945 +1.122523 ]
     Net charge: 0   dipole magnitude: 0.927204
     Initializing spherical shell mfKernel with radius 2.61727 Bohr
     deltaS corrections:
       site 'O': -7.54299
       site 'H': -6.83917
   Initializing fluid molecule 'Na+'
     Initializing site 'Na'
       Electron density: proportional to exp(-r/0.19682)*erfc((r-0.71491)/0.41314) with norm 8.1383
       Charge density: gaussian nuclear width 0.365347 with net site charge -1
       Hard sphere radius: 1.86327 bohrs
       Positions in reference frame:
         [ +0.000000 +0.000000 +0.000000 ]
     Net charge: -1   dipole magnitude: 0
     Initializing gaussian mfKernel with width: 1.55004 Bohr
     deltaS corrections:
       site 'Na': -22.3555
   Initializing fluid molecule 'F-'
     Initializing site 'F'
       Electron density: proportional to exp(-r/0.38886)*erfc((r-0)/0.438782) with norm 8
       Charge density: gaussian nuclear width 0.374796 with net site charge 1
       Hard sphere radius: 2.39995 bohrs
       Positions in reference frame:
         [ +0.000000 +0.000000 +0.000000 ]
     Net charge: 1   dipole magnitude: 0
     Initializing gaussian mfKernel with width: 1.59012 Bohr
     deltaS corrections:
       site 'F': -9.04335

Correction to mu due to finite nuclear width = -0.052253
   Cavity determined by nc: 0.00142 and sigma: 0.707107
   Nonlocal vdW cavity from gaussian model electron density with norm = 8 and sigma = 0.993594 bohr
   Charge asymmetry in cavity with sensitivity pCavity = 36.5 e-bohr/Eh
   Electrostatic cavity expanded by eta = 1.46 bohrs
   Weighted density cavitation model constrained by Nbulk: 0.0049383 bohr^-3, Pvap: 3.14029 kPa, Rvdw: 2.61727 bohr and sigmaBulk: 4.62e-05 Eh/bohr^2 at T: 298 K.
   Weighted density dispersion model using vdW pair potentials with single solvent site with sqrtC6eff: 0.77 SI.
Reading fluid state from 'jdft.fluidState'


---- Citations for features of the code used in this run ----

   Software package:
      R. Sundararaman, K. Letchworth-Weaver, K.A. Schwarz, D. Gunceler, Y. Ozhabes and T.A. Arias, 'JDFTx: software for joint density-functional theory', SoftwareX 6, 278 (2017)

   gga-PBE exchange-correlation functional:
      J.P. Perdew, K. Burke and M. Ernzerhof, Phys. Rev. Lett. 77, 3865 (1996)

   Pseudopotentials:
      KF Garrity, JW Bennett, KM Rabe and D Vanderbilt, Comput. Mater. Sci. 81, 446 (2014)

   DFT-D3 dispersion correction:
      S. Grimme, J. Antony, S. Ehrlich and H. Krieg, J. Chem. Phys. 132, 154104 (2010)

   DFT-D2 dispersion correction:
      S. Grimme, J. Comput. Chem. 27, 1787 (2006)

   Charge-asymmetric nonlocally-determined local-electric (CANDLE) solvation model:
      R. Sundararaman and W.A. Goddard III, J. Chem. Phys. 142, 064107 (2015)

   Total energy minimization with Auxiliary Hamiltonian:
      C. Freysoldt, S. Boeck, and J. Neugebauer, Phys. Rev. B 79, 241103(R) (2009)

   Grand-canonical (fixed-potential) DFT:
      R. Sundararaman, W. A. Goddard III and T. A. Arias, J. Chem. Phys. 146, 114104 (2017)

   Linear-tetrahedron sampling for density of states:
      G. Lehmann and M. Taut, Phys. status solidi (b) 54, 469 (1972)

This list may not be complete. Please suggest additional citations or
report any other bugs at https://github.com/shankar1729/jdftx/issues

Initialization completed successfully at t[s]:     10.35


Computing DFT-D3 correction:
# coordination-number Pt 5.968 5.969 7.630 9.467 9.211 9.585 9.494 9.587 9.211 9.467 7.628
# diagonal-C6 Pt 336.87 336.87 336.87 336.87 336.87 336.87 336.87 336.87 336.87 336.87 336.87
EvdW_6 =   -0.096209
EvdW_8 =   -0.155943
Shifting auxilliary hamiltonian by 0.110299 to set nElectrons=175.729544

-------- Electronic minimization -----------
	Linear fluid (dielectric constant: 78.4, screening length: 8.12261 Bohr) occupying 0.560383 of unit cell:	Completed after 22 iterations at t[s]:     22.65
	FillingsUpdate:  mu: -0.134500000  nElectrons: 175.729544  magneticMoment: [ Abs: 0.00024  Tot: +0.00014 ]
ElecMinimize: Iter:   0  G: -954.935157068822264  |grad|_K:  1.584e-04  alpha:  1.000e+00
	Linear fluid (dielectric constant: 78.4, screening length: 8.12261 Bohr) occupying 0.602647 of unit cell:	Completed after 30 iterations at t[s]:     64.65
	Linear fluid (dielectric constant: 78.4, screening length: 8.12261 Bohr) occupying 0.607827 of unit cell:	Completed after 35 iterations at t[s]:     81.37
ElecMinimize: 	Step increased G by 2.722861e+00, reducing alpha to 5.571017e-03.
	Linear fluid (dielectric constant: 78.4, screening length: 8.12261 Bohr) occupying 0.562849 of unit cell:	Completed after 26 iterations at t[s]:    117.66
ElecMinimize: 	Step increased G by 1.748636e-02, reducing alpha to 5.571017e-04.
	Linear fluid (dielectric constant: 78.4, screening length: 8.12261 Bohr) occupying 0.560371 of unit cell:	Completed after 23 iterations at t[s]:    153.71
	FillingsUpdate:  mu: -0.134500000  nElectrons: 175.767042  magneticMoment: [ Abs: 0.00024  Tot: +0.00014 ]
	SubspaceRotationAdjust: set factor to 0.527
ElecMinimize: Iter:   1  G: -954.938469515958786  |grad|_K:  1.116e-04  alpha:  5.571e-04  linmin: -8.699e-02  t[s]:    175.18
	Linear fluid (dielectric constant: 78.4, screening length: 8.12261 Bohr) occupying 0.560355 of unit cell:	Completed after 15 iterations at t[s]:    191.90
	Linear fluid (dielectric constant: 78.4, screening length: 8.12261 Bohr) occupying 0.560338 of unit cell:	Completed after 15 iterations at t[s]:    206.36
	FillingsUpdate:  mu: -0.134500000  nElectrons: 175.858483  magneticMoment: [ Abs: 0.00024  Tot: +0.00014 ]
	SubspaceRotationAdjust: set factor to 0.425
ElecMinimize: Iter:   2  G: -954.941897806805628  |grad|_K:  4.283e-05  alpha:  1.155e-03  linmin: -1.092e-03  t[s]:    227.81
	Linear fluid (dielectric constant: 78.4, screening length: 8.12261 Bohr) occupying 0.560326 of unit cell:	Completed after 15 iterations at t[s]:    244.47
ElecMinimize: 	Predicted alpha/alphaT>3.000000, increasing alphaT to 3.466118e-03.
	Linear fluid (dielectric constant: 78.4, screening length: 8.12261 Bohr) occupying 0.560301 of unit cell:	Completed after 18 iterations at t[s]:    259.41
ElecMinimize: 	Predicted alpha/alphaT>3.000000, increasing alphaT to 1.039835e-02.
	Linear fluid (dielectric constant: 78.4, screening length: 8.12261 Bohr) occupying 0.560226 of unit cell:	Completed after 20 iterations at t[s]:    274.54
	Linear fluid (dielectric constant: 78.4, screening length: 8.12261 Bohr) occupying 0.560213 of unit cell:	Completed after 16 iterations at t[s]:    289.25
	FillingsUpdate:  mu: -0.134500000  nElectrons: 175.968188  magneticMoment: [ Abs: 0.00024  Tot: +0.00014 ]
	SubspaceRotationAdjust: set factor to 0.237
ElecMinimize: Iter:   3  G: -954.944953065539607  |grad|_K:  8.316e-05  alpha:  1.169e-02  linmin: -3.703e-04  t[s]:    310.78
	Linear fluid (dielectric constant: 78.4, screening length: 8.12261 Bohr) occupying 0.564761 of unit cell:	Completed after 25 iterations at t[s]:    328.57
	Linear fluid (dielectric constant: 78.4, screening length: 8.12261 Bohr) occupying 0.564736 of unit cell:	Completed after 5 iterations at t[s]:    342.09
	FillingsUpdate:  mu: -0.134500000  nElectrons: 176.135244  magneticMoment: [ Abs: 0.00024  Tot: +0.00016 ]
	SubspaceRotationAdjust: set factor to 0.153
ElecMinimize: Iter:   4  G: -954.956364676809017  |grad|_K:  4.878e-05  alpha:  1.166e-02  linmin: -1.799e-03  t[s]:    363.46
	Linear fluid (dielectric constant: 78.4, screening length: 8.12261 Bohr) occupying 0.561753 of unit cell:	Completed after 22 iterations at t[s]:    381.04
	Linear fluid (dielectric constant: 78.4, screening length: 8.12261 Bohr) occupying 0.562406 of unit cell:	Completed after 19 iterations at t[s]:    396.03
	FillingsUpdate:  mu: -0.134500000  nElectrons: 176.101476  magneticMoment: [ Abs: 0.00024  Tot: +0.00016 ]
	SubspaceRotationAdjust: set factor to 0.149
ElecMinimize: Iter:   5  G: -954.959456682656992  |grad|_K:  3.041e-05  alpha:  8.746e-03  linmin:  1.674e-04  t[s]:    417.53
	Linear fluid (dielectric constant: 78.4, screening length: 8.12261 Bohr) occupying 0.561690 of unit cell:	Completed after 19 iterations at t[s]:    434.68
ElecMinimize: 	Predicted alpha/alphaT>3.000000, increasing alphaT to 2.623808e-02.
	Linear fluid (dielectric constant: 78.4, screening length: 8.12261 Bohr) occupying 0.560480 of unit cell:	Completed after 21 iterations at t[s]:    449.95
	Linear fluid (dielectric constant: 78.4, screening length: 8.12261 Bohr) occupying 0.560092 of unit cell:	Completed after 19 iterations at t[s]:    464.89
	FillingsUpdate:  mu: -0.134500000  nElectrons: 176.058843  magneticMoment: [ Abs: 0.00023  Tot: +0.00016 ]
	SubspaceRotationAdjust: set factor to 0.0837
	SubspaceRotationAdjust: resetting CG because factor has changed by 0.0837211
	Linear fluid (dielectric constant: 78.4, screening length: 8.12261 Bohr) occupying 0.560092 of unit cell:	Completed after 0 iterations at t[s]:    495.18
ElecMinimize: 	State modified externally: resetting search direction.
ElecMinimize: Iter:   6  G: -954.963697281939176  |grad|_K:  4.161e-05  alpha:  3.314e-02
	Linear fluid (dielectric constant: 78.4, screening length: 8.12261 Bohr) occupying 0.567389 of unit cell:	Completed after 23 iterations at t[s]:    534.10
	Linear fluid (dielectric constant: 78.4, screening length: 8.12261 Bohr) occupying 0.566959 of unit cell:	Completed after 15 iterations at t[s]:    548.75
	FillingsUpdate:  mu: -0.134500000  nElectrons: 176.172051  magneticMoment: [ Abs: 0.00023  Tot: +0.00016 ]
	SubspaceRotationAdjust: set factor to 0.09
ElecMinimize: Iter:   7  G: -954.971364368887976  |grad|_K:  2.160e-05  alpha:  3.178e-02  linmin: -7.311e-03  t[s]:    570.25
	Linear fluid (dielectric constant: 78.4, screening length: 8.12261 Bohr) occupying 0.565376 of unit cell:	Completed after 21 iterations at t[s]:    587.62
ElecMinimize: 	Predicted alpha/alphaT>3.000000, increasing alphaT to 9.533701e-02.
	Linear fluid (dielectric constant: 78.4, screening length: 8.12261 Bohr) occupying 0.562575 of unit cell:	Completed after 22 iterations at t[s]:    602.95
	Linear fluid (dielectric constant: 78.4, screening length: 8.12261 Bohr) occupying 0.559250 of unit cell:	Completed after 22 iterations at t[s]:    618.43
	FillingsUpdate:  mu: -0.134500000  nElectrons: 176.059112  magneticMoment: [ Abs: 0.00023  Tot: +0.00015 ]
	SubspaceRotationAdjust: set factor to 0.0745
ElecMinimize: Iter:   8  G: -954.985126258948753  |grad|_K:  9.533e-06  alpha:  2.079e-01  linmin:  1.000e-02  t[s]:    639.97
	Linear fluid (dielectric constant: 78.4, screening length: 8.12261 Bohr) occupying 0.557942 of unit cell:	Completed after 23 iterations at t[s]:    657.56
	Linear fluid (dielectric constant: 78.4, screening length: 8.12261 Bohr) occupying 0.558258 of unit cell:	Completed after 21 iterations at t[s]:    672.80
	FillingsUpdate:  mu: -0.134500000  nElectrons: 176.032401  magneticMoment: [ Abs: 0.00022  Tot: +0.00015 ]
	SubspaceRotationAdjust: set factor to 0.0408
ElecMinimize: Iter:   9  G: -954.986837335464656  |grad|_K:  1.519e-05  alpha:  1.387e-01  linmin:  1.538e-05  t[s]:    694.23
	Linear fluid (dielectric constant: 78.4, screening length: 8.12261 Bohr) occupying 0.566296 of unit cell:	Completed after 25 iterations at t[s]:    712.13
	Linear fluid (dielectric constant: 78.4, screening length: 8.12261 Bohr) occupying 0.560365 of unit cell:	Completed after 23 iterations at t[s]:    727.61
	FillingsUpdate:  mu: -0.134500000  nElectrons: 176.106157  magneticMoment: [ Abs: 0.00022  Tot: +0.00015 ]
	SubspaceRotationAdjust: set factor to 0.0325
ElecMinimize: Iter:  10  G: -954.988777806638268  |grad|_K:  6.788e-06  alpha:  6.480e-02  linmin:  4.173e-03  t[s]:    749.11
	Linear fluid (dielectric constant: 78.4, screening length: 8.12261 Bohr) occupying 0.560640 of unit cell:	Completed after 19 iterations at t[s]:    766.23
ElecMinimize: 	Predicted alpha/alphaT>3.000000, increasing alphaT to 1.944083e-01.
	Linear fluid (dielectric constant: 78.4, screening length: 8.12261 Bohr) occupying 0.561353 of unit cell:	Completed after 21 iterations at t[s]:    781.53
	Linear fluid (dielectric constant: 78.4, screening length: 8.12261 Bohr) occupying 0.562684 of unit cell:	Completed after 22 iterations at t[s]:    796.85
	FillingsUpdate:  mu: -0.134500000  nElectrons: 176.159519  magneticMoment: [ Abs: 0.00022  Tot: +0.00016 ]
	SubspaceRotationAdjust: set factor to 0.0312
ElecMinimize: Iter:  11  G: -954.991126676373938  |grad|_K:  5.290e-06  alpha:  3.766e-01  linmin: -6.933e-04  t[s]:    818.36
	Linear fluid (dielectric constant: 78.4, screening length: 8.12261 Bohr) occupying 0.565892 of unit cell:	Completed after 23 iterations at t[s]:    835.93
	Linear fluid (dielectric constant: 78.4, screening length: 8.12261 Bohr) occupying 0.569054 of unit cell:	Completed after 23 iterations at t[s]:    851.41
	FillingsUpdate:  mu: -0.134500000  nElectrons: 176.248499  magneticMoment: [ Abs: 0.00021  Tot: +0.00016 ]
	SubspaceRotationAdjust: set factor to 0.034
ElecMinimize: Iter:  12  G: -954.993901536697535  |grad|_K:  6.106e-06  alpha:  7.031e-01  linmin:  1.011e-03  t[s]:    872.90
	Linear fluid (dielectric constant: 78.4, screening length: 8.12261 Bohr) occupying 0.572022 of unit cell:	Completed after 25 iterations at t[s]:    890.64
	Linear fluid (dielectric constant: 78.4, screening length: 8.12261 Bohr) occupying 0.570636 of unit cell:	Completed after 24 iterations at t[s]:    906.20
	FillingsUpdate:  mu: -0.134500000  nElectrons: 176.279660  magneticMoment: [ Abs: 0.00020  Tot: +0.00016 ]
	SubspaceRotationAdjust: set factor to 0.0253
ElecMinimize: Iter:  13  G: -954.995714113400027  |grad|_K:  7.820e-06  alpha:  3.478e-01  linmin: -1.034e-05  t[s]:    927.69
	Linear fluid (dielectric constant: 78.4, screening length: 8.12261 Bohr) occupying 0.586528 of unit cell:	Completed after 29 iterations at t[s]:    946.01
	Linear fluid (dielectric constant: 78.4, screening length: 8.12261 Bohr) occupying 0.577627 of unit cell:	Completed after 25 iterations at t[s]:    961.67
	FillingsUpdate:  mu: -0.134500000  nElectrons: 176.356798  magneticMoment: [ Abs: 0.00020  Tot: +0.00016 ]
	SubspaceRotationAdjust: set factor to 0.0182
ElecMinimize: Iter:  14  G: -954.996842082869534  |grad|_K:  4.897e-06  alpha:  1.269e-01  linmin: -5.284e-04  t[s]:    983.18
	Linear fluid (dielectric constant: 78.4, screening length: 8.12261 Bohr) occupying 0.579056 of unit cell:	Completed after 21 iterations at t[s]:   1000.47
ElecMinimize: 	Predicted alpha/alphaT>3.000000, increasing alphaT to 3.808476e-01.
	Linear fluid (dielectric constant: 78.4, screening length: 8.12261 Bohr) occupying 0.581617 of unit cell:	Completed after 25 iterations at t[s]:   1016.20
	Linear fluid (dielectric constant: 78.4, screening length: 8.12261 Bohr) occupying 0.581773 of unit cell:	Completed after 13 iterations at t[s]:   1030.49
	FillingsUpdate:  mu: -0.134500000  nElectrons: 176.415192  magneticMoment: [ Abs: 0.00020  Tot: +0.00017 ]
	SubspaceRotationAdjust: set factor to 0.0229
ElecMinimize: Iter:  15  G: -954.998188354946933  |grad|_K:  4.442e-06  alpha:  3.976e-01  linmin:  1.197e-03  t[s]:   1051.93
	Linear fluid (dielectric constant: 78.4, screening length: 8.12261 Bohr) occupying 0.580590 of unit cell:	Completed after 25 iterations at t[s]:   1069.67
	Linear fluid (dielectric constant: 78.4, screening length: 8.12261 Bohr) occupying 0.581017 of unit cell:	Completed after 22 iterations at t[s]:   1085.15
	FillingsUpdate:  mu: -0.134500000  nElectrons: 176.412023  magneticMoment: [ Abs: 0.00019  Tot: +0.00016 ]
	SubspaceRotationAdjust: set factor to 0.0194
ElecMinimize: Iter:  16  G: -954.998884437895754  |grad|_K:  5.144e-06  alpha:  2.600e-01  linmin:  1.230e-04  t[s]:   1106.59
	Linear fluid (dielectric constant: 78.4, screening length: 8.12261 Bohr) occupying 0.583244 of unit cell:	Completed after 21 iterations at t[s]:   1123.85
	Linear fluid (dielectric constant: 78.4, screening length: 8.12261 Bohr) occupying 0.583723 of unit cell:	Completed after 16 iterations at t[s]:   1138.54
	FillingsUpdate:  mu: -0.134500000  nElectrons: 176.454443  magneticMoment: [ Abs: 0.00019  Tot: +0.00016 ]
	SubspaceRotationAdjust: set factor to 0.0205
ElecMinimize: Iter:  17  G: -955.000081066106304  |grad|_K:  4.357e-06  alpha:  3.219e-01  linmin: -9.275e-04  t[s]:   1159.96
	Linear fluid (dielectric constant: 78.4, screening length: 8.12261 Bohr) occupying 0.584906 of unit cell:	Completed after 25 iterations at t[s]:   1177.84
	Linear fluid (dielectric constant: 78.4, screening length: 8.12261 Bohr) occupying 0.585502 of unit cell:	Completed after 23 iterations at t[s]:   1193.27
	FillingsUpdate:  mu: -0.134500000  nElectrons: 176.487377  magneticMoment: [ Abs: 0.00018  Tot: +0.00016 ]
	SubspaceRotationAdjust: set factor to 0.022
ElecMinimize: Iter:  18  G: -955.001456658933080  |grad|_K:  4.596e-06  alpha:  5.006e-01  linmin: -2.716e-04  t[s]:   1214.79
	Linear fluid (dielectric constant: 78.4, screening length: 8.12261 Bohr) occupying 0.584242 of unit cell:	Completed after 25 iterations at t[s]:   1232.55
	Linear fluid (dielectric constant: 78.4, screening length: 8.12261 Bohr) occupying 0.584604 of unit cell:	Completed after 18 iterations at t[s]:   1247.55
	FillingsUpdate:  mu: -0.134500000  nElectrons: 176.480274  magneticMoment: [ Abs: 0.00018  Tot: +0.00016 ]
	SubspaceRotationAdjust: set factor to 0.0189
ElecMinimize: Iter:  19  G: -955.002536714607345  |grad|_K:  5.655e-06  alpha:  3.623e-01  linmin: -9.684e-05  t[s]:   1269.07
	Linear fluid (dielectric constant: 78.4, screening length: 8.12261 Bohr) occupying 0.587963 of unit cell:	Completed after 27 iterations at t[s]:   1287.05
	Linear fluid (dielectric constant: 78.4, screening length: 8.12261 Bohr) occupying 0.587971 of unit cell:	Completed after 3 iterations at t[s]:   1300.21
	FillingsUpdate:  mu: -0.134500000  nElectrons: 176.541844  magneticMoment: [ Abs: 0.00017  Tot: +0.00015 ]
	SubspaceRotationAdjust: set factor to 0.0154
ElecMinimize: Iter:  20  G: -955.004167866680859  |grad|_K:  5.291e-06  alpha:  3.633e-01  linmin:  1.662e-03  t[s]:   1321.60
	Linear fluid (dielectric constant: 78.4, screening length: 8.12261 Bohr) occupying 0.588470 of unit cell:	Completed after 24 iterations at t[s]:   1339.36
	Linear fluid (dielectric constant: 78.4, screening length: 8.12261 Bohr) occupying 0.588548 of unit cell:	Completed after 15 iterations at t[s]:   1353.95
	FillingsUpdate:  mu: -0.134500000  nElectrons: 176.564367  magneticMoment: [ Abs: 0.00015  Tot: +0.00014 ]
	SubspaceRotationAdjust: set factor to 0.0163
ElecMinimize: Iter:  21  G: -955.005647009344784  |grad|_K:  4.541e-06  alpha:  4.110e-01  linmin: -4.689e-04  t[s]:   1375.41
	Linear fluid (dielectric constant: 78.4, screening length: 8.12261 Bohr) occupying 0.588862 of unit cell:	Completed after 24 iterations at t[s]:   1393.03
	Linear fluid (dielectric constant: 78.4, screening length: 8.12261 Bohr) occupying 0.588906 of unit cell:	Completed after 15 iterations at t[s]:   1408.18
	FillingsUpdate:  mu: -0.134500000  nElectrons: 176.584448  magneticMoment: [ Abs: 0.00014  Tot: +0.00013 ]
	SubspaceRotationAdjust: set factor to 0.017
ElecMinimize: Iter:  22  G: -955.006974210178214  |grad|_K:  4.062e-06  alpha:  4.501e-01  linmin: -4.855e-04  t[s]:   1429.67
	Linear fluid (dielectric constant: 78.4, screening length: 8.12261 Bohr) occupying 0.590475 of unit cell:	Completed after 26 iterations at t[s]:   1447.56
	Linear fluid (dielectric constant: 78.4, screening length: 8.12261 Bohr) occupying 0.590300 of unit cell:	Completed after 16 iterations at t[s]:   1462.25
	FillingsUpdate:  mu: -0.134500000  nElectrons: 176.625836  magneticMoment: [ Abs: 0.00014  Tot: +0.00013 ]
	SubspaceRotationAdjust: set factor to 0.0153
ElecMinimize: Iter:  23  G: -955.007917961701196  |grad|_K:  4.191e-06  alpha:  3.999e-01  linmin:  9.966e-05  t[s]:   1483.69
	Linear fluid (dielectric constant: 78.4, screening length: 8.12261 Bohr) occupying 0.590013 of unit cell:	Completed after 24 iterations at t[s]:   1501.31
	Linear fluid (dielectric constant: 78.4, screening length: 8.12261 Bohr) occupying 0.590056 of unit cell:	Completed after 16 iterations at t[s]:   1516.09
	FillingsUpdate:  mu: -0.134500000  nElectrons: 176.634023  magneticMoment: [ Abs: 0.00013  Tot: +0.00012 ]
	SubspaceRotationAdjust: set factor to 0.013
ElecMinimize: Iter:  24  G: -955.008684448580084  |grad|_K:  3.372e-06  alpha:  3.163e-01  linmin: -2.340e-04  t[s]:   1537.54
	Linear fluid (dielectric constant: 78.4, screening length: 8.12261 Bohr) occupying 0.590609 of unit cell:	Completed after 23 iterations at t[s]:   1555.06
	Linear fluid (dielectric constant: 78.4, screening length: 8.12261 Bohr) occupying 0.590744 of unit cell:	Completed after 16 iterations at t[s]:   1569.69
	FillingsUpdate:  mu: -0.134500000  nElectrons: 176.663041  magneticMoment: [ Abs: 0.00013  Tot: +0.00012 ]
	SubspaceRotationAdjust: set factor to 0.013
ElecMinimize: Iter:  25  G: -955.009311805665561  |grad|_K:  2.570e-06  alpha:  3.952e-01  linmin:  1.232e-03  t[s]:   1591.13
	Linear fluid (dielectric constant: 78.4, screening length: 8.12261 Bohr) occupying 0.590934 of unit cell:	Completed after 21 iterations at t[s]:   1608.54
	Linear fluid (dielectric constant: 78.4, screening length: 8.12261 Bohr) occupying 0.590937 of unit cell:	Completed after 3 iterations at t[s]:   1621.67
	FillingsUpdate:  mu: -0.134500000  nElectrons: 176.676930  magneticMoment: [ Abs: 0.00013  Tot: +0.00012 ]
	SubspaceRotationAdjust: set factor to 0.014
ElecMinimize: Iter:  26  G: -955.009669664143985  |grad|_K:  2.100e-06  alpha:  4.017e-01  linmin:  1.105e-04  t[s]:   1643.02
	Linear fluid (dielectric constant: 78.4, screening length: 8.12261 Bohr) occupying 0.590519 of unit cell:	Completed after 18 iterations at t[s]:   1659.99
	Linear fluid (dielectric constant: 78.4, screening length: 8.12261 Bohr) occupying 0.590574 of unit cell:	Completed after 15 iterations at t[s]:   1674.57
	FillingsUpdate:  mu: -0.134500000  nElectrons: 176.673725  magneticMoment: [ Abs: 0.00012  Tot: +0.00012 ]
	SubspaceRotationAdjust: set factor to 0.0127
ElecMinimize: Iter:  27  G: -955.009884237913411  |grad|_K:  1.948e-06  alpha:  3.494e-01  linmin: -5.501e-05  t[s]:   1696.02
	Linear fluid (dielectric constant: 78.4, screening length: 8.12261 Bohr) occupying 0.590813 of unit cell:	Completed after 21 iterations at t[s]:   1713.27
	Linear fluid (dielectric constant: 78.4, screening length: 8.12261 Bohr) occupying 0.590767 of unit cell:	Completed after 16 iterations at t[s]:   1727.91
	FillingsUpdate:  mu: -0.134500000  nElectrons: 176.682818  magneticMoment: [ Abs: 0.00012  Tot: +0.00012 ]
	SubspaceRotationAdjust: set factor to 0.0109
	SubspaceRotationAdjust: resetting CG because factor has changed by 0.130176
	Linear fluid (dielectric constant: 78.4, screening length: 8.12261 Bohr) occupying 0.590767 of unit cell:	Completed after 0 iterations at t[s]:   1758.19
ElecMinimize: 	State modified externally: resetting search direction.
ElecMinimize: Iter:  28  G: -955.010032741050509  |grad|_K:  1.554e-06  alpha:  2.796e-01
	Linear fluid (dielectric constant: 78.4, screening length: 8.12261 Bohr) occupying 0.590500 of unit cell:	Completed after 17 iterations at t[s]:   1796.39
	Linear fluid (dielectric constant: 78.4, screening length: 8.12261 Bohr) occupying 0.590486 of unit cell:	Completed after 12 iterations at t[s]:   1810.69
	FillingsUpdate:  mu: -0.134500000  nElectrons: 176.675788  magneticMoment: [ Abs: 0.00012  Tot: +0.00012 ]
	SubspaceRotationAdjust: set factor to 0.0114
ElecMinimize: Iter:  29  G: -955.010131896688563  |grad|_K:  1.096e-06  alpha:  2.937e-01  linmin: -7.733e-04  t[s]:   1832.14
	Linear fluid (dielectric constant: 78.4, screening length: 8.12261 Bohr) occupying 0.590658 of unit cell:	Completed after 16 iterations at t[s]:   1848.84
	Linear fluid (dielectric constant: 78.4, screening length: 8.12261 Bohr) occupying 0.590686 of unit cell:	Completed after 13 iterations at t[s]:   1863.12
	FillingsUpdate:  mu: -0.134500000  nElectrons: 176.680781  magneticMoment: [ Abs: 0.00012  Tot: +0.00012 ]
	SubspaceRotationAdjust: set factor to 0.00928
ElecMinimize: Iter:  30  G: -955.010189263109964  |grad|_K:  9.835e-07  alpha:  3.411e-01  linmin:  2.213e-05  t[s]:   1884.56
	Linear fluid (dielectric constant: 78.4, screening length: 8.12261 Bohr) occupying 0.590543 of unit cell:	Completed after 16 iterations at t[s]:   1901.39
	Linear fluid (dielectric constant: 78.4, screening length: 8.12261 Bohr) occupying 0.590442 of unit cell:	Completed after 15 iterations at t[s]:   1915.86
	FillingsUpdate:  mu: -0.134500000  nElectrons: 176.674927  magneticMoment: [ Abs: 0.00012  Tot: +0.00012 ]
	SubspaceRotationAdjust: set factor to 0.0096
ElecMinimize: Iter:  31  G: -955.010267462955767  |grad|_K:  7.949e-07  alpha:  5.779e-01  linmin: -5.477e-04  t[s]:   1937.27
	Linear fluid (dielectric constant: 78.4, screening length: 8.12261 Bohr) occupying 0.590408 of unit cell:	Completed after 15 iterations at t[s]:   1953.92
	Linear fluid (dielectric constant: 78.4, screening length: 8.12261 Bohr) occupying 0.590404 of unit cell:	Completed after 7 iterations at t[s]:   1967.59
	FillingsUpdate:  mu: -0.134500000  nElectrons: 176.674442  magneticMoment: [ Abs: 0.00012  Tot: +0.00012 ]
	SubspaceRotationAdjust: set factor to 0.0118
ElecMinimize: Iter:  32  G: -955.010324134415328  |grad|_K:  6.453e-07  alpha:  6.377e-01  linmin: -3.398e-04  t[s]:   1989.03
	Linear fluid (dielectric constant: 78.4, screening length: 8.12261 Bohr) occupying 0.590423 of unit cell:	Completed after 14 iterations at t[s]:   2005.48
	Linear fluid (dielectric constant: 78.4, screening length: 8.12261 Bohr) occupying 0.590426 of unit cell:	Completed after 9 iterations at t[s]:   2019.36
	FillingsUpdate:  mu: -0.134500000  nElectrons: 176.675672  magneticMoment: [ Abs: 0.00012  Tot: +0.00012 ]
	SubspaceRotationAdjust: set factor to 0.014
ElecMinimize: Iter:  33  G: -955.010367697577863  |grad|_K:  6.521e-07  alpha:  7.449e-01  linmin: -2.784e-04  t[s]:   2040.85
	Linear fluid (dielectric constant: 78.4, screening length: 8.12261 Bohr) occupying 0.590495 of unit cell:	Completed after 15 iterations at t[s]:   2057.49
	Linear fluid (dielectric constant: 78.4, screening length: 8.12261 Bohr) occupying 0.590520 of unit cell:	Completed after 13 iterations at t[s]:   2071.76
	FillingsUpdate:  mu: -0.134500000  nElectrons: 176.679525  magneticMoment: [ Abs: 0.00012  Tot: +0.00011 ]
	SubspaceRotationAdjust: set factor to 0.015
ElecMinimize: Iter:  34  G: -955.010429512261908  |grad|_K:  8.665e-07  alpha:  1.033e+00  linmin: -2.572e-04  t[s]:   2093.13
	Linear fluid (dielectric constant: 78.4, screening length: 8.12261 Bohr) occupying 0.589927 of unit cell:	Completed after 21 iterations at t[s]:   2110.50
	Linear fluid (dielectric constant: 78.4, screening length: 8.12261 Bohr) occupying 0.590248 of unit cell:	Completed after 19 iterations at t[s]:   2125.45
	FillingsUpdate:  mu: -0.134500000  nElectrons: 176.674204  magneticMoment: [ Abs: 0.00012  Tot: +0.00011 ]
	SubspaceRotationAdjust: set factor to 0.0126
ElecMinimize: Iter:  35  G: -955.010481307359214  |grad|_K:  1.058e-06  alpha:  4.875e-01  linmin: -9.722e-05  t[s]:   2146.94
	Linear fluid (dielectric constant: 78.4, screening length: 8.12261 Bohr) occupying 0.590554 of unit cell:	Completed after 21 iterations at t[s]:   2164.24
	Linear fluid (dielectric constant: 78.4, screening length: 8.12261 Bohr) occupying 0.590403 of unit cell:	Completed after 17 iterations at t[s]:   2179.06
	FillingsUpdate:  mu: -0.134500000  nElectrons: 176.678919  magneticMoment: [ Abs: 0.00012  Tot: +0.00011 ]
	SubspaceRotationAdjust: set factor to 0.00914
ElecMinimize: Iter:  36  G: -955.010518910373207  |grad|_K:  7.222e-07  alpha:  2.400e-01  linmin: -3.291e-06  t[s]:   2200.57
	Linear fluid (dielectric constant: 78.4, screening length: 8.12261 Bohr) occupying 0.590368 of unit cell:	Completed after 13 iterations at t[s]:   2216.97
ElecMinimize: 	Predicted alpha/alphaT>3.000000, increasing alphaT to 7.201422e-01.
	Linear fluid (dielectric constant: 78.4, screening length: 8.12261 Bohr) occupying 0.590294 of unit cell:	Completed after 15 iterations at t[s]:   2231.44
	Linear fluid (dielectric constant: 78.4, screening length: 8.12261 Bohr) occupying 0.590293 of unit cell:	Completed after 0 iterations at t[s]:   2244.46
	FillingsUpdate:  mu: -0.134500000  nElectrons: 176.676861  magneticMoment: [ Abs: 0.00012  Tot: +0.00011 ]
	SubspaceRotationAdjust: set factor to 0.0104
ElecMinimize: Iter:  37  G: -955.010571738111594  |grad|_K:  6.722e-07  alpha:  7.246e-01  linmin: -8.348e-06  t[s]:   2265.47
	Linear fluid (dielectric constant: 78.4, screening length: 8.12261 Bohr) occupying 0.590108 of unit cell:	Completed after 20 iterations at t[s]:   2282.77
	Linear fluid (dielectric constant: 78.4, screening length: 8.12261 Bohr) occupying 0.590121 of unit cell:	Completed after 10 iterations at t[s]:   2296.71
	FillingsUpdate:  mu: -0.134500000  nElectrons: 176.672327  magneticMoment: [ Abs: 0.00012  Tot: +0.00011 ]
	SubspaceRotationAdjust: set factor to 0.00995
ElecMinimize: Iter:  38  G: -955.010614296834092  |grad|_K:  6.522e-07  alpha:  6.737e-01  linmin:  4.572e-05  t[s]:   2318.17
	Linear fluid (dielectric constant: 78.4, screening length: 8.12261 Bohr) occupying 0.590333 of unit cell:	Completed after 19 iterations at t[s]:   2335.34
	Linear fluid (dielectric constant: 78.4, screening length: 8.12261 Bohr) occupying 0.590234 of unit cell:	Completed after 15 iterations at t[s]:   2349.84
	FillingsUpdate:  mu: -0.134500000  nElectrons: 176.674437  magneticMoment: [ Abs: 0.00012  Tot: +0.00011 ]
	SubspaceRotationAdjust: set factor to 0.00769
ElecMinimize: Iter:  39  G: -955.010635216539526  |grad|_K:  5.792e-07  alpha:  3.534e-01  linmin:  2.761e-05  t[s]:   2371.31
	Linear fluid (dielectric constant: 78.4, screening length: 8.12261 Bohr) occupying 0.590139 of unit cell:	Completed after 16 iterations at t[s]:   2388.04
	Linear fluid (dielectric constant: 78.4, screening length: 8.12261 Bohr) occupying 0.590109 of unit cell:	Completed after 13 iterations at t[s]:   2402.35
	FillingsUpdate:  mu: -0.134500000  nElectrons: 176.670346  magneticMoment: [ Abs: 0.00011  Tot: +0.00011 ]
	SubspaceRotationAdjust: set factor to 0.00777
ElecMinimize: Iter:  40  G: -955.010657026881631  |grad|_K:  3.953e-07  alpha:  4.657e-01  linmin: -4.985e-05  t[s]:   2423.77
	Linear fluid (dielectric constant: 78.4, screening length: 8.12261 Bohr) occupying 0.590096 of unit cell:	Completed after 12 iterations at t[s]:   2440.05
	Linear fluid (dielectric constant: 78.4, screening length: 8.12261 Bohr) occupying 0.590095 of unit cell:	Completed after 3 iterations at t[s]:   2453.15
	FillingsUpdate:  mu: -0.134500000  nElectrons: 176.669247  magneticMoment: [ Abs: 0.00011  Tot: +0.00011 ]
	SubspaceRotationAdjust: set factor to 0.00956
ElecMinimize: Iter:  41  G: -955.010668442702695  |grad|_K:  2.957e-07  alpha:  5.220e-01  linmin: -8.059e-05  t[s]:   2474.58
	Linear fluid (dielectric constant: 78.4, screening length: 8.12261 Bohr) occupying 0.590168 of unit cell:	Completed after 15 iterations at t[s]:   2491.29
	Linear fluid (dielectric constant: 78.4, screening length: 8.12261 Bohr) occupying 0.590173 of unit cell:	Completed after 5 iterations at t[s]:   2504.58
	FillingsUpdate:  mu: -0.134500000  nElectrons: 176.670698  magneticMoment: [ Abs: 0.00011  Tot: +0.00011 ]
	SubspaceRotationAdjust: set factor to 0.0098
ElecMinimize: Iter:  42  G: -955.010675221045631  |grad|_K:  2.998e-07  alpha:  5.537e-01  linmin: -4.834e-05  t[s]:   2526.04
	Linear fluid (dielectric constant: 78.4, screening length: 8.12261 Bohr) occupying 0.590121 of unit cell:	Completed after 15 iterations at t[s]:   2542.70
	Linear fluid (dielectric constant: 78.4, screening length: 8.12261 Bohr) occupying 0.590130 of unit cell:	Completed after 12 iterations at t[s]:   2556.96
	FillingsUpdate:  mu: -0.134500000  nElectrons: 176.669549  magneticMoment: [ Abs: 0.00011  Tot: +0.00011 ]
	SubspaceRotationAdjust: set factor to 0.00944
ElecMinimize: Iter:  43  G: -955.010681007748190  |grad|_K:  2.892e-07  alpha:  4.592e-01  linmin: -6.432e-06  t[s]:   2578.40
	Linear fluid (dielectric constant: 78.4, screening length: 8.12261 Bohr) occupying 0.590186 of unit cell:	Completed after 15 iterations at t[s]:   2594.93
	Linear fluid (dielectric constant: 78.4, screening length: 8.12261 Bohr) occupying 0.590210 of unit cell:	Completed after 12 iterations at t[s]:   2609.05
	FillingsUpdate:  mu: -0.134500000  nElectrons: 176.671776  magneticMoment: [ Abs: 0.00011  Tot: +0.00011 ]
	SubspaceRotationAdjust: set factor to 0.0103
ElecMinimize: Iter:  44  G: -955.010688774510527  |grad|_K:  3.091e-07  alpha:  6.644e-01  linmin: -2.977e-05  t[s]:   2630.47
	Linear fluid (dielectric constant: 78.4, screening length: 8.12261 Bohr) occupying 0.590239 of unit cell:	Completed after 13 iterations at t[s]:   2646.97
	Linear fluid (dielectric constant: 78.4, screening length: 8.12261 Bohr) occupying 0.590254 of unit cell:	Completed after 12 iterations at t[s]:   2661.13
	FillingsUpdate:  mu: -0.134500000  nElectrons: 176.674257  magneticMoment: [ Abs: 0.00011  Tot: +0.00011 ]
	SubspaceRotationAdjust: set factor to 0.0111
ElecMinimize: Iter:  45  G: -955.010702184991032  |grad|_K:  3.756e-07  alpha:  1.002e+00  linmin: -3.510e-05  t[s]:   2682.57
	Linear fluid (dielectric constant: 78.4, screening length: 8.12261 Bohr) occupying 0.590302 of unit cell:	Completed after 13 iterations at t[s]:   2698.94
	Linear fluid (dielectric constant: 78.4, screening length: 8.12261 Bohr) occupying 0.590290 of unit cell:	Completed after 10 iterations at t[s]:   2712.90
	FillingsUpdate:  mu: -0.134500000  nElectrons: 176.677397  magneticMoment: [ Abs: 0.00011  Tot: +0.00011 ]
	SubspaceRotationAdjust: set factor to 0.012
ElecMinimize: Iter:  46  G: -955.010716899504018  |grad|_K:  3.865e-07  alpha:  7.444e-01  linmin: -1.321e-05  t[s]:   2734.32
	Linear fluid (dielectric constant: 78.4, screening length: 8.12261 Bohr) occupying 0.590306 of unit cell:	Completed after 13 iterations at t[s]:   2750.74
	Linear fluid (dielectric constant: 78.4, screening length: 8.12261 Bohr) occupying 0.590308 of unit cell:	Completed after 4 iterations at t[s]:   2763.96
	FillingsUpdate:  mu: -0.134500000  nElectrons: 176.681068  magneticMoment: [ Abs: 0.00011  Tot: +0.00010 ]
	SubspaceRotationAdjust: set factor to 0.0127
ElecMinimize: Iter:  47  G: -955.010734757403043  |grad|_K:  4.241e-07  alpha:  8.547e-01  linmin:  1.808e-05  t[s]:   2785.32
	Linear fluid (dielectric constant: 78.4, screening length: 8.12261 Bohr) occupying 0.590142 of unit cell:	Completed after 16 iterations at t[s]:   2802.18
	Linear fluid (dielectric constant: 78.4, screening length: 8.12261 Bohr) occupying 0.590187 of unit cell:	Completed after 14 iterations at t[s]:   2816.55
	FillingsUpdate:  mu: -0.134500000  nElectrons: 176.681020  magneticMoment: [ Abs: 0.00011  Tot: +0.00010 ]
	SubspaceRotationAdjust: set factor to 0.0113
ElecMinimize: Iter:  48  G: -955.010750464104945  |grad|_K:  5.136e-07  alpha:  6.248e-01  linmin:  5.954e-07  t[s]:   2838.00
	Linear fluid (dielectric constant: 78.4, screening length: 8.12261 Bohr) occupying 0.590389 of unit cell:	Completed after 19 iterations at t[s]:   2855.07
	Linear fluid (dielectric constant: 78.4, screening length: 8.12261 Bohr) occupying 0.590285 of unit cell:	Completed after 16 iterations at t[s]:   2869.78
	FillingsUpdate:  mu: -0.134500000  nElectrons: 176.685412  magneticMoment: [ Abs: 0.00010  Tot: +0.00010 ]
	SubspaceRotationAdjust: set factor to 0.00826
ElecMinimize: Iter:  49  G: -955.010761351330871  |grad|_K:  4.217e-07  alpha:  2.951e-01  linmin: -5.068e-06  t[s]:   2891.25
	Linear fluid (dielectric constant: 78.4, screening length: 8.12261 Bohr) occupying 0.590255 of unit cell:	Completed after 13 iterations at t[s]:   2907.64
	Linear fluid (dielectric constant: 78.4, screening length: 8.12261 Bohr) occupying 0.590233 of unit cell:	Completed after 13 iterations at t[s]:   2921.88
	FillingsUpdate:  mu: -0.134500000  nElectrons: 176.686273  magneticMoment: [ Abs: 0.00010  Tot: +0.00010 ]
	SubspaceRotationAdjust: set factor to 0.00842
ElecMinimize: Iter:  50  G: -955.010774004713994  |grad|_K:  3.261e-07  alpha:  5.092e-01  linmin:  4.161e-05  t[s]:   2943.31
	Linear fluid (dielectric constant: 78.4, screening length: 8.12261 Bohr) occupying 0.590221 of unit cell:	Completed after 13 iterations at t[s]:   2959.82
	Linear fluid (dielectric constant: 78.4, screening length: 8.12261 Bohr) occupying 0.590217 of unit cell:	Completed after 10 iterations at t[s]:   2973.78
	FillingsUpdate:  mu: -0.134500000  nElectrons: 176.687358  magneticMoment: [ Abs: 0.00010  Tot: +0.00010 ]
	SubspaceRotationAdjust: set factor to 0.00922
ElecMinimize: Iter:  51  G: -955.010784261408162  |grad|_K:  3.350e-07  alpha:  6.927e-01  linmin:  4.894e-05  t[s]:   2995.23
	Linear fluid (dielectric constant: 78.4, screening length: 8.12261 Bohr) occupying 0.590318 of unit cell:	Completed after 16 iterations at t[s]:   3011.98
	Linear fluid (dielectric constant: 78.4, screening length: 8.12261 Bohr) occupying 0.590286 of unit cell:	Completed after 14 iterations at t[s]:   3026.44
	FillingsUpdate:  mu: -0.134500000  nElectrons: 176.690047  magneticMoment: [ Abs: 0.00010  Tot: +0.00010 ]
	SubspaceRotationAdjust: set factor to 0.00799
ElecMinimize: Iter:  52  G: -955.010791628075026  |grad|_K:  3.122e-07  alpha:  4.721e-01  linmin:  4.132e-05  t[s]:   3047.87
	Linear fluid (dielectric constant: 78.4, screening length: 8.12261 Bohr) occupying 0.590205 of unit cell:	Completed after 15 iterations at t[s]:   3064.51
	Linear fluid (dielectric constant: 78.4, screening length: 8.12261 Bohr) occupying 0.590224 of unit cell:	Completed after 13 iterations at t[s]:   3078.77
	FillingsUpdate:  mu: -0.134500000  nElectrons: 176.689050  magneticMoment: [ Abs: 0.00010  Tot: +0.00010 ]
	SubspaceRotationAdjust: set factor to 0.00724
ElecMinimize: Iter:  53  G: -955.010796556007676  |grad|_K:  2.208e-07  alpha:  3.633e-01  linmin:  6.146e-05  t[s]:   3100.18
	Linear fluid (dielectric constant: 78.4, screening length: 8.12261 Bohr) occupying 0.590222 of unit cell:	Completed after 6 iterations at t[s]:   3115.87
	Linear fluid (dielectric constant: 78.4, screening length: 8.12261 Bohr) occupying 0.590221 of unit cell:	Completed after 6 iterations at t[s]:   3129.30
	FillingsUpdate:  mu: -0.134500000  nElectrons: 176.689381  magneticMoment: [ Abs: 0.00010  Tot: +0.00009 ]
	SubspaceRotationAdjust: set factor to 0.00899
ElecMinimize: Iter:  54  G: -955.010800502038819  |grad|_K:  1.868e-07  alpha:  5.819e-01  linmin:  7.323e-05  t[s]:   3150.77
	Linear fluid (dielectric constant: 78.4, screening length: 8.12261 Bohr) occupying 0.590233 of unit cell:	Completed after 13 iterations at t[s]:   3167.06
	Linear fluid (dielectric constant: 78.4, screening length: 8.12261 Bohr) occupying 0.590234 of unit cell:	Completed after 0 iterations at t[s]:   3179.65
	FillingsUpdate:  mu: -0.134500000  nElectrons: 176.689945  magneticMoment: [ Abs: 0.00010  Tot: +0.00009 ]
	SubspaceRotationAdjust: set factor to 0.00986
ElecMinimize: Iter:  55  G: -955.010803480077016  |grad|_K:  1.860e-07  alpha:  6.136e-01  linmin: -6.565e-05  t[s]:   3200.87
	Linear fluid (dielectric constant: 78.4, screening length: 8.12261 Bohr) occupying 0.590168 of unit cell:	Completed after 15 iterations at t[s]:   3218.11
	Linear fluid (dielectric constant: 78.4, screening length: 8.12261 Bohr) occupying 0.590180 of unit cell:	Completed after 10 iterations at t[s]:   3231.99
	FillingsUpdate:  mu: -0.134500000  nElectrons: 176.688811  magneticMoment: [ Abs: 0.00010  Tot: +0.00009 ]
	SubspaceRotationAdjust: set factor to 0.00912
ElecMinimize: Iter:  56  G: -955.010805916674371  |grad|_K:  2.044e-07  alpha:  4.986e-01  linmin:  5.420e-05  t[s]:   3253.47
	Linear fluid (dielectric constant: 78.4, screening length: 8.12261 Bohr) occupying 0.590202 of unit cell:	Completed after 13 iterations at t[s]:   3269.75
	Linear fluid (dielectric constant: 78.4, screening length: 8.12261 Bohr) occupying 0.590203 of unit cell:	Completed after 2 iterations at t[s]:   3282.66
	FillingsUpdate:  mu: -0.134500000  nElectrons: 176.689682  magneticMoment: [ Abs: 0.00010  Tot: +0.00009 ]
	SubspaceRotationAdjust: set factor to 0.00896
ElecMinimize: Iter:  57  G: -955.010808930493567  |grad|_K:  1.930e-07  alpha:  5.202e-01  linmin: -4.191e-05  t[s]:   3304.24
	Linear fluid (dielectric constant: 78.4, screening length: 8.12261 Bohr) occupying 0.590182 of unit cell:	Completed after 10 iterations at t[s]:   3320.36
	Linear fluid (dielectric constant: 78.4, screening length: 8.12261 Bohr) occupying 0.590175 of unit cell:	Completed after 3 iterations at t[s]:   3333.63
	FillingsUpdate:  mu: -0.134500000  nElectrons: 176.689443  magneticMoment: [ Abs: 0.00010  Tot: +0.00009 ]
	SubspaceRotationAdjust: set factor to 0.0102
ElecMinimize: Iter:  58  G: -955.010812548782042  |grad|_K:  1.853e-07  alpha:  6.914e-01  linmin: -2.463e-05  t[s]:   3355.30
	Linear fluid (dielectric constant: 78.4, screening length: 8.12261 Bohr) occupying 0.590132 of unit cell:	Completed after 13 iterations at t[s]:   3371.81
	Linear fluid (dielectric constant: 78.4, screening length: 8.12261 Bohr) occupying 0.590129 of unit cell:	Completed after 2 iterations at t[s]:   3384.96
	FillingsUpdate:  mu: -0.134500000  nElectrons: 176.688900  magneticMoment: [ Abs: 0.00009  Tot: +0.00009 ]
	SubspaceRotationAdjust: set factor to 0.0107
ElecMinimize: Iter:  59  G: -955.010816071043678  |grad|_K:  2.138e-07  alpha:  7.317e-01  linmin: -6.072e-05  t[s]:   3406.40
	Linear fluid (dielectric constant: 78.4, screening length: 8.12261 Bohr) occupying 0.590191 of unit cell:	Completed after 15 iterations at t[s]:   3423.06
	Linear fluid (dielectric constant: 78.4, screening length: 8.12261 Bohr) occupying 0.590164 of unit cell:	Completed after 14 iterations at t[s]:   3437.58
	FillingsUpdate:  mu: -0.134500000  nElectrons: 176.690330  magneticMoment: [ Abs: 0.00009  Tot: +0.00009 ]
	SubspaceRotationAdjust: set factor to 0.0088
ElecMinimize: Iter:  60  G: -955.010818755056448  |grad|_K:  2.155e-07  alpha:  4.152e-01  linmin: -4.757e-06  t[s]:   3459.14
	Linear fluid (dielectric constant: 78.4, screening length: 8.12261 Bohr) occupying 0.590118 of unit cell:	Completed after 15 iterations at t[s]:   3475.77
	Linear fluid (dielectric constant: 78.4, screening length: 8.12261 Bohr) occupying 0.590116 of unit cell:	Completed after 2 iterations at t[s]:   3488.82
	FillingsUpdate:  mu: -0.134500000  nElectrons: 176.689782  magneticMoment: [ Abs: 0.00009  Tot: +0.00009 ]
	SubspaceRotationAdjust: set factor to 0.00844
ElecMinimize: Iter:  61  G: -955.010821563874288  |grad|_K:  1.753e-07  alpha:  4.323e-01  linmin: -3.764e-05  t[s]:   3510.45
	Linear fluid (dielectric constant: 78.4, screening length: 8.12261 Bohr) occupying 0.590110 of unit cell:	Completed after 4 iterations at t[s]:   3526.00
	Linear fluid (dielectric constant: 78.4, screening length: 8.12261 Bohr) occupying 0.590106 of unit cell:	Completed after 4 iterations at t[s]:   3539.35
	FillingsUpdate:  mu: -0.134500000  nElectrons: 176.690317  magneticMoment: [ Abs: 0.00009  Tot: +0.00009 ]
	SubspaceRotationAdjust: set factor to 0.00947
ElecMinimize: Iter:  62  G: -955.010824525147200  |grad|_K:  1.656e-07  alpha:  6.868e-01  linmin: -1.223e-05  t[s]:   3560.97
	Linear fluid (dielectric constant: 78.4, screening length: 8.12261 Bohr) occupying 0.590132 of unit cell:	Completed after 14 iterations at t[s]:   3577.45
	Linear fluid (dielectric constant: 78.4, screening length: 8.12261 Bohr) occupying 0.590127 of unit cell:	Completed after 10 iterations at t[s]:   3591.40
	FillingsUpdate:  mu: -0.134500000  nElectrons: 176.691451  magneticMoment: [ Abs: 0.00009  Tot: +0.00009 ]
	SubspaceRotationAdjust: set factor to 0.00924
ElecMinimize: Iter:  63  G: -955.010826637574155  |grad|_K:  1.581e-07  alpha:  5.502e-01  linmin:  1.081e-05  t[s]:   3613.02
	Linear fluid (dielectric constant: 78.4, screening length: 8.12261 Bohr) occupying 0.590073 of unit cell:	Completed after 15 iterations at t[s]:   3629.69
	Linear fluid (dielectric constant: 78.4, screening length: 8.12261 Bohr) occupying 0.590091 of unit cell:	Completed after 13 iterations at t[s]:   3643.93
	FillingsUpdate:  mu: -0.134500000  nElectrons: 176.690937  magneticMoment: [ Abs: 0.00009  Tot: +0.00009 ]
	SubspaceRotationAdjust: set factor to 0.00765
ElecMinimize: Iter:  64  G: -955.010827912712671  |grad|_K:  1.315e-07  alpha:  3.653e-01  linmin: -2.073e-06  t[s]:   3665.51
	Linear fluid (dielectric constant: 78.4, screening length: 8.12261 Bohr) occupying 0.590101 of unit cell:	Completed after 10 iterations at t[s]:   3681.72
	Linear fluid (dielectric constant: 78.4, screening length: 8.12261 Bohr) occupying 0.590104 of unit cell:	Completed after 7 iterations at t[s]:   3695.40
	FillingsUpdate:  mu: -0.134500000  nElectrons: 176.691618  magneticMoment: [ Abs: 0.00009  Tot: +0.00009 ]
	SubspaceRotationAdjust: set factor to 0.00823
ElecMinimize: Iter:  65  G: -955.010829088463424  |grad|_K:  1.006e-07  alpha:  4.867e-01  linmin:  5.534e-06  t[s]:   3717.05
	Linear fluid (dielectric constant: 78.4, screening length: 8.12261 Bohr) occupying 0.590110 of unit cell:	Completed after 9 iterations at t[s]:   3733.05
	Linear fluid (dielectric constant: 78.4, screening length: 8.12261 Bohr) occupying 0.590111 of unit cell:	Completed after 2 iterations at t[s]:   3746.02
	FillingsUpdate:  mu: -0.134500000  nElectrons: 176.692056  magneticMoment: [ Abs: 0.00009  Tot: +0.00008 ]
	SubspaceRotationAdjust: set factor to 0.00953
ElecMinimize: Iter:  66  G: -955.010829912346708  |grad|_K:  8.347e-08  alpha:  5.826e-01  linmin: -3.326e-05  t[s]:   3767.56
	Linear fluid (dielectric constant: 78.4, screening length: 8.12261 Bohr) occupying 0.590096 of unit cell:	Completed after 13 iterations at t[s]:   3784.14
	Linear fluid (dielectric constant: 78.4, screening length: 8.12261 Bohr) occupying 0.590100 of unit cell:	Completed after 6 iterations at t[s]:   3797.80
	FillingsUpdate:  mu: -0.134500000  nElectrons: 176.691922  magneticMoment: [ Abs: 0.00009  Tot: +0.00008 ]
	SubspaceRotationAdjust: set factor to 0.00872
ElecMinimize: Iter:  67  G: -955.010830360579348  |grad|_K:  7.599e-08  alpha:  4.567e-01  linmin:  7.598e-05  t[s]:   3819.45
	Linear fluid (dielectric constant: 78.4, screening length: 8.12261 Bohr) occupying 0.590124 of unit cell:	Completed after 13 iterations at t[s]:   3835.91
	Linear fluid (dielectric constant: 78.4, screening length: 8.12261 Bohr) occupying 0.590119 of unit cell:	Completed after 6 iterations at t[s]:   3849.41
	FillingsUpdate:  mu: -0.134500000  nElectrons: 176.692505  magneticMoment: [ Abs: 0.00009  Tot: +0.00008 ]
	SubspaceRotationAdjust: set factor to 0.00748
ElecMinimize: Iter:  68  G: -955.010830644711518  |grad|_K:  5.906e-08  alpha:  3.582e-01  linmin: -9.510e-06  t[s]:   3870.92
	Linear fluid (dielectric constant: 78.4, screening length: 8.12261 Bohr) occupying 0.590120 of unit cell:	Completed after 6 iterations at t[s]:   3886.69
	Linear fluid (dielectric constant: 78.4, screening length: 8.12261 Bohr) occupying 0.590120 of unit cell:	Completed after 5 iterations at t[s]:   3900.14
	FillingsUpdate:  mu: -0.134500000  nElectrons: 176.692641  magneticMoment: [ Abs: 0.00009  Tot: +0.00008 ]
	SubspaceRotationAdjust: set factor to 0.00839
ElecMinimize: Iter:  69  G: -955.010830913675818  |grad|_K:  4.731e-08  alpha:  5.507e-01  linmin: -3.858e-05  t[s]:   3921.74
	Linear fluid (dielectric constant: 78.4, screening length: 8.12261 Bohr) occupying 0.590121 of unit cell:	Completed after 7 iterations at t[s]:   3937.58
	Linear fluid (dielectric constant: 78.4, screening length: 8.12261 Bohr) occupying 0.590121 of unit cell:	Completed after 0 iterations at t[s]:   3950.28
	FillingsUpdate:  mu: -0.134500000  nElectrons: 176.692765  magneticMoment: [ Abs: 0.00009  Tot: +0.00008 ]
	SubspaceRotationAdjust: set factor to 0.00914
ElecMinimize: Iter:  70  G: -955.010831102327415  |grad|_K:  4.110e-08  alpha:  5.996e-01  linmin: -8.389e-05  t[s]:   3971.76
	Linear fluid (dielectric constant: 78.4, screening length: 8.12261 Bohr) occupying 0.590135 of unit cell:	Completed after 11 iterations at t[s]:   3988.10
	Linear fluid (dielectric constant: 78.4, screening length: 8.12261 Bohr) occupying 0.590131 of unit cell:	Completed after 3 iterations at t[s]:   4001.38
	FillingsUpdate:  mu: -0.134500000  nElectrons: 176.693086  magneticMoment: [ Abs: 0.00009  Tot: +0.00008 ]
	SubspaceRotationAdjust: set factor to 0.00819
ElecMinimize: Iter:  71  G: -955.010831211071604  |grad|_K:  3.975e-08  alpha:  4.507e-01  linmin:  1.033e-04  t[s]:   4022.98
	Linear fluid (dielectric constant: 78.4, screening length: 8.12261 Bohr) occupying 0.590125 of unit cell:	Completed after 11 iterations at t[s]:   4039.27
	Linear fluid (dielectric constant: 78.4, screening length: 8.12261 Bohr) occupying 0.590127 of unit cell:	Completed after 2 iterations at t[s]:   4052.32
	FillingsUpdate:  mu: -0.134500000  nElectrons: 176.693014  magneticMoment: [ Abs: 0.00009  Tot: +0.00008 ]
	SubspaceRotationAdjust: set factor to 0.00729
ElecMinimize: Iter:  72  G: -955.010831287274300  |grad|_K:  3.010e-08  alpha:  3.585e-01  linmin: -8.496e-06  t[s]:   4073.77
	Linear fluid (dielectric constant: 78.4, screening length: 8.12261 Bohr) occupying 0.590129 of unit cell:	Completed after 2 iterations at t[s]:   4089.14
	Linear fluid (dielectric constant: 78.4, screening length: 8.12261 Bohr) occupying 0.590130 of unit cell:	Completed after 3 iterations at t[s]:   4102.34
	FillingsUpdate:  mu: -0.134500000  nElectrons: 176.693142  magneticMoment: [ Abs: 0.00009  Tot: +0.00008 ]
	SubspaceRotationAdjust: set factor to 0.00863
ElecMinimize: Iter:  73  G: -955.010831358122005  |grad|_K:  2.504e-08  alpha:  5.626e-01  linmin:  1.645e-05  t[s]:   4123.66
ElecMinimize: Converged (|Delta G|<1.000000e-07 for 2 iters).
Setting wave functions to eigenvectors of Hamiltonian
Converging empty states (this may take a while): |deigs|: 6.601e-04

Computing DFT-D3 correction:
# coordination-number Pt 5.968 5.969 7.630 9.467 9.211 9.585 9.494 9.587 9.211 9.467 7.628
# diagonal-C6 Pt 336.87 336.87 336.87 336.87 336.87 336.87 336.87 336.87 336.87 336.87 336.87
EvdW_6 =   -0.096209
EvdW_8 =   -0.155943

# Ionic positions in cartesian coordinates:
ion Pt   5.239595000000000   0.280253000000000  23.222839000000004 1
ion Pt  -0.007683000000000   4.453197000000000   1.317884000000000 1
ion Pt   2.607096000000000   0.501949000000000   3.042523000000000 1
ion Pt   2.610994000000000   5.481510000000000   5.631836000000000 1
ion Pt  -0.002477000000000   1.548430000000000   7.767131000000001 1
ion Pt  -0.002610000000000   6.306530000000001  10.051066000000002 1
ion Pt   2.616218000000000   2.365120000000000  12.270582000000001 1
ion Pt   2.618706000000000   7.104114000000001  14.489142000000001 1
ion Pt   0.002603000000000   3.182625000000000  16.772635000000001 1
ion Pt   0.004942000000000   7.927615000000001  18.907856000000002 1
ion Pt   2.624597000000001   4.230078000000000  21.497979999999998 1

# Forces in Cartesian coordinates:
force Pt  -0.000042287996426  -0.000338353072860   0.000363996167967 1
force Pt   0.000047365402183   0.000186284243578  -0.000425573668871 1
force Pt  -0.000036695879417  -0.000147137388640  -0.000665249679119 1
force Pt   0.000013353007238  -0.000117862917585   0.000177461814241 1
force Pt  -0.000032475661471   0.000010237705570   0.000082762115687 1
force Pt   0.000004689853979  -0.000183875284310   0.000228904113860 1
force Pt  -0.000003539444685   0.000318081403958  -0.000142416943989 1
force Pt  -0.000005313321072  -0.000392233755388  -0.000179015597732 1
force Pt   0.000033222891045   0.000399673901010   0.000001988521019 1
force Pt  -0.000012378693641  -0.000092420599312   0.000084378554838 1
force Pt   0.000035175927105   0.000348045240130   0.000618184605668 1

# Energy components:
   A_diel =       -0.2950649264132233
   Eewald =    10862.5622182692677598
       EH =    11786.0196778411027481
     Eloc =   -23796.6772374478096026
      Enl =      -11.5656447186720843
     EvdW =       -0.2521514838425332
      Exc =     -313.1078844805326753
 Exc_core =      180.3052008543733962
       KE =      314.2730988558624290
  MuShift =       -0.0362187444558112
-------------------------------------
     Etot =     -978.7740059811211495
       TS =        0.0020529650817741
-------------------------------------
        F =     -978.7760589462029657
      muN =      -23.7652275880810180
-------------------------------------
        G =     -955.0108313581220045


Dumping 'jdft.fillings' ... done
Dumping 'jdft.wfns' ... done
Dumping 'jdft.fluidState' ... done
Dumping 'jdft.ionpos' ... done
Dumping 'jdft.lattice' ... done
Dumping 'jdft.eigenvals' ... done
Dumping 'jdft.eigStats' ... 
	eMin: -2.084566 at state 39 ( [ +0.461538 +0.000000 +0.000000 ] spin 1 )
	HOMO: -0.134500 at state 55 ( [ +0.076923 -0.285714 +0.000000 ] spin -1 )
	mu  : -0.134500
	LUMO: -0.134313 at state 32 ( [ +0.384615 +0.000000 +0.000000 ] spin 1 )
	eMax: +0.155263 at state 87 ( [ +0.461538 +0.285714 +0.000000 ] spin -1 )
	HOMO-LUMO gap: +0.000187
	Optical gap  : +0.000732 at state 78 ( [ +0.384615 +0.000000 +0.000000 ] spin -1 )
Dumping 'jdft.Ecomponents' ... done
IonicMinimize: Iter:   0  G: -955.010831358122005  |grad|_K:  2.498e-04  t[s]:   4223.99

#--- Lowdin population analysis ---
# oxidation-state Pt -0.193 -0.196 -0.103 -0.016 +0.011 +0.008 +0.009 +0.005 +0.007 -0.018 -0.101
# magnetic-moments Pt +0.000 +0.000 +0.000 +0.000 +0.000 +0.000 +0.000 +0.000 +0.000 +0.000 +0.000


Computing DFT-D3 correction:
# coordination-number Pt 5.968 5.968 7.628 9.466 9.210 9.585 9.494 9.587 9.210 9.466 7.627
# diagonal-C6 Pt 336.87 336.87 336.87 336.87 336.87 336.87 336.87 336.87 336.87 336.87 336.87
EvdW_6 =   -0.096206
EvdW_8 =   -0.155938
Shifting auxilliary hamiltonian by -0.000013 to set nElectrons=176.693142

-------- Electronic minimization -----------
	Linear fluid (dielectric constant: 78.4, screening length: 8.12261 Bohr) occupying 0.590145 of unit cell:	Completed after 17 iterations at t[s]:   4242.53
	FillingsUpdate:  mu: -0.134500000  nElectrons: 176.693142  magneticMoment: [ Abs: 0.00007  Tot: +0.00007 ]
ElecMinimize: Iter:   0  G: -955.010816594501193  |grad|_K:  6.363e-07  alpha:  1.000e+00
	Linear fluid (dielectric constant: 78.4, screening length: 8.12261 Bohr) occupying 0.589531 of unit cell:	Completed after 24 iterations at t[s]:   4283.74
	Linear fluid (dielectric constant: 78.4, screening length: 8.12261 Bohr) occupying 0.590029 of unit cell:	Completed after 22 iterations at t[s]:   4299.09
	FillingsUpdate:  mu: -0.134500000  nElectrons: 176.690222  magneticMoment: [ Abs: 0.00007  Tot: +0.00007 ]
	SubspaceRotationAdjust: set factor to 0.00536
ElecMinimize: Iter:   1  G: -955.010827335456611  |grad|_K:  2.361e-07  alpha:  1.924e-01  linmin:  8.204e-03  t[s]:   4320.72
	Linear fluid (dielectric constant: 78.4, screening length: 8.12261 Bohr) occupying 0.590050 of unit cell:	Completed after 12 iterations at t[s]:   4337.19
	Linear fluid (dielectric constant: 78.4, screening length: 8.12261 Bohr) occupying 0.590070 of unit cell:	Completed after 13 iterations at t[s]:   4351.55
	FillingsUpdate:  mu: -0.134500000  nElectrons: 176.691188  magneticMoment: [ Abs: 0.00007  Tot: +0.00007 ]
	SubspaceRotationAdjust: set factor to 0.00687
ElecMinimize: Iter:   2  G: -955.010830258521992  |grad|_K:  1.114e-07  alpha:  3.777e-01  linmin: -4.537e-03  t[s]:   4373.22
	Linear fluid (dielectric constant: 78.4, screening length: 8.12261 Bohr) occupying 0.590078 of unit cell:	Completed after 9 iterations at t[s]:   4389.37
	Linear fluid (dielectric constant: 78.4, screening length: 8.12261 Bohr) occupying 0.590081 of unit cell:	Completed after 3 iterations at t[s]:   4402.62
	FillingsUpdate:  mu: -0.134500000  nElectrons: 176.691399  magneticMoment: [ Abs: 0.00007  Tot: +0.00007 ]
	SubspaceRotationAdjust: set factor to 0.00891
ElecMinimize: Iter:   3  G: -955.010831181047479  |grad|_K:  7.758e-08  alpha:  5.273e-01  linmin: -1.457e-03  t[s]:   4424.24
	Linear fluid (dielectric constant: 78.4, screening length: 8.12261 Bohr) occupying 0.590085 of unit cell:	Completed after 10 iterations at t[s]:   4440.51
	Linear fluid (dielectric constant: 78.4, screening length: 8.12261 Bohr) occupying 0.590087 of unit cell:	Completed after 2 iterations at t[s]:   4453.40
	FillingsUpdate:  mu: -0.134500000  nElectrons: 176.691488  magneticMoment: [ Abs: 0.00007  Tot: +0.00007 ]
	SubspaceRotationAdjust: set factor to 0.0108
ElecMinimize: Iter:   4  G: -955.010831753647494  |grad|_K:  7.896e-08  alpha:  6.745e-01  linmin: -1.896e-03  t[s]:   4474.74
	Linear fluid (dielectric constant: 78.4, screening length: 8.12261 Bohr) occupying 0.590113 of unit cell:	Completed after 12 iterations at t[s]:   4491.11
	Linear fluid (dielectric constant: 78.4, screening length: 8.12261 Bohr) occupying 0.590114 of unit cell:	Completed after 0 iterations at t[s]:   4503.81
	FillingsUpdate:  mu: -0.134500000  nElectrons: 176.692145  magneticMoment: [ Abs: 0.00007  Tot: +0.00007 ]
	SubspaceRotationAdjust: set factor to 0.0113
ElecMinimize: Iter:   5  G: -955.010832372509640  |grad|_K:  8.397e-08  alpha:  6.990e-01  linmin: -3.601e-04  t[s]:   4525.38
	Linear fluid (dielectric constant: 78.4, screening length: 8.12261 Bohr) occupying 0.590098 of unit cell:	Completed after 13 iterations at t[s]:   4541.97
	Linear fluid (dielectric constant: 78.4, screening length: 8.12261 Bohr) occupying 0.590103 of unit cell:	Completed after 10 iterations at t[s]:   4556.02
	FillingsUpdate:  mu: -0.134500000  nElectrons: 176.691882  magneticMoment: [ Abs: 0.00007  Tot: +0.00007 ]
	SubspaceRotationAdjust: set factor to 0.00928
ElecMinimize: Iter:   6  G: -955.010832842884497  |grad|_K:  9.126e-08  alpha:  4.733e-01  linmin:  1.674e-04  t[s]:   4577.58
	Linear fluid (dielectric constant: 78.4, screening length: 8.12261 Bohr) occupying 0.590132 of unit cell:	Completed after 13 iterations at t[s]:   4593.94
	Linear fluid (dielectric constant: 78.4, screening length: 8.12261 Bohr) occupying 0.590128 of unit cell:	Completed after 2 iterations at t[s]:   4607.09
	FillingsUpdate:  mu: -0.134500000  nElectrons: 176.692550  magneticMoment: [ Abs: 0.00007  Tot: +0.00007 ]
	SubspaceRotationAdjust: set factor to 0.00726
ElecMinimize: Iter:   7  G: -955.010833325657131  |grad|_K:  7.172e-08  alpha:  4.161e-01  linmin:  5.538e-04  t[s]:   4628.52
	Linear fluid (dielectric constant: 78.4, screening length: 8.12261 Bohr) occupying 0.590123 of unit cell:	Completed after 10 iterations at t[s]:   4644.58
	Linear fluid (dielectric constant: 78.4, screening length: 8.12261 Bohr) occupying 0.590121 of unit cell:	Completed after 3 iterations at t[s]:   4657.68
	FillingsUpdate:  mu: -0.134500000  nElectrons: 176.692469  magneticMoment: [ Abs: 0.00007  Tot: +0.00007 ]
	SubspaceRotationAdjust: set factor to 0.0066
ElecMinimize: Iter:   8  G: -955.010833749252470  |grad|_K:  5.731e-08  alpha:  5.887e-01  linmin: -1.495e-03  t[s]:   4678.92
	Linear fluid (dielectric constant: 78.4, screening length: 8.12261 Bohr) occupying 0.590126 of unit cell:	Completed after 6 iterations at t[s]:   4694.70
	Linear fluid (dielectric constant: 78.4, screening length: 8.12261 Bohr) occupying 0.590126 of unit cell:	Completed after 0 iterations at t[s]:   4707.39
	FillingsUpdate:  mu: -0.134500000  nElectrons: 176.692691  magneticMoment: [ Abs: 0.00007  Tot: +0.00007 ]
	SubspaceRotationAdjust: set factor to 0.00692
ElecMinimize: Iter:   9  G: -955.010834031754484  |grad|_K:  4.481e-08  alpha:  5.955e-01  linmin:  7.009e-05  t[s]:   4728.97
	Linear fluid (dielectric constant: 78.4, screening length: 8.12261 Bohr) occupying 0.590125 of unit cell:	Completed after 2 iterations at t[s]:   4744.31
	Linear fluid (dielectric constant: 78.4, screening length: 8.12261 Bohr) occupying 0.590125 of unit cell:	Completed after 0 iterations at t[s]:   4757.07
	FillingsUpdate:  mu: -0.134500000  nElectrons: 176.692723  magneticMoment: [ Abs: 0.00007  Tot: +0.00007 ]
	SubspaceRotationAdjust: set factor to 0.00764
ElecMinimize: Iter:  10  G: -955.010834194898166  |grad|_K:  3.539e-08  alpha:  5.822e-01  linmin: -6.103e-05  t[s]:   4778.65
	Linear fluid (dielectric constant: 78.4, screening length: 8.12261 Bohr) occupying 0.590120 of unit cell:	Completed after 5 iterations at t[s]:   4794.25
	Linear fluid (dielectric constant: 78.4, screening length: 8.12261 Bohr) occupying 0.590120 of unit cell:	Completed after 0 iterations at t[s]:   4806.82
	FillingsUpdate:  mu: -0.134500000  nElectrons: 176.692652  magneticMoment: [ Abs: 0.00007  Tot: +0.00007 ]
	SubspaceRotationAdjust: set factor to 0.00862
ElecMinimize: Iter:  11  G: -955.010834289510854  |grad|_K:  2.852e-08  alpha:  5.400e-01  linmin:  7.994e-05  t[s]:   4828.31
	Linear fluid (dielectric constant: 78.4, screening length: 8.12261 Bohr) occupying 0.590123 of unit cell:	Completed after 5 iterations at t[s]:   4844.02
	Linear fluid (dielectric constant: 78.4, screening length: 8.12261 Bohr) occupying 0.590123 of unit cell:	Completed after 0 iterations at t[s]:   4856.82
	FillingsUpdate:  mu: -0.134500000  nElectrons: 176.692745  magneticMoment: [ Abs: 0.00007  Tot: +0.00007 ]
	SubspaceRotationAdjust: set factor to 0.00933
ElecMinimize: Iter:  12  G: -955.010834354263011  |grad|_K:  2.454e-08  alpha:  5.697e-01  linmin: -5.794e-04  t[s]:   4878.11
ElecMinimize: Converged (|Delta G|<1.000000e-07 for 2 iters).
Setting wave functions to eigenvectors of Hamiltonian
Converging empty states (this may take a while): |deigs|: 1.495e-08

Computing DFT-D3 correction:
# coordination-number Pt 5.968 5.968 7.628 9.466 9.210 9.585 9.494 9.587 9.210 9.466 7.627
# diagonal-C6 Pt 336.87 336.87 336.87 336.87 336.87 336.87 336.87 336.87 336.87 336.87 336.87
EvdW_6 =   -0.096206
EvdW_8 =   -0.155938

# Ionic positions in cartesian coordinates:
ion Pt   5.239552610541315   0.279915516065671  23.223189776167647 1
ion Pt  -0.007635736060075   4.453384153382110   1.317445206330805 1
ion Pt   2.607059202658325   0.501802731749892   3.041844530320557 1
ion Pt   2.611007251544981   5.481393006220946   5.632000241813917 1
ion Pt  -0.002509577123729   1.548441106844102   7.767200542115363 1
ion Pt  -0.002605411608279   6.306346993854223  10.051281684113537 1
ion Pt   2.616214359093057   2.365438950542490  12.270426363055686 1
ion Pt   2.618700585216669   7.103722635383144  14.488949764401944 1
ion Pt   0.002636121428788   3.183025543039542  16.772623768520695 1
ion Pt   0.004929519844101   7.927523448539222  18.907927158554514 1
ion Pt   2.624632074464847   4.230426914378661  21.498584964605342 1

# Forces in Cartesian coordinates:
force Pt  -0.000045190588422  -0.000059971312842  -0.000037468509611 1
force Pt   0.000049395884881  -0.000034654882357  -0.000008892817738 1
force Pt  -0.000038644809147  -0.000084452143750  -0.000511244834407 1
force Pt   0.000014697289258   0.000058319018259   0.000312744124769 1
force Pt  -0.000026269163090  -0.000079978290259   0.000153036386966 1
force Pt   0.000000546358547  -0.000100957221609   0.000397507381639 1
force Pt  -0.000003965129077   0.000169313482486  -0.000097095193941 1
force Pt  -0.000001301894134  -0.000221356690326  -0.000404460208274 1
force Pt   0.000026144214648   0.000306311080737  -0.000143651908018 1
force Pt  -0.000014033388451  -0.000151399587362  -0.000238590194068 1
force Pt   0.000036381728126   0.000215284410175   0.000520953223687 1

# Energy components:
   A_diel =       -0.2948121129081563
   Eewald =    10862.1758128236197081
       EH =    11785.6389603431034629
     Eloc =   -23795.9124697933912103
      Enl =      -11.5661934824495507
     EvdW =       -0.2521441661954325
      Exc =     -313.1083312442042939
 Exc_core =      180.3052007469512432
       KE =      314.2762170481070143
  MuShift =       -0.0361980233788761
-------------------------------------
     Etot =     -978.7739578607463500
       TS =        0.0020507452368353
-------------------------------------
        F =     -978.7760086059831792
      muN =      -23.7651742517201328
-------------------------------------
        G =     -955.0108343542630109


Dumping 'jdft.fillings' ... done
Dumping 'jdft.wfns' ... done
Dumping 'jdft.fluidState' ... done
Dumping 'jdft.ionpos' ... done
Dumping 'jdft.lattice' ... done
Dumping 'jdft.eigenvals' ... done
Dumping 'jdft.eigStats' ... 
	eMin: -2.084505 at state 39 ( [ +0.461538 +0.000000 +0.000000 ] spin 1 )
	HOMO: -0.134442 at state 55 ( [ +0.076923 -0.285714 +0.000000 ] spin -1 )
	mu  : -0.134500
	LUMO: -0.134260 at state 32 ( [ +0.384615 +0.000000 +0.000000 ] spin 1 )
	eMax: +0.155280 at state 87 ( [ +0.461538 +0.285714 +0.000000 ] spin -1 )
	HOMO-LUMO gap: +0.000183
	Optical gap  : +0.000758 at state 78 ( [ +0.384615 +0.000000 +0.000000 ] spin -1 )
Dumping 'jdft.Ecomponents' ... done
IonicMinimize: Iter:   1  G: -955.010834354263011  |grad|_K:  2.019e-04  alpha:  1.000e+00  linmin: -7.667e-01  t[s]:   4926.54

#--- Lowdin population analysis ---
# oxidation-state Pt -0.194 -0.192 -0.098 -0.020 +0.006 +0.007 +0.009 +0.007 +0.007 -0.020 -0.100
# magnetic-moments Pt +0.000 +0.000 +0.000 +0.000 +0.000 +0.000 +0.000 +0.000 +0.000 +0.000 +0.000


Computing DFT-D3 correction:
# coordination-number Pt 5.967 5.967 7.622 9.462 9.206 9.589 9.496 9.588 9.205 9.461 7.622
# diagonal-C6 Pt 336.87 336.87 336.87 336.87 336.87 336.87 336.87 336.87 336.87 336.87 336.87
EvdW_6 =   -0.096202
EvdW_8 =   -0.155928
Shifting auxilliary hamiltonian by -0.000063 to set nElectrons=176.692745

-------- Electronic minimization -----------
	Linear fluid (dielectric constant: 78.4, screening length: 8.12261 Bohr) occupying 0.590091 of unit cell:	Completed after 22 iterations at t[s]:   4945.86
	FillingsUpdate:  mu: -0.134500000  nElectrons: 176.692745  magneticMoment: [ Abs: 0.00006  Tot: +0.00006 ]
ElecMinimize: Iter:   0  G: -955.010788248538574  |grad|_K:  1.203e-06  alpha:  1.000e+00
	Linear fluid (dielectric constant: 78.4, screening length: 8.12261 Bohr) occupying 0.588732 of unit cell:	Completed after 26 iterations at t[s]:   4987.44
	Linear fluid (dielectric constant: 78.4, screening length: 8.12261 Bohr) occupying 0.589872 of unit cell:	Completed after 26 iterations at t[s]:   5003.20
	FillingsUpdate:  mu: -0.134500000  nElectrons: 176.687195  magneticMoment: [ Abs: 0.00006  Tot: +0.00006 ]
	SubspaceRotationAdjust: set factor to 0.00538
ElecMinimize: Iter:   1  G: -955.010821319395177  |grad|_K:  3.538e-07  alpha:  1.693e-01  linmin:  2.356e-02  t[s]:   5025.05
	Linear fluid (dielectric constant: 78.4, screening length: 8.12261 Bohr) occupying 0.589908 of unit cell:	Completed after 12 iterations at t[s]:   5041.51
	Linear fluid (dielectric constant: 78.4, screening length: 8.12261 Bohr) occupying 0.589971 of unit cell:	Completed after 16 iterations at t[s]:   5056.07
	FillingsUpdate:  mu: -0.134500000  nElectrons: 176.689406  magneticMoment: [ Abs: 0.00006  Tot: +0.00006 ]
	SubspaceRotationAdjust: set factor to 0.00697
ElecMinimize: Iter:   2  G: -955.010829283069938  |grad|_K:  1.908e-07  alpha:  4.709e-01  linmin:  2.429e-03  t[s]:   5077.63
	Linear fluid (dielectric constant: 78.4, screening length: 8.12261 Bohr) occupying 0.589992 of unit cell:	Completed after 13 iterations at t[s]:   5094.17
	Linear fluid (dielectric constant: 78.4, screening length: 8.12261 Bohr) occupying 0.589994 of unit cell:	Completed after 2 iterations at t[s]:   5107.34
	FillingsUpdate:  mu: -0.134500000  nElectrons: 176.689798  magneticMoment: [ Abs: 0.00006  Tot: +0.00006 ]
	SubspaceRotationAdjust: set factor to 0.00846
ElecMinimize: Iter:   3  G: -955.010831850324507  |grad|_K:  1.345e-07  alpha:  5.070e-01  linmin: -1.180e-03  t[s]:   5128.98
	Linear fluid (dielectric constant: 78.4, screening length: 8.12261 Bohr) occupying 0.590027 of unit cell:	Completed after 10 iterations at t[s]:   5145.23
	Linear fluid (dielectric constant: 78.4, screening length: 8.12261 Bohr) occupying 0.590038 of unit cell:	Completed after 7 iterations at t[s]:   5158.95
	FillingsUpdate:  mu: -0.134500000  nElectrons: 176.690763  magneticMoment: [ Abs: 0.00006  Tot: +0.00006 ]
	SubspaceRotationAdjust: set factor to 0.00992
ElecMinimize: Iter:   4  G: -955.010833564802851  |grad|_K:  1.316e-07  alpha:  6.770e-01  linmin:  5.864e-04  t[s]:   5180.33
	Linear fluid (dielectric constant: 78.4, screening length: 8.12261 Bohr) occupying 0.590051 of unit cell:	Completed after 13 iterations at t[s]:   5196.87
	Linear fluid (dielectric constant: 78.4, screening length: 8.12261 Bohr) occupying 0.590051 of unit cell:	Completed after 0 iterations at t[s]:   5209.65
	FillingsUpdate:  mu: -0.134500000  nElectrons: 176.691019  magneticMoment: [ Abs: 0.00006  Tot: +0.00006 ]
	SubspaceRotationAdjust: set factor to 0.00999
ElecMinimize: Iter:   5  G: -955.010835232992804  |grad|_K:  1.204e-07  alpha:  6.916e-01  linmin: -8.736e-04  t[s]:   5231.11
	Linear fluid (dielectric constant: 78.4, screening length: 8.12261 Bohr) occupying 0.590111 of unit cell:	Completed after 15 iterations at t[s]:   5247.81
	Linear fluid (dielectric constant: 78.4, screening length: 8.12261 Bohr) occupying 0.590097 of unit cell:	Completed after 10 iterations at t[s]:   5262.00
	FillingsUpdate:  mu: -0.134500000  nElectrons: 176.692253  magneticMoment: [ Abs: 0.00006  Tot: +0.00006 ]
	SubspaceRotationAdjust: set factor to 0.00839
ElecMinimize: Iter:   6  G: -955.010836321382385  |grad|_K:  1.257e-07  alpha:  5.326e-01  linmin:  5.427e-04  t[s]:   5283.67
	Linear fluid (dielectric constant: 78.4, screening length: 8.12261 Bohr) occupying 0.590073 of unit cell:	Completed after 13 iterations at t[s]:   5300.25
	Linear fluid (dielectric constant: 78.4, screening length: 8.12261 Bohr) occupying 0.590080 of unit cell:	Completed after 10 iterations at t[s]:   5314.33
	FillingsUpdate:  mu: -0.134500000  nElectrons: 176.691952  magneticMoment: [ Abs: 0.00006  Tot: +0.00006 ]
	SubspaceRotationAdjust: set factor to 0.00604
ElecMinimize: Iter:   7  G: -955.010837161773566  |grad|_K:  9.058e-08  alpha:  3.818e-01  linmin:  4.680e-04  t[s]:   5335.99
	Linear fluid (dielectric constant: 78.4, screening length: 8.12261 Bohr) occupying 0.590089 of unit cell:	Completed after 10 iterations at t[s]:   5352.02
	Linear fluid (dielectric constant: 78.4, screening length: 8.12261 Bohr) occupying 0.590093 of unit cell:	Completed after 4 iterations at t[s]:   5365.26
	FillingsUpdate:  mu: -0.134500000  nElectrons: 176.692503  magneticMoment: [ Abs: 0.00006  Tot: +0.00006 ]
	SubspaceRotationAdjust: set factor to 0.00619
ElecMinimize: Iter:   8  G: -955.010837844433581  |grad|_K:  6.589e-08  alpha:  5.949e-01  linmin: -1.781e-03  t[s]:   5386.88
	Linear fluid (dielectric constant: 78.4, screening length: 8.12261 Bohr) occupying 0.590095 of unit cell:	Completed after 3 iterations at t[s]:   5402.30
	Linear fluid (dielectric constant: 78.4, screening length: 8.12261 Bohr) occupying 0.590095 of unit cell:	Completed after 0 iterations at t[s]:   5414.86
	FillingsUpdate:  mu: -0.134500000  nElectrons: 176.692724  magneticMoment: [ Abs: 0.00006  Tot: +0.00006 ]
	SubspaceRotationAdjust: set factor to 0.00679
ElecMinimize: Iter:   9  G: -955.010838217956916  |grad|_K:  4.917e-08  alpha:  6.101e-01  linmin: -5.030e-04  t[s]:   5436.31
	Linear fluid (dielectric constant: 78.4, screening length: 8.12261 Bohr) occupying 0.590091 of unit cell:	Completed after 6 iterations at t[s]:   5452.11
	Linear fluid (dielectric constant: 78.4, screening length: 8.12261 Bohr) occupying 0.590091 of unit cell:	Completed after 0 iterations at t[s]:   5464.90
	FillingsUpdate:  mu: -0.134500000  nElectrons: 176.692732  magneticMoment: [ Abs: 0.00006  Tot: +0.00006 ]
	SubspaceRotationAdjust: set factor to 0.00734
ElecMinimize: Iter:  10  G: -955.010838422982147  |grad|_K:  3.796e-08  alpha:  6.057e-01  linmin: -8.957e-04  t[s]:   5486.51
	Linear fluid (dielectric constant: 78.4, screening length: 8.12261 Bohr) occupying 0.590096 of unit cell:	Completed after 6 iterations at t[s]:   5502.29
	Linear fluid (dielectric constant: 78.4, screening length: 8.12261 Bohr) occupying 0.590096 of unit cell:	Completed after 0 iterations at t[s]:   5515.12
	FillingsUpdate:  mu: -0.134500000  nElectrons: 176.692938  magneticMoment: [ Abs: 0.00006  Tot: +0.00006 ]
	SubspaceRotationAdjust: set factor to 0.00795
ElecMinimize: Iter:  11  G: -955.010838542442116  |grad|_K:  3.241e-08  alpha:  5.899e-01  linmin:  4.267e-04  t[s]:   5536.41
	Linear fluid (dielectric constant: 78.4, screening length: 8.12261 Bohr) occupying 0.590092 of unit cell:	Completed after 5 iterations at t[s]:   5552.08
	Linear fluid (dielectric constant: 78.4, screening length: 8.12261 Bohr) occupying 0.590092 of unit cell:	Completed after 0 iterations at t[s]:   5564.86
	FillingsUpdate:  mu: -0.134500000  nElectrons: 176.692900  magneticMoment: [ Abs: 0.00006  Tot: +0.00006 ]
	SubspaceRotationAdjust: set factor to 0.00925
ElecMinimize: Iter:  12  G: -955.010838633564731  |grad|_K:  2.926e-08  alpha:  6.219e-01  linmin: -2.633e-03  t[s]:   5586.19
	Linear fluid (dielectric constant: 78.4, screening length: 8.12261 Bohr) occupying 0.590093 of unit cell:	Completed after 2 iterations at t[s]:   5601.50
	Linear fluid (dielectric constant: 78.4, screening length: 8.12261 Bohr) occupying 0.590093 of unit cell:	Completed after 0 iterations at t[s]:   5614.17
	FillingsUpdate:  mu: -0.134500000  nElectrons: 176.692967  magneticMoment: [ Abs: 0.00006  Tot: +0.00006 ]
	SubspaceRotationAdjust: set factor to 0.0111
ElecMinimize: Iter:  13  G: -955.010838726661973  |grad|_K:  3.106e-08  alpha:  7.597e-01  linmin: -1.244e-03  t[s]:   5635.77
ElecMinimize: Converged (|Delta G|<1.000000e-07 for 2 iters).
Setting wave functions to eigenvectors of Hamiltonian
Converging empty states (this may take a while): |deigs|: 1.389e-08

Computing DFT-D3 correction:
# coordination-number Pt 5.967 5.967 7.622 9.462 9.206 9.589 9.496 9.588 9.205 9.461 7.622
# diagonal-C6 Pt 336.87 336.87 336.87 336.87 336.87 336.87 336.87 336.87 336.87 336.87 336.87
EvdW_6 =   -0.096202
EvdW_8 =   -0.155928

# Ionic positions in cartesian coordinates:
ion Pt   5.239365679688750   0.279144363432556  23.223758887718084 1
ion Pt  -0.007428664693961   4.453642038449927   1.316626787499390 1
ion Pt   2.606898408886797   0.501325164538556   3.039369802884768 1
ion Pt   2.611067712498524   5.481314513890676   5.633071678477666 1
ion Pt  -0.002632674247722   1.548264677785921   7.767711272930971 1
ion Pt  -0.002595134373991   6.305761760886806  10.052652889141061 1
ion Pt   2.616198550943428   2.366432954055639  12.269917131017934 1
ion Pt   2.618687941505794   7.102462024948115  14.487630132283151 1
ion Pt   0.002760904825100   3.184501183214731  16.772268410449851 1
ion Pt   0.004873070688621   7.926985014704748  18.907494333176917 1
ion Pt   2.624785204278660   4.231587304092328  21.500972674420218 1

# Forces in Cartesian coordinates:
force Pt  -0.000027505474317   0.000091677965708   0.000128885518852 1
force Pt   0.000028373811305  -0.000007843977831  -0.000098857419307 1
force Pt  -0.000015088772872  -0.000097816896476  -0.000586957651863 1
force Pt   0.000007266970642   0.000017388997032  -0.000102483645437 1
force Pt  -0.000017071494674  -0.000126006525313  -0.000196817226967 1
force Pt  -0.000002001387239   0.000074464031703  -0.000086548686619 1
force Pt  -0.000002252728589  -0.000162405930612   0.000052157230346 1
force Pt   0.000000608705037   0.000214760986226   0.000046245890111 1
force Pt   0.000016487455748  -0.000107660839334   0.000237852340235 1
force Pt  -0.000006064317181   0.000142631548458   0.000005328224692 1
force Pt   0.000016028106324  -0.000032872899618   0.000605139513939 1

# Energy components:
   A_diel =       -0.2949307622754532
   Eewald =    10861.3392557170209329
       EH =    11784.7890046156153403
     Eloc =   -23794.2244356996525312
      Enl =      -11.5660585261980273
     EvdW =       -0.2521295420269574
      Exc =     -313.1075819492106120
 Exc_core =      180.3052003752179644
       KE =      314.2738936413574038
  MuShift =       -0.0362096292703492
-------------------------------------
     Etot =     -978.7739917594200278
       TS =        0.0020510926997629
-------------------------------------
        F =     -978.7760428521197582
      muN =      -23.7652041254577746
-------------------------------------
        G =     -955.0108387266619729


Dumping 'jdft.fillings' ... done
Dumping 'jdft.wfns' ... done
Dumping 'jdft.fluidState' ... done
Dumping 'jdft.ionpos' ... done
Dumping 'jdft.lattice' ... done
Dumping 'jdft.eigenvals' ... done
Dumping 'jdft.eigStats' ... 
	eMin: -2.084651 at state 39 ( [ +0.461538 +0.000000 +0.000000 ] spin 1 )
	HOMO: -0.134513 at state 55 ( [ +0.076923 -0.285714 +0.000000 ] spin -1 )
	mu  : -0.134500
	LUMO: -0.134345 at state 32 ( [ +0.384615 +0.000000 +0.000000 ] spin 1 )
	eMax: +0.155175 at state 87 ( [ +0.461538 +0.285714 +0.000000 ] spin -1 )
	HOMO-LUMO gap: +0.000168
	Optical gap  : +0.000694 at state 78 ( [ +0.384615 +0.000000 +0.000000 ] spin -1 )
Dumping 'jdft.Ecomponents' ... done
IonicMinimize: Iter:   2  G: -955.010838726661973  |grad|_K:  1.744e-04  alpha:  1.000e+00  linmin: -3.536e-01  t[s]:   5683.94
IonicMinimize: Converged (|Delta G|<1.000000e-04 for 2 iters).

#--- Lowdin population analysis ---
# oxidation-state Pt -0.193 -0.194 -0.102 -0.014 +0.010 +0.006 +0.007 +0.004 +0.008 -0.016 -0.102
# magnetic-moments Pt +0.000 +0.000 +0.000 +0.000 +0.000 +0.000 +0.000 +0.000 +0.000 +0.000 +0.000


Dumping 'jdft.n_up' ... done
Dumping 'jdft.n_dn' ... done
Dumping 'jdft.tau_up' ... done
Dumping 'jdft.tau_dn' ... done
Dumping 'jdft.eigenvals' ... done
Dumping 'jdft.eigStats' ... 
	eMin: -2.084651 at state 39 ( [ +0.461538 +0.000000 +0.000000 ] spin 1 )
	HOMO: -0.134513 at state 55 ( [ +0.076923 -0.285714 +0.000000 ] spin -1 )
	mu  : -0.134500
	LUMO: -0.134345 at state 32 ( [ +0.384615 +0.000000 +0.000000 ] spin 1 )
	eMax: +0.155175 at state 87 ( [ +0.461538 +0.285714 +0.000000 ] spin -1 )
	HOMO-LUMO gap: +0.000168
	Optical gap  : +0.000694 at state 78 ( [ +0.384615 +0.000000 +0.000000 ] spin -1 )
Dumping 'jdft.kPts' ... done
Dumping 'jdft.kMap' ... done
Dumping 'jdft.dosUp' ... done.
Dumping 'jdft.dosDn' ... done.
End date and time: Sat Sep 10 13:05:30 2022  (Duration: 0-1:35:17.05)
Done!

PROFILER:             augmentDensityGrid     2.435481 +/-     0.132954 s,  210 calls,    511.450988 s total
PROFILER:         augmentDensityGridGrad     0.141176 +/-     0.051397 s,  108 calls,     15.247052 s total
PROFILER:        augmentDensitySpherical     0.001019 +/-     0.000059 s,  630 calls,      0.642063 s total
PROFILER:    augmentDensitySphericalGrad     0.001044 +/-     0.000091 s,  355 calls,      0.370615 s total
PROFILER:                 augmentOverlap     0.466404 +/-     0.035296 s, 1298 calls,    605.392638 s total
PROFILER:                     diagouterI     1.987826 +/-     0.084368 s,  639 calls,   1270.220672 s total
PROFILER:              EdensityAndVscloc     2.637243 +/-     0.931812 s,  210 calls,    553.821102 s total
PROFILER:                     EnlAndGrad     0.002084 +/-     0.000351 s,  670 calls,      1.396133 s total
PROFILER:            ExCorrCommunication     0.021576 +/-     0.044647 s, 1295 calls,     27.940786 s total
PROFILER:               ExCorrFunctional     0.003370 +/-     0.000395 s,  220 calls,      0.741365 s total
PROFILER:                    ExCorrTotal     0.176704 +/-     0.085334 s,  220 calls,     38.874968 s total
PROFILER:                   Idag_DiagV_I     3.819023 +/-     0.616943 s,  346 calls,   1321.381849 s total
PROFILER:                    initWeights     1.967286 +/-     0.000000 s,    1 calls,      1.967286 s total
PROFILER:                    inv(matrix)     0.000980 +/-     0.000093 s,  621 calls,      0.608701 s total
PROFILER:            matrix::diagonalize     0.003729 +/-     0.001425 s,  973 calls,      3.628376 s total
PROFILER:                    matrix::set     0.000004 +/-     0.000005 s, 11475 calls,      0.045080 s total
PROFILER:            orthoMatrix(matrix)     0.000566 +/-     0.000311 s,  646 calls,      0.365571 s total
PROFILER:     RadialFunctionR::transform     0.019512 +/-     0.124918 s,   55 calls,      1.073147 s total
PROFILER:                    reduceKmesh     0.000084 +/-     0.000000 s,    1 calls,      0.000084 s total
PROFILER:   VanDerWaalsD3::energyAndGrad     0.005672 +/-     0.001358 s,    7 calls,      0.039707 s total
PROFILER:               WavefunctionDrag     5.826129 +/-     1.506364 s,    3 calls,     17.478386 s total
PROFILER:                            Y*M     0.124989 +/-     0.045457 s, 4237 calls,    529.578680 s total
PROFILER:                          Y1^Y2     0.137527 +/-     0.045999 s, 2691 calls,    370.084100 s total

MEMUSAGE:                   ColumnBundle     0.335425 GB
MEMUSAGE:        complexScalarFieldTilde     0.008583 GB
MEMUSAGE:                    IndexArrays     0.019573 GB
MEMUSAGE:                         matrix     0.014263 GB
MEMUSAGE:                           misc     0.008638 GB
MEMUSAGE:                    ScalarField     0.062227 GB
MEMUSAGE:               ScalarFieldTilde     0.045362 GB
MEMUSAGE:                          Total     0.405902 GB
