
*************** JDFTx 1.6.0  ***************

Start date and time: Sat Mar  5 16:10:07 2022
Executable /projects/musgravc/apps/jdftx-1.6.1/build/jdftx with command-line: -i in
Running on hosts (process indices):  shas0831.rc.int.colorado.edu (0-23)
Divided in process groups (process indices):  0 (0)  1 (1)  2 (2)  3 (3)  4 (4)  5 (5)  6 (6)  7 (7)  8 (8)  9 (9)  10 (10)  11 (11)  12 (12)  13 (13)  14 (14)  15 (15)  16 (16)  17 (17)  18 (18)  19 (19)  20 (20)  21 (21)  22 (22)  23 (23)
Resource initialization completed at t[s]:      0.00
Run totals: 24 processes, 24 threads, 0 GPUs


Input parsed successfully to the following command list (including defaults):

basis kpoint-dependent
converge-empty-states yes
coords-type Cartesian
core-overlap-check none
coulomb-interaction Periodic
davidson-band-ratio 1.1
density-of-states Etol 1.000000e-06 Esigma 1.000000e-03 \
		Complete \
	Total \
	OrthoOrbital Ag 1   s \
	OrthoOrbital Ag 1   p \
	OrthoOrbital Ag 1   px \
	OrthoOrbital Ag 1   py \
	OrthoOrbital Ag 1   pz \
	OrthoOrbital Ag 1   d \
	OrthoOrbital Ag 1   dxy \
	OrthoOrbital Ag 1   dyz \
	OrthoOrbital Ag 1   dz2 \
	OrthoOrbital Ag 1   dxz \
	OrthoOrbital Ag 1   dx2-y2 \
	OrthoOrbital Ag 2   s \
	OrthoOrbital Ag 2   p \
	OrthoOrbital Ag 2   px \
	OrthoOrbital Ag 2   py \
	OrthoOrbital Ag 2   pz \
	OrthoOrbital Ag 2   d \
	OrthoOrbital Ag 2   dxy \
	OrthoOrbital Ag 2   dyz \
	OrthoOrbital Ag 2   dz2 \
	OrthoOrbital Ag 2   dxz \
	OrthoOrbital Ag 2   dx2-y2 \
	OrthoOrbital Ag 3   s \
	OrthoOrbital Ag 3   p \
	OrthoOrbital Ag 3   px \
	OrthoOrbital Ag 3   py \
	OrthoOrbital Ag 3   pz \
	OrthoOrbital Ag 3   d \
	OrthoOrbital Ag 3   dxy \
	OrthoOrbital Ag 3   dyz \
	OrthoOrbital Ag 3   dz2 \
	OrthoOrbital Ag 3   dxz \
	OrthoOrbital Ag 3   dx2-y2 \
	OrthoOrbital Ag 4   s \
	OrthoOrbital Ag 4   p \
	OrthoOrbital Ag 4   px \
	OrthoOrbital Ag 4   py \
	OrthoOrbital Ag 4   pz \
	OrthoOrbital Ag 4   d \
	OrthoOrbital Ag 4   dxy \
	OrthoOrbital Ag 4   dyz \
	OrthoOrbital Ag 4   dz2 \
	OrthoOrbital Ag 4   dxz \
	OrthoOrbital Ag 4   dx2-y2 \
	OrthoOrbital Ag 5   s \
	OrthoOrbital Ag 5   p \
	OrthoOrbital Ag 5   px \
	OrthoOrbital Ag 5   py \
	OrthoOrbital Ag 5   pz \
	OrthoOrbital Ag 5   d \
	OrthoOrbital Ag 5   dxy \
	OrthoOrbital Ag 5   dyz \
	OrthoOrbital Ag 5   dz2 \
	OrthoOrbital Ag 5   dxz \
	OrthoOrbital Ag 5   dx2-y2 \
	OrthoOrbital Ag 6   s \
	OrthoOrbital Ag 6   p \
	OrthoOrbital Ag 6   px \
	OrthoOrbital Ag 6   py \
	OrthoOrbital Ag 6   pz \
	OrthoOrbital Ag 6   d \
	OrthoOrbital Ag 6   dxy \
	OrthoOrbital Ag 6   dyz \
	OrthoOrbital Ag 6   dz2 \
	OrthoOrbital Ag 6   dxz \
	OrthoOrbital Ag 6   dx2-y2 \
	OrthoOrbital Ag 7   s \
	OrthoOrbital Ag 7   p \
	OrthoOrbital Ag 7   px \
	OrthoOrbital Ag 7   py \
	OrthoOrbital Ag 7   pz \
	OrthoOrbital Ag 7   d \
	OrthoOrbital Ag 7   dxy \
	OrthoOrbital Ag 7   dyz \
	OrthoOrbital Ag 7   dz2 \
	OrthoOrbital Ag 7   dxz \
	OrthoOrbital Ag 7   dx2-y2 \
	OrthoOrbital Ag 8   s \
	OrthoOrbital Ag 8   p \
	OrthoOrbital Ag 8   px \
	OrthoOrbital Ag 8   py \
	OrthoOrbital Ag 8   pz \
	OrthoOrbital Ag 8   d \
	OrthoOrbital Ag 8   dxy \
	OrthoOrbital Ag 8   dyz \
	OrthoOrbital Ag 8   dz2 \
	OrthoOrbital Ag 8   dxz \
	OrthoOrbital Ag 8   dx2-y2 \
	OrthoOrbital Ag 9   s \
	OrthoOrbital Ag 9   p \
	OrthoOrbital Ag 9   px \
	OrthoOrbital Ag 9   py \
	OrthoOrbital Ag 9   pz \
	OrthoOrbital Ag 9   d \
	OrthoOrbital Ag 9   dxy \
	OrthoOrbital Ag 9   dyz \
	OrthoOrbital Ag 9   dz2 \
	OrthoOrbital Ag 9   dxz \
	OrthoOrbital Ag 9   dx2-y2 \
	OrthoOrbital Ag 10   s \
	OrthoOrbital Ag 10   p \
	OrthoOrbital Ag 10   px \
	OrthoOrbital Ag 10   py \
	OrthoOrbital Ag 10   pz \
	OrthoOrbital Ag 10   d \
	OrthoOrbital Ag 10   dxy \
	OrthoOrbital Ag 10   dyz \
	OrthoOrbital Ag 10   dz2 \
	OrthoOrbital Ag 10   dxz \
	OrthoOrbital Ag 10   dx2-y2 \
	OrthoOrbital Ag 11   s \
	OrthoOrbital Ag 11   p \
	OrthoOrbital Ag 11   px \
	OrthoOrbital Ag 11   py \
	OrthoOrbital Ag 11   pz \
	OrthoOrbital Ag 11   d \
	OrthoOrbital Ag 11   dxy \
	OrthoOrbital Ag 11   dyz \
	OrthoOrbital Ag 11   dz2 \
	OrthoOrbital Ag 11   dxz \
	OrthoOrbital Ag 11   dx2-y2 \
	OrthoOrbital Ag 12   s \
	OrthoOrbital Ag 12   p \
	OrthoOrbital Ag 12   px \
	OrthoOrbital Ag 12   py \
	OrthoOrbital Ag 12   pz \
	OrthoOrbital Ag 12   d \
	OrthoOrbital Ag 12   dxy \
	OrthoOrbital Ag 12   dyz \
	OrthoOrbital Ag 12   dz2 \
	OrthoOrbital Ag 12   dxz \
	OrthoOrbital Ag 12   dx2-y2 \
	OrthoOrbital Ag 13   s \
	OrthoOrbital Ag 13   p \
	OrthoOrbital Ag 13   px \
	OrthoOrbital Ag 13   py \
	OrthoOrbital Ag 13   pz \
	OrthoOrbital Ag 13   d \
	OrthoOrbital Ag 13   dxy \
	OrthoOrbital Ag 13   dyz \
	OrthoOrbital Ag 13   dz2 \
	OrthoOrbital Ag 13   dxz \
	OrthoOrbital Ag 13   dx2-y2 \
	OrthoOrbital Ag 14   s \
	OrthoOrbital Ag 14   p \
	OrthoOrbital Ag 14   px \
	OrthoOrbital Ag 14   py \
	OrthoOrbital Ag 14   pz \
	OrthoOrbital Ag 14   d \
	OrthoOrbital Ag 14   dxy \
	OrthoOrbital Ag 14   dyz \
	OrthoOrbital Ag 14   dz2 \
	OrthoOrbital Ag 14   dxz \
	OrthoOrbital Ag 14   dx2-y2 \
	OrthoOrbital Ag 15   s \
	OrthoOrbital Ag 15   p \
	OrthoOrbital Ag 15   px \
	OrthoOrbital Ag 15   py \
	OrthoOrbital Ag 15   pz \
	OrthoOrbital Ag 15   d \
	OrthoOrbital Ag 15   dxy \
	OrthoOrbital Ag 15   dyz \
	OrthoOrbital Ag 15   dz2 \
	OrthoOrbital Ag 15   dxz \
	OrthoOrbital Ag 15   dx2-y2 \
	OrthoOrbital Ag 16   s \
	OrthoOrbital Ag 16   p \
	OrthoOrbital Ag 16   px \
	OrthoOrbital Ag 16   py \
	OrthoOrbital Ag 16   pz \
	OrthoOrbital Ag 16   d \
	OrthoOrbital Ag 16   dxy \
	OrthoOrbital Ag 16   dyz \
	OrthoOrbital Ag 16   dz2 \
	OrthoOrbital Ag 16   dxz \
	OrthoOrbital Ag 16   dx2-y2 \
	OrthoOrbital Ag 17   s \
	OrthoOrbital Ag 17   p \
	OrthoOrbital Ag 17   px \
	OrthoOrbital Ag 17   py \
	OrthoOrbital Ag 17   pz \
	OrthoOrbital Ag 17   d \
	OrthoOrbital Ag 17   dxy \
	OrthoOrbital Ag 17   dyz \
	OrthoOrbital Ag 17   dz2 \
	OrthoOrbital Ag 17   dxz \
	OrthoOrbital Ag 17   dx2-y2 \
	OrthoOrbital Ag 18   s \
	OrthoOrbital Ag 18   p \
	OrthoOrbital Ag 18   px \
	OrthoOrbital Ag 18   py \
	OrthoOrbital Ag 18   pz \
	OrthoOrbital Ag 18   d \
	OrthoOrbital Ag 18   dxy \
	OrthoOrbital Ag 18   dyz \
	OrthoOrbital Ag 18   dz2 \
	OrthoOrbital Ag 18   dxz \
	OrthoOrbital Ag 18   dx2-y2 \
	OrthoOrbital Ag 19   s \
	OrthoOrbital Ag 19   p \
	OrthoOrbital Ag 19   px \
	OrthoOrbital Ag 19   py \
	OrthoOrbital Ag 19   pz \
	OrthoOrbital Ag 19   d \
	OrthoOrbital Ag 19   dxy \
	OrthoOrbital Ag 19   dyz \
	OrthoOrbital Ag 19   dz2 \
	OrthoOrbital Ag 19   dxz \
	OrthoOrbital Ag 19   dx2-y2 \
	OrthoOrbital Ag 20   s \
	OrthoOrbital Ag 20   p \
	OrthoOrbital Ag 20   px \
	OrthoOrbital Ag 20   py \
	OrthoOrbital Ag 20   pz \
	OrthoOrbital Ag 20   d \
	OrthoOrbital Ag 20   dxy \
	OrthoOrbital Ag 20   dyz \
	OrthoOrbital Ag 20   dz2 \
	OrthoOrbital Ag 20   dxz \
	OrthoOrbital Ag 20   dx2-y2 \
	OrthoOrbital Ag 21   s \
	OrthoOrbital Ag 21   p \
	OrthoOrbital Ag 21   px \
	OrthoOrbital Ag 21   py \
	OrthoOrbital Ag 21   pz \
	OrthoOrbital Ag 21   d \
	OrthoOrbital Ag 21   dxy \
	OrthoOrbital Ag 21   dyz \
	OrthoOrbital Ag 21   dz2 \
	OrthoOrbital Ag 21   dxz \
	OrthoOrbital Ag 21   dx2-y2 \
	OrthoOrbital Ag 22   s \
	OrthoOrbital Ag 22   p \
	OrthoOrbital Ag 22   px \
	OrthoOrbital Ag 22   py \
	OrthoOrbital Ag 22   pz \
	OrthoOrbital Ag 22   d \
	OrthoOrbital Ag 22   dxy \
	OrthoOrbital Ag 22   dyz \
	OrthoOrbital Ag 22   dz2 \
	OrthoOrbital Ag 22   dxz \
	OrthoOrbital Ag 22   dx2-y2 \
	OrthoOrbital Ag 23   s \
	OrthoOrbital Ag 23   p \
	OrthoOrbital Ag 23   px \
	OrthoOrbital Ag 23   py \
	OrthoOrbital Ag 23   pz \
	OrthoOrbital Ag 23   d \
	OrthoOrbital Ag 23   dxy \
	OrthoOrbital Ag 23   dyz \
	OrthoOrbital Ag 23   dz2 \
	OrthoOrbital Ag 23   dxz \
	OrthoOrbital Ag 23   dx2-y2 \
	OrthoOrbital Ag 24   s \
	OrthoOrbital Ag 24   p \
	OrthoOrbital Ag 24   px \
	OrthoOrbital Ag 24   py \
	OrthoOrbital Ag 24   pz \
	OrthoOrbital Ag 24   d \
	OrthoOrbital Ag 24   dxy \
	OrthoOrbital Ag 24   dyz \
	OrthoOrbital Ag 24   dz2 \
	OrthoOrbital Ag 24   dxz \
	OrthoOrbital Ag 24   dx2-y2 \
	OrthoOrbital Pt 1   s \
	OrthoOrbital Pt 1   p \
	OrthoOrbital Pt 1   px \
	OrthoOrbital Pt 1   py \
	OrthoOrbital Pt 1   pz \
	OrthoOrbital Pt 1   d \
	OrthoOrbital Pt 1   dxy \
	OrthoOrbital Pt 1   dyz \
	OrthoOrbital Pt 1   dz2 \
	OrthoOrbital Pt 1   dxz \
	OrthoOrbital Pt 1   dx2-y2 \
	OrthoOrbital Pt 2   s \
	OrthoOrbital Pt 2   p \
	OrthoOrbital Pt 2   px \
	OrthoOrbital Pt 2   py \
	OrthoOrbital Pt 2   pz \
	OrthoOrbital Pt 2   d \
	OrthoOrbital Pt 2   dxy \
	OrthoOrbital Pt 2   dyz \
	OrthoOrbital Pt 2   dz2 \
	OrthoOrbital Pt 2   dxz \
	OrthoOrbital Pt 2   dx2-y2 \
	OrthoOrbital Pt 3   s \
	OrthoOrbital Pt 3   p \
	OrthoOrbital Pt 3   px \
	OrthoOrbital Pt 3   py \
	OrthoOrbital Pt 3   pz \
	OrthoOrbital Pt 3   d \
	OrthoOrbital Pt 3   dxy \
	OrthoOrbital Pt 3   dyz \
	OrthoOrbital Pt 3   dz2 \
	OrthoOrbital Pt 3   dxz \
	OrthoOrbital Pt 3   dx2-y2 \
	OrthoOrbital Pt 4   s \
	OrthoOrbital Pt 4   p \
	OrthoOrbital Pt 4   px \
	OrthoOrbital Pt 4   py \
	OrthoOrbital Pt 4   pz \
	OrthoOrbital Pt 4   d \
	OrthoOrbital Pt 4   dxy \
	OrthoOrbital Pt 4   dyz \
	OrthoOrbital Pt 4   dz2 \
	OrthoOrbital Pt 4   dxz \
	OrthoOrbital Pt 4   dx2-y2 \
	OrthoOrbital Pt 5   s \
	OrthoOrbital Pt 5   p \
	OrthoOrbital Pt 5   px \
	OrthoOrbital Pt 5   py \
	OrthoOrbital Pt 5   pz \
	OrthoOrbital Pt 5   d \
	OrthoOrbital Pt 5   dxy \
	OrthoOrbital Pt 5   dyz \
	OrthoOrbital Pt 5   dz2 \
	OrthoOrbital Pt 5   dxz \
	OrthoOrbital Pt 5   dx2-y2 \
	OrthoOrbital Pt 6   s \
	OrthoOrbital Pt 6   p \
	OrthoOrbital Pt 6   px \
	OrthoOrbital Pt 6   py \
	OrthoOrbital Pt 6   pz \
	OrthoOrbital Pt 6   d \
	OrthoOrbital Pt 6   dxy \
	OrthoOrbital Pt 6   dyz \
	OrthoOrbital Pt 6   dz2 \
	OrthoOrbital Pt 6   dxz \
	OrthoOrbital Pt 6   dx2-y2 \
	OrthoOrbital Pt 7   s \
	OrthoOrbital Pt 7   p \
	OrthoOrbital Pt 7   px \
	OrthoOrbital Pt 7   py \
	OrthoOrbital Pt 7   pz \
	OrthoOrbital Pt 7   d \
	OrthoOrbital Pt 7   dxy \
	OrthoOrbital Pt 7   dyz \
	OrthoOrbital Pt 7   dz2 \
	OrthoOrbital Pt 7   dxz \
	OrthoOrbital Pt 7   dx2-y2 \
	OrthoOrbital Pt 8   s \
	OrthoOrbital Pt 8   p \
	OrthoOrbital Pt 8   px \
	OrthoOrbital Pt 8   py \
	OrthoOrbital Pt 8   pz \
	OrthoOrbital Pt 8   d \
	OrthoOrbital Pt 8   dxy \
	OrthoOrbital Pt 8   dyz \
	OrthoOrbital Pt 8   dz2 \
	OrthoOrbital Pt 8   dxz \
	OrthoOrbital Pt 8   dx2-y2 \
	OrthoOrbital C 1   s \
	OrthoOrbital C 1   p \
	OrthoOrbital C 1   px \
	OrthoOrbital C 1   py \
	OrthoOrbital C 1   pz \
	OrthoOrbital O 1   s \
	OrthoOrbital O 1   p \
	OrthoOrbital O 1   px \
	OrthoOrbital O 1   py \
	OrthoOrbital O 1   pz
dump End ElecDensity KEdensity BandEigs EigStats RhoAtom DOS Kpoints
dump Ionic State IonicPositions Lattice EigStats Ecomponents
dump 
dump 
dump 
dump 
dump 
dump 
dump 
dump 
dump-name jdft.$VAR
elec-cutoff 20
elec-eigen-algo Davidson
elec-ex-corr gga-PBE
elec-initial-magnetization 0.000000 no
elec-n-bands 357
elec-smearing Fermi 0.001
electronic-minimize  \
	dirUpdateScheme      FletcherReeves \
	linminMethod         DirUpdateRecommended \
	nIterations          100 \
	history              15 \
	knormThreshold       0 \
	energyDiffThreshold  1e-07 \
	nEnergyDiff          2 \
	alphaTstart          1 \
	alphaTmin            1e-10 \
	updateTestStepSize   yes \
	alphaTreduceFactor   0.1 \
	alphaTincreaseFactor 3 \
	nAlphaAdjustMax      3 \
	wolfeEnergy          0.0001 \
	wolfeGradient        0.9 \
	fdTest               no
exchange-regularization WignerSeitzTruncated
fluid LinearPCM 298.000000 1.013250
fluid-anion F- 0.5 MeanFieldLJ \
	epsBulk 1 \
	pMol 0 \
	epsInf 1 \
	Pvap 0 \
	sigmaBulk 0 \
	Rvdw 2.24877 \
	Res 0 \
	tauNuc 343133
fluid-cation Na+ 0.5 MeanFieldLJ \
	epsBulk 1 \
	pMol 0 \
	epsInf 1 \
	Pvap 0 \
	sigmaBulk 0 \
	Rvdw 2.19208 \
	Res 0 \
	tauNuc 343133
fluid-ex-corr lda-TF lda-PZ
fluid-gummel-loop 10 1.000000e-05
fluid-minimize  \
	dirUpdateScheme      PolakRibiere \
	linminMethod         DirUpdateRecommended \
	nIterations          400 \
	history              15 \
	knormThreshold       1e-11 \
	energyDiffThreshold  0 \
	nEnergyDiff          2 \
	alphaTstart          1 \
	alphaTmin            1e-10 \
	updateTestStepSize   yes \
	alphaTreduceFactor   0.1 \
	alphaTincreaseFactor 3 \
	nAlphaAdjustMax      6 \
	wolfeEnergy          0.0001 \
	wolfeGradient        0.9 \
	fdTest               no
fluid-solvent H2O 55.338 ScalarEOS \
	epsBulk 78.4 \
	pMol 0.92466 \
	epsInf 1.77 \
	Pvap 1.06736e-10 \
	sigmaBulk 4.62e-05 \
	Rvdw 2.61727 \
	Res 1.42 \
	tauNuc 343133 \
	poleEl 15 7 1
forces-output-coords Positions
ion Ag   3.787148999999999   3.787148999999999   5.645639999999999 0
ion Ag   3.787148999999999  11.361447000000000   5.645639999999999 0
ion Ag  11.361447000000000   3.787148999999999   5.645639999999999 0
ion Ag  11.361447000000000  11.361447000000000   5.645639999999999 0
ion Ag   3.787148999999999   0.000000000000000   1.801744000000000 0
ion Ag   3.787148999999999   7.574297999999999   1.801744000000000 0
ion Ag  11.361447000000000   0.000000000000000   1.801744000000000 0
ion Ag  11.361447000000000   7.574297999999999   1.801744000000000 0
ion Ag   0.000000000000000   3.787148999999999   1.801744000000000 0
ion Ag   0.000000000000000  11.361447000000000   1.801744000000000 0
ion Ag   7.574297999999999   3.787148999999999   1.801744000000000 0
ion Ag   7.574297999999999  11.361447000000000   1.801744000000000 0
ion Ag   3.787148999999999   3.787148999999999  13.586699999999999 0
ion Ag   3.787148999999999  11.361447000000000  13.586699999999999 0
ion Ag  11.361447000000000   3.787148999999999  13.586699999999999 0
ion Ag  11.361447000000000  11.361447000000000  13.586699999999999 0
ion Ag   3.787148999999999   0.000000000000000   9.493898000000000 0
ion Ag   3.787148999999999   7.574297999999999   9.493898000000000 0
ion Ag  11.361447000000000   0.000000000000000   9.493898000000000 0
ion Ag  11.361447000000000   7.574297999999999   9.493898000000000 0
ion Ag   0.000000000000000   3.787148999999999   9.493898000000000 0
ion Ag   0.000000000000000  11.361447000000000   9.493898000000000 0
ion Ag   7.574297999999999   3.787148999999999   9.493898000000000 0
ion Ag   7.574297999999999  11.361447000000000   9.493898000000000 0
ion Pt   0.000000000000000   0.000000000000000   5.606146999999999 0
ion Pt   0.000000000000000   7.574297999999999   5.606146999999999 0
ion Pt   7.574297999999999   0.000000000000000   5.606146999999999 0
ion Pt   7.574297999999999   7.574297999999999   5.606146999999999 0
ion Pt   0.000000000000000   0.000000000000000  13.164645000000000 0
ion Pt   0.000000000000000   7.574297999999999  13.164645000000000 0
ion Pt   7.574297999999999   0.000000000000000  13.164645000000000 0
ion Pt   7.574297999999999   7.574297999999999  13.164645000000000 0
ion C   6.311919999999999   3.787148999999999  16.175882999999999 1  Linear 0 0 1
ion O   6.372015000000000   3.787148999999999  18.331195000000001 1  Linear 0 0 1
ion-species /projects/musgravc/apps/jdftx-1.6.0/build/pseudopotentials/GBRV_v1.5/$ID_pbe_v1.uspp
ion-species /projects/musgravc/apps/jdftx-1.6.0/build/pseudopotentials/GBRV_v1.5/$ID_pbe_v1.2.uspp
ion-species /projects/musgravc/apps/jdftx-1.6.0/build/pseudopotentials/GBRV_v1.5/$ID_pbe_v1.4.uspp
ion-species /projects/musgravc/apps/jdftx-1.6.0/build/pseudopotentials/GBRV_v1.5/$ID_pbe_v1.5.uspp
ion-width Ecut
ionic-minimize  \
	dirUpdateScheme      L-BFGS \
	linminMethod         DirUpdateRecommended \
	nIterations          100 \
	history              15 \
	knormThreshold       0.0001 \
	energyDiffThreshold  1e-06 \
	nEnergyDiff          2 \
	alphaTstart          1 \
	alphaTmin            1e-10 \
	updateTestStepSize   yes \
	alphaTreduceFactor   0.1 \
	alphaTincreaseFactor 3 \
	nAlphaAdjustMax      3 \
	wolfeEnergy          0.0001 \
	wolfeGradient        0.9 \
	fdTest               no
kpoint   0.000000000000   0.000000000000   0.000000000000  1.00000000000000
kpoint-folding 4 4 1 
latt-move-scale 0 0 0
latt-scale 1 1 1 
lattice  \
	  15.148596000000000    0.000000000000000    0.000000000000000  \
	   0.000000000000000   15.148596000000000    0.000000000000000  \
	   0.000000000000000    0.000000000000000   45.445788999999998 
lattice-minimize  \
	dirUpdateScheme      L-BFGS \
	linminMethod         DirUpdateRecommended \
	nIterations          0 \
	history              15 \
	knormThreshold       0 \
	energyDiffThreshold  1e-06 \
	nEnergyDiff          2 \
	alphaTstart          1 \
	alphaTmin            1e-10 \
	updateTestStepSize   yes \
	alphaTreduceFactor   0.1 \
	alphaTincreaseFactor 3 \
	nAlphaAdjustMax      3 \
	wolfeEnergy          0.0001 \
	wolfeGradient        0.9 \
	fdTest               no
lcao-params 30 1e-06 0.001
pcm-variant CANDLE
spintype z-spin
subspace-rotation-factor 1 yes
symmetries automatic
symmetry-threshold 0.0001
van-der-waals D3



---------- Setting up symmetries ----------

Found 16 point-group symmetries of the bravais lattice
Found 2 space-group symmetries with basis
Applied RMS atom displacement 0 bohrs to make symmetries exact.

---------- Initializing the Grid ----------
R = 
[      15.1486            0            0  ]
[            0      15.1486            0  ]
[            0            0      45.4458  ]
unit cell volume = 10428.9
G =
[    0.41477          0          0  ]
[          0    0.41477          0  ]
[          0          0   0.138257  ]
Minimum fftbox size, Smin = [  64  64  184  ]
Chosen fftbox size, S = [  64  64  192  ]

---------- Exchange Correlation functional ----------
Initalized PBE GGA exchange.
Initalized PBE GGA correlation.

---------- Setting up pseudopotentials ----------
Width of ionic core gaussian charges (only for fluid interactions / plotting) set to 0.397384

Reading pseudopotential file '/projects/musgravc/apps/jdftx-1.6.0/build/pseudopotentials/GBRV_v1.5/ag_pbe_v1.4.uspp':
  Title: Ag.  Created by USPP 7.3.6 on 1-4-15
  Reference state energy: -147.606242.  19 valence electrons in orbitals:
    |400>  occupation: 2  eigenvalue: -3.637437
    |410>  occupation: 6  eigenvalue: -2.297267
    |420>  occupation: 10  eigenvalue: -0.417763
    |500>  occupation: 0.5  eigenvalue: -0.283525
    |510>  occupation: 0  eigenvalue: -0.122889
  lMax: 2  lLocal: 0  QijEcut: 5.5
  6 projectors sampled on a log grid with 717 points:
    l: 0  eig: -0.283528  rCut: 1.5
    l: 0  eig: -3.637440  rCut: 1.5
    l: 1  eig: -0.122892  rCut: 1.5
    l: 1  eig: -2.297267  rCut: 1.5
    l: 2  eig: -0.417762  rCut: 1.7
    l: 2  eig: -1.000000  rCut: 1.7
  Partial core density with radius 1.2
  Transforming core density to a uniform radial grid of dG=0.02 with 1155 points.
  Transforming local potential to a uniform radial grid of dG=0.02 with 1155 points.
  Transforming nonlocal projectors to a uniform radial grid of dG=0.02 with 432 points.
  Transforming density augmentations to a uniform radial grid of dG=0.02 with 1155 points.
  Transforming atomic orbitals to a uniform radial grid of dG=0.02 with 432 points.
  Core radius for overlap checks: 1.70 bohrs.

Reading pseudopotential file '/projects/musgravc/apps/jdftx-1.6.0/build/pseudopotentials/GBRV_v1.5/pt_pbe_v1.4.uspp':
  Title: Pt.  Created by USPP 7.3.6 on 31-3-15
  Reference state energy: -105.002503.  16 valence electrons in orbitals:
    |510>  occupation: 6  eigenvalue: -2.158104
    |520>  occupation: 9.5  eigenvalue: -0.335376
    |600>  occupation: 0  eigenvalue: -0.319640
    |610>  occupation: 0  eigenvalue: -0.122947
  lMax: 2  lLocal: 3  QijEcut: 5.5
  6 projectors sampled on a log grid with 745 points:
    l: 0  eig: -0.319640  rCut: 2.45
    l: 0  eig: 1.500000  rCut: 2.45
    l: 1  eig: -2.158104  rCut: 1.6
    l: 1  eig: -0.122947  rCut: 1.6
    l: 2  eig: -0.500000  rCut: 1.6
    l: 2  eig: -0.335375  rCut: 1.6
  Partial core density with radius 1.1
  Transforming core density to a uniform radial grid of dG=0.02 with 1155 points.
  Transforming local potential to a uniform radial grid of dG=0.02 with 1155 points.
  Transforming nonlocal projectors to a uniform radial grid of dG=0.02 with 432 points.
  Transforming density augmentations to a uniform radial grid of dG=0.02 with 1155 points.
  Transforming atomic orbitals to a uniform radial grid of dG=0.02 with 432 points.
  Core radius for overlap checks: 2.45 bohrs.

Reading pseudopotential file '/projects/musgravc/apps/jdftx-1.6.0/build/pseudopotentials/GBRV_v1.5/c_pbe_v1.2.uspp':
  Title: C.  Created by USPP 7.3.6 on 3-2-2014
  Reference state energy: -5.406344.  4 valence electrons in orbitals:
    |200>  occupation: 2  eigenvalue: -0.504890
    |210>  occupation: 2  eigenvalue: -0.194356
  lMax: 1  lLocal: 2  QijEcut: 5
  4 projectors sampled on a log grid with 503 points:
    l: 0  eig: -0.504890  rCut: 1.3
    l: 0  eig: 0.000000  rCut: 1.3
    l: 1  eig: -0.194357  rCut: 1.3
    l: 1  eig: 0.000000  rCut: 1.3
  Partial core density with radius 1.1
  Transforming core density to a uniform radial grid of dG=0.02 with 1155 points.
  Transforming local potential to a uniform radial grid of dG=0.02 with 1155 points.
  Transforming nonlocal projectors to a uniform radial grid of dG=0.02 with 432 points.
  Transforming density augmentations to a uniform radial grid of dG=0.02 with 1155 points.
  Transforming atomic orbitals to a uniform radial grid of dG=0.02 with 432 points.
  Core radius for overlap checks: 1.30 bohrs.

Reading pseudopotential file '/projects/musgravc/apps/jdftx-1.6.0/build/pseudopotentials/GBRV_v1.5/o_pbe_v1.2.uspp':
  Title: O.  Created by USPP 7.3.6 on 3-2-2014
  Reference state energy: -15.894388.  6 valence electrons in orbitals:
    |200>  occupation: 2  eigenvalue: -0.878823
    |210>  occupation: 4  eigenvalue: -0.332131
  lMax: 2  lLocal: 2  QijEcut: 6
  5 projectors sampled on a log grid with 511 points:
    l: 0  eig: -0.878823  rCut: 1.25
    l: 0  eig: 0.000000  rCut: 1.25
    l: 1  eig: -0.332132  rCut: 1.25
    l: 1  eig: 0.000000  rCut: 1.25
    l: 2  eig: 1.000000  rCut: 1.25
  Partial core density with radius 0.7
  Transforming core density to a uniform radial grid of dG=0.02 with 1155 points.
  Transforming local potential to a uniform radial grid of dG=0.02 with 1155 points.
  Transforming nonlocal projectors to a uniform radial grid of dG=0.02 with 432 points.
  Transforming density augmentations to a uniform radial grid of dG=0.02 with 1155 points.
  Transforming atomic orbitals to a uniform radial grid of dG=0.02 with 432 points.
  Core radius for overlap checks: 1.25 bohrs.

Initialized 4 species with 34 total atoms.

Folded 1 k-points by 4x4x1 to 16 k-points.

---------- Setting up k-points, bands, fillings ----------
Adding inversion symmetry to k-mesh for non-inversion-symmetric unit cell.
Reduced to 9 k-points under symmetry. 
Computing the number of bands and number of electrons
Calculating initial fillings.
nElectrons: 594.000000   nBands: 357   nStates: 18

----- Setting up reduced wavefunction bases (one per k-point) -----
average nbasis = 44558.938 , ideal nbasis = 44553.046

----- Initializing Supercell corresponding to k-point mesh -----
Lattice vector linear combinations in supercell:
[   4   0   0  ]
[   0   4   0  ]
[   0   0   1  ]
Supercell lattice vectors:
[  60.5944  0  0  ]
[  0  60.5944  0  ]
[  0  0  45.4458  ]

Initializing DFT-D3 calculator:
	Parameters set for gga-PBE functional
	s6:  1.000  s_r6:  1.217
	s8:  0.722  s_r8:  1.000
	Per-atom parameters loaded for:
	Ag:  sqrtQ[a0]:  5.443  Rcov[a0]:  2.173  CN: [ 0.00 0.97 ]
	Pt:  sqrtQ[a0]:  5.888  Rcov[a0]:  2.116  CN: [ 0.00 1.92 6.67 ]
	 C:  sqrtQ[a0]:  3.105  Rcov[a0]:  1.417  CN: [ 0.00 0.99 2.00 3.00 3.98 ]
	 O:  sqrtQ[a0]:  2.594  Rcov[a0]:  1.191  CN: [ 0.00 0.99 1.99 ]

Initializing DFT-D2 calculator for fluid / solvation:
	Ag:  C6:  427.91 Eh-a0^6  R0: 3.097 a0
	Pt:  C6:  815.23 Eh-a0^6  R0: 3.326 a0 (WARNING: beyond Grimme's data set)
	 C:  C6:   30.35 Eh-a0^6  R0: 2.744 a0
	 O:  C6:   12.14 Eh-a0^6  R0: 2.536 a0

---------- Setting up ewald sum ----------
Optimum gaussian width for ewald sums = 4.842575 bohr.
Real space sum over 847 unit cells with max indices [  5  5  3  ]
Reciprocal space sum over 5577 terms with max indices [  6  6  16  ]

Computing DFT-D3 correction:
# coordination-number Ag 9.275 9.275 9.275 9.275 6.316 6.316 6.316 6.316 6.316 6.316 6.316 6.316 6.758 5.704 5.781 5.702 9.150 9.150 9.149 9.149 9.149 9.148 9.157 9.149
# coordination-number Pt 8.901 8.901 8.901 8.901 6.255 6.255 6.543 6.543
# coordination-number C 2.662
# coordination-number O 1.082
# diagonal-C6 Ag 268.61 268.61 268.61 268.61 268.61 268.61 268.61 268.61 268.61 268.61 268.61 268.61 268.61 268.61 268.61 268.61 268.61 268.61 268.61 268.61 268.61 268.61 268.61 268.61
# diagonal-C6 Pt 336.87 336.87 336.87 336.87 336.87 336.87 336.87 336.87
# diagonal-C6 C 26.51
# diagonal-C6 O 12.74
EvdW_6 =   -0.183495
EvdW_8 =   -0.285002

---------- Allocating electronic variables ----------
Initializing wave functions:  linear combination of atomic orbitals
Ag pseudo-atom occupations:   s ( 2 1 )  p ( 6 0 )  d ( 10 )
Pt pseudo-atom occupations:   s ( 0 )  p ( 6 0 )  d ( 10 )
C pseudo-atom occupations:   s ( 2 )  p ( 2 )
O pseudo-atom occupations:   s ( 2 )  p ( 4 )
	FillingsUpdate:  mu: -0.066150353  nElectrons: 594.000000  magneticMoment: [ Abs: 0.00345  Tot: -0.00050 ]
LCAOMinimize: Iter:   0  F: -4266.4998920509879099  |grad|_K:  7.611e-03  alpha:  1.000e+00
	FillingsUpdate:  mu: +0.454971383  nElectrons: 594.000000  magneticMoment: [ Abs: 0.00206  Tot: -0.00007 ]
LCAOMinimize: Iter:   1  F: -4273.4894865883024977  |grad|_K:  4.750e-03  alpha:  1.302e-01  linmin:  5.691e-02  cgtest: -5.992e-01  t[s]:    111.98
	FillingsUpdate:  mu: +0.368651442  nElectrons: 594.000000  magneticMoment: [ Abs: 0.00185  Tot: -0.00018 ]
LCAOMinimize: Iter:   2  F: -4274.4256695125504848  |grad|_K:  2.212e-03  alpha:  6.207e-02  linmin:  1.403e-02  cgtest:  6.903e-01  t[s]:    155.00
LCAOMinimize: Encountered beta<0, resetting CG.
	FillingsUpdate:  mu: +0.099559746  nElectrons: 594.000000  magneticMoment: [ Abs: 0.00194  Tot: -0.00007 ]
LCAOMinimize: Iter:   3  F: -4275.4024694810477740  |grad|_K:  8.740e-04  alpha:  1.306e-01  linmin:  3.046e-02  cgtest: -2.090e-01  t[s]:    197.74
	FillingsUpdate:  mu: +0.095522471  nElectrons: 594.000000  magneticMoment: [ Abs: 0.00190  Tot: -0.00009 ]
LCAOMinimize: Iter:   4  F: -4275.4843151310260509  |grad|_K:  6.081e-04  alpha:  7.590e-02  linmin: -2.778e-03  cgtest:  3.314e-01  t[s]:    241.58
	FillingsUpdate:  mu: +0.109297822  nElectrons: 594.000000  magneticMoment: [ Abs: 0.00180  Tot: -0.00014 ]
LCAOMinimize: Iter:   5  F: -4275.5651702036902861  |grad|_K:  2.399e-04  alpha:  1.381e-01  linmin: -1.552e-03  cgtest: -1.232e-01  t[s]:    284.26
	FillingsUpdate:  mu: +0.112943979  nElectrons: 594.000000  magneticMoment: [ Abs: 0.00174  Tot: -0.00017 ]
LCAOMinimize: Iter:   6  F: -4275.5799865607250467  |grad|_K:  2.702e-04  alpha:  1.629e-01  linmin: -1.293e-03  cgtest: -5.616e-02  t[s]:    327.05
	FillingsUpdate:  mu: +0.106775052  nElectrons: 594.000000  magneticMoment: [ Abs: 0.00168  Tot: -0.00013 ]
LCAOMinimize: Iter:   7  F: -4275.5941048888525984  |grad|_K:  6.526e-05  alpha:  1.233e-01  linmin: -4.128e-03  cgtest:  5.895e-02  t[s]:    369.80
	FillingsUpdate:  mu: +0.109352768  nElectrons: 594.000000  magneticMoment: [ Abs: 0.00168  Tot: -0.00013 ]
LCAOMinimize: Iter:   8  F: -4275.5954103989115538  |grad|_K:  2.232e-05  alpha:  1.917e-01  linmin: -1.788e-02  cgtest:  7.214e-02  t[s]:    412.50
	FillingsUpdate:  mu: +0.109678070  nElectrons: 594.000000  magneticMoment: [ Abs: 0.00168  Tot: -0.00012 ]
LCAOMinimize: Iter:   9  F: -4275.5955331609811765  |grad|_K:  2.038e-05  alpha:  1.532e-01  linmin:  3.777e-05  cgtest: -3.186e-02  t[s]:    455.37
	FillingsUpdate:  mu: +0.109453945  nElectrons: 594.000000  magneticMoment: [ Abs: 0.00168  Tot: -0.00012 ]
LCAOMinimize: Iter:  10  F: -4275.5956002481798350  |grad|_K:  1.021e-05  alpha:  1.031e-01  linmin:  3.461e-06  cgtest:  3.284e-02  t[s]:    498.03
	FillingsUpdate:  mu: +0.109415064  nElectrons: 594.000000  magneticMoment: [ Abs: 0.00168  Tot: -0.00012 ]
LCAOMinimize: Iter:  11  F: -4275.5956338443093045  |grad|_K:  5.727e-06  alpha:  2.063e-01  linmin:  1.290e-03  cgtest: -6.076e-03  t[s]:    541.21
	FillingsUpdate:  mu: +0.109449908  nElectrons: 594.000000  magneticMoment: [ Abs: 0.00169  Tot: -0.00012 ]
LCAOMinimize: Iter:  12  F: -4275.5956498472287421  |grad|_K:  4.380e-06  alpha:  3.131e-01  linmin:  9.872e-05  cgtest:  7.460e-03  t[s]:    583.94
	FillingsUpdate:  mu: +0.109403060  nElectrons: 594.000000  magneticMoment: [ Abs: 0.00169  Tot: -0.00012 ]
LCAOMinimize: Iter:  13  F: -4275.5956520246490982  |grad|_K:  2.120e-06  alpha:  7.245e-02  linmin: -3.652e-04  cgtest:  4.628e-03  t[s]:    626.70
	FillingsUpdate:  mu: +0.109452778  nElectrons: 594.000000  magneticMoment: [ Abs: 0.00169  Tot: -0.00012 ]
LCAOMinimize: Iter:  14  F: -4275.5956532336367673  |grad|_K:  1.010e-06  alpha:  1.717e-01  linmin:  4.102e-04  cgtest: -9.020e-03  t[s]:    669.36
	FillingsUpdate:  mu: +0.109430184  nElectrons: 594.000000  magneticMoment: [ Abs: 0.00169  Tot: -0.00012 ]
LCAOMinimize: Iter:  15  F: -4275.5956535832592635  |grad|_K:  4.126e-07  alpha:  2.192e-01  linmin: -4.411e-04  cgtest:  9.050e-03  t[s]:    711.95
	FillingsUpdate:  mu: +0.109422724  nElectrons: 594.000000  magneticMoment: [ Abs: 0.00170  Tot: -0.00012 ]
LCAOMinimize: Iter:  16  F: -4275.5956536285339098  |grad|_K:  4.429e-07  alpha:  1.684e-01  linmin: -4.246e-05  cgtest: -1.040e-03  t[s]:    754.67
LCAOMinimize: Converged (|Delta F|<1.000000e-06 for 2 iters).
----- createFluidSolver() ----- (Fluid-side solver setup)
   Initializing fluid molecule 'H2O'
     Initializing site 'O'
       Electron density: proportional to exp(-r/0.36935)*erfc((r-0.51523)/0.36823) with norm 6.826
       Charge density: gaussian nuclear width 0.478731 with net site charge 0.826
       Polarizability: cuspless exponential with width 0.32 and norm 3.73
       Hard sphere radius: 2.57003 bohrs
       Positions in reference frame:
         [ +0.000000 +0.000000 +0.000000 ]
     Initializing site 'H'
       Electron density: proportional to exp(-r/0.34641)*erfc((r-0)/0.390882) with norm 0.587
       Charge density: gaussian nuclear width 0.377945 with net site charge -0.413
       Polarizability: cuspless exponential with width 0.39 and norm 3.3
       Positions in reference frame:
         [ +0.000000 -1.441945 +1.122523 ]
         [ +0.000000 +1.441945 +1.122523 ]
     Net charge: 0   dipole magnitude: 0.927204
     Initializing spherical shell mfKernel with radius 2.61727 Bohr
     deltaS corrections:
       site 'O': -7.54299
       site 'H': -6.83917
   Initializing fluid molecule 'Na+'
     Initializing site 'Na'
       Electron density: proportional to exp(-r/0.19682)*erfc((r-0.71491)/0.41314) with norm 8.1383
       Charge density: gaussian nuclear width 0.365347 with net site charge -1
       Hard sphere radius: 1.86327 bohrs
       Positions in reference frame:
         [ +0.000000 +0.000000 +0.000000 ]
     Net charge: -1   dipole magnitude: 0
     Initializing gaussian mfKernel with width: 1.55004 Bohr
     deltaS corrections:
       site 'Na': -22.3555
   Initializing fluid molecule 'F-'
     Initializing site 'F'
       Electron density: proportional to exp(-r/0.38886)*erfc((r-0)/0.438782) with norm 8
       Charge density: gaussian nuclear width 0.374796 with net site charge 1
       Hard sphere radius: 2.39995 bohrs
       Positions in reference frame:
         [ +0.000000 +0.000000 +0.000000 ]
     Net charge: 1   dipole magnitude: 0
     Initializing gaussian mfKernel with width: 1.59012 Bohr
     deltaS corrections:
       site 'F': -9.04335

Correction to mu due to finite nuclear width = -0.0565129
   Cavity determined by nc: 0.00142 and sigma: 0.707107
   Nonlocal vdW cavity from gaussian model electron density with norm = 8 and sigma = 0.993594 bohr
   Charge asymmetry in cavity with sensitivity pCavity = 36.5 e-bohr/Eh
   Electrostatic cavity expanded by eta = 1.46 bohrs
   Weighted density cavitation model constrained by Nbulk: 0.0049383 bohr^-3, Pvap: 3.14029 kPa, Rvdw: 2.61727 bohr and sigmaBulk: 4.62e-05 Eh/bohr^2 at T: 298 K.
   Weighted density dispersion model using vdW pair potentials with single solvent site with sqrtC6eff: 0.77 SI.


---- Citations for features of the code used in this run ----

   Software package:
      R. Sundararaman, K. Letchworth-Weaver, K.A. Schwarz, D. Gunceler, Y. Ozhabes and T.A. Arias, 'JDFTx: software for joint density-functional theory', SoftwareX 6, 278 (2017)

   gga-PBE exchange-correlation functional:
      J.P. Perdew, K. Burke and M. Ernzerhof, Phys. Rev. Lett. 77, 3865 (1996)

   Pseudopotentials:
      KF Garrity, JW Bennett, KM Rabe and D Vanderbilt, Comput. Mater. Sci. 81, 446 (2014)

   DFT-D3 dispersion correction:
      S. Grimme, J. Antony, S. Ehrlich and H. Krieg, J. Chem. Phys. 132, 154104 (2010)

   DFT-D2 dispersion correction:
      S. Grimme, J. Comput. Chem. 27, 1787 (2006)

   Charge-asymmetric nonlocally-determined local-electric (CANDLE) solvation model:
      R. Sundararaman and W.A. Goddard III, J. Chem. Phys. 142, 064107 (2015)

   Total energy minimization with Auxiliary Hamiltonian:
      C. Freysoldt, S. Boeck, and J. Neugebauer, Phys. Rev. B 79, 241103(R) (2009)

   Linear-tetrahedron sampling for density of states:
      G. Lehmann and M. Taut, Phys. status solidi (b) 54, 469 (1972)

This list may not be complete. Please suggest additional citations or
report any other bugs at https://github.com/shankar1729/jdftx/issues

Initialization completed successfully at t[s]:    769.20


Computing DFT-D3 correction:
# coordination-number Ag 9.275 9.275 9.275 9.275 6.316 6.316 6.316 6.316 6.316 6.316 6.316 6.316 6.758 5.704 5.781 5.702 9.150 9.150 9.149 9.149 9.149 9.148 9.157 9.149
# coordination-number Pt 8.901 8.901 8.901 8.901 6.255 6.255 6.543 6.543
# coordination-number C 2.662
# coordination-number O 1.082
# diagonal-C6 Ag 268.61 268.61 268.61 268.61 268.61 268.61 268.61 268.61 268.61 268.61 268.61 268.61 268.61 268.61 268.61 268.61 268.61 268.61 268.61 268.61 268.61 268.61 268.61 268.61
# diagonal-C6 Pt 336.87 336.87 336.87 336.87 336.87 336.87 336.87 336.87
# diagonal-C6 C 26.51
# diagonal-C6 O 12.74
EvdW_6 =   -0.183495
EvdW_8 =   -0.285002
Fluid solver invoked on fresh (random / LCAO) wavefunctions
Running a vacuum solve first:

-------- Initial electronic minimization -----------
	FillingsUpdate:  mu: +0.109422724  nElectrons: 594.000000  magneticMoment: [ Abs: 0.00170  Tot: -0.00012 ]
ElecMinimize: Iter:   0  F: -4275.595653628531181  |grad|_K:  4.927e-05  alpha:  1.000e+00
	FillingsUpdate:  mu: +0.121969314  nElectrons: 594.000000  magneticMoment: [ Abs: 0.00129  Tot: -0.00012 ]
	SubspaceRotationAdjust: set factor to 1
ElecMinimize: Iter:   1  F: -4275.891348808211660  |grad|_K:  2.759e-05  alpha:  4.311e-01  linmin:  6.380e-05  t[s]:    887.89
	FillingsUpdate:  mu: +0.115939149  nElectrons: 594.000000  magneticMoment: [ Abs: 0.00100  Tot: -0.00010 ]
	SubspaceRotationAdjust: set factor to 0.939
ElecMinimize: Iter:   2  F: -4275.956989793532557  |grad|_K:  1.602e-05  alpha:  3.054e-01  linmin: -4.035e-06  t[s]:    964.84
	FillingsUpdate:  mu: +0.123931322  nElectrons: 594.000000  magneticMoment: [ Abs: 0.00081  Tot: -0.00012 ]
	SubspaceRotationAdjust: set factor to 0.6
ElecMinimize: Iter:   3  F: -4275.973597949977375  |grad|_K:  1.853e-05  alpha:  2.245e-01  linmin:  4.842e-06  t[s]:   1041.91
	FillingsUpdate:  mu: +0.121198231  nElectrons: 594.000000  magneticMoment: [ Abs: 0.00068  Tot: -0.00008 ]
	SubspaceRotationAdjust: set factor to 0.417
ElecMinimize: Iter:   4  F: -4275.982795829329007  |grad|_K:  8.176e-06  alpha:  9.227e-02  linmin: -1.816e-05  t[s]:   1118.94
ElecMinimize: 	Predicted alpha/alphaT>3.000000, increasing alphaT to 2.767990e-01.
	FillingsUpdate:  mu: +0.115916852  nElectrons: 594.000000  magneticMoment: [ Abs: 0.00050  Tot: -0.00006 ]
	SubspaceRotationAdjust: set factor to 0.454
ElecMinimize: Iter:   5  F: -4275.989153349509252  |grad|_K:  5.733e-06  alpha:  3.284e-01  linmin:  6.320e-06  t[s]:   1215.87
	FillingsUpdate:  mu: +0.117399107  nElectrons: 594.000000  magneticMoment: [ Abs: 0.00041  Tot: -0.00006 ]
	SubspaceRotationAdjust: set factor to 0.36
ElecMinimize: Iter:   6  F: -4275.991328522906770  |grad|_K:  4.844e-06  alpha:  2.310e-01  linmin: -2.940e-07  t[s]:   1292.80
	FillingsUpdate:  mu: +0.122078182  nElectrons: 594.000000  magneticMoment: [ Abs: 0.00031  Tot: -0.00004 ]
	SubspaceRotationAdjust: set factor to 0.322
ElecMinimize: Iter:   7  F: -4275.993011514816317  |grad|_K:  2.740e-06  alpha:  2.494e-01  linmin: -4.650e-06  t[s]:   1369.88
	FillingsUpdate:  mu: +0.120909643  nElectrons: 594.000000  magneticMoment: [ Abs: 0.00024  Tot: -0.00003 ]
	SubspaceRotationAdjust: set factor to 0.351
ElecMinimize: Iter:   8  F: -4275.993797256392099  |grad|_K:  2.152e-06  alpha:  3.639e-01  linmin:  2.057e-05  t[s]:   1447.07
	FillingsUpdate:  mu: +0.120166761  nElectrons: 594.000000  magneticMoment: [ Abs: 0.00020  Tot: -0.00002 ]
	SubspaceRotationAdjust: set factor to 0.274
ElecMinimize: Iter:   9  F: -4275.994147058445378  |grad|_K:  1.514e-06  alpha:  2.631e-01  linmin:  1.780e-07  t[s]:   1524.18
	FillingsUpdate:  mu: +0.121195082  nElectrons: 594.000000  magneticMoment: [ Abs: 0.00016  Tot: -0.00002 ]
	SubspaceRotationAdjust: set factor to 0.288
ElecMinimize: Iter:  10  F: -4275.994382207438321  |grad|_K:  1.142e-06  alpha:  3.568e-01  linmin:  3.704e-06  t[s]:   1601.33
	FillingsUpdate:  mu: +0.121744195  nElectrons: 594.000000  magneticMoment: [ Abs: 0.00013  Tot: -0.00001 ]
	SubspaceRotationAdjust: set factor to 0.312
ElecMinimize: Iter:  11  F: -4275.994504488633538  |grad|_K:  7.985e-07  alpha:  3.266e-01  linmin:  1.734e-06  t[s]:   1678.31
	FillingsUpdate:  mu: +0.121449713  nElectrons: 594.000000  magneticMoment: [ Abs: 0.00011  Tot: -0.00001 ]
	SubspaceRotationAdjust: set factor to 0.27
ElecMinimize: Iter:  12  F: -4275.994568062956205  |grad|_K:  6.333e-07  alpha:  3.471e-01  linmin:  3.571e-06  t[s]:   1756.90
	FillingsUpdate:  mu: +0.121403942  nElectrons: 594.000000  magneticMoment: [ Abs: 0.00009  Tot: -0.00001 ]
	SubspaceRotationAdjust: set factor to 0.28
ElecMinimize: Iter:  13  F: -4275.994603944532173  |grad|_K:  4.318e-07  alpha:  3.116e-01  linmin:  1.966e-06  t[s]:   1834.07
	FillingsUpdate:  mu: +0.121620902  nElectrons: 594.000000  magneticMoment: [ Abs: 0.00007  Tot: -0.00000 ]
	SubspaceRotationAdjust: set factor to 0.32
ElecMinimize: Iter:  14  F: -4275.994624530467263  |grad|_K:  3.248e-07  alpha:  3.847e-01  linmin:  1.940e-06  t[s]:   1911.22
	FillingsUpdate:  mu: +0.121651747  nElectrons: 594.000000  magneticMoment: [ Abs: 0.00006  Tot: -0.00000 ]
	SubspaceRotationAdjust: set factor to 0.275
ElecMinimize: Iter:  15  F: -4275.994634677887916  |grad|_K:  2.617e-07  alpha:  3.349e-01  linmin:  7.334e-07  t[s]:   1988.32
	FillingsUpdate:  mu: +0.121638787  nElectrons: 594.000000  magneticMoment: [ Abs: 0.00004  Tot: -0.00000 ]
	SubspaceRotationAdjust: set factor to 0.289
ElecMinimize: Iter:  16  F: -4275.994641110603879  |grad|_K:  1.747e-07  alpha:  3.268e-01  linmin:  1.372e-06  t[s]:   2065.92
	FillingsUpdate:  mu: +0.121634876  nElectrons: 594.000000  magneticMoment: [ Abs: 0.00003  Tot: -0.00000 ]
	SubspaceRotationAdjust: set factor to 0.325
ElecMinimize: Iter:  17  F: -4275.994644706953295  |grad|_K:  1.325e-07  alpha:  4.107e-01  linmin:  1.499e-06  t[s]:   2143.00
	FillingsUpdate:  mu: +0.121634324  nElectrons: 594.000000  magneticMoment: [ Abs: 0.00002  Tot: -0.00000 ]
	SubspaceRotationAdjust: set factor to 0.271
ElecMinimize: Iter:  18  F: -4275.994646306477080  |grad|_K:  1.018e-07  alpha:  3.173e-01  linmin:  1.251e-07  t[s]:   2219.98
	FillingsUpdate:  mu: +0.121660781  nElectrons: 594.000000  magneticMoment: [ Abs: 0.00002  Tot: -0.00000 ]
	SubspaceRotationAdjust: set factor to 0.27
ElecMinimize: Iter:  19  F: -4275.994647309224092  |grad|_K:  6.792e-08  alpha:  3.366e-01  linmin:  2.955e-07  t[s]:   2296.84
	FillingsUpdate:  mu: +0.121659846  nElectrons: 594.000000  magneticMoment: [ Abs: 0.00001  Tot: +0.00000 ]
	SubspaceRotationAdjust: set factor to 0.305
ElecMinimize: Iter:  20  F: -4275.994647838601850  |grad|_K:  5.047e-08  alpha:  3.993e-01  linmin:  6.781e-07  t[s]:   2373.89
	FillingsUpdate:  mu: +0.121648326  nElectrons: 594.000000  magneticMoment: [ Abs: 0.00001  Tot: +0.00000 ]
	SubspaceRotationAdjust: set factor to 0.282
ElecMinimize: Iter:  21  F: -4275.994648085716108  |grad|_K:  3.748e-08  alpha:  3.380e-01  linmin:  4.418e-08  t[s]:   2451.08
	FillingsUpdate:  mu: +0.121654646  nElectrons: 594.000000  magneticMoment: [ Abs: 0.00001  Tot: +0.00000 ]
	SubspaceRotationAdjust: set factor to 0.277
ElecMinimize: Iter:  22  F: -4275.994648230583152  |grad|_K:  2.673e-08  alpha:  3.591e-01  linmin:  5.012e-08  t[s]:   2528.13
	FillingsUpdate:  mu: +0.121659327  nElectrons: 594.000000  magneticMoment: [ Abs: 0.00001  Tot: +0.00000 ]
	SubspaceRotationAdjust: set factor to 0.313
ElecMinimize: Iter:  23  F: -4275.994648305109877  |grad|_K:  1.957e-08  alpha:  3.633e-01  linmin:  3.401e-08  t[s]:   2605.17
	FillingsUpdate:  mu: +0.121656161  nElectrons: 594.000000  magneticMoment: [ Abs: 0.00000  Tot: +0.00000 ]
	SubspaceRotationAdjust: set factor to 0.34
ElecMinimize: Iter:  24  F: -4275.994648347797920  |grad|_K:  1.461e-08  alpha:  3.870e-01  linmin:  1.114e-07  t[s]:   2682.80
ElecMinimize: Converged (|Delta F|<1.000000e-07 for 2 iters).
Setting wave functions to eigenvectors of Hamiltonian
Converging empty states (this may take a while): |deigs|: 8.510e-03
Vacuum energy after initial minimize, F = -4275.994648347797920


-------- Electronic minimization -----------
	Linear fluid (dielectric constant: 78.4, screening length: 8.12261 Bohr) occupying 0.468085 of unit cell:	Completed after 24 iterations at t[s]:   3049.20
	FillingsUpdate:  mu: -0.164559162  nElectrons: 594.000000  magneticMoment: [ Abs: 0.00000  Tot: +0.00000 ]
ElecMinimize: Iter:   0  F: -4275.997858050845934  |grad|_K:  2.817e-06  alpha:  1.000e+00
	Linear fluid (dielectric constant: 78.4, screening length: 8.12261 Bohr) occupying 0.470079 of unit cell:	Completed after 20 iterations at t[s]:   3115.75
	Linear fluid (dielectric constant: 78.4, screening length: 8.12261 Bohr) occupying 0.468749 of unit cell:	Completed after 19 iterations at t[s]:   3141.41
	FillingsUpdate:  mu: -0.163464573  nElectrons: 594.000000  magneticMoment: [ Abs: 0.00000  Tot: -0.00000 ]
	SubspaceRotationAdjust: set factor to 0.286
ElecMinimize: Iter:   1  F: -4275.998726157041347  |grad|_K:  1.978e-06  alpha:  3.876e-01  linmin:  6.554e-06  t[s]:   3171.76
	Linear fluid (dielectric constant: 78.4, screening length: 8.12261 Bohr) occupying 0.469507 of unit cell:	Completed after 16 iterations at t[s]:   3204.72
	Linear fluid (dielectric constant: 78.4, screening length: 8.12261 Bohr) occupying 0.469803 of unit cell:	Completed after 11 iterations at t[s]:   3229.33
	FillingsUpdate:  mu: -0.160095148  nElectrons: 594.000000  magneticMoment: [ Abs: 0.00000  Tot: -0.00000 ]
	SubspaceRotationAdjust: set factor to 0.334
ElecMinimize: Iter:   2  F: -4275.999325746961404  |grad|_K:  1.473e-06  alpha:  5.390e-01  linmin: -1.080e-06  t[s]:   3259.12
	Linear fluid (dielectric constant: 78.4, screening length: 8.12261 Bohr) occupying 0.470557 of unit cell:	Completed after 9 iterations at t[s]:   3290.03
	Linear fluid (dielectric constant: 78.4, screening length: 8.12261 Bohr) occupying 0.470530 of unit cell:	Completed after 2 iterations at t[s]:   3312.43
	FillingsUpdate:  mu: -0.161381784  nElectrons: 594.000000  magneticMoment: [ Abs: 0.00000  Tot: -0.00000 ]
	SubspaceRotationAdjust: set factor to 0.384
ElecMinimize: Iter:   3  F: -4275.999651804219866  |grad|_K:  1.112e-06  alpha:  5.192e-01  linmin: -2.674e-08  t[s]:   3342.14
	Linear fluid (dielectric constant: 78.4, screening length: 8.12261 Bohr) occupying 0.471064 of unit cell:	Completed after 11 iterations at t[s]:   3373.48
	Linear fluid (dielectric constant: 78.4, screening length: 8.12261 Bohr) occupying 0.470954 of unit cell:	Completed after 8 iterations at t[s]:   3397.14
	FillingsUpdate:  mu: -0.160946197  nElectrons: 594.000000  magneticMoment: [ Abs: 0.00000  Tot: -0.00000 ]
	SubspaceRotationAdjust: set factor to 0.454
ElecMinimize: Iter:   4  F: -4275.999797283376211  |grad|_K:  7.769e-07  alpha:  4.095e-01  linmin: -4.008e-08  t[s]:   3426.87
	Linear fluid (dielectric constant: 78.4, screening length: 8.12261 Bohr) occupying 0.471214 of unit cell:	Completed after 11 iterations at t[s]:   3458.18
	Linear fluid (dielectric constant: 78.4, screening length: 8.12261 Bohr) occupying 0.471223 of unit cell:	Completed after 2 iterations at t[s]:   3480.76
	FillingsUpdate:  mu: -0.159945998  nElectrons: 594.000000  magneticMoment: [ Abs: 0.00000  Tot: -0.00000 ]
	SubspaceRotationAdjust: set factor to 0.517
ElecMinimize: Iter:   5  F: -4275.999871018833801  |grad|_K:  5.222e-07  alpha:  4.247e-01  linmin: -2.388e-07  t[s]:   3510.56
	Linear fluid (dielectric constant: 78.4, screening length: 8.12261 Bohr) occupying 0.471342 of unit cell:	Completed after 7 iterations at t[s]:   3541.24
	Linear fluid (dielectric constant: 78.4, screening length: 8.12261 Bohr) occupying 0.471344 of unit cell:	Completed after 1 iterations at t[s]:   3563.47
	FillingsUpdate:  mu: -0.160363391  nElectrons: 594.000000  magneticMoment: [ Abs: 0.00000  Tot: -0.00000 ]
	SubspaceRotationAdjust: set factor to 0.548
ElecMinimize: Iter:   6  F: -4275.999905062033577  |grad|_K:  3.303e-07  alpha:  4.332e-01  linmin: -1.279e-07  t[s]:   3593.04
	Linear fluid (dielectric constant: 78.4, screening length: 8.12261 Bohr) occupying 0.471395 of unit cell:	Completed after 9 iterations at t[s]:   3624.25
	Linear fluid (dielectric constant: 78.4, screening length: 8.12261 Bohr) occupying 0.471396 of unit cell:	Completed after 0 iterations at t[s]:   3645.96
	FillingsUpdate:  mu: -0.160016672  nElectrons: 594.000000  magneticMoment: [ Abs: 0.00000  Tot: -0.00000 ]
	SubspaceRotationAdjust: set factor to 0.534
ElecMinimize: Iter:   7  F: -4275.999919044405033  |grad|_K:  2.262e-07  alpha:  4.452e-01  linmin: -4.451e-07  t[s]:   3675.54
	Linear fluid (dielectric constant: 78.4, screening length: 8.12261 Bohr) occupying 0.471416 of unit cell:	Completed after 9 iterations at t[s]:   3706.51
	Linear fluid (dielectric constant: 78.4, screening length: 8.12261 Bohr) occupying 0.471410 of unit cell:	Completed after 7 iterations at t[s]:   3729.88
	FillingsUpdate:  mu: -0.160180723  nElectrons: 594.000000  magneticMoment: [ Abs: 0.00000  Tot: -0.00000 ]
	SubspaceRotationAdjust: set factor to 0.428
ElecMinimize: Iter:   8  F: -4275.999923654459963  |grad|_K:  1.522e-07  alpha:  3.114e-01  linmin:  6.601e-07  t[s]:   3759.61
	Linear fluid (dielectric constant: 78.4, screening length: 8.12261 Bohr) occupying 0.471403 of unit cell:	Completed after 6 iterations at t[s]:   3790.04
	Linear fluid (dielectric constant: 78.4, screening length: 8.12261 Bohr) occupying 0.471402 of unit cell:	Completed after 2 iterations at t[s]:   3813.56
	FillingsUpdate:  mu: -0.160176162  nElectrons: 594.000000  magneticMoment: [ Abs: 0.00000  Tot: -0.00000 ]
	SubspaceRotationAdjust: set factor to 0.365
ElecMinimize: Iter:   9  F: -4275.999925971132143  |grad|_K:  8.204e-08  alpha:  3.488e-01  linmin: -5.169e-06  t[s]:   3843.17
	Linear fluid (dielectric constant: 78.4, screening length: 8.12261 Bohr) occupying 0.471397 of unit cell:	Completed after 2 iterations at t[s]:   3872.83
	Linear fluid (dielectric constant: 78.4, screening length: 8.12261 Bohr) occupying 0.471395 of unit cell:	Completed after 0 iterations at t[s]:   3894.77
	FillingsUpdate:  mu: -0.160169992  nElectrons: 594.000000  magneticMoment: [ Abs: 0.00000  Tot: -0.00000 ]
	SubspaceRotationAdjust: set factor to 0.428
ElecMinimize: Iter:  10  F: -4275.999926827113995  |grad|_K:  5.198e-08  alpha:  4.376e-01  linmin: -7.288e-06  t[s]:   3924.38
	Linear fluid (dielectric constant: 78.4, screening length: 8.12261 Bohr) occupying 0.471389 of unit cell:	Completed after 3 iterations at t[s]:   3954.47
	Linear fluid (dielectric constant: 78.4, screening length: 8.12261 Bohr) occupying 0.471390 of unit cell:	Completed after 1 iterations at t[s]:   3976.47
	FillingsUpdate:  mu: -0.160181571  nElectrons: 594.000000  magneticMoment: [ Abs: 0.00000  Tot: +0.00000 ]
	SubspaceRotationAdjust: set factor to 0.405
ElecMinimize: Iter:  11  F: -4275.999927102610854  |grad|_K:  3.437e-08  alpha:  3.556e-01  linmin: -1.701e-06  t[s]:   4006.03
	Linear fluid (dielectric constant: 78.4, screening length: 8.12261 Bohr) occupying 0.471383 of unit cell:	Completed after 2 iterations at t[s]:   4035.78
	Linear fluid (dielectric constant: 78.4, screening length: 8.12261 Bohr) occupying 0.471383 of unit cell:	Completed after 0 iterations at t[s]:   4057.55
	FillingsUpdate:  mu: -0.160181987  nElectrons: 594.000000  magneticMoment: [ Abs: 0.00000  Tot: +0.00000 ]
	SubspaceRotationAdjust: set factor to 0.414
ElecMinimize: Iter:  12  F: -4275.999927224724161  |grad|_K:  2.193e-08  alpha:  3.573e-01  linmin: -2.731e-06  t[s]:   4087.16
	Linear fluid (dielectric constant: 78.4, screening length: 8.12261 Bohr) occupying 0.471377 of unit cell:	Completed after 2 iterations at t[s]:   4117.39
	Linear fluid (dielectric constant: 78.4, screening length: 8.12261 Bohr) occupying 0.471377 of unit cell:	Completed after 0 iterations at t[s]:   4139.23
	FillingsUpdate:  mu: -0.160188020  nElectrons: 594.000000  magneticMoment: [ Abs: 0.00000  Tot: +0.00000 ]
	SubspaceRotationAdjust: set factor to 0.488
ElecMinimize: Iter:  13  F: -4275.999927275728623  |grad|_K:  1.527e-08  alpha:  3.611e-01  linmin: -2.494e-06  t[s]:   4169.01
	Linear fluid (dielectric constant: 78.4, screening length: 8.12261 Bohr) occupying 0.471372 of unit cell:	Completed after 0 iterations at t[s]:   4198.12
	Linear fluid (dielectric constant: 78.4, screening length: 8.12261 Bohr) occupying 0.471371 of unit cell:	Completed after 1 iterations at t[s]:   4220.25
	FillingsUpdate:  mu: -0.160202874  nElectrons: 594.000000  magneticMoment: [ Abs: 0.00000  Tot: +0.00000 ]
	SubspaceRotationAdjust: set factor to 0.47
ElecMinimize: Iter:  14  F: -4275.999927299063529  |grad|_K:  1.407e-08  alpha:  4.909e-01  linmin:  1.804e-05  t[s]:   4249.90
ElecMinimize: Converged (|Delta F|<1.000000e-07 for 2 iters).
Setting wave functions to eigenvectors of Hamiltonian
Converging empty states (this may take a while): |deigs|: 2.018e-04
Single-point solvation energy estimate, DeltaF = -0.005278951265609

Computing DFT-D3 correction:
# coordination-number Ag 9.275 9.275 9.275 9.275 6.316 6.316 6.316 6.316 6.316 6.316 6.316 6.316 6.758 5.704 5.781 5.702 9.150 9.150 9.149 9.149 9.149 9.148 9.157 9.149
# coordination-number Pt 8.901 8.901 8.901 8.901 6.255 6.255 6.543 6.543
# coordination-number C 2.662
# coordination-number O 1.082
# diagonal-C6 Ag 268.61 268.61 268.61 268.61 268.61 268.61 268.61 268.61 268.61 268.61 268.61 268.61 268.61 268.61 268.61 268.61 268.61 268.61 268.61 268.61 268.61 268.61 268.61 268.61
# diagonal-C6 Pt 336.87 336.87 336.87 336.87 336.87 336.87 336.87 336.87
# diagonal-C6 C 26.51
# diagonal-C6 O 12.74
EvdW_6 =   -0.183495
EvdW_8 =   -0.285002

# Ionic positions in cartesian coordinates:
ion Ag   3.787148999999999   3.787148999999999   5.645639999999999 0
ion Ag   3.787148999999999  11.361447000000000   5.645639999999999 0
ion Ag  11.361447000000000   3.787148999999999   5.645639999999999 0
ion Ag  11.361447000000000  11.361447000000000   5.645639999999999 0
ion Ag   3.787148999999999   0.000000000000000   1.801744000000000 0
ion Ag   3.787148999999999   7.574297999999999   1.801744000000000 0
ion Ag  11.361447000000000   0.000000000000000   1.801744000000000 0
ion Ag  11.361447000000000   7.574297999999999   1.801744000000000 0
ion Ag   0.000000000000000   3.787148999999999   1.801744000000000 0
ion Ag   0.000000000000000  11.361447000000000   1.801744000000000 0
ion Ag   7.574297999999999   3.787148999999999   1.801744000000000 0
ion Ag   7.574297999999999  11.361447000000000   1.801744000000000 0
ion Ag   3.787148999999999   3.787148999999999  13.586699999999999 0
ion Ag   3.787148999999999  11.361447000000000  13.586699999999999 0
ion Ag  11.361447000000000   3.787148999999999  13.586699999999999 0
ion Ag  11.361447000000000  11.361447000000000  13.586699999999999 0
ion Ag   3.787148999999999   0.000000000000000   9.493898000000000 0
ion Ag   3.787148999999999   7.574297999999999   9.493898000000000 0
ion Ag  11.361447000000000   0.000000000000000   9.493898000000000 0
ion Ag  11.361447000000000   7.574297999999999   9.493898000000000 0
ion Ag   0.000000000000000   3.787148999999999   9.493898000000000 0
ion Ag   0.000000000000000  11.361447000000000   9.493898000000000 0
ion Ag   7.574297999999999   3.787148999999999   9.493898000000000 0
ion Ag   7.574297999999999  11.361447000000000   9.493898000000000 0
ion Pt   0.000000000000000   0.000000000000000   5.606146999999999 0
ion Pt   0.000000000000000   7.574297999999999   5.606146999999999 0
ion Pt   7.574297999999999   0.000000000000000   5.606146999999999 0
ion Pt   7.574297999999999   7.574297999999999   5.606146999999999 0
ion Pt   0.000000000000000   0.000000000000000  13.164645000000000 0
ion Pt   0.000000000000000   7.574297999999999  13.164645000000000 0
ion Pt   7.574297999999999   0.000000000000000  13.164645000000000 0
ion Pt   7.574297999999999   7.574297999999999  13.164645000000000 0
ion C   6.311919999999999   3.787148999999999  16.175882999999999 1  Linear 0 0 1
ion O   6.372015000000000   3.787148999999999  18.331195000000001 1  Linear 0 0 1

# Forces in Cartesian coordinates:
force Ag  -0.000667488056689   0.000000000000000   0.000174490737254 0
force Ag   0.000035008569540   0.000000000000000  -0.000300459730744 0
force Ag   0.000523571379934   0.000000000000000  -0.000234471053850 0
force Ag   0.000187244384289   0.000000000000000  -0.000285565444756 0
force Ag   0.000141244719136  -0.000493622075218  -0.000717371066571 0
force Ag   0.000141244719136   0.000493622075218  -0.000717371066571 0
force Ag  -0.000087819808804   0.000074524812237  -0.000769836175722 0
force Ag  -0.000087819808804  -0.000074524812237  -0.000769836175722 0
force Ag  -0.000351012224037   0.000000000000000  -0.000738564310308 0
force Ag   0.000171974455508   0.000000000000000  -0.000521164132519 0
force Ag   0.000454052955256   0.000000000000000  -0.000687676399682 0
force Ag  -0.000185125728809   0.000000000000000  -0.000698878627278 0
force Ag  -0.043780228004623   0.000000000000000  -0.030526872407018 0
force Ag  -0.001425360572445   0.000000000000000  -0.000380731393403 0
force Ag   0.004483176010337   0.000000000000000   0.000263969112999 0
force Ag   0.000380950572291   0.000000000000000  -0.001281582502279 0
force Ag  -0.000906187085263  -0.001257176862044  -0.001809890990599 0
force Ag  -0.000906187085263   0.001257176862044  -0.001809890990599 0
force Ag   0.000105522529422  -0.000236955851938   0.000253761385567 0
force Ag   0.000105522529422   0.000236955851938   0.000253761385567 0
force Ag   0.000479398031860   0.000000000000000   0.001099020762580 0
force Ag   0.000328649955636   0.000000000000000   0.000679944389852 0
force Ag   0.002144541711515   0.000000000000000  -0.004868344336513 0
force Ag   0.000479595876158   0.000000000000000   0.002542728082153 0
force Pt  -0.000323463335810   0.000082536513858  -0.000100471390321 0
force Pt  -0.000323463335810  -0.000082536513858  -0.000100471390321 0
force Pt   0.000122304774865  -0.000570765161984   0.001691079621485 0
force Pt   0.000122304774865   0.000570765161984   0.001691079621485 0
force Pt   0.000113456996599   0.001329372482219  -0.000867966119313 0
force Pt   0.000113456996599  -0.001329372482219  -0.000867966119313 0
force Pt  -0.000093580068618   0.006683290058934   0.008742101153063 0
force Pt  -0.000093580068618  -0.006683290058934   0.008742101153063 0
force C   0.032555924761696   0.000000000000000  -0.042817083574254 1  Linear 0 0 1
force O   0.006088871683184   0.000000000000000   0.063443159531064 1  Linear 0 0 1

# Energy components:
   A_diel =       -0.0131336411094330
   Eewald =    12748.6273724942802801
       EH =    16620.6914339011782431
     Eloc =   -34334.6237628080634749
      Enl =       89.4485584396277034
     EvdW =       -0.4684971881407028
      Exc =     -580.7097222918558828
 Exc_core =      136.2258190468268424
       KE =     1044.8227797388358340
-------------------------------------
     Etot =    -4275.9991523084172513
       TS =        0.0007749906464979
-------------------------------------
        F =    -4275.9999272990635291


Dumping 'jdft.fillings' ... done
Dumping 'jdft.wfns' ... done
Dumping 'jdft.fluidState' ... done
Dumping 'jdft.ionpos' ... done
Dumping 'jdft.lattice' ... done
Dumping 'jdft.eigenvals' ... done
Dumping 'jdft.eigStats' ... 
	eMin: -3.558114 at state 17 ( [ +0.500000 +0.500000 +0.000000 ] spin -1 )
	HOMO: -0.164061 at state 13 ( [ +0.250000 +0.250000 +0.000000 ] spin -1 )
	mu  : -0.160203
	LUMO: -0.159316 at state 1 ( [ +0.000000 +0.250000 +0.000000 ] spin 1 )
	eMax: +0.136691 at state 3 ( [ +0.250000 +0.000000 +0.000000 ] spin 1 )
	HOMO-LUMO gap: +0.004744
	Optical gap  : +0.007948 at state 0 ( [ +0.000000 +0.000000 +0.000000 ] spin 1 )
Dumping 'jdft.Ecomponents' ... done
IonicMinimize: Iter:   0  F: -4275.999927299063529  |grad|_K:  5.412e-02  t[s]:   4596.97

#--- Lowdin population analysis ---
# oxidation-state Ag +0.040 +0.039 +0.038 +0.039 +0.116 +0.116 +0.114 +0.114 +0.114 +0.116 +0.121 +0.109 +0.080 +0.158 +0.141 +0.153 +0.047 +0.047 +0.047 +0.047 +0.042 +0.050 +0.068 +0.044
# magnetic-moments Ag +0.000 +0.000 +0.000 +0.000 +0.000 +0.000 +0.000 +0.000 +0.000 +0.000 +0.000 +0.000 +0.000 +0.000 +0.000 +0.000 +0.000 +0.000 +0.000 +0.000 +0.000 +0.000 +0.000 +0.000
# oxidation-state Pt -0.266 -0.266 -0.264 -0.264 -0.217 -0.217 -0.250 -0.250
# magnetic-moments Pt +0.000 +0.000 -0.000 -0.000 -0.000 -0.000 +0.000 +0.000
# oxidation-state C +0.409
# magnetic-moments C -0.000
# oxidation-state O -0.108
# magnetic-moments O +0.000


Computing DFT-D3 correction:
# coordination-number Ag 9.275 9.275 9.275 9.275 6.316 6.316 6.316 6.316 6.316 6.316 6.316 6.316 6.751 5.704 5.784 5.702 9.150 9.150 9.149 9.149 9.149 9.148 9.158 9.149
# coordination-number Pt 8.901 8.901 8.901 8.901 6.255 6.255 6.559 6.559
# coordination-number C 2.699
# coordination-number O 1.073
# diagonal-C6 Ag 268.61 268.61 268.61 268.61 268.61 268.61 268.61 268.61 268.61 268.61 268.61 268.61 268.61 268.61 268.61 268.61 268.61 268.61 268.61 268.61 268.61 268.61 268.61 268.61
# diagonal-C6 Pt 336.87 336.87 336.87 336.87 336.87 336.87 336.87 336.87
# diagonal-C6 C 26.35
# diagonal-C6 O 12.75
EvdW_6 =   -0.183486
EvdW_8 =   -0.284974

-------- Electronic minimization -----------
	Linear fluid (dielectric constant: 78.4, screening length: 8.12261 Bohr) occupying 0.471249 of unit cell:	Completed after 19 iterations at t[s]:   4630.28
	FillingsUpdate:  mu: -0.159291643  nElectrons: 594.000000  magneticMoment: [ Abs: 0.00000  Tot: +0.00000 ]
ElecMinimize: Iter:   0  F: -4275.955479381598707  |grad|_K:  1.931e-05  alpha:  1.000e+00
	Linear fluid (dielectric constant: 78.4, screening length: 8.12261 Bohr) occupying 0.471135 of unit cell:	Completed after 22 iterations at t[s]:   4698.24
	Linear fluid (dielectric constant: 78.4, screening length: 8.12261 Bohr) occupying 0.471091 of unit cell:	Completed after 20 iterations at t[s]:   4724.42
	FillingsUpdate:  mu: -0.160142305  nElectrons: 594.000000  magneticMoment: [ Abs: 0.00000  Tot: +0.00000 ]
	SubspaceRotationAdjust: set factor to 0.476
ElecMinimize: Iter:   1  F: -4275.995794876108448  |grad|_K:  5.342e-06  alpha:  3.798e-01  linmin:  7.110e-04  t[s]:   4754.29
	Linear fluid (dielectric constant: 78.4, screening length: 8.12261 Bohr) occupying 0.471114 of unit cell:	Completed after 18 iterations at t[s]:   4787.34
	Linear fluid (dielectric constant: 78.4, screening length: 8.12261 Bohr) occupying 0.471111 of unit cell:	Completed after 9 iterations at t[s]:   4811.15
	FillingsUpdate:  mu: -0.162643348  nElectrons: 594.000000  magneticMoment: [ Abs: 0.00000  Tot: +0.00000 ]
	SubspaceRotationAdjust: set factor to 0.554
ElecMinimize: Iter:   2  F: -4275.998601703515305  |grad|_K:  2.580e-06  alpha:  3.451e-01  linmin: -1.818e-05  t[s]:   4840.81
	Linear fluid (dielectric constant: 78.4, screening length: 8.12261 Bohr) occupying 0.471142 of unit cell:	Completed after 14 iterations at t[s]:   4872.96
	Linear fluid (dielectric constant: 78.4, screening length: 8.12261 Bohr) occupying 0.471155 of unit cell:	Completed after 11 iterations at t[s]:   4897.89
	FillingsUpdate:  mu: -0.161422536  nElectrons: 594.000000  magneticMoment: [ Abs: 0.00000  Tot: +0.00000 ]
	SubspaceRotationAdjust: set factor to 0.563
ElecMinimize: Iter:   3  F: -4275.999454884419720  |grad|_K:  1.872e-06  alpha:  4.460e-01  linmin:  4.391e-05  t[s]:   4928.00
	Linear fluid (dielectric constant: 78.4, screening length: 8.12261 Bohr) occupying 0.471306 of unit cell:	Completed after 18 iterations at t[s]:   4961.07
	Linear fluid (dielectric constant: 78.4, screening length: 8.12261 Bohr) occupying 0.471257 of unit cell:	Completed after 14 iterations at t[s]:   4986.03
	FillingsUpdate:  mu: -0.163255529  nElectrons: 594.000000  magneticMoment: [ Abs: 0.00000  Tot: +0.00000 ]
	SubspaceRotationAdjust: set factor to 0.441
ElecMinimize: Iter:   4  F: -4275.999772645996927  |grad|_K:  1.330e-06  alpha:  3.161e-01  linmin:  2.374e-06  t[s]:   5016.33
	Linear fluid (dielectric constant: 78.4, screening length: 8.12261 Bohr) occupying 0.471273 of unit cell:	Completed after 15 iterations at t[s]:   5048.60
	Linear fluid (dielectric constant: 78.4, screening length: 8.12261 Bohr) occupying 0.471275 of unit cell:	Completed after 7 iterations at t[s]:   5072.34
	FillingsUpdate:  mu: -0.162102532  nElectrons: 594.000000  magneticMoment: [ Abs: 0.00000  Tot: +0.00000 ]
	SubspaceRotationAdjust: set factor to 0.414
ElecMinimize: Iter:   5  F: -4275.999947737042021  |grad|_K:  7.399e-07  alpha:  3.443e-01  linmin:  4.714e-06  t[s]:   5101.85
	Linear fluid (dielectric constant: 78.4, screening length: 8.12261 Bohr) occupying 0.471299 of unit cell:	Completed after 9 iterations at t[s]:   5132.97
	Linear fluid (dielectric constant: 78.4, screening length: 8.12261 Bohr) occupying 0.471308 of unit cell:	Completed after 7 iterations at t[s]:   5156.55
	FillingsUpdate:  mu: -0.162406136  nElectrons: 594.000000  magneticMoment: [ Abs: 0.00000  Tot: +0.00000 ]
	SubspaceRotationAdjust: set factor to 0.467
ElecMinimize: Iter:   6  F: -4276.000021954595468  |grad|_K:  3.885e-07  alpha:  4.722e-01  linmin:  1.625e-05  t[s]:   5186.26
	Linear fluid (dielectric constant: 78.4, screening length: 8.12261 Bohr) occupying 0.471336 of unit cell:	Completed after 9 iterations at t[s]:   5217.70
	Linear fluid (dielectric constant: 78.4, screening length: 8.12261 Bohr) occupying 0.471334 of unit cell:	Completed after 2 iterations at t[s]:   5240.25
	FillingsUpdate:  mu: -0.162115186  nElectrons: 594.000000  magneticMoment: [ Abs: 0.00000  Tot: +0.00000 ]
	SubspaceRotationAdjust: set factor to 0.502
ElecMinimize: Iter:   7  F: -4276.000040562104914  |grad|_K:  2.458e-07  alpha:  4.297e-01  linmin:  8.269e-06  t[s]:   5269.85
	Linear fluid (dielectric constant: 78.4, screening length: 8.12261 Bohr) occupying 0.471345 of unit cell:	Completed after 7 iterations at t[s]:   5300.70
	Linear fluid (dielectric constant: 78.4, screening length: 8.12261 Bohr) occupying 0.471344 of unit cell:	Completed after 2 iterations at t[s]:   5323.57
	FillingsUpdate:  mu: -0.162107185  nElectrons: 594.000000  magneticMoment: [ Abs: 0.00000  Tot: +0.00000 ]
	SubspaceRotationAdjust: set factor to 0.501
ElecMinimize: Iter:   8  F: -4276.000047404784709  |grad|_K:  1.421e-07  alpha:  3.947e-01  linmin: -2.612e-06  t[s]:   5353.19
	Linear fluid (dielectric constant: 78.4, screening length: 8.12261 Bohr) occupying 0.471360 of unit cell:	Completed after 7 iterations at t[s]:   5384.13
	Linear fluid (dielectric constant: 78.4, screening length: 8.12261 Bohr) occupying 0.471358 of unit cell:	Completed after 2 iterations at t[s]:   5406.61
	FillingsUpdate:  mu: -0.162168287  nElectrons: 594.000000  magneticMoment: [ Abs: 0.00000  Tot: +0.00000 ]
	SubspaceRotationAdjust: set factor to 0.44
ElecMinimize: Iter:   9  F: -4276.000049457824389  |grad|_K:  9.550e-08  alpha:  3.538e-01  linmin:  1.603e-05  t[s]:   5436.05
	Linear fluid (dielectric constant: 78.4, screening length: 8.12261 Bohr) occupying 0.471366 of unit cell:	Completed after 5 iterations at t[s]:   5466.58
	Linear fluid (dielectric constant: 78.4, screening length: 8.12261 Bohr) occupying 0.471366 of unit cell:	Completed after 0 iterations at t[s]:   5488.62
	FillingsUpdate:  mu: -0.162069196  nElectrons: 594.000000  magneticMoment: [ Abs: 0.00000  Tot: +0.00000 ]
	SubspaceRotationAdjust: set factor to 0.34
ElecMinimize: Iter:  10  F: -4276.000050365730203  |grad|_K:  5.395e-08  alpha:  3.467e-01  linmin:  2.672e-05  t[s]:   5518.39
	Linear fluid (dielectric constant: 78.4, screening length: 8.12261 Bohr) occupying 0.471372 of unit cell:	Completed after 2 iterations at t[s]:   5548.37
	Linear fluid (dielectric constant: 78.4, screening length: 8.12261 Bohr) occupying 0.471372 of unit cell:	Completed after 0 iterations at t[s]:   5570.36
	FillingsUpdate:  mu: -0.162101285  nElectrons: 594.000000  magneticMoment: [ Abs: 0.00000  Tot: +0.00000 ]
	SubspaceRotationAdjust: set factor to 0.332
ElecMinimize: Iter:  11  F: -4276.000050669569646  |grad|_K:  3.316e-08  alpha:  3.628e-01  linmin: -3.530e-04  t[s]:   5599.85
	Linear fluid (dielectric constant: 78.4, screening length: 8.12261 Bohr) occupying 0.471376 of unit cell:	Completed after 2 iterations at t[s]:   5629.87
	Linear fluid (dielectric constant: 78.4, screening length: 8.12261 Bohr) occupying 0.471376 of unit cell:	Completed after 0 iterations at t[s]:   5651.84
	FillingsUpdate:  mu: -0.162109512  nElectrons: 594.000000  magneticMoment: [ Abs: 0.00000  Tot: +0.00000 ]
	SubspaceRotationAdjust: set factor to 0.359
ElecMinimize: Iter:  12  F: -4276.000050788830777  |grad|_K:  2.234e-08  alpha:  3.636e-01  linmin: -1.482e-04  t[s]:   5681.41
	Linear fluid (dielectric constant: 78.4, screening length: 8.12261 Bohr) occupying 0.471379 of unit cell:	Completed after 1 iterations at t[s]:   5711.19
	Linear fluid (dielectric constant: 78.4, screening length: 8.12261 Bohr) occupying 0.471379 of unit cell:	Completed after 0 iterations at t[s]:   5733.13
	FillingsUpdate:  mu: -0.162097119  nElectrons: 594.000000  magneticMoment: [ Abs: 0.00000  Tot: +0.00000 ]
	SubspaceRotationAdjust: set factor to 0.371
ElecMinimize: Iter:  13  F: -4276.000050846771046  |grad|_K:  1.331e-08  alpha:  3.928e-01  linmin: -2.292e-04  t[s]:   5762.68
	Linear fluid (dielectric constant: 78.4, screening length: 8.12261 Bohr) occupying 0.471381 of unit cell:	Completed after 0 iterations at t[s]:   5792.20
	Linear fluid (dielectric constant: 78.4, screening length: 8.12261 Bohr) occupying 0.471381 of unit cell:	Completed after 0 iterations at t[s]:   5814.16
	FillingsUpdate:  mu: -0.162095912  nElectrons: 594.000000  magneticMoment: [ Abs: 0.00000  Tot: +0.00000 ]
	SubspaceRotationAdjust: set factor to 0.395
ElecMinimize: Iter:  14  F: -4276.000050870972700  |grad|_K:  8.809e-09  alpha:  4.507e-01  linmin: -3.609e-04  t[s]:   5843.66
ElecMinimize: Converged (|Delta F|<1.000000e-07 for 2 iters).
Setting wave functions to eigenvectors of Hamiltonian
Converging empty states (this may take a while): |deigs|: 6.548e-06

Computing DFT-D3 correction:
# coordination-number Ag 9.275 9.275 9.275 9.275 6.316 6.316 6.316 6.316 6.316 6.316 6.316 6.316 6.751 5.704 5.784 5.702 9.150 9.150 9.149 9.149 9.149 9.148 9.158 9.149
# coordination-number Pt 8.901 8.901 8.901 8.901 6.255 6.255 6.559 6.559
# coordination-number C 2.699
# coordination-number O 1.073
# diagonal-C6 Ag 268.61 268.61 268.61 268.61 268.61 268.61 268.61 268.61 268.61 268.61 268.61 268.61 268.61 268.61 268.61 268.61 268.61 268.61 268.61 268.61 268.61 268.61 268.61 268.61
# diagonal-C6 Pt 336.87 336.87 336.87 336.87 336.87 336.87 336.87 336.87
# diagonal-C6 C 26.35
# diagonal-C6 O 12.75
EvdW_6 =   -0.183486
EvdW_8 =   -0.284974

# Ionic positions in cartesian coordinates:
ion Ag   3.787148999999999   3.787148999999999   5.645639999999999 0
ion Ag   3.787148999999999  11.361447000000000   5.645639999999999 0
ion Ag  11.361447000000000   3.787148999999999   5.645639999999999 0
ion Ag  11.361447000000000  11.361447000000000   5.645639999999999 0
ion Ag   3.787148999999999   0.000000000000000   1.801744000000000 0
ion Ag   3.787148999999999   7.574297999999999   1.801744000000000 0
ion Ag  11.361447000000000   0.000000000000000   1.801744000000000 0
ion Ag  11.361447000000000   7.574297999999999   1.801744000000000 0
ion Ag   0.000000000000000   3.787148999999999   1.801744000000000 0
ion Ag   0.000000000000000  11.361447000000000   1.801744000000000 0
ion Ag   7.574297999999999   3.787148999999999   1.801744000000000 0
ion Ag   7.574297999999999  11.361447000000000   1.801744000000000 0
ion Ag   3.787148999999999   3.787148999999999  13.586699999999999 0
ion Ag   3.787148999999999  11.361447000000000  13.586699999999999 0
ion Ag  11.361447000000000   3.787148999999999  13.586699999999999 0
ion Ag  11.361447000000000  11.361447000000000  13.586699999999999 0
ion Ag   3.787148999999999   0.000000000000000   9.493898000000000 0
ion Ag   3.787148999999999   7.574297999999999   9.493898000000000 0
ion Ag  11.361447000000000   0.000000000000000   9.493898000000000 0
ion Ag  11.361447000000000   7.574297999999999   9.493898000000000 0
ion Ag   0.000000000000000   3.787148999999999   9.493898000000000 0
ion Ag   0.000000000000000  11.361447000000000   9.493898000000000 0
ion Ag   7.574297999999999   3.787148999999999   9.493898000000000 0
ion Ag   7.574297999999999  11.361447000000000   9.493898000000000 0
ion Pt   0.000000000000000   0.000000000000000   5.606146999999999 0
ion Pt   0.000000000000000   7.574297999999999   5.606146999999999 0
ion Pt   7.574297999999999   0.000000000000000   5.606146999999999 0
ion Pt   7.574297999999999   7.574297999999999   5.606146999999999 0
ion Pt   0.000000000000000   0.000000000000000  13.164645000000000 0
ion Pt   0.000000000000000   7.574297999999999  13.164645000000000 0
ion Pt   7.574297999999999   0.000000000000000  13.164645000000000 0
ion Pt   7.574297999999999   7.574297999999999  13.164645000000000 0
ion C   6.311919999999999   3.787148999999999  16.133065916425746 1  Linear 0 0 1
ion O   6.372015000000000   3.787148999999999  18.394638159531066 1  Linear 0 0 1

# Forces in Cartesian coordinates:
force Ag  -0.000646656552093   0.000000000000000   0.000191855948056 0
force Ag   0.000037597578068   0.000000000000000  -0.000297867635232 0
force Ag   0.000472785416698   0.000000000000000  -0.000245185339446 0
force Ag   0.000173025105752   0.000000000000000  -0.000284681969357 0
force Ag   0.000162523448840  -0.000497257448301  -0.000651564161261 0
force Ag   0.000162523448840   0.000497257448301  -0.000651564161261 0
force Ag  -0.000096901160474   0.000069217517342  -0.000698077411011 0
force Ag  -0.000096901160474  -0.000069217517342  -0.000698077411011 0
force Ag  -0.000358955842651   0.000000000000000  -0.000667055108532 0
force Ag   0.000157525369308   0.000000000000000  -0.000456373102961 0
force Ag   0.000452797151448   0.000000000000000  -0.000645546059664 0
force Ag  -0.000181516067287   0.000000000000000  -0.000609154114112 0
force Ag  -0.047594123089293   0.000000000000000  -0.031974307939725 0
force Ag  -0.001439812762540   0.000000000000000  -0.000393661746810 0
force Ag   0.004284067167812   0.000000000000000   0.000576509225050 0
force Ag   0.000365939611980   0.000000000000000  -0.001397367128892 0
force Ag  -0.000926623538360  -0.001304652251085  -0.001946117294620 0
force Ag  -0.000926623538360   0.001304652251085  -0.001946117294620 0
force Ag   0.000135570334158  -0.000310670042940   0.000243101253471 0
force Ag   0.000135570334158   0.000310670042940   0.000243101253471 0
force Ag   0.000411013204018   0.000000000000000   0.001009015241332 0
force Ag   0.000285290862660   0.000000000000000   0.000633426838388 0
force Ag   0.002231921649558   0.000000000000000  -0.005193016486732 0
force Ag   0.000533740689928   0.000000000000000   0.002419892867786 0
force Pt  -0.000282274665656   0.000048541388662  -0.000102326834218 0
force Pt  -0.000282274665656  -0.000048541388662  -0.000102326834218 0
force Pt   0.000126477540603  -0.000545002955520   0.001726329111847 0
force Pt   0.000126477540603   0.000545002955520   0.001726329111847 0
force Pt   0.000235656604266   0.001468475376323  -0.000967706845064 0
force Pt   0.000235656604266  -0.001468475376323  -0.000967706845064 0
force Pt  -0.000591002112637   0.008099968824267   0.010149816378572 0
force Pt  -0.000591002112637  -0.008099968824267   0.010149816378572 0
force C   0.041055483320036   0.000000000000000   0.057009562359327 1  Linear 0 0 1
force O   0.002277871473905   0.000000000000000  -0.037369025883566 1  Linear 0 0 1

# Energy components:
   A_diel =       -0.0162756046461300
   Eewald =    12746.5846253817726392
       EH =    16617.4575941613002215
     Eloc =   -34329.2281027755525429
      Enl =       89.4097409893478670
     EvdW =       -0.4684597645227689
      Exc =     -580.6683502852662286
 Exc_core =      136.2258137921626258
       KE =     1044.7041284811689366
-------------------------------------
     Etot =    -4275.9992856242388370
       TS =        0.0007652467335472
-------------------------------------
        F =    -4276.0000508709727001


Dumping 'jdft.fillings' ... done
Dumping 'jdft.wfns' ... done
Dumping 'jdft.fluidState' ... done
Dumping 'jdft.ionpos' ... done
Dumping 'jdft.lattice' ... done
Dumping 'jdft.eigenvals' ... done
Dumping 'jdft.eigStats' ... 
	eMin: -3.562085 at state 17 ( [ +0.500000 +0.500000 +0.000000 ] spin -1 )
	HOMO: -0.165783 at state 13 ( [ +0.250000 +0.250000 +0.000000 ] spin -1 )
	mu  : -0.162096
	LUMO: -0.161470 at state 10 ( [ +0.000000 +0.250000 +0.000000 ] spin -1 )
	eMax: +0.136082 at state 3 ( [ +0.250000 +0.000000 +0.000000 ] spin 1 )
	HOMO-LUMO gap: +0.004313
	Optical gap  : +0.008345 at state 0 ( [ +0.000000 +0.000000 +0.000000 ] spin 1 )
Dumping 'jdft.Ecomponents' ... done
IonicMinimize: Iter:   1  F: -4276.000050870972700  |grad|_K:  4.820e-02  alpha:  1.000e+00  linmin:  6.269e-01  t[s]:   6204.48

#--- Lowdin population analysis ---
# oxidation-state Ag +0.040 +0.039 +0.038 +0.039 +0.119 +0.119 +0.116 +0.116 +0.117 +0.119 +0.124 +0.112 +0.090 +0.161 +0.146 +0.156 +0.047 +0.047 +0.047 +0.047 +0.042 +0.050 +0.068 +0.044
# magnetic-moments Ag -0.000 -0.000 -0.000 -0.000 -0.000 -0.000 -0.000 -0.000 -0.000 -0.000 -0.000 -0.000 -0.000 -0.000 -0.000 -0.000 -0.000 -0.000 -0.000 -0.000 -0.000 -0.000 -0.000 -0.000
# oxidation-state Pt -0.265 -0.265 -0.264 -0.264 -0.215 -0.215 -0.245 -0.245
# magnetic-moments Pt -0.000 -0.000 -0.000 -0.000 -0.000 -0.000 -0.000 -0.000
# oxidation-state C +0.386
# magnetic-moments C -0.000
# oxidation-state O -0.158
# magnetic-moments O -0.000


Computing DFT-D3 correction:
# coordination-number Ag 9.275 9.275 9.275 9.275 6.316 6.316 6.316 6.316 6.316 6.316 6.316 6.316 6.753 5.704 5.782 5.702 9.150 9.150 9.149 9.149 9.149 9.148 9.157 9.149
# coordination-number Pt 8.901 8.901 8.901 8.901 6.255 6.255 6.549 6.549
# coordination-number C 2.678
# coordination-number O 1.076
# diagonal-C6 Ag 268.61 268.61 268.61 268.61 268.61 268.61 268.61 268.61 268.61 268.61 268.61 268.61 268.61 268.61 268.61 268.61 268.61 268.61 268.61 268.61 268.61 268.61 268.61 268.61
# diagonal-C6 Pt 336.87 336.87 336.87 336.87 336.87 336.87 336.87 336.87
# diagonal-C6 C 26.44
# diagonal-C6 O 12.75
EvdW_6 =   -0.183488
EvdW_8 =   -0.284983

-------- Electronic minimization -----------
	Linear fluid (dielectric constant: 78.4, screening length: 8.12261 Bohr) occupying 0.471508 of unit cell:	Completed after 13 iterations at t[s]:   6237.68
	FillingsUpdate:  mu: -0.161854598  nElectrons: 594.000000  magneticMoment: [ Abs: 0.00000  Tot: -0.00000 ]
ElecMinimize: Iter:   0  F: -4275.994148358778148  |grad|_K:  7.687e-06  alpha:  1.000e+00
	Linear fluid (dielectric constant: 78.4, screening length: 8.12261 Bohr) occupying 0.471409 of unit cell:	Completed after 15 iterations at t[s]:   6303.82
	Linear fluid (dielectric constant: 78.4, screening length: 8.12261 Bohr) occupying 0.471456 of unit cell:	Completed after 13 iterations at t[s]:   6328.88
	FillingsUpdate:  mu: -0.162064664  nElectrons: 594.000000  magneticMoment: [ Abs: 0.00000  Tot: -0.00000 ]
	SubspaceRotationAdjust: set factor to 0.415
ElecMinimize: Iter:   1  F: -4276.000688803798766  |grad|_K:  2.061e-06  alpha:  3.849e-01  linmin:  7.558e-06  t[s]:   6358.37
	Linear fluid (dielectric constant: 78.4, screening length: 8.12261 Bohr) occupying 0.471422 of unit cell:	Completed after 13 iterations at t[s]:   6390.48
	Linear fluid (dielectric constant: 78.4, screening length: 8.12261 Bohr) occupying 0.471423 of unit cell:	Completed after 2 iterations at t[s]:   6413.12
	FillingsUpdate:  mu: -0.160885783  nElectrons: 594.000000  magneticMoment: [ Abs: 0.00000  Tot: -0.00000 ]
	SubspaceRotationAdjust: set factor to 0.512
ElecMinimize: Iter:   2  F: -4276.001147676166511  |grad|_K:  1.031e-06  alpha:  3.756e-01  linmin: -1.441e-06  t[s]:   6442.52
	Linear fluid (dielectric constant: 78.4, screening length: 8.12261 Bohr) occupying 0.471402 of unit cell:	Completed after 11 iterations at t[s]:   6474.30
	Linear fluid (dielectric constant: 78.4, screening length: 8.12261 Bohr) occupying 0.471396 of unit cell:	Completed after 7 iterations at t[s]:   6497.85
	FillingsUpdate:  mu: -0.161579303  nElectrons: 594.000000  magneticMoment: [ Abs: 0.00000  Tot: -0.00000 ]
	SubspaceRotationAdjust: set factor to 0.63
ElecMinimize: Iter:   3  F: -4276.001299819362430  |grad|_K:  7.239e-07  alpha:  4.976e-01  linmin: -1.038e-05  t[s]:   6527.57
	Linear fluid (dielectric constant: 78.4, screening length: 8.12261 Bohr) occupying 0.471364 of unit cell:	Completed after 13 iterations at t[s]:   6559.62
	Linear fluid (dielectric constant: 78.4, screening length: 8.12261 Bohr) occupying 0.471368 of unit cell:	Completed after 7 iterations at t[s]:   6583.34
	FillingsUpdate:  mu: -0.160618773  nElectrons: 594.000000  magneticMoment: [ Abs: 0.00000  Tot: -0.00000 ]
	SubspaceRotationAdjust: set factor to 0.64
ElecMinimize: Iter:   4  F: -4276.001364203962112  |grad|_K:  5.516e-07  alpha:  4.271e-01  linmin: -5.204e-06  t[s]:   6613.00
	Linear fluid (dielectric constant: 78.4, screening length: 8.12261 Bohr) occupying 0.471352 of unit cell:	Completed after 15 iterations at t[s]:   6645.26
	Linear fluid (dielectric constant: 78.4, screening length: 8.12261 Bohr) occupying 0.471357 of unit cell:	Completed after 10 iterations at t[s]:   6669.53
	FillingsUpdate:  mu: -0.161341506  nElectrons: 594.000000  magneticMoment: [ Abs: 0.00000  Tot: -0.00000 ]
	SubspaceRotationAdjust: set factor to 0.5
ElecMinimize: Iter:   5  F: -4276.001390351967530  |grad|_K:  4.018e-07  alpha:  2.990e-01  linmin: -3.903e-07  t[s]:   6699.15
	Linear fluid (dielectric constant: 78.4, screening length: 8.12261 Bohr) occupying 0.471337 of unit cell:	Completed after 9 iterations at t[s]:   6730.38
	Linear fluid (dielectric constant: 78.4, screening length: 8.12261 Bohr) occupying 0.471336 of unit cell:	Completed after 2 iterations at t[s]:   6753.05
	FillingsUpdate:  mu: -0.161176177  nElectrons: 594.000000  magneticMoment: [ Abs: 0.00000  Tot: -0.00000 ]
	SubspaceRotationAdjust: set factor to 0.382
[...]

# Energy components:
   A_diel =       -0.0133647427335909
   Eewald =    12723.2205480781776714
       EH =    16595.2693826793838525
     Eloc =   -34283.7169691106828395
      Enl =       89.4477969186095550
     EvdW =       -0.4682237878337919
      Exc =     -580.6637565211419769
 Exc_core =      136.2258131097360376
       KE =     1044.6956134399292750
-------------------------------------
     Etot =    -4276.0031599365593138
       TS =        0.0007049114278415
-------------------------------------
        F =    -4276.0038648479867334


Dumping 'jdft.fillings' ... done
Dumping 'jdft.wfns' ... done
Dumping 'jdft.fluidState' ... done
Dumping 'jdft.ionpos' ... done
Dumping 'jdft.lattice' ... done
Dumping 'jdft.eigenvals' ... done
Dumping 'jdft.eigStats' ... 
	eMin: -3.548666 at state 8 ( [ +0.500000 +0.500000 +0.000000 ] spin 1 )
	HOMO: -0.161858 at state 2 ( [ +0.000000 +0.500000 +0.000000 ] spin 1 )
	mu  : -0.160720
	LUMO: -0.158991 at state 0 ( [ +0.000000 +0.000000 +0.000000 ] spin 1 )
	eMax: +0.136344 at state 3 ( [ +0.250000 +0.000000 +0.000000 ] spin 1 )
	HOMO-LUMO gap: +0.002867
	Optical gap  : +0.006540 at state 0 ( [ +0.000000 +0.000000 +0.000000 ] spin 1 )
Dumping 'jdft.Ecomponents' ... done
IonicMinimize: Iter:   9  F: -4276.003864847986733  |grad|_K:  2.315e-04  alpha:  1.000e+00  linmin:  7.586e-04  t[s]:  16092.12

#--- Lowdin population analysis ---
# oxidation-state Ag +0.041 +0.040 +0.039 +0.040 +0.117 +0.117 +0.114 +0.114 +0.113 +0.117 +0.122 +0.111 +0.060 +0.158 +0.141 +0.154 +0.048 +0.048 +0.047 +0.047 +0.044 +0.051 +0.067 +0.045
# magnetic-moments Ag -0.000 +0.000 +0.000 -0.000 -0.000 -0.000 -0.000 -0.000 +0.000 +0.000 +0.000 -0.000 +0.000 -0.000 +0.000 -0.000 -0.000 -0.000 +0.000 +0.000 -0.000 +0.000 +0.000 -0.000
# oxidation-state Pt -0.265 -0.265 -0.263 -0.263 -0.214 -0.214 -0.249 -0.249
# magnetic-moments Pt -0.000 -0.000 -0.000 -0.000 +0.000 +0.000 -0.000 -0.000
# oxidation-state C +0.411
# magnetic-moments C -0.000
# oxidation-state O -0.121
# magnetic-moments O +0.000


Computing DFT-D3 correction:
# coordination-number Ag 9.275 9.275 9.275 9.275 6.316 6.316 6.316 6.316 6.316 6.316 6.316 6.316 6.719 5.704 5.762 5.702 9.149 9.149 9.149 9.149 9.149 9.148 9.154 9.148
# coordination-number Pt 8.901 8.901 8.901 8.901 6.255 6.255 6.456 6.456
# coordination-number C 2.460
# coordination-number O 1.049
# diagonal-C6 Ag 268.61 268.61 268.61 268.61 268.61 268.61 268.61 268.61 268.61 268.61 268.61 268.61 268.61 268.61 268.61 268.61 268.61 268.61 268.61 268.61 268.61 268.61 268.61 268.61
# diagonal-C6 Pt 336.87 336.87 336.87 336.87 336.87 336.87 336.87 336.87
# diagonal-C6 C 27.82
# diagonal-C6 O 12.77
EvdW_6 =   -0.183440
EvdW_8 =   -0.284784

-------- Electronic minimization -----------
	Linear fluid (dielectric constant: 78.4, screening length: 8.12261 Bohr) occupying 0.469073 of unit cell:	Completed after 2 iterations at t[s]:  16126.05
	FillingsUpdate:  mu: -0.160730692  nElectrons: 594.000000  magneticMoment: [ Abs: 0.00000  Tot: -0.00000 ]
ElecMinimize: Iter:   0  F: -4276.003864783384415  |grad|_K:  2.303e-08  alpha:  1.000e+00
	Linear fluid (dielectric constant: 78.4, screening length: 8.12261 Bohr) occupying 0.469073 of unit cell:	Completed after 6 iterations at t[s]:  16189.97
	Linear fluid (dielectric constant: 78.4, screening length: 8.12261 Bohr) occupying 0.469073 of unit cell:	Completed after 2 iterations at t[s]:  16212.70
	FillingsUpdate:  mu: -0.160688779  nElectrons: 594.000000  magneticMoment: [ Abs: 0.00000  Tot: -0.00000 ]
	SubspaceRotationAdjust: set factor to 0.52
ElecMinimize: Iter:   1  F: -4276.003864828280712  |grad|_K:  1.822e-08  alpha:  2.431e-01  linmin:  1.243e-03  t[s]:  16242.36
	Linear fluid (dielectric constant: 78.4, screening length: 8.12261 Bohr) occupying 0.469073 of unit cell:	Completed after 3 iterations at t[s]:  16272.52
	Linear fluid (dielectric constant: 78.4, screening length: 8.12261 Bohr) occupying 0.469073 of unit cell:	Completed after 2 iterations at t[s]:  16295.21
	FillingsUpdate:  mu: -0.160714507  nElectrons: 594.000000  magneticMoment: [ Abs: 0.00000  Tot: -0.00000 ]
	SubspaceRotationAdjust: set factor to 0.565
ElecMinimize: Iter:   2  F: -4276.003864829657687  |grad|_K:  8.212e-09  alpha:  1.162e-01  linmin: -5.409e-04  t[s]:  16324.76
ElecMinimize: Converged (|Delta F|<1.000000e-07 for 2 iters).
Setting wave functions to eigenvectors of Hamiltonian
Converging empty states (this may take a while): |deigs|: 6.563e-10

Computing DFT-D3 correction:
# coordination-number Ag 9.275 9.275 9.275 9.275 6.316 6.316 6.316 6.316 6.316 6.316 6.316 6.316 6.719 5.704 5.762 5.702 9.149 9.149 9.149 9.149 9.149 9.148 9.154 9.148
# coordination-number Pt 8.901 8.901 8.901 8.901 6.255 6.255 6.456 6.456
# coordination-number C 2.460
# coordination-number O 1.049
# diagonal-C6 Ag 268.61 268.61 268.61 268.61 268.61 268.61 268.61 268.61 268.61 268.61 268.61 268.61 268.61 268.61 268.61 268.61 268.61 268.61 268.61 268.61 268.61 268.61 268.61 268.61
# diagonal-C6 Pt 336.87 336.87 336.87 336.87 336.87 336.87 336.87 336.87
# diagonal-C6 C 27.82
# diagonal-C6 O 12.77
EvdW_6 =   -0.183440
EvdW_8 =   -0.284784
IonicMinimize: 	Wolfe criterion not satisfied: alpha: 1  (E-E0)/|gdotd0|: 0.33654  gdotd/gdotd0: 0.0145663 (taking cubic step)

Computing DFT-D3 correction:
# coordination-number Ag 9.275 9.275 9.275 9.275 6.316 6.316 6.316 6.316 6.316 6.316 6.316 6.316 6.719 5.704 5.762 5.702 9.149 9.149 9.149 9.149 9.149 9.148 9.154 9.148
# coordination-number Pt 8.901 8.901 8.901 8.901 6.255 6.255 6.456 6.456
# coordination-number C 2.460
# coordination-number O 1.049
# diagonal-C6 Ag 268.61 268.61 268.61 268.61 268.61 268.61 268.61 268.61 268.61 268.61 268.61 268.61 268.61 268.61 268.61 268.61 268.61 268.61 268.61 268.61 268.61 268.61 268.61 268.61
# diagonal-C6 Pt 336.87 336.87 336.87 336.87 336.87 336.87 336.87 336.87
# diagonal-C6 C 27.82
# diagonal-C6 O 12.77
EvdW_6 =   -0.183440
EvdW_8 =   -0.284784

-------- Electronic minimization -----------
	Linear fluid (dielectric constant: 78.4, screening length: 8.12261 Bohr) occupying 0.469068 of unit cell:	Completed after 2 iterations at t[s]:  16440.16
	FillingsUpdate:  mu: -0.160710487  nElectrons: 594.000000  magneticMoment: [ Abs: 0.00000  Tot: +0.00000 ]
ElecMinimize: Iter:   0  F: -4276.003864807984428  |grad|_K:  2.106e-08  alpha:  1.000e+00
	Linear fluid (dielectric constant: 78.4, screening length: 8.12261 Bohr) occupying 0.469069 of unit cell:	Completed after 3 iterations at t[s]:  16503.71
	Linear fluid (dielectric constant: 78.4, screening length: 8.12261 Bohr) occupying 0.469069 of unit cell:	Completed after 3 iterations at t[s]:  16526.32
	FillingsUpdate:  mu: -0.160728972  nElectrons: 594.000000  magneticMoment: [ Abs: 0.00000  Tot: +0.00000 ]
	SubspaceRotationAdjust: set factor to 0.385
ElecMinimize: Iter:   1  F: -4276.003864839727612  |grad|_K:  9.852e-09  alpha:  2.399e-01  linmin:  8.803e-04  t[s]:  16556.06
	Linear fluid (dielectric constant: 78.4, screening length: 8.12261 Bohr) occupying 0.469069 of unit cell:	Completed after 0 iterations at t[s]:  16585.55
	Linear fluid (dielectric constant: 78.4, screening length: 8.12261 Bohr) occupying 0.469069 of unit cell:	Completed after 2 iterations at t[s]:  16608.07
ElecMinimize: 	Step increased F by 1.307853e-09, reducing alpha to 6.210610e-02.
	Linear fluid (dielectric constant: 78.4, screening length: 8.12261 Bohr) occupying 0.469069 of unit cell:	Completed after 2 iterations at t[s]:  16658.31
	FillingsUpdate:  mu: -0.160723547  nElectrons: 594.000000  magneticMoment: [ Abs: 0.00000  Tot: +0.00000 ]
	SubspaceRotationAdjust: set factor to 0.577
ElecMinimize: Iter:   2  F: -4276.003864842199619  |grad|_K:  6.688e-09  alpha:  6.211e-02  linmin: -8.485e-03  t[s]:  16687.93
ElecMinimize: Converged (|Delta F|<1.000000e-07 for 2 iters).
Setting wave functions to eigenvectors of Hamiltonian
Converging empty states (this may take a while): |deigs|: 3.574e-10

Computing DFT-D3 correction:
# coordination-number Ag 9.275 9.275 9.275 9.275 6.316 6.316 6.316 6.316 6.316 6.316 6.316 6.316 6.719 5.704 5.762 5.702 9.149 9.149 9.149 9.149 9.149 9.148 9.154 9.148
# coordination-number Pt 8.901 8.901 8.901 8.901 6.255 6.255 6.456 6.456
# coordination-number C 2.460
# coordination-number O 1.049
# diagonal-C6 Ag 268.61 268.61 268.61 268.61 268.61 268.61 268.61 268.61 268.61 268.61 268.61 268.61 268.61 268.61 268.61 268.61 268.61 268.61 268.61 268.61 268.61 268.61 268.61 268.61
# diagonal-C6 Pt 336.87 336.87 336.87 336.87 336.87 336.87 336.87 336.87
# diagonal-C6 C 27.82
# diagonal-C6 O 12.77
EvdW_6 =   -0.183440
EvdW_8 =   -0.284784
IonicMinimize: 	Wolfe criterion not satisfied: alpha: 0.198225  (E-E0)/|gdotd0|: 0.106257  gdotd/gdotd0: -0.855691 (taking cubic step)

Computing DFT-D3 correction:
# coordination-number Ag 9.275 9.275 9.275 9.275 6.316 6.316 6.316 6.316 6.316 6.316 6.316 6.316 6.719 5.704 5.762 5.702 9.149 9.149 9.149 9.149 9.149 9.148 9.154 9.148
# coordination-number Pt 8.901 8.901 8.901 8.901 6.255 6.255 6.456 6.456
# coordination-number C 2.460
# coordination-number O 1.049
# diagonal-C6 Ag 268.61 268.61 268.61 268.61 268.61 268.61 268.61 268.61 268.61 268.61 268.61 268.61 268.61 268.61 268.61 268.61 268.61 268.61 268.61 268.61 268.61 268.61 268.61 268.61
# diagonal-C6 Pt 336.87 336.87 336.87 336.87 336.87 336.87 336.87 336.87
# diagonal-C6 C 27.82
# diagonal-C6 O 12.77
EvdW_6 =   -0.183440
EvdW_8 =   -0.284784

-------- Electronic minimization -----------
	Linear fluid (dielectric constant: 78.4, screening length: 8.12261 Bohr) occupying 0.469070 of unit cell:	Completed after 3 iterations at t[s]:  16804.52
	FillingsUpdate:  mu: -0.160720088  nElectrons: 594.000000  magneticMoment: [ Abs: 0.00000  Tot: +0.00000 ]
ElecMinimize: Iter:   0  F: -4276.003864815707857  |grad|_K:  2.470e-08  alpha:  1.000e+00
	Linear fluid (dielectric constant: 78.4, screening length: 8.12261 Bohr) occupying 0.469070 of unit cell:	Completed after 3 iterations at t[s]:  16867.90
	Linear fluid (dielectric constant: 78.4, screening length: 8.12261 Bohr) occupying 0.469070 of unit cell:	Completed after 3 iterations at t[s]:  16890.68
	FillingsUpdate:  mu: -0.160722769  nElectrons: 594.000000  magneticMoment: [ Abs: 0.00000  Tot: +0.00000 ]
	SubspaceRotationAdjust: set factor to 0.601
ElecMinimize: Iter:   1  F: -4276.003864850529681  |grad|_K:  4.779e-09  alpha:  1.843e-01  linmin:  7.744e-04  t[s]:  16920.22
	Linear fluid (dielectric constant: 78.4, screening length: 8.12261 Bohr) occupying 0.469069 of unit cell:	Completed after 0 iterations at t[s]:  16949.56
ElecMinimize: 	Predicted alpha/alphaT>3.000000, increasing alphaT to 5.527549e-01.
	Linear fluid (dielectric constant: 78.4, screening length: 8.12261 Bohr) occupying 0.469069 of unit cell:	Completed after 1 iterations at t[s]:  16971.83
	Linear fluid (dielectric constant: 78.4, screening length: 8.12261 Bohr) occupying 0.469069 of unit cell:	Completed after 0 iterations at t[s]:  16993.97
	FillingsUpdate:  mu: -0.160720141  nElectrons: 594.000000  magneticMoment: [ Abs: 0.00000  Tot: +0.00000 ]
	SubspaceRotationAdjust: set factor to 0.411
ElecMinimize: Iter:   2  F: -4276.003864851091748  |grad|_K:  3.846e-09  alpha:  2.574e-01  linmin:  5.756e-03  t[s]:  17023.47
ElecMinimize: Converged (|Delta F|<1.000000e-07 for 2 iters).
Setting wave functions to eigenvectors of Hamiltonian
Converging empty states (this may take a while): |deigs|: 2.419e-10

Computing DFT-D3 correction:
# coordination-number Ag 9.275 9.275 9.275 9.275 6.316 6.316 6.316 6.316 6.316 6.316 6.316 6.316 6.719 5.704 5.762 5.702 9.149 9.149 9.149 9.149 9.149 9.148 9.154 9.148
# coordination-number Pt 8.901 8.901 8.901 8.901 6.255 6.255 6.456 6.456
# coordination-number C 2.460
# coordination-number O 1.049
# diagonal-C6 Ag 268.61 268.61 268.61 268.61 268.61 268.61 268.61 268.61 268.61 268.61 268.61 268.61 268.61 268.61 268.61 268.61 268.61 268.61 268.61 268.61 268.61 268.61 268.61 268.61
# diagonal-C6 Pt 336.87 336.87 336.87 336.87 336.87 336.87 336.87 336.87
# diagonal-C6 C 27.82
# diagonal-C6 O 12.77
EvdW_6 =   -0.183440
EvdW_8 =   -0.284784

# Ionic positions in cartesian coordinates:
ion Ag   3.787148999999999   3.787148999999999   5.645639999999999 0
ion Ag   3.787148999999999  11.361447000000000   5.645639999999999 0
ion Ag  11.361447000000000   3.787148999999999   5.645639999999999 0
ion Ag  11.361447000000000  11.361447000000000   5.645639999999999 0
ion Ag   3.787148999999999   0.000000000000000   1.801744000000000 0
ion Ag   3.787148999999999   7.574297999999999   1.801744000000000 0
ion Ag  11.361447000000000   0.000000000000000   1.801744000000000 0
ion Ag  11.361447000000000   7.574297999999999   1.801744000000000 0
ion Ag   0.000000000000000   3.787148999999999   1.801744000000000 0
ion Ag   0.000000000000000  11.361447000000000   1.801744000000000 0
ion Ag   7.574297999999999   3.787148999999999   1.801744000000000 0
ion Ag   7.574297999999999  11.361447000000000   1.801744000000000 0
ion Ag   3.787148999999999   3.787148999999999  13.586699999999999 0
ion Ag   3.787148999999999  11.361447000000000  13.586699999999999 0
ion Ag  11.361447000000000   3.787148999999999  13.586699999999999 0
ion Ag  11.361447000000000  11.361447000000000  13.586699999999999 0
ion Ag   3.787148999999999   0.000000000000000   9.493898000000000 0
ion Ag   3.787148999999999   7.574297999999999   9.493898000000000 0
ion Ag  11.361447000000000   0.000000000000000   9.493898000000000 0
ion Ag  11.361447000000000   7.574297999999999   9.493898000000000 0
ion Ag   0.000000000000000   3.787148999999999   9.493898000000000 0
ion Ag   0.000000000000000  11.361447000000000   9.493898000000000 0
ion Ag   7.574297999999999   3.787148999999999   9.493898000000000 0
ion Ag   7.574297999999999  11.361447000000000   9.493898000000000 0
ion Pt   0.000000000000000   0.000000000000000   5.606146999999999 0
ion Pt   0.000000000000000   7.574297999999999   5.606146999999999 0
ion Pt   7.574297999999999   0.000000000000000   5.606146999999999 0
ion Pt   7.574297999999999   7.574297999999999   5.606146999999999 0
ion Pt   0.000000000000000   0.000000000000000  13.164645000000000 0
ion Pt   0.000000000000000   7.574297999999999  13.164645000000000 0
ion Pt   7.574297999999999   0.000000000000000  13.164645000000000 0
ion Pt   7.574297999999999   7.574297999999999  13.164645000000000 0
ion C   6.311919999999999   3.787148999999999  16.434833897756494 1  Linear 0 0 1
ion O   6.372015000000000   3.787148999999999  18.637955502406740 1  Linear 0 0 1

# Forces in Cartesian coordinates:
force Ag  -0.000692688936299   0.000000000000000   0.000148528515840 0
force Ag   0.000106781145260   0.000000000000000  -0.000265437301409 0
force Ag   0.000685187233971   0.000000000000000  -0.000156807456958 0
force Ag   0.000150543960737   0.000000000000000  -0.000265420238829 0
force Ag   0.000074702822425  -0.000473192144798  -0.000624779611405 0
force Ag   0.000074702822425   0.000473192144798  -0.000624779611405 0
force Ag  -0.000042827280615   0.000115716175108  -0.000774160684240 0
force Ag  -0.000042827280615  -0.000115716175108  -0.000774160684240 0
force Ag  -0.000403146904632   0.000000000000000  -0.000738540274706 0
force Ag   0.000176394605367   0.000000000000000  -0.000465648438091 0
force Ag   0.000474567195667   0.000000000000000  -0.000513091729155 0
force Ag  -0.000208149576547   0.000000000000000  -0.000655941743765 0
force Ag  -0.023768584683625   0.000000000000000  -0.011204707712902 0
force Ag  -0.001354176503227   0.000000000000000  -0.000343488679074 0
force Ag   0.003844805094859   0.000000000000000   0.000583218822597 0
force Ag   0.000683427980218   0.000000000000000  -0.000928216502532 0
force Ag  -0.000791489879028  -0.000988878041147  -0.001438099931657 0
force Ag  -0.000791489879028   0.000988878041147  -0.001438099931657 0
force Ag  -0.000096113156418  -0.000052447373965   0.000231185934976 0
force Ag  -0.000096113156418   0.000052447373965   0.000231185934976 0
force Ag   0.000624465560410   0.000000000000000   0.001251781785538 0
force Ag   0.000309485371059   0.000000000000000   0.000627493054021 0
force Ag   0.001782649813212   0.000000000000000  -0.003904952612114 0
force Ag   0.000371110332217   0.000000000000000   0.002542499799119 0
force Pt  -0.000420099236884   0.000264411792243  -0.000174072039316 0
force Pt  -0.000420099236884  -0.000264411792243  -0.000174072039316 0
force Pt   0.000038440343663  -0.000638588967579   0.001488117761648 0
force Pt   0.000038440343663   0.000638588967579   0.001488117761648 0
force Pt   0.000019223093736   0.001080164830515  -0.000823933356496 0
force Pt   0.000019223093736  -0.001080164830515  -0.000823933356496 0
force Pt   0.000180614206434   0.005067272570015   0.008067995069265 0
force Pt   0.000180614206434  -0.005067272570015   0.008067995069265 0
force C   0.016887660123373   0.000000000000000   0.000317050807802 1  Linear 0 0 1
force O   0.002441111530525   0.000000000000000  -0.000211558176116 1  Linear 0 0 1

# Energy components:
   A_diel =       -0.0133574474039997
   Eewald =    12723.2222634307800035
       EH =    16595.2743841418014199
     Eloc =   -34283.7237537944020005
      Enl =       89.4478171108822835
     EvdW =       -0.4682238095806243
      Exc =     -580.6637768004138707
 Exc_core =      136.2258131130449499
       KE =     1044.6956742338832100
-------------------------------------
     Etot =    -4276.0031598214063706
       TS =        0.0007050296853927
-------------------------------------
        F =    -4276.0038648510917483


Dumping 'jdft.fillings' ... done
Dumping 'jdft.wfns' ... done
Dumping 'jdft.fluidState' ... done
Dumping 'jdft.ionpos' ... done
Dumping 'jdft.lattice' ... done
Dumping 'jdft.eigenvals' ... done
Dumping 'jdft.eigStats' ... 
	eMin: -3.548675 at state 17 ( [ +0.500000 +0.500000 +0.000000 ] spin -1 )
	HOMO: -0.161859 at state 2 ( [ +0.000000 +0.500000 +0.000000 ] spin 1 )
	mu  : -0.160720
	LUMO: -0.158989 at state 0 ( [ +0.000000 +0.000000 +0.000000 ] spin 1 )
	eMax: +0.136343 at state 12 ( [ +0.250000 +0.000000 +0.000000 ] spin -1 )
	HOMO-LUMO gap: +0.002870
	Optical gap  : +0.006546 at state 0 ( [ +0.000000 +0.000000 +0.000000 ] spin 1 )
Dumping 'jdft.Ecomponents' ... done
IonicMinimize: Iter:  10  F: -4276.003864851091748  |grad|_K:  2.695e-04  alpha:  4.187e-02  linmin: -5.509e-05  t[s]:  17106.07
IonicMinimize: Converged (|Delta F|<1.000000e-06 for 2 iters).

#--- Lowdin population analysis ---
# oxidation-state Ag +0.041 +0.040 +0.039 +0.040 +0.117 +0.117 +0.114 +0.114 +0.113 +0.117 +0.122 +0.111 +0.060 +0.158 +0.141 +0.154 +0.048 +0.048 +0.047 +0.047 +0.044 +0.051 +0.067 +0.045
# magnetic-moments Ag +0.000 -0.000 -0.000 -0.000 -0.000 -0.000 +0.000 +0.000 +0.000 -0.000 -0.000 +0.000 -0.000 -0.000 -0.000 +0.000 +0.000 +0.000 +0.000 +0.000 -0.000 +0.000 +0.000 +0.000
# oxidation-state Pt -0.265 -0.265 -0.263 -0.263 -0.214 -0.214 -0.249 -0.249
# magnetic-moments Pt -0.000 -0.000 +0.000 +0.000 +0.000 +0.000 -0.000 -0.000
# oxidation-state C +0.411
# magnetic-moments C +0.000
# oxidation-state O -0.121
# magnetic-moments O -0.000


Dumping 'jdft.n_up' ... done
Dumping 'jdft.n_dn' ... done
Dumping 'jdft.tau_up' ... done
Dumping 'jdft.tau_dn' ... done
Dumping 'jdft.eigenvals' ... done
Dumping 'jdft.eigStats' ... 
	eMin: -3.548675 at state 17 ( [ +0.500000 +0.500000 +0.000000 ] spin -1 )
	HOMO: -0.161859 at state 2 ( [ +0.000000 +0.500000 +0.000000 ] spin 1 )
	mu  : -0.160720
	LUMO: -0.158989 at state 0 ( [ +0.000000 +0.000000 +0.000000 ] spin 1 )
	eMax: +0.136343 at state 12 ( [ +0.250000 +0.000000 +0.000000 ] spin -1 )
	HOMO-LUMO gap: +0.002870
	Optical gap  : +0.006546 at state 0 ( [ +0.000000 +0.000000 +0.000000 ] spin 1 )
Dumping 'jdft.kPts' ... done
Dumping 'jdft.kMap' ... done
Dumping 'jdft.dosUp' ... done.
Dumping 'jdft.dosDn' ... done.
End date and time: Sat Mar  5 20:56:01 2022  (Duration: 0-4:45:53.71)
Done!
