
*************** JDFTx 1.6.0  ***************

Start date and time: Mon Dec  6 17:09:54 2021
Executable /projects/musgravc/apps/jdftx-1.6.1/build/jdftx with command-line: -i in
Running on hosts (process indices):  shas0217.rc.int.colorado.edu (0-23)
Divided in process groups (process indices):  0 (0)  1 (1)  2 (2)  3 (3)  4 (4)  5 (5)  6 (6)  7 (7)  8 (8)  9 (9)  10 (10)  11 (11)  12 (12)  13 (13)  14 (14)  15 (15)  16 (16)  17 (17)  18 (18)  19 (19)  20 (20)  21 (21)  22 (22)  23 (23)
Resource initialization completed at t[s]:      0.00
Run totals: 24 processes, 24 threads, 0 GPUs


Input parsed successfully to the following command list (including defaults):

basis kpoint-dependent
converge-empty-states yes
coords-type Cartesian
core-overlap-check none
coulomb-interaction Periodic
davidson-band-ratio 1.1
density-of-states Etol 1.000000e-06 Esigma 1.000000e-03 \
		Complete \
	Total \
	OrthoOrbital Ag 1   s \
	OrthoOrbital Ag 1   p \
	OrthoOrbital Ag 1   px \
	OrthoOrbital Ag 1   py \
	OrthoOrbital Ag 1   pz \
	OrthoOrbital Ag 1   d \
	OrthoOrbital Ag 1   dxy \
	OrthoOrbital Ag 1   dyz \
	OrthoOrbital Ag 1   dz2 \
	OrthoOrbital Ag 1   dxz \
	OrthoOrbital Ag 1   dx2-y2 \
	OrthoOrbital Ag 2   s \
	OrthoOrbital Ag 2   p \
	OrthoOrbital Ag 2   px \
	OrthoOrbital Ag 2   py \
	OrthoOrbital Ag 2   pz \
	OrthoOrbital Ag 2   d \
	OrthoOrbital Ag 2   dxy \
	OrthoOrbital Ag 2   dyz \
	OrthoOrbital Ag 2   dz2 \
	OrthoOrbital Ag 2   dxz \
	OrthoOrbital Ag 2   dx2-y2 \
	OrthoOrbital Ag 3   s \
	OrthoOrbital Ag 3   p \
	OrthoOrbital Ag 3   px \
	OrthoOrbital Ag 3   py \
	OrthoOrbital Ag 3   pz \
	OrthoOrbital Ag 3   d \
	OrthoOrbital Ag 3   dxy \
	OrthoOrbital Ag 3   dyz \
	OrthoOrbital Ag 3   dz2 \
	OrthoOrbital Ag 3   dxz \
	OrthoOrbital Ag 3   dx2-y2 \
	OrthoOrbital Ag 4   s \
	OrthoOrbital Ag 4   p \
	OrthoOrbital Ag 4   px \
	OrthoOrbital Ag 4   py \
	OrthoOrbital Ag 4   pz \
	OrthoOrbital Ag 4   d \
	OrthoOrbital Ag 4   dxy \
	OrthoOrbital Ag 4   dyz \
	OrthoOrbital Ag 4   dz2 \
	OrthoOrbital Ag 4   dxz \
	OrthoOrbital Ag 4   dx2-y2 \
	OrthoOrbital Ag 5   s \
	OrthoOrbital Ag 5   p \
	OrthoOrbital Ag 5   px \
	OrthoOrbital Ag 5   py \
	OrthoOrbital Ag 5   pz \
	OrthoOrbital Ag 5   d \
	OrthoOrbital Ag 5   dxy \
	OrthoOrbital Ag 5   dyz \
	OrthoOrbital Ag 5   dz2 \
	OrthoOrbital Ag 5   dxz \
	OrthoOrbital Ag 5   dx2-y2 \
	OrthoOrbital Ag 6   s \
	OrthoOrbital Ag 6   p \
	OrthoOrbital Ag 6   px \
	OrthoOrbital Ag 6   py \
	OrthoOrbital Ag 6   pz \
	OrthoOrbital Ag 6   d \
	OrthoOrbital Ag 6   dxy \
	OrthoOrbital Ag 6   dyz \
	OrthoOrbital Ag 6   dz2 \
	OrthoOrbital Ag 6   dxz \
	OrthoOrbital Ag 6   dx2-y2 \
	OrthoOrbital Ag 7   s \
	OrthoOrbital Ag 7   p \
	OrthoOrbital Ag 7   px \
	OrthoOrbital Ag 7   py \
	OrthoOrbital Ag 7   pz \
	OrthoOrbital Ag 7   d \
	OrthoOrbital Ag 7   dxy \
	OrthoOrbital Ag 7   dyz \
	OrthoOrbital Ag 7   dz2 \
	OrthoOrbital Ag 7   dxz \
	OrthoOrbital Ag 7   dx2-y2 \
	OrthoOrbital Ag 8   s \
	OrthoOrbital Ag 8   p \
	OrthoOrbital Ag 8   px \
	OrthoOrbital Ag 8   py \
	OrthoOrbital Ag 8   pz \
	OrthoOrbital Ag 8   d \
	OrthoOrbital Ag 8   dxy \
	OrthoOrbital Ag 8   dyz \
	OrthoOrbital Ag 8   dz2 \
	OrthoOrbital Ag 8   dxz \
	OrthoOrbital Ag 8   dx2-y2 \
	OrthoOrbital Ag 9   s \
	OrthoOrbital Ag 9   p \
	OrthoOrbital Ag 9   px \
	OrthoOrbital Ag 9   py \
	OrthoOrbital Ag 9   pz \
	OrthoOrbital Ag 9   d \
	OrthoOrbital Ag 9   dxy \
	OrthoOrbital Ag 9   dyz \
	OrthoOrbital Ag 9   dz2 \
	OrthoOrbital Ag 9   dxz \
	OrthoOrbital Ag 9   dx2-y2 \
	OrthoOrbital Ag 10   s \
	OrthoOrbital Ag 10   p \
	OrthoOrbital Ag 10   px \
	OrthoOrbital Ag 10   py \
	OrthoOrbital Ag 10   pz \
	OrthoOrbital Ag 10   d \
	OrthoOrbital Ag 10   dxy \
	OrthoOrbital Ag 10   dyz \
	OrthoOrbital Ag 10   dz2 \
	OrthoOrbital Ag 10   dxz \
	OrthoOrbital Ag 10   dx2-y2 \
	OrthoOrbital Ag 11   s \
	OrthoOrbital Ag 11   p \
	OrthoOrbital Ag 11   px \
	OrthoOrbital Ag 11   py \
	OrthoOrbital Ag 11   pz \
	OrthoOrbital Ag 11   d \
	OrthoOrbital Ag 11   dxy \
	OrthoOrbital Ag 11   dyz \
	OrthoOrbital Ag 11   dz2 \
	OrthoOrbital Ag 11   dxz \
	OrthoOrbital Ag 11   dx2-y2 \
	OrthoOrbital Ag 12   s \
	OrthoOrbital Ag 12   p \
	OrthoOrbital Ag 12   px \
	OrthoOrbital Ag 12   py \
	OrthoOrbital Ag 12   pz \
	OrthoOrbital Ag 12   d \
	OrthoOrbital Ag 12   dxy \
	OrthoOrbital Ag 12   dyz \
	OrthoOrbital Ag 12   dz2 \
	OrthoOrbital Ag 12   dxz \
	OrthoOrbital Ag 12   dx2-y2 \
	OrthoOrbital Ag 13   s \
	OrthoOrbital Ag 13   p \
	OrthoOrbital Ag 13   px \
	OrthoOrbital Ag 13   py \
	OrthoOrbital Ag 13   pz \
	OrthoOrbital Ag 13   d \
	OrthoOrbital Ag 13   dxy \
	OrthoOrbital Ag 13   dyz \
	OrthoOrbital Ag 13   dz2 \
	OrthoOrbital Ag 13   dxz \
	OrthoOrbital Ag 13   dx2-y2 \
	OrthoOrbital Ag 14   s \
	OrthoOrbital Ag 14   p \
	OrthoOrbital Ag 14   px \
	OrthoOrbital Ag 14   py \
	OrthoOrbital Ag 14   pz \
	OrthoOrbital Ag 14   d \
	OrthoOrbital Ag 14   dxy \
	OrthoOrbital Ag 14   dyz \
	OrthoOrbital Ag 14   dz2 \
	OrthoOrbital Ag 14   dxz \
	OrthoOrbital Ag 14   dx2-y2 \
	OrthoOrbital Ag 15   s \
	OrthoOrbital Ag 15   p \
	OrthoOrbital Ag 15   px \
	OrthoOrbital Ag 15   py \
	OrthoOrbital Ag 15   pz \
	OrthoOrbital Ag 15   d \
	OrthoOrbital Ag 15   dxy \
	OrthoOrbital Ag 15   dyz \
	OrthoOrbital Ag 15   dz2 \
	OrthoOrbital Ag 15   dxz \
	OrthoOrbital Ag 15   dx2-y2 \
	OrthoOrbital Ag 16   s \
	OrthoOrbital Ag 16   p \
	OrthoOrbital Ag 16   px \
	OrthoOrbital Ag 16   py \
	OrthoOrbital Ag 16   pz \
	OrthoOrbital Ag 16   d \
	OrthoOrbital Ag 16   dxy \
	OrthoOrbital Ag 16   dyz \
	OrthoOrbital Ag 16   dz2 \
	OrthoOrbital Ag 16   dxz \
	OrthoOrbital Ag 16   dx2-y2 \
	OrthoOrbital Ag 17   s \
	OrthoOrbital Ag 17   p \
	OrthoOrbital Ag 17   px \
	OrthoOrbital Ag 17   py \
	OrthoOrbital Ag 17   pz \
	OrthoOrbital Ag 17   d \
	OrthoOrbital Ag 17   dxy \
	OrthoOrbital Ag 17   dyz \
	OrthoOrbital Ag 17   dz2 \
	OrthoOrbital Ag 17   dxz \
	OrthoOrbital Ag 17   dx2-y2 \
	OrthoOrbital Ag 18   s \
	OrthoOrbital Ag 18   p \
	OrthoOrbital Ag 18   px \
	OrthoOrbital Ag 18   py \
	OrthoOrbital Ag 18   pz \
	OrthoOrbital Ag 18   d \
	OrthoOrbital Ag 18   dxy \
	OrthoOrbital Ag 18   dyz \
	OrthoOrbital Ag 18   dz2 \
	OrthoOrbital Ag 18   dxz \
	OrthoOrbital Ag 18   dx2-y2 \
	OrthoOrbital Ag 19   s \
	OrthoOrbital Ag 19   p \
	OrthoOrbital Ag 19   px \
	OrthoOrbital Ag 19   py \
	OrthoOrbital Ag 19   pz \
	OrthoOrbital Ag 19   d \
	OrthoOrbital Ag 19   dxy \
	OrthoOrbital Ag 19   dyz \
	OrthoOrbital Ag 19   dz2 \
	OrthoOrbital Ag 19   dxz \
	OrthoOrbital Ag 19   dx2-y2 \
	OrthoOrbital Ag 20   s \
	OrthoOrbital Ag 20   p \
	OrthoOrbital Ag 20   px \
	OrthoOrbital Ag 20   py \
	OrthoOrbital Ag 20   pz \
	OrthoOrbital Ag 20   d \
	OrthoOrbital Ag 20   dxy \
	OrthoOrbital Ag 20   dyz \
	OrthoOrbital Ag 20   dz2 \
	OrthoOrbital Ag 20   dxz \
	OrthoOrbital Ag 20   dx2-y2 \
	OrthoOrbital Ag 21   s \
	OrthoOrbital Ag 21   p \
	OrthoOrbital Ag 21   px \
	OrthoOrbital Ag 21   py \
	OrthoOrbital Ag 21   pz \
	OrthoOrbital Ag 21   d \
	OrthoOrbital Ag 21   dxy \
	OrthoOrbital Ag 21   dyz \
	OrthoOrbital Ag 21   dz2 \
	OrthoOrbital Ag 21   dxz \
	OrthoOrbital Ag 21   dx2-y2 \
	OrthoOrbital Ag 22   s \
	OrthoOrbital Ag 22   p \
	OrthoOrbital Ag 22   px \
	OrthoOrbital Ag 22   py \
	OrthoOrbital Ag 22   pz \
	OrthoOrbital Ag 22   d \
	OrthoOrbital Ag 22   dxy \
	OrthoOrbital Ag 22   dyz \
	OrthoOrbital Ag 22   dz2 \
	OrthoOrbital Ag 22   dxz \
	OrthoOrbital Ag 22   dx2-y2 \
	OrthoOrbital Ag 23   s \
	OrthoOrbital Ag 23   p \
	OrthoOrbital Ag 23   px \
	OrthoOrbital Ag 23   py \
	OrthoOrbital Ag 23   pz \
	OrthoOrbital Ag 23   d \
	OrthoOrbital Ag 23   dxy \
	OrthoOrbital Ag 23   dyz \
	OrthoOrbital Ag 23   dz2 \
	OrthoOrbital Ag 23   dxz \
	OrthoOrbital Ag 23   dx2-y2 \
	OrthoOrbital Ag 24   s \
	OrthoOrbital Ag 24   p \
	OrthoOrbital Ag 24   px \
	OrthoOrbital Ag 24   py \
	OrthoOrbital Ag 24   pz \
	OrthoOrbital Ag 24   d \
	OrthoOrbital Ag 24   dxy \
	OrthoOrbital Ag 24   dyz \
	OrthoOrbital Ag 24   dz2 \
	OrthoOrbital Ag 24   dxz \
	OrthoOrbital Ag 24   dx2-y2 \
	OrthoOrbital Ag 25   s \
	OrthoOrbital Ag 25   p \
	OrthoOrbital Ag 25   px \
	OrthoOrbital Ag 25   py \
	OrthoOrbital Ag 25   pz \
	OrthoOrbital Ag 25   d \
	OrthoOrbital Ag 25   dxy \
	OrthoOrbital Ag 25   dyz \
	OrthoOrbital Ag 25   dz2 \
	OrthoOrbital Ag 25   dxz \
	OrthoOrbital Ag 25   dx2-y2 \
	OrthoOrbital Ag 26   s \
	OrthoOrbital Ag 26   p \
	OrthoOrbital Ag 26   px \
	OrthoOrbital Ag 26   py \
	OrthoOrbital Ag 26   pz \
	OrthoOrbital Ag 26   d \
	OrthoOrbital Ag 26   dxy \
	OrthoOrbital Ag 26   dyz \
	OrthoOrbital Ag 26   dz2 \
	OrthoOrbital Ag 26   dxz \
	OrthoOrbital Ag 26   dx2-y2 \
	OrthoOrbital Ag 27   s \
	OrthoOrbital Ag 27   p \
	OrthoOrbital Ag 27   px \
	OrthoOrbital Ag 27   py \
	OrthoOrbital Ag 27   pz \
	OrthoOrbital Ag 27   d \
	OrthoOrbital Ag 27   dxy \
	OrthoOrbital Ag 27   dyz \
	OrthoOrbital Ag 27   dz2 \
	OrthoOrbital Ag 27   dxz \
	OrthoOrbital Ag 27   dx2-y2 \
	OrthoOrbital Ag 28   s \
	OrthoOrbital Ag 28   p \
	OrthoOrbital Ag 28   px \
	OrthoOrbital Ag 28   py \
	OrthoOrbital Ag 28   pz \
	OrthoOrbital Ag 28   d \
	OrthoOrbital Ag 28   dxy \
	OrthoOrbital Ag 28   dyz \
	OrthoOrbital Ag 28   dz2 \
	OrthoOrbital Ag 28   dxz \
	OrthoOrbital Ag 28   dx2-y2 \
	OrthoOrbital Ag 29   s \
	OrthoOrbital Ag 29   p \
	OrthoOrbital Ag 29   px \
	OrthoOrbital Ag 29   py \
	OrthoOrbital Ag 29   pz \
	OrthoOrbital Ag 29   d \
	OrthoOrbital Ag 29   dxy \
	OrthoOrbital Ag 29   dyz \
	OrthoOrbital Ag 29   dz2 \
	OrthoOrbital Ag 29   dxz \
	OrthoOrbital Ag 29   dx2-y2 \
	OrthoOrbital Ag 30   s \
	OrthoOrbital Ag 30   p \
	OrthoOrbital Ag 30   px \
	OrthoOrbital Ag 30   py \
	OrthoOrbital Ag 30   pz \
	OrthoOrbital Ag 30   d \
	OrthoOrbital Ag 30   dxy \
	OrthoOrbital Ag 30   dyz \
	OrthoOrbital Ag 30   dz2 \
	OrthoOrbital Ag 30   dxz \
	OrthoOrbital Ag 30   dx2-y2 \
	OrthoOrbital Ag 31   s \
	OrthoOrbital Ag 31   p \
	OrthoOrbital Ag 31   px \
	OrthoOrbital Ag 31   py \
	OrthoOrbital Ag 31   pz \
	OrthoOrbital Ag 31   d \
	OrthoOrbital Ag 31   dxy \
	OrthoOrbital Ag 31   dyz \
	OrthoOrbital Ag 31   dz2 \
	OrthoOrbital Ag 31   dxz \
	OrthoOrbital Ag 31   dx2-y2 \
	OrthoOrbital Ag 32   s \
	OrthoOrbital Ag 32   p \
	OrthoOrbital Ag 32   px \
	OrthoOrbital Ag 32   py \
	OrthoOrbital Ag 32   pz \
	OrthoOrbital Ag 32   d \
	OrthoOrbital Ag 32   dxy \
	OrthoOrbital Ag 32   dyz \
	OrthoOrbital Ag 32   dz2 \
	OrthoOrbital Ag 32   dxz \
	OrthoOrbital Ag 32   dx2-y2 \
	OrthoOrbital Ag 33   s \
	OrthoOrbital Ag 33   p \
	OrthoOrbital Ag 33   px \
	OrthoOrbital Ag 33   py \
	OrthoOrbital Ag 33   pz \
	OrthoOrbital Ag 33   d \
	OrthoOrbital Ag 33   dxy \
	OrthoOrbital Ag 33   dyz \
	OrthoOrbital Ag 33   dz2 \
	OrthoOrbital Ag 33   dxz \
	OrthoOrbital Ag 33   dx2-y2 \
	OrthoOrbital Ag 34   s \
	OrthoOrbital Ag 34   p \
	OrthoOrbital Ag 34   px \
	OrthoOrbital Ag 34   py \
	OrthoOrbital Ag 34   pz \
	OrthoOrbital Ag 34   d \
	OrthoOrbital Ag 34   dxy \
	OrthoOrbital Ag 34   dyz \
	OrthoOrbital Ag 34   dz2 \
	OrthoOrbital Ag 34   dxz \
	OrthoOrbital Ag 34   dx2-y2 \
	OrthoOrbital Ag 35   s \
	OrthoOrbital Ag 35   p \
	OrthoOrbital Ag 35   px \
	OrthoOrbital Ag 35   py \
	OrthoOrbital Ag 35   pz \
	OrthoOrbital Ag 35   d \
	OrthoOrbital Ag 35   dxy \
	OrthoOrbital Ag 35   dyz \
	OrthoOrbital Ag 35   dz2 \
	OrthoOrbital Ag 35   dxz \
	OrthoOrbital Ag 35   dx2-y2 \
	OrthoOrbital Ag 36   s \
	OrthoOrbital Ag 36   p \
	OrthoOrbital Ag 36   px \
	OrthoOrbital Ag 36   py \
	OrthoOrbital Ag 36   pz \
	OrthoOrbital Ag 36   d \
	OrthoOrbital Ag 36   dxy \
	OrthoOrbital Ag 36   dyz \
	OrthoOrbital Ag 36   dz2 \
	OrthoOrbital Ag 36   dxz \
	OrthoOrbital Ag 36   dx2-y2 \
	OrthoOrbital Ag 37   s \
	OrthoOrbital Ag 37   p \
	OrthoOrbital Ag 37   px \
	OrthoOrbital Ag 37   py \
	OrthoOrbital Ag 37   pz \
	OrthoOrbital Ag 37   d \
	OrthoOrbital Ag 37   dxy \
	OrthoOrbital Ag 37   dyz \
	OrthoOrbital Ag 37   dz2 \
	OrthoOrbital Ag 37   dxz \
	OrthoOrbital Ag 37   dx2-y2 \
	OrthoOrbital Ag 38   s \
	OrthoOrbital Ag 38   p \
	OrthoOrbital Ag 38   px \
	OrthoOrbital Ag 38   py \
	OrthoOrbital Ag 38   pz \
	OrthoOrbital Ag 38   d \
	OrthoOrbital Ag 38   dxy \
	OrthoOrbital Ag 38   dyz \
	OrthoOrbital Ag 38   dz2 \
	OrthoOrbital Ag 38   dxz \
	OrthoOrbital Ag 38   dx2-y2 \
	OrthoOrbital Ag 39   s \
	OrthoOrbital Ag 39   p \
	OrthoOrbital Ag 39   px \
	OrthoOrbital Ag 39   py \
	OrthoOrbital Ag 39   pz \
	OrthoOrbital Ag 39   d \
	OrthoOrbital Ag 39   dxy \
	OrthoOrbital Ag 39   dyz \
	OrthoOrbital Ag 39   dz2 \
	OrthoOrbital Ag 39   dxz \
	OrthoOrbital Ag 39   dx2-y2 \
	OrthoOrbital Ag 40   s \
	OrthoOrbital Ag 40   p \
	OrthoOrbital Ag 40   px \
	OrthoOrbital Ag 40   py \
	OrthoOrbital Ag 40   pz \
	OrthoOrbital Ag 40   d \
	OrthoOrbital Ag 40   dxy \
	OrthoOrbital Ag 40   dyz \
	OrthoOrbital Ag 40   dz2 \
	OrthoOrbital Ag 40   dxz \
	OrthoOrbital Ag 40   dx2-y2 \
	OrthoOrbital Ag 41   s \
	OrthoOrbital Ag 41   p \
	OrthoOrbital Ag 41   px \
	OrthoOrbital Ag 41   py \
	OrthoOrbital Ag 41   pz \
	OrthoOrbital Ag 41   d \
	OrthoOrbital Ag 41   dxy \
	OrthoOrbital Ag 41   dyz \
	OrthoOrbital Ag 41   dz2 \
	OrthoOrbital Ag 41   dxz \
	OrthoOrbital Ag 41   dx2-y2 \
	OrthoOrbital Ag 42   s \
	OrthoOrbital Ag 42   p \
	OrthoOrbital Ag 42   px \
	OrthoOrbital Ag 42   py \
	OrthoOrbital Ag 42   pz \
	OrthoOrbital Ag 42   d \
	OrthoOrbital Ag 42   dxy \
	OrthoOrbital Ag 42   dyz \
	OrthoOrbital Ag 42   dz2 \
	OrthoOrbital Ag 42   dxz \
	OrthoOrbital Ag 42   dx2-y2 \
	OrthoOrbital Ag 43   s \
	OrthoOrbital Ag 43   p \
	OrthoOrbital Ag 43   px \
	OrthoOrbital Ag 43   py \
	OrthoOrbital Ag 43   pz \
	OrthoOrbital Ag 43   d \
	OrthoOrbital Ag 43   dxy \
	OrthoOrbital Ag 43   dyz \
	OrthoOrbital Ag 43   dz2 \
	OrthoOrbital Ag 43   dxz \
	OrthoOrbital Ag 43   dx2-y2 \
	OrthoOrbital Ag 44   s \
	OrthoOrbital Ag 44   p \
	OrthoOrbital Ag 44   px \
	OrthoOrbital Ag 44   py \
	OrthoOrbital Ag 44   pz \
	OrthoOrbital Ag 44   d \
	OrthoOrbital Ag 44   dxy \
	OrthoOrbital Ag 44   dyz \
	OrthoOrbital Ag 44   dz2 \
	OrthoOrbital Ag 44   dxz \
	OrthoOrbital Ag 44   dx2-y2
dump End ElecDensity KEdensity BandEigs EigStats RhoAtom DOS Kpoints
dump Ionic State IonicPositions Lattice EigStats Ecomponents
dump 
dump 
dump 
dump 
dump 
dump 
dump 
dump 
dump-name jdft.$VAR
elec-cutoff 20
elec-eigen-algo Davidson
elec-ex-corr gga-PBE
elec-initial-magnetization 0.000000 no
elec-n-bands 502
elec-smearing Fermi 0.001
electronic-minimize  \
	dirUpdateScheme      FletcherReeves \
	linminMethod         DirUpdateRecommended \
	nIterations          100 \
	history              15 \
	knormThreshold       0 \
	energyDiffThreshold  1e-07 \
	nEnergyDiff          2 \
	alphaTstart          1 \
	alphaTmin            1e-10 \
	updateTestStepSize   yes \
	alphaTreduceFactor   0.1 \
	alphaTincreaseFactor 3 \
	nAlphaAdjustMax      3 \
	wolfeEnergy          0.0001 \
	wolfeGradient        0.9 \
	fdTest               no
exchange-regularization WignerSeitzTruncated
fluid None
fluid-ex-corr lda-TF lda-PZ
fluid-gummel-loop 10 1.000000e-05
fluid-minimize  \
	dirUpdateScheme      PolakRibiere \
	linminMethod         DirUpdateRecommended \
	nIterations          100 \
	history              15 \
	knormThreshold       0 \
	energyDiffThreshold  0 \
	nEnergyDiff          2 \
	alphaTstart          1 \
	alphaTmin            1e-10 \
	updateTestStepSize   yes \
	alphaTreduceFactor   0.1 \
	alphaTincreaseFactor 3 \
	nAlphaAdjustMax      3 \
	wolfeEnergy          0.0001 \
	wolfeGradient        0.9 \
	fdTest               no
fluid-solvent H2O 55.338 ScalarEOS \
	epsBulk 78.4 \
	pMol 0.92466 \
	epsInf 1.77 \
	Pvap 1.06736e-10 \
	sigmaBulk 4.62e-05 \
	Rvdw 2.61727 \
	Res 1.42 \
	tauNuc 343133 \
	poleEl 15 7 1
forces-output-coords Positions
ion Ag -26.829832000000003 -26.829832000000003   0.000015000000000 1
ion Ag -26.829832000000003 -26.829832000000003   7.665676000000000 1
ion Ag -22.997005000000005 -22.997005000000001  -7.665675999999999 1
ion Ag -22.997013000000003 -22.997013000000003   0.000008000000000 1
ion Ag -22.997012999999999 -22.997012999999999   7.665668000000002 1
ion Ag -19.164171000000000 -19.164171000000000   7.665676000000003 1
ion Ag   0.000000000000000   0.000000000000000   0.000000000000000 1
ion Ag -19.164162999999999 -19.164163000000002  -7.665667999999999 1
ion Ag -19.164162999999999 -19.164162999999999  -0.000007999999998 1
ion Ag -15.331344000000001 -15.331344000000001  -7.665676000000001 1
ion Ag -11.498511000000001 -19.164180000000005  -0.000014999999999 1
ion Ag -11.498496000000001 -19.164164000000003   7.665684000000001 1
ion Ag -11.498496000000001 -19.164164000000003  15.331344000000003 1
ion Ag  -7.665677000000001 -15.331345000000002   7.665676000000001 1
ion Ag -11.498510000000000 -11.498510000000000  15.331337000000001 1
ion Ag  -7.665669000000001 -15.331338000000004  -7.665668000000001 1
ion Ag -11.498503000000003 -11.498503000000003  -0.000008000000000 1
ion Ag  -3.832827000000001 -11.498496000000001  -0.000000000000000 1
ion Ag  -3.832827000000001 -11.498496000000001   7.665661000000001 1
ion Ag  -3.832835000000002 -11.498503000000001  15.331344000000003 1
ion Ag  -3.832842000000000  -3.832841999999999  -0.000007999999999 1
ion Ag  -3.832842000000000  -3.832841999999999   7.665653000000000 1
ion Ag -22.997006000000003 -26.829840000000008   3.832842000000002 1
ion Ag -15.331337000000001 -19.164171000000003 -11.498503000000001 1
ion Ag -19.164179000000001 -22.997013000000003  -3.832849999999999 1
ion Ag -19.164164000000003 -22.996998000000005   3.832850000000002 1
ion Ag -19.164164000000003 -22.996998000000005  11.498510000000000 1
ion Ag -15.331345000000002 -19.164179000000004  11.498503000000001 1
ion Ag -19.164179000000004 -22.997013000000003 -11.498510000000001 1
ion Ag -15.331337000000001 -19.164171000000003  -3.832841999999999 1
ion Ag -15.331345000000002 -19.164179000000004   3.832842000000002 1
ion Ag -11.498495000000002 -15.331330000000001  -3.832834000000000 1
ion Ag -11.498495000000002 -15.331330000000001   3.832827000000001 1
ion Ag -11.498503000000001 -15.331337000000003  11.498510000000001 1
ion Ag  -3.832835000000000  -7.665669000000001  -3.832834000000000 1
ion Ag  -7.665661000000002 -11.498495000000000  11.498518000000001 1
ion Ag  -7.665661000000002 -11.498495000000002  19.164179000000001 1
ion Ag  -7.665676000000002 -11.498511000000002  -3.832842000000000 1
ion Ag  -7.665676000000003 -11.498511000000002   3.832819000000001 1
ion Ag  -3.832835000000001  -7.665669000000002   3.832827000000001 1
ion Ag  -3.832842000000000  -7.665676000000001  11.498510000000000 1
ion Ag -26.829847000000004 -30.662682000000004   3.832834000000001 1
ion Ag   0.000007000000000  -3.832827000000000   3.832834000000001 1
ion Ag -22.996998000000005 -26.829832000000003  -3.832841999999997 1
ion-species /projects/musgravc/apps/jdftx-1.6.0/build/pseudopotentials/GBRV_v1.5/$ID_pbe_v1.uspp
ion-species /projects/musgravc/apps/jdftx-1.6.0/build/pseudopotentials/GBRV_v1.5/$ID_pbe_v1.2.uspp
ion-species /projects/musgravc/apps/jdftx-1.6.0/build/pseudopotentials/GBRV_v1.5/$ID_pbe_v1.4.uspp
ion-species /projects/musgravc/apps/jdftx-1.6.0/build/pseudopotentials/GBRV_v1.5/$ID_pbe_v1.5.uspp
ion-width 0
ionic-minimize  \
	dirUpdateScheme      L-BFGS \
	linminMethod         DirUpdateRecommended \
	nIterations          0 \
	history              15 \
	knormThreshold       0.0001 \
	energyDiffThreshold  1e-06 \
	nEnergyDiff          2 \
	alphaTstart          1 \
	alphaTmin            1e-10 \
	updateTestStepSize   yes \
	alphaTreduceFactor   0.1 \
	alphaTincreaseFactor 3 \
	nAlphaAdjustMax      3 \
	wolfeEnergy          0.0001 \
	wolfeGradient        0.9 \
	fdTest               no
kpoint   0.000000000000   0.000000000000   0.000000000000  1.00000000000000
kpoint-folding 8 1 1 
latt-move-scale 0 0 0
latt-scale 1 1 1 
lattice  \
	   3.832833000000000   -7.665668000000000  -22.997005000000001  \
	  -3.832835000000000   -7.665668000000000  -22.997005000000001  \
	   0.000000000000000   22.997005000000001  -15.331337000000000 
lattice-minimize  \
	dirUpdateScheme      L-BFGS \
	linminMethod         DirUpdateRecommended \
	nIterations          0 \
	history              15 \
	knormThreshold       0 \
	energyDiffThreshold  1e-06 \
	nEnergyDiff          2 \
	alphaTstart          1 \
	alphaTmin            1e-10 \
	updateTestStepSize   yes \
	alphaTreduceFactor   0.1 \
	alphaTincreaseFactor 3 \
	nAlphaAdjustMax      3 \
	wolfeEnergy          0.0001 \
	wolfeGradient        0.9 \
	fdTest               no
lcao-params 30 1e-06 0.001
pcm-variant GLSSA13
spintype z-spin
subspace-rotation-factor 1 yes
symmetries none
symmetry-threshold 0.0001
van-der-waals D3


Applied RMS atom displacement 0 bohrs to make symmetries exact.

---------- Initializing the Grid ----------
R = 
[      3.83283     -7.66567      -22.997  ]
[     -3.83284     -7.66567      -22.997  ]
[            0       22.997     -15.3313  ]
unit cell volume = 4954.99
G =
[   0.819653  -0.819653 -1.72353e-17  ]
[ -0.0745139 -0.0745139   0.223542  ]
[  -0.111771  -0.111771 -0.0745139  ]
Minimum fftbox size, Smin = [  24  104  148  ]
Chosen fftbox size, S = [  24  108  150  ]

---------- Exchange Correlation functional ----------
Initalized PBE GGA exchange.
Initalized PBE GGA correlation.

---------- Setting up pseudopotentials ----------
Width of ionic core gaussian charges (only for fluid interactions / plotting) set to 0

Reading pseudopotential file '/projects/musgravc/apps/jdftx-1.6.0/build/pseudopotentials/GBRV_v1.5/ag_pbe_v1.4.uspp':
  Title: Ag.  Created by USPP 7.3.6 on 1-4-15
  Reference state energy: -147.606242.  19 valence electrons in orbitals:
    |400>  occupation: 2  eigenvalue: -3.637437
    |410>  occupation: 6  eigenvalue: -2.297267
    |420>  occupation: 10  eigenvalue: -0.417763
    |500>  occupation: 0.5  eigenvalue: -0.283525
    |510>  occupation: 0  eigenvalue: -0.122889
  lMax: 2  lLocal: 0  QijEcut: 5.5
  6 projectors sampled on a log grid with 717 points:
    l: 0  eig: -0.283528  rCut: 1.5
    l: 0  eig: -3.637440  rCut: 1.5
    l: 1  eig: -0.122892  rCut: 1.5
    l: 1  eig: -2.297267  rCut: 1.5
    l: 2  eig: -0.417762  rCut: 1.7
    l: 2  eig: -1.000000  rCut: 1.7
  Partial core density with radius 1.2
  Transforming core density to a uniform radial grid of dG=0.02 with 1171 points.
  Transforming local potential to a uniform radial grid of dG=0.02 with 1171 points.
  Transforming nonlocal projectors to a uniform radial grid of dG=0.02 with 432 points.
  Transforming density augmentations to a uniform radial grid of dG=0.02 with 1171 points.
  Transforming atomic orbitals to a uniform radial grid of dG=0.02 with 432 points.
  Core radius for overlap checks: 1.70 bohrs.

Initialized 1 species with 44 total atoms.

Folded 1 k-points by 8x1x1 to 8 k-points.

---------- Setting up k-points, bands, fillings ----------
No reducable k-points. 
Computing the number of bands and number of electrons
Calculating initial fillings.
nElectrons: 836.000000   nBands: 502   nStates: 16

----- Setting up reduced wavefunction bases (one per k-point) -----
average nbasis = 21187.125 , ideal nbasis = 21168.093

----- Initializing Supercell corresponding to k-point mesh -----
Lattice vector linear combinations in supercell:
[   8   0   0  ]
[   0   1   0  ]
[   0   0   1  ]
Supercell lattice vectors:
[  30.6627  -7.66567  -22.997  ]
[  -30.6627  -7.66567  -22.997  ]
[  0  22.997  -15.3313  ]

Initializing DFT-D3 calculator:
	Parameters set for gga-PBE functional
	s6:  1.000  s_r6:  1.217
	s8:  0.722  s_r8:  1.000
	Per-atom parameters loaded for:
	Ag:  sqrtQ[a0]:  5.443  Rcov[a0]:  2.173  CN: [ 0.00 0.97 ]

---------- Setting up ewald sum ----------
Optimum gaussian width for ewald sums = 3.619780 bohr.
Real space sum over 595 unit cells with max indices [  8  3  2  ]
Reciprocal space sum over 7875 terms with max indices [  4  12  17  ]

Computing DFT-D3 correction:
# coordination-number Ag 9.216 9.216 9.216 9.216 9.216 9.216 9.216 9.216 9.216 9.216 9.216 9.216 9.216 9.216 9.216 9.216 9.216 9.216 9.216 9.216 9.216 9.216 9.216 9.216 9.216 9.216 9.216 9.216 9.216 9.216 9.216 9.216 9.216 9.216 9.216 9.216 9.216 9.216 9.216 9.216 9.216 9.216 9.216 9.216
# diagonal-C6 Ag 268.61 268.61 268.61 268.61 268.61 268.61 268.61 268.61 268.61 268.61 268.61 268.61 268.61 268.61 268.61 268.61 268.61 268.61 268.61 268.61 268.61 268.61 268.61 268.61 268.61 268.61 268.61 268.61 268.61 268.61 268.61 268.61 268.61 268.61 268.61 268.61 268.61 268.61 268.61 268.61 268.61 268.61 268.61 268.61
EvdW_6 =   -0.369971
EvdW_8 =   -0.459305

---------- Allocating electronic variables ----------
Initializing wave functions:  linear combination of atomic orbitals
Ag pseudo-atom occupations:   s ( 2 1 )  p ( 6 0 )  d ( 10 )
	FillingsUpdate:  mu: +0.635209671  nElectrons: 836.000000  magneticMoment: [ Abs: 0.02636  Tot: -0.00005 ]
LCAOMinimize: Iter:   0  F: -6494.5537620714867444  |grad|_K:  6.076e-04  alpha:  1.000e+00
	FillingsUpdate:  mu: +0.649894510  nElectrons: 836.000000  magneticMoment: [ Abs: 0.01148  Tot: -0.00009 ]
LCAOMinimize: Iter:   1  F: -6495.0453507918746254  |grad|_K:  1.778e-05  alpha:  5.725e-01  linmin:  1.868e-01  cgtest: -1.020e+00  t[s]:     79.28
	FillingsUpdate:  mu: +0.649902355  nElectrons: 836.000000  magneticMoment: [ Abs: 0.01147  Tot: -0.00009 ]
LCAOMinimize: Iter:   2  F: -6495.0453572011683718  |grad|_K:  1.818e-05  alpha:  7.850e-02  linmin:  9.814e-05  cgtest:  8.814e-01  t[s]:    108.90
LCAOMinimize: 	Predicted alpha/alphaT>3.000000, increasing alphaT to 2.355070e-01.
	FillingsUpdate:  mu: +0.650060789  nElectrons: 836.000000  magneticMoment: [ Abs: 0.01161  Tot: -0.00009 ]
LCAOMinimize: Iter:   3  F: -6495.0455654766037696  |grad|_K:  3.750e-05  alpha:  2.398e-01  linmin: -1.227e-04  cgtest: -2.790e-02  t[s]:    147.19
	FillingsUpdate:  mu: +0.649307823  nElectrons: 836.000000  magneticMoment: [ Abs: 0.01182  Tot: -0.00009 ]
LCAOMinimize: Iter:   4  F: -6495.0458269802484210  |grad|_K:  1.673e-06  alpha:  7.135e-02  linmin:  8.771e-03  cgtest: -1.596e-01  t[s]:    176.93
	FillingsUpdate:  mu: +0.649305557  nElectrons: 836.000000  magneticMoment: [ Abs: 0.01182  Tot: -0.00009 ]
LCAOMinimize: Iter:   5  F: -6495.0458277724865184  |grad|_K:  1.494e-06  alpha:  1.123e-01  linmin: -3.978e-05  cgtest:  4.624e-02  t[s]:    206.43
	FillingsUpdate:  mu: +0.649308969  nElectrons: 836.000000  magneticMoment: [ Abs: 0.01181  Tot: -0.00009 ]
LCAOMinimize: Iter:   6  F: -6495.0458292678968064  |grad|_K:  1.590e-06  alpha:  2.548e-01  linmin: -3.378e-05  cgtest: -6.169e-02  t[s]:    235.79
	FillingsUpdate:  mu: +0.649310735  nElectrons: 836.000000  magneticMoment: [ Abs: 0.01180  Tot: -0.00009 ]
LCAOMinimize: Iter:   7  F: -6495.0458296286096811  |grad|_K:  1.173e-06  alpha:  5.431e-02  linmin:  2.865e-05  cgtest: -1.680e-03  t[s]:    265.17
	FillingsUpdate:  mu: +0.649317128  nElectrons: 836.000000  magneticMoment: [ Abs: 0.01179  Tot: -0.00009 ]
LCAOMinimize: Iter:   8  F: -6495.0458302070555874  |grad|_K:  5.398e-07  alpha:  1.601e-01  linmin: -1.413e-05  cgtest:  5.074e-03  t[s]:    294.58
LCAOMinimize: Converged (|Delta F|<1.000000e-06 for 2 iters).


---- Citations for features of the code used in this run ----

   Software package:
      R. Sundararaman, K. Letchworth-Weaver, K.A. Schwarz, D. Gunceler, Y. Ozhabes and T.A. Arias, 'JDFTx: software for joint density-functional theory', SoftwareX 6, 278 (2017)

   gga-PBE exchange-correlation functional:
      J.P. Perdew, K. Burke and M. Ernzerhof, Phys. Rev. Lett. 77, 3865 (1996)

   Pseudopotentials:
      KF Garrity, JW Bennett, KM Rabe and D Vanderbilt, Comput. Mater. Sci. 81, 446 (2014)

   DFT-D3 dispersion correction:
      S. Grimme, J. Antony, S. Ehrlich and H. Krieg, J. Chem. Phys. 132, 154104 (2010)

   Total energy minimization with Auxiliary Hamiltonian:
      C. Freysoldt, S. Boeck, and J. Neugebauer, Phys. Rev. B 79, 241103(R) (2009)

   Linear-tetrahedron sampling for density of states:
      G. Lehmann and M. Taut, Phys. status solidi (b) 54, 469 (1972)

This list may not be complete. Please suggest additional citations or
report any other bugs at https://github.com/shankar1729/jdftx/issues

Initialization completed successfully at t[s]:    304.76


Computing DFT-D3 correction:
# coordination-number Ag 9.216 9.216 9.216 9.216 9.216 9.216 9.216 9.216 9.216 9.216 9.216 9.216 9.216 9.216 9.216 9.216 9.216 9.216 9.216 9.216 9.216 9.216 9.216 9.216 9.216 9.216 9.216 9.216 9.216 9.216 9.216 9.216 9.216 9.216 9.216 9.216 9.216 9.216 9.216 9.216 9.216 9.216 9.216 9.216
# diagonal-C6 Ag 268.61 268.61 268.61 268.61 268.61 268.61 268.61 268.61 268.61 268.61 268.61 268.61 268.61 268.61 268.61 268.61 268.61 268.61 268.61 268.61 268.61 268.61 268.61 268.61 268.61 268.61 268.61 268.61 268.61 268.61 268.61 268.61 268.61 268.61 268.61 268.61 268.61 268.61 268.61 268.61 268.61 268.61 268.61 268.61
EvdW_6 =   -0.369971
EvdW_8 =   -0.459305

-------- Electronic minimization -----------
	FillingsUpdate:  mu: +0.649317128  nElectrons: 836.000000  magneticMoment: [ Abs: 0.01179  Tot: -0.00009 ]
ElecMinimize: Iter:   0  F: -6495.045830207056497  |grad|_K:  5.107e-05  alpha:  1.000e+00
	FillingsUpdate:  mu: +0.654107798  nElectrons: 836.000000  magneticMoment: [ Abs: 0.00851  Tot: -0.00009 ]
	SubspaceRotationAdjust: set factor to 1
ElecMinimize: Iter:   1  F: -6495.228600097760136  |grad|_K:  3.337e-05  alpha:  4.081e-01  linmin:  2.710e-05  t[s]:    394.00
	FillingsUpdate:  mu: +0.648631426  nElectrons: 836.000000  magneticMoment: [ Abs: 0.00587  Tot: -0.00010 ]
	SubspaceRotationAdjust: set factor to 0.964
ElecMinimize: Iter:   2  F: -6495.281419653296325  |grad|_K:  1.400e-05  alpha:  2.753e-01  linmin:  6.499e-07  t[s]:    453.51
	FillingsUpdate:  mu: +0.648435237  nElectrons: 836.000000  magneticMoment: [ Abs: 0.00359  Tot: -0.00008 ]
	SubspaceRotationAdjust: set factor to 0.791
ElecMinimize: Iter:   3  F: -6495.294222875518244  |grad|_K:  9.782e-06  alpha:  3.795e-01  linmin:  9.951e-06  t[s]:    512.42
	FillingsUpdate:  mu: +0.648600148  nElectrons: 836.000000  magneticMoment: [ Abs: 0.00319  Tot: -0.00008 ]
	SubspaceRotationAdjust: set factor to 0.528
ElecMinimize: Iter:   4  F: -6495.295476854402295  |grad|_K:  7.880e-06  alpha:  7.520e-02  linmin: -5.738e-05  t[s]:    571.33
	FillingsUpdate:  mu: +0.648589851  nElectrons: 836.000000  magneticMoment: [ Abs: 0.00251  Tot: -0.00007 ]
	SubspaceRotationAdjust: set factor to 0.371
ElecMinimize: Iter:   5  F: -6495.296832294186970  |grad|_K:  6.801e-06  alpha:  1.255e-01  linmin:  1.604e-05  t[s]:    630.38
	FillingsUpdate:  mu: +0.648144590  nElectrons: 836.000000  magneticMoment: [ Abs: 0.00159  Tot: -0.00006 ]
	SubspaceRotationAdjust: set factor to 0.676
ElecMinimize: Iter:   6  F: -6495.298203683108113  |grad|_K:  3.256e-06  alpha:  1.728e-01  linmin:  1.132e-05  t[s]:    689.44
	FillingsUpdate:  mu: +0.648374462  nElectrons: 836.000000  magneticMoment: [ Abs: 0.00123  Tot: -0.00006 ]
	SubspaceRotationAdjust: set factor to 0.481
ElecMinimize: Iter:   7  F: -6495.298546676736805  |grad|_K:  3.694e-06  alpha:  1.883e-01  linmin:  1.039e-05  t[s]:    749.87
	FillingsUpdate:  mu: +0.648171543  nElectrons: 836.000000  magneticMoment: [ Abs: 0.00092  Tot: -0.00005 ]
	SubspaceRotationAdjust: set factor to 0.315
ElecMinimize: Iter:   8  F: -6495.298795187389260  |grad|_K:  1.883e-06  alpha:  1.058e-01  linmin: -4.479e-06  t[s]:    808.94
	FillingsUpdate:  mu: +0.648155793  nElectrons: 836.000000  magneticMoment: [ Abs: 0.00074  Tot: -0.00005 ]
	SubspaceRotationAdjust: set factor to 0.195
ElecMinimize: Iter:   9  F: -6495.298889751711613  |grad|_K:  9.960e-07  alpha:  1.549e-01  linmin:  9.655e-06  t[s]:    868.14
	FillingsUpdate:  mu: +0.648146160  nElectrons: 836.000000  magneticMoment: [ Abs: 0.00055  Tot: -0.00004 ]
	SubspaceRotationAdjust: set factor to 0.217
ElecMinimize: Iter:  10  F: -6495.298943085073915  |grad|_K:  6.502e-07  alpha:  3.126e-01  linmin:  2.389e-06  t[s]:    927.26
	FillingsUpdate:  mu: +0.648182860  nElectrons: 836.000000  magneticMoment: [ Abs: 0.00042  Tot: -0.00004 ]
	SubspaceRotationAdjust: set factor to 0.238
ElecMinimize: Iter:  11  F: -6495.298966321952321  |grad|_K:  3.887e-07  alpha:  3.193e-01  linmin: -8.102e-08  t[s]:    986.34
	FillingsUpdate:  mu: +0.648186700  nElectrons: 836.000000  magneticMoment: [ Abs: 0.00034  Tot: -0.00004 ]
	SubspaceRotationAdjust: set factor to 0.22
ElecMinimize: Iter:  12  F: -6495.298974895679748  |grad|_K:  2.632e-07  alpha:  3.296e-01  linmin: -2.664e-07  t[s]:   1046.80
	FillingsUpdate:  mu: +0.648178758  nElectrons: 836.000000  magneticMoment: [ Abs: 0.00029  Tot: -0.00003 ]
	SubspaceRotationAdjust: set factor to 0.223
ElecMinimize: Iter:  13  F: -6495.298978668066411  |grad|_K:  1.807e-07  alpha:  3.163e-01  linmin:  2.455e-07  t[s]:   1105.79
	FillingsUpdate:  mu: +0.648182207  nElectrons: 836.000000  magneticMoment: [ Abs: 0.00025  Tot: -0.00003 ]
	SubspaceRotationAdjust: set factor to 0.207
ElecMinimize: Iter:  14  F: -6495.298980400401888  |grad|_K:  1.337e-07  alpha:  3.082e-01  linmin: -2.088e-08  t[s]:   1164.97
	FillingsUpdate:  mu: +0.648189971  nElectrons: 836.000000  magneticMoment: [ Abs: 0.00021  Tot: -0.00003 ]
	SubspaceRotationAdjust: set factor to 0.218
ElecMinimize: Iter:  15  F: -6495.298981380457917  |grad|_K:  9.538e-08  alpha:  3.184e-01  linmin: -2.505e-07  t[s]:   1223.99
	FillingsUpdate:  mu: +0.648190067  nElectrons: 836.000000  magneticMoment: [ Abs: 0.00018  Tot: -0.00002 ]
	SubspaceRotationAdjust: set factor to 0.238
ElecMinimize: Iter:  16  F: -6495.298981926222041  |grad|_K:  7.117e-08  alpha:  3.484e-01  linmin:  2.600e-07  t[s]:   1283.16
	FillingsUpdate:  mu: +0.648188701  nElectrons: 836.000000  magneticMoment: [ Abs: 0.00015  Tot: -0.00002 ]
	SubspaceRotationAdjust: set factor to 0.284
ElecMinimize: Iter:  17  F: -6495.298982291716129  |grad|_K:  5.729e-08  alpha:  4.191e-01  linmin:  1.344e-07  t[s]:   1342.65
	FillingsUpdate:  mu: +0.648191247  nElectrons: 836.000000  magneticMoment: [ Abs: 0.00011  Tot: -0.00002 ]
	SubspaceRotationAdjust: set factor to 0.299
ElecMinimize: Iter:  18  F: -6495.298982502022227  |grad|_K:  4.915e-08  alpha:  3.721e-01  linmin:  2.617e-07  t[s]:   1401.73
	FillingsUpdate:  mu: +0.648192237  nElectrons: 836.000000  magneticMoment: [ Abs: 0.00009  Tot: -0.00001 ]
	SubspaceRotationAdjust: set factor to 0.259
ElecMinimize: Iter:  19  F: -6495.298982626265570  |grad|_K:  4.311e-08  alpha:  2.986e-01  linmin:  3.576e-08  t[s]:   1461.05
	FillingsUpdate:  mu: +0.648192075  nElectrons: 836.000000  magneticMoment: [ Abs: 0.00007  Tot: -0.00001 ]
	SubspaceRotationAdjust: set factor to 0.2
ElecMinimize: Iter:  20  F: -6495.298982697497195  |grad|_K:  3.032e-08  alpha:  2.225e-01  linmin: -2.457e-07  t[s]:   1520.01
	FillingsUpdate:  mu: +0.648192259  nElectrons: 836.000000  magneticMoment: [ Abs: 0.00005  Tot: -0.00001 ]
	SubspaceRotationAdjust: set factor to 0.218
ElecMinimize: Iter:  21  F: -6495.298982747705850  |grad|_K:  1.988e-08  alpha:  3.173e-01  linmin: -1.679e-07  t[s]:   1579.13
ElecMinimize: Converged (|Delta F|<1.000000e-07 for 2 iters).
Setting wave functions to eigenvectors of Hamiltonian
Converging empty states (this may take a while): |deigs|: 7.318e-04

Computing DFT-D3 correction:
# coordination-number Ag 9.216 9.216 9.216 9.216 9.216 9.216 9.216 9.216 9.216 9.216 9.216 9.216 9.216 9.216 9.216 9.216 9.216 9.216 9.216 9.216 9.216 9.216 9.216 9.216 9.216 9.216 9.216 9.216 9.216 9.216 9.216 9.216 9.216 9.216 9.216 9.216 9.216 9.216 9.216 9.216 9.216 9.216 9.216 9.216
# diagonal-C6 Ag 268.61 268.61 268.61 268.61 268.61 268.61 268.61 268.61 268.61 268.61 268.61 268.61 268.61 268.61 268.61 268.61 268.61 268.61 268.61 268.61 268.61 268.61 268.61 268.61 268.61 268.61 268.61 268.61 268.61 268.61 268.61 268.61 268.61 268.61 268.61 268.61 268.61 268.61 268.61 268.61 268.61 268.61 268.61 268.61
EvdW_6 =   -0.369971
EvdW_8 =   -0.459305

# Ionic positions in cartesian coordinates:
ion Ag -26.829832000000003 -26.829832000000003   0.000015000000000 1
ion Ag -26.829832000000003 -26.829832000000003   7.665676000000000 1
ion Ag -22.997005000000005 -22.997005000000001  -7.665675999999999 1
ion Ag -22.997013000000003 -22.997013000000003   0.000008000000000 1
ion Ag -22.997012999999999 -22.997012999999999   7.665668000000002 1
ion Ag -19.164171000000000 -19.164171000000000   7.665676000000003 1
ion Ag   0.000000000000000  -0.000000000000000   0.000000000000000 1
ion Ag -19.164162999999999 -19.164163000000002  -7.665667999999999 1
ion Ag -19.164162999999999 -19.164162999999999  -0.000007999999998 1
ion Ag -15.331344000000001 -15.331344000000001  -7.665676000000001 1
ion Ag -11.498511000000001 -19.164180000000005  -0.000014999999999 1
ion Ag -11.498496000000001 -19.164164000000003   7.665684000000001 1
ion Ag -11.498496000000001 -19.164164000000003  15.331344000000003 1
ion Ag  -7.665677000000001 -15.331345000000002   7.665676000000001 1
ion Ag -11.498510000000000 -11.498510000000000  15.331337000000001 1
ion Ag  -7.665669000000001 -15.331338000000004  -7.665668000000001 1
ion Ag -11.498503000000003 -11.498503000000003  -0.000008000000000 1
ion Ag  -3.832827000000001 -11.498496000000001  -0.000000000000000 1
ion Ag  -3.832827000000001 -11.498496000000001   7.665661000000001 1
ion Ag  -3.832835000000002 -11.498503000000001  15.331344000000003 1
ion Ag  -3.832842000000000  -3.832841999999999  -0.000007999999999 1
ion Ag  -3.832842000000000  -3.832841999999999   7.665653000000000 1
ion Ag -22.997006000000003 -26.829840000000008   3.832842000000002 1
ion Ag -15.331337000000001 -19.164171000000003 -11.498503000000001 1
ion Ag -19.164179000000001 -22.997013000000003  -3.832849999999999 1
ion Ag -19.164164000000003 -22.996998000000005   3.832850000000002 1
ion Ag -19.164164000000003 -22.996998000000005  11.498510000000000 1
ion Ag -15.331345000000002 -19.164179000000004  11.498503000000001 1
ion Ag -19.164179000000004 -22.997013000000003 -11.498510000000001 1
ion Ag -15.331337000000001 -19.164171000000003  -3.832841999999999 1
ion Ag -15.331345000000002 -19.164179000000004   3.832842000000002 1
ion Ag -11.498495000000002 -15.331330000000001  -3.832834000000000 1
ion Ag -11.498495000000002 -15.331330000000001   3.832827000000001 1
ion Ag -11.498503000000001 -15.331337000000003  11.498510000000001 1
ion Ag  -3.832835000000000  -7.665669000000001  -3.832834000000000 1
ion Ag  -7.665661000000002 -11.498495000000000  11.498518000000001 1
ion Ag  -7.665661000000002 -11.498495000000002  19.164179000000001 1
ion Ag  -7.665676000000002 -11.498511000000002  -3.832842000000000 1
ion Ag  -7.665676000000003 -11.498511000000002   3.832819000000001 1
ion Ag  -3.832835000000001  -7.665669000000002   3.832827000000001 1
ion Ag  -3.832842000000000  -7.665676000000001  11.498510000000000 1
ion Ag -26.829847000000004 -30.662682000000004   3.832834000000001 1
ion Ag   0.000007000000000  -3.832827000000000   3.832834000000001 1
ion Ag -22.996998000000005 -26.829832000000003  -3.832841999999997 1

# Forces in Cartesian coordinates:
force Ag   0.000017339662522   0.000017460742510   0.000081876361581 1
force Ag   0.000000805361392   0.000000736762706  -0.000072243954184 1
force Ag   0.000028042760797   0.000028655729402   0.000013360275734 1
force Ag  -0.000066265198586  -0.000066524786587  -0.000008838659194 1
force Ag   0.000035667314429   0.000036165094885  -0.000054061580508 1
force Ag  -0.000030786432481  -0.000031442188039  -0.000011369224607 1
force Ag   0.000000017603459  -0.000000050788893   0.000000291905912 1
force Ag  -0.000053789426774  -0.000054309665489   0.000042557732241 1
force Ag   0.000048797807004   0.000049011375288  -0.000006198882013 1
force Ag  -0.000010042755637  -0.000010007085031   0.000064564193785 1
force Ag  -0.000015903188828  -0.000016075775540  -0.000083732843945 1
force Ag   0.000027868374722   0.000027989117603   0.000096144070941 1
force Ag   0.000014241109831   0.000014187377618  -0.000065616684353 1
force Ag  -0.000051952089812  -0.000052231769984   0.000008188243854 1
force Ag   0.000044644342804   0.000045123369559  -0.000049604834973 1
force Ag   0.000008076788536   0.000008053964486   0.000002633561878 1
force Ag   0.000040700982908   0.000041250377796   0.000018746614942 1
force Ag  -0.000040079122066  -0.000040525825100   0.000049132607364 1
force Ag   0.000058442858179   0.000058700901082   0.000004637332927 1
force Ag  -0.000031888382393  -0.000032556689354  -0.000015839444308 1
force Ag  -0.000005863165217  -0.000005839632346   0.000067905229918 1
force Ag  -0.000017766096389  -0.000017950967519  -0.000082529768624 1
force Ag   0.000019619518508   0.000020061138544   0.000021937568433 1
force Ag  -0.000008837925358  -0.000008863120479  -0.000005095816162 1
force Ag   0.000047622623656   0.000048134472705  -0.000032967780074 1
force Ag  -0.000066214889747  -0.000066727389698   0.000019199490828 1
force Ag   0.000035514113040   0.000035846814852  -0.000064357248453 1
force Ag   0.000006238162358   0.000006154065673  -0.000061670410068 1
force Ag  -0.000040801544985  -0.000041082024328   0.000063079867618 1
force Ag  -0.000033613071835  -0.000033996743665  -0.000035063074529 1
force Ag   0.000039125993290   0.000039403331124   0.000069024439680 1
force Ag   0.000008418375324   0.000008618787454   0.000069522826661 1
force Ag  -0.000028895823446  -0.000029116186939  -0.000056308473916 1
force Ag   0.000033180582114   0.000033561186137   0.000035871120741 1
force Ag   0.000002199218716   0.000002182746807  -0.000002433854345 1
force Ag  -0.000057205336579  -0.000057733541314   0.000027974495416 1
force Ag   0.000035862083974   0.000036190993371  -0.000066722451571 1
force Ag  -0.000027359071284  -0.000027622009253   0.000065465621273 1
force Ag   0.000062564348975   0.000063115120022  -0.000019760186187 1
force Ag  -0.000025488838492  -0.000025848581858  -0.000026359829675 1
force Ag   0.000038105247096   0.000038435990608   0.000066501156990 1
force Ag  -0.000003701118545  -0.000003724562121  -0.000071754887248 1
force Ag   0.000003658842809   0.000003761320345   0.000071803156503 1
force Ag  -0.000040167539122  -0.000040435628182  -0.000067932794549 1

# Energy components:
   Eewald =    -4750.1370505977401990
       EH =     1559.0524448652308820
     Eloc =    -4324.1079527991296345
      Enl =      173.4012186382109348
     EvdW =       -0.8292758911082361
      Exc =     -638.1404015047800158
 Exc_core =        9.1595129715201491
       KE =     1476.3050360454139991
-------------------------------------
     Etot =    -6495.2964682723813894
       TS =        0.0025144753244939
-------------------------------------
        F =    -6495.2989827477058498


Dumping 'jdft.fillings' ... done
Dumping 'jdft.wfns' ... done
Dumping 'jdft.ionpos' ... done
Dumping 'jdft.lattice' ... done
Dumping 'jdft.eigenvals' ... done
Dumping 'jdft.eigStats' ... 
	eMin: -2.725726 at state 8 ( [ +0.000000 +0.000000 +0.000000 ] spin -1 )
	HOMO: +0.647944 at state 4 ( [ +0.500000 +0.000000 +0.000000 ] spin 1 )
	mu  : +0.648192
	LUMO: +0.649296 at state 12 ( [ +0.500000 +0.000000 +0.000000 ] spin -1 )
	eMax: +1.146672 at state 0 ( [ +0.000000 +0.000000 +0.000000 ] spin 1 )
	HOMO-LUMO gap: +0.001353
	Optical gap  : +0.001353 at state 12 ( [ +0.500000 +0.000000 +0.000000 ] spin -1 )
Dumping 'jdft.Ecomponents' ... done
IonicMinimize: Iter:   0  F: -6495.298982747705850  |grad|_K:  4.161e-05  t[s]:   1870.53
IonicMinimize: Converged (|grad|_K<1.000000e-04).

#--- Lowdin population analysis ---
# oxidation-state Ag +0.004 +0.004 +0.004 +0.004 +0.004 +0.004 +0.004 +0.004 +0.004 +0.004 +0.004 +0.004 +0.004 +0.004 +0.004 +0.004 +0.004 +0.004 +0.004 +0.004 +0.004 +0.004 +0.004 +0.004 +0.004 +0.004 +0.004 +0.004 +0.004 +0.004 +0.004 +0.004 +0.004 +0.004 +0.004 +0.004 +0.004 +0.004 +0.004 +0.004 +0.004 +0.004 +0.004 +0.004
# magnetic-moments Ag -0.000 -0.000 -0.000 -0.000 -0.000 -0.000 -0.000 -0.000 -0.000 -0.000 -0.000 -0.000 -0.000 -0.000 +0.000 -0.000 -0.000 -0.000 -0.000 -0.000 -0.000 -0.000 -0.000 -0.000 -0.000 -0.000 -0.000 -0.000 -0.000 -0.000 -0.000 -0.000 -0.000 -0.000 -0.000 -0.000 -0.000 -0.000 -0.000 -0.000 -0.000 -0.000 -0.000 -0.000


Dumping 'jdft.n_up' ... done
Dumping 'jdft.n_dn' ... done
Dumping 'jdft.tau_up' ... done
Dumping 'jdft.tau_dn' ... done
Dumping 'jdft.eigenvals' ... done
Dumping 'jdft.eigStats' ... 
	eMin: -2.725726 at state 8 ( [ +0.000000 +0.000000 +0.000000 ] spin -1 )
	HOMO: +0.647944 at state 4 ( [ +0.500000 +0.000000 +0.000000 ] spin 1 )
	mu  : +0.648192
	LUMO: +0.649296 at state 12 ( [ +0.500000 +0.000000 +0.000000 ] spin -1 )
	eMax: +1.146672 at state 0 ( [ +0.000000 +0.000000 +0.000000 ] spin 1 )
	HOMO-LUMO gap: +0.001353
	Optical gap  : +0.001353 at state 12 ( [ +0.500000 +0.000000 +0.000000 ] spin -1 )
Dumping 'jdft.kPts' ... done
Dumping 'jdft.dosUp' ... done.
Dumping 'jdft.dosDn' ... done.
End date and time: Mon Dec  6 17:41:43 2021  (Duration: 0-0:31:49.02)
Done!
