
*************** JDFTx 1.6.0  ***************

Start date and time: Mon Dec  6 16:08:01 2021
Executable /projects/musgravc/apps/jdftx-1.6.1/build/jdftx with command-line: -i in
Running on hosts (process indices):  shas0251.rc.int.colorado.edu (0-23)
Divided in process groups (process indices):  0 (0)  1 (1)  2 (2)  3 (3)  4 (4)  5 (5)  6 (6)  7 (7)  8 (8)  9 (9)  10 (10)  11 (11)  12 (12)  13 (13)  14 (14)  15 (15)  16 (16)  17 (17)  18 (18)  19 (19)  20 (20)  21 (21)  22 (22)  23 (23)
Resource initialization completed at t[s]:      0.02
Run totals: 24 processes, 24 threads, 0 GPUs


Input parsed successfully to the following command list (including defaults):

basis kpoint-dependent
converge-empty-states yes
coords-type Cartesian
core-overlap-check none
coulomb-interaction Periodic
davidson-band-ratio 1.1
density-of-states Etol 1.000000e-06 Esigma 1.000000e-03 \
		Complete \
	Total \
	OrthoOrbital Cu 1   s \
	OrthoOrbital Cu 1   p \
	OrthoOrbital Cu 1   px \
	OrthoOrbital Cu 1   py \
	OrthoOrbital Cu 1   pz \
	OrthoOrbital Cu 1   d \
	OrthoOrbital Cu 1   dxy \
	OrthoOrbital Cu 1   dyz \
	OrthoOrbital Cu 1   dz2 \
	OrthoOrbital Cu 1   dxz \
	OrthoOrbital Cu 1   dx2-y2 \
	OrthoOrbital Cu 2   s \
	OrthoOrbital Cu 2   p \
	OrthoOrbital Cu 2   px \
	OrthoOrbital Cu 2   py \
	OrthoOrbital Cu 2   pz \
	OrthoOrbital Cu 2   d \
	OrthoOrbital Cu 2   dxy \
	OrthoOrbital Cu 2   dyz \
	OrthoOrbital Cu 2   dz2 \
	OrthoOrbital Cu 2   dxz \
	OrthoOrbital Cu 2   dx2-y2 \
	OrthoOrbital Cu 3   s \
	OrthoOrbital Cu 3   p \
	OrthoOrbital Cu 3   px \
	OrthoOrbital Cu 3   py \
	OrthoOrbital Cu 3   pz \
	OrthoOrbital Cu 3   d \
	OrthoOrbital Cu 3   dxy \
	OrthoOrbital Cu 3   dyz \
	OrthoOrbital Cu 3   dz2 \
	OrthoOrbital Cu 3   dxz \
	OrthoOrbital Cu 3   dx2-y2 \
	OrthoOrbital Cu 4   s \
	OrthoOrbital Cu 4   p \
	OrthoOrbital Cu 4   px \
	OrthoOrbital Cu 4   py \
	OrthoOrbital Cu 4   pz \
	OrthoOrbital Cu 4   d \
	OrthoOrbital Cu 4   dxy \
	OrthoOrbital Cu 4   dyz \
	OrthoOrbital Cu 4   dz2 \
	OrthoOrbital Cu 4   dxz \
	OrthoOrbital Cu 4   dx2-y2 \
	OrthoOrbital Cu 5   s \
	OrthoOrbital Cu 5   p \
	OrthoOrbital Cu 5   px \
	OrthoOrbital Cu 5   py \
	OrthoOrbital Cu 5   pz \
	OrthoOrbital Cu 5   d \
	OrthoOrbital Cu 5   dxy \
	OrthoOrbital Cu 5   dyz \
	OrthoOrbital Cu 5   dz2 \
	OrthoOrbital Cu 5   dxz \
	OrthoOrbital Cu 5   dx2-y2 \
	OrthoOrbital Cu 6   s \
	OrthoOrbital Cu 6   p \
	OrthoOrbital Cu 6   px \
	OrthoOrbital Cu 6   py \
	OrthoOrbital Cu 6   pz \
	OrthoOrbital Cu 6   d \
	OrthoOrbital Cu 6   dxy \
	OrthoOrbital Cu 6   dyz \
	OrthoOrbital Cu 6   dz2 \
	OrthoOrbital Cu 6   dxz \
	OrthoOrbital Cu 6   dx2-y2 \
	OrthoOrbital Cu 7   s \
	OrthoOrbital Cu 7   p \
	OrthoOrbital Cu 7   px \
	OrthoOrbital Cu 7   py \
	OrthoOrbital Cu 7   pz \
	OrthoOrbital Cu 7   d \
	OrthoOrbital Cu 7   dxy \
	OrthoOrbital Cu 7   dyz \
	OrthoOrbital Cu 7   dz2 \
	OrthoOrbital Cu 7   dxz \
	OrthoOrbital Cu 7   dx2-y2 \
	OrthoOrbital Cu 8   s \
	OrthoOrbital Cu 8   p \
	OrthoOrbital Cu 8   px \
	OrthoOrbital Cu 8   py \
	OrthoOrbital Cu 8   pz \
	OrthoOrbital Cu 8   d \
	OrthoOrbital Cu 8   dxy \
	OrthoOrbital Cu 8   dyz \
	OrthoOrbital Cu 8   dz2 \
	OrthoOrbital Cu 8   dxz \
	OrthoOrbital Cu 8   dx2-y2 \
	OrthoOrbital Cu 9   s \
	OrthoOrbital Cu 9   p \
	OrthoOrbital Cu 9   px \
	OrthoOrbital Cu 9   py \
	OrthoOrbital Cu 9   pz \
	OrthoOrbital Cu 9   d \
	OrthoOrbital Cu 9   dxy \
	OrthoOrbital Cu 9   dyz \
	OrthoOrbital Cu 9   dz2 \
	OrthoOrbital Cu 9   dxz \
	OrthoOrbital Cu 9   dx2-y2 \
	OrthoOrbital Cu 10   s \
	OrthoOrbital Cu 10   p \
	OrthoOrbital Cu 10   px \
	OrthoOrbital Cu 10   py \
	OrthoOrbital Cu 10   pz \
	OrthoOrbital Cu 10   d \
	OrthoOrbital Cu 10   dxy \
	OrthoOrbital Cu 10   dyz \
	OrthoOrbital Cu 10   dz2 \
	OrthoOrbital Cu 10   dxz \
	OrthoOrbital Cu 10   dx2-y2 \
	OrthoOrbital Cu 11   s \
	OrthoOrbital Cu 11   p \
	OrthoOrbital Cu 11   px \
	OrthoOrbital Cu 11   py \
	OrthoOrbital Cu 11   pz \
	OrthoOrbital Cu 11   d \
	OrthoOrbital Cu 11   dxy \
	OrthoOrbital Cu 11   dyz \
	OrthoOrbital Cu 11   dz2 \
	OrthoOrbital Cu 11   dxz \
	OrthoOrbital Cu 11   dx2-y2 \
	OrthoOrbital Cu 12   s \
	OrthoOrbital Cu 12   p \
	OrthoOrbital Cu 12   px \
	OrthoOrbital Cu 12   py \
	OrthoOrbital Cu 12   pz \
	OrthoOrbital Cu 12   d \
	OrthoOrbital Cu 12   dxy \
	OrthoOrbital Cu 12   dyz \
	OrthoOrbital Cu 12   dz2 \
	OrthoOrbital Cu 12   dxz \
	OrthoOrbital Cu 12   dx2-y2 \
	OrthoOrbital Cu 13   s \
	OrthoOrbital Cu 13   p \
	OrthoOrbital Cu 13   px \
	OrthoOrbital Cu 13   py \
	OrthoOrbital Cu 13   pz \
	OrthoOrbital Cu 13   d \
	OrthoOrbital Cu 13   dxy \
	OrthoOrbital Cu 13   dyz \
	OrthoOrbital Cu 13   dz2 \
	OrthoOrbital Cu 13   dxz \
	OrthoOrbital Cu 13   dx2-y2 \
	OrthoOrbital Cu 14   s \
	OrthoOrbital Cu 14   p \
	OrthoOrbital Cu 14   px \
	OrthoOrbital Cu 14   py \
	OrthoOrbital Cu 14   pz \
	OrthoOrbital Cu 14   d \
	OrthoOrbital Cu 14   dxy \
	OrthoOrbital Cu 14   dyz \
	OrthoOrbital Cu 14   dz2 \
	OrthoOrbital Cu 14   dxz \
	OrthoOrbital Cu 14   dx2-y2 \
	OrthoOrbital Cu 15   s \
	OrthoOrbital Cu 15   p \
	OrthoOrbital Cu 15   px \
	OrthoOrbital Cu 15   py \
	OrthoOrbital Cu 15   pz \
	OrthoOrbital Cu 15   d \
	OrthoOrbital Cu 15   dxy \
	OrthoOrbital Cu 15   dyz \
	OrthoOrbital Cu 15   dz2 \
	OrthoOrbital Cu 15   dxz \
	OrthoOrbital Cu 15   dx2-y2 \
	OrthoOrbital Cu 16   s \
	OrthoOrbital Cu 16   p \
	OrthoOrbital Cu 16   px \
	OrthoOrbital Cu 16   py \
	OrthoOrbital Cu 16   pz \
	OrthoOrbital Cu 16   d \
	OrthoOrbital Cu 16   dxy \
	OrthoOrbital Cu 16   dyz \
	OrthoOrbital Cu 16   dz2 \
	OrthoOrbital Cu 16   dxz \
	OrthoOrbital Cu 16   dx2-y2 \
	OrthoOrbital Cu 17   s \
	OrthoOrbital Cu 17   p \
	OrthoOrbital Cu 17   px \
	OrthoOrbital Cu 17   py \
	OrthoOrbital Cu 17   pz \
	OrthoOrbital Cu 17   d \
	OrthoOrbital Cu 17   dxy \
	OrthoOrbital Cu 17   dyz \
	OrthoOrbital Cu 17   dz2 \
	OrthoOrbital Cu 17   dxz \
	OrthoOrbital Cu 17   dx2-y2 \
	OrthoOrbital Cu 18   s \
	OrthoOrbital Cu 18   p \
	OrthoOrbital Cu 18   px \
	OrthoOrbital Cu 18   py \
	OrthoOrbital Cu 18   pz \
	OrthoOrbital Cu 18   d \
	OrthoOrbital Cu 18   dxy \
	OrthoOrbital Cu 18   dyz \
	OrthoOrbital Cu 18   dz2 \
	OrthoOrbital Cu 18   dxz \
	OrthoOrbital Cu 18   dx2-y2 \
	OrthoOrbital Cu 19   s \
	OrthoOrbital Cu 19   p \
	OrthoOrbital Cu 19   px \
	OrthoOrbital Cu 19   py \
	OrthoOrbital Cu 19   pz \
	OrthoOrbital Cu 19   d \
	OrthoOrbital Cu 19   dxy \
	OrthoOrbital Cu 19   dyz \
	OrthoOrbital Cu 19   dz2 \
	OrthoOrbital Cu 19   dxz \
	OrthoOrbital Cu 19   dx2-y2 \
	OrthoOrbital Cu 20   s \
	OrthoOrbital Cu 20   p \
	OrthoOrbital Cu 20   px \
	OrthoOrbital Cu 20   py \
	OrthoOrbital Cu 20   pz \
	OrthoOrbital Cu 20   d \
	OrthoOrbital Cu 20   dxy \
	OrthoOrbital Cu 20   dyz \
	OrthoOrbital Cu 20   dz2 \
	OrthoOrbital Cu 20   dxz \
	OrthoOrbital Cu 20   dx2-y2 \
	OrthoOrbital Cu 21   s \
	OrthoOrbital Cu 21   p \
	OrthoOrbital Cu 21   px \
	OrthoOrbital Cu 21   py \
	OrthoOrbital Cu 21   pz \
	OrthoOrbital Cu 21   d \
	OrthoOrbital Cu 21   dxy \
	OrthoOrbital Cu 21   dyz \
	OrthoOrbital Cu 21   dz2 \
	OrthoOrbital Cu 21   dxz \
	OrthoOrbital Cu 21   dx2-y2 \
	OrthoOrbital Cu 22   s \
	OrthoOrbital Cu 22   p \
	OrthoOrbital Cu 22   px \
	OrthoOrbital Cu 22   py \
	OrthoOrbital Cu 22   pz \
	OrthoOrbital Cu 22   d \
	OrthoOrbital Cu 22   dxy \
	OrthoOrbital Cu 22   dyz \
	OrthoOrbital Cu 22   dz2 \
	OrthoOrbital Cu 22   dxz \
	OrthoOrbital Cu 22   dx2-y2 \
	OrthoOrbital Cu 23   s \
	OrthoOrbital Cu 23   p \
	OrthoOrbital Cu 23   px \
	OrthoOrbital Cu 23   py \
	OrthoOrbital Cu 23   pz \
	OrthoOrbital Cu 23   d \
	OrthoOrbital Cu 23   dxy \
	OrthoOrbital Cu 23   dyz \
	OrthoOrbital Cu 23   dz2 \
	OrthoOrbital Cu 23   dxz \
	OrthoOrbital Cu 23   dx2-y2 \
	OrthoOrbital Cu 24   s \
	OrthoOrbital Cu 24   p \
	OrthoOrbital Cu 24   px \
	OrthoOrbital Cu 24   py \
	OrthoOrbital Cu 24   pz \
	OrthoOrbital Cu 24   d \
	OrthoOrbital Cu 24   dxy \
	OrthoOrbital Cu 24   dyz \
	OrthoOrbital Cu 24   dz2 \
	OrthoOrbital Cu 24   dxz \
	OrthoOrbital Cu 24   dx2-y2 \
	OrthoOrbital Cu 25   s \
	OrthoOrbital Cu 25   p \
	OrthoOrbital Cu 25   px \
	OrthoOrbital Cu 25   py \
	OrthoOrbital Cu 25   pz \
	OrthoOrbital Cu 25   d \
	OrthoOrbital Cu 25   dxy \
	OrthoOrbital Cu 25   dyz \
	OrthoOrbital Cu 25   dz2 \
	OrthoOrbital Cu 25   dxz \
	OrthoOrbital Cu 25   dx2-y2 \
	OrthoOrbital Cu 26   s \
	OrthoOrbital Cu 26   p \
	OrthoOrbital Cu 26   px \
	OrthoOrbital Cu 26   py \
	OrthoOrbital Cu 26   pz \
	OrthoOrbital Cu 26   d \
	OrthoOrbital Cu 26   dxy \
	OrthoOrbital Cu 26   dyz \
	OrthoOrbital Cu 26   dz2 \
	OrthoOrbital Cu 26   dxz \
	OrthoOrbital Cu 26   dx2-y2
dump End ElecDensity KEdensity BandEigs EigStats RhoAtom DOS Kpoints
dump Ionic State IonicPositions Lattice EigStats Ecomponents
dump 
dump 
dump 
dump 
dump 
dump 
dump 
dump 
dump-name jdft.$VAR
elec-cutoff 20
elec-eigen-algo Davidson
elec-ex-corr gga-PBE
elec-initial-magnetization 0.000000 no
elec-n-bands 297
elec-smearing Fermi 0.001
electronic-minimize  \
	dirUpdateScheme      FletcherReeves \
	linminMethod         DirUpdateRecommended \
	nIterations          100 \
	history              15 \
	knormThreshold       0 \
	energyDiffThreshold  1e-07 \
	nEnergyDiff          2 \
	alphaTstart          1 \
	alphaTmin            1e-10 \
	updateTestStepSize   yes \
	alphaTreduceFactor   0.1 \
	alphaTincreaseFactor 3 \
	nAlphaAdjustMax      3 \
	wolfeEnergy          0.0001 \
	wolfeGradient        0.9 \
	fdTest               no
exchange-regularization WignerSeitzTruncated
fluid LinearPCM 298.000000 1.013250
fluid-anion F- 0.5 MeanFieldLJ \
	epsBulk 1 \
	pMol 0 \
	epsInf 1 \
	Pvap 0 \
	sigmaBulk 0 \
	Rvdw 2.24877 \
	Res 0 \
	tauNuc 343133
fluid-cation Na+ 0.5 MeanFieldLJ \
	epsBulk 1 \
	pMol 0 \
	epsInf 1 \
	Pvap 0 \
	sigmaBulk 0 \
	Rvdw 2.19208 \
	Res 0 \
	tauNuc 343133
fluid-ex-corr lda-TF lda-PZ
fluid-gummel-loop 10 1.000000e-05
fluid-minimize  \
	dirUpdateScheme      PolakRibiere \
	linminMethod         DirUpdateRecommended \
	nIterations          400 \
	history              15 \
	knormThreshold       1e-11 \
	energyDiffThreshold  0 \
	nEnergyDiff          2 \
	alphaTstart          1 \
	alphaTmin            1e-10 \
	updateTestStepSize   yes \
	alphaTreduceFactor   0.1 \
	alphaTincreaseFactor 3 \
	nAlphaAdjustMax      6 \
	wolfeEnergy          0.0001 \
	wolfeGradient        0.9 \
	fdTest               no
fluid-solvent H2O 55.338 ScalarEOS \
	epsBulk 78.4 \
	pMol 0.92466 \
	epsInf 1.77 \
	Pvap 1.06736e-10 \
	sigmaBulk 4.62e-05 \
	Rvdw 2.61727 \
	Res 1.42 \
	tauNuc 343133 \
	poleEl 15 7 1
forces-output-coords Positions
ion Cu  -0.000003000000000   9.348120000000000  21.968073000000000 1
ion Cu   0.000000000000000   3.739243000000000  18.228829000000001 1
ion Cu   3.370512000000001   6.543688000000000  20.098451000000001 1
ion Cu   3.370515000000000   0.934811000000000  16.359207999999999 1
ion Cu  -0.000003000000000   7.478499000000001  12.619964000000000 1
ion Cu   0.000000000000000   1.869622000000000   8.880720999999999 1
ion Cu   3.370512000000000  10.282931000000001  14.489585999999999 1
ion Cu   3.370515000000000   4.674054000000000  10.750343000000001 1
ion Cu  -0.000003000000000  11.217741999999999   7.011099000000000 1
ion Cu   0.000000000000000   5.608865000000001   3.271856000000000 1
ion Cu   0.000000000000000   0.000000000000000  23.837693999999999 1
ion Cu   3.370512000000000   8.413310000000001   5.141478000000000 1
ion Cu   3.370515000000000   2.804432000000000   1.402234000000000 1
ion Cu   3.370508000000000  11.217741999999999  19.163676999999996 1
ion Cu   3.370512000000000   5.608865000000001  15.424359999999998 1
ion Cu   0.000000000000000   8.413310000000001  17.293982000000000 1
ion Cu   0.000003000000000   2.804432000000000  13.554738999999998 1
ion Cu   3.370508000000000   9.348120000000000   9.815495000000000 1
ion Cu   3.370512000000001   3.739243000000000   6.076251999999999 1
ion Cu   3.370512000000000   0.000000000000000  11.685116999999998 1
ion Cu   0.000000000000000   6.543688000000000   7.945874000000000 1
ion Cu   0.000003000000000   0.934811000000000   4.206630000000000 1
ion Cu   3.370508000000000   7.478499000000001   0.467387000000000 1
ion Cu   3.370512000000001   1.869622000000000  21.033297999999995 1
ion Cu   0.000000000000000  10.282931000000001   2.337009000000000 1
ion Cu   0.000003000000000   4.674054000000000  22.902920000000002 1
ion-species /projects/musgravc/apps/jdftx-1.6.0/build/pseudopotentials/GBRV_v1.5/$ID_pbe_v1.uspp
ion-species /projects/musgravc/apps/jdftx-1.6.0/build/pseudopotentials/GBRV_v1.5/$ID_pbe_v1.2.uspp
ion-species /projects/musgravc/apps/jdftx-1.6.0/build/pseudopotentials/GBRV_v1.5/$ID_pbe_v1.4.uspp
ion-species /projects/musgravc/apps/jdftx-1.6.0/build/pseudopotentials/GBRV_v1.5/$ID_pbe_v1.5.uspp
ion-width Ecut
ionic-minimize  \
	dirUpdateScheme      L-BFGS \
	linminMethod         DirUpdateRecommended \
	nIterations          100 \
	history              15 \
	knormThreshold       0.0001 \
	energyDiffThreshold  1e-06 \
	nEnergyDiff          2 \
	alphaTstart          1 \
	alphaTmin            1e-10 \
	updateTestStepSize   yes \
	alphaTreduceFactor   0.1 \
	alphaTincreaseFactor 3 \
	nAlphaAdjustMax      3 \
	wolfeEnergy          0.0001 \
	wolfeGradient        0.9 \
	fdTest               no
kpoint   0.000000000000   0.000000000000   0.000000000000  1.00000000000000
kpoint-folding 9 4 1 
latt-move-scale 0 0 0
latt-scale 1 1 1 
lattice  \
	   6.741023000000000   -3.370512000000000    0.000000000000000  \
	   0.000000000000000   12.152552999999999    0.000000000000000  \
	   0.000000000000000    0.000000000000000   72.915317000000002 
lattice-minimize  \
	dirUpdateScheme      L-BFGS \
	linminMethod         DirUpdateRecommended \
	nIterations          0 \
	history              15 \
	knormThreshold       0 \
	energyDiffThreshold  1e-06 \
	nEnergyDiff          2 \
	alphaTstart          1 \
	alphaTmin            1e-10 \
	updateTestStepSize   yes \
	alphaTreduceFactor   0.1 \
	alphaTincreaseFactor 3 \
	nAlphaAdjustMax      3 \
	wolfeEnergy          0.0001 \
	wolfeGradient        0.9 \
	fdTest               no
lcao-params 30 1e-06 0.001
pcm-variant CANDLE
spintype z-spin
subspace-rotation-factor 1 yes
symmetries none
symmetry-threshold 0.0001
target-mu -0.1713 no

van-der-waals D3


Applied RMS atom displacement 0 bohrs to make symmetries exact.

---------- Initializing the Grid ----------
R = 
[      6.74102     -3.37051            0  ]
[            0      12.1526            0  ]
[            0            0      72.9153  ]
unit cell volume = 5973.27
G =
[   0.932082   0.258513         -0  ]
[          0   0.517026          0  ]
[          0         -0   0.086171  ]
Minimum fftbox size, Smin = [  28  52  296  ]
Chosen fftbox size, S = [  28  54  300  ]

---------- Exchange Correlation functional ----------
Initalized PBE GGA exchange.
Initalized PBE GGA correlation.

---------- Setting up pseudopotentials ----------
Width of ionic core gaussian charges (only for fluid interactions / plotting) set to 0.397384

Reading pseudopotential file '/projects/musgravc/apps/jdftx-1.6.0/build/pseudopotentials/GBRV_v1.5/cu_pbe_v1.2.uspp':
  Title: Cu.  Created by USPP 7.3.6 on 3-2-2014
  Reference state energy: -201.059491.  19 valence electrons in orbitals:
    |300>  occupation: 2  eigenvalue: -5.020764
    |310>  occupation: 6  eigenvalue: -3.445588
    |320>  occupation: 8  eigenvalue: -0.925168
    |400>  occupation: 2  eigenvalue: -0.567638
    |410>  occupation: 0  eigenvalue: -0.326154
  lMax: 2  lLocal: 3  QijEcut: 6
  6 projectors sampled on a log grid with 613 points:
    l: 0  eig: -5.020767  rCut: 1.4
    l: 0  eig: -0.567640  rCut: 1.4
    l: 1  eig: -3.445589  rCut: 1.55
    l: 1  eig: -0.326157  rCut: 1.55
    l: 2  eig: -0.925170  rCut: 1.5
    l: 2  eig: 1.500000  rCut: 1.5
  Partial core density with radius 0.8
  Transforming core density to a uniform radial grid of dG=0.02 with 1277 points.
  Transforming local potential to a uniform radial grid of dG=0.02 with 1277 points.
  Transforming nonlocal projectors to a uniform radial grid of dG=0.02 with 432 points.
  Transforming density augmentations to a uniform radial grid of dG=0.02 with 1277 points.
  Transforming atomic orbitals to a uniform radial grid of dG=0.02 with 432 points.
  Core radius for overlap checks: 1.55 bohrs.

Initialized 1 species with 26 total atoms.

Folded 1 k-points by 9x4x1 to 36 k-points.

---------- Setting up k-points, bands, fillings ----------
No reducable k-points. 
Computing the number of bands and number of electrons
Calculating initial fillings.
nElectrons: 494.000000   nBands: 297   nStates: 72

----- Setting up reduced wavefunction bases (one per k-point) -----
average nbasis = 25520.806 , ideal nbasis = 25518.262

----- Initializing Supercell corresponding to k-point mesh -----
Lattice vector linear combinations in supercell:
[   9   0   0  ]
[   0   4   0  ]
[   0   0   1  ]
Supercell lattice vectors:
[  60.6692  -13.482  0  ]
[  0  48.6102  0  ]
[  0  0  72.9153  ]

Initializing DFT-D3 calculator:
	Parameters set for gga-PBE functional
	s6:  1.000  s_r6:  1.217
	s8:  0.722  s_r8:  1.000
	Per-atom parameters loaded for:
	Cu:  sqrtQ[a0]:  5.226  Rcov[a0]:  1.909  CN: [ 0.00 0.96 ]

Initializing DFT-D2 calculator for fluid / solvation:
	Cu:  C6:  187.33 Eh-a0^6  R0: 2.952 a0

---------- Setting up ewald sum ----------
Optimum gaussian width for ewald sums = 4.205509 bohr.
Real space sum over 935 unit cells with max indices [  8  5  2  ]
Reciprocal space sum over 6669 terms with max indices [  4  6  28  ]

Computing DFT-D3 correction:
# coordination-number Cu 6.854 9.148 8.375 9.157 9.160 9.158 9.159 9.160 9.153 8.350 4.602 9.127 5.358 9.127 9.158 9.153 9.160 9.159 9.148 9.160 9.157 8.375 4.602 8.350 6.854 5.358
# diagonal-C6 Cu 175.00 175.00 175.00 175.00 175.00 175.00 175.00 175.00 175.00 175.00 175.00 175.00 175.00 175.00 175.00 175.00 175.00 175.00 175.00 175.00 175.00 175.00 175.00 175.00 175.00 175.00
EvdW_6 =   -0.161310
EvdW_8 =   -0.239379

---------- Allocating electronic variables ----------
Initializing wave functions:  linear combination of atomic orbitals
Cu pseudo-atom occupations:   s ( 2 1 )  p ( 6 0 )  d ( 10 )
	FillingsUpdate:  mu: -0.171300000  nElectrons: 494.000000  magneticMoment: [ Abs: 0.21743  Tot: +0.00183 ]
LCAOMinimize: Iter:   0  G: -5039.6741435554622512  |grad|_K:  3.278e-02  alpha:  1.000e+00
LCAOMinimize: 	Step increased G by 1.662294e+03, reducing alpha to 4.033373e-02.
LCAOMinimize: 	Step increased G by 2.337448e+02, reducing alpha to 4.033373e-03.
	FillingsUpdate:  mu: -0.171300000  nElectrons: 494.000000  magneticMoment: [ Abs: 0.21840  Tot: -0.00092 ]
LCAOMinimize: Iter:   1  G: -5063.5105795671242959  |grad|_K:  1.263e-02  alpha:  4.033e-03  linmin: -1.951e-01  cgtest:  8.469e-01  t[s]:    267.74
LCAOMinimize: Encountered beta<0, resetting CG.
	FillingsUpdate:  mu: -0.171300000  nElectrons: 494.000000  magneticMoment: [ Abs: 0.22619  Tot: -0.00307 ]
LCAOMinimize: Iter:   2  G: -5071.8895834365839619  |grad|_K:  1.119e-02  alpha:  1.194e-02  linmin: -1.869e-02  cgtest:  6.074e-02  t[s]:    333.59
LCAOMinimize: 	Predicted alpha/alphaT>3.000000, increasing alphaT to 3.581375e-02.
	FillingsUpdate:  mu: -0.171300000  nElectrons: 494.000000  magneticMoment: [ Abs: 0.01815  Tot: -0.00088 ]
LCAOMinimize: Iter:   3  G: -5098.4680965836187170  |grad|_K:  1.775e-02  alpha:  5.496e-02  linmin:  7.230e-03  cgtest:  4.315e-02  t[s]:    415.84
	FillingsUpdate:  mu: -0.171300000  nElectrons: 494.000000  magneticMoment: [ Abs: 0.00128  Tot: -0.00005 ]
LCAOMinimize: Iter:   4  G: -5153.0174191318401427  |grad|_K:  4.337e-03  alpha:  4.745e-02  linmin:  1.017e-02  cgtest: -4.039e-04  t[s]:    481.67
	FillingsUpdate:  mu: -0.171300000  nElectrons: 494.000000  magneticMoment: [ Abs: 0.00121  Tot: -0.00002 ]
LCAOMinimize: Iter:   5  G: -5154.4315824756740767  |grad|_K:  1.919e-03  alpha:  2.128e-02  linmin:  1.920e-02  cgtest:  6.848e-02  t[s]:    547.97
LCAOMinimize: 	Predicted alpha/alphaT>3.000000, increasing alphaT to 6.384332e-02.
LCAOMinimize: 	Predicted alpha/alphaT>3.000000, increasing alphaT to 1.915300e-01.
	FillingsUpdate:  mu: -0.171300000  nElectrons: 494.000000  magneticMoment: [ Abs: 0.00141  Tot: -0.00002 ]
LCAOMinimize: Iter:   6  G: -5156.6755812831297590  |grad|_K:  1.311e-03  alpha:  9.820e-02  linmin: -1.100e-01  cgtest:  2.316e-01  t[s]:    647.38
	FillingsUpdate:  mu: -0.171300000  nElectrons: 494.000000  magneticMoment: [ Abs: 0.00197  Tot: +0.00001 ]
LCAOMinimize: Iter:   7  G: -5157.5260810520203449  |grad|_K:  3.766e-03  alpha:  1.197e-01  linmin:  2.929e-02  cgtest: -1.515e-01  t[s]:    713.09
LCAOMinimize: 	Bad step direction: g.d > 0.
LCAOMinimize: 	Undoing step.
LCAOMinimize: 	Step failed: resetting search direction.
	FillingsUpdate:  mu: -0.171300000  nElectrons: 494.000000  magneticMoment: [ Abs: 0.00197  Tot: +0.00001 ]
LCAOMinimize: Iter:   8  G: -5157.5260810520203449  |grad|_K:  3.766e-03  alpha:  0.000e+00
	FillingsUpdate:  mu: -0.171300000  nElectrons: 494.000000  magneticMoment: [ Abs: 0.00197  Tot: +0.00003 ]
LCAOMinimize: Iter:   9  G: -5158.0201966134054601  |grad|_K:  2.109e-03  alpha:  5.501e-03  linmin: -1.128e-01  cgtest:  9.593e-01  t[s]:    827.32
LCAOMinimize: Encountered beta<0, resetting CG.
	FillingsUpdate:  mu: -0.171300000  nElectrons: 494.000000  magneticMoment: [ Abs: 0.00198  Tot: +0.00003 ]
LCAOMinimize: Iter:  10  G: -5158.3257862789923820  |grad|_K:  1.488e-03  alpha:  1.644e-02  linmin: -3.489e-03  cgtest: -2.745e-02  t[s]:    893.00
LCAOMinimize: 	Predicted alpha/alphaT>3.000000, increasing alphaT to 4.933136e-02.
	FillingsUpdate:  mu: -0.171300000  nElectrons: 494.000000  magneticMoment: [ Abs: 0.00213  Tot: +0.00000 ]
LCAOMinimize: Iter:  11  G: -5158.7874705554831962  |grad|_K:  1.504e-03  alpha:  5.166e-02  linmin:  4.680e-02  cgtest:  8.995e-03  t[s]:    975.78
	FillingsUpdate:  mu: -0.171300000  nElectrons: 494.000000  magneticMoment: [ Abs: 0.00215  Tot: -0.00000 ]
LCAOMinimize: Iter:  12  G: -5158.8141861004323800  |grad|_K:  1.524e-03  alpha:  3.922e-03  linmin: -2.325e-02  cgtest:  9.815e-01  t[s]:   1041.75
LCAOMinimize: 	Predicted alpha/alphaT>3.000000, increasing alphaT to 1.176507e-02.
	FillingsUpdate:  mu: -0.171300000  nElectrons: 494.000000  magneticMoment: [ Abs: 0.00218  Tot: -0.00002 ]
LCAOMinimize: Iter:  13  G: -5159.0986527509940061  |grad|_K:  7.755e-04  alpha:  3.007e-02  linmin:  1.501e-02  cgtest: -1.400e-01  t[s]:   1124.12
	FillingsUpdate:  mu: -0.171300000  nElectrons: 494.000000  magneticMoment: [ Abs: 0.00232  Tot: -0.00001 ]
LCAOMinimize: Iter:  14  G: -5159.2189572060879073  |grad|_K:  1.484e-03  alpha:  5.446e-02  linmin:  6.763e-03  cgtest: -2.800e-03  t[s]:   1190.51
	FillingsUpdate:  mu: -0.171300000  nElectrons: 494.000000  magneticMoment: [ Abs: 0.00242  Tot: -0.00003 ]
LCAOMinimize: Iter:  15  G: -5159.3198245516214229  |grad|_K:  1.346e-03  alpha:  6.926e-03  linmin: -4.034e-02  cgtest:  9.645e-01  t[s]:   1255.91
LCAOMinimize: Encountered beta<0, resetting CG.
	FillingsUpdate:  mu: -0.171300000  nElectrons: 494.000000  magneticMoment: [ Abs: 0.00244  Tot: -0.00004 ]
LCAOMinimize: Iter:  16  G: -5159.3980694633937674  |grad|_K:  4.946e-04  alpha:  1.060e-02  linmin:  1.497e-02  cgtest: -1.255e-01  t[s]:   1321.80
LCAOMinimize: 	Predicted alpha/alphaT>3.000000, increasing alphaT to 3.179826e-02.
	FillingsUpdate:  mu: -0.171300000  nElectrons: 494.000000  magneticMoment: [ Abs: 0.00252  Tot: -0.00007 ]
LCAOMinimize: Iter:  17  G: -5159.4340222803321012  |grad|_K:  5.133e-04  alpha:  3.813e-02  linmin:  1.135e-02  cgtest:  1.425e-01  t[s]:   1404.15
	FillingsUpdate:  mu: -0.171300000  nElectrons: 494.000000  magneticMoment: [ Abs: 0.00262  Tot: -0.00008 ]
LCAOMinimize: Iter:  18  G: -5159.4714251591158245  |grad|_K:  8.096e-04  alpha:  3.672e-02  linmin:  2.457e-03  cgtest:  1.129e-01  t[s]:   1471.06
	FillingsUpdate:  mu: -0.171300000  nElectrons: 494.000000  magneticMoment: [ Abs: 0.00277  Tot: -0.00008 ]
LCAOMinimize: Iter:  19  G: -5159.5178406233553687  |grad|_K:  2.349e-04  alpha:  1.616e-02  linmin: -1.855e-02  cgtest:  3.169e-01  t[s]:   1536.77
LCAOMinimize: Encountered beta<0, resetting CG.
	FillingsUpdate:  mu: -0.171300000  nElectrons: 494.000000  magneticMoment: [ Abs: 0.00279  Tot: -0.00010 ]
LCAOMinimize: Iter:  20  G: -5159.5236375942831728  |grad|_K:  2.613e-04  alpha:  2.552e-02  linmin:  1.150e-03  cgtest: -3.303e-03  t[s]:   1602.35
	FillingsUpdate:  mu: -0.171300000  nElectrons: 494.000000  magneticMoment: [ Abs: 0.00281  Tot: -0.00010 ]
LCAOMinimize: Iter:  21  G: -5159.5281581601566359  |grad|_K:  1.423e-04  alpha:  1.616e-02  linmin: -2.232e-04  cgtest:  3.529e-02  t[s]:   1668.02
	FillingsUpdate:  mu: -0.171300000  nElectrons: 494.000000  magneticMoment: [ Abs: 0.00283  Tot: -0.00011 ]
LCAOMinimize: Iter:  22  G: -5159.5305624079173867  |grad|_K:  8.821e-05  alpha:  2.859e-02  linmin: -1.362e-03  cgtest: -2.681e-02  t[s]:   1733.66
LCAOMinimize: 	Predicted alpha/alphaT>3.000000, increasing alphaT to 8.575575e-02.
	FillingsUpdate:  mu: -0.171300000  nElectrons: 494.000000  magneticMoment: [ Abs: 0.00298  Tot: -0.00017 ]
LCAOMinimize: Iter:  23  G: -5159.5354692544606223  |grad|_K:  9.687e-05  alpha:  1.560e-01  linmin:  6.408e-03  cgtest: -2.626e-02  t[s]:   1817.51
	FillingsUpdate:  mu: -0.171300000  nElectrons: 494.000000  magneticMoment: [ Abs: 0.00304  Tot: -0.00016 ]
LCAOMinimize: Iter:  24  G: -5159.5367473569504000  |grad|_K:  1.125e-04  alpha:  3.258e-02  linmin: -3.310e-03  cgtest:  1.466e-01  t[s]:   1883.23
	FillingsUpdate:  mu: -0.171300000  nElectrons: 494.000000  magneticMoment: [ Abs: 0.00307  Tot: -0.00016 ]
LCAOMinimize: Iter:  25  G: -5159.5374713459268605  |grad|_K:  5.016e-05  alpha:  1.297e-02  linmin: -5.787e-04  cgtest: -2.611e-01  t[s]:   1949.05
	FillingsUpdate:  mu: -0.171300000  nElectrons: 494.000000  magneticMoment: [ Abs: 0.00310  Tot: -0.00015 ]
LCAOMinimize: Iter:  26  G: -5159.5378566209301425  |grad|_K:  4.264e-05  alpha:  3.681e-02  linmin:  1.756e-04  cgtest:  8.689e-02  t[s]:   2014.92
	FillingsUpdate:  mu: -0.171300000  nElectrons: 494.000000  magneticMoment: [ Abs: 0.00313  Tot: -0.00016 ]
LCAOMinimize: Iter:  27  G: -5159.5380770273004600  |grad|_K:  5.413e-05  alpha:  2.932e-02  linmin:  3.960e-04  cgtest: -2.252e-03  t[s]:   2080.78
	FillingsUpdate:  mu: -0.171300000  nElectrons: 494.000000  magneticMoment: [ Abs: 0.00315  Tot: -0.00016 ]
LCAOMinimize: Iter:  28  G: -5159.5383176511686543  |grad|_K:  3.565e-05  alpha:  1.994e-02  linmin:  9.296e-04  cgtest:  4.120e-03  t[s]:   2146.47
	FillingsUpdate:  mu: -0.171300000  nElectrons: 494.000000  magneticMoment: [ Abs: 0.00320  Tot: -0.00017 ]
LCAOMinimize: Iter:  29  G: -5159.5385703101301260  |grad|_K:  4.019e-05  alpha:  5.061e-02  linmin:  2.375e-03  cgtest: -4.088e-02  t[s]:   2212.19
	FillingsUpdate:  mu: -0.171300000  nElectrons: 494.000000  magneticMoment: [ Abs: 0.00321  Tot: -0.00016 ]
LCAOMinimize: Iter:  30  G: -5159.5386422381870943  |grad|_K:  1.956e-05  alpha:  1.134e-02  linmin:  1.239e-03  cgtest:  1.295e-01  t[s]:   2277.75
LCAOMinimize: None of the convergence criteria satisfied after 30 iterations.
----- createFluidSolver() ----- (Fluid-side solver setup)
   Initializing fluid molecule 'H2O'
     Initializing site 'O'
       Electron density: proportional to exp(-r/0.36935)*erfc((r-0.51523)/0.36823) with norm 6.826
       Charge density: gaussian nuclear width 0.478731 with net site charge 0.826
       Polarizability: cuspless exponential with width 0.32 and norm 3.73
       Hard sphere radius: 2.57003 bohrs
       Positions in reference frame:
         [ +0.000000 +0.000000 +0.000000 ]
     Initializing site 'H'
       Electron density: proportional to exp(-r/0.34641)*erfc((r-0)/0.390882) with norm 0.587
       Charge density: gaussian nuclear width 0.377945 with net site charge -0.413
       Polarizability: cuspless exponential with width 0.39 and norm 3.3
       Positions in reference frame:
         [ +0.000000 -1.441945 +1.122523 ]
         [ +0.000000 +1.441945 +1.122523 ]
     Net charge: 0   dipole magnitude: 0.927204
     Initializing spherical shell mfKernel with radius 2.61727 Bohr
     deltaS corrections:
       site 'O': -7.54299
       site 'H': -6.83917
   Initializing fluid molecule 'Na+'
     Initializing site 'Na'
       Electron density: proportional to exp(-r/0.19682)*erfc((r-0.71491)/0.41314) with norm 8.1383
       Charge density: gaussian nuclear width 0.365347 with net site charge -1
       Hard sphere radius: 1.86327 bohrs
       Positions in reference frame:
         [ +0.000000 +0.000000 +0.000000 ]
     Net charge: -1   dipole magnitude: 0
     Initializing gaussian mfKernel with width: 1.55004 Bohr
     deltaS corrections:
       site 'Na': -22.3555
   Initializing fluid molecule 'F-'
     Initializing site 'F'
       Electron density: proportional to exp(-r/0.38886)*erfc((r-0)/0.438782) with norm 8
       Charge density: gaussian nuclear width 0.374796 with net site charge 1
       Hard sphere radius: 2.39995 bohrs
       Positions in reference frame:
         [ +0.000000 +0.000000 +0.000000 ]
     Net charge: 1   dipole magnitude: 0
     Initializing gaussian mfKernel with width: 1.59012 Bohr
     deltaS corrections:
       site 'F': -9.04335

Correction to mu due to finite nuclear width = -0.0820568
   Cavity determined by nc: 0.00142 and sigma: 0.707107
   Nonlocal vdW cavity from gaussian model electron density with norm = 8 and sigma = 0.993594 bohr
   Charge asymmetry in cavity with sensitivity pCavity = 36.5 e-bohr/Eh
   Electrostatic cavity expanded by eta = 1.46 bohrs
   Weighted density cavitation model constrained by Nbulk: 0.0049383 bohr^-3, Pvap: 3.14029 kPa, Rvdw: 2.61727 bohr and sigmaBulk: 4.62e-05 Eh/bohr^2 at T: 298 K.
   Weighted density dispersion model using vdW pair potentials with single solvent site with sqrtC6eff: 0.77 SI.


---- Citations for features of the code used in this run ----

   Software package:
      R. Sundararaman, K. Letchworth-Weaver, K.A. Schwarz, D. Gunceler, Y. Ozhabes and T.A. Arias, 'JDFTx: software for joint density-functional theory', SoftwareX 6, 278 (2017)

   gga-PBE exchange-correlation functional:
      J.P. Perdew, K. Burke and M. Ernzerhof, Phys. Rev. Lett. 77, 3865 (1996)

   Pseudopotentials:
      KF Garrity, JW Bennett, KM Rabe and D Vanderbilt, Comput. Mater. Sci. 81, 446 (2014)

   DFT-D3 dispersion correction:
      S. Grimme, J. Antony, S. Ehrlich and H. Krieg, J. Chem. Phys. 132, 154104 (2010)

   DFT-D2 dispersion correction:
      S. Grimme, J. Comput. Chem. 27, 1787 (2006)

   Charge-asymmetric nonlocally-determined local-electric (CANDLE) solvation model:
      R. Sundararaman and W.A. Goddard III, J. Chem. Phys. 142, 064107 (2015)

   Total energy minimization with Auxiliary Hamiltonian:
      C. Freysoldt, S. Boeck, and J. Neugebauer, Phys. Rev. B 79, 241103(R) (2009)

   Grand-canonical (fixed-potential) DFT:
      R. Sundararaman, W. A. Goddard III and T. A. Arias, J. Chem. Phys. 146, 114104 (2017)

   Linear-tetrahedron sampling for density of states:
      G. Lehmann and M. Taut, Phys. status solidi (b) 54, 469 (1972)

This list may not be complete. Please suggest additional citations or
report any other bugs at https://github.com/shankar1729/jdftx/issues

Initialization completed successfully at t[s]:   2295.89


Computing DFT-D3 correction:
# coordination-number Cu 6.854 9.148 8.375 9.157 9.160 9.158 9.159 9.160 9.153 8.350 4.602 9.127 5.358 9.127 9.158 9.153 9.160 9.159 9.148 9.160 9.157 8.375 4.602 8.350 6.854 5.358
# diagonal-C6 Cu 175.00 175.00 175.00 175.00 175.00 175.00 175.00 175.00 175.00 175.00 175.00 175.00 175.00 175.00 175.00 175.00 175.00 175.00 175.00 175.00 175.00 175.00 175.00 175.00 175.00 175.00
EvdW_6 =   -0.161310
EvdW_8 =   -0.239379
Fluid solver invoked on fresh (random / LCAO) wavefunctions
Running a vacuum solve first:

-------- Initial electronic minimization -----------
	FillingsUpdate:  mu: +0.154548424  nElectrons: 494.000000  magneticMoment: [ Abs: 0.00321  Tot: -0.00016 ]
ElecMinimize: Iter:   0  G: -5159.540236614581772  |grad|_K:  1.796e-04  alpha:  1.000e+00
	FillingsUpdate:  mu: +0.033966002  nElectrons: 494.000000  magneticMoment: [ Abs: 0.00312  Tot: -0.00017 ]
	SubspaceRotationAdjust: set factor to 0.969
ElecMinimize: Iter:   1  G: -5161.234328772935442  |grad|_K:  8.909e-05  alpha:  9.979e-02  linmin:  2.722e-04  t[s]:   2472.49
	FillingsUpdate:  mu: +0.433713736  nElectrons: 494.000000  magneticMoment: [ Abs: 0.00236  Tot: -0.00011 ]
	SubspaceRotationAdjust: set factor to 0.52
ElecMinimize: Iter:   2  G: -5162.469712870714829  |grad|_K:  1.929e-04  alpha:  2.604e-01  linmin: -2.748e-04  t[s]:   2585.41
ElecMinimize: 	Step increased G by 3.643405e-01, reducing alpha to 5.380527e-03.
	FillingsUpdate:  mu: +0.308508796  nElectrons: 494.000000  magneticMoment: [ Abs: 0.00231  Tot: -0.00011 ]
	SubspaceRotationAdjust: set factor to 0.36
ElecMinimize: Iter:   3  G: -5162.689871679108364  |grad|_K:  9.198e-05  alpha:  5.381e-03  linmin: -9.437e-04  t[s]:   2770.28
ElecMinimize: 	Predicted alpha/alphaT>3.000000, increasing alphaT to 1.614158e-02.
	FillingsUpdate:  mu: +0.225444732  nElectrons: 494.000000  magneticMoment: [ Abs: 0.00223  Tot: -0.00011 ]
	SubspaceRotationAdjust: set factor to 0.185
ElecMinimize: Iter:   4  G: -5162.852984019436917  |grad|_K:  5.317e-05  alpha:  1.938e-02  linmin: -7.546e-05  t[s]:   2911.41
ElecMinimize: 	Predicted alpha/alphaT>3.000000, increasing alphaT to 5.815171e-02.
	FillingsUpdate:  mu: +0.353252205  nElectrons: 494.000000  magneticMoment: [ Abs: 0.00206  Tot: -0.00012 ]
	SubspaceRotationAdjust: set factor to 0.126
	SubspaceRotationAdjust: resetting CG because factor has changed by 0.125921
ElecMinimize: 	State modified externally: resetting search direction.
ElecMinimize: Iter:   5  G: -5163.010929315060821  |grad|_K:  5.791e-05  alpha:  9.492e-02
	FillingsUpdate:  mu: +0.141099728  nElectrons: 494.000000  magneticMoment: [ Abs: 0.00188  Tot: -0.00010 ]
	SubspaceRotationAdjust: set factor to 0.102
ElecMinimize: Iter:   6  G: -5163.189640217054148  |grad|_K:  2.547e-05  alpha:  9.705e-02  linmin: -1.718e-04  t[s]:   3221.97
	FillingsUpdate:  mu: +0.126569786  nElectrons: 494.000000  magneticMoment: [ Abs: 0.00162  Tot: -0.00010 ]
	SubspaceRotationAdjust: set factor to 0.113
ElecMinimize: Iter:   7  G: -5163.291894980789039  |grad|_K:  3.060e-05  alpha:  2.862e-01  linmin:  1.861e-05  t[s]:   3334.73
	FillingsUpdate:  mu: +0.094402635  nElectrons: 494.000000  magneticMoment: [ Abs: 0.00131  Tot: -0.00009 ]
	SubspaceRotationAdjust: set factor to 0.153
ElecMinimize: Iter:   8  G: -5163.387386331180096  |grad|_K:  1.540e-05  alpha:  1.868e-01  linmin:  1.351e-07  t[s]:   3448.01
	FillingsUpdate:  mu: +0.096745943  nElectrons: 494.000000  magneticMoment: [ Abs: 0.00119  Tot: -0.00008 ]
	SubspaceRotationAdjust: set factor to 0.169
ElecMinimize: Iter:   9  G: -5163.412601789534165  |grad|_K:  1.540e-05  alpha:  1.936e-01  linmin: -2.789e-06  t[s]:   3561.15
	FillingsUpdate:  mu: +0.105338153  nElectrons: 494.000000  magneticMoment: [ Abs: 0.00117  Tot: -0.00007 ]
	SubspaceRotationAdjust: set factor to 0.229
ElecMinimize: Iter:  10  G: -5163.439817728371054  |grad|_K:  1.273e-05  alpha:  2.087e-01  linmin: -3.813e-06  t[s]:   3674.17
	FillingsUpdate:  mu: +0.108685870  nElectrons: 494.000000  magneticMoment: [ Abs: 0.00114  Tot: -0.00005 ]
	SubspaceRotationAdjust: set factor to 0.251
ElecMinimize: Iter:  11  G: -5163.468118185447565  |grad|_K:  1.737e-05  alpha:  3.161e-01  linmin: -6.810e-06  t[s]:   3786.75
	FillingsUpdate:  mu: +0.104632464  nElectrons: 494.000000  magneticMoment: [ Abs: 0.00119  Tot: -0.00004 ]
	SubspaceRotationAdjust: set factor to 0.216
ElecMinimize: Iter:  12  G: -5163.493435522078471  |grad|_K:  1.249e-05  alpha:  1.550e-01  linmin:  9.783e-06  t[s]:   3900.46
	FillingsUpdate:  mu: +0.104544697  nElectrons: 494.000000  magneticMoment: [ Abs: 0.00123  Tot: -0.00003 ]
	SubspaceRotationAdjust: set factor to 0.183
ElecMinimize: Iter:  13  G: -5163.506924101354343  |grad|_K:  1.150e-05  alpha:  1.595e-01  linmin: -6.186e-06  t[s]:   4013.03
	FillingsUpdate:  mu: +0.103739269  nElectrons: 494.000000  magneticMoment: [ Abs: 0.00119  Tot: -0.00002 ]
	SubspaceRotationAdjust: set factor to 0.187
ElecMinimize: Iter:  14  G: -5163.520512043568488  |grad|_K:  8.829e-06  alpha:  1.850e-01  linmin: -3.226e-06  t[s]:   4126.04
	FillingsUpdate:  mu: +0.103217963  nElectrons: 494.000000  magneticMoment: [ Abs: 0.00111  Tot: -0.00001 ]
	SubspaceRotationAdjust: set factor to 0.192
ElecMinimize: Iter:  15  G: -5163.527847689721966  |grad|_K:  8.269e-06  alpha:  1.705e-01  linmin: -1.457e-07  t[s]:   4239.99
	FillingsUpdate:  mu: +0.101268783  nElectrons: 494.000000  magneticMoment: [ Abs: 0.00091  Tot: -0.00000 ]
	SubspaceRotationAdjust: set factor to 0.18
ElecMinimize: Iter:  16  G: -5163.534872106708463  |grad|_K:  5.267e-06  alpha:  1.870e-01  linmin: -1.449e-06  t[s]:   4352.89
	FillingsUpdate:  mu: +0.101352861  nElectrons: 494.000000  magneticMoment: [ Abs: 0.00080  Tot: -0.00000 ]
	SubspaceRotationAdjust: set factor to 0.186
ElecMinimize: Iter:  17  G: -5163.536965257366319  |grad|_K:  4.023e-06  alpha:  1.372e-01  linmin: -9.796e-08  t[s]:   4465.85
	FillingsUpdate:  mu: +0.102108079  nElectrons: 494.000000  magneticMoment: [ Abs: 0.00064  Tot: -0.00000 ]
	SubspaceRotationAdjust: set factor to 0.201
ElecMinimize: Iter:  18  G: -5163.539129066125497  |grad|_K:  3.348e-06  alpha:  2.436e-01  linmin:  2.071e-07  t[s]:   4579.06
	FillingsUpdate:  mu: +0.102431049  nElectrons: 494.000000  magneticMoment: [ Abs: 0.00056  Tot: -0.00000 ]
	SubspaceRotationAdjust: set factor to 0.219
ElecMinimize: Iter:  19  G: -5163.539942035620697  |grad|_K:  2.558e-06  alpha:  1.322e-01  linmin:  3.971e-08  t[s]:   4691.92
	FillingsUpdate:  mu: +0.102887749  nElectrons: 494.000000  magneticMoment: [ Abs: 0.00045  Tot: -0.00000 ]
	SubspaceRotationAdjust: set factor to 0.244
ElecMinimize: Iter:  20  G: -5163.540827200626154  |grad|_K:  2.476e-06  alpha:  2.464e-01  linmin: -9.341e-08  t[s]:   4805.86
	FillingsUpdate:  mu: +0.103041149  nElectrons: 494.000000  magneticMoment: [ Abs: 0.00040  Tot: -0.00000 ]
	SubspaceRotationAdjust: set factor to 0.298
ElecMinimize: Iter:  21  G: -5163.541319862303681  |grad|_K:  1.684e-06  alpha:  1.464e-01  linmin: -3.402e-08  t[s]:   4918.93
	FillingsUpdate:  mu: +0.102924134  nElectrons: 494.000000  magneticMoment: [ Abs: 0.00035  Tot: -0.00000 ]
	SubspaceRotationAdjust: set factor to 0.348
ElecMinimize: Iter:  22  G: -5163.541659100100333  |grad|_K:  1.735e-06  alpha:  2.179e-01  linmin:  2.625e-08  t[s]:   5032.00
	FillingsUpdate:  mu: +0.102252117  nElectrons: 494.000000  magneticMoment: [ Abs: 0.00031  Tot: -0.00000 ]
	SubspaceRotationAdjust: set factor to 0.414
ElecMinimize: Iter:  23  G: -5163.541931060407478  |grad|_K:  1.463e-06  alpha:  1.646e-01  linmin:  1.290e-08  t[s]:   5146.03
	FillingsUpdate:  mu: +0.100855339  nElectrons: 494.000000  magneticMoment: [ Abs: 0.00026  Tot: -0.00000 ]
	SubspaceRotationAdjust: set factor to 0.449
ElecMinimize: Iter:  24  G: -5163.542231370965965  |grad|_K:  1.464e-06  alpha:  2.560e-01  linmin:  6.279e-07  t[s]:   5259.08
	FillingsUpdate:  mu: +0.101010115  nElectrons: 494.000000  magneticMoment: [ Abs: 0.00023  Tot: -0.00000 ]
	SubspaceRotationAdjust: set factor to 0.483
ElecMinimize: Iter:  25  G: -5163.542381996871882  |grad|_K:  9.539e-07  alpha:  1.281e-01  linmin: -1.155e-07  t[s]:   5372.85
	FillingsUpdate:  mu: +0.101952807  nElectrons: 494.000000  magneticMoment: [ Abs: 0.00020  Tot: -0.00000 ]
	SubspaceRotationAdjust: set factor to 0.436
ElecMinimize: Iter:  26  G: -5163.542470842117837  |grad|_K:  1.060e-06  alpha:  1.779e-01  linmin:  1.570e-07  t[s]:   5485.86
	FillingsUpdate:  mu: +0.102067311  nElectrons: 494.000000  magneticMoment: [ Abs: 0.00018  Tot: -0.00000 ]
	SubspaceRotationAdjust: set factor to 0.298
ElecMinimize: Iter:  27  G: -5163.542525729570116  |grad|_K:  9.463e-07  alpha:  8.903e-02  linmin: -1.879e-07  t[s]:   5598.62
	FillingsUpdate:  mu: +0.101678057  nElectrons: 494.000000  magneticMoment: [ Abs: 0.00015  Tot: -0.00000 ]
	SubspaceRotationAdjust: set factor to 0.275
ElecMinimize: Iter:  28  G: -5163.542572210568323  |grad|_K:  6.002e-07  alpha:  9.452e-02  linmin:  1.474e-07  t[s]:   5712.34
	FillingsUpdate:  mu: +0.101390607  nElectrons: 494.000000  magneticMoment: [ Abs: 0.00012  Tot: -0.00000 ]
	SubspaceRotationAdjust: set factor to 0.295
ElecMinimize: Iter:  29  G: -5163.542610237479494  |grad|_K:  6.222e-07  alpha:  1.924e-01  linmin:  1.962e-07  t[s]:   5825.40
	FillingsUpdate:  mu: +0.101425626  nElectrons: 494.000000  magneticMoment: [ Abs: 0.00009  Tot: -0.00000 ]
	SubspaceRotationAdjust: set factor to 0.243
ElecMinimize: Iter:  30  G: -5163.542635179779609  |grad|_K:  4.255e-07  alpha:  1.174e-01  linmin: -3.469e-08  t[s]:   5939.43
	FillingsUpdate:  mu: +0.101653863  nElectrons: 494.000000  magneticMoment: [ Abs: 0.00008  Tot: -0.00000 ]
	SubspaceRotationAdjust: set factor to 0.244
ElecMinimize: Iter:  31  G: -5163.542647284104532  |grad|_K:  3.356e-07  alpha:  1.218e-01  linmin:  2.295e-08  t[s]:   6052.65
	FillingsUpdate:  mu: +0.101842510  nElectrons: 494.000000  magneticMoment: [ Abs: 0.00006  Tot: -0.00000 ]
	SubspaceRotationAdjust: set factor to 0.29
ElecMinimize: Iter:  32  G: -5163.542657330271140  |grad|_K:  2.711e-07  alpha:  1.625e-01  linmin: -3.401e-07  t[s]:   6165.97
	FillingsUpdate:  mu: +0.101763502  nElectrons: 494.000000  magneticMoment: [ Abs: 0.00005  Tot: -0.00000 ]
	SubspaceRotationAdjust: set factor to 0.294
ElecMinimize: Iter:  33  G: -5163.542662714216931  |grad|_K:  2.402e-07  alpha:  1.334e-01  linmin:  2.127e-07  t[s]:   6279.78
	FillingsUpdate:  mu: +0.101505856  nElectrons: 494.000000  magneticMoment: [ Abs: 0.00004  Tot: -0.00000 ]
	SubspaceRotationAdjust: set factor to 0.294
ElecMinimize: Iter:  34  G: -5163.542668000456615  |grad|_K:  2.209e-07  alpha:  1.669e-01  linmin:  1.501e-07  t[s]:   6393.10
	FillingsUpdate:  mu: +0.101467389  nElectrons: 494.000000  magneticMoment: [ Abs: 0.00004  Tot: -0.00000 ]
	SubspaceRotationAdjust: set factor to 0.369
ElecMinimize: Iter:  35  G: -5163.542671864849581  |grad|_K:  1.804e-07  alpha:  1.443e-01  linmin: -7.129e-08  t[s]:   6506.12
	FillingsUpdate:  mu: +0.101713506  nElectrons: 494.000000  magneticMoment: [ Abs: 0.00004  Tot: -0.00000 ]
	SubspaceRotationAdjust: set factor to 0.385
ElecMinimize: Iter:  36  G: -5163.542675035653701  |grad|_K:  1.838e-07  alpha:  1.774e-01  linmin:  1.732e-09  t[s]:   6619.57
	FillingsUpdate:  mu: +0.101846280  nElectrons: 494.000000  magneticMoment: [ Abs: 0.00003  Tot: -0.00000 ]
	SubspaceRotationAdjust: set factor to 0.315
ElecMinimize: Iter:  37  G: -5163.542677061745962  |grad|_K:  1.606e-07  alpha:  1.092e-01  linmin:  3.930e-08  t[s]:   6732.63
	FillingsUpdate:  mu: +0.101788507  nElectrons: 494.000000  magneticMoment: [ Abs: 0.00003  Tot: -0.00000 ]
	SubspaceRotationAdjust: set factor to 0.299
ElecMinimize: Iter:  38  G: -5163.542678817129854  |grad|_K:  1.315e-07  alpha:  1.239e-01  linmin: -2.791e-07  t[s]:   6846.31
	FillingsUpdate:  mu: +0.101636304  nElectrons: 494.000000  magneticMoment: [ Abs: 0.00003  Tot: -0.00000 ]
	SubspaceRotationAdjust: set factor to 0.325
ElecMinimize: Iter:  39  G: -5163.542680489002123  |grad|_K:  1.159e-07  alpha:  1.763e-01  linmin:  3.188e-07  t[s]:   6959.14
	FillingsUpdate:  mu: +0.101643768  nElectrons: 494.000000  magneticMoment: [ Abs: 0.00003  Tot: -0.00000 ]
	SubspaceRotationAdjust: set factor to 0.306
ElecMinimize: Iter:  40  G: -5163.542681592081863  |grad|_K:  1.055e-07  alpha:  1.498e-01  linmin:  1.472e-07  t[s]:   7071.86
	FillingsUpdate:  mu: +0.101722278  nElectrons: 494.000000  magneticMoment: [ Abs: 0.00002  Tot: -0.00000 ]
	SubspaceRotationAdjust: set factor to 0.237
ElecMinimize: Iter:  41  G: -5163.542682339984822  |grad|_K:  8.290e-08  alpha:  1.225e-01  linmin: -1.294e-07  t[s]:   7185.57
	FillingsUpdate:  mu: +0.101758059  nElectrons: 494.000000  magneticMoment: [ Abs: 0.00002  Tot: -0.00000 ]
	SubspaceRotationAdjust: set factor to 0.242
ElecMinimize: Iter:  42  G: -5163.542682848540608  |grad|_K:  6.921e-08  alpha:  1.347e-01  linmin: -1.680e-07  t[s]:   7298.63
	FillingsUpdate:  mu: +0.101736076  nElectrons: 494.000000  magneticMoment: [ Abs: 0.00002  Tot: -0.00000 ]
	SubspaceRotationAdjust: set factor to 0.261
ElecMinimize: Iter:  43  G: -5163.542683314254646  |grad|_K:  5.968e-08  alpha:  1.775e-01  linmin:  9.159e-07  t[s]:   7411.86
	FillingsUpdate:  mu: +0.101709744  nElectrons: 494.000000  magneticMoment: [ Abs: 0.00001  Tot: -0.00000 ]
	SubspaceRotationAdjust: set factor to 0.242
ElecMinimize: Iter:  44  G: -5163.542683560839578  |grad|_K:  4.588e-08  alpha:  1.265e-01  linmin:  1.640e-07  t[s]:   7525.52
	FillingsUpdate:  mu: +0.101705859  nElectrons: 494.000000  magneticMoment: [ Abs: 0.00001  Tot: +0.00000 ]
	SubspaceRotationAdjust: set factor to 0.257
ElecMinimize: Iter:  45  G: -5163.542683762677370  |grad|_K:  4.454e-08  alpha:  1.747e-01  linmin: -8.279e-07  t[s]:   7638.81
	FillingsUpdate:  mu: +0.101725863  nElectrons: 494.000000  magneticMoment: [ Abs: 0.00001  Tot: +0.00000 ]
	SubspaceRotationAdjust: set factor to 0.297
ElecMinimize: Iter:  46  G: -5163.542683927014878  |grad|_K:  3.364e-08  alpha:  1.505e-01  linmin:  1.392e-07  t[s]:   7752.28
	FillingsUpdate:  mu: +0.101738837  nElectrons: 494.000000  magneticMoment: [ Abs: 0.00001  Tot: +0.00000 ]
	SubspaceRotationAdjust: set factor to 0.307
ElecMinimize: Iter:  47  G: -5163.542684017495958  |grad|_K:  3.119e-08  alpha:  1.459e-01  linmin:  1.390e-06  t[s]:   7865.02
	FillingsUpdate:  mu: +0.101732830  nElectrons: 494.000000  magneticMoment: [ Abs: 0.00001  Tot: +0.00000 ]
	SubspaceRotationAdjust: set factor to 0.318
ElecMinimize: Iter:  48  G: -5163.542684098329119  |grad|_K:  2.583e-08  alpha:  1.520e-01  linmin: -6.866e-07  t[s]:   7978.00
ElecMinimize: Converged (|Delta G|<1.000000e-07 for 2 iters).
Setting wave functions to eigenvectors of Hamiltonian
Converging empty states (this may take a while): |deigs|: 1.446e-02
Vacuum energy after initial minimize, F = -5163.542684098329119

Shifting auxilliary hamiltonian by -0.273033 to set nElectrons=494.000000

-------- Electronic minimization -----------
	Linear fluid (dielectric constant: 78.4, screening length: 8.12261 Bohr) occupying 0.541718 of unit cell:	Completed after 22 iterations at t[s]:   8468.29
	FillingsUpdate:  mu: -0.171300000  nElectrons: 494.000000  magneticMoment: [ Abs: 0.00000  Tot: +0.00000 ]
ElecMinimize: Iter:   0  G: -5163.543059504948360  |grad|_K:  4.469e-06  alpha:  1.000e+00
	Linear fluid (dielectric constant: 78.4, screening length: 8.12261 Bohr) occupying 0.544365 of unit cell:	Completed after 24 iterations at t[s]:   8562.44
	Linear fluid (dielectric constant: 78.4, screening length: 8.12261 Bohr) occupying 0.541784 of unit cell:	Completed after 24 iterations at t[s]:   8594.83
	FillingsUpdate:  mu: -0.171300000  nElectrons: 493.968233  magneticMoment: [ Abs: 0.00000  Tot: +0.00000 ]
	SubspaceRotationAdjust: set factor to 0.178
ElecMinimize: Iter:   1  G: -5163.543409411306129  |grad|_K:  1.900e-06  alpha:  2.584e-02  linmin: -1.468e-02  t[s]:   8640.62
	Linear fluid (dielectric constant: 78.4, screening length: 8.12261 Bohr) occupying 0.541861 of unit cell:	Completed after 12 iterations at t[s]:   8682.22
ElecMinimize: 	Predicted alpha/alphaT>3.000000, increasing alphaT to 7.751728e-02.
	Linear fluid (dielectric constant: 78.4, screening length: 8.12261 Bohr) occupying 0.542012 of unit cell:	Completed after 15 iterations at t[s]:   8713.70
	Linear fluid (dielectric constant: 78.4, screening length: 8.12261 Bohr) occupying 0.542074 of unit cell:	Completed after 12 iterations at t[s]:   8744.58
	FillingsUpdate:  mu: -0.171300000  nElectrons: 493.922099  magneticMoment: [ Abs: 0.00000  Tot: +0.00000 ]
	SubspaceRotationAdjust: set factor to 0.0989
ElecMinimize: Iter:   2  G: -5163.543648591290548  |grad|_K:  2.667e-06  alpha:  9.855e-02  linmin:  1.929e-04  t[s]:   8789.85
	Linear fluid (dielectric constant: 78.4, screening length: 8.12261 Bohr) occupying 0.542766 of unit cell:	Completed after 19 iterations at t[s]:   8832.15
	Linear fluid (dielectric constant: 78.4, screening length: 8.12261 Bohr) occupying 0.542792 of unit cell:	Completed after 10 iterations at t[s]:   8862.59
	FillingsUpdate:  mu: -0.171300000  nElectrons: 493.866955  magneticMoment: [ Abs: 0.00000  Tot: +0.00000 ]
	SubspaceRotationAdjust: set factor to 0.0673
ElecMinimize: Iter:   3  G: -5163.544043224657798  |grad|_K:  2.242e-06  alpha:  1.023e-01  linmin: -9.610e-06  t[s]:   8907.64
	Linear fluid (dielectric constant: 78.4, screening length: 8.12261 Bohr) occupying 0.543359 of unit cell:	Completed after 14 iterations at t[s]:   8950.58
	Linear fluid (dielectric constant: 78.4, screening length: 8.12261 Bohr) occupying 0.543247 of unit cell:	Completed after 12 iterations at t[s]:   8981.33
	FillingsUpdate:  mu: -0.171300000  nElectrons: 493.857050  magneticMoment: [ Abs: 0.00000  Tot: +0.00000 ]
	SubspaceRotationAdjust: set factor to 0.0948
ElecMinimize: Iter:   4  G: -5163.544268765151173  |grad|_K:  1.362e-06  alpha:  8.180e-02  linmin: -1.828e-05  t[s]:   9026.54
	Linear fluid (dielectric constant: 78.4, screening length: 8.12261 Bohr) occupying 0.543454 of unit cell:	Completed after 13 iterations at t[s]:   9068.32
	Linear fluid (dielectric constant: 78.4, screening length: 8.12261 Bohr) occupying 0.543584 of unit cell:	Completed after 12 iterations at t[s]:   9099.09
	FillingsUpdate:  mu: -0.171300000  nElectrons: 493.855527  magneticMoment: [ Abs: 0.00000  Tot: +0.00000 ]
	SubspaceRotationAdjust: set factor to 0.0917
ElecMinimize: Iter:   5  G: -5163.544404989266695  |grad|_K:  1.594e-06  alpha:  1.333e-01  linmin: -2.122e-05  t[s]:   9144.26
	Linear fluid (dielectric constant: 78.4, screening length: 8.12261 Bohr) occupying 0.544123 of unit cell:	Completed after 16 iterations at t[s]:   9186.46
	Linear fluid (dielectric constant: 78.4, screening length: 8.12261 Bohr) occupying 0.544330 of unit cell:	Completed after 12 iterations at t[s]:   9217.24
	FillingsUpdate:  mu: -0.171300000  nElectrons: 493.839105  magneticMoment: [ Abs: 0.00000  Tot: +0.00000 ]
	SubspaceRotationAdjust: set factor to 0.121
ElecMinimize: Iter:   6  G: -5163.544663825025964  |grad|_K:  1.964e-06  alpha:  1.850e-01  linmin: -1.100e-05  t[s]:   9262.46
	Linear fluid (dielectric constant: 78.4, screening length: 8.12261 Bohr) occupying 0.545526 of unit cell:	Completed after 19 iterations at t[s]:   9304.84
	Linear fluid (dielectric constant: 78.4, screening length: 8.12261 Bohr) occupying 0.544998 of unit cell:	Completed after 18 iterations at t[s]:   9336.24
	FillingsUpdate:  mu: -0.171300000  nElectrons: 493.816047  magneticMoment: [ Abs: 0.00000  Tot: +0.00000 ]
	SubspaceRotationAdjust: set factor to 0.142
ElecMinimize: Iter:   7  G: -5163.544881555882966  |grad|_K:  1.573e-06  alpha:  1.024e-01  linmin: -2.399e-06  t[s]:   9381.34
	Linear fluid (dielectric constant: 78.4, screening length: 8.12261 Bohr) occupying 0.545481 of unit cell:	Completed after 14 iterations at t[s]:   9423.22
	Linear fluid (dielectric constant: 78.4, screening length: 8.12261 Bohr) occupying 0.545564 of unit cell:	Completed after 11 iterations at t[s]:   9453.82
	FillingsUpdate:  mu: -0.171300000  nElectrons: 493.797681  magneticMoment: [ Abs: 0.00000  Tot: +0.00000 ]
	SubspaceRotationAdjust: set factor to 0.154
ElecMinimize: Iter:   8  G: -5163.545044472191876  |grad|_K:  1.646e-06  alpha:  1.200e-01  linmin:  7.099e-06  t[s]:   9498.94
	Linear fluid (dielectric constant: 78.4, screening length: 8.12261 Bohr) occupying 0.546241 of unit cell:	Completed after 16 iterations at t[s]:   9542.06
	Linear fluid (dielectric constant: 78.4, screening length: 8.12261 Bohr) occupying 0.546164 of unit cell:	Completed after 9 iterations at t[s]:   9572.80
	FillingsUpdate:  mu: -0.171300000  nElectrons: 493.791840  magneticMoment: [ Abs: 0.00000  Tot: +0.00000 ]
	SubspaceRotationAdjust: set factor to 0.189
ElecMinimize: Iter:   9  G: -5163.545202221826912  |grad|_K:  1.359e-06  alpha:  1.063e-01  linmin: -5.699e-06  t[s]:   9617.82
	Linear fluid (dielectric constant: 78.4, screening length: 8.12261 Bohr) occupying 0.546623 of unit cell:	Completed after 17 iterations at t[s]:   9660.19
	Linear fluid (dielectric constant: 78.4, screening length: 8.12261 Bohr) occupying 0.546615 of unit cell:	Completed after 2 iterations at t[s]:   9689.77
	FillingsUpdate:  mu: -0.171300000  nElectrons: 493.793646  magneticMoment: [ Abs: 0.00000  Tot: +0.00000 ]
	SubspaceRotationAdjust: set factor to 0.192
ElecMinimize: Iter:  10  G: -5163.545308205239053  |grad|_K:  1.455e-06  alpha:  1.044e-01  linmin:  3.022e-06  t[s]:   9734.76
	Linear fluid (dielectric constant: 78.4, screening length: 8.12261 Bohr) occupying 0.547177 of unit cell:	Completed after 12 iterations at t[s]:   9776.26
	Linear fluid (dielectric constant: 78.4, screening length: 8.12261 Bohr) occupying 0.547489 of unit cell:	Completed after 11 iterations at t[s]:   9806.99
	FillingsUpdate:  mu: -0.171300000  nElectrons: 493.781045  magneticMoment: [ Abs: 0.00000  Tot: +0.00000 ]
	SubspaceRotationAdjust: set factor to 0.207
ElecMinimize: Iter:  11  G: -5163.545498391080400  |grad|_K:  1.812e-06  alpha:  1.637e-01  linmin: -4.293e-06  t[s]:   9852.34
	Linear fluid (dielectric constant: 78.4, screening length: 8.12261 Bohr) occupying 0.548822 of unit cell:	Completed after 16 iterations at t[s]:   9894.28
	Linear fluid (dielectric constant: 78.4, screening length: 8.12261 Bohr) occupying 0.548249 of unit cell:	Completed after 14 iterations at t[s]:   9925.20
	FillingsUpdate:  mu: -0.171300000  nElectrons: 493.765610  magneticMoment: [ Abs: 0.00000  Tot: +0.00000 ]
	SubspaceRotationAdjust: set factor to 0.225
ElecMinimize: Iter:  12  G: -5163.545664024860343  |grad|_K:  1.263e-06  alpha:  9.174e-02  linmin: -6.630e-07  t[s]:   9970.51
	Linear fluid (dielectric constant: 78.4, screening length: 8.12261 Bohr) occupying 0.548629 of unit cell:	Completed after 17 iterations at t[s]:  10012.58
	Linear fluid (dielectric constant: 78.4, screening length: 8.12261 Bohr) occupying 0.548579 of unit cell:	Completed after 9 iterations at t[s]:  10043.05
	FillingsUpdate:  mu: -0.171300000  nElectrons: 493.764147  magneticMoment: [ Abs: 0.00000  Tot: +0.00000 ]
	SubspaceRotationAdjust: set factor to 0.246
ElecMinimize: Iter:  13  G: -5163.545733722476143  |grad|_K:  1.055e-06  alpha:  7.960e-02  linmin: -2.307e-06  t[s]:  10088.17
	Linear fluid (dielectric constant: 78.4, screening length: 8.12261 Bohr) occupying 0.548823 of unit cell:	Completed after 11 iterations at t[s]:  10129.49
	Linear fluid (dielectric constant: 78.4, screening length: 8.12261 Bohr) occupying 0.549011 of unit cell:	Completed after 11 iterations at t[s]:  10161.40
	FillingsUpdate:  mu: -0.171300000  nElectrons: 493.757078  magneticMoment: [ Abs: 0.00000  Tot: +0.00000 ]
	SubspaceRotationAdjust: set factor to 0.249
ElecMinimize: Iter:  14  G: -5163.545820953766452  |grad|_K:  1.252e-06  alpha:  1.423e-01  linmin: -9.919e-06  t[s]:  10206.46
	Linear fluid (dielectric constant: 78.4, screening length: 8.12261 Bohr) occupying 0.549610 of unit cell:	Completed after 18 iterations at t[s]:  10248.93
	Linear fluid (dielectric constant: 78.4, screening length: 8.12261 Bohr) occupying 0.549482 of unit cell:	Completed after 12 iterations at t[s]:  10279.90
	FillingsUpdate:  mu: -0.171300000  nElectrons: 493.745590  magneticMoment: [ Abs: 0.00000  Tot: +0.00000 ]
	SubspaceRotationAdjust: set factor to 0.268
ElecMinimize: Iter:  15  G: -5163.545916964795651  |grad|_K:  1.207e-06  alpha:  1.111e-01  linmin:  1.261e-06  t[s]:  10325.22
	Linear fluid (dielectric constant: 78.4, screening length: 8.12261 Bohr) occupying 0.549899 of unit cell:	Completed after 15 iterations at t[s]:  10367.12
	Linear fluid (dielectric constant: 78.4, screening length: 8.12261 Bohr) occupying 0.549790 of unit cell:	Completed after 12 iterations at t[s]:  10397.95
	FillingsUpdate:  mu: -0.171300000  nElectrons: 493.745344  magneticMoment: [ Abs: 0.00000  Tot: +0.00000 ]
	SubspaceRotationAdjust: set factor to 0.319
ElecMinimize: Iter:  16  G: -5163.545982120082954  |grad|_K:  9.572e-07  alpha:  8.168e-02  linmin: -2.845e-06  t[s]:  10443.60
	Linear fluid (dielectric constant: 78.4, screening length: 8.12261 Bohr) occupying 0.549976 of unit cell:	Completed after 17 iterations at t[s]:  10485.69
	Linear fluid (dielectric constant: 78.4, screening length: 8.12261 Bohr) occupying 0.549998 of unit cell:	Completed after 7 iterations at t[s]:  10515.94
	FillingsUpdate:  mu: -0.171300000  nElectrons: 493.739281  magneticMoment: [ Abs: 0.00000  Tot: +0.00000 ]
	SubspaceRotationAdjust: set factor to 0.346
ElecMinimize: Iter:  17  G: -5163.546028004692744  |grad|_K:  7.842e-07  alpha:  9.114e-02  linmin: -8.529e-06  t[s]:  10561.10
	Linear fluid (dielectric constant: 78.4, screening length: 8.12261 Bohr) occupying 0.550127 of unit cell:	Completed after 15 iterations at t[s]:  10603.05
	Linear fluid (dielectric constant: 78.4, screening length: 8.12261 Bohr) occupying 0.550142 of unit cell:	Completed after 8 iterations at t[s]:  10633.53
	FillingsUpdate:  mu: -0.171300000  nElectrons: 493.734375  magneticMoment: [ Abs: 0.00000  Tot: -0.00000 ]
	SubspaceRotationAdjust: set factor to 0.347
ElecMinimize: Iter:  18  G: -5163.546062546436588  |grad|_K:  7.677e-07  alpha:  1.021e-01  linmin: -3.797e-06  t[s]:  10678.82
	Linear fluid (dielectric constant: 78.4, screening length: 8.12261 Bohr) occupying 0.550266 of unit cell:	Completed after 13 iterations at t[s]:  10720.36
	Linear fluid (dielectric constant: 78.4, screening length: 8.12261 Bohr) occupying 0.550239 of unit cell:	Completed after 10 iterations at t[s]:  10751.43
	FillingsUpdate:  mu: -0.171300000  nElectrons: 493.737426  magneticMoment: [ Abs: 0.00000  Tot: -0.00000 ]
	SubspaceRotationAdjust: set factor to 0.361
ElecMinimize: Iter:  19  G: -5163.546088366178083  |grad|_K:  7.708e-07  alpha:  7.974e-02  linmin:  2.832e-06  t[s]:  10796.60
	Linear fluid (dielectric constant: 78.4, screening length: 8.12261 Bohr) occupying 0.550327 of unit cell:	Completed after 15 iterations at t[s]:  10838.50
	Linear fluid (dielectric constant: 78.4, screening length: 8.12261 Bohr) occupying 0.550317 of unit cell:	Completed after 8 iterations at t[s]:  10868.77
	FillingsUpdate:  mu: -0.171300000  nElectrons: 493.733094  magneticMoment: [ Abs: 0.00000  Tot: -0.00000 ]
	SubspaceRotationAdjust: set factor to 0.358
ElecMinimize: Iter:  20  G: -5163.546111470141113  |grad|_K:  6.323e-07  alpha:  7.086e-02  linmin:  8.435e-06  t[s]:  10914.12
	Linear fluid (dielectric constant: 78.4, screening length: 8.12261 Bohr) occupying 0.550359 of unit cell:	Completed after 11 iterations at t[s]:  10955.47
	Linear fluid (dielectric constant: 78.4, screening length: 8.12261 Bohr) occupying 0.550368 of unit cell:	Completed after 7 iterations at t[s]:  10985.79
	FillingsUpdate:  mu: -0.171300000  nElectrons: 493.734216  magneticMoment: [ Abs: 0.00000  Tot: -0.00000 ]
	SubspaceRotationAdjust: set factor to 0.345
ElecMinimize: Iter:  21  G: -5163.546130267776789  |grad|_K:  4.833e-07  alpha:  8.577e-02  linmin: -1.413e-05  t[s]:  11030.97
	Linear fluid (dielectric constant: 78.4, screening length: 8.12261 Bohr) occupying 0.550386 of unit cell:	Completed after 8 iterations at t[s]:  11073.38
	Linear fluid (dielectric constant: 78.4, screening length: 8.12261 Bohr) occupying 0.550387 of unit cell:	Completed after 2 iterations at t[s]:  11102.98
	FillingsUpdate:  mu: -0.171300000  nElectrons: 493.734930  magneticMoment: [ Abs: 0.00000  Tot: -0.00000 ]
	SubspaceRotationAdjust: set factor to 0.414
ElecMinimize: Iter:  22  G: -5163.546141905185323  |grad|_K:  4.113e-07  alpha:  9.056e-02  linmin: -1.444e-05  t[s]:  11148.10
	Linear fluid (dielectric constant: 78.4, screening length: 8.12261 Bohr) occupying 0.550389 of unit cell:	Completed after 12 iterations at t[s]:  11189.87
	Linear fluid (dielectric constant: 78.4, screening length: 8.12261 Bohr) occupying 0.550389 of unit cell:	Completed after 0 iterations at t[s]:  11219.30
	FillingsUpdate:  mu: -0.171300000  nElectrons: 493.733216  magneticMoment: [ Abs: 0.00000  Tot: -0.00000 ]
	SubspaceRotationAdjust: set factor to 0.4
ElecMinimize: Iter:  23  G: -5163.546150460476383  |grad|_K:  4.237e-07  alpha:  9.198e-02  linmin: -2.098e-05  t[s]:  11264.38
	Linear fluid (dielectric constant: 78.4, screening length: 8.12261 Bohr) occupying 0.550378 of unit cell:	Completed after 14 iterations at t[s]:  11306.19
	Linear fluid (dielectric constant: 78.4, screening length: 8.12261 Bohr) occupying 0.550381 of unit cell:	Completed after 10 iterations at t[s]:  11336.73
	FillingsUpdate:  mu: -0.171300000  nElectrons: 493.736242  magneticMoment: [ Abs: 0.00000  Tot: -0.00000 ]
	SubspaceRotationAdjust: set factor to 0.321
ElecMinimize: Iter:  24  G: -5163.546156775308191  |grad|_K:  3.884e-07  alpha:  6.359e-02  linmin:  2.994e-05  t[s]:  11382.63
	Linear fluid (dielectric constant: 78.4, screening length: 8.12261 Bohr) occupying 0.550368 of unit cell:	Completed after 11 iterations at t[s]:  11423.95
	Linear fluid (dielectric constant: 78.4, screening length: 8.12261 Bohr) occupying 0.550366 of unit cell:	Completed after 3 iterations at t[s]:  11453.49
	FillingsUpdate:  mu: -0.171300000  nElectrons: 493.735310  magneticMoment: [ Abs: 0.00000  Tot: -0.00000 ]
	SubspaceRotationAdjust: set factor to 0.329
ElecMinimize: Iter:  25  G: -5163.546162746929440  |grad|_K:  3.190e-07  alpha:  7.238e-02  linmin: -4.611e-05  t[s]:  11498.73
	Linear fluid (dielectric constant: 78.4, screening length: 8.12261 Bohr) occupying 0.550348 of unit cell:	Completed after 7 iterations at t[s]:  11539.72
	Linear fluid (dielectric constant: 78.4, screening length: 8.12261 Bohr) occupying 0.550340 of unit cell:	Completed after 6 iterations at t[s]:  11569.81
	FillingsUpdate:  mu: -0.171300000  nElectrons: 493.736421  magneticMoment: [ Abs: 0.00000  Tot: -0.00000 ]
	SubspaceRotationAdjust: set factor to 0.379
ElecMinimize: Iter:  26  G: -5163.546168585719897  |grad|_K:  2.771e-07  alpha:  1.040e-01  linmin:  1.715e-05  t[s]:  11615.36
	Linear fluid (dielectric constant: 78.4, screening length: 8.12261 Bohr) occupying 0.550310 of unit cell:	Completed after 11 iterations at t[s]:  11657.54
	Linear fluid (dielectric constant: 78.4, screening length: 8.12261 Bohr) occupying 0.550319 of unit cell:	Completed after 8 iterations at t[s]:  11688.08
	FillingsUpdate:  mu: -0.171300000  nElectrons: 493.738333  magneticMoment: [ Abs: 0.00000  Tot: -0.00000 ]
	SubspaceRotationAdjust: set factor to 0.35
ElecMinimize: Iter:  27  G: -5163.546171721162864  |grad|_K:  2.550e-07  alpha:  7.473e-02  linmin:  4.362e-06  t[s]:  11733.44
	Linear fluid (dielectric constant: 78.4, screening length: 8.12261 Bohr) occupying 0.550294 of unit cell:	Completed after 10 iterations at t[s]:  11774.86
	Linear fluid (dielectric constant: 78.4, screening length: 8.12261 Bohr) occupying 0.550302 of unit cell:	Completed after 10 iterations at t[s]:  11805.42
	FillingsUpdate:  mu: -0.171300000  nElectrons: 493.737245  magneticMoment: [ Abs: 0.00000  Tot: -0.00000 ]
	SubspaceRotationAdjust: set factor to 0.3
ElecMinimize: Iter:  28  G: -5163.546173587254998  |grad|_K:  2.101e-07  alpha:  5.249e-02  linmin: -4.025e-06  t[s]:  11850.69
	Linear fluid (dielectric constant: 78.4, screening length: 8.12261 Bohr) occupying 0.550286 of unit cell:	Completed after 6 iterations at t[s]:  11891.62
	Linear fluid (dielectric constant: 78.4, screening length: 8.12261 Bohr) occupying 0.550269 of unit cell:	Completed after 7 iterations at t[s]:  11921.92
	FillingsUpdate:  mu: -0.171300000  nElectrons: 493.738273  magneticMoment: [ Abs: 0.00000  Tot: -0.00000 ]
	SubspaceRotationAdjust: set factor to 0.349
ElecMinimize: Iter:  29  G: -5163.546176140313946  |grad|_K:  2.067e-07  alpha:  1.053e-01  linmin:  3.508e-06  t[s]:  11967.64
	Linear fluid (dielectric constant: 78.4, screening length: 8.12261 Bohr) occupying 0.550232 of unit cell:	Completed after 11 iterations at t[s]:  12009.22
	Linear fluid (dielectric constant: 78.4, screening length: 8.12261 Bohr) occupying 0.550235 of unit cell:	Completed after 2 iterations at t[s]:  12038.71
	FillingsUpdate:  mu: -0.171300000  nElectrons: 493.739891  magneticMoment: [ Abs: 0.00000  Tot: -0.00000 ]
	SubspaceRotationAdjust: set factor to 0.337
ElecMinimize: Iter:  30  G: -5163.546178394856724  |grad|_K:  2.100e-07  alpha:  9.628e-02  linmin:  1.929e-05  t[s]:  12083.84
	Linear fluid (dielectric constant: 78.4, screening length: 8.12261 Bohr) occupying 0.550193 of unit cell:	Completed after 11 iterations at t[s]:  12125.33
	Linear fluid (dielectric constant: 78.4, screening length: 8.12261 Bohr) occupying 0.550213 of unit cell:	Completed after 10 iterations at t[s]:  12155.63
	FillingsUpdate:  mu: -0.171300000  nElectrons: 493.739087  magneticMoment: [ Abs: 0.00000  Tot: -0.00000 ]
	SubspaceRotationAdjust: set factor to 0.288
ElecMinimize: Iter:  31  G: -5163.546179602186385  |grad|_K:  1.604e-07  alpha:  5.054e-02  linmin:  2.459e-06  t[s]:  12200.89
	Linear fluid (dielectric constant: 78.4, screening length: 8.12261 Bohr) occupying 0.550197 of unit cell:	Completed after 3 iterations at t[s]:  12241.90
	Linear fluid (dielectric constant: 78.4, screening length: 8.12261 Bohr) occupying 0.550185 of unit cell:	Completed after 6 iterations at t[s]:  12271.99
	FillingsUpdate:  mu: -0.171300000  nElectrons: 493.739889  magneticMoment: [ Abs: 0.00000  Tot: -0.00000 ]
	SubspaceRotationAdjust: set factor to 0.348
ElecMinimize: Iter:  32  G: -5163.546180868383090  |grad|_K:  1.431e-07  alpha:  9.034e-02  linmin:  2.274e-05  t[s]:  12317.25
	Linear fluid (dielectric constant: 78.4, screening length: 8.12261 Bohr) occupying 0.550158 of unit cell:	Completed after 10 iterations at t[s]:  12358.59
	Linear fluid (dielectric constant: 78.4, screening length: 8.12261 Bohr) occupying 0.550154 of unit cell:	Completed after 2 iterations at t[s]:  12388.28
	FillingsUpdate:  mu: -0.171300000  nElectrons: 493.741339  magneticMoment: [ Abs: 0.00000  Tot: -0.00000 ]
	SubspaceRotationAdjust: set factor to 0.338
ElecMinimize: Iter:  33  G: -5163.546182034737285  |grad|_K:  1.628e-07  alpha:  1.042e-01  linmin: -5.827e-05  t[s]:  12433.45
	Linear fluid (dielectric constant: 78.4, screening length: 8.12261 Bohr) occupying 0.550110 of unit cell:	Completed after 11 iterations at t[s]:  12474.80
	Linear fluid (dielectric constant: 78.4, screening length: 8.12261 Bohr) occupying 0.550128 of unit cell:	Completed after 9 iterations at t[s]:  12505.05
	FillingsUpdate:  mu: -0.171300000  nElectrons: 493.741026  magneticMoment: [ Abs: 0.00000  Tot: -0.00000 ]
	SubspaceRotationAdjust: set factor to 0.294
ElecMinimize: Iter:  34  G: -5163.546182971547751  |grad|_K:  1.259e-07  alpha:  6.230e-02  linmin:  1.875e-05  t[s]:  12550.44
	Linear fluid (dielectric constant: 78.4, screening length: 8.12261 Bohr) occupying 0.550109 of unit cell:	Completed after 8 iterations at t[s]:  12591.73
	Linear fluid (dielectric constant: 78.4, screening length: 8.12261 Bohr) occupying 0.550100 of unit cell:	Completed after 2 iterations at t[s]:  12621.17
	FillingsUpdate:  mu: -0.171300000  nElectrons: 493.742059  magneticMoment: [ Abs: 0.00000  Tot: -0.00000 ]
	SubspaceRotationAdjust: set factor to 0.38
ElecMinimize: Iter:  35  G: -5163.546183760649001  |grad|_K:  1.054e-07  alpha:  9.085e-02  linmin: -3.727e-05  t[s]:  12666.50
	Linear fluid (dielectric constant: 78.4, screening length: 8.12261 Bohr) occupying 0.550079 of unit cell:	Completed after 9 iterations at t[s]:  12707.87
	Linear fluid (dielectric constant: 78.4, screening length: 8.12261 Bohr) occupying 0.550077 of unit cell:	Completed after 0 iterations at t[s]:  12737.17
	FillingsUpdate:  mu: -0.171300000  nElectrons: 493.743330  magneticMoment: [ Abs: 0.00000  Tot: -0.00000 ]
	SubspaceRotationAdjust: set factor to 0.36
ElecMinimize: Iter:  36  G: -5163.546184371315576  |grad|_K:  1.196e-07  alpha:  9.849e-02  linmin: -1.898e-04  t[s]:  12782.35
	Linear fluid (dielectric constant: 78.4, screening length: 8.12261 Bohr) occupying 0.550043 of unit cell:	Completed after 10 iterations at t[s]:  12823.81
	Linear fluid (dielectric constant: 78.4, screening length: 8.12261 Bohr) occupying 0.550056 of unit cell:	Completed after 9 iterations at t[s]:  12855.31
	FillingsUpdate:  mu: -0.171300000  nElectrons: 493.743068  magneticMoment: [ Abs: 0.00000  Tot: -0.00000 ]
	SubspaceRotationAdjust: set factor to 0.293
ElecMinimize: Iter:  37  G: -5163.546184876294319  |grad|_K:  1.022e-07  alpha:  5.995e-02  linmin:  3.012e-05  t[s]:  12900.61
	Linear fluid (dielectric constant: 78.4, screening length: 8.12261 Bohr) occupying 0.550040 of unit cell:	Completed after 2 iterations at t[s]:  12941.00
	Linear fluid (dielectric constant: 78.4, screening length: 8.12261 Bohr) occupying 0.550032 of unit cell:	Completed after 2 iterations at t[s]:  12970.63
	FillingsUpdate:  mu: -0.171300000  nElectrons: 493.743863  magneticMoment: [ Abs: 0.00000  Tot: -0.00000 ]
	SubspaceRotationAdjust: set factor to 0.405
ElecMinimize: Iter:  38  G: -5163.546185384935598  |grad|_K:  8.425e-08  alpha:  8.987e-02  linmin:  1.709e-05  t[s]:  13015.79
	Linear fluid (dielectric constant: 78.4, screening length: 8.12261 Bohr) occupying 0.550013 of unit cell:	Completed after 8 iterations at t[s]:  13056.95
	Linear fluid (dielectric constant: 78.4, screening length: 8.12261 Bohr) occupying 0.550014 of unit cell:	Completed after 0 iterations at t[s]:  13086.56
	FillingsUpdate:  mu: -0.171300000  nElectrons: 493.744651  magneticMoment: [ Abs: 0.00000  Tot: -0.00000 ]
	SubspaceRotationAdjust: set factor to 0.355
ElecMinimize: Iter:  39  G: -5163.546185711717044  |grad|_K:  1.057e-07  alpha:  8.505e-02  linmin: -1.131e-04  t[s]:  13131.61
	Linear fluid (dielectric constant: 78.4, screening length: 8.12261 Bohr) occupying 0.549986 of unit cell:	Completed after 10 iterations at t[s]:  13174.34
	Linear fluid (dielectric constant: 78.4, screening length: 8.12261 Bohr) occupying 0.550000 of unit cell:	Completed after 9 iterations at t[s]:  13204.71
	FillingsUpdate:  mu: -0.171300000  nElectrons: 493.744262  magneticMoment: [ Abs: 0.00000  Tot: -0.00000 ]
	SubspaceRotationAdjust: set factor to 0.266
ElecMinimize: Iter:  40  G: -5163.546185985972443  |grad|_K:  7.319e-08  alpha:  4.290e-02  linmin:  2.493e-05  t[s]:  13249.78
	Linear fluid (dielectric constant: 78.4, screening length: 8.12261 Bohr) occupying 0.549992 of unit cell:	Completed after 2 iterations at t[s]:  13290.28
	Linear fluid (dielectric constant: 78.4, screening length: 8.12261 Bohr) occupying 0.549982 of unit cell:	Completed after 2 iterations at t[s]:  13320.04
	FillingsUpdate:  mu: -0.171300000  nElectrons: 493.744460  magneticMoment: [ Abs: 0.00000  Tot: -0.00000 ]
	SubspaceRotationAdjust: set factor to 0.358
ElecMinimize: Iter:  41  G: -5163.546186289156140  |grad|_K:  6.140e-08  alpha:  1.018e-01  linmin: -8.571e-05  t[s]:  13365.34
	Linear fluid (dielectric constant: 78.4, screening length: 8.12261 Bohr) occupying 0.549969 of unit cell:	Completed after 10 iterations at t[s]:  13406.68
	Linear fluid (dielectric constant: 78.4, screening length: 8.12261 Bohr) occupying 0.549971 of unit cell:	Completed after 0 iterations at t[s]:  13436.01
	FillingsUpdate:  mu: -0.171300000  nElectrons: 493.745075  magneticMoment: [ Abs: 0.00000  Tot: -0.00000 ]
	SubspaceRotationAdjust: set factor to 0.318
ElecMinimize: Iter:  42  G: -5163.546186476145522  |grad|_K:  7.305e-08  alpha:  8.763e-02  linmin:  3.141e-04  t[s]:  13481.82
	Linear fluid (dielectric constant: 78.4, screening length: 8.12261 Bohr) occupying 0.549954 of unit cell:	Completed after 10 iterations at t[s]:  13522.97
	Linear fluid (dielectric constant: 78.4, screening length: 8.12261 Bohr) occupying 0.549961 of unit cell:	Completed after 6 iterations at t[s]:  13552.97
	FillingsUpdate:  mu: -0.171300000  nElectrons: 493.744868  magneticMoment: [ Abs: 0.00000  Tot: +0.00000 ]
	SubspaceRotationAdjust: set factor to 0.244
ElecMinimize: Iter:  43  G: -5163.546186609533834  |grad|_K:  5.344e-08  alpha:  5.114e-02  linmin:  1.658e-05  t[s]:  13598.25
	Linear fluid (dielectric constant: 78.4, screening length: 8.12261 Bohr) occupying 0.549956 of unit cell:	Completed after 2 iterations at t[s]:  13638.68
	Linear fluid (dielectric constant: 78.4, screening length: 8.12261 Bohr) occupying 0.549951 of unit cell:	Completed after 2 iterations at t[s]:  13668.19
	FillingsUpdate:  mu: -0.171300000  nElectrons: 493.745140  magneticMoment: [ Abs: 0.00000  Tot: +0.00000 ]
	SubspaceRotationAdjust: set factor to 0.292
ElecMinimize: Iter:  44  G: -5163.546186762110665  |grad|_K:  4.009e-08  alpha:  9.521e-02  linmin: -2.124e-04  t[s]:  13713.50
	Linear fluid (dielectric constant: 78.4, screening length: 8.12261 Bohr) occupying 0.549946 of unit cell:	Completed after 7 iterations at t[s]:  13755.43
	Linear fluid (dielectric constant: 78.4, screening length: 8.12261 Bohr) occupying 0.549946 of unit cell:	Completed after 0 iterations at t[s]:  13784.67
	FillingsUpdate:  mu: -0.171300000  nElectrons: 493.745504  magneticMoment: [ Abs: 0.00000  Tot: +0.00000 ]
	SubspaceRotationAdjust: set factor to 0.281
ElecMinimize: Iter:  45  G: -5163.546186844718250  |grad|_K:  4.483e-08  alpha:  9.075e-02  linmin: -2.981e-04  t[s]:  13829.86
	Linear fluid (dielectric constant: 78.4, screening length: 8.12261 Bohr) occupying 0.549939 of unit cell:	Completed after 7 iterations at t[s]:  13870.76
	Linear fluid (dielectric constant: 78.4, screening length: 8.12261 Bohr) occupying 0.549941 of unit cell:	Completed after 2 iterations at t[s]:  13900.36
	FillingsUpdate:  mu: -0.171300000  nElectrons: 493.745361  magneticMoment: [ Abs: 0.00000  Tot: +0.00000 ]
	SubspaceRotationAdjust: set factor to 0.234
ElecMinimize: Iter:  46  G: -5163.546186922418201  |grad|_K:  3.774e-08  alpha:  6.793e-02  linmin:  1.435e-04  t[s]:  13945.44
ElecMinimize: Converged (|Delta G|<1.000000e-07 for 2 iters).
Setting wave functions to eigenvectors of Hamiltonian
Converging empty states (this may take a while): |deigs|: 3.369e-04
Single-point solvation energy estimate, DeltaG = -0.003502824089082

Computing DFT-D3 correction:
# coordination-number Cu 6.854 9.148 8.375 9.157 9.160 9.158 9.159 9.160 9.153 8.350 4.602 9.127 5.358 9.127 9.158 9.153 9.160 9.159 9.148 9.160 9.157 8.375 4.602 8.350 6.854 5.358
# diagonal-C6 Cu 175.00 175.00 175.00 175.00 175.00 175.00 175.00 175.00 175.00 175.00 175.00 175.00 175.00 175.00 175.00 175.00 175.00 175.00 175.00 175.00 175.00 175.00 175.00 175.00 175.00 175.00
EvdW_6 =   -0.161310
EvdW_8 =   -0.239379

# Ionic positions in cartesian coordinates:
ion Cu  -0.000003000000000   9.348120000000000  21.968073000000000 1
ion Cu   0.000000000000000   3.739243000000000  18.228829000000001 1
ion Cu   3.370512000000001   6.543688000000000  20.098451000000001 1
ion Cu   3.370515000000000   0.934811000000000  16.359207999999999 1
ion Cu  -0.000003000000000   7.478499000000001  12.619964000000000 1
ion Cu   0.000000000000000   1.869622000000000   8.880720999999999 1
ion Cu   3.370512000000000  10.282931000000001  14.489585999999999 1
ion Cu   3.370515000000000   4.674054000000000  10.750343000000001 1
ion Cu  -0.000003000000000  11.217741999999999   7.011099000000000 1
ion Cu   0.000000000000000   5.608865000000001   3.271856000000000 1
ion Cu   0.000000000000000   0.000000000000000  23.837693999999999 1
ion Cu   3.370512000000000   8.413310000000001   5.141478000000000 1
ion Cu   3.370515000000000   2.804432000000000   1.402234000000000 1
ion Cu   3.370508000000000  11.217741999999999  19.163676999999996 1
ion Cu   3.370512000000000   5.608865000000001  15.424359999999998 1
ion Cu   0.000000000000000   8.413310000000001  17.293982000000000 1
ion Cu   0.000003000000000   2.804432000000000  13.554738999999998 1
ion Cu   3.370508000000000   9.348120000000000   9.815495000000000 1
ion Cu   3.370512000000001   3.739243000000000   6.076251999999999 1
ion Cu   3.370512000000000   0.000000000000000  11.685116999999998 1
ion Cu   0.000000000000000   6.543688000000000   7.945874000000000 1
ion Cu   0.000003000000000   0.934811000000000   4.206630000000000 1
ion Cu   3.370508000000000   7.478499000000001   0.467387000000000 1
ion Cu   3.370512000000001   1.869622000000000  21.033297999999995 1
ion Cu   0.000000000000000  10.282931000000001   2.337009000000000 1
ion Cu   0.000003000000000   4.674054000000000  22.902920000000002 1

# Forces in Cartesian coordinates:
force Cu   0.000011521611327  -0.000760827521111   0.002072329559877 1
force Cu  -0.000034915226273   0.000576877190320  -0.001168205229578 1
force Cu   0.000016599852608   0.000520614026112   0.007006603929155 1
force Cu  -0.000014601076125   0.000140832700027  -0.001459633885009 1
force Cu   0.000084608057961   0.000361747862533  -0.000067882923251 1
force Cu   0.000033033293068  -0.000104227043425   0.000582346745011 1
force Cu  -0.000062667576160   0.000136826490241   0.000626534321617 1
force Cu   0.000048318723612  -0.000004885883750  -0.000286481487886 1
force Cu  -0.000102542920191  -0.000304474081505   0.002395430729188 1
force Cu  -0.000029668572289  -0.000474521472868  -0.007737401441296 1
force Cu   0.000056296046420  -0.000509145995951  -0.007089530330980 1
force Cu  -0.000022267931492   0.001224664856714  -0.002179147382750 1
force Cu  -0.000008752043192  -0.000470994228015   0.004259198904488 1
force Cu   0.000075354095414  -0.001238882051676   0.002199863433202 1
force Cu  -0.000080784729074   0.000112413504700  -0.000634608043583 1
force Cu   0.000157384088359   0.000292519971608  -0.002403300257133 1
force Cu  -0.000117307544889   0.000008022085707   0.000183467042122 1
force Cu   0.000147773095578  -0.000149949878509  -0.000705753214218 1
force Cu  -0.000038462481919  -0.000576829817792   0.001191919847888 1
force Cu  -0.000054604591457  -0.000357360162566  -0.000024682915429 1
force Cu   0.000002752835334  -0.000128771953863   0.001457173529223 1
force Cu  -0.000029141483319  -0.000508505892573  -0.006948240046528 1
force Cu  -0.000028290277917   0.000514059406701   0.007146784294672 1
force Cu  -0.000018113507118   0.000481855721953   0.007788980941814 1
force Cu   0.000069228149522   0.000752709730532  -0.002020328627088 1
force Cu  -0.000057187516345   0.000472243862490  -0.004228517883054 1

# Energy components:
   A_diel =        0.0354838204538007
   Eewald =    47453.3492808475930360
       EH =    52240.5259406854893314
     Eloc =  -105927.2596508469287073
      Enl =      952.2328089311062058
     EvdW =       -0.4006884602830818
      Exc =     -504.5441534248486164
 Exc_core =        1.2212571625317838
       KE =      536.6948196550060857
  MuShift =        0.0208948360004353
-------------------------------------
     Etot =    -5248.1240067938751963
       TS =        0.0007605077814926
-------------------------------------
        F =    -5248.1247673016569024
      muN =      -84.5785803792385025
-------------------------------------
        G =    -5163.5461869224182010


Dumping 'jdft.fillings' ... done
Dumping 'jdft.wfns' ... done
Dumping 'jdft.fluidState' ... done
Dumping 'jdft.ionpos' ... done
Dumping 'jdft.lattice' ... done
Dumping 'jdft.eigenvals' ... done
Dumping 'jdft.eigStats' ... 
	eMin: -4.311196 at state 0 ( [ +0.000000 +0.000000 +0.000000 ] spin 1 )
	HOMO: -0.171746 at state 69 ( [ -0.111111 +0.250000 +0.000000 ] spin -1 )
	mu  : -0.171300
	LUMO: -0.170503 at state 48 ( [ +0.333333 +0.000000 +0.000000 ] spin -1 )
	eMax: +0.188557 at state 7 ( [ +0.111111 -0.250000 +0.000000 ] spin 1 )
	HOMO-LUMO gap: +0.001243
[...]
Dumping 'jdft.Ecomponents' ... done
IonicMinimize: Iter:   4  G: -5163.548893165471782  |grad|_K:  1.009e-04  alpha:  1.000e+00  linmin: -7.309e-02  t[s]:  30532.88

#--- Lowdin population analysis ---
# oxidation-state Cu +0.073 +0.071 +0.040 +0.074 +0.074 +0.075 +0.076 +0.077 +0.073 +0.005 +0.291 +0.047 +0.224 +0.047 +0.076 +0.074 +0.078 +0.076 +0.071 +0.074 +0.073 +0.039 +0.291 +0.005 +0.073 +0.224
# magnetic-moments Cu -0.000 +0.000 -0.000 +0.000 -0.000 -0.000 +0.000 -0.000 -0.000 +0.000 +0.000 +0.000 -0.000 +0.000 -0.000 +0.000 -0.000 +0.000 +0.000 -0.000 -0.000 -0.000 -0.000 +0.000 -0.000 -0.000


Computing DFT-D3 correction:
# coordination-number Cu 6.949 9.052 8.333 9.083 9.144 9.098 9.153 9.137 9.080 8.328 4.895 9.094 5.583 9.094 9.098 9.081 9.138 9.153 9.051 9.143 9.083 8.332 4.895 8.327 6.949 5.583
# diagonal-C6 Cu 175.00 175.00 175.00 175.00 175.00 175.00 175.00 175.00 175.00 175.00 175.00 175.00 175.00 175.00 175.00 175.00 175.00 175.00 175.00 175.00 175.00 175.00 175.00 175.00 175.00 175.00
EvdW_6 =   -0.161253
EvdW_8 =   -0.239202
Shifting auxilliary hamiltonian by 0.000051 to set nElectrons=493.761988

-------- Electronic minimization -----------
	Linear fluid (dielectric constant: 78.4, screening length: 8.12261 Bohr) occupying 0.551768 of unit cell:	Completed after 12 iterations at t[s]:  30578.09
	FillingsUpdate:  mu: -0.171300000  nElectrons: 493.761988  magneticMoment: [ Abs: 0.00000  Tot: -0.00000 ]
ElecMinimize: Iter:   0  G: -5163.548847870002646  |grad|_K:  4.594e-07  alpha:  1.000e+00
	Linear fluid (dielectric constant: 78.4, screening length: 8.12261 Bohr) occupying 0.551770 of unit cell:	Completed after 19 iterations at t[s]:  30672.14
	Linear fluid (dielectric constant: 78.4, screening length: 8.12261 Bohr) occupying 0.551769 of unit cell:	Completed after 19 iterations at t[s]:  30704.00
	FillingsUpdate:  mu: -0.171300000  nElectrons: 493.759064  magneticMoment: [ Abs: 0.00000  Tot: -0.00000 ]
	SubspaceRotationAdjust: set factor to 0.111
ElecMinimize: Iter:   1  G: -5163.548860923203392  |grad|_K:  3.022e-07  alpha:  1.119e-01  linmin: -2.046e-04  t[s]:  30749.14
	Linear fluid (dielectric constant: 78.4, screening length: 8.12261 Bohr) occupying 0.551768 of unit cell:	Completed after 11 iterations at t[s]:  30790.75
	Linear fluid (dielectric constant: 78.4, screening length: 8.12261 Bohr) occupying 0.551767 of unit cell:	Completed after 11 iterations at t[s]:  30821.55
	FillingsUpdate:  mu: -0.171300000  nElectrons: 493.762861  magneticMoment: [ Abs: 0.00000  Tot: -0.00000 ]
	SubspaceRotationAdjust: set factor to 0.0876
ElecMinimize: Iter:   2  G: -5163.548872785888307  |grad|_K:  2.540e-07  alpha:  2.349e-01  linmin: -1.236e-04  t[s]:  30866.85
	Linear fluid (dielectric constant: 78.4, screening length: 8.12261 Bohr) occupying 0.551767 of unit cell:	Completed after 11 iterations at t[s]:  30908.56
	Linear fluid (dielectric constant: 78.4, screening length: 8.12261 Bohr) occupying 0.551767 of unit cell:	Completed after 10 iterations at t[s]:  30939.26
	FillingsUpdate:  mu: -0.171300000  nElectrons: 493.761761  magneticMoment: [ Abs: 0.00000  Tot: -0.00000 ]
	SubspaceRotationAdjust: set factor to 0.0891
ElecMinimize: Iter:   3  G: -5163.548878104296818  |grad|_K:  1.769e-07  alpha:  1.496e-01  linmin:  7.585e-06  t[s]:  30984.36
	Linear fluid (dielectric constant: 78.4, screening length: 8.12261 Bohr) occupying 0.551767 of unit cell:	Completed after 6 iterations at t[s]:  31025.55
	Linear fluid (dielectric constant: 78.4, screening length: 8.12261 Bohr) occupying 0.551767 of unit cell:	Completed after 2 iterations at t[s]:  31055.26
	FillingsUpdate:  mu: -0.171300000  nElectrons: 493.761809  magneticMoment: [ Abs: 0.00000  Tot: -0.00000 ]
	SubspaceRotationAdjust: set factor to 0.119
ElecMinimize: Iter:   4  G: -5163.548881194637033  |grad|_K:  1.166e-07  alpha:  1.799e-01  linmin: -3.482e-05  t[s]:  31100.27
	Linear fluid (dielectric constant: 78.4, screening length: 8.12261 Bohr) occupying 0.551767 of unit cell:	Completed after 10 iterations at t[s]:  31142.57
	Linear fluid (dielectric constant: 78.4, screening length: 8.12261 Bohr) occupying 0.551767 of unit cell:	Completed after 7 iterations at t[s]:  31172.93
	FillingsUpdate:  mu: -0.171300000  nElectrons: 493.763121  magneticMoment: [ Abs: 0.00000  Tot: -0.00000 ]
	SubspaceRotationAdjust: set factor to 0.12
ElecMinimize: Iter:   5  G: -5163.548883094018493  |grad|_K:  1.389e-07  alpha:  2.549e-01  linmin:  9.536e-05  t[s]:  31217.98
	Linear fluid (dielectric constant: 78.4, screening length: 8.12261 Bohr) occupying 0.551766 of unit cell:	Completed after 10 iterations at t[s]:  31259.65
	Linear fluid (dielectric constant: 78.4, screening length: 8.12261 Bohr) occupying 0.551766 of unit cell:	Completed after 0 iterations at t[s]:  31289.10
	FillingsUpdate:  mu: -0.171300000  nElectrons: 493.762439  magneticMoment: [ Abs: 0.00000  Tot: -0.00000 ]
	SubspaceRotationAdjust: set factor to 0.144
ElecMinimize: Iter:   6  G: -5163.548885759503719  |grad|_K:  1.117e-07  alpha:  2.535e-01  linmin:  2.980e-05  t[s]:  31334.10
	Linear fluid (dielectric constant: 78.4, screening length: 8.12261 Bohr) occupying 0.551765 of unit cell:	Completed after 7 iterations at t[s]:  31375.24
	Linear fluid (dielectric constant: 78.4, screening length: 8.12261 Bohr) occupying 0.551765 of unit cell:	Completed after 2 iterations at t[s]:  31405.10
	FillingsUpdate:  mu: -0.171300000  nElectrons: 493.762295  magneticMoment: [ Abs: 0.00000  Tot: -0.00000 ]
	SubspaceRotationAdjust: set factor to 0.173
ElecMinimize: Iter:   7  G: -5163.548887057362663  |grad|_K:  1.223e-07  alpha:  1.902e-01  linmin:  8.568e-06  t[s]:  31450.73
	Linear fluid (dielectric constant: 78.4, screening length: 8.12261 Bohr) occupying 0.551764 of unit cell:	Completed after 7 iterations at t[s]:  31491.89
	Linear fluid (dielectric constant: 78.4, screening length: 8.12261 Bohr) occupying 0.551763 of unit cell:	Completed after 8 iterations at t[s]:  31522.24
	FillingsUpdate:  mu: -0.171300000  nElectrons: 493.762764  magneticMoment: [ Abs: 0.00000  Tot: -0.00000 ]
	SubspaceRotationAdjust: set factor to 0.179
ElecMinimize: Iter:   8  G: -5163.548890081537138  |grad|_K:  1.334e-07  alpha:  3.717e-01  linmin:  7.174e-05  t[s]:  31567.29
	Linear fluid (dielectric constant: 78.4, screening length: 8.12261 Bohr) occupying 0.551760 of unit cell:	Completed after 10 iterations at t[s]:  31608.64
	Linear fluid (dielectric constant: 78.4, screening length: 8.12261 Bohr) occupying 0.551761 of unit cell:	Completed after 10 iterations at t[s]:  31639.12
	FillingsUpdate:  mu: -0.171300000  nElectrons: 493.762235  magneticMoment: [ Abs: 0.00000  Tot: -0.00000 ]
	SubspaceRotationAdjust: set factor to 0.203
ElecMinimize: Iter:   9  G: -5163.548891759810431  |grad|_K:  1.348e-07  alpha:  1.735e-01  linmin:  2.733e-06  t[s]:  31684.21
	Linear fluid (dielectric constant: 78.4, screening length: 8.12261 Bohr) occupying 0.551760 of unit cell:	Completed after 10 iterations at t[s]:  31725.74
	Linear fluid (dielectric constant: 78.4, screening length: 8.12261 Bohr) occupying 0.551760 of unit cell:	Completed after 7 iterations at t[s]:  31757.33
	FillingsUpdate:  mu: -0.171300000  nElectrons: 493.763193  magneticMoment: [ Abs: 0.00000  Tot: -0.00000 ]
	SubspaceRotationAdjust: set factor to 0.174
ElecMinimize: Iter:  10  G: -5163.548893797376877  |grad|_K:  1.254e-07  alpha:  2.043e-01  linmin: -1.621e-06  t[s]:  31802.49
	Linear fluid (dielectric constant: 78.4, screening length: 8.12261 Bohr) occupying 0.551760 of unit cell:	Completed after 11 iterations at t[s]:  31844.15
	Linear fluid (dielectric constant: 78.4, screening length: 8.12261 Bohr) occupying 0.551760 of unit cell:	Completed after 10 iterations at t[s]:  31874.90
	FillingsUpdate:  mu: -0.171300000  nElectrons: 493.762147  magneticMoment: [ Abs: 0.00000  Tot: -0.00000 ]
	SubspaceRotationAdjust: set factor to 0.13
ElecMinimize: Iter:  11  G: -5163.548894703989390  |grad|_K:  1.016e-07  alpha:  1.047e-01  linmin:  1.069e-05  t[s]:  31919.96
	Linear fluid (dielectric constant: 78.4, screening length: 8.12261 Bohr) occupying 0.551759 of unit cell:	Completed after 9 iterations at t[s]:  31961.18
	Linear fluid (dielectric constant: 78.4, screening length: 8.12261 Bohr) occupying 0.551759 of unit cell:	Completed after 8 iterations at t[s]:  31991.63
	FillingsUpdate:  mu: -0.171300000  nElectrons: 493.763123  magneticMoment: [ Abs: 0.00000  Tot: -0.00000 ]
	SubspaceRotationAdjust: set factor to 0.113
ElecMinimize: Iter:  12  G: -5163.548895801874096  |grad|_K:  1.015e-07  alpha:  1.942e-01  linmin:  1.088e-05  t[s]:  32036.73
	Linear fluid (dielectric constant: 78.4, screening length: 8.12261 Bohr) occupying 0.551759 of unit cell:	Completed after 7 iterations at t[s]:  32078.33
	Linear fluid (dielectric constant: 78.4, screening length: 8.12261 Bohr) occupying 0.551759 of unit cell:	Completed after 2 iterations at t[s]:  32108.34
	FillingsUpdate:  mu: -0.171300000  nElectrons: 493.763048  magneticMoment: [ Abs: 0.00000  Tot: -0.00000 ]
	SubspaceRotationAdjust: set factor to 0.135
ElecMinimize: Iter:  13  G: -5163.548896666143264  |grad|_K:  6.418e-08  alpha:  1.535e-01  linmin:  1.599e-05  t[s]:  32153.43
	Linear fluid (dielectric constant: 78.4, screening length: 8.12261 Bohr) occupying 0.551760 of unit cell:	Completed after 10 iterations at t[s]:  32195.25
	Linear fluid (dielectric constant: 78.4, screening length: 8.12261 Bohr) occupying 0.551760 of unit cell:	Completed after 0 iterations at t[s]:  32224.72
	FillingsUpdate:  mu: -0.171300000  nElectrons: 493.762498  magneticMoment: [ Abs: 0.00000  Tot: -0.00000 ]
	SubspaceRotationAdjust: set factor to 0.109
ElecMinimize: Iter:  14  G: -5163.548896984513704  |grad|_K:  5.447e-08  alpha:  1.407e-01  linmin:  4.106e-04  t[s]:  32269.75
	Linear fluid (dielectric constant: 78.4, screening length: 8.12261 Bohr) occupying 0.551760 of unit cell:	Completed after 7 iterations at t[s]:  32310.95
	Linear fluid (dielectric constant: 78.4, screening length: 8.12261 Bohr) occupying 0.551760 of unit cell:	Completed after 0 iterations at t[s]:  32341.19
	FillingsUpdate:  mu: -0.171300000  nElectrons: 493.762889  magneticMoment: [ Abs: 0.00000  Tot: -0.00000 ]
	SubspaceRotationAdjust: set factor to 0.0843
ElecMinimize: Iter:  15  G: -5163.548897201182626  |grad|_K:  3.443e-08  alpha:  1.387e-01  linmin: -4.210e-04  t[s]:  32386.47
	Linear fluid (dielectric constant: 78.4, screening length: 8.12261 Bohr) occupying 0.551761 of unit cell:	Completed after 2 iterations at t[s]:  32427.06
	Linear fluid (dielectric constant: 78.4, screening length: 8.12261 Bohr) occupying 0.551761 of unit cell:	Completed after 0 iterations at t[s]:  32456.57
	FillingsUpdate:  mu: -0.171300000  nElectrons: 493.762826  magneticMoment: [ Abs: 0.00000  Tot: -0.00000 ]
	SubspaceRotationAdjust: set factor to 0.0917
ElecMinimize: Iter:  16  G: -5163.548897314745773  |grad|_K:  3.302e-08  alpha:  1.674e-01  linmin: -7.253e-04  t[s]:  32501.44
	Linear fluid (dielectric constant: 78.4, screening length: 8.12261 Bohr) occupying 0.551762 of unit cell:	Completed after 6 iterations at t[s]:  32542.39
	Linear fluid (dielectric constant: 78.4, screening length: 8.12261 Bohr) occupying 0.551762 of unit cell:	Completed after 0 iterations at t[s]:  32571.92
	FillingsUpdate:  mu: -0.171300000  nElectrons: 493.762611  magneticMoment: [ Abs: 0.00000  Tot: -0.00000 ]
	SubspaceRotationAdjust: set factor to 0.0832
ElecMinimize: Iter:  17  G: -5163.548897417921580  |grad|_K:  2.289e-08  alpha:  1.643e-01  linmin: -4.715e-04  t[s]:  32616.94
	Linear fluid (dielectric constant: 78.4, screening length: 8.12261 Bohr) occupying 0.551762 of unit cell:	Completed after 2 iterations at t[s]:  32658.30
	Linear fluid (dielectric constant: 78.4, screening length: 8.12261 Bohr) occupying 0.551762 of unit cell:	Completed after 0 iterations at t[s]:  32687.94
	FillingsUpdate:  mu: -0.171300000  nElectrons: 493.762702  magneticMoment: [ Abs: 0.00000  Tot: -0.00000 ]
	SubspaceRotationAdjust: set factor to 0.0948
ElecMinimize: Iter:  18  G: -5163.548897457329076  |grad|_K:  1.873e-08  alpha:  1.328e-01  linmin:  2.505e-04  t[s]:  32733.09
	Linear fluid (dielectric constant: 78.4, screening length: 8.12261 Bohr) occupying 0.551762 of unit cell:	Completed after 3 iterations at t[s]:  32773.77
	Linear fluid (dielectric constant: 78.4, screening length: 8.12261 Bohr) occupying 0.551762 of unit cell:	Completed after 0 iterations at t[s]:  32803.28
	FillingsUpdate:  mu: -0.171300000  nElectrons: 493.762820  magneticMoment: [ Abs: 0.00000  Tot: -0.00000 ]
	SubspaceRotationAdjust: set factor to 0.0954
ElecMinimize: Iter:  19  G: -5163.548897482808570  |grad|_K:  1.436e-08  alpha:  1.329e-01  linmin: -2.896e-03  t[s]:  32848.02
ElecMinimize: Converged (|Delta G|<1.000000e-07 for 2 iters).
Setting wave functions to eigenvectors of Hamiltonian
Converging empty states (this may take a while): |deigs|: 9.648e-09

Computing DFT-D3 correction:
# coordination-number Cu 6.949 9.052 8.333 9.083 9.144 9.098 9.153 9.137 9.080 8.328 4.895 9.094 5.583 9.094 9.098 9.081 9.138 9.153 9.051 9.143 9.083 8.332 4.895 8.327 6.949 5.583
# diagonal-C6 Cu 175.00 175.00 175.00 175.00 175.00 175.00 175.00 175.00 175.00 175.00 175.00 175.00 175.00 175.00 175.00 175.00 175.00 175.00 175.00 175.00 175.00 175.00 175.00 175.00 175.00 175.00
EvdW_6 =   -0.161253
EvdW_8 =   -0.239202

# Ionic positions in cartesian coordinates:
ion Cu   0.000974570418842   9.329000015131458  22.004214024028652 1
ion Cu  -0.001011434380797   3.747581252479745  18.223324800621459 1
ion Cu   3.370662450779038   6.560674141261154  20.200660030894852 1
ion Cu   3.369959272391208   0.945998059138271  16.367545263460727 1
ion Cu   0.001333870367439   7.482315148536598  12.616313844621171 1
ion Cu  -0.000219906367758   1.859953120810172   8.869171099559367 1
ion Cu   3.370445214242598  10.289443685235307  14.497793969597391 1
ion Cu   3.371277850753025   4.669596992282129  10.748562445249009 1
ion Cu  -0.001235530934541  11.218801408191554   7.021323727266291 1
ion Cu  -0.001014767317864   5.593235059167972   3.182083947403685 1
ion Cu   0.001476818873672  -0.030859960514786  23.713269421373262 1
ion Cu   3.370032929622552   8.429139211189165   5.140751719379822 1
ion Cu   3.369758183667241   2.801763188040179   1.450819900041432 1
ion Cu   3.372257393089088  11.201589850224803  19.164260414205312 1
ion Cu   3.369816870333510   5.618537782520789  15.435890297289495 1
ion Cu   0.002299796828745   8.412212710523280  17.283596215032656 1
ion Cu  -0.002246349151436   2.809058785491241  13.556686037609685 1
ion Cu   3.371950523867873   9.341712181152486   9.807469421136240 1
ion Cu   3.369849938011710   3.730740164177609   6.081831544817458 1
ion Cu   3.369653448454380  -0.003595204797924  11.689036370303880 1
ion Cu   0.000128605295780   6.532722434999448   7.937789523690014 1
ion Cu  -0.000263821853382   0.917851784052515   4.104189247150750 1
ion Cu   3.370312144623487   7.509036569439546   0.591437830297875 1
ion Cu   3.370625206304499   1.885431902658414  21.123315476139169 1
ion Cu   0.000881209563598  10.301798238787921   2.300820163935644 1
ion Cu  -0.001051487482504   4.676895479820963  22.854119264894670 1

# Forces in Cartesian coordinates:
force Cu   0.000003401330323  -0.000073324495989  -0.000185544497014 1
force Cu   0.000014749604174   0.000078161146375  -0.000030562977096 1
force Cu   0.000002982423075  -0.000052622991056  -0.000017050604603 1
force Cu  -0.000002830365986   0.000005760134071  -0.000165711754523 1
force Cu   0.000004567458654  -0.000016718316025  -0.000065316535642 1
force Cu   0.000008406013887  -0.000009394797139   0.000022548008759 1
force Cu   0.000000213011617   0.000036859977254  -0.000145518115173 1
force Cu  -0.000007942224073   0.000013511923302   0.000054801874912 1
force Cu  -0.000002799862495  -0.000046279587122   0.000027482821363 1
force Cu   0.000006157302507   0.000125729171401  -0.000009606069761 1
force Cu   0.000009200497457   0.000028673311808  -0.000026546830228 1
force Cu  -0.000005438640867   0.000004531266865  -0.000050275875439 1
force Cu  -0.000000864424826   0.000077204276907   0.000028737905520 1
force Cu   0.000004302662162  -0.000001692366377   0.000057972581216 1
force Cu  -0.000004619024498   0.000017192489147  -0.000066814746160 1
force Cu   0.000003184670298   0.000036431866346  -0.000044211735084 1
force Cu   0.000010961491185  -0.000013782661260  -0.000150035643592 1
force Cu   0.000000105820588  -0.000042745171370   0.000063935075872 1
force Cu  -0.000007155722764  -0.000073405286044   0.000033426827339 1
force Cu  -0.000001644048468   0.000015693582451  -0.000028975564507 1
force Cu   0.000004026760853  -0.000006930785262   0.000146364990133 1
force Cu  -0.000001143710027   0.000048132406359   0.000025598763821 1
force Cu  -0.000000307262440  -0.000029571885356   0.000081827414343 1
force Cu   0.000002380634386  -0.000131945215212   0.000020247837192 1
force Cu  -0.000000583972557   0.000083784364054   0.000220843864207 1
force Cu   0.000008264477774  -0.000083124233760   0.000027284650989 1

# Energy components:
   A_diel =        0.0333610873114470
   Eewald =    47443.0748473948333412
       EH =    52230.3916653518608655
     Eloc =  -105906.8352859650331084
      Enl =      952.2163948536810949
     EvdW =       -0.4004550053732427
      Exc =     -504.5577413479991833
 Exc_core =        1.2212428856994486
       KE =      536.7068123074479900
  MuShift =        0.0194622302464044
-------------------------------------
     Etot =    -5248.1296962073247414
       TS =        0.0007723324038805
-------------------------------------
        F =    -5248.1304685397290086
      muN =      -84.5815710569203105
-------------------------------------
        G =    -5163.5488974828085702


Dumping 'jdft.fillings' ... done
Dumping 'jdft.wfns' ... done
Dumping 'jdft.fluidState' ... done
Dumping 'jdft.ionpos' ... done
Dumping 'jdft.lattice' ... done
Dumping 'jdft.eigenvals' ... done
Dumping 'jdft.eigStats' ... 
	eMin: -4.310829 at state 36 ( [ +0.000000 +0.000000 +0.000000 ] spin -1 )
	HOMO: -0.171782 at state 27 ( [ -0.333333 -0.250000 +0.000000 ] spin 1 )
	mu  : -0.171300
	LUMO: -0.170718 at state 63 ( [ -0.333333 -0.250000 +0.000000 ] spin -1 )
	eMax: +0.188809 at state 69 ( [ -0.111111 +0.250000 +0.000000 ] spin -1 )
	HOMO-LUMO gap: +0.001064
	Optical gap  : +0.001064 at state 13 ( [ +0.333333 +0.250000 +0.000000 ] spin 1 )
Dumping 'jdft.Ecomponents' ... done
IonicMinimize: Iter:   5  G: -5163.548897482808570  |grad|_K:  6.185e-05  alpha:  1.000e+00  linmin:  2.113e-01  t[s]:  32966.92
IonicMinimize: Converged (|grad|_K<1.000000e-04).

#--- Lowdin population analysis ---
# oxidation-state Cu +0.072 +0.071 +0.039 +0.073 +0.075 +0.076 +0.076 +0.078 +0.074 +0.005 +0.290 +0.047 +0.224 +0.047 +0.076 +0.073 +0.078 +0.076 +0.071 +0.075 +0.074 +0.040 +0.290 +0.005 +0.072 +0.224
# magnetic-moments Cu -0.000 -0.000 +0.000 -0.000 +0.000 +0.000 -0.000 -0.000 +0.000 -0.000 -0.000 -0.000 -0.000 +0.000 +0.000 +0.000 +0.000 +0.000 -0.000 -0.000 +0.000 +0.000 -0.000 +0.000 -0.000 +0.000


Dumping 'jdft.n_up' ... done
Dumping 'jdft.n_dn' ... done
Dumping 'jdft.tau_up' ... done
Dumping 'jdft.tau_dn' ... done
Dumping 'jdft.eigenvals' ... done
Dumping 'jdft.eigStats' ... 
	eMin: -4.310829 at state 36 ( [ +0.000000 +0.000000 +0.000000 ] spin -1 )
	HOMO: -0.171782 at state 27 ( [ -0.333333 -0.250000 +0.000000 ] spin 1 )
	mu  : -0.171300
	LUMO: -0.170718 at state 63 ( [ -0.333333 -0.250000 +0.000000 ] spin -1 )
	eMax: +0.188809 at state 69 ( [ -0.111111 +0.250000 +0.000000 ] spin -1 )
	HOMO-LUMO gap: +0.001064
	Optical gap  : +0.001064 at state 13 ( [ +0.333333 +0.250000 +0.000000 ] spin 1 )
Dumping 'jdft.kPts' ... done
Dumping 'jdft.dosUp' ... done.
Dumping 'jdft.dosDn' ... done.
End date and time: Tue Dec  7 01:18:37 2021  (Duration: 0-9:10:36.01)
Done!
