
*************** JDFTx 1.7.0 (git hash 5f12716a) ***************

Start date and time: Tue Sep 13 18:30:11 2022
Executable /home/nisi6161/jdftx_alpine/build/jdftx with command-line: -i in
Running on hosts (process indices):  c3cpu-a2-u5-1.rc.int.colorado.edu (0-23)
Divided in process groups (process indices):  0 (0)  1 (1)  2 (2)  3 (3)  4 (4)  5 (5)  6 (6)  7 (7)  8 (8)  9 (9)  10 (10)  11 (11)  12 (12)  13 (13)  14 (14)  15 (15)  16 (16)  17 (17)  18 (18)  19 (19)  20 (20)  21 (21)  22 (22)  23 (23)
Resource initialization completed at t[s]:      0.00
Run totals: 24 processes, 64 threads, 0 GPUs


Input parsed successfully to the following command list (including defaults):

basis kpoint-dependent
converge-empty-states yes
coords-type Cartesian
core-overlap-check none
coulomb-interaction Periodic
davidson-band-ratio 1.1
density-of-states Etol 1.000000e-06 Esigma 1.000000e-03 \
		Complete \
	Total \
	OrthoOrbital Ag 1   s \
	OrthoOrbital Ag 1   p \
	OrthoOrbital Ag 1   px \
	OrthoOrbital Ag 1   py \
	OrthoOrbital Ag 1   pz \
	OrthoOrbital Ag 1   d \
	OrthoOrbital Ag 1   dxy \
	OrthoOrbital Ag 1   dyz \
	OrthoOrbital Ag 1   dz2 \
	OrthoOrbital Ag 1   dxz \
	OrthoOrbital Ag 1   dx2-y2 \
	OrthoOrbital Ag 2   s \
	OrthoOrbital Ag 2   p \
	OrthoOrbital Ag 2   px \
	OrthoOrbital Ag 2   py \
	OrthoOrbital Ag 2   pz \
	OrthoOrbital Ag 2   d \
	OrthoOrbital Ag 2   dxy \
	OrthoOrbital Ag 2   dyz \
	OrthoOrbital Ag 2   dz2 \
	OrthoOrbital Ag 2   dxz \
	OrthoOrbital Ag 2   dx2-y2 \
	OrthoOrbital Ag 3   s \
	OrthoOrbital Ag 3   p \
	OrthoOrbital Ag 3   px \
	OrthoOrbital Ag 3   py \
	OrthoOrbital Ag 3   pz \
	OrthoOrbital Ag 3   d \
	OrthoOrbital Ag 3   dxy \
	OrthoOrbital Ag 3   dyz \
	OrthoOrbital Ag 3   dz2 \
	OrthoOrbital Ag 3   dxz \
	OrthoOrbital Ag 3   dx2-y2 \
	OrthoOrbital Ag 4   s \
	OrthoOrbital Ag 4   p \
	OrthoOrbital Ag 4   px \
	OrthoOrbital Ag 4   py \
	OrthoOrbital Ag 4   pz \
	OrthoOrbital Ag 4   d \
	OrthoOrbital Ag 4   dxy \
	OrthoOrbital Ag 4   dyz \
	OrthoOrbital Ag 4   dz2 \
	OrthoOrbital Ag 4   dxz \
	OrthoOrbital Ag 4   dx2-y2 \
	OrthoOrbital Ag 5   s \
	OrthoOrbital Ag 5   p \
	OrthoOrbital Ag 5   px \
	OrthoOrbital Ag 5   py \
	OrthoOrbital Ag 5   pz \
	OrthoOrbital Ag 5   d \
	OrthoOrbital Ag 5   dxy \
	OrthoOrbital Ag 5   dyz \
	OrthoOrbital Ag 5   dz2 \
	OrthoOrbital Ag 5   dxz \
	OrthoOrbital Ag 5   dx2-y2 \
	OrthoOrbital Ag 6   s \
	OrthoOrbital Ag 6   p \
	OrthoOrbital Ag 6   px \
	OrthoOrbital Ag 6   py \
	OrthoOrbital Ag 6   pz \
	OrthoOrbital Ag 6   d \
	OrthoOrbital Ag 6   dxy \
	OrthoOrbital Ag 6   dyz \
	OrthoOrbital Ag 6   dz2 \
	OrthoOrbital Ag 6   dxz \
	OrthoOrbital Ag 6   dx2-y2 \
	OrthoOrbital Ag 7   s \
	OrthoOrbital Ag 7   p \
	OrthoOrbital Ag 7   px \
	OrthoOrbital Ag 7   py \
	OrthoOrbital Ag 7   pz \
	OrthoOrbital Ag 7   d \
	OrthoOrbital Ag 7   dxy \
	OrthoOrbital Ag 7   dyz \
	OrthoOrbital Ag 7   dz2 \
	OrthoOrbital Ag 7   dxz \
	OrthoOrbital Ag 7   dx2-y2 \
	OrthoOrbital Ag 8   s \
	OrthoOrbital Ag 8   p \
	OrthoOrbital Ag 8   px \
	OrthoOrbital Ag 8   py \
	OrthoOrbital Ag 8   pz \
	OrthoOrbital Ag 8   d \
	OrthoOrbital Ag 8   dxy \
	OrthoOrbital Ag 8   dyz \
	OrthoOrbital Ag 8   dz2 \
	OrthoOrbital Ag 8   dxz \
	OrthoOrbital Ag 8   dx2-y2 \
	OrthoOrbital Ag 9   s \
	OrthoOrbital Ag 9   p \
	OrthoOrbital Ag 9   px \
	OrthoOrbital Ag 9   py \
	OrthoOrbital Ag 9   pz \
	OrthoOrbital Ag 9   d \
	OrthoOrbital Ag 9   dxy \
	OrthoOrbital Ag 9   dyz \
	OrthoOrbital Ag 9   dz2 \
	OrthoOrbital Ag 9   dxz \
	OrthoOrbital Ag 9   dx2-y2 \
	OrthoOrbital Ag 10   s \
	OrthoOrbital Ag 10   p \
	OrthoOrbital Ag 10   px \
	OrthoOrbital Ag 10   py \
	OrthoOrbital Ag 10   pz \
	OrthoOrbital Ag 10   d \
	OrthoOrbital Ag 10   dxy \
	OrthoOrbital Ag 10   dyz \
	OrthoOrbital Ag 10   dz2 \
	OrthoOrbital Ag 10   dxz \
	OrthoOrbital Ag 10   dx2-y2 \
	OrthoOrbital Ag 11   s \
	OrthoOrbital Ag 11   p \
	OrthoOrbital Ag 11   px \
	OrthoOrbital Ag 11   py \
	OrthoOrbital Ag 11   pz \
	OrthoOrbital Ag 11   d \
	OrthoOrbital Ag 11   dxy \
	OrthoOrbital Ag 11   dyz \
	OrthoOrbital Ag 11   dz2 \
	OrthoOrbital Ag 11   dxz \
	OrthoOrbital Ag 11   dx2-y2 \
	OrthoOrbital Ag 12   s \
	OrthoOrbital Ag 12   p \
	OrthoOrbital Ag 12   px \
	OrthoOrbital Ag 12   py \
	OrthoOrbital Ag 12   pz \
	OrthoOrbital Ag 12   d \
	OrthoOrbital Ag 12   dxy \
	OrthoOrbital Ag 12   dyz \
	OrthoOrbital Ag 12   dz2 \
	OrthoOrbital Ag 12   dxz \
	OrthoOrbital Ag 12   dx2-y2 \
	OrthoOrbital Ag 13   s \
	OrthoOrbital Ag 13   p \
	OrthoOrbital Ag 13   px \
	OrthoOrbital Ag 13   py \
	OrthoOrbital Ag 13   pz \
	OrthoOrbital Ag 13   d \
	OrthoOrbital Ag 13   dxy \
	OrthoOrbital Ag 13   dyz \
	OrthoOrbital Ag 13   dz2 \
	OrthoOrbital Ag 13   dxz \
	OrthoOrbital Ag 13   dx2-y2 \
	OrthoOrbital Ag 14   s \
	OrthoOrbital Ag 14   p \
	OrthoOrbital Ag 14   px \
	OrthoOrbital Ag 14   py \
	OrthoOrbital Ag 14   pz \
	OrthoOrbital Ag 14   d \
	OrthoOrbital Ag 14   dxy \
	OrthoOrbital Ag 14   dyz \
	OrthoOrbital Ag 14   dz2 \
	OrthoOrbital Ag 14   dxz \
	OrthoOrbital Ag 14   dx2-y2 \
	OrthoOrbital Ag 15   s \
	OrthoOrbital Ag 15   p \
	OrthoOrbital Ag 15   px \
	OrthoOrbital Ag 15   py \
	OrthoOrbital Ag 15   pz \
	OrthoOrbital Ag 15   d \
	OrthoOrbital Ag 15   dxy \
	OrthoOrbital Ag 15   dyz \
	OrthoOrbital Ag 15   dz2 \
	OrthoOrbital Ag 15   dxz \
	OrthoOrbital Ag 15   dx2-y2 \
	OrthoOrbital Ag 16   s \
	OrthoOrbital Ag 16   p \
	OrthoOrbital Ag 16   px \
	OrthoOrbital Ag 16   py \
	OrthoOrbital Ag 16   pz \
	OrthoOrbital Ag 16   d \
	OrthoOrbital Ag 16   dxy \
	OrthoOrbital Ag 16   dyz \
	OrthoOrbital Ag 16   dz2 \
	OrthoOrbital Ag 16   dxz \
	OrthoOrbital Ag 16   dx2-y2 \
	OrthoOrbital Ag 17   s \
	OrthoOrbital Ag 17   p \
	OrthoOrbital Ag 17   px \
	OrthoOrbital Ag 17   py \
	OrthoOrbital Ag 17   pz \
	OrthoOrbital Ag 17   d \
	OrthoOrbital Ag 17   dxy \
	OrthoOrbital Ag 17   dyz \
	OrthoOrbital Ag 17   dz2 \
	OrthoOrbital Ag 17   dxz \
	OrthoOrbital Ag 17   dx2-y2 \
	OrthoOrbital Ag 18   s \
	OrthoOrbital Ag 18   p \
	OrthoOrbital Ag 18   px \
	OrthoOrbital Ag 18   py \
	OrthoOrbital Ag 18   pz \
	OrthoOrbital Ag 18   d \
	OrthoOrbital Ag 18   dxy \
	OrthoOrbital Ag 18   dyz \
	OrthoOrbital Ag 18   dz2 \
	OrthoOrbital Ag 18   dxz \
	OrthoOrbital Ag 18   dx2-y2 \
	OrthoOrbital Ag 19   s \
	OrthoOrbital Ag 19   p \
	OrthoOrbital Ag 19   px \
	OrthoOrbital Ag 19   py \
	OrthoOrbital Ag 19   pz \
	OrthoOrbital Ag 19   d \
	OrthoOrbital Ag 19   dxy \
	OrthoOrbital Ag 19   dyz \
	OrthoOrbital Ag 19   dz2 \
	OrthoOrbital Ag 19   dxz \
	OrthoOrbital Ag 19   dx2-y2 \
	OrthoOrbital Ag 20   s \
	OrthoOrbital Ag 20   p \
	OrthoOrbital Ag 20   px \
	OrthoOrbital Ag 20   py \
	OrthoOrbital Ag 20   pz \
	OrthoOrbital Ag 20   d \
	OrthoOrbital Ag 20   dxy \
	OrthoOrbital Ag 20   dyz \
	OrthoOrbital Ag 20   dz2 \
	OrthoOrbital Ag 20   dxz \
	OrthoOrbital Ag 20   dx2-y2 \
	OrthoOrbital Ag 21   s \
	OrthoOrbital Ag 21   p \
	OrthoOrbital Ag 21   px \
	OrthoOrbital Ag 21   py \
	OrthoOrbital Ag 21   pz \
	OrthoOrbital Ag 21   d \
	OrthoOrbital Ag 21   dxy \
	OrthoOrbital Ag 21   dyz \
	OrthoOrbital Ag 21   dz2 \
	OrthoOrbital Ag 21   dxz \
	OrthoOrbital Ag 21   dx2-y2 \
	OrthoOrbital Ag 22   s \
	OrthoOrbital Ag 22   p \
	OrthoOrbital Ag 22   px \
	OrthoOrbital Ag 22   py \
	OrthoOrbital Ag 22   pz \
	OrthoOrbital Ag 22   d \
	OrthoOrbital Ag 22   dxy \
	OrthoOrbital Ag 22   dyz \
	OrthoOrbital Ag 22   dz2 \
	OrthoOrbital Ag 22   dxz \
	OrthoOrbital Ag 22   dx2-y2 \
	OrthoOrbital Ag 23   s \
	OrthoOrbital Ag 23   p \
	OrthoOrbital Ag 23   px \
	OrthoOrbital Ag 23   py \
	OrthoOrbital Ag 23   pz \
	OrthoOrbital Ag 23   d \
	OrthoOrbital Ag 23   dxy \
	OrthoOrbital Ag 23   dyz \
	OrthoOrbital Ag 23   dz2 \
	OrthoOrbital Ag 23   dxz \
	OrthoOrbital Ag 23   dx2-y2 \
	OrthoOrbital Ag 24   s \
	OrthoOrbital Ag 24   p \
	OrthoOrbital Ag 24   px \
	OrthoOrbital Ag 24   py \
	OrthoOrbital Ag 24   pz \
	OrthoOrbital Ag 24   d \
	OrthoOrbital Ag 24   dxy \
	OrthoOrbital Ag 24   dyz \
	OrthoOrbital Ag 24   dz2 \
	OrthoOrbital Ag 24   dxz \
	OrthoOrbital Ag 24   dx2-y2 \
	OrthoOrbital Ag 25   s \
	OrthoOrbital Ag 25   p \
	OrthoOrbital Ag 25   px \
	OrthoOrbital Ag 25   py \
	OrthoOrbital Ag 25   pz \
	OrthoOrbital Ag 25   d \
	OrthoOrbital Ag 25   dxy \
	OrthoOrbital Ag 25   dyz \
	OrthoOrbital Ag 25   dz2 \
	OrthoOrbital Ag 25   dxz \
	OrthoOrbital Ag 25   dx2-y2 \
	OrthoOrbital Ag 26   s \
	OrthoOrbital Ag 26   p \
	OrthoOrbital Ag 26   px \
	OrthoOrbital Ag 26   py \
	OrthoOrbital Ag 26   pz \
	OrthoOrbital Ag 26   d \
	OrthoOrbital Ag 26   dxy \
	OrthoOrbital Ag 26   dyz \
	OrthoOrbital Ag 26   dz2 \
	OrthoOrbital Ag 26   dxz \
	OrthoOrbital Ag 26   dx2-y2 \
	OrthoOrbital Ag 27   s \
	OrthoOrbital Ag 27   p \
	OrthoOrbital Ag 27   px \
	OrthoOrbital Ag 27   py \
	OrthoOrbital Ag 27   pz \
	OrthoOrbital Ag 27   d \
	OrthoOrbital Ag 27   dxy \
	OrthoOrbital Ag 27   dyz \
	OrthoOrbital Ag 27   dz2 \
	OrthoOrbital Ag 27   dxz \
	OrthoOrbital Ag 27   dx2-y2 \
	OrthoOrbital Ag 28   s \
	OrthoOrbital Ag 28   p \
	OrthoOrbital Ag 28   px \
	OrthoOrbital Ag 28   py \
	OrthoOrbital Ag 28   pz \
	OrthoOrbital Ag 28   d \
	OrthoOrbital Ag 28   dxy \
	OrthoOrbital Ag 28   dyz \
	OrthoOrbital Ag 28   dz2 \
	OrthoOrbital Ag 28   dxz \
	OrthoOrbital Ag 28   dx2-y2 \
	OrthoOrbital Ag 29   s \
	OrthoOrbital Ag 29   p \
	OrthoOrbital Ag 29   px \
	OrthoOrbital Ag 29   py \
	OrthoOrbital Ag 29   pz \
	OrthoOrbital Ag 29   d \
	OrthoOrbital Ag 29   dxy \
	OrthoOrbital Ag 29   dyz \
	OrthoOrbital Ag 29   dz2 \
	OrthoOrbital Ag 29   dxz \
	OrthoOrbital Ag 29   dx2-y2 \
	OrthoOrbital Ag 30   s \
	OrthoOrbital Ag 30   p \
	OrthoOrbital Ag 30   px \
	OrthoOrbital Ag 30   py \
	OrthoOrbital Ag 30   pz \
	OrthoOrbital Ag 30   d \
	OrthoOrbital Ag 30   dxy \
	OrthoOrbital Ag 30   dyz \
	OrthoOrbital Ag 30   dz2 \
	OrthoOrbital Ag 30   dxz \
	OrthoOrbital Ag 30   dx2-y2 \
	OrthoOrbital Ag 31   s \
	OrthoOrbital Ag 31   p \
	OrthoOrbital Ag 31   px \
	OrthoOrbital Ag 31   py \
	OrthoOrbital Ag 31   pz \
	OrthoOrbital Ag 31   d \
	OrthoOrbital Ag 31   dxy \
	OrthoOrbital Ag 31   dyz \
	OrthoOrbital Ag 31   dz2 \
	OrthoOrbital Ag 31   dxz \
	OrthoOrbital Ag 31   dx2-y2 \
	OrthoOrbital Ag 32   s \
	OrthoOrbital Ag 32   p \
	OrthoOrbital Ag 32   px \
	OrthoOrbital Ag 32   py \
	OrthoOrbital Ag 32   pz \
	OrthoOrbital Ag 32   d \
	OrthoOrbital Ag 32   dxy \
	OrthoOrbital Ag 32   dyz \
	OrthoOrbital Ag 32   dz2 \
	OrthoOrbital Ag 32   dxz \
	OrthoOrbital Ag 32   dx2-y2 \
	OrthoOrbital Ag 33   s \
	OrthoOrbital Ag 33   p \
	OrthoOrbital Ag 33   px \
	OrthoOrbital Ag 33   py \
	OrthoOrbital Ag 33   pz \
	OrthoOrbital Ag 33   d \
	OrthoOrbital Ag 33   dxy \
	OrthoOrbital Ag 33   dyz \
	OrthoOrbital Ag 33   dz2 \
	OrthoOrbital Ag 33   dxz \
	OrthoOrbital Ag 33   dx2-y2 \
	OrthoOrbital Ag 34   s \
	OrthoOrbital Ag 34   p \
	OrthoOrbital Ag 34   px \
	OrthoOrbital Ag 34   py \
	OrthoOrbital Ag 34   pz \
	OrthoOrbital Ag 34   d \
	OrthoOrbital Ag 34   dxy \
	OrthoOrbital Ag 34   dyz \
	OrthoOrbital Ag 34   dz2 \
	OrthoOrbital Ag 34   dxz \
	OrthoOrbital Ag 34   dx2-y2 \
	OrthoOrbital Ag 35   s \
	OrthoOrbital Ag 35   p \
	OrthoOrbital Ag 35   px \
	OrthoOrbital Ag 35   py \
	OrthoOrbital Ag 35   pz \
	OrthoOrbital Ag 35   d \
	OrthoOrbital Ag 35   dxy \
	OrthoOrbital Ag 35   dyz \
	OrthoOrbital Ag 35   dz2 \
	OrthoOrbital Ag 35   dxz \
	OrthoOrbital Ag 35   dx2-y2 \
	OrthoOrbital Ag 36   s \
	OrthoOrbital Ag 36   p \
	OrthoOrbital Ag 36   px \
	OrthoOrbital Ag 36   py \
	OrthoOrbital Ag 36   pz \
	OrthoOrbital Ag 36   d \
	OrthoOrbital Ag 36   dxy \
	OrthoOrbital Ag 36   dyz \
	OrthoOrbital Ag 36   dz2 \
	OrthoOrbital Ag 36   dxz \
	OrthoOrbital Ag 36   dx2-y2 \
	OrthoOrbital Ag 37   s \
	OrthoOrbital Ag 37   p \
	OrthoOrbital Ag 37   px \
	OrthoOrbital Ag 37   py \
	OrthoOrbital Ag 37   pz \
	OrthoOrbital Ag 37   d \
	OrthoOrbital Ag 37   dxy \
	OrthoOrbital Ag 37   dyz \
	OrthoOrbital Ag 37   dz2 \
	OrthoOrbital Ag 37   dxz \
	OrthoOrbital Ag 37   dx2-y2 \
	OrthoOrbital Ag 38   s \
	OrthoOrbital Ag 38   p \
	OrthoOrbital Ag 38   px \
	OrthoOrbital Ag 38   py \
	OrthoOrbital Ag 38   pz \
	OrthoOrbital Ag 38   d \
	OrthoOrbital Ag 38   dxy \
	OrthoOrbital Ag 38   dyz \
	OrthoOrbital Ag 38   dz2 \
	OrthoOrbital Ag 38   dxz \
	OrthoOrbital Ag 38   dx2-y2 \
	OrthoOrbital Ag 39   s \
	OrthoOrbital Ag 39   p \
	OrthoOrbital Ag 39   px \
	OrthoOrbital Ag 39   py \
	OrthoOrbital Ag 39   pz \
	OrthoOrbital Ag 39   d \
	OrthoOrbital Ag 39   dxy \
	OrthoOrbital Ag 39   dyz \
	OrthoOrbital Ag 39   dz2 \
	OrthoOrbital Ag 39   dxz \
	OrthoOrbital Ag 39   dx2-y2 \
	OrthoOrbital Ag 40   s \
	OrthoOrbital Ag 40   p \
	OrthoOrbital Ag 40   px \
	OrthoOrbital Ag 40   py \
	OrthoOrbital Ag 40   pz \
	OrthoOrbital Ag 40   d \
	OrthoOrbital Ag 40   dxy \
	OrthoOrbital Ag 40   dyz \
	OrthoOrbital Ag 40   dz2 \
	OrthoOrbital Ag 40   dxz \
	OrthoOrbital Ag 40   dx2-y2 \
	OrthoOrbital Ag 41   s \
	OrthoOrbital Ag 41   p \
	OrthoOrbital Ag 41   px \
	OrthoOrbital Ag 41   py \
	OrthoOrbital Ag 41   pz \
	OrthoOrbital Ag 41   d \
	OrthoOrbital Ag 41   dxy \
	OrthoOrbital Ag 41   dyz \
	OrthoOrbital Ag 41   dz2 \
	OrthoOrbital Ag 41   dxz \
	OrthoOrbital Ag 41   dx2-y2 \
	OrthoOrbital Ag 42   s \
	OrthoOrbital Ag 42   p \
	OrthoOrbital Ag 42   px \
	OrthoOrbital Ag 42   py \
	OrthoOrbital Ag 42   pz \
	OrthoOrbital Ag 42   d \
	OrthoOrbital Ag 42   dxy \
	OrthoOrbital Ag 42   dyz \
	OrthoOrbital Ag 42   dz2 \
	OrthoOrbital Ag 42   dxz \
	OrthoOrbital Ag 42   dx2-y2 \
	OrthoOrbital Ag 43   s \
	OrthoOrbital Ag 43   p \
	OrthoOrbital Ag 43   px \
	OrthoOrbital Ag 43   py \
	OrthoOrbital Ag 43   pz \
	OrthoOrbital Ag 43   d \
	OrthoOrbital Ag 43   dxy \
	OrthoOrbital Ag 43   dyz \
	OrthoOrbital Ag 43   dz2 \
	OrthoOrbital Ag 43   dxz \
	OrthoOrbital Ag 43   dx2-y2 \
	OrthoOrbital Ag 44   s \
	OrthoOrbital Ag 44   p \
	OrthoOrbital Ag 44   px \
	OrthoOrbital Ag 44   py \
	OrthoOrbital Ag 44   pz \
	OrthoOrbital Ag 44   d \
	OrthoOrbital Ag 44   dxy \
	OrthoOrbital Ag 44   dyz \
	OrthoOrbital Ag 44   dz2 \
	OrthoOrbital Ag 44   dxz \
	OrthoOrbital Ag 44   dx2-y2
dump End ElecDensity KEdensity BandEigs EigStats RhoAtom DOS Kpoints
dump Ionic State IonicPositions Lattice EigStats Ecomponents
dump 
dump 
dump 
dump 
dump 
dump 
dump 
dump 
dump-name jdft.$VAR
elec-cutoff 20
elec-eigen-algo Davidson
elec-ex-corr gga-PBE
elec-initial-magnetization 0.000000 no
elec-n-bands 502
elec-smearing Fermi 0.001
electronic-minimize  \
	dirUpdateScheme      FletcherReeves \
	linminMethod         DirUpdateRecommended \
	nIterations          100 \
	history              15 \
	knormThreshold       0 \
	energyDiffThreshold  1e-07 \
	nEnergyDiff          2 \
	alphaTstart          1 \
	alphaTmin            1e-10 \
	updateTestStepSize   yes \
	alphaTreduceFactor   0.1 \
	alphaTincreaseFactor 3 \
	nAlphaAdjustMax      3 \
	wolfeEnergy          0.0001 \
	wolfeGradient        0.9 \
	fdTest               no
exchange-regularization WignerSeitzTruncated
fluid LinearPCM 298.000000 1.013250
fluid-anion F- 0.5 MeanFieldLJ \
	epsBulk 1 \
	pMol 0 \
	epsInf 1 \
	Pvap 0 \
	sigmaBulk 0 \
	Rvdw 2.24877 \
	Res 0 \
	tauNuc 343133
fluid-cation Na+ 0.5 MeanFieldLJ \
	epsBulk 1 \
	pMol 0 \
	epsInf 1 \
	Pvap 0 \
	sigmaBulk 0 \
	Rvdw 2.19208 \
	Res 0 \
	tauNuc 343133
fluid-ex-corr lda-TF lda-PZ
fluid-gummel-loop 10 1.000000e-05
fluid-minimize  \
	dirUpdateScheme      PolakRibiere \
	linminMethod         DirUpdateRecommended \
	nIterations          400 \
	history              15 \
	knormThreshold       1e-11 \
	energyDiffThreshold  0 \
	nEnergyDiff          2 \
	alphaTstart          1 \
	alphaTmin            1e-10 \
	updateTestStepSize   yes \
	alphaTreduceFactor   0.1 \
	alphaTincreaseFactor 3 \
	nAlphaAdjustMax      6 \
	wolfeEnergy          0.0001 \
	wolfeGradient        0.9 \
	fdTest               no
fluid-solvent H2O 55.338 ScalarEOS \
	epsBulk 78.4 \
	pMol 0.92466 \
	epsInf 1.77 \
	Pvap 1.06736e-10 \
	sigmaBulk 4.62e-05 \
	Rvdw 2.61727 \
	Res 1.42 \
	tauNuc 343133 \
	poleEl 15 7 1
forces-output-coords Positions
initial-state jdft.$VAR
ion Ag  -0.000541093238872  16.236625197957650  70.839952070374551 1
ion Ag   0.000129716251694  23.209116525003282  67.534220265839522 1
ion Ag   0.000417661027476   6.944114400213191  69.275008368066153 1
ion Ag  -0.000303225174343  13.883114755793914  65.913888277606247 1
ion Ag  -0.000122273881999  20.780289670516535  62.562282622725306 1
ion Ag  -0.000260330649418  18.442885671151135  57.637150759127181 1
ion Ag   0.000522470581904  -0.118809458096627  36.296398422124305 1
ion Ag   0.000314066193767   4.578878034207158  64.332217711547145 1
ion Ag  -0.000071048564817  11.525001493610050  60.988695598979902 1
ion Ag   0.000222004451523   2.296015922048653  59.316871424344654 1
ion Ag   5.420488282246834   9.222971986846021  56.022189780671013 1
ion Ag  -0.000173535642730  16.168927185470974  52.677116079159909 1
ion Ag   5.420455875306553  23.128658706355893  49.414836491870531 1
ion Ag   5.420234571367677  13.897172771172093  47.685685703264710 1
ion Ag   5.420238657921884  20.816642628185345  44.451769648456953 1
ion Ag   5.420613728998697   0.004248972260070  54.352629921463382 1
ion Ag   0.000217107810652   6.964433310804869  51.036648873128030 1
ion Ag   5.420633529472238   4.640183812951665  46.063829648169659 1
ion Ag   5.420263404160557  11.572331623337542  42.754019686877498 1
ion Ag   5.419865613431619  18.511486889396529  39.347422200720850 1
ion Ag   0.000209692158402   2.253677731211999  41.149806554776696 1
ion Ag   5.420674652994209   9.220510004413374  37.809474155817391 1
ion Ag   2.709983864239117  18.557395274219576  66.716980133698655 1
ion Ag   2.710475614395130  -0.017084259964536  63.406987463194909 1
ion Ag   2.710355190644325   9.227094413355276  65.113254514610816 1
ion Ag   2.710054818199279  16.158033536660273  61.803102401255416 1
ion Ag   2.710203361443517  23.085540057940225  58.448541896876158 1
ion Ag   2.710045598405653  20.785248258308087  53.511613081804434 1
ion Ag   2.710822923284754   2.300136209564766  68.520743926003561 1
ion Ag   2.710451602065136   6.894884539986749  60.183571155824865 1
ion Ag   2.709992206743590  13.828886602242608  56.830131567166433 1
ion Ag   2.710406218876988   4.624366470658746  55.187496883107421 1
ion Ag   2.710157628891931  11.566919484279195  51.848316721642945 1
ion Ag   2.710045308936166  18.498764836655148  48.544808447870302 1
ion Ag   2.710360877289664   0.015992239265001  45.302063722539103 1
ion Ag   2.709958022927481  16.219303383127819  43.535470135136684 1
ion Ag   2.710052996793495  23.029203325711372  40.324413720327954 1
ion Ag   2.710473876066596   2.348146036387677  50.228228549522413 1
ion Ag   2.710243451856253   9.270532203580450  46.879323862199136 1
ion Ag   2.710504568124063   6.921988181486697  41.953735334089345 1
ion Ag   2.709854188575860  13.866607851712331  38.592897822431866 1
ion Ag   2.709734318867429  20.947876177312640  71.566319460120042 1
ion Ag   2.710756344389266   4.583476751495956  37.024913350940075 1
ion Ag   2.709949491760784  11.591165591202630  70.056520584525131 1
ion-species /projects/musgravc/apps/jdftx-1.6.0/build/pseudopotentials/GBRV_v1.5/$ID_pbe_v1.uspp
ion-species /projects/musgravc/apps/jdftx-1.6.0/build/pseudopotentials/GBRV_v1.5/$ID_pbe_v1.2.uspp
ion-species /projects/musgravc/apps/jdftx-1.6.0/build/pseudopotentials/GBRV_v1.5/$ID_pbe_v1.4.uspp
ion-species /projects/musgravc/apps/jdftx-1.6.0/build/pseudopotentials/GBRV_v1.5/$ID_pbe_v1.5.uspp
ion-width Ecut
ionic-minimize  \
	dirUpdateScheme      L-BFGS \
	linminMethod         DirUpdateRecommended \
	nIterations          100 \
	history              15 \
	knormThreshold       0.0001 \
	energyDiffThreshold  0.0001 \
	nEnergyDiff          2 \
	alphaTstart          1 \
	alphaTmin            1e-10 \
	updateTestStepSize   yes \
	alphaTreduceFactor   0.1 \
	alphaTincreaseFactor 3 \
	nAlphaAdjustMax      3 \
	wolfeEnergy          0.0001 \
	wolfeGradient        0.9 \
	fdTest               no
kpoint   0.000000000000   0.000000000000   0.000000000000  1.00000000000000
kpoint-folding 11 2 1 
latt-move-scale 0 0 0
latt-scale 1 1 1 
lattice  \
	   5.420447000000000    0.000000000000000    0.000000000000000  \
	   0.000000000000000   25.424147000000001    0.000000000000000  \
	   0.000000000000000   -0.000000000000000   71.910343999999995 
lattice-minimize  \
	dirUpdateScheme      L-BFGS \
	linminMethod         DirUpdateRecommended \
	nIterations          0 \
	history              15 \
	knormThreshold       0 \
	energyDiffThreshold  1e-06 \
	nEnergyDiff          2 \
	alphaTstart          1 \
	alphaTmin            1e-10 \
	updateTestStepSize   yes \
	alphaTreduceFactor   0.1 \
	alphaTincreaseFactor 3 \
	nAlphaAdjustMax      3 \
	wolfeEnergy          0.0001 \
	wolfeGradient        0.9 \
	fdTest               no
lcao-params 30 1e-06 0.001
pcm-variant CANDLE
spintype z-spin
subspace-rotation-factor 1 yes
symmetries automatic
symmetry-threshold 0.0001
target-mu -0.1345 no

van-der-waals D3



---------- Setting up symmetries ----------

Found 8 point-group symmetries of the bravais lattice
Found 1 space-group symmetries with basis
Applied RMS atom displacement 0 bohrs to make symmetries exact.

---------- Initializing the Grid ----------
R = 
[      5.42045            0            0  ]
[            0      25.4241            0  ]
[            0            0      71.9103  ]
unit cell volume = 9909.98
G =
[    1.15916         -0          0  ]
[          0   0.247135          0  ]
[         -0          0  0.0873753  ]
Minimum fftbox size, Smin = [  24  104  292  ]
Chosen fftbox size, S = [  24  108  294  ]

---------- Exchange Correlation functional ----------
Initalized PBE GGA exchange.
Initalized PBE GGA correlation.

---------- Setting up pseudopotentials ----------
Width of ionic core gaussian charges (only for fluid interactions / plotting) set to 0.397384

Reading pseudopotential file '/projects/musgravc/apps/jdftx-1.6.0/build/pseudopotentials/GBRV_v1.5/ag_pbe_v1.4.uspp':
  Title: Ag.  Created by USPP 7.3.6 on 1-4-15
  Reference state energy: -147.606242.  19 valence electrons in orbitals:
    |400>  occupation: 2  eigenvalue: -3.637437
    |410>  occupation: 6  eigenvalue: -2.297267
    |420>  occupation: 10  eigenvalue: -0.417763
    |500>  occupation: 0.5  eigenvalue: -0.283525
    |510>  occupation: 0  eigenvalue: -0.122889
  lMax: 2  lLocal: 0  QijEcut: 5.5
  6 projectors sampled on a log grid with 717 points:
    l: 0  eig: -0.283528  rCut: 1.5
    l: 0  eig: -3.637440  rCut: 1.5
    l: 1  eig: -0.122892  rCut: 1.5
    l: 1  eig: -2.297267  rCut: 1.5
    l: 2  eig: -0.417762  rCut: 1.7
    l: 2  eig: -1.000000  rCut: 1.7
  Partial core density with radius 1.2
  Transforming core density to a uniform radial grid of dG=0.02 with 1164 points.
  Transforming local potential to a uniform radial grid of dG=0.02 with 1164 points.
  Transforming nonlocal projectors to a uniform radial grid of dG=0.02 with 432 points.
  Transforming density augmentations to a uniform radial grid of dG=0.02 with 1164 points.
  Transforming atomic orbitals to a uniform radial grid of dG=0.02 with 432 points.
  Core radius for overlap checks: 1.70 bohrs.

Initialized 1 species with 44 total atoms.

Folded 1 k-points by 11x2x1 to 22 k-points.

---------- Setting up k-points, bands, fillings ----------
Adding inversion symmetry to k-mesh for non-inversion-symmetric unit cell.
Reduced to 12 k-points under symmetry. 
Computing the number of bands and number of electrons
Reading initial fillings from file jdft.fillings.
nElectrons: 836.278454   nBands: 502   nStates: 24

----- Setting up reduced wavefunction bases (one per k-point) -----
average nbasis = 42326.136 , ideal nbasis = 42336.198

----- Initializing Supercell corresponding to k-point mesh -----
Lattice vector linear combinations in supercell:
[  11   0   0  ]
[   0   2   0  ]
[   0   0   1  ]
Supercell lattice vectors:
[  59.6249  0  0  ]
[  0  50.8483  0  ]
[  0  0  71.9103  ]

Initializing DFT-D3 calculator:
	Parameters set for gga-PBE functional
	s6:  1.000  s_r6:  1.217
	s8:  0.722  s_r8:  1.000
	Per-atom parameters loaded for:
	Ag:  sqrtQ[a0]:  5.443  Rcov[a0]:  2.173  CN: [ 0.00 0.97 ]

Initializing DFT-D2 calculator for fluid / solvation:
	Ag:  C6:  427.91 Eh-a0^6  R0: 3.097 a0

---------- Setting up ewald sum ----------
Optimum gaussian width for ewald sums = 4.560638 bohr.
Real space sum over 665 unit cells with max indices [  9  3  2  ]
Reciprocal space sum over 7497 terms with max indices [  3  10  25  ]

Computing DFT-D3 correction:
# coordination-number Ag 6.707 8.462 6.746 9.018 9.074 9.043 5.379 8.954 9.039 9.059 9.000 9.036 9.067 9.012 9.050 9.057 9.019 9.066 9.005 6.752 9.037 6.758 9.034 9.050 9.002 9.066 9.068 9.059 6.751 9.014 9.017 9.037 9.000 9.058 9.069 8.952 8.454 9.038 9.045 9.027 6.744 5.371 6.720 6.751
# diagonal-C6 Ag 268.61 268.61 268.61 268.61 268.61 268.61 268.61 268.61 268.61 268.61 268.61 268.61 268.61 268.61 268.61 268.61 268.61 268.61 268.61 268.61 268.61 268.61 268.61 268.61 268.61 268.61 268.61 268.61 268.61 268.61 268.61 268.61 268.61 268.61 268.61 268.61 268.61 268.61 268.61 268.61 268.61 268.61 268.61 268.61
EvdW_6 =   -0.303426
EvdW_8 =   -0.398896

---------- Allocating electronic variables ----------
Initializing wave functions:  reading from 'jdft.wfns'
----- createFluidSolver() ----- (Fluid-side solver setup)
   Initializing fluid molecule 'H2O'
     Initializing site 'O'
       Electron density: proportional to exp(-r/0.36935)*erfc((r-0.51523)/0.36823) with norm 6.826
       Charge density: gaussian nuclear width 0.478731 with net site charge 0.826
       Polarizability: cuspless exponential with width 0.32 and norm 3.73
       Hard sphere radius: 2.57003 bohrs
       Positions in reference frame:
         [ +0.000000 +0.000000 +0.000000 ]
     Initializing site 'H'
       Electron density: proportional to exp(-r/0.34641)*erfc((r-0)/0.390882) with norm 0.587
       Charge density: gaussian nuclear width 0.377945 with net site charge -0.413
       Polarizability: cuspless exponential with width 0.39 and norm 3.3
       Positions in reference frame:
         [ +0.000000 -1.441945 +1.122523 ]
         [ +0.000000 +1.441945 +1.122523 ]
     Net charge: 0   dipole magnitude: 0.927204
     Initializing spherical shell mfKernel with radius 2.61727 Bohr
     deltaS corrections:
       site 'O': -7.54299
       site 'H': -6.83917
   Initializing fluid molecule 'Na+'
     Initializing site 'Na'
       Electron density: proportional to exp(-r/0.19682)*erfc((r-0.71491)/0.41314) with norm 8.1383
       Charge density: gaussian nuclear width 0.365347 with net site charge -1
       Hard sphere radius: 1.86327 bohrs
       Positions in reference frame:
         [ +0.000000 +0.000000 +0.000000 ]
     Net charge: -1   dipole magnitude: 0
     Initializing gaussian mfKernel with width: 1.55004 Bohr
     deltaS corrections:
       site 'Na': -22.3555
   Initializing fluid molecule 'F-'
     Initializing site 'F'
       Electron density: proportional to exp(-r/0.38886)*erfc((r-0)/0.438782) with norm 8
       Charge density: gaussian nuclear width 0.374796 with net site charge 1
       Hard sphere radius: 2.39995 bohrs
       Positions in reference frame:
         [ +0.000000 +0.000000 +0.000000 ]
     Net charge: 1   dipole magnitude: 0
     Initializing gaussian mfKernel with width: 1.59012 Bohr
     deltaS corrections:
       site 'F': -9.04335

Correction to mu due to finite nuclear width = -0.0837015
   Cavity determined by nc: 0.00142 and sigma: 0.707107
   Nonlocal vdW cavity from gaussian model electron density with norm = 8 and sigma = 0.993594 bohr
   Charge asymmetry in cavity with sensitivity pCavity = 36.5 e-bohr/Eh
   Electrostatic cavity expanded by eta = 1.46 bohrs
   Weighted density cavitation model constrained by Nbulk: 0.0049383 bohr^-3, Pvap: 3.14029 kPa, Rvdw: 2.61727 bohr and sigmaBulk: 4.62e-05 Eh/bohr^2 at T: 298 K.
   Weighted density dispersion model using vdW pair potentials with single solvent site with sqrtC6eff: 0.77 SI.
Reading fluid state from 'jdft.fluidState'


---- Citations for features of the code used in this run ----

   Software package:
      R. Sundararaman, K. Letchworth-Weaver, K.A. Schwarz, D. Gunceler, Y. Ozhabes and T.A. Arias, 'JDFTx: software for joint density-functional theory', SoftwareX 6, 278 (2017)

   gga-PBE exchange-correlation functional:
      J.P. Perdew, K. Burke and M. Ernzerhof, Phys. Rev. Lett. 77, 3865 (1996)

   Pseudopotentials:
      KF Garrity, JW Bennett, KM Rabe and D Vanderbilt, Comput. Mater. Sci. 81, 446 (2014)

   DFT-D3 dispersion correction:
      S. Grimme, J. Antony, S. Ehrlich and H. Krieg, J. Chem. Phys. 132, 154104 (2010)

   DFT-D2 dispersion correction:
      S. Grimme, J. Comput. Chem. 27, 1787 (2006)

   Charge-asymmetric nonlocally-determined local-electric (CANDLE) solvation model:
      R. Sundararaman and W.A. Goddard III, J. Chem. Phys. 142, 064107 (2015)

   Total energy minimization with Auxiliary Hamiltonian:
      C. Freysoldt, S. Boeck, and J. Neugebauer, Phys. Rev. B 79, 241103(R) (2009)

   Grand-canonical (fixed-potential) DFT:
      R. Sundararaman, W. A. Goddard III and T. A. Arias, J. Chem. Phys. 146, 114104 (2017)

   Linear-tetrahedron sampling for density of states:
      G. Lehmann and M. Taut, Phys. status solidi (b) 54, 469 (1972)

This list may not be complete. Please suggest additional citations or
report any other bugs at https://github.com/shankar1729/jdftx/issues

Initialization completed successfully at t[s]:     59.78


Computing DFT-D3 correction:
# coordination-number Ag 6.707 8.462 6.746 9.018 9.074 9.043 5.379 8.954 9.039 9.059 9.000 9.036 9.067 9.012 9.050 9.057 9.019 9.066 9.005 6.752 9.037 6.758 9.034 9.050 9.002 9.066 9.068 9.059 6.751 9.014 9.017 9.037 9.000 9.058 9.069 8.952 8.454 9.038 9.045 9.027 6.744 5.371 6.720 6.751
# diagonal-C6 Ag 268.61 268.61 268.61 268.61 268.61 268.61 268.61 268.61 268.61 268.61 268.61 268.61 268.61 268.61 268.61 268.61 268.61 268.61 268.61 268.61 268.61 268.61 268.61 268.61 268.61 268.61 268.61 268.61 268.61 268.61 268.61 268.61 268.61 268.61 268.61 268.61 268.61 268.61 268.61 268.61 268.61 268.61 268.61 268.61
EvdW_6 =   -0.303426
EvdW_8 =   -0.398896
Shifting auxilliary hamiltonian by -0.000012 to set nElectrons=836.278454

-------- Electronic minimization -----------
	Linear fluid (dielectric constant: 78.4, screening length: 8.12261 Bohr) occupying 0.380644 of unit cell:	Completed after 10 iterations at t[s]:    103.80
	FillingsUpdate:  mu: -0.134500000  nElectrons: 836.278454  magneticMoment: [ Abs: 0.00061  Tot: -0.00030 ]
ElecMinimize: Iter:   0  G: -6382.601409093246730  |grad|_K:  2.837e-07  alpha:  1.000e+00
	Linear fluid (dielectric constant: 78.4, screening length: 8.12261 Bohr) occupying 0.382604 of unit cell:	Completed after 20 iterations at t[s]:    388.32
	Linear fluid (dielectric constant: 78.4, screening length: 8.12261 Bohr) occupying 0.380652 of unit cell:	Completed after 20 iterations at t[s]:    484.15
	FillingsUpdate:  mu: -0.134500000  nElectrons: 836.279529  magneticMoment: [ Abs: 0.00060  Tot: -0.00029 ]
	SubspaceRotationAdjust: set factor to 0.582
ElecMinimize: Iter:   1  G: -6382.601409352154405  |grad|_K:  6.248e-08  alpha:  6.288e-03  linmin: -4.379e-04  t[s]:    621.55
	Linear fluid (dielectric constant: 78.4, screening length: 8.12261 Bohr) occupying 0.380652 of unit cell:	Completed after 0 iterations at t[s]:    746.41
ElecMinimize: 	Predicted alpha/alphaT>3.000000, increasing alphaT to 1.886485e-02.
	Linear fluid (dielectric constant: 78.4, screening length: 8.12261 Bohr) occupying 0.380653 of unit cell:	Completed after 2 iterations at t[s]:    834.23
ElecMinimize: 	Predicted alpha/alphaT>3.000000, increasing alphaT to 5.659455e-02.
	Linear fluid (dielectric constant: 78.4, screening length: 8.12261 Bohr) occupying 0.380655 of unit cell:	Completed after 2 iterations at t[s]:    923.50
	Linear fluid (dielectric constant: 78.4, screening length: 8.12261 Bohr) occupying 0.380655 of unit cell:	Completed after 3 iterations at t[s]:   1012.92
	FillingsUpdate:  mu: -0.134500000  nElectrons: 836.279899  magneticMoment: [ Abs: 0.00057  Tot: -0.00028 ]
	SubspaceRotationAdjust: set factor to 0.361
ElecMinimize: Iter:   2  G: -6382.601409497322493  |grad|_K:  2.235e-08  alpha:  7.285e-02  linmin: -5.654e-05  t[s]:   1149.21
	Linear fluid (dielectric constant: 78.4, screening length: 8.12261 Bohr) occupying 0.380652 of unit cell:	Completed after 6 iterations at t[s]:   1276.02
	Linear fluid (dielectric constant: 78.4, screening length: 8.12261 Bohr) occupying 0.380652 of unit cell:	Completed after 0 iterations at t[s]:   1362.72
	FillingsUpdate:  mu: -0.134500000  nElectrons: 836.279439  magneticMoment: [ Abs: 0.00055  Tot: -0.00027 ]
	SubspaceRotationAdjust: set factor to 0.197
ElecMinimize: Iter:   3  G: -6382.601409515487831  |grad|_K:  3.542e-08  alpha:  7.043e-02  linmin:  2.566e-03  t[s]:   1499.27
	Linear fluid (dielectric constant: 78.4, screening length: 8.12261 Bohr) occupying 0.380649 of unit cell:	Completed after 5 iterations at t[s]:   1625.66
	Linear fluid (dielectric constant: 78.4, screening length: 8.12261 Bohr) occupying 0.380650 of unit cell:	Completed after 2 iterations at t[s]:   1713.55
	FillingsUpdate:  mu: -0.134500000  nElectrons: 836.279088  magneticMoment: [ Abs: 0.00051  Tot: -0.00024 ]
	SubspaceRotationAdjust: set factor to 0.111
	SubspaceRotationAdjust: resetting CG because factor has changed by 0.110525
	Linear fluid (dielectric constant: 78.4, screening length: 8.12261 Bohr) occupying 0.380650 of unit cell:	Completed after 0 iterations at t[s]:   1884.96
ElecMinimize: 	State modified externally: resetting search direction.
ElecMinimize: Iter:   4  G: -6382.601409540769055  |grad|_K:  1.799e-08  alpha:  5.183e-02
ElecMinimize: Converged (|Delta G|<1.000000e-07 for 2 iters).
Setting wave functions to eigenvectors of Hamiltonian
Converging empty states (this may take a while): |deigs|: 2.886e-09

Computing DFT-D3 correction:
# coordination-number Ag 6.707 8.462 6.746 9.018 9.074 9.043 5.379 8.954 9.039 9.059 9.000 9.036 9.067 9.012 9.050 9.057 9.019 9.066 9.005 6.752 9.037 6.758 9.034 9.050 9.002 9.066 9.068 9.059 6.751 9.014 9.017 9.037 9.000 9.058 9.069 8.952 8.454 9.038 9.045 9.027 6.744 5.371 6.720 6.751
# diagonal-C6 Ag 268.61 268.61 268.61 268.61 268.61 268.61 268.61 268.61 268.61 268.61 268.61 268.61 268.61 268.61 268.61 268.61 268.61 268.61 268.61 268.61 268.61 268.61 268.61 268.61 268.61 268.61 268.61 268.61 268.61 268.61 268.61 268.61 268.61 268.61 268.61 268.61 268.61 268.61 268.61 268.61 268.61 268.61 268.61 268.61
EvdW_6 =   -0.303426
EvdW_8 =   -0.398896

# Ionic positions in cartesian coordinates:
ion Ag  -0.000541093238872  16.236625197957650  70.839952070374551 1
ion Ag   0.000129716251694  23.209116525003282  67.534220265839522 1
ion Ag   0.000417661027476   6.944114400213191  69.275008368066153 1
ion Ag  -0.000303225174343  13.883114755793914  65.913888277606247 1
ion Ag  -0.000122273881999  20.780289670516535  62.562282622725306 1
ion Ag  -0.000260330649418  18.442885671151135  57.637150759127181 1
ion Ag   0.000522470581904  -0.118809458096627  36.296398422124305 1
ion Ag   0.000314066193767   4.578878034207158  64.332217711547145 1
ion Ag  -0.000071048564817  11.525001493610050  60.988695598979902 1
ion Ag   0.000222004451523   2.296015922048653  59.316871424344654 1
ion Ag   5.420488282246834   9.222971986846021  56.022189780671013 1
ion Ag  -0.000173535642730  16.168927185470974  52.677116079159909 1
ion Ag   5.420455875306553  23.128658706355893  49.414836491870531 1
ion Ag   5.420234571367677  13.897172771172093  47.685685703264710 1
ion Ag   5.420238657921884  20.816642628185345  44.451769648456953 1
ion Ag   5.420613728998697   0.004248972260070  54.352629921463382 1
ion Ag   0.000217107810652   6.964433310804869  51.036648873128030 1
ion Ag   5.420633529472238   4.640183812951665  46.063829648169659 1
ion Ag   5.420263404160557  11.572331623337542  42.754019686877498 1
ion Ag   5.419865613431619  18.511486889396529  39.347422200720850 1
ion Ag   0.000209692158402   2.253677731211999  41.149806554776696 1
ion Ag   5.420674652994209   9.220510004413374  37.809474155817391 1
ion Ag   2.709983864239117  18.557395274219576  66.716980133698655 1
ion Ag   2.710475614395130  -0.017084259964536  63.406987463194909 1
ion Ag   2.710355190644325   9.227094413355276  65.113254514610816 1
ion Ag   2.710054818199279  16.158033536660273  61.803102401255416 1
ion Ag   2.710203361443517  23.085540057940225  58.448541896876158 1
ion Ag   2.710045598405653  20.785248258308087  53.511613081804434 1
ion Ag   2.710822923284754   2.300136209564766  68.520743926003561 1
ion Ag   2.710451602065136   6.894884539986749  60.183571155824865 1
ion Ag   2.709992206743590  13.828886602242608  56.830131567166433 1
ion Ag   2.710406218876988   4.624366470658746  55.187496883107421 1
ion Ag   2.710157628891931  11.566919484279195  51.848316721642945 1
ion Ag   2.710045308936166  18.498764836655148  48.544808447870302 1
ion Ag   2.710360877289664   0.015992239265001  45.302063722539103 1
ion Ag   2.709958022927481  16.219303383127819  43.535470135136684 1
ion Ag   2.710052996793495  23.029203325711372  40.324413720327954 1
ion Ag   2.710473876066596   2.348146036387677  50.228228549522413 1
ion Ag   2.710243451856253   9.270532203580450  46.879323862199136 1
ion Ag   2.710504568124063   6.921988181486697  41.953735334089345 1
ion Ag   2.709854188575860  13.866607851712331  38.592897822431866 1
ion Ag   2.709734318867429  20.947876177312640  71.566319460120042 1
ion Ag   2.710756344389266   4.583476751495956  37.024913350940075 1
ion Ag   2.709949491760784  11.591165591202630  70.056520584525131 1

# Forces in Cartesian coordinates:
force Ag   0.000001799858169  -0.000081234637260   0.002438635240680 1
force Ag   0.000002803704712   0.001291006709813   0.001286265275408 1
force Ag   0.000004484554785  -0.000247388177178   0.001723582309217 1
force Ag  -0.000003096047485   0.000316602109712  -0.000544947345884 1
force Ag  -0.000003276753881   0.000700799788919   0.000598778122564 1
force Ag  -0.000003383594303   0.000562148933808   0.000359640547745 1
force Ag   0.000005462079827   0.000998675458646   0.000317859885831 1
force Ag  -0.000000987576816  -0.000323612886407  -0.001399411648909 1
force Ag   0.000002297239780  -0.000019944408748  -0.000322661856402 1
force Ag   0.000002227764653  -0.000163790844838  -0.000303422594175 1
force Ag  -0.000002085112527  -0.000134398788046  -0.000246992417343 1
force Ag   0.000002120389780   0.000547835466884   0.000106903133011 1
force Ag   0.000000176402926   0.000070306121793   0.000039048698810 1
force Ag  -0.000002828289961  -0.000040177693765  -0.000039868371615 1
force Ag  -0.000002359746807  -0.000034063239981   0.000605222376261 1
force Ag   0.000002350722904  -0.000146814206148  -0.000132694992204 1
force Ag   0.000002090851829  -0.000298006621831   0.000154546720006 1
force Ag  -0.000000298374493  -0.000207466966729   0.001098141899994 1
force Ag   0.000001456147078  -0.000163984225680   0.000945823290527 1
force Ag  -0.000004796027836  -0.000950123570497  -0.001791756631170 1
force Ag   0.000004172705211   0.000766768449836   0.002594939682213 1
force Ag  -0.000000128447275   0.000621572985878  -0.001708652471355 1
force Ag  -0.000002348107194  -0.000756586635825  -0.002498626156867 1
force Ag   0.000002632935604   0.000082506343001  -0.000580901483962 1
force Ag  -0.000001244485979   0.000194697575185  -0.000863500730048 1
force Ag   0.000000703427028   0.000210341419382  -0.001124249076797 1
force Ag  -0.000000377546696  -0.000065621733756  -0.000180432925199 1
force Ag  -0.000002970922609   0.000155656904064  -0.000074404463381 1
force Ag   0.000005880352079   0.000992356101434   0.001941604478561 1
force Ag   0.000002467739558   0.000041799368924  -0.000069305946416 1
force Ag  -0.000002400141730   0.000280927506514  -0.000338898792863 1
force Ag  -0.000002264836961  -0.000552392993055  -0.000326442865011 1
force Ag   0.000002587057931   0.000136373689697   0.000049958063242 1
force Ag  -0.000001917888298   0.000168398936480   0.000185998687287 1
force Ag   0.000002843988052  -0.000669747803861  -0.000625790209986 1
force Ag   0.000000880314987   0.000379430250225   0.001437488415338 1
force Ag  -0.000000990798497  -0.001247811040586  -0.001171096258353 1
force Ag   0.000004008454138  -0.000574347186311  -0.000535570363664 1
force Ag  -0.000002186031548   0.000012887259730   0.000259806153786 1
force Ag   0.000004143808510  -0.000313363103221   0.000609645033364 1
force Ag  -0.000005311104983   0.000253683236840  -0.001547997884427 1
force Ag  -0.000003288817654  -0.001204299611173  -0.000181730170425 1
force Ag   0.000000924353518  -0.000024511778774  -0.002297763413810 1
force Ag  -0.000000631158940  -0.000661888134853   0.001868125966810 1

# Energy components:
   A_diel =       -0.0931448899898676
   Eewald =    42072.2542662523919716
       EH =    48038.8868196325056488
     Eloc =   -97626.1166294727445347
      Enl =      173.5060537398945257
     EvdW =       -0.7023216360564034
      Exc =     -637.7706720335637556
 Exc_core =        9.1595148072591108
       KE =     1475.8198665757265644
  MuShift =       -0.0233601043203395
-------------------------------------
     Etot =    -6495.0796071289005340
       TS =        0.0013397997428956
-------------------------------------
        F =    -6495.0809469286432432
      muN =     -112.4795373878745295
-------------------------------------
        G =    -6382.6014095407690547


Dumping 'jdft.fillings' ... done
Dumping 'jdft.wfns' ... done
Dumping 'jdft.fluidState' ... done
Dumping 'jdft.ionpos' ... done
Dumping 'jdft.lattice' ... done
Dumping 'jdft.eigenvals' ... done
Dumping 'jdft.eigStats' ... 
	eMin: -3.519275 at state 12 ( [ +0.000000 +0.000000 +0.000000 ] spin -1 )
	HOMO: -0.134705 at state 3 ( [ +0.090909 +0.500000 +0.000000 ] spin 1 )
	mu  : -0.134500
	LUMO: -0.134539 at state 19 ( [ +0.272727 +0.500000 +0.000000 ] spin -1 )
	eMax: +0.207395 at state 2 ( [ +0.090909 +0.000000 +0.000000 ] spin 1 )
	HOMO-LUMO gap: +0.000166
	Optical gap  : +0.000201 at state 15 ( [ +0.090909 +0.500000 +0.000000 ] spin -1 )
Dumping 'jdft.Ecomponents' ... done
IonicMinimize: Iter:   0  G: -6382.601409540769055  |grad|_K:  7.296e-04  t[s]:   2371.60

#--- Lowdin population analysis ---
# oxidation-state Ag -0.023 -0.072 -0.014 -0.004 +0.003 +0.001 +0.068 -0.002 +0.002 +0.001 +0.003 +0.002 +0.002 +0.003 +0.000 +0.002 +0.005 +0.003 -0.003 +0.016 -0.010 -0.016 -0.011 -0.001 -0.004 +0.003 +0.002 +0.002 +0.016 +0.003 +0.005 +0.002 +0.003 +0.001 +0.004 -0.001 -0.071 +0.001 +0.003 -0.004 -0.014 +0.068 -0.024 -0.016
# magnetic-moments Ag +0.000 -0.000 -0.000 -0.000 -0.000 -0.000 -0.000 -0.000 -0.000 -0.000 +0.000 -0.000 -0.000 +0.000 -0.000 -0.000 +0.000 -0.000 +0.000 -0.000 -0.000 +0.000 -0.000 -0.000 +0.000 -0.000 -0.000 -0.000 -0.000 +0.000 +0.000 -0.000 +0.000 -0.000 -0.000 -0.000 -0.000 -0.000 -0.000 -0.000 -0.000 -0.000 +0.000 +0.000


Computing DFT-D3 correction:
# coordination-number Ag 6.702 8.457 6.743 9.014 9.075 9.044 5.380 8.951 9.040 9.060 9.000 9.036 9.068 9.013 9.049 9.058 9.020 9.068 9.001 6.749 9.033 6.754 9.031 9.049 8.999 9.067 9.069 9.060 6.748 9.015 9.017 9.037 8.999 9.060 9.070 8.949 8.449 9.039 9.046 9.024 6.741 5.372 6.715 6.747
# diagonal-C6 Ag 268.61 268.61 268.61 268.61 268.61 268.61 268.61 268.61 268.61 268.61 268.61 268.61 268.61 268.61 268.61 268.61 268.61 268.61 268.61 268.61 268.61 268.61 268.61 268.61 268.61 268.61 268.61 268.61 268.61 268.61 268.61 268.61 268.61 268.61 268.61 268.61 268.61 268.61 268.61 268.61 268.61 268.61 268.61 268.61
EvdW_6 =   -0.303421
EvdW_8 =   -0.398878
Shifting auxilliary hamiltonian by 0.000061 to set nElectrons=836.279088

-------- Electronic minimization -----------
	Linear fluid (dielectric constant: 78.4, screening length: 8.12261 Bohr) occupying 0.380638 of unit cell:	Completed after 18 iterations at t[s]:   2518.60
	FillingsUpdate:  mu: -0.134500000  nElectrons: 836.279088  magneticMoment: [ Abs: 0.00013  Tot: -0.00005 ]
ElecMinimize: Iter:   0  G: -6382.601461637445937  |grad|_K:  4.992e-07  alpha:  1.000e+00
	Linear fluid (dielectric constant: 78.4, screening length: 8.12261 Bohr) occupying 0.380158 of unit cell:	Completed after 23 iterations at t[s]:   2807.05
	Linear fluid (dielectric constant: 78.4, screening length: 8.12261 Bohr) occupying 0.380596 of unit cell:	Completed after 23 iterations at t[s]:   2903.88
	FillingsUpdate:  mu: -0.134500000  nElectrons: 836.273773  magneticMoment: [ Abs: 0.00013  Tot: -0.00005 ]
	SubspaceRotationAdjust: set factor to 0.0664
ElecMinimize: Iter:   1  G: -6382.601470351974058  |grad|_K:  2.225e-07  alpha:  6.906e-02  linmin:  1.497e-03  t[s]:   3042.07
	Linear fluid (dielectric constant: 78.4, screening length: 8.12261 Bohr) occupying 0.380603 of unit cell:	Completed after 10 iterations at t[s]:   3171.61
	Linear fluid (dielectric constant: 78.4, screening length: 8.12261 Bohr) occupying 0.380613 of unit cell:	Completed after 11 iterations at t[s]:   3263.72
	FillingsUpdate:  mu: -0.134500000  nElectrons: 836.276181  magneticMoment: [ Abs: 0.00011  Tot: -0.00005 ]
	SubspaceRotationAdjust: set factor to 0.0646
ElecMinimize: Iter:   2  G: -6382.601474659176347  |grad|_K:  6.067e-08  alpha:  1.724e-01  linmin: -1.476e-04  t[s]:   3400.36
	Linear fluid (dielectric constant: 78.4, screening length: 8.12261 Bohr) occupying 0.380615 of unit cell:	Completed after 2 iterations at t[s]:   3526.27
	Linear fluid (dielectric constant: 78.4, screening length: 8.12261 Bohr) occupying 0.380618 of unit cell:	Completed after 5 iterations at t[s]:   3615.28
	FillingsUpdate:  mu: -0.134500000  nElectrons: 836.276894  magneticMoment: [ Abs: 0.00010  Tot: -0.00005 ]
	SubspaceRotationAdjust: set factor to 0.0777
ElecMinimize: Iter:   3  G: -6382.601475562553787  |grad|_K:  3.850e-08  alpha:  4.808e-01  linmin:  2.071e-04  t[s]:   3752.92
	Linear fluid (dielectric constant: 78.4, screening length: 8.12261 Bohr) occupying 0.380627 of unit cell:	Completed after 8 iterations at t[s]:   3880.23
	Linear fluid (dielectric constant: 78.4, screening length: 8.12261 Bohr) occupying 0.380625 of unit cell:	Completed after 2 iterations at t[s]:   3966.20
	FillingsUpdate:  mu: -0.134500000  nElectrons: 836.277842  magneticMoment: [ Abs: 0.00009  Tot: -0.00005 ]
	SubspaceRotationAdjust: set factor to 0.0511
ElecMinimize: Iter:   4  G: -6382.601475827542345  |grad|_K:  4.604e-08  alpha:  3.448e-01  linmin:  2.278e-03  t[s]:   4103.79
	Linear fluid (dielectric constant: 78.4, screening length: 8.12261 Bohr) occupying 0.380618 of unit cell:	Completed after 10 iterations at t[s]:   4233.63
	Linear fluid (dielectric constant: 78.4, screening length: 8.12261 Bohr) occupying 0.380622 of unit cell:	Completed after 11 iterations at t[s]:   4326.55
	FillingsUpdate:  mu: -0.134500000  nElectrons: 836.277603  magneticMoment: [ Abs: 0.00008  Tot: -0.00005 ]
	SubspaceRotationAdjust: set factor to 0.0344
ElecMinimize: Iter:   5  G: -6382.601475922138889  |grad|_K:  3.059e-08  alpha:  1.185e-01  linmin:  9.720e-04  t[s]:   4464.27
	Linear fluid (dielectric constant: 78.4, screening length: 8.12261 Bohr) occupying 0.380623 of unit cell:	Completed after 2 iterations at t[s]:   4590.84
	Linear fluid (dielectric constant: 78.4, screening length: 8.12261 Bohr) occupying 0.380624 of unit cell:	Completed after 2 iterations at t[s]:   4679.91
	FillingsUpdate:  mu: -0.134500000  nElectrons: 836.277896  magneticMoment: [ Abs: 0.00007  Tot: -0.00004 ]
	SubspaceRotationAdjust: set factor to 0.0472
ElecMinimize: Iter:   6  G: -6382.601476070288300  |grad|_K:  2.199e-08  alpha:  3.182e-01  linmin: -6.029e-04  t[s]:   4817.03
	Linear fluid (dielectric constant: 78.4, screening length: 8.12261 Bohr) occupying 0.380628 of unit cell:	Completed after 6 iterations at t[s]:   4944.45
	Linear fluid (dielectric constant: 78.4, screening length: 8.12261 Bohr) occupying 0.380629 of unit cell:	Completed after 0 iterations at t[s]:   5032.53
	FillingsUpdate:  mu: -0.134500000  nElectrons: 836.278538  magneticMoment: [ Abs: 0.00007  Tot: -0.00004 ]
	SubspaceRotationAdjust: set factor to 0.0397
ElecMinimize: Iter:   7  G: -6382.601476155934506  |grad|_K:  1.952e-08  alpha:  3.409e-01  linmin: -5.578e-04  t[s]:   5169.69
	Linear fluid (dielectric constant: 78.4, screening length: 8.12261 Bohr) occupying 0.380628 of unit cell:	Completed after 2 iterations at t[s]:   5295.12
	Linear fluid (dielectric constant: 78.4, screening length: 8.12261 Bohr) occupying 0.380628 of unit cell:	Completed after 0 iterations at t[s]:   5383.79
	FillingsUpdate:  mu: -0.134500000  nElectrons: 836.278596  magneticMoment: [ Abs: 0.00007  Tot: -0.00004 ]
	SubspaceRotationAdjust: set factor to 0.0565
ElecMinimize: Iter:   8  G: -6382.601476232453024  |grad|_K:  1.783e-08  alpha:  3.825e-01  linmin: -1.708e-03  t[s]:   5521.99
ElecMinimize: Converged (|Delta G|<1.000000e-07 for 2 iters).
Setting wave functions to eigenvectors of Hamiltonian
Converging empty states (this may take a while): |deigs|: 3.112e-09

Computing DFT-D3 correction:
# coordination-number Ag 6.702 8.457 6.743 9.014 9.075 9.044 5.380 8.951 9.040 9.060 9.000 9.036 9.068 9.013 9.049 9.058 9.020 9.068 9.001 6.749 9.033 6.754 9.031 9.049 8.999 9.067 9.069 9.060 6.748 9.015 9.017 9.037 8.999 9.060 9.070 8.949 8.449 9.039 9.046 9.024 6.741 5.372 6.715 6.747
# diagonal-C6 Ag 268.61 268.61 268.61 268.61 268.61 268.61 268.61 268.61 268.61 268.61 268.61 268.61 268.61 268.61 268.61 268.61 268.61 268.61 268.61 268.61 268.61 268.61 268.61 268.61 268.61 268.61 268.61 268.61 268.61 268.61 268.61 268.61 268.61 268.61 268.61 268.61 268.61 268.61 268.61 268.61 268.61 268.61 268.61 268.61
EvdW_6 =   -0.303421
EvdW_8 =   -0.398878

# Ionic positions in cartesian coordinates:
ion Ag  -0.000539505722534  16.236546163358387  70.842397185276354 1
ion Ag   0.000132307614574  23.210409731751088  67.535513010776057 1
ion Ag   0.000421933240429   6.943869212074008  69.276738430036502 1
ion Ag  -0.000306533563660  13.883433557941622  65.913349809921485 1
ion Ag  -0.000125762977712  20.780992670343448  62.562887880508995 1
ion Ag  -0.000263926585553  18.443450020122935  57.637516879336054 1
ion Ag   0.000527720319900  -0.117808582599986  36.296722761671269 1
ion Ag   0.000312866275119   4.578556621358747  64.330824779559364 1
ion Ag  -0.000068963666868  11.524983749239297  60.988379416784632 1
ion Ag   0.000224019874344   2.295854331241809  59.316574481411607 1
ion Ag   5.420485984792475   9.222839788095969  56.021949267914799 1
ion Ag  -0.000171627594782  16.169477220975850  52.677229461954042 1
ion Ag   5.420455839367647  23.128731212515682  49.414882020230465 1
ion Ag   5.420231530735885  13.897134793516321  47.685652314554218 1
ion Ag   5.420236085833245  20.816610764983359  44.452381350494342 1
ion Ag   5.420615867379770   0.004104358091916  54.352503706132296 1
ion Ag   0.000218986320649   6.964137504221032  51.036809899509159 1
ion Ag   5.420633018755914   4.639978546022930  46.064934269730777 1
ion Ag   5.420264647965803  11.572169839149856  42.754971989829151 1
ion Ag   5.419860605061952  18.510538965864029  39.345636923750810 1
ion Ag   0.000213652521782   2.254446699699829  41.152407974120038 1
ion Ag   5.420674312205103   9.221133777437245  37.807771983007164 1
ion Ag   2.709981303790091  18.556640887621747  66.714487987202915 1
ion Ag   2.710478034988902  -0.016999553583541  63.406413041372069 1
ion Ag   2.710353733816515   9.227291310968456  65.112397493541891 1
ion Ag   2.710055309284475  16.158246078117653  61.801984631839744 1
ion Ag   2.710202771554989  23.085476636244461  58.448367943612084 1
ion Ag   2.710042415141213  20.785406115250147  53.511545157002175 1
ion Ag   2.710828591295001   2.301130765704195  68.522692010143246 1
ion Ag   2.710453857462862   6.894928539393667  60.183508329539578 1
ion Ag   2.709989594260028  13.829169729787118  56.829799148034695 1
ion Ag   2.710403741698195   4.623816277703686  55.187176919903536 1
ion Ag   2.710160003608031  11.567058058006886  51.848373159367313 1
ion Ag   2.710043178706037  18.498935435629623  48.545000926218712 1
ion Ag   2.710363508935884   0.015324691499135  45.301444411990239 1
ion Ag   2.709958690900637  16.219685013416040  43.536914103213157 1
ion Ag   2.710051793653166  23.027957714708780  40.323249103730724 1
ion Ag   2.710477672178902   2.347573889239361  50.227699458819870 1
ion Ag   2.710241053482873   9.270547290878174  46.879590148014053 1
ion Ag   2.710508499590742   6.921677018421470  41.954351458783833 1
ion Ag   2.709848665129045  13.866863734987165  38.591356304208567 1
ion Ag   2.709730817707943  20.946674077739463  71.566144209610741 1
ion Ag   2.710757056400953   4.583454439755176  37.022622067187392 1
ion Ag   2.709948648260013  11.590505903105770  70.058395190153064 1

# Forces in Cartesian coordinates:
force Ag   0.000002043840585  -0.000035790815801   0.001908003739511 1
force Ag   0.000002880572432   0.001176997965825   0.001058109242424 1
force Ag   0.000004293270172  -0.000173913361146   0.001220846554494 1
force Ag  -0.000003006757901   0.000299673150136  -0.000534731959486 1
force Ag  -0.000003170397979   0.000668656409223   0.000507134985788 1
force Ag  -0.000003382828987   0.000524365069324   0.000422046192154 1
force Ag   0.000005447171195   0.001032370295359   0.000628317142298 1
force Ag  -0.000000840429934  -0.000324582362936  -0.001294815686138 1
force Ag   0.000002397382861   0.000036103235405  -0.000389688306113 1
force Ag   0.000002282167424  -0.000154117631262  -0.000290137793698 1
force Ag  -0.000002228887204  -0.000118095849842  -0.000178478763001 1
force Ag   0.000002122804437   0.000488426946682   0.000242237480980 1
force Ag   0.000000204855045   0.000094380533560   0.000101463074897 1
force Ag  -0.000002757588771  -0.000039724529936   0.000119223341423 1
force Ag  -0.000002364913809  -0.000027687071567   0.000520957989926 1
force Ag   0.000002282760168  -0.000133023729097  -0.000046460491897 1
force Ag   0.000002097335340  -0.000273290621255   0.000271856616654 1
force Ag  -0.000000178102935  -0.000206132022037   0.001161555083716 1
force Ag   0.000001498817347  -0.000124824850433   0.000819626024841 1
force Ag  -0.000004875996571  -0.000912248201299  -0.001545090754252 1
force Ag   0.000004254223409   0.000673974890970   0.002350282212852 1
force Ag   0.000000210016936   0.000510113652863  -0.001434968163326 1
force Ag  -0.000002406967581  -0.000677035268992  -0.002355070250809 1
force Ag   0.000002602220402   0.000060492217779  -0.000520676536593 1
force Ag  -0.000001257845950   0.000148315655308  -0.000812080102250 1
force Ag   0.000000602435590   0.000215605439587  -0.001150483497159 1
force Ag  -0.000000346536790  -0.000086278089783  -0.000092980505494 1
force Ag  -0.000002879249680   0.000136815278765   0.000055695286714 1
force Ag   0.000005815668780   0.000955200331746   0.001510209890002 1
force Ag   0.000002418936244   0.000054684203673  -0.000137414868267 1
force Ag  -0.000002345284923   0.000268202450726  -0.000269428455867 1
force Ag  -0.000002248333169  -0.000487177054392  -0.000248031876734 1
force Ag   0.000002679329864   0.000127149679363   0.000178154502992 1
force Ag  -0.000001939305999   0.000163695450695   0.000291009077955 1
force Ag   0.000002776796371  -0.000648881860501  -0.000528794403626 1
force Ag   0.000000933909709   0.000366675336928   0.001278603745248 1
force Ag  -0.000001033558575  -0.001160463409039  -0.001087483639977 1
force Ag   0.000004012843913  -0.000528177613512  -0.000430987337600 1
force Ag  -0.000002309156805  -0.000028246682383   0.000390133496368 1
force Ag   0.000004066766757  -0.000304263133414   0.000513052274039 1
force Ag  -0.000005100635048   0.000198717937388  -0.001222129946459 1
force Ag  -0.000003250565527  -0.001261113176123  -0.000624323213206 1
force Ag   0.000000749246086  -0.000047556999508  -0.001930758431803 1
force Ag  -0.000001111761927  -0.000534628351002   0.001411151474635 1

# Energy components:
   A_diel =       -0.0929640224335203
   Eewald =    42070.0225274650802021
       EH =    48036.7086778143493575
     Eloc =   -97621.7064763479575049
      Enl =      173.5063750122049555
     EvdW =       -0.7022989377727870
      Exc =     -637.7699013452045165
 Exc_core =        9.1595148125814259
       KE =     1475.8182564515250306
  MuShift =       -0.0233188541259901
-------------------------------------
     Etot =    -6495.0796079517549515
       TS =        0.0013393835720065
-------------------------------------
        F =    -6495.0809473353265275
      muN =     -112.4794711028732337
-------------------------------------
        G =    -6382.6014762324530238


Dumping 'jdft.fillings' ... done
Dumping 'jdft.wfns' ... done
Dumping 'jdft.fluidState' ... done
Dumping 'jdft.ionpos' ... done
Dumping 'jdft.lattice' ... done
Dumping 'jdft.eigenvals' ... done
Dumping 'jdft.eigStats' ... 
	eMin: -3.519121 at state 12 ( [ +0.000000 +0.000000 +0.000000 ] spin -1 )
	HOMO: -0.134570 at state 3 ( [ +0.090909 +0.500000 +0.000000 ] spin 1 )
	mu  : -0.134500
	LUMO: -0.134465 at state 19 ( [ +0.272727 +0.500000 +0.000000 ] spin -1 )
	eMax: +0.207526 at state 2 ( [ +0.090909 +0.000000 +0.000000 ] spin 1 )
	HOMO-LUMO gap: +0.000105
	Optical gap  : +0.000199 at state 15 ( [ +0.090909 +0.500000 +0.000000 ] spin -1 )
Dumping 'jdft.Ecomponents' ... done
IonicMinimize: Iter:   1  G: -6382.601476232453024  |grad|_K:  6.443e-04  alpha:  1.000e+00  linmin: -9.906e-01  t[s]:   5869.74

#--- Lowdin population analysis ---
# oxidation-state Ag -0.024 -0.071 -0.015 -0.004 +0.004 +0.001 +0.067 -0.002 +0.002 +0.001 +0.004 +0.003 +0.002 +0.003 -0.000 +0.002 +0.005 +0.003 -0.003 +0.015 -0.010 -0.017 -0.010 -0.000 -0.004 +0.003 +0.002 +0.002 +0.015 +0.003 +0.005 +0.003 +0.004 +0.001 +0.004 -0.001 -0.071 +0.002 +0.002 -0.004 -0.015 +0.067 -0.024 -0.017
# magnetic-moments Ag -0.000 -0.000 -0.000 -0.000 -0.000 -0.000 -0.000 -0.000 -0.000 -0.000 -0.000 -0.000 -0.000 -0.000 -0.000 -0.000 -0.000 -0.000 -0.000 -0.000 -0.000 -0.000 -0.000 -0.000 -0.000 -0.000 -0.000 -0.000 -0.000 -0.000 -0.000 -0.000 -0.000 -0.000 -0.000 -0.000 -0.000 -0.000 -0.000 -0.000 -0.000 -0.000 -0.000 -0.000


Computing DFT-D3 correction:
# coordination-number Ag 6.662 8.416 6.724 8.980 9.097 9.070 5.406 8.931 9.049 9.078 9.004 9.042 9.081 9.019 9.039 9.071 9.028 9.084 8.957 6.721 9.000 6.707 9.003 9.048 8.962 9.092 9.088 9.073 6.724 9.028 9.030 9.045 9.000 9.070 9.085 8.921 8.407 9.059 9.047 8.981 6.718 5.401 6.669 6.705
# diagonal-C6 Ag 268.61 268.61 268.61 268.61 268.61 268.61 268.61 268.61 268.61 268.61 268.61 268.61 268.61 268.61 268.61 268.61 268.61 268.61 268.61 268.61 268.61 268.61 268.61 268.61 268.61 268.61 268.61 268.61 268.61 268.61 268.61 268.61 268.61 268.61 268.61 268.61 268.61 268.61 268.61 268.61 268.61 268.61 268.61 268.61
EvdW_6 =   -0.303460
EvdW_8 =   -0.398810
Shifting auxilliary hamiltonian by -0.000039 to set nElectrons=836.278596

-------- Electronic minimization -----------
	Linear fluid (dielectric constant: 78.4, screening length: 8.12261 Bohr) occupying 0.380463 of unit cell:	Completed after 21 iterations at t[s]:   6000.52
	FillingsUpdate:  mu: -0.134500000  nElectrons: 836.278596  magneticMoment: [ Abs: 0.00002  Tot: -0.00001 ]
ElecMinimize: Iter:   0  G: -6382.253638789731667  |grad|_K:  4.721e-05  alpha:  1.000e+00
	Linear fluid (dielectric constant: 78.4, screening length: 8.12261 Bohr) occupying 0.386367 of unit cell:	Completed after 31 iterations at t[s]:   6286.23
	Linear fluid (dielectric constant: 78.4, screening length: 8.12261 Bohr) occupying 0.381226 of unit cell:	Completed after 31 iterations at t[s]:   6386.63
	FillingsUpdate:  mu: -0.134500000  nElectrons: 836.355851  magneticMoment: [ Abs: 0.00002  Tot: -0.00001 ]
	SubspaceRotationAdjust: set factor to 0.0519
ElecMinimize: Iter:   1  G: -6382.560966725594881  |grad|_K:  1.502e-05  alpha:  2.697e-01  linmin:  1.254e-03  t[s]:   6525.13
	Linear fluid (dielectric constant: 78.4, screening length: 8.12261 Bohr) occupying 0.379914 of unit cell:	Completed after 23 iterations at t[s]:   6658.55
	Linear fluid (dielectric constant: 78.4, screening length: 8.12261 Bohr) occupying 0.380029 of unit cell:	Completed after 19 iterations at t[s]:   6755.90
	FillingsUpdate:  mu: -0.134500000  nElectrons: 836.168925  magneticMoment: [ Abs: 0.00002  Tot: -0.00001 ]
	SubspaceRotationAdjust: set factor to 0.0304
ElecMinimize: Iter:   2  G: -6382.584046167839006  |grad|_K:  7.942e-06  alpha:  2.007e-01  linmin: -6.132e-05  t[s]:   6892.68
	Linear fluid (dielectric constant: 78.4, screening length: 8.12261 Bohr) occupying 0.380622 of unit cell:	Completed after 21 iterations at t[s]:   7025.03
	Linear fluid (dielectric constant: 78.4, screening length: 8.12261 Bohr) occupying 0.380500 of unit cell:	Completed after 16 iterations at t[s]:   7118.92
	FillingsUpdate:  mu: -0.134500000  nElectrons: 836.264149  magneticMoment: [ Abs: 0.00002  Tot: -0.00001 ]
	SubspaceRotationAdjust: set factor to 0.0215
ElecMinimize: Iter:   3  G: -6382.589594807012872  |grad|_K:  3.045e-06  alpha:  1.711e-01  linmin:  1.186e-04  t[s]:   7254.60
	Linear fluid (dielectric constant: 78.4, screening length: 8.12261 Bohr) occupying 0.380536 of unit cell:	Completed after 15 iterations at t[s]:   7385.01
	Linear fluid (dielectric constant: 78.4, screening length: 8.12261 Bohr) occupying 0.380581 of unit cell:	Completed after 16 iterations at t[s]:   7479.55
	FillingsUpdate:  mu: -0.134500000  nElectrons: 836.274618  magneticMoment: [ Abs: 0.00002  Tot: -0.00001 ]
	SubspaceRotationAdjust: set factor to 0.0304
ElecMinimize: Iter:   4  G: -6382.591333774252234  |grad|_K:  1.822e-06  alpha:  3.660e-01  linmin: -6.653e-07  t[s]:   7615.78
	Linear fluid (dielectric constant: 78.4, screening length: 8.12261 Bohr) occupying 0.380452 of unit cell:	Completed after 16 iterations at t[s]:   7745.75
	Linear fluid (dielectric constant: 78.4, screening length: 8.12261 Bohr) occupying 0.380428 of unit cell:	Completed after 13 iterations at t[s]:   7838.43
	FillingsUpdate:  mu: -0.134500000  nElectrons: 836.250464  magneticMoment: [ Abs: 0.00001  Tot: -0.00001 ]
	SubspaceRotationAdjust: set factor to 0.0301
ElecMinimize: Iter:   5  G: -6382.592084191223876  |grad|_K:  1.548e-06  alpha:  4.404e-01  linmin: -1.055e-05  t[s]:   7973.81
	Linear fluid (dielectric constant: 78.4, screening length: 8.12261 Bohr) occupying 0.380531 of unit cell:	Completed after 16 iterations at t[s]:   8103.03
	Linear fluid (dielectric constant: 78.4, screening length: 8.12261 Bohr) occupying 0.380546 of unit cell:	Completed after 12 iterations at t[s]:   8195.49
	FillingsUpdate:  mu: -0.134500000  nElectrons: 836.267381  magneticMoment: [ Abs: 0.00001  Tot: -0.00001 ]
	SubspaceRotationAdjust: set factor to 0.0364
ElecMinimize: Iter:   6  G: -6382.592699185898709  |grad|_K:  1.370e-06  alpha:  5.001e-01  linmin: -2.136e-06  t[s]:   8330.52
	Linear fluid (dielectric constant: 78.4, screening length: 8.12261 Bohr) occupying 0.380533 of unit cell:	Completed after 16 iterations at t[s]:   8459.91
	Linear fluid (dielectric constant: 78.4, screening length: 8.12261 Bohr) occupying 0.380526 of unit cell:	Completed after 13 iterations at t[s]:   8550.85
	FillingsUpdate:  mu: -0.134500000  nElectrons: 836.266016  magneticMoment: [ Abs: 0.00001  Tot: -0.00001 ]
	SubspaceRotationAdjust: set factor to 0.0424
ElecMinimize: Iter:   7  G: -6382.593466888132753  |grad|_K:  1.853e-06  alpha:  7.969e-01  linmin:  2.655e-07  t[s]:   8686.24
	Linear fluid (dielectric constant: 78.4, screening length: 8.12261 Bohr) occupying 0.380438 of unit cell:	Completed after 19 iterations at t[s]:   8819.21
	Linear fluid (dielectric constant: 78.4, screening length: 8.12261 Bohr) occupying 0.380439 of unit cell:	Completed after 7 iterations at t[s]:   8910.33
	FillingsUpdate:  mu: -0.134500000  nElectrons: 836.258655  magneticMoment: [ Abs: 0.00001  Tot: -0.00001 ]
	SubspaceRotationAdjust: set factor to 0.0454
ElecMinimize: Iter:   8  G: -6382.594846933128792  |grad|_K:  2.486e-06  alpha:  7.829e-01  linmin: -6.314e-07  t[s]:   9046.89
	Linear fluid (dielectric constant: 78.4, screening length: 8.12261 Bohr) occupying 0.381045 of unit cell:	Completed after 18 iterations at t[s]:   9178.67
	Linear fluid (dielectric constant: 78.4, screening length: 8.12261 Bohr) occupying 0.380838 of unit cell:	Completed after 16 iterations at t[s]:   9272.65
	FillingsUpdate:  mu: -0.134500000  nElectrons: 836.315191  magneticMoment: [ Abs: 0.00001  Tot: -0.00001 ]
	SubspaceRotationAdjust: set factor to 0.039
ElecMinimize: Iter:   9  G: -6382.596561354524965  |grad|_K:  3.044e-06  alpha:  5.441e-01  linmin: -2.885e-06  t[s]:   9409.37
	Linear fluid (dielectric constant: 78.4, screening length: 8.12261 Bohr) occupying 0.380342 of unit cell:	Completed after 18 iterations at t[s]:   9540.28
	Linear fluid (dielectric constant: 78.4, screening length: 8.12261 Bohr) occupying 0.380492 of unit cell:	Completed after 16 iterations at t[s]:   9634.13
	FillingsUpdate:  mu: -0.134500000  nElectrons: 836.281816  magneticMoment: [ Abs: 0.00001  Tot: -0.00000 ]
	SubspaceRotationAdjust: set factor to 0.0306
ElecMinimize: Iter:  10  G: -6382.598351112078490  |grad|_K:  2.709e-06  alpha:  3.749e-01  linmin:  5.151e-07  t[s]:   9769.98
	Linear fluid (dielectric constant: 78.4, screening length: 8.12261 Bohr) occupying 0.380561 of unit cell:	Completed after 15 iterations at t[s]:   9900.15
	Linear fluid (dielectric constant: 78.4, screening length: 8.12261 Bohr) occupying 0.380583 of unit cell:	Completed after 13 iterations at t[s]:   9993.41
	FillingsUpdate:  mu: -0.134500000  nElectrons: 836.301663  magneticMoment: [ Abs: 0.00000  Tot: -0.00000 ]
	SubspaceRotationAdjust: set factor to 0.0342
ElecMinimize: Iter:  11  G: -6382.600309252886291  |grad|_K:  2.074e-06  alpha:  5.197e-01  linmin: -7.145e-06  t[s]:  10128.43
	Linear fluid (dielectric constant: 78.4, screening length: 8.12261 Bohr) occupying 0.380761 of unit cell:	Completed after 16 iterations at t[s]:  10258.72
	Linear fluid (dielectric constant: 78.4, screening length: 8.12261 Bohr) occupying 0.380717 of unit cell:	Completed after 13 iterations at t[s]:  10351.60
	FillingsUpdate:  mu: -0.134500000  nElectrons: 836.320101  magneticMoment: [ Abs: 0.00000  Tot: -0.00000 ]
	SubspaceRotationAdjust: set factor to 0.0325
ElecMinimize: Iter:  12  G: -6382.601179979697008  |grad|_K:  1.451e-06  alpha:  3.936e-01  linmin: -2.016e-06  t[s]:  10486.76
	Linear fluid (dielectric constant: 78.4, screening length: 8.12261 Bohr) occupying 0.380565 of unit cell:	Completed after 16 iterations at t[s]:  10616.11
	Linear fluid (dielectric constant: 78.4, screening length: 8.12261 Bohr) occupying 0.380572 of unit cell:	Completed after 10 iterations at t[s]:  10708.80
	FillingsUpdate:  mu: -0.134500000  nElectrons: 836.304609  magneticMoment: [ Abs: 0.00000  Tot: -0.00000 ]
	SubspaceRotationAdjust: set factor to 0.0271
ElecMinimize: Iter:  13  G: -6382.601586966043214  |grad|_K:  1.016e-06  alpha:  3.765e-01  linmin:  2.707e-06  t[s]:  10843.79
	Linear fluid (dielectric constant: 78.4, screening length: 8.12261 Bohr) occupying 0.380656 of unit cell:	Completed after 16 iterations at t[s]:  10973.69
	Linear fluid (dielectric constant: 78.4, screening length: 8.12261 Bohr) occupying 0.380652 of unit cell:	Completed after 10 iterations at t[s]:  11065.06
	FillingsUpdate:  mu: -0.134500000  nElectrons: 836.312641  magneticMoment: [ Abs: 0.00000  Tot: -0.00000 ]
	SubspaceRotationAdjust: set factor to 0.0266
ElecMinimize: Iter:  14  G: -6382.601776944998164  |grad|_K:  6.310e-07  alpha:  3.588e-01  linmin:  2.842e-06  t[s]:  11200.24
	Linear fluid (dielectric constant: 78.4, screening length: 8.12261 Bohr) occupying 0.380648 of unit cell:	Completed after 11 iterations at t[s]:  11319.33
	Linear fluid (dielectric constant: 78.4, screening length: 8.12261 Bohr) occupying 0.380648 of unit cell:	Completed after 2 iterations at t[s]:  11399.42
	FillingsUpdate:  mu: -0.134500000  nElectrons: 836.310615  magneticMoment: [ Abs: 0.00000  Tot: -0.00000 ]
	SubspaceRotationAdjust: set factor to 0.031
ElecMinimize: Iter:  15  G: -6382.601860516995657  |grad|_K:  4.506e-07  alpha:  4.092e-01  linmin: -3.903e-06  t[s]:  11522.58
	Linear fluid (dielectric constant: 78.4, screening length: 8.12261 Bohr) occupying 0.380610 of unit cell:	Completed after 14 iterations at t[s]:  11638.78
	Linear fluid (dielectric constant: 78.4, screening length: 8.12261 Bohr) occupying 0.380611 of unit cell:	Completed after 2 iterations at t[s]:  11718.84
	FillingsUpdate:  mu: -0.134500000  nElectrons: 836.304579  magneticMoment: [ Abs: 0.00000  Tot: -0.00000 ]
	SubspaceRotationAdjust: set factor to 0.0335
ElecMinimize: Iter:  16  G: -6382.601902014661391  |grad|_K:  3.299e-07  alpha:  3.982e-01  linmin:  2.376e-06  t[s]:  11841.49
	Linear fluid (dielectric constant: 78.4, screening length: 8.12261 Bohr) occupying 0.380630 of unit cell:	Completed after 14 iterations at t[s]:  11957.40
	Linear fluid (dielectric constant: 78.4, screening length: 8.12261 Bohr) occupying 0.380630 of unit cell:	Completed after 2 iterations at t[s]:  12037.44
	FillingsUpdate:  mu: -0.134500000  nElectrons: 836.305129  magneticMoment: [ Abs: 0.00000  Tot: -0.00000 ]
	SubspaceRotationAdjust: set factor to 0.0366
ElecMinimize: Iter:  17  G: -6382.601925171741641  |grad|_K:  2.630e-07  alpha:  4.146e-01  linmin: -1.325e-04  t[s]:  12160.50
	Linear fluid (dielectric constant: 78.4, screening length: 8.12261 Bohr) occupying 0.380603 of unit cell:	Completed after 11 iterations at t[s]:  12275.39
	Linear fluid (dielectric constant: 78.4, screening length: 8.12261 Bohr) occupying 0.380599 of unit cell:	Completed after 7 iterations at t[s]:  12356.70
	FillingsUpdate:  mu: -0.134500000  nElectrons: 836.299885  magneticMoment: [ Abs: 0.00000  Tot: -0.00000 ]
	SubspaceRotationAdjust: set factor to 0.0451
ElecMinimize: Iter:  18  G: -6382.601942253332709  |grad|_K:  2.248e-07  alpha:  4.788e-01  linmin:  7.361e-05  t[s]:  12479.83
	Linear fluid (dielectric constant: 78.4, screening length: 8.12261 Bohr) occupying 0.380568 of unit cell:	Completed after 14 iterations at t[s]:  12595.72
	Linear fluid (dielectric constant: 78.4, screening length: 8.12261 Bohr) occupying 0.380568 of unit cell:	Completed after 0 iterations at t[s]:  12674.71
	FillingsUpdate:  mu: -0.134500000  nElectrons: 836.295017  magneticMoment: [ Abs: 0.00000  Tot: -0.00000 ]
	SubspaceRotationAdjust: set factor to 0.0537
ElecMinimize: Iter:  19  G: -6382.601954823265260  |grad|_K:  2.124e-07  alpha:  4.863e-01  linmin: -8.043e-05  t[s]:  12797.31
	Linear fluid (dielectric constant: 78.4, screening length: 8.12261 Bohr) occupying 0.380562 of unit cell:	Completed after 13 iterations at t[s]:  12913.13
	Linear fluid (dielectric constant: 78.4, screening length: 8.12261 Bohr) occupying 0.380562 of unit cell:	Completed after 6 iterations at t[s]:  12994.22
	FillingsUpdate:  mu: -0.134500000  nElectrons: 836.293649  magneticMoment: [ Abs: 0.00000  Tot: -0.00000 ]
	SubspaceRotationAdjust: set factor to 0.0536
ElecMinimize: Iter:  20  G: -6382.601965057165216  |grad|_K:  2.144e-07  alpha:  4.400e-01  linmin:  5.588e-05  t[s]:  13117.02
	Linear fluid (dielectric constant: 78.4, screening length: 8.12261 Bohr) occupying 0.380495 of unit cell:	Completed after 14 iterations at t[s]:  13232.92
	Linear fluid (dielectric constant: 78.4, screening length: 8.12261 Bohr) occupying 0.380517 of unit cell:	Completed after 11 iterations at t[s]:  13315.71
	FillingsUpdate:  mu: -0.134500000  nElectrons: 836.287861  magneticMoment: [ Abs: 0.00000  Tot: -0.00000 ]
	SubspaceRotationAdjust: set factor to 0.0469
ElecMinimize: Iter:  21  G: -6382.601972007401855  |grad|_K:  1.977e-07  alpha:  2.974e-01  linmin: -3.418e-05  t[s]:  13439.21
	Linear fluid (dielectric constant: 78.4, screening length: 8.12261 Bohr) occupying 0.380511 of unit cell:	Completed after 12 iterations at t[s]:  13554.42
	Linear fluid (dielectric constant: 78.4, screening length: 8.12261 Bohr) occupying 0.380510 of unit cell:	Completed after 7 iterations at t[s]:  13635.55
	FillingsUpdate:  mu: -0.134500000  nElectrons: 836.286953  magneticMoment: [ Abs: 0.00000  Tot: -0.00000 ]
	SubspaceRotationAdjust: set factor to 0.0524
ElecMinimize: Iter:  22  G: -6382.601980009447288  |grad|_K:  1.630e-07  alpha:  3.984e-01  linmin:  2.515e-05  t[s]:  13758.66
	Linear fluid (dielectric constant: 78.4, screening length: 8.12261 Bohr) occupying 0.380497 of unit cell:	Completed after 5 iterations at t[s]:  13871.79
	Linear fluid (dielectric constant: 78.4, screening length: 8.12261 Bohr) occupying 0.380493 of unit cell:	Completed after 3 iterations at t[s]:  13951.66
	FillingsUpdate:  mu: -0.134500000  nElectrons: 836.285095  magneticMoment: [ Abs: 0.00000  Tot: -0.00000 ]
	SubspaceRotationAdjust: set factor to 0.0644
ElecMinimize: Iter:  23  G: -6382.601987369956987  |grad|_K:  1.608e-07  alpha:  5.417e-01  linmin:  1.261e-05  t[s]:  14074.76
	Linear fluid (dielectric constant: 78.4, screening length: 8.12261 Bohr) occupying 0.380466 of unit cell:	Completed after 13 iterations at t[s]:  14190.69
	Linear fluid (dielectric constant: 78.4, screening length: 8.12261 Bohr) occupying 0.380471 of unit cell:	Completed after 7 iterations at t[s]:  14272.06
	FillingsUpdate:  mu: -0.134500000  nElectrons: 836.282541  magneticMoment: [ Abs: 0.00000  Tot: -0.00000 ]
	SubspaceRotationAdjust: set factor to 0.0659
ElecMinimize: Iter:  24  G: -6382.601993273651715  |grad|_K:  1.842e-07  alpha:  4.462e-01  linmin: -1.364e-05  t[s]:  14394.81
	Linear fluid (dielectric constant: 78.4, screening length: 8.12261 Bohr) occupying 0.380508 of unit cell:	Completed after 14 iterations at t[s]:  14510.72
	Linear fluid (dielectric constant: 78.4, screening length: 8.12261 Bohr) occupying 0.380490 of unit cell:	Completed after 13 iterations at t[s]:  14593.94
	FillingsUpdate:  mu: -0.134500000  nElectrons: 836.285148  magneticMoment: [ Abs: 0.00000  Tot: -0.00000 ]
	SubspaceRotationAdjust: set factor to 0.0532
ElecMinimize: Iter:  25  G: -6382.601997379187196  |grad|_K:  1.697e-07  alpha:  2.362e-01  linmin: -3.463e-06  t[s]:  14717.32
	Linear fluid (dielectric constant: 78.4, screening length: 8.12261 Bohr) occupying 0.380483 of unit cell:	Completed after 11 iterations at t[s]:  14832.41
	Linear fluid (dielectric constant: 78.4, screening length: 8.12261 Bohr) occupying 0.380480 of unit cell:	Completed after 7 iterations at t[s]:  14913.61
	FillingsUpdate:  mu: -0.134500000  nElectrons: 836.283999  magneticMoment: [ Abs: 0.00000  Tot: -0.00000 ]
	SubspaceRotationAdjust: set factor to 0.0563
ElecMinimize: Iter:  26  G: -6382.602002436398834  |grad|_K:  1.301e-07  alpha:  3.423e-01  linmin:  3.946e-06  t[s]:  15036.78
	Linear fluid (dielectric constant: 78.4, screening length: 8.12261 Bohr) occupying 0.380483 of unit cell:	Completed after 6 iterations at t[s]:  15150.23
	Linear fluid (dielectric constant: 78.4, screening length: 8.12261 Bohr) occupying 0.380483 of unit cell:	Completed after 3 iterations at t[s]:  15230.17
	FillingsUpdate:  mu: -0.134500000  nElectrons: 836.284223  magneticMoment: [ Abs: 0.00000  Tot: -0.00000 ]
	SubspaceRotationAdjust: set factor to 0.0631
ElecMinimize: Iter:  27  G: -6382.602006380036073  |grad|_K:  1.094e-07  alpha:  4.553e-01  linmin:  1.700e-05  t[s]:  15352.47
	Linear fluid (dielectric constant: 78.4, screening length: 8.12261 Bohr) occupying 0.380503 of unit cell:	Completed after 11 iterations at t[s]:  15467.44
	Linear fluid (dielectric constant: 78.4, screening length: 8.12261 Bohr) occupying 0.380499 of unit cell:	Completed after 6 iterations at t[s]:  15548.36
	FillingsUpdate:  mu: -0.134500000  nElectrons: 836.285886  magneticMoment: [ Abs: 0.00000  Tot: -0.00000 ]
	SubspaceRotationAdjust: set factor to 0.0582
ElecMinimize: Iter:  28  G: -6382.602008602991191  |grad|_K:  1.051e-07  alpha:  3.607e-01  linmin:  8.204e-05  t[s]:  15671.29
	Linear fluid (dielectric constant: 78.4, screening length: 8.12261 Bohr) occupying 0.380485 of unit cell:	Completed after 11 iterations at t[s]:  15786.29
	Linear fluid (dielectric constant: 78.4, screening length: 8.12261 Bohr) occupying 0.380490 of unit cell:	Completed after 11 iterations at t[s]:  15869.04
	FillingsUpdate:  mu: -0.134500000  nElectrons: 836.284606  magneticMoment: [ Abs: 0.00000  Tot: -0.00000 ]
	SubspaceRotationAdjust: set factor to 0.0448
ElecMinimize: Iter:  29  G: -6382.602009813124823  |grad|_K:  8.250e-08  alpha:  2.177e-01  linmin: -8.276e-06  t[s]:  15992.18
	Linear fluid (dielectric constant: 78.4, screening length: 8.12261 Bohr) occupying 0.380495 of unit cell:	Completed after 6 iterations at t[s]:  16105.62
	Linear fluid (dielectric constant: 78.4, screening length: 8.12261 Bohr) occupying 0.380498 of unit cell:	Completed after 7 iterations at t[s]:  16186.64
	FillingsUpdate:  mu: -0.134500000  nElectrons: 836.285310  magneticMoment: [ Abs: 0.00000  Tot: -0.00000 ]
	SubspaceRotationAdjust: set factor to 0.054
ElecMinimize: Iter:  30  G: -6382.602011103241239  |grad|_K:  6.056e-08  alpha:  3.706e-01  linmin:  4.203e-05  t[s]:  16309.83
	Linear fluid (dielectric constant: 78.4, screening length: 8.12261 Bohr) occupying 0.380502 of unit cell:	Completed after 2 iterations at t[s]:  16422.07
	Linear fluid (dielectric constant: 78.4, screening length: 8.12261 Bohr) occupying 0.380502 of unit cell:	Completed after 2 iterations at t[s]:  16501.59
	FillingsUpdate:  mu: -0.134500000  nElectrons: 836.285600  magneticMoment: [ Abs: 0.00000  Tot: -0.00000 ]
	SubspaceRotationAdjust: set factor to 0.0652
ElecMinimize: Iter:  31  G: -6382.602011942664831  |grad|_K:  5.390e-08  alpha:  4.502e-01  linmin:  3.779e-05  t[s]:  16624.23
	Linear fluid (dielectric constant: 78.4, screening length: 8.12261 Bohr) occupying 0.380501 of unit cell:	Completed after 7 iterations at t[s]:  16737.81
	Linear fluid (dielectric constant: 78.4, screening length: 8.12261 Bohr) occupying 0.380501 of unit cell:	Completed after 0 iterations at t[s]:  16816.20
	FillingsUpdate:  mu: -0.134500000  nElectrons: 836.285154  magneticMoment: [ Abs: 0.00000  Tot: -0.00000 ]
	SubspaceRotationAdjust: set factor to 0.0779
ElecMinimize: Iter:  32  G: -6382.602012640272733  |grad|_K:  5.148e-08  alpha:  4.704e-01  linmin: -1.857e-05  t[s]:  16938.73
	Linear fluid (dielectric constant: 78.4, screening length: 8.12261 Bohr) occupying 0.380505 of unit cell:	Completed after 6 iterations at t[s]:  17052.02
	Linear fluid (dielectric constant: 78.4, screening length: 8.12261 Bohr) occupying 0.380505 of unit cell:	Completed after 0 iterations at t[s]:  17130.82
	FillingsUpdate:  mu: -0.134500000  nElectrons: 836.285521  magneticMoment: [ Abs: 0.00000  Tot: -0.00000 ]
	SubspaceRotationAdjust: set factor to 0.0842
ElecMinimize: Iter:  33  G: -6382.602013312210147  |grad|_K:  5.423e-08  alpha:  4.925e-01  linmin: -3.592e-05  t[s]:  17253.62
	Linear fluid (dielectric constant: 78.4, screening length: 8.12261 Bohr) occupying 0.380495 of unit cell:	Completed after 11 iterations at t[s]:  17368.63
	Linear fluid (dielectric constant: 78.4, screening length: 8.12261 Bohr) occupying 0.380498 of unit cell:	Completed after 6 iterations at t[s]:  17449.54
	FillingsUpdate:  mu: -0.134500000  nElectrons: 836.284524  magneticMoment: [ Abs: 0.00000  Tot: -0.00000 ]
	SubspaceRotationAdjust: set factor to 0.0748
ElecMinimize: Iter:  34  G: -6382.602013856198937  |grad|_K:  5.859e-08  alpha:  3.495e-01  linmin:  9.826e-05  t[s]:  17569.68
	Linear fluid (dielectric constant: 78.4, screening length: 8.12261 Bohr) occupying 0.380507 of unit cell:	Completed after 11 iterations at t[s]:  17684.83
[...]
	FillingsUpdate:  mu: -0.134500000  nElectrons: 836.293898  magneticMoment: [ Abs: 0.00026  Tot: -0.00023 ]
	SubspaceRotationAdjust: set factor to 0.0441
ElecMinimize: Iter:   5  G: -6382.602395623495795  |grad|_K:  8.804e-08  alpha:  3.813e-01  linmin:  2.792e-04  t[s]:  50056.97
	Linear fluid (dielectric constant: 78.4, screening length: 8.12261 Bohr) occupying 0.380293 of unit cell:	Completed after 11 iterations at t[s]:  50171.81
	Linear fluid (dielectric constant: 78.4, screening length: 8.12261 Bohr) occupying 0.380286 of unit cell:	Completed after 10 iterations at t[s]:  50254.13
	FillingsUpdate:  mu: -0.134500000  nElectrons: 836.295017  magneticMoment: [ Abs: 0.00027  Tot: -0.00022 ]
	SubspaceRotationAdjust: set factor to 0.0361
ElecMinimize: Iter:   6  G: -6382.602396532297462  |grad|_K:  6.626e-08  alpha:  2.342e-01  linmin: -1.054e-04  t[s]:  50377.24
	Linear fluid (dielectric constant: 78.4, screening length: 8.12261 Bohr) occupying 0.380286 of unit cell:	Completed after 2 iterations at t[s]:  50489.34
	Linear fluid (dielectric constant: 78.4, screening length: 8.12261 Bohr) occupying 0.380286 of unit cell:	Completed after 2 iterations at t[s]:  50568.62
	FillingsUpdate:  mu: -0.134500000  nElectrons: 836.294897  magneticMoment: [ Abs: 0.00030  Tot: -0.00020 ]
	SubspaceRotationAdjust: set factor to 0.0446
ElecMinimize: Iter:   7  G: -6382.602397797472804  |grad|_K:  7.212e-08  alpha:  5.562e-01  linmin: -1.365e-04  t[s]:  50691.39
	Linear fluid (dielectric constant: 78.4, screening length: 8.12261 Bohr) occupying 0.380275 of unit cell:	Completed after 10 iterations at t[s]:  50806.07
	Linear fluid (dielectric constant: 78.4, screening length: 8.12261 Bohr) occupying 0.380277 of unit cell:	Completed after 5 iterations at t[s]:  50886.59
	FillingsUpdate:  mu: -0.134500000  nElectrons: 836.293591  magneticMoment: [ Abs: 0.00027  Tot: -0.00018 ]
	SubspaceRotationAdjust: set factor to 0.0397
ElecMinimize: Iter:   8  G: -6382.602399066265207  |grad|_K:  7.946e-08  alpha:  4.706e-01  linmin:  2.422e-04  t[s]:  51009.12
	Linear fluid (dielectric constant: 78.4, screening length: 8.12261 Bohr) occupying 0.380290 of unit cell:	Completed after 11 iterations at t[s]:  51123.99
	Linear fluid (dielectric constant: 78.4, screening length: 8.12261 Bohr) occupying 0.380287 of unit cell:	Completed after 7 iterations at t[s]:  51204.94
	FillingsUpdate:  mu: -0.134500000  nElectrons: 836.294614  magneticMoment: [ Abs: 0.00024  Tot: -0.00017 ]
	SubspaceRotationAdjust: set factor to 0.0313
ElecMinimize: Iter:   9  G: -6382.602400169115754  |grad|_K:  7.572e-08  alpha:  3.491e-01  linmin: -6.733e-05  t[s]:  51328.27
	Linear fluid (dielectric constant: 78.4, screening length: 8.12261 Bohr) occupying 0.380286 of unit cell:	Completed after 2 iterations at t[s]:  51440.33
	Linear fluid (dielectric constant: 78.4, screening length: 8.12261 Bohr) occupying 0.380285 of unit cell:	Completed after 2 iterations at t[s]:  51519.58
	FillingsUpdate:  mu: -0.134500000  nElectrons: 836.294188  magneticMoment: [ Abs: 0.00024  Tot: -0.00016 ]
	SubspaceRotationAdjust: set factor to 0.0392
ElecMinimize: Iter:  10  G: -6382.602401582233142  |grad|_K:  6.631e-08  alpha:  4.777e-01  linmin: -3.859e-05  t[s]:  51642.38
	Linear fluid (dielectric constant: 78.4, screening length: 8.12261 Bohr) occupying 0.380275 of unit cell:	Completed after 11 iterations at t[s]:  51757.40
	Linear fluid (dielectric constant: 78.4, screening length: 8.12261 Bohr) occupying 0.380278 of unit cell:	Completed after 7 iterations at t[s]:  51838.29
	FillingsUpdate:  mu: -0.134500000  nElectrons: 836.293112  magneticMoment: [ Abs: 0.00023  Tot: -0.00015 ]
	SubspaceRotationAdjust: set factor to 0.0314
ElecMinimize: Iter:  11  G: -6382.602402344898110  |grad|_K:  6.036e-08  alpha:  3.464e-01  linmin: -3.481e-04  t[s]:  51961.26
	Linear fluid (dielectric constant: 78.4, screening length: 8.12261 Bohr) occupying 0.380285 of unit cell:	Completed after 10 iterations at t[s]:  52076.03
	Linear fluid (dielectric constant: 78.4, screening length: 8.12261 Bohr) occupying 0.380285 of unit cell:	Completed after 0 iterations at t[s]:  52154.66
	FillingsUpdate:  mu: -0.134500000  nElectrons: 836.293830  magneticMoment: [ Abs: 0.00020  Tot: -0.00015 ]
	SubspaceRotationAdjust: set factor to 0.0244
ElecMinimize: Iter:  12  G: -6382.602402941323817  |grad|_K:  4.172e-08  alpha:  3.121e-01  linmin:  7.727e-04  t[s]:  52277.47
	Linear fluid (dielectric constant: 78.4, screening length: 8.12261 Bohr) occupying 0.380285 of unit cell:	Completed after 2 iterations at t[s]:  52389.58
	Linear fluid (dielectric constant: 78.4, screening length: 8.12261 Bohr) occupying 0.380285 of unit cell:	Completed after 0 iterations at t[s]:  52467.83
	FillingsUpdate:  mu: -0.134500000  nElectrons: 836.293826  magneticMoment: [ Abs: 0.00017  Tot: -0.00014 ]
	SubspaceRotationAdjust: set factor to 0.0302
ElecMinimize: Iter:  13  G: -6382.602403262288135  |grad|_K:  2.663e-08  alpha:  3.697e-01  linmin: -1.433e-03  t[s]:  52590.85
	Linear fluid (dielectric constant: 78.4, screening length: 8.12261 Bohr) occupying 0.380283 of unit cell:	Completed after 6 iterations at t[s]:  52704.31
	Linear fluid (dielectric constant: 78.4, screening length: 8.12261 Bohr) occupying 0.380283 of unit cell:	Completed after 0 iterations at t[s]:  52782.80
	FillingsUpdate:  mu: -0.134500000  nElectrons: 836.293552  magneticMoment: [ Abs: 0.00016  Tot: -0.00014 ]
	SubspaceRotationAdjust: set factor to 0.0275
ElecMinimize: Iter:  14  G: -6382.602403406332087  |grad|_K:  1.894e-08  alpha:  3.788e-01  linmin: -2.620e-03  t[s]:  52905.47
	Linear fluid (dielectric constant: 78.4, screening length: 8.12261 Bohr) occupying 0.380285 of unit cell:	Completed after 3 iterations at t[s]:  53017.88
	Linear fluid (dielectric constant: 78.4, screening length: 8.12261 Bohr) occupying 0.380285 of unit cell:	Completed after 0 iterations at t[s]:  53096.47
	FillingsUpdate:  mu: -0.134500000  nElectrons: 836.293748  magneticMoment: [ Abs: 0.00016  Tot: -0.00014 ]
	SubspaceRotationAdjust: set factor to 0.0334
ElecMinimize: Iter:  15  G: -6382.602403485731884  |grad|_K:  1.707e-08  alpha:  4.023e-01  linmin: -1.558e-03  t[s]:  53219.32
	Linear fluid (dielectric constant: 78.4, screening length: 8.12261 Bohr) occupying 0.380287 of unit cell:	Completed after 6 iterations at t[s]:  53332.53
	Linear fluid (dielectric constant: 78.4, screening length: 8.12261 Bohr) occupying 0.380286 of unit cell:	Completed after 2 iterations at t[s]:  53412.23
	FillingsUpdate:  mu: -0.134500000  nElectrons: 836.293891  magneticMoment: [ Abs: 0.00015  Tot: -0.00013 ]
	SubspaceRotationAdjust: set factor to 0.027
ElecMinimize: Iter:  16  G: -6382.602403510100885  |grad|_K:  1.994e-08  alpha:  2.104e-01  linmin:  6.880e-04  t[s]:  53535.15
ElecMinimize: Converged (|Delta G|<1.000000e-07 for 2 iters).
Setting wave functions to eigenvectors of Hamiltonian
Converging empty states (this may take a while): |deigs|: 3.123e-08

Computing DFT-D3 correction:
# coordination-number Ag 6.643 8.314 6.731 8.904 9.065 9.093 5.454 8.883 9.020 9.094 9.023 9.080 9.112 9.015 8.999 9.128 9.042 9.053 8.907 6.668 8.899 6.706 8.903 9.010 8.913 9.056 9.119 9.130 6.673 9.024 9.041 9.085 9.019 9.087 9.053 8.873 8.299 9.086 9.020 8.908 6.724 5.451 6.652 6.702
# diagonal-C6 Ag 268.61 268.61 268.61 268.61 268.61 268.61 268.61 268.61 268.61 268.61 268.61 268.61 268.61 268.61 268.61 268.61 268.61 268.61 268.61 268.61 268.61 268.61 268.61 268.61 268.61 268.61 268.61 268.61 268.61 268.61 268.61 268.61 268.61 268.61 268.61 268.61 268.61 268.61 268.61 268.61 268.61 268.61 268.61 268.61
EvdW_6 =   -0.303338
EvdW_8 =   -0.398412

# Ionic positions in cartesian coordinates:
ion Ag  -0.000218407962047  16.204245235770621  70.886905550425965 1
ion Ag   0.000300600701468  23.267258506293324  67.578346525475169 1
ion Ag   0.000434328190952   6.964918458687948  69.315248544680287 1
ion Ag  -0.000474407381497  13.877378634833079  65.900188180568975 1
ion Ag  -0.000249579872642  20.816152973294756  62.571472417855333 1
ion Ag  -0.000516401240361  18.470280489199485  57.638916175802500 1
ion Ag   0.000872330439663  -0.042122493999366  36.340046130646378 1
ion Ag   0.000295499770655   4.577681337092658  64.304827334568614 1
ion Ag   0.000131823857543  11.527455498700823  60.963111215818749 1
ion Ag   0.000305817838035   2.291027655807163  59.299129250526406 1
ion Ag   5.420304100061673   9.216737916407091  56.010267125326095 1
ion Ag  -0.000058229204080  16.190566774179061  52.690770227728770 1
ion Ag   5.420471040354238  23.121841455327733  49.420180946869330 1
ion Ag   5.420134751642261  13.898793885894225  47.706880334289352 1
ion Ag   5.420089770039229  20.799313702535109  44.451356150436062 1
ion Ag   5.420677537926712  -0.005243224437735  54.349183815351573 1
ion Ag   0.000249536415121   6.952242618285525  51.059390934458570 1
ion Ag   5.420696364301646   4.629280093644267  46.108841708011582 1
ion Ag   5.420328833516711  11.574246998509173  42.769828572600410 1
ion Ag   5.419779681918157  18.450346003132353  39.281132006947168 1
ion Ag   0.000439859355100   2.268929644832478  41.209358225442827 1
ion Ag   5.420943166937474   9.231834370441533  37.758750160946548 1
ion Ag   2.709804671511757  18.541083396409739  66.656356198588441 1
ion Ag   2.710612551351157   0.000441165984380  63.408348182898763 1
ion Ag   2.710274608872731   9.224324994253067  65.096535103031428 1
ion Ag   2.710016289023387  16.170358702670946  61.759560003406598 1
ion Ag   2.710129052983993  23.093866594881160  58.445804912724242 1
ion Ag   2.709915609223545  20.795720720851254  53.518419385232782 1
ion Ag   2.710871021105803   2.359274347431187  68.583502032205146 1
ion Ag   2.710521932764880   6.894663717436592  60.162430943747154 1
ion Ag   2.709914883531832  13.841791860915542  56.810707694979996 1
ion Ag   2.710218597438033   4.602865458257548  55.176961104456559 1
ion Ag   2.710305459816464  11.573977574073533  51.862591376536209 1
ion Ag   2.709908150974321  18.504961561393841  48.564785683415508 1
ion Ag   2.710463992609851  -0.016886990749704  45.293756937252560 1
ion Ag   2.709963401313397  16.220615286503630  43.561164735959814 1
ion Ag   2.709945435920110  22.970973371928821  40.278866447785362 1
ion Ag   2.710678190803093   2.322623151846280  50.229264332046149 1
ion Ag   2.709997051650840   9.268552455020476  46.905966817595676 1
ion Ag   2.710739175931546   6.926428024714355  41.965774125559001 1
ion Ag   2.709833709801148  13.844594710717363  38.549137310482415 1
ion Ag   2.709495760297135  20.868700445329850  71.518945248285746 1
ion Ag   2.710612975487749   4.614265428848404  36.973822711864699 1
ion Ag   2.709751459981200  11.576592486850432  70.104716177168328 1

# Forces in Cartesian coordinates:
force Ag   0.000000153310614  -0.000176647397448  -0.000209922148637 1
force Ag  -0.000002305501065   0.000024400953246  -0.000143508398414 1
force Ag  -0.000003960426851   0.000081749857017  -0.000117933835506 1
force Ag   0.000000440560411  -0.000048250719469  -0.000054014622781 1
force Ag   0.000000773312971   0.000172193367933  -0.000036269190623 1
force Ag  -0.000000124953155   0.000016466877384   0.000102157204221 1
force Ag  -0.000003892029409   0.000329604698613   0.000037667390718 1
force Ag   0.000000002150264   0.000140348577297   0.000161175661949 1
force Ag   0.000000108624771   0.000071829263447  -0.000041129585196 1
force Ag  -0.000001039601622   0.000083295971807   0.000121828776566 1
force Ag   0.000000386671551  -0.000008075029448   0.000076645472899 1
force Ag   0.000000062098093  -0.000049710626692  -0.000175300562977 1
force Ag  -0.000000369834540   0.000012670178239  -0.000182943746191 1
force Ag   0.000000715490371  -0.000061796939573  -0.000017344057613 1
force Ag   0.000000714783055   0.000064863093934  -0.000096230257816 1
force Ag  -0.000000940887339   0.000016452877029  -0.000009786078277 1
force Ag  -0.000000901219483  -0.000034425491181  -0.000264126879066 1
force Ag   0.000000232759078   0.000041764047280   0.000019918978525 1
force Ag   0.000000827812151  -0.000167333488510   0.000064916664602 1
force Ag   0.000006767490674  -0.000232853267983   0.000284847683088 1
force Ag  -0.000000932110462  -0.000071826897608  -0.000025951912734 1
force Ag  -0.000000943515783  -0.000035332132401   0.000282787796696 1
force Ag   0.000001283738858   0.000071192050435   0.000027087639906 1
force Ag  -0.000000377796049  -0.000041733511928   0.000076652184257 1
force Ag  -0.000000475506807   0.000184721906390  -0.000056421613505 1
force Ag  -0.000000144579970  -0.000022684755485  -0.000026255666743 1
force Ag  -0.000000350056971  -0.000007704113310   0.000119358100234 1
force Ag   0.000000684012898  -0.000007390543923  -0.000091895886533 1
force Ag  -0.000004518277821   0.000171829994596  -0.000179154711032 1
force Ag  -0.000000755882699   0.000056518929523   0.000000848893368 1
force Ag   0.000000631791123   0.000062064627467   0.000176672355497 1
force Ag  -0.000000124367965   0.000059489163366   0.000078235429189 1
force Ag  -0.000000423840318   0.000025973466065  -0.000177372587094 1
force Ag   0.000001113035266  -0.000084768382018  -0.000155902519026 1
force Ag  -0.000000565886894  -0.000178884415515   0.000011295469064 1
force Ag   0.000000567473547  -0.000120195887198  -0.000142530273801 1
force Ag   0.000001886017934  -0.000035162773545   0.000212632681165 1
force Ag  -0.000000726196274   0.000010590428329  -0.000173934409818 1
force Ag   0.000000000695252  -0.000036112729098   0.000029985806602 1
force Ag   0.000000192252929   0.000074202658310   0.000090000410816 1
force Ag   0.000006127438209  -0.000084585221144   0.000209655227276 1
force Ag   0.000001931002380  -0.000239702908794   0.000048757748764 1
force Ag  -0.000000975831007   0.000214323316980   0.000272389573657 1
force Ag   0.000001683906127   0.000118891891204  -0.000193121059427 1

# Energy components:
   A_diel =       -0.0981960062020608
   Eewald =    42037.3414660873531830
       EH =    48003.4223005111198290
     Eloc =   -97555.7223792381118983
      Enl =      173.5024580668601004
     EvdW =       -0.7017508213864136
      Exc =     -637.7611184459165088
 Exc_core =        9.1595145753799176
       KE =     1475.7996277755371466
  MuShift =       -0.0245990646696595
-------------------------------------
     Etot =    -6495.0826765600322688
       TS =        0.0012552252508145
-------------------------------------
        F =    -6495.0839317852833119
      muN =     -112.4815282751820433
-------------------------------------
        G =    -6382.6024035101008849


Dumping 'jdft.fillings' ... done
Dumping 'jdft.wfns' ... done
Dumping 'jdft.fluidState' ... done
Dumping 'jdft.ionpos' ... done
Dumping 'jdft.lattice' ... done
Dumping 'jdft.eigenvals' ... done
Dumping 'jdft.eigStats' ... 
	eMin: -3.518939 at state 12 ( [ +0.000000 +0.000000 +0.000000 ] spin -1 )
	HOMO: -0.134454 at state 3 ( [ +0.090909 +0.500000 +0.000000 ] spin 1 )
	mu  : -0.134500
	LUMO: -0.134249 at state 15 ( [ +0.090909 +0.500000 +0.000000 ] spin -1 )
	eMax: +0.207590 at state 2 ( [ +0.090909 +0.000000 +0.000000 ] spin 1 )
	HOMO-LUMO gap: +0.000205
	Optical gap  : +0.000205 at state 3 ( [ +0.090909 +0.500000 +0.000000 ] spin 1 )
Dumping 'jdft.Ecomponents' ... done
IonicMinimize: Iter:   5  G: -6382.602403510100885  |grad|_K:  1.049e-04  alpha:  1.000e+00  linmin: -6.280e-01  t[s]:  53921.37
IonicMinimize: Converged (|Delta G|<1.000000e-04 for 2 iters).

#--- Lowdin population analysis ---
# oxidation-state Ag -0.027 -0.070 -0.019 -0.002 +0.003 +0.002 +0.059 +0.000 +0.003 +0.002 +0.004 +0.003 +0.002 +0.003 -0.000 +0.003 +0.006 +0.003 -0.001 +0.013 -0.007 -0.020 -0.007 -0.001 -0.002 +0.003 +0.002 +0.003 +0.013 +0.003 +0.006 +0.003 +0.004 +0.002 +0.003 +0.000 -0.069 +0.002 +0.003 -0.002 -0.019 +0.060 -0.027 -0.019
# magnetic-moments Ag -0.000 -0.000 -0.000 -0.000 -0.000 -0.000 -0.000 -0.000 -0.000 -0.000 -0.000 -0.000 -0.000 -0.000 -0.000 -0.000 -0.000 -0.000 -0.000 -0.000 -0.000 -0.000 -0.000 -0.000 -0.000 -0.000 -0.000 -0.000 -0.000 -0.000 -0.000 -0.000 -0.000 -0.000 -0.000 -0.000 -0.000 -0.000 -0.000 -0.000 -0.000 -0.000 -0.000 -0.000


Dumping 'jdft.n_up' ... done
Dumping 'jdft.n_dn' ... done
Dumping 'jdft.tau_up' ... done
Dumping 'jdft.tau_dn' ... done
Dumping 'jdft.eigenvals' ... done
Dumping 'jdft.eigStats' ... 
	eMin: -3.518939 at state 12 ( [ +0.000000 +0.000000 +0.000000 ] spin -1 )
	HOMO: -0.134454 at state 3 ( [ +0.090909 +0.500000 +0.000000 ] spin 1 )
	mu  : -0.134500
	LUMO: -0.134249 at state 15 ( [ +0.090909 +0.500000 +0.000000 ] spin -1 )
	eMax: +0.207590 at state 2 ( [ +0.090909 +0.000000 +0.000000 ] spin 1 )
	HOMO-LUMO gap: +0.000205
	Optical gap  : +0.000205 at state 3 ( [ +0.090909 +0.500000 +0.000000 ] spin 1 )
Dumping 'jdft.kPts' ... done
Dumping 'jdft.kMap' ... done
Dumping 'jdft.dosUp' ... done.
Dumping 'jdft.dosDn' ... done.
End date and time: Wed Sep 14 09:31:52 2022  (Duration: 0-15:01:41.21)
Done!

PROFILER:             augmentDensityGrid     4.514830 +/-     0.205052 s,  311 calls,   1404.112190 s total
PROFILER:         augmentDensityGridGrad     1.367799 +/-     0.404747 s,  164 calls,    224.319100 s total
PROFILER:        augmentDensitySpherical     0.009226 +/-     0.000514 s,  311 calls,      2.869281 s total
PROFILER:    augmentDensitySphericalGrad     0.012498 +/-     0.002215 s,  177 calls,      2.212211 s total
PROFILER:                 augmentOverlap    20.356908 +/-     1.280119 s,  646 calls,  13150.562784 s total
PROFILER:                     diagouterI    27.655135 +/-     1.198846 s,  314 calls,   8683.712256 s total
PROFILER:              EdensityAndVscloc     7.468046 +/-     2.508942 s,  311 calls,   2322.562347 s total
PROFILER:                     EnlAndGrad     0.100771 +/-     0.007240 s,  330 calls,     33.254429 s total
PROFILER:            ExCorrCommunication     0.126331 +/-     0.286601 s, 1934 calls,    244.324838 s total
PROFILER:               ExCorrFunctional     0.010742 +/-     0.001652 s,  330 calls,      3.545020 s total
PROFILER:                    ExCorrTotal     0.881867 +/-     0.388613 s,  330 calls,    291.016201 s total
PROFILER:                   Idag_DiagV_I    55.396635 +/-     4.437624 s,  171 calls,   9472.824663 s total
PROFILER:                    initWeights     1.961261 +/-     0.000000 s,    1 calls,      1.961261 s total
PROFILER:                    inv(matrix)     0.165870 +/-     0.048986 s,  306 calls,     50.756229 s total
PROFILER:            matrix::diagonalize     0.183112 +/-     0.110421 s,  482 calls,     88.260183 s total
PROFILER:                    matrix::set     0.000023 +/-     0.000027 s, 22388 calls,      0.512864 s total
PROFILER:            orthoMatrix(matrix)     0.034420 +/-     0.023966 s,  317 calls,     10.911222 s total
PROFILER:     RadialFunctionR::transform     0.069512 +/-     0.477763 s,   57 calls,      3.962166 s total
PROFILER:                    reduceKmesh     0.000482 +/-     0.000000 s,    1 calls,      0.000482 s total
PROFILER:   VanDerWaalsD3::energyAndGrad     0.041052 +/-     0.001272 s,   13 calls,      0.533672 s total
PROFILER:               WavefunctionDrag    76.712314 +/-    17.694262 s,    6 calls,    460.273886 s total
PROFILER:                            Y*M     7.386002 +/-     1.779018 s, 2094 calls,  15466.287149 s total
PROFILER:                          Y1^Y2     7.908914 +/-     1.852002 s, 1338 calls,  10582.127253 s total

MEMUSAGE:                   ColumnBundle     2.094550 GB
MEMUSAGE:        complexScalarFieldTilde     0.022711 GB
MEMUSAGE:                    IndexArrays     0.015143 GB
MEMUSAGE:                         matrix     0.172100 GB
MEMUSAGE:                           misc     0.022840 GB
MEMUSAGE:                    ScalarField     0.164653 GB
MEMUSAGE:               ScalarFieldTilde     0.120043 GB
MEMUSAGE:                          Total     2.289016 GB
