
*************** JDFTx 1.6.0  ***************

Start date and time: Mon Dec  6 16:08:01 2021
Executable /projects/musgravc/apps/jdftx-1.6.1/build/jdftx with command-line: -i in
Running on hosts (process indices):  shas0141.rc.int.colorado.edu (0-23)
Divided in process groups (process indices):  0 (0)  1 (1)  2 (2)  3 (3)  4 (4)  5 (5)  6 (6)  7 (7)  8 (8)  9 (9)  10 (10)  11 (11)  12 (12)  13 (13)  14 (14)  15 (15)  16 (16)  17 (17)  18 (18)  19 (19)  20 (20)  21 (21)  22 (22)  23 (23)
Resource initialization completed at t[s]:      0.00
Run totals: 24 processes, 24 threads, 0 GPUs


Input parsed successfully to the following command list (including defaults):

basis kpoint-dependent
converge-empty-states yes
coords-type Cartesian
core-overlap-check none
coulomb-interaction Periodic
davidson-band-ratio 1.1
density-of-states Etol 1.000000e-06 Esigma 1.000000e-03 \
		Complete \
	Total \
	OrthoOrbital Cu 1   s \
	OrthoOrbital Cu 1   p \
	OrthoOrbital Cu 1   px \
	OrthoOrbital Cu 1   py \
	OrthoOrbital Cu 1   pz \
	OrthoOrbital Cu 1   d \
	OrthoOrbital Cu 1   dxy \
	OrthoOrbital Cu 1   dyz \
	OrthoOrbital Cu 1   dz2 \
	OrthoOrbital Cu 1   dxz \
	OrthoOrbital Cu 1   dx2-y2 \
	OrthoOrbital Cu 2   s \
	OrthoOrbital Cu 2   p \
	OrthoOrbital Cu 2   px \
	OrthoOrbital Cu 2   py \
	OrthoOrbital Cu 2   pz \
	OrthoOrbital Cu 2   d \
	OrthoOrbital Cu 2   dxy \
	OrthoOrbital Cu 2   dyz \
	OrthoOrbital Cu 2   dz2 \
	OrthoOrbital Cu 2   dxz \
	OrthoOrbital Cu 2   dx2-y2 \
	OrthoOrbital Cu 3   s \
	OrthoOrbital Cu 3   p \
	OrthoOrbital Cu 3   px \
	OrthoOrbital Cu 3   py \
	OrthoOrbital Cu 3   pz \
	OrthoOrbital Cu 3   d \
	OrthoOrbital Cu 3   dxy \
	OrthoOrbital Cu 3   dyz \
	OrthoOrbital Cu 3   dz2 \
	OrthoOrbital Cu 3   dxz \
	OrthoOrbital Cu 3   dx2-y2 \
	OrthoOrbital Cu 4   s \
	OrthoOrbital Cu 4   p \
	OrthoOrbital Cu 4   px \
	OrthoOrbital Cu 4   py \
	OrthoOrbital Cu 4   pz \
	OrthoOrbital Cu 4   d \
	OrthoOrbital Cu 4   dxy \
	OrthoOrbital Cu 4   dyz \
	OrthoOrbital Cu 4   dz2 \
	OrthoOrbital Cu 4   dxz \
	OrthoOrbital Cu 4   dx2-y2 \
	OrthoOrbital Cu 5   s \
	OrthoOrbital Cu 5   p \
	OrthoOrbital Cu 5   px \
	OrthoOrbital Cu 5   py \
	OrthoOrbital Cu 5   pz \
	OrthoOrbital Cu 5   d \
	OrthoOrbital Cu 5   dxy \
	OrthoOrbital Cu 5   dyz \
	OrthoOrbital Cu 5   dz2 \
	OrthoOrbital Cu 5   dxz \
	OrthoOrbital Cu 5   dx2-y2 \
	OrthoOrbital Cu 6   s \
	OrthoOrbital Cu 6   p \
	OrthoOrbital Cu 6   px \
	OrthoOrbital Cu 6   py \
	OrthoOrbital Cu 6   pz \
	OrthoOrbital Cu 6   d \
	OrthoOrbital Cu 6   dxy \
	OrthoOrbital Cu 6   dyz \
	OrthoOrbital Cu 6   dz2 \
	OrthoOrbital Cu 6   dxz \
	OrthoOrbital Cu 6   dx2-y2 \
	OrthoOrbital Cu 7   s \
	OrthoOrbital Cu 7   p \
	OrthoOrbital Cu 7   px \
	OrthoOrbital Cu 7   py \
	OrthoOrbital Cu 7   pz \
	OrthoOrbital Cu 7   d \
	OrthoOrbital Cu 7   dxy \
	OrthoOrbital Cu 7   dyz \
	OrthoOrbital Cu 7   dz2 \
	OrthoOrbital Cu 7   dxz \
	OrthoOrbital Cu 7   dx2-y2 \
	OrthoOrbital Cu 8   s \
	OrthoOrbital Cu 8   p \
	OrthoOrbital Cu 8   px \
	OrthoOrbital Cu 8   py \
	OrthoOrbital Cu 8   pz \
	OrthoOrbital Cu 8   d \
	OrthoOrbital Cu 8   dxy \
	OrthoOrbital Cu 8   dyz \
	OrthoOrbital Cu 8   dz2 \
	OrthoOrbital Cu 8   dxz \
	OrthoOrbital Cu 8   dx2-y2
dump End ElecDensity KEdensity BandEigs EigStats RhoAtom DOS Kpoints
dump Ionic State IonicPositions Lattice EigStats Ecomponents
dump 
dump 
dump 
dump 
dump 
dump 
dump 
dump 
dump-name jdft.$VAR
elec-cutoff 20
elec-eigen-algo Davidson
elec-ex-corr gga-PBE
elec-initial-magnetization 0.000000 no
elec-n-bands 92
elec-smearing Fermi 0.001
electronic-minimize  \
	dirUpdateScheme      FletcherReeves \
	linminMethod         DirUpdateRecommended \
	nIterations          100 \
	history              15 \
	knormThreshold       0 \
	energyDiffThreshold  1e-07 \
	nEnergyDiff          2 \
	alphaTstart          1 \
	alphaTmin            1e-10 \
	updateTestStepSize   yes \
	alphaTreduceFactor   0.1 \
	alphaTincreaseFactor 3 \
	nAlphaAdjustMax      3 \
	wolfeEnergy          0.0001 \
	wolfeGradient        0.9 \
	fdTest               no
exchange-regularization WignerSeitzTruncated
fluid LinearPCM 298.000000 1.013250
fluid-anion F- 0.5 MeanFieldLJ \
	epsBulk 1 \
	pMol 0 \
	epsInf 1 \
	Pvap 0 \
	sigmaBulk 0 \
	Rvdw 2.24877 \
	Res 0 \
	tauNuc 343133
fluid-cation Na+ 0.5 MeanFieldLJ \
	epsBulk 1 \
	pMol 0 \
	epsInf 1 \
	Pvap 0 \
	sigmaBulk 0 \
	Rvdw 2.19208 \
	Res 0 \
	tauNuc 343133
fluid-ex-corr lda-TF lda-PZ
fluid-gummel-loop 10 1.000000e-05
fluid-minimize  \
	dirUpdateScheme      PolakRibiere \
	linminMethod         DirUpdateRecommended \
	nIterations          400 \
	history              15 \
	knormThreshold       1e-11 \
	energyDiffThreshold  0 \
	nEnergyDiff          2 \
	alphaTstart          1 \
	alphaTmin            1e-10 \
	updateTestStepSize   yes \
	alphaTreduceFactor   0.1 \
	alphaTincreaseFactor 3 \
	nAlphaAdjustMax      6 \
	wolfeEnergy          0.0001 \
	wolfeGradient        0.9 \
	fdTest               no
fluid-solvent H2O 55.338 ScalarEOS \
	epsBulk 78.4 \
	pMol 0.92466 \
	epsInf 1.77 \
	Pvap 1.06736e-10 \
	sigmaBulk 4.62e-05 \
	Rvdw 2.61727 \
	Res 1.42 \
	tauNuc 343133 \
	poleEl 15 7 1
forces-output-coords Positions
ion Cu   4.766623000000000   6.741023000000000  44.091266999999995 1
ion Cu   0.000000000000000   6.741023000000000  39.324643000000002 1
ion Cu   2.383311000000000   3.370512000000000  46.474578999999991 1
ion Cu   2.383311000000000   3.370512000000000  41.707954999999998 1
ion Cu   0.000000000000000   0.000000000000000  34.558019999999992 1
ion Cu   0.000000000000000   0.000000000000000  29.791396999999996 1
ion Cu   2.383311000000000   3.370512000000000  36.941332000000003 1
ion Cu   2.383311000000000   3.370512000000000  32.174708000000003 1
ion-species /projects/musgravc/apps/jdftx-1.6.0/build/pseudopotentials/GBRV_v1.5/$ID_pbe_v1.uspp
ion-species /projects/musgravc/apps/jdftx-1.6.0/build/pseudopotentials/GBRV_v1.5/$ID_pbe_v1.2.uspp
ion-species /projects/musgravc/apps/jdftx-1.6.0/build/pseudopotentials/GBRV_v1.5/$ID_pbe_v1.4.uspp
ion-species /projects/musgravc/apps/jdftx-1.6.0/build/pseudopotentials/GBRV_v1.5/$ID_pbe_v1.5.uspp
ion-width Ecut
ionic-minimize  \
	dirUpdateScheme      L-BFGS \
	linminMethod         DirUpdateRecommended \
	nIterations          100 \
	history              15 \
	knormThreshold       0.0001 \
	energyDiffThreshold  1e-06 \
	nEnergyDiff          2 \
	alphaTstart          1 \
	alphaTmin            1e-10 \
	updateTestStepSize   yes \
	alphaTreduceFactor   0.1 \
	alphaTincreaseFactor 3 \
	nAlphaAdjustMax      3 \
	wolfeEnergy          0.0001 \
	wolfeGradient        0.9 \
	fdTest               no
kpoint   0.000000000000   0.000000000000   0.000000000000  1.00000000000000
kpoint-folding 12 8 1 
latt-move-scale 0 0 0
latt-scale 1 1 1 
lattice  \
	   4.766623000000000    0.000000000000000    0.000000000000000  \
	   0.000000000000000    6.741023000000000    0.000000000000000  \
	  -0.000000000000000    0.000000000000000   47.666234000000003 
lattice-minimize  \
	dirUpdateScheme      L-BFGS \
	linminMethod         DirUpdateRecommended \
	nIterations          0 \
	history              15 \
	knormThreshold       0 \
	energyDiffThreshold  1e-06 \
	nEnergyDiff          2 \
	alphaTstart          1 \
	alphaTmin            1e-10 \
	updateTestStepSize   yes \
	alphaTreduceFactor   0.1 \
	alphaTincreaseFactor 3 \
	nAlphaAdjustMax      3 \
	wolfeEnergy          0.0001 \
	wolfeGradient        0.9 \
	fdTest               no
lcao-params 30 1e-06 0.001
pcm-variant CANDLE
spintype z-spin
subspace-rotation-factor 1 yes
symmetries none
symmetry-threshold 0.0001
target-mu -0.1713 no

van-der-waals D3


Applied RMS atom displacement 0 bohrs to make symmetries exact.

---------- Initializing the Grid ----------
R = 
[      4.76662            0            0  ]
[            0      6.74102            0  ]
[            0            0      47.6662  ]
unit cell volume = 1531.61
G =
[    1.31816          0          0  ]
[         -0   0.932082          0  ]
[          0         -0   0.131816  ]
Minimum fftbox size, Smin = [  20  28  192  ]
Chosen fftbox size, S = [  20  28  192  ]

---------- Exchange Correlation functional ----------
Initalized PBE GGA exchange.
Initalized PBE GGA correlation.

---------- Setting up pseudopotentials ----------
Width of ionic core gaussian charges (only for fluid interactions / plotting) set to 0.397384

Reading pseudopotential file '/projects/musgravc/apps/jdftx-1.6.0/build/pseudopotentials/GBRV_v1.5/cu_pbe_v1.2.uspp':
  Title: Cu.  Created by USPP 7.3.6 on 3-2-2014
  Reference state energy: -201.059491.  19 valence electrons in orbitals:
    |300>  occupation: 2  eigenvalue: -5.020764
    |310>  occupation: 6  eigenvalue: -3.445588
    |320>  occupation: 8  eigenvalue: -0.925168
    |400>  occupation: 2  eigenvalue: -0.567638
    |410>  occupation: 0  eigenvalue: -0.326154
  lMax: 2  lLocal: 3  QijEcut: 6
  6 projectors sampled on a log grid with 613 points:
    l: 0  eig: -5.020767  rCut: 1.4
    l: 0  eig: -0.567640  rCut: 1.4
    l: 1  eig: -3.445589  rCut: 1.55
    l: 1  eig: -0.326157  rCut: 1.55
    l: 2  eig: -0.925170  rCut: 1.5
    l: 2  eig: 1.500000  rCut: 1.5
  Partial core density with radius 0.8
  Transforming core density to a uniform radial grid of dG=0.02 with 1128 points.
  Transforming local potential to a uniform radial grid of dG=0.02 with 1128 points.
  Transforming nonlocal projectors to a uniform radial grid of dG=0.02 with 432 points.
  Transforming density augmentations to a uniform radial grid of dG=0.02 with 1128 points.
  Transforming atomic orbitals to a uniform radial grid of dG=0.02 with 432 points.
  Core radius for overlap checks: 1.55 bohrs.

Initialized 1 species with 8 total atoms.

Folded 1 k-points by 12x8x1 to 96 k-points.

---------- Setting up k-points, bands, fillings ----------
No reducable k-points. 
Computing the number of bands and number of electrons
Calculating initial fillings.
nElectrons: 152.000000   nBands: 92   nStates: 192

----- Setting up reduced wavefunction bases (one per k-point) -----
average nbasis = 6542.969 , ideal nbasis = 6543.143

----- Initializing Supercell corresponding to k-point mesh -----
Lattice vector linear combinations in supercell:
[  12   0   0  ]
[   0   8   0  ]
[   0   0   1  ]
Supercell lattice vectors:
[  57.1995  0  0  ]
[  0  53.9282  0  ]
[  0  0  47.6662  ]

Initializing DFT-D3 calculator:
	Parameters set for gga-PBE functional
	s6:  1.000  s_r6:  1.217
	s8:  0.722  s_r8:  1.000
	Per-atom parameters loaded for:
	Cu:  sqrtQ[a0]:  5.226  Rcov[a0]:  1.909  CN: [ 0.00 0.96 ]

Initializing DFT-D2 calculator for fluid / solvation:
	Cu:  C6:  187.33 Eh-a0^6  R0: 2.952 a0

---------- Setting up ewald sum ----------
Optimum gaussian width for ewald sums = 3.251703 bohr.
Real space sum over 1105 unit cells with max indices [  8  6  2  ]
Reciprocal space sum over 4851 terms with max indices [  4  5  24  ]

Computing DFT-D3 correction:
# coordination-number Cu 8.354 9.157 5.354 9.147 9.147 5.354 9.157 8.354
# diagonal-C6 Cu 175.00 175.00 175.00 175.00 175.00 175.00 175.00 175.00
EvdW_6 =   -0.045710
EvdW_8 =   -0.069700

---------- Allocating electronic variables ----------
Initializing wave functions:  linear combination of atomic orbitals
Cu pseudo-atom occupations:   s ( 2 1 )  p ( 6 0 )  d ( 10 )
	FillingsUpdate:  mu: -0.171300000  nElectrons: 152.000000  magneticMoment: [ Abs: 0.10288  Tot: +0.00216 ]
LCAOMinimize: Iter:   0  G: -1541.3518135004046599  |grad|_K:  3.217e-02  alpha:  1.000e+00
LCAOMinimize: 	Step increased G by 2.529089e+02, reducing alpha to 4.431935e-02.
LCAOMinimize: 	Step increased G by 3.140506e+01, reducing alpha to 4.431935e-03.
	FillingsUpdate:  mu: -0.171300000  nElectrons: 152.000000  magneticMoment: [ Abs: 0.10693  Tot: +0.00041 ]
LCAOMinimize: Iter:   1  G: -1549.3146178046158639  |grad|_K:  1.820e-02  alpha:  4.432e-03  linmin: -1.869e-01  cgtest:  8.739e-01  t[s]:     26.42
LCAOMinimize: Encountered beta<0, resetting CG.
	FillingsUpdate:  mu: -0.171300000  nElectrons: 152.000000  magneticMoment: [ Abs: 0.11786  Tot: -0.00428 ]
LCAOMinimize: Iter:   2  G: -1553.3483571494059561  |grad|_K:  1.056e-02  alpha:  1.003e-02  linmin: -1.210e-01  cgtest:  2.955e-01  t[s]:     33.21
LCAOMinimize: 	Wrong curvature in test step, increasing alphaT to 3.008199e-02.
	FillingsUpdate:  mu: -0.171300000  nElectrons: 152.000000  magneticMoment: [ Abs: 0.12338  Tot: -0.02585 ]
LCAOMinimize: Iter:   3  G: -1556.4419127950081929  |grad|_K:  1.209e-02  alpha: -3.111e-02  linmin: -2.037e-01  cgtest:  8.202e-01  t[s]:     39.60
	FillingsUpdate:  mu: -0.171300000  nElectrons: 152.000000  magneticMoment: [ Abs: 0.00184  Tot: +0.00144 ]
LCAOMinimize: Iter:   4  G: -1578.4907754335890786  |grad|_K:  2.562e-03  alpha:  5.204e-01  linmin:  4.681e-02  cgtest: -3.544e+00  t[s]:     46.17
	FillingsUpdate:  mu: -0.171300000  nElectrons: 152.000000  magneticMoment: [ Abs: 0.00132  Tot: -0.00026 ]
LCAOMinimize: Iter:   5  G: -1578.6988569444604309  |grad|_K:  2.230e-03  alpha:  9.526e-02  linmin: -1.050e-02  cgtest:  9.295e-01  t[s]:     52.74
LCAOMinimize: Encountered beta<0, resetting CG.
LCAOMinimize: 	Wrong curvature in test step, increasing alphaT to 2.857741e-01.
	FillingsUpdate:  mu: -0.171300000  nElectrons: 152.000000  magneticMoment: [ Abs: 0.00168  Tot: -0.00079 ]
LCAOMinimize: Iter:   6  G: -1579.7474973451089681  |grad|_K:  2.113e-03  alpha: -1.045e+00  linmin: -9.538e-02  cgtest:  8.460e-01  t[s]:     59.26
	FillingsUpdate:  mu: -0.171300000  nElectrons: 152.000000  magneticMoment: [ Abs: 0.00156  Tot: -0.00041 ]
LCAOMinimize: Iter:   7  G: -1580.0431326242921841  |grad|_K:  2.109e-03  alpha:  2.734e-02  linmin: -6.783e-02  cgtest:  9.502e-01  t[s]:     66.09
LCAOMinimize: 	Wrong curvature in test step, increasing alphaT to 8.202817e-02.
	FillingsUpdate:  mu: -0.171300000  nElectrons: 152.000000  magneticMoment: [ Abs: 0.00159  Tot: -0.00082 ]
LCAOMinimize: Iter:   8  G: -1580.3162255270046899  |grad|_K:  2.076e-03  alpha: -2.905e+00  linmin: -1.177e-01  cgtest:  9.682e-01  t[s]:     72.42
	FillingsUpdate:  mu: -0.171300000  nElectrons: 152.000000  magneticMoment: [ Abs: 0.00132  Tot: -0.00033 ]
LCAOMinimize: Iter:   9  G: -1580.6026572075811600  |grad|_K:  2.067e-03  alpha:  3.026e-02  linmin: -1.093e-01  cgtest:  9.553e-01  t[s]:     78.99
LCAOMinimize: 	Wrong curvature in test step, increasing alphaT to 9.077577e-02.
	FillingsUpdate:  mu: -0.171300000  nElectrons: 152.000000  magneticMoment: [ Abs: 0.00144  Tot: -0.00053 ]
LCAOMinimize: Iter:  10  G: -1580.8971144841327714  |grad|_K:  2.086e-03  alpha: -4.826e-01  linmin: -6.600e-02  cgtest:  9.421e-01  t[s]:     85.34
	FillingsUpdate:  mu: -0.171300000  nElectrons: 152.000000  magneticMoment: [ Abs: 0.00175  Tot: -0.00121 ]
LCAOMinimize: Iter:  11  G: -1581.2419725919319262  |grad|_K:  2.068e-03  alpha:  3.416e-02  linmin: -1.095e-01  cgtest:  9.509e-01  t[s]:     92.19
LCAOMinimize: 	Wrong curvature in test step, increasing alphaT to 1.024944e-01.
	FillingsUpdate:  mu: -0.171300000  nElectrons: 152.000000  magneticMoment: [ Abs: 0.00159  Tot: -0.00098 ]
LCAOMinimize: Iter:  12  G: -1581.5742322954506562  |grad|_K:  2.070e-03  alpha: -6.173e-01  linmin: -1.018e-01  cgtest:  9.431e-01  t[s]:     98.59
	FillingsUpdate:  mu: -0.171300000  nElectrons: 152.000000  magneticMoment: [ Abs: 0.00150  Tot: -0.00087 ]
LCAOMinimize: Iter:  13  G: -1581.9357748534409893  |grad|_K:  2.070e-03  alpha:  3.626e-02  linmin: -1.185e-01  cgtest:  9.382e-01  t[s]:    105.17
LCAOMinimize: 	Wrong curvature in test step, increasing alphaT to 1.087803e-01.
	FillingsUpdate:  mu: -0.171300000  nElectrons: 152.000000  magneticMoment: [ Abs: 0.00140  Tot: -0.00073 ]
LCAOMinimize: Iter:  14  G: -1582.2981923032161831  |grad|_K:  2.065e-03  alpha: -5.997e-01  linmin: -1.441e-01  cgtest:  9.381e-01  t[s]:    111.52
	FillingsUpdate:  mu: -0.171300000  nElectrons: 152.000000  magneticMoment: [ Abs: 0.00125  Tot: -0.00049 ]
LCAOMinimize: Iter:  15  G: -1582.7029726743467108  |grad|_K:  2.062e-03  alpha:  4.048e-02  linmin: -1.641e-01  cgtest:  9.266e-01  t[s]:    118.09
LCAOMinimize: 	Wrong curvature in test step, increasing alphaT to 1.214295e-01.
	FillingsUpdate:  mu: -0.171300000  nElectrons: 152.000000  magneticMoment: [ Abs: 0.00122  Tot: -0.00043 ]
LCAOMinimize: Iter:  16  G: -1583.1133323569674758  |grad|_K:  2.060e-03  alpha: -4.974e-01  linmin: -1.387e-01  cgtest:  9.199e-01  t[s]:    124.88
	FillingsUpdate:  mu: -0.171300000  nElectrons: 152.000000  magneticMoment: [ Abs: 0.00112  Tot: +0.00012 ]
LCAOMinimize: Iter:  17  G: -1583.6760087943819144  |grad|_K:  2.022e-03  alpha:  5.462e-02  linmin: -1.575e-01  cgtest:  8.978e-01  t[s]:    131.46
LCAOMinimize: 	Wrong curvature in test step, increasing alphaT to 1.638498e-01.
	FillingsUpdate:  mu: -0.171300000  nElectrons: 152.000000  magneticMoment: [ Abs: 0.00112  Tot: +0.00014 ]
LCAOMinimize: Iter:  18  G: -1584.2154495697429866  |grad|_K:  1.964e-03  alpha: -7.519e-01  linmin: -1.259e-01  cgtest:  8.948e-01  t[s]:    137.86
	FillingsUpdate:  mu: -0.171300000  nElectrons: 152.000000  magneticMoment: [ Abs: 0.00113  Tot: +0.00028 ]
LCAOMinimize: Iter:  19  G: -1584.5860879769938947  |grad|_K:  1.880e-03  alpha:  4.054e-02  linmin: -1.849e-01  cgtest:  9.381e-01  t[s]:    144.41
LCAOMinimize: 	Wrong curvature in test step, increasing alphaT to 1.216275e-01.
	FillingsUpdate:  mu: -0.171300000  nElectrons: 152.000000  magneticMoment: [ Abs: 0.00115  Tot: +0.00024 ]
LCAOMinimize: Iter:  20  G: -1584.8997214443579651  |grad|_K:  1.814e-03  alpha: -1.688e+00  linmin: -1.856e-01  cgtest:  9.371e-01  t[s]:    150.93
	FillingsUpdate:  mu: -0.171300000  nElectrons: 152.000000  magneticMoment: [ Abs: 0.00118  Tot: +0.00013 ]
LCAOMinimize: Iter:  21  G: -1585.1227817903027244  |grad|_K:  1.772e-03  alpha:  3.060e-02  linmin: -1.394e-01  cgtest:  9.485e-01  t[s]:    157.57
LCAOMinimize: 	Wrong curvature in test step, increasing alphaT to 9.180084e-02.
	FillingsUpdate:  mu: -0.171300000  nElectrons: 152.000000  magneticMoment: [ Abs: 0.00122  Tot: +0.00009 ]
LCAOMinimize: Iter:  22  G: -1585.3334677870680025  |grad|_K:  1.714e-03  alpha: -2.527e+00  linmin: -1.810e-01  cgtest:  9.561e-01  t[s]:    163.92
	FillingsUpdate:  mu: -0.171300000  nElectrons: 152.000000  magneticMoment: [ Abs: 0.00128  Tot: +0.00008 ]
LCAOMinimize: Iter:  23  G: -1585.5084068616247350  |grad|_K:  1.666e-03  alpha:  2.765e-02  linmin: -2.112e-01  cgtest:  9.599e-01  t[s]:    170.50
LCAOMinimize: 	Wrong curvature in test step, increasing alphaT to 8.293557e-02.
	FillingsUpdate:  mu: -0.171300000  nElectrons: 152.000000  magneticMoment: [ Abs: 0.00134  Tot: +0.00007 ]
LCAOMinimize: Iter:  24  G: -1585.6743530722324067  |grad|_K:  1.623e-03  alpha: -1.684e+00  linmin: -2.182e-01  cgtest:  9.572e-01  t[s]:    176.88
	FillingsUpdate:  mu: -0.171300000  nElectrons: 152.000000  magneticMoment: [ Abs: 0.00141  Tot: +0.00002 ]
LCAOMinimize: Iter:  25  G: -1585.8272401048261599  |grad|_K:  1.582e-03  alpha:  2.672e-02  linmin: -2.209e-01  cgtest:  9.565e-01  t[s]:    183.80
LCAOMinimize: 	Wrong curvature in test step, increasing alphaT to 8.015762e-02.
	FillingsUpdate:  mu: -0.171300000  nElectrons: 152.000000  magneticMoment: [ Abs: 0.00184  Tot: -0.00090 ]
LCAOMinimize: Iter:  26  G: -1585.9740655772729951  |grad|_K:  1.558e-03  alpha: -7.550e-01  linmin: -1.511e-01  cgtest:  9.441e-01  t[s]:    190.16
	FillingsUpdate:  mu: -0.171300000  nElectrons: 152.000000  magneticMoment: [ Abs: 0.00163  Tot: -0.00037 ]
LCAOMinimize: Iter:  27  G: -1586.1232376395696519  |grad|_K:  1.501e-03  alpha:  2.752e-02  linmin: -1.724e-01  cgtest:  9.569e-01  t[s]:    196.75
LCAOMinimize: 	Predicted alpha/alphaT>3.000000, increasing alphaT to 8.256697e-02.
LCAOMinimize: 	Wrong curvature in test step, increasing alphaT to 2.477009e-01.
	FillingsUpdate:  mu: -0.171300000  nElectrons: 152.000000  magneticMoment: [ Abs: 0.00215  Tot: -0.00016 ]
LCAOMinimize: Iter:  28  G: -1586.5256671934366750  |grad|_K:  1.340e-03  alpha: -2.995e+00  linmin: -1.116e-01  cgtest:  8.414e-01  t[s]:    204.79
	FillingsUpdate:  mu: -0.171300000  nElectrons: 152.000000  magneticMoment: [ Abs: 0.00222  Tot: -0.00031 ]
LCAOMinimize: Iter:  29  G: -1586.6239564136915305  |grad|_K:  1.265e-03  alpha:  2.491e-02  linmin: -1.747e-01  cgtest:  9.789e-01  t[s]:    211.66
LCAOMinimize: Encountered beta<0, resetting CG.
LCAOMinimize: 	Predicted alpha/alphaT>3.000000, increasing alphaT to 7.473569e-02.
LCAOMinimize: 	Wrong curvature in test step, increasing alphaT to 2.242071e-01.
	FillingsUpdate:  mu: -0.171300000  nElectrons: 152.000000  magneticMoment: [ Abs: 0.00235  Tot: -0.00041 ]
LCAOMinimize: Iter:  30  G: -1586.8782073244642561  |grad|_K:  1.136e-03  alpha: -7.961e+00  linmin: -2.305e-01  cgtest:  8.747e-01  t[s]:    219.72
LCAOMinimize: None of the convergence criteria satisfied after 30 iterations.
----- createFluidSolver() ----- (Fluid-side solver setup)
   Initializing fluid molecule 'H2O'
     Initializing site 'O'
       Electron density: proportional to exp(-r/0.36935)*erfc((r-0.51523)/0.36823) with norm 6.826
       Charge density: gaussian nuclear width 0.478731 with net site charge 0.826
       Polarizability: cuspless exponential with width 0.32 and norm 3.73
       Hard sphere radius: 2.57003 bohrs
       Positions in reference frame:
         [ +0.000000 +0.000000 +0.000000 ]
     Initializing site 'H'
       Electron density: proportional to exp(-r/0.34641)*erfc((r-0)/0.390882) with norm 0.587
       Charge density: gaussian nuclear width 0.377945 with net site charge -0.413
       Polarizability: cuspless exponential with width 0.39 and norm 3.3
       Positions in reference frame:
         [ +0.000000 -1.441945 +1.122523 ]
         [ +0.000000 +1.441945 +1.122523 ]
     Net charge: 0   dipole magnitude: 0.927204
     Initializing spherical shell mfKernel with radius 2.61727 Bohr
     deltaS corrections:
       site 'O': -7.54299
       site 'H': -6.83917
   Initializing fluid molecule 'Na+'
     Initializing site 'Na'
       Electron density: proportional to exp(-r/0.19682)*erfc((r-0.71491)/0.41314) with norm 8.1383
       Charge density: gaussian nuclear width 0.365347 with net site charge -1
       Hard sphere radius: 1.86327 bohrs
       Positions in reference frame:
         [ +0.000000 +0.000000 +0.000000 ]
     Net charge: -1   dipole magnitude: 0
     Initializing gaussian mfKernel with width: 1.55004 Bohr
     deltaS corrections:
       site 'Na': -22.3555
   Initializing fluid molecule 'F-'
     Initializing site 'F'
       Electron density: proportional to exp(-r/0.38886)*erfc((r-0)/0.438782) with norm 8
       Charge density: gaussian nuclear width 0.374796 with net site charge 1
       Hard sphere radius: 2.39995 bohrs
       Positions in reference frame:
         [ +0.000000 +0.000000 +0.000000 ]
     Net charge: 1   dipole magnitude: 0
     Initializing gaussian mfKernel with width: 1.59012 Bohr
     deltaS corrections:
       site 'F': -9.04335

Correction to mu due to finite nuclear width = -0.0984681
   Cavity determined by nc: 0.00142 and sigma: 0.707107
   Nonlocal vdW cavity from gaussian model electron density with norm = 8 and sigma = 0.993594 bohr
   Charge asymmetry in cavity with sensitivity pCavity = 36.5 e-bohr/Eh
   Electrostatic cavity expanded by eta = 1.46 bohrs
   Weighted density cavitation model constrained by Nbulk: 0.0049383 bohr^-3, Pvap: 3.14029 kPa, Rvdw: 2.61727 bohr and sigmaBulk: 4.62e-05 Eh/bohr^2 at T: 298 K.
   Weighted density dispersion model using vdW pair potentials with single solvent site with sqrtC6eff: 0.77 SI.


---- Citations for features of the code used in this run ----

   Software package:
      R. Sundararaman, K. Letchworth-Weaver, K.A. Schwarz, D. Gunceler, Y. Ozhabes and T.A. Arias, 'JDFTx: software for joint density-functional theory', SoftwareX 6, 278 (2017)

   gga-PBE exchange-correlation functional:
      J.P. Perdew, K. Burke and M. Ernzerhof, Phys. Rev. Lett. 77, 3865 (1996)

   Pseudopotentials:
      KF Garrity, JW Bennett, KM Rabe and D Vanderbilt, Comput. Mater. Sci. 81, 446 (2014)

   DFT-D3 dispersion correction:
      S. Grimme, J. Antony, S. Ehrlich and H. Krieg, J. Chem. Phys. 132, 154104 (2010)

   DFT-D2 dispersion correction:
      S. Grimme, J. Comput. Chem. 27, 1787 (2006)

   Charge-asymmetric nonlocally-determined local-electric (CANDLE) solvation model:
      R. Sundararaman and W.A. Goddard III, J. Chem. Phys. 142, 064107 (2015)

   Total energy minimization with Auxiliary Hamiltonian:
      C. Freysoldt, S. Boeck, and J. Neugebauer, Phys. Rev. B 79, 241103(R) (2009)

   Grand-canonical (fixed-potential) DFT:
      R. Sundararaman, W. A. Goddard III and T. A. Arias, J. Chem. Phys. 146, 114104 (2017)

   Linear-tetrahedron sampling for density of states:
      G. Lehmann and M. Taut, Phys. status solidi (b) 54, 469 (1972)

This list may not be complete. Please suggest additional citations or
report any other bugs at https://github.com/shankar1729/jdftx/issues

Initialization completed successfully at t[s]:    223.59


Computing DFT-D3 correction:
# coordination-number Cu 8.354 9.157 5.354 9.147 9.147 5.354 9.157 8.354
# diagonal-C6 Cu 175.00 175.00 175.00 175.00 175.00 175.00 175.00 175.00
EvdW_6 =   -0.045710
EvdW_8 =   -0.069700
Fluid solver invoked on fresh (random / LCAO) wavefunctions
Running a vacuum solve first:

-------- Initial electronic minimization -----------
	FillingsUpdate:  mu: +0.662892188  nElectrons: 152.000000  magneticMoment: [ Abs: 0.00235  Tot: -0.00041 ]
ElecMinimize: Iter:   0  G: -1586.878499532131400  |grad|_K:  3.637e-04  alpha:  1.000e+00
	FillingsUpdate:  mu: +0.270727960  nElectrons: 152.000000  magneticMoment: [ Abs: 0.00254  Tot: -0.00028 ]
	SubspaceRotationAdjust: set factor to 0.922
ElecMinimize: Iter:   1  G: -1588.140183045313961  |grad|_K:  1.087e-04  alpha:  8.988e-02  linmin:  1.582e-03  t[s]:    241.76
	FillingsUpdate:  mu: +0.300616621  nElectrons: 152.000000  magneticMoment: [ Abs: 0.00200  Tot: -0.00042 ]
	SubspaceRotationAdjust: set factor to 0.922
ElecMinimize: Iter:   2  G: -1588.438618512280755  |grad|_K:  1.208e-04  alpha:  2.413e-01  linmin: -1.317e-06  t[s]:    252.07
	FillingsUpdate:  mu: +0.213268681  nElectrons: 152.000000  magneticMoment: [ Abs: 0.00181  Tot: -0.00031 ]
	SubspaceRotationAdjust: set factor to 0.647
ElecMinimize: Iter:   3  G: -1588.606900749722627  |grad|_K:  6.499e-05  alpha:  7.893e-02  linmin: -3.550e-04  t[s]:    262.41
	FillingsUpdate:  mu: +0.193660196  nElectrons: 152.000000  magneticMoment: [ Abs: 0.00164  Tot: -0.00015 ]
	SubspaceRotationAdjust: set factor to 0.445
ElecMinimize: Iter:   4  G: -1588.650709500912626  |grad|_K:  5.749e-05  alpha:  7.127e-02  linmin:  2.367e-06  t[s]:    272.90
	FillingsUpdate:  mu: +0.115542687  nElectrons: 152.000000  magneticMoment: [ Abs: 0.00147  Tot: -0.00010 ]
	SubspaceRotationAdjust: set factor to 0.443
ElecMinimize: Iter:   5  G: -1588.680279520883460  |grad|_K:  4.793e-05  alpha:  7.680e-02  linmin: -1.065e-05  t[s]:    283.20
	FillingsUpdate:  mu: +0.195222633  nElectrons: 152.000000  magneticMoment: [ Abs: 0.00115  Tot: -0.00009 ]
	SubspaceRotationAdjust: set factor to 0.291
ElecMinimize: Iter:   6  G: -1588.718954556914468  |grad|_K:  4.653e-05  alpha:  1.410e-01  linmin: -5.588e-06  t[s]:    293.53
	FillingsUpdate:  mu: +0.132438183  nElectrons: 152.000000  magneticMoment: [ Abs: 0.00094  Tot: -0.00011 ]
	SubspaceRotationAdjust: set factor to 0.292
ElecMinimize: Iter:   7  G: -1588.736572967293796  |grad|_K:  2.670e-05  alpha:  7.103e-02  linmin:  4.680e-06  t[s]:    304.25
	FillingsUpdate:  mu: +0.138791690  nElectrons: 152.000000  magneticMoment: [ Abs: 0.00080  Tot: -0.00008 ]
	SubspaceRotationAdjust: set factor to 0.253
ElecMinimize: Iter:   8  G: -1588.744828216450969  |grad|_K:  1.999e-05  alpha:  1.002e-01  linmin:  1.188e-06  t[s]:    314.64
	FillingsUpdate:  mu: +0.137838933  nElectrons: 152.000000  magneticMoment: [ Abs: 0.00070  Tot: +0.00000 ]
	SubspaceRotationAdjust: set factor to 0.287
ElecMinimize: Iter:   9  G: -1588.750278756561784  |grad|_K:  1.725e-05  alpha:  1.172e-01  linmin: -3.620e-06  t[s]:    325.07
	FillingsUpdate:  mu: +0.146793635  nElectrons: 152.000000  magneticMoment: [ Abs: 0.00063  Tot: +0.00009 ]
	SubspaceRotationAdjust: set factor to 0.32
ElecMinimize: Iter:  10  G: -1588.754309031102594  |grad|_K:  1.351e-05  alpha:  1.158e-01  linmin: -3.224e-06  t[s]:    335.70
	FillingsUpdate:  mu: +0.149021347  nElectrons: 152.000000  magneticMoment: [ Abs: 0.00060  Tot: +0.00017 ]
	SubspaceRotationAdjust: set factor to 0.33
ElecMinimize: Iter:  11  G: -1588.756746350990625  |grad|_K:  1.152e-05  alpha:  1.144e-01  linmin: -2.481e-06  t[s]:    346.14
	FillingsUpdate:  mu: +0.149142420  nElectrons: 152.000000  magneticMoment: [ Abs: 0.00059  Tot: +0.00025 ]
	SubspaceRotationAdjust: set factor to 0.369
ElecMinimize: Iter:  12  G: -1588.758603370624314  |grad|_K:  8.978e-06  alpha:  1.197e-01  linmin:  4.971e-07  t[s]:    356.43
	FillingsUpdate:  mu: +0.147362774  nElectrons: 152.000000  magneticMoment: [ Abs: 0.00059  Tot: +0.00031 ]
	SubspaceRotationAdjust: set factor to 0.402
ElecMinimize: Iter:  13  G: -1588.759497297889993  |grad|_K:  6.764e-06  alpha:  9.544e-02  linmin: -9.760e-07  t[s]:    367.08
	FillingsUpdate:  mu: +0.151770976  nElectrons: 152.000000  magneticMoment: [ Abs: 0.00060  Tot: +0.00037 ]
	SubspaceRotationAdjust: set factor to 0.441
ElecMinimize: Iter:  14  G: -1588.760202589254277  |grad|_K:  6.601e-06  alpha:  1.323e-01  linmin: -4.537e-08  t[s]:    377.47
	FillingsUpdate:  mu: +0.154944281  nElectrons: 152.000000  magneticMoment: [ Abs: 0.00058  Tot: +0.00039 ]
	SubspaceRotationAdjust: set factor to 0.415
ElecMinimize: Iter:  15  G: -1588.760750758048744  |grad|_K:  5.713e-06  alpha:  1.081e-01  linmin:  1.453e-07  t[s]:    387.78
	FillingsUpdate:  mu: +0.154281258  nElectrons: 152.000000  magneticMoment: [ Abs: 0.00053  Tot: +0.00038 ]
	SubspaceRotationAdjust: set factor to 0.524
ElecMinimize: Iter:  16  G: -1588.761190182558266  |grad|_K:  4.641e-06  alpha:  1.157e-01  linmin:  1.312e-06  t[s]:    398.28
	FillingsUpdate:  mu: +0.151506254  nElectrons: 152.000000  magneticMoment: [ Abs: 0.00049  Tot: +0.00035 ]
	SubspaceRotationAdjust: set factor to 0.502
ElecMinimize: Iter:  17  G: -1588.761448681823140  |grad|_K:  3.958e-06  alpha:  1.033e-01  linmin: -9.515e-07  t[s]:    408.56
	FillingsUpdate:  mu: +0.150461829  nElectrons: 152.000000  magneticMoment: [ Abs: 0.00043  Tot: +0.00032 ]
	SubspaceRotationAdjust: set factor to 0.527
ElecMinimize: Iter:  18  G: -1588.761638127438800  |grad|_K:  2.999e-06  alpha:  1.038e-01  linmin: -1.350e-06  t[s]:    418.93
	FillingsUpdate:  mu: +0.151815971  nElectrons: 152.000000  magneticMoment: [ Abs: 0.00038  Tot: +0.00029 ]
	SubspaceRotationAdjust: set factor to 0.613
ElecMinimize: Iter:  19  G: -1588.761752870637565  |grad|_K:  2.409e-06  alpha:  1.095e-01  linmin:  2.424e-07  t[s]:    429.43
	FillingsUpdate:  mu: +0.152520715  nElectrons: 152.000000  magneticMoment: [ Abs: 0.00034  Tot: +0.00025 ]
	SubspaceRotationAdjust: set factor to 0.556
ElecMinimize: Iter:  20  G: -1588.761821432908619  |grad|_K:  2.264e-06  alpha:  1.015e-01  linmin:  4.662e-07  t[s]:    439.86
	FillingsUpdate:  mu: +0.151811847  nElectrons: 152.000000  magneticMoment: [ Abs: 0.00028  Tot: +0.00021 ]
	SubspaceRotationAdjust: set factor to 0.549
ElecMinimize: Iter:  21  G: -1588.761889001609688  |grad|_K:  1.816e-06  alpha:  1.133e-01  linmin:  1.302e-06  t[s]:    450.41
	FillingsUpdate:  mu: +0.151244549  nElectrons: 152.000000  magneticMoment: [ Abs: 0.00023  Tot: +0.00017 ]
	SubspaceRotationAdjust: set factor to 0.62
ElecMinimize: Iter:  22  G: -1588.761931539142324  |grad|_K:  1.333e-06  alpha:  1.110e-01  linmin:  2.609e-07  t[s]:    460.75
	FillingsUpdate:  mu: +0.151342991  nElectrons: 152.000000  magneticMoment: [ Abs: 0.00020  Tot: +0.00015 ]
	SubspaceRotationAdjust: set factor to 0.519
ElecMinimize: Iter:  23  G: -1588.761949300715969  |grad|_K:  9.903e-07  alpha:  8.592e-02  linmin:  3.867e-07  t[s]:    471.11
	FillingsUpdate:  mu: +0.151373777  nElectrons: 152.000000  magneticMoment: [ Abs: 0.00018  Tot: +0.00013 ]
	SubspaceRotationAdjust: set factor to 0.496
ElecMinimize: Iter:  24  G: -1588.761961422697823  |grad|_K:  8.603e-07  alpha:  1.062e-01  linmin:  1.842e-06  t[s]:    481.63
	FillingsUpdate:  mu: +0.150999890  nElectrons: 152.000000  magneticMoment: [ Abs: 0.00014  Tot: +0.00011 ]
	SubspaceRotationAdjust: set factor to 0.527
ElecMinimize: Iter:  25  G: -1588.761973052665326  |grad|_K:  7.198e-07  alpha:  1.352e-01  linmin:  1.979e-06  t[s]:    492.05
	FillingsUpdate:  mu: +0.150904781  nElectrons: 152.000000  magneticMoment: [ Abs: 0.00012  Tot: +0.00009 ]
	SubspaceRotationAdjust: set factor to 0.486
ElecMinimize: Iter:  26  G: -1588.761979208864204  |grad|_K:  5.308e-07  alpha:  1.022e-01  linmin:  1.086e-07  t[s]:    502.39
	FillingsUpdate:  mu: +0.150957521  nElectrons: 152.000000  magneticMoment: [ Abs: 0.00010  Tot: +0.00008 ]
	SubspaceRotationAdjust: set factor to 0.472
ElecMinimize: Iter:  27  G: -1588.761982455092721  |grad|_K:  4.050e-07  alpha:  9.900e-02  linmin:  3.096e-07  t[s]:    513.08
	FillingsUpdate:  mu: +0.150868665  nElectrons: 152.000000  magneticMoment: [ Abs: 0.00009  Tot: +0.00006 ]
	SubspaceRotationAdjust: set factor to 0.497
ElecMinimize: Iter:  28  G: -1588.761984870008291  |grad|_K:  3.450e-07  alpha:  1.265e-01  linmin:  6.622e-07  t[s]:    523.38
	FillingsUpdate:  mu: +0.150727381  nElectrons: 152.000000  magneticMoment: [ Abs: 0.00007  Tot: +0.00005 ]
	SubspaceRotationAdjust: set factor to 0.492
ElecMinimize: Iter:  29  G: -1588.761986512896101  |grad|_K:  2.944e-07  alpha:  1.187e-01  linmin:  1.459e-07  t[s]:    533.81
	FillingsUpdate:  mu: +0.150763007  nElectrons: 152.000000  magneticMoment: [ Abs: 0.00006  Tot: +0.00004 ]
	SubspaceRotationAdjust: set factor to 0.473
ElecMinimize: Iter:  30  G: -1588.761987639488780  |grad|_K:  2.431e-07  alpha:  1.117e-01  linmin:  6.374e-08  t[s]:    545.80
	FillingsUpdate:  mu: +0.150892411  nElectrons: 152.000000  magneticMoment: [ Abs: 0.00005  Tot: +0.00004 ]
	SubspaceRotationAdjust: set factor to 0.505
ElecMinimize: Iter:  31  G: -1588.761988436664751  |grad|_K:  1.857e-07  alpha:  1.159e-01  linmin:  1.247e-07  t[s]:    556.19
	FillingsUpdate:  mu: +0.150884843  nElectrons: 152.000000  magneticMoment: [ Abs: 0.00005  Tot: +0.00003 ]
	SubspaceRotationAdjust: set factor to 0.542
ElecMinimize: Iter:  32  G: -1588.761988908348258  |grad|_K:  1.632e-07  alpha:  1.175e-01  linmin:  2.376e-07  t[s]:    566.61
	FillingsUpdate:  mu: +0.150807194  nElectrons: 152.000000  magneticMoment: [ Abs: 0.00004  Tot: +0.00002 ]
	SubspaceRotationAdjust: set factor to 0.494
ElecMinimize: Iter:  33  G: -1588.761989283442063  |grad|_K:  1.516e-07  alpha:  1.210e-01  linmin:  1.177e-07  t[s]:    577.28
	FillingsUpdate:  mu: +0.150791358  nElectrons: 152.000000  magneticMoment: [ Abs: 0.00003  Tot: +0.00002 ]
	SubspaceRotationAdjust: set factor to 0.569
ElecMinimize: Iter:  34  G: -1588.761989618517418  |grad|_K:  1.209e-07  alpha:  1.252e-01  linmin:  7.360e-08  t[s]:    587.63
	FillingsUpdate:  mu: +0.150833010  nElectrons: 152.000000  magneticMoment: [ Abs: 0.00002  Tot: +0.00001 ]
	SubspaceRotationAdjust: set factor to 0.573
ElecMinimize: Iter:  35  G: -1588.761989816850473  |grad|_K:  1.020e-07  alpha:  1.166e-01  linmin:  2.843e-07  t[s]:    598.03
	FillingsUpdate:  mu: +0.150842683  nElectrons: 152.000000  magneticMoment: [ Abs: 0.00002  Tot: +0.00001 ]
	SubspaceRotationAdjust: set factor to 0.53
ElecMinimize: Iter:  36  G: -1588.761989968109901  |grad|_K:  9.900e-08  alpha:  1.251e-01  linmin:  2.757e-07  t[s]:    608.65
	FillingsUpdate:  mu: +0.150829194  nElectrons: 152.000000  magneticMoment: [ Abs: 0.00001  Tot: +0.00001 ]
	SubspaceRotationAdjust: set factor to 0.497
ElecMinimize: Iter:  37  G: -1588.761990093456461  |grad|_K:  7.655e-08  alpha:  1.099e-01  linmin:  2.016e-07  t[s]:    619.09
	FillingsUpdate:  mu: +0.150835333  nElectrons: 152.000000  magneticMoment: [ Abs: 0.00001  Tot: +0.00000 ]
	SubspaceRotationAdjust: set factor to 0.521
ElecMinimize: Iter:  38  G: -1588.761990168128477  |grad|_K:  5.690e-08  alpha:  1.095e-01  linmin: -6.087e-07  t[s]:    629.54
	FillingsUpdate:  mu: +0.150837891  nElectrons: 152.000000  magneticMoment: [ Abs: 0.00001  Tot: +0.00000 ]
	SubspaceRotationAdjust: set factor to 0.509
ElecMinimize: Iter:  39  G: -1588.761990216614549  |grad|_K:  5.489e-08  alpha:  1.285e-01  linmin:  4.296e-07  t[s]:    640.01
ElecMinimize: Converged (|Delta G|<1.000000e-07 for 2 iters).
Setting wave functions to eigenvectors of Hamiltonian
Converging empty states (this may take a while): |deigs|: 2.043e-02
Vacuum energy after initial minimize, F = -1588.761990216614549

Shifting auxilliary hamiltonian by -0.322138 to set nElectrons=152.000000

-------- Electronic minimization -----------
	Linear fluid (dielectric constant: 78.4, screening length: 8.12261 Bohr) occupying 0.414701 of unit cell:	Completed after 21 iterations at t[s]:    679.04
	FillingsUpdate:  mu: -0.171300000  nElectrons: 152.000000  magneticMoment: [ Abs: 0.00000  Tot: +0.00000 ]
ElecMinimize: Iter:   0  G: -1588.762032606763569  |grad|_K:  6.924e-06  alpha:  1.000e+00
	Linear fluid (dielectric constant: 78.4, screening length: 8.12261 Bohr) occupying 0.420480 of unit cell:	Completed after 22 iterations at t[s]:    688.46
	Linear fluid (dielectric constant: 78.4, screening length: 8.12261 Bohr) occupying 0.414827 of unit cell:	Completed after 21 iterations at t[s]:    691.95
	FillingsUpdate:  mu: -0.171300000  nElectrons: 151.989398  magneticMoment: [ Abs: 0.00000  Tot: +0.00000 ]
	SubspaceRotationAdjust: set factor to 0.267
ElecMinimize: Iter:   1  G: -1588.762142511170396  |grad|_K:  3.079e-06  alpha:  1.443e-02  linmin: -3.917e-02  t[s]:    696.34
	Linear fluid (dielectric constant: 78.4, screening length: 8.12261 Bohr) occupying 0.414946 of unit cell:	Completed after 13 iterations at t[s]:    700.21
	Linear fluid (dielectric constant: 78.4, screening length: 8.12261 Bohr) occupying 0.415065 of unit cell:	Completed after 13 iterations at t[s]:    703.30
	FillingsUpdate:  mu: -0.171300000  nElectrons: 151.978094  magneticMoment: [ Abs: 0.00000  Tot: +0.00000 ]
	SubspaceRotationAdjust: set factor to 0.153
ElecMinimize: Iter:   2  G: -1588.762185499748284  |grad|_K:  2.771e-06  alpha:  2.883e-02  linmin:  4.081e-04  t[s]:    707.66
	Linear fluid (dielectric constant: 78.4, screening length: 8.12261 Bohr) occupying 0.415328 of unit cell:	Completed after 15 iterations at t[s]:    711.54
ElecMinimize: 	Predicted alpha/alphaT>3.000000, increasing alphaT to 8.649124e-02.
	Linear fluid (dielectric constant: 78.4, screening length: 8.12261 Bohr) occupying 0.415842 of unit cell:	Completed after 17 iterations at t[s]:    714.70
	Linear fluid (dielectric constant: 78.4, screening length: 8.12261 Bohr) occupying 0.415939 of unit cell:	Completed after 13 iterations at t[s]:    717.80
	FillingsUpdate:  mu: -0.171300000  nElectrons: 151.958123  magneticMoment: [ Abs: 0.00000  Tot: +0.00000 ]
	SubspaceRotationAdjust: set factor to 0.0843
ElecMinimize: Iter:   3  G: -1588.762272299318283  |grad|_K:  3.682e-06  alpha:  9.770e-02  linmin: -5.688e-04  t[s]:    722.28
	Linear fluid (dielectric constant: 78.4, screening length: 8.12261 Bohr) occupying 0.417459 of unit cell:	Completed after 17 iterations at t[s]:    726.30
	Linear fluid (dielectric constant: 78.4, screening length: 8.12261 Bohr) occupying 0.417086 of unit cell:	Completed after 16 iterations at t[s]:    729.48
	FillingsUpdate:  mu: -0.171300000  nElectrons: 151.946531  magneticMoment: [ Abs: 0.00000  Tot: +0.00000 ]
	SubspaceRotationAdjust: set factor to 0.122
ElecMinimize: Iter:   4  G: -1588.762391940307680  |grad|_K:  2.333e-06  alpha:  7.278e-02  linmin:  2.023e-05  t[s]:    733.87
	Linear fluid (dielectric constant: 78.4, screening length: 8.12261 Bohr) occupying 0.417572 of unit cell:	Completed after 13 iterations at t[s]:    737.79
	Linear fluid (dielectric constant: 78.4, screening length: 8.12261 Bohr) occupying 0.417638 of unit cell:	Completed after 10 iterations at t[s]:    740.83
	FillingsUpdate:  mu: -0.171300000  nElectrons: 151.945371  magneticMoment: [ Abs: 0.00000  Tot: +0.00000 ]
	SubspaceRotationAdjust: set factor to 0.127
ElecMinimize: Iter:   5  G: -1588.762444339841750  |grad|_K:  1.720e-06  alpha:  8.287e-02  linmin: -2.119e-05  t[s]:    745.21
	Linear fluid (dielectric constant: 78.4, screening length: 8.12261 Bohr) occupying 0.418011 of unit cell:	Completed after 15 iterations at t[s]:    749.42
	Linear fluid (dielectric constant: 78.4, screening length: 8.12261 Bohr) occupying 0.418199 of unit cell:	Completed after 15 iterations at t[s]:    752.71
	FillingsUpdate:  mu: -0.171300000  nElectrons: 151.944466  magneticMoment: [ Abs: 0.00000  Tot: +0.00000 ]
	SubspaceRotationAdjust: set factor to 0.167
ElecMinimize: Iter:   6  G: -1588.762487451775542  |grad|_K:  2.189e-06  alpha:  1.252e-01  linmin:  3.648e-05  t[s]:    757.19
	Linear fluid (dielectric constant: 78.4, screening length: 8.12261 Bohr) occupying 0.419194 of unit cell:	Completed after 17 iterations at t[s]:    761.14
	Linear fluid (dielectric constant: 78.4, screening length: 8.12261 Bohr) occupying 0.419377 of unit cell:	Completed after 13 iterations at t[s]:    764.27
	FillingsUpdate:  mu: -0.171300000  nElectrons: 151.939256  magneticMoment: [ Abs: 0.00000  Tot: +0.00000 ]
	SubspaceRotationAdjust: set factor to 0.202
ElecMinimize: Iter:   7  G: -1588.762570254716820  |grad|_K:  2.632e-06  alpha:  1.489e-01  linmin: -1.207e-05  t[s]:    768.63
	Linear fluid (dielectric constant: 78.4, screening length: 8.12261 Bohr) occupying 0.421105 of unit cell:	Completed after 17 iterations at t[s]:    772.54
	Linear fluid (dielectric constant: 78.4, screening length: 8.12261 Bohr) occupying 0.420331 of unit cell:	Completed after 17 iterations at t[s]:    775.75
	FillingsUpdate:  mu: -0.171300000  nElectrons: 151.933077  magneticMoment: [ Abs: 0.00000  Tot: +0.00000 ]
	SubspaceRotationAdjust: set factor to 0.245
ElecMinimize: Iter:   8  G: -1588.762634416777928  |grad|_K:  2.027e-06  alpha:  8.058e-02  linmin:  3.776e-05  t[s]:    780.25
	Linear fluid (dielectric constant: 78.4, screening length: 8.12261 Bohr) occupying 0.420955 of unit cell:	Completed after 13 iterations at t[s]:    784.18
	Linear fluid (dielectric constant: 78.4, screening length: 8.12261 Bohr) occupying 0.421059 of unit cell:	Completed after 10 iterations at t[s]:    787.20
	FillingsUpdate:  mu: -0.171300000  nElectrons: 151.928096  magneticMoment: [ Abs: 0.00000  Tot: +0.00000 ]
	SubspaceRotationAdjust: set factor to 0.269
ElecMinimize: Iter:   9  G: -1588.762679380557984  |grad|_K:  2.022e-06  alpha:  9.429e-02  linmin: -5.469e-05  t[s]:    791.56
	Linear fluid (dielectric constant: 78.4, screening length: 8.12261 Bohr) occupying 0.421854 of unit cell:	Completed after 17 iterations at t[s]:    795.53
	Linear fluid (dielectric constant: 78.4, screening length: 8.12261 Bohr) occupying 0.421890 of unit cell:	Completed after 7 iterations at t[s]:    798.47
	FillingsUpdate:  mu: -0.171300000  nElectrons: 151.925967  magneticMoment: [ Abs: 0.00000  Tot: +0.00000 ]
	SubspaceRotationAdjust: set factor to 0.312
ElecMinimize: Iter:  10  G: -1588.762726660630051  |grad|_K:  1.752e-06  alpha:  9.863e-02  linmin:  2.571e-07  t[s]:    802.85
	Linear fluid (dielectric constant: 78.4, screening length: 8.12261 Bohr) occupying 0.422581 of unit cell:	Completed after 17 iterations at t[s]:    806.84
	Linear fluid (dielectric constant: 78.4, screening length: 8.12261 Bohr) occupying 0.422437 of unit cell:	Completed after 13 iterations at t[s]:    810.17
	FillingsUpdate:  mu: -0.171300000  nElectrons: 151.926347  magneticMoment: [ Abs: 0.00000  Tot: +0.00000 ]
	SubspaceRotationAdjust: set factor to 0.326
ElecMinimize: Iter:  11  G: -1588.762754493975763  |grad|_K:  1.525e-06  alpha:  7.791e-02  linmin:  2.333e-07  t[s]:    814.70
	Linear fluid (dielectric constant: 78.4, screening length: 8.12261 Bohr) occupying 0.422906 of unit cell:	Completed after 14 iterations at t[s]:    818.67
	Linear fluid (dielectric constant: 78.4, screening length: 8.12261 Bohr) occupying 0.423173 of unit cell:	Completed after 15 iterations at t[s]:    821.81
	FillingsUpdate:  mu: -0.171300000  nElectrons: 151.924294  magneticMoment: [ Abs: 0.00000  Tot: +0.00000 ]
	SubspaceRotationAdjust: set factor to 0.351
ElecMinimize: Iter:  12  G: -1588.762787855163879  |grad|_K:  1.938e-06  alpha:  1.231e-01  linmin: -8.940e-06  t[s]:    826.17
	Linear fluid (dielectric constant: 78.4, screening length: 8.12261 Bohr) occupying 0.424375 of unit cell:	Completed after 14 iterations at t[s]:    830.11
	Linear fluid (dielectric constant: 78.4, screening length: 8.12261 Bohr) occupying 0.424214 of unit cell:	Completed after 9 iterations at t[s]:    833.13
	FillingsUpdate:  mu: -0.171300000  nElectrons: 151.919454  magneticMoment: [ Abs: 0.00000  Tot: +0.00000 ]
	SubspaceRotationAdjust: set factor to 0.382
ElecMinimize: Iter:  13  G: -1588.762834288974091  |grad|_K:  1.720e-06  alpha:  1.062e-01  linmin: -1.364e-05  t[s]:    838.71
	Linear fluid (dielectric constant: 78.4, screening length: 8.12261 Bohr) occupying 0.425034 of unit cell:	Completed after 15 iterations at t[s]:    842.56
	Linear fluid (dielectric constant: 78.4, screening length: 8.12261 Bohr) occupying 0.424711 of unit cell:	Completed after 11 iterations at t[s]:    845.63
	FillingsUpdate:  mu: -0.171300000  nElectrons: 151.917739  magneticMoment: [ Abs: 0.00000  Tot: +0.00000 ]
	SubspaceRotationAdjust: set factor to 0.449
ElecMinimize: Iter:  14  G: -1588.762856272090858  |grad|_K:  1.099e-06  alpha:  6.373e-02  linmin:  2.728e-06  t[s]:    850.00
	Linear fluid (dielectric constant: 78.4, screening length: 8.12261 Bohr) occupying 0.424926 of unit cell:	Completed after 15 iterations at t[s]:    853.96
	Linear fluid (dielectric constant: 78.4, screening length: 8.12261 Bohr) occupying 0.425004 of unit cell:	Completed after 9 iterations at t[s]:    856.98
	FillingsUpdate:  mu: -0.171300000  nElectrons: 151.916364  magneticMoment: [ Abs: 0.00000  Tot: +0.00000 ]
	SubspaceRotationAdjust: set factor to 0.47
ElecMinimize: Iter:  15  G: -1588.762868529631987  |grad|_K:  1.081e-06  alpha:  8.716e-02  linmin: -8.056e-06  t[s]:    861.36
	Linear fluid (dielectric constant: 78.4, screening length: 8.12261 Bohr) occupying 0.425299 of unit cell:	Completed after 12 iterations at t[s]:    865.19
	Linear fluid (dielectric constant: 78.4, screening length: 8.12261 Bohr) occupying 0.425392 of unit cell:	Completed after 9 iterations at t[s]:    868.23
	FillingsUpdate:  mu: -0.171300000  nElectrons: 151.914897  magneticMoment: [ Abs: 0.00000  Tot: +0.00000 ]
	SubspaceRotationAdjust: set factor to 0.489
ElecMinimize: Iter:  16  G: -1588.762884162052160  |grad|_K:  1.207e-06  alpha:  1.149e-01  linmin: -2.096e-07  t[s]:    872.79
	Linear fluid (dielectric constant: 78.4, screening length: 8.12261 Bohr) occupying 0.425868 of unit cell:	Completed after 12 iterations at t[s]:    876.63
	Linear fluid (dielectric constant: 78.4, screening length: 8.12261 Bohr) occupying 0.425735 of unit cell:	Completed after 11 iterations at t[s]:    879.68
	FillingsUpdate:  mu: -0.171300000  nElectrons: 151.915082  magneticMoment: [ Abs: 0.00000  Tot: +0.00000 ]
	SubspaceRotationAdjust: set factor to 0.576
ElecMinimize: Iter:  17  G: -1588.762898101457949  |grad|_K:  9.962e-07  alpha:  8.230e-02  linmin: -1.208e-06  t[s]:    884.05
	Linear fluid (dielectric constant: 78.4, screening length: 8.12261 Bohr) occupying 0.425953 of unit cell:	Completed after 15 iterations at t[s]:    887.95
	Linear fluid (dielectric constant: 78.4, screening length: 8.12261 Bohr) occupying 0.425915 of unit cell:	Completed after 12 iterations at t[s]:    891.01
	FillingsUpdate:  mu: -0.171300000  nElectrons: 151.913795  magneticMoment: [ Abs: 0.00000  Tot: +0.00000 ]
	SubspaceRotationAdjust: set factor to 0.646
ElecMinimize: Iter:  18  G: -1588.762905919298419  |grad|_K:  7.411e-07  alpha:  6.766e-02  linmin:  1.065e-06  t[s]:    895.41
	Linear fluid (dielectric constant: 78.4, screening length: 8.12261 Bohr) occupying 0.426003 of unit cell:	Completed after 15 iterations at t[s]:    899.58
	Linear fluid (dielectric constant: 78.4, screening length: 8.12261 Bohr) occupying 0.426010 of unit cell:	Completed after 7 iterations at t[s]:    902.63
	FillingsUpdate:  mu: -0.171300000  nElectrons: 151.913714  magneticMoment: [ Abs: 0.00000  Tot: +0.00000 ]
	SubspaceRotationAdjust: set factor to 0.626
ElecMinimize: Iter:  19  G: -1588.762910603030832  |grad|_K:  6.551e-07  alpha:  7.326e-02  linmin: -1.007e-05  t[s]:    907.05
	Linear fluid (dielectric constant: 78.4, screening length: 8.12261 Bohr) occupying 0.426065 of unit cell:	Completed after 13 iterations at t[s]:    910.88
	Linear fluid (dielectric constant: 78.4, screening length: 8.12261 Bohr) occupying 0.426075 of unit cell:	Completed after 10 iterations at t[s]:    913.92
	FillingsUpdate:  mu: -0.171300000  nElectrons: 151.912505  magneticMoment: [ Abs: 0.00000  Tot: +0.00000 ]
	SubspaceRotationAdjust: set factor to 0.669
ElecMinimize: Iter:  20  G: -1588.762914923150902  |grad|_K:  6.639e-07  alpha:  8.643e-02  linmin:  1.385e-05  t[s]:    918.30
	Linear fluid (dielectric constant: 78.4, screening length: 8.12261 Bohr) occupying 0.426121 of unit cell:	Completed after 15 iterations at t[s]:    922.16
	Linear fluid (dielectric constant: 78.4, screening length: 8.12261 Bohr) occupying 0.426111 of unit cell:	Completed after 10 iterations at t[s]:    925.20
	FillingsUpdate:  mu: -0.171300000  nElectrons: 151.913076  magneticMoment: [ Abs: 0.00000  Tot: -0.00000 ]
	SubspaceRotationAdjust: set factor to 0.652
ElecMinimize: Iter:  21  G: -1588.762918357966328  |grad|_K:  5.868e-07  alpha:  6.705e-02  linmin: -3.455e-06  t[s]:    929.59
	Linear fluid (dielectric constant: 78.4, screening length: 8.12261 Bohr) occupying 0.426116 of unit cell:	Completed after 15 iterations at t[s]:    933.65
	Linear fluid (dielectric constant: 78.4, screening length: 8.12261 Bohr) occupying 0.426115 of unit cell:	Completed after 9 iterations at t[s]:    936.67
	FillingsUpdate:  mu: -0.171300000  nElectrons: 151.912400  magneticMoment: [ Abs: 0.00000  Tot: -0.00000 ]
	SubspaceRotationAdjust: set factor to 0.556
ElecMinimize: Iter:  22  G: -1588.762920483084372  |grad|_K:  4.778e-07  alpha:  5.304e-02  linmin: -8.342e-06  t[s]:    941.02
	Linear fluid (dielectric constant: 78.4, screening length: 8.12261 Bohr) occupying 0.426103 of unit cell:	Completed after 13 iterations at t[s]:    944.97
	Linear fluid (dielectric constant: 78.4, screening length: 8.12261 Bohr) occupying 0.426100 of unit cell:	Completed after 10 iterations at t[s]:    948.04
	FillingsUpdate:  mu: -0.171300000  nElectrons: 151.913285  magneticMoment: [ Abs: 0.00000  Tot: -0.00000 ]
	SubspaceRotationAdjust: set factor to 0.517
ElecMinimize: Iter:  23  G: -1588.762922235366204  |grad|_K:  4.291e-07  alpha:  6.585e-02  linmin: -4.223e-05  t[s]:    952.40
	Linear fluid (dielectric constant: 78.4, screening length: 8.12261 Bohr) occupying 0.426070 of unit cell:	Completed after 9 iterations at t[s]:    956.18
	Linear fluid (dielectric constant: 78.4, screening length: 8.12261 Bohr) occupying 0.426063 of unit cell:	Completed after 6 iterations at t[s]:    959.33
	FillingsUpdate:  mu: -0.171300000  nElectrons: 151.913524  magneticMoment: [ Abs: 0.00000  Tot: -0.00000 ]
	SubspaceRotationAdjust: set factor to 0.575
ElecMinimize: Iter:  24  G: -1588.762924015995395  |grad|_K:  3.673e-07  alpha:  8.285e-02  linmin: -2.744e-06  t[s]:    963.90
	Linear fluid (dielectric constant: 78.4, screening length: 8.12261 Bohr) occupying 0.426016 of unit cell:	Completed after 9 iterations at t[s]:    967.75
	Linear fluid (dielectric constant: 78.4, screening length: 8.12261 Bohr) occupying 0.426023 of unit cell:	Completed after 2 iterations at t[s]:    970.62
	FillingsUpdate:  mu: -0.171300000  nElectrons: 151.913831  magneticMoment: [ Abs: 0.00000  Tot: -0.00000 ]
	SubspaceRotationAdjust: set factor to 0.655
ElecMinimize: Iter:  25  G: -1588.762925127181006  |grad|_K:  2.772e-07  alpha:  7.074e-02  linmin:  1.728e-05  t[s]:    974.99
	Linear fluid (dielectric constant: 78.4, screening length: 8.12261 Bohr) occupying 0.425985 of unit cell:	Completed after 12 iterations at t[s]:    978.93
	Linear fluid (dielectric constant: 78.4, screening length: 8.12261 Bohr) occupying 0.425980 of unit cell:	Completed after 2 iterations at t[s]:    981.77
	FillingsUpdate:  mu: -0.171300000  nElectrons: 151.914381  magneticMoment: [ Abs: 0.00000  Tot: -0.00000 ]
	SubspaceRotationAdjust: set factor to 0.685
ElecMinimize: Iter:  26  G: -1588.762925832528936  |grad|_K:  2.918e-07  alpha:  7.893e-02  linmin: -2.650e-05  t[s]:    986.16
	Linear fluid (dielectric constant: 78.4, screening length: 8.12261 Bohr) occupying 0.425913 of unit cell:	Completed after 12 iterations at t[s]:    990.25
	Linear fluid (dielectric constant: 78.4, screening length: 8.12261 Bohr) occupying 0.425916 of unit cell:	Completed after 2 iterations at t[s]:    993.24
	FillingsUpdate:  mu: -0.171300000  nElectrons: 151.914288  magneticMoment: [ Abs: 0.00000  Tot: -0.00000 ]
	SubspaceRotationAdjust: set factor to 0.634
ElecMinimize: Iter:  27  G: -1588.762926591168707  |grad|_K:  3.314e-07  alpha:  7.630e-02  linmin:  3.984e-05  t[s]:    997.61
	Linear fluid (dielectric constant: 78.4, screening length: 8.12261 Bohr) occupying 0.425817 of unit cell:	Completed after 12 iterations at t[s]:   1001.49
	Linear fluid (dielectric constant: 78.4, screening length: 8.12261 Bohr) occupying 0.425841 of unit cell:	Completed after 10 iterations at t[s]:   1004.51
	FillingsUpdate:  mu: -0.171300000  nElectrons: 151.915113  magneticMoment: [ Abs: 0.00000  Tot: -0.00000 ]
	SubspaceRotationAdjust: set factor to 0.588
ElecMinimize: Iter:  28  G: -1588.762927324218708  |grad|_K:  2.670e-07  alpha:  5.783e-02  linmin: -6.919e-06  t[s]:   1008.87
	Linear fluid (dielectric constant: 78.4, screening length: 8.12261 Bohr) occupying 0.425782 of unit cell:	Completed after 10 iterations at t[s]:   1012.69
	Linear fluid (dielectric constant: 78.4, screening length: 8.12261 Bohr) occupying 0.425779 of unit cell:	Completed after 2 iterations at t[s]:   1015.53
	FillingsUpdate:  mu: -0.171300000  nElectrons: 151.915193  magneticMoment: [ Abs: 0.00000  Tot: -0.00000 ]
	SubspaceRotationAdjust: set factor to 0.664
ElecMinimize: Iter:  29  G: -1588.762927825159977  |grad|_K:  1.904e-07  alpha:  6.032e-02  linmin:  5.258e-06  t[s]:   1019.98
	Linear fluid (dielectric constant: 78.4, screening length: 8.12261 Bohr) occupying 0.425740 of unit cell:	Completed after 7 iterations at t[s]:   1023.76
	Linear fluid (dielectric constant: 78.4, screening length: 8.12261 Bohr) occupying 0.425727 of unit cell:	Completed after 5 iterations at t[s]:   1026.71
	FillingsUpdate:  mu: -0.171300000  nElectrons: 151.915383  magneticMoment: [ Abs: 0.00000  Tot: -0.00000 ]
	SubspaceRotationAdjust: set factor to 0.72
ElecMinimize: Iter:  30  G: -1588.762928169091538  |grad|_K:  1.819e-07  alpha:  8.160e-02  linmin:  4.053e-06  t[s]:   1031.16
	Linear fluid (dielectric constant: 78.4, screening length: 8.12261 Bohr) occupying 0.425669 of unit cell:	Completed after 9 iterations at t[s]:   1035.08
	Linear fluid (dielectric constant: 78.4, screening length: 8.12261 Bohr) occupying 0.425659 of unit cell:	Completed after 2 iterations at t[s]:   1037.92
	FillingsUpdate:  mu: -0.171300000  nElectrons: 151.915717  magneticMoment: [ Abs: 0.00000  Tot: -0.00000 ]
	SubspaceRotationAdjust: set factor to 0.77
ElecMinimize: Iter:  31  G: -1588.762928537476910  |grad|_K:  1.985e-07  alpha:  9.570e-02  linmin: -5.271e-06  t[s]:   1042.30
	Linear fluid (dielectric constant: 78.4, screening length: 8.12261 Bohr) occupying 0.425568 of unit cell:	Completed after 11 iterations at t[s]:   1046.18
	Linear fluid (dielectric constant: 78.4, screening length: 8.12261 Bohr) occupying 0.425604 of unit cell:	Completed after 9 iterations at t[s]:   1049.38
	FillingsUpdate:  mu: -0.171300000  nElectrons: 151.915606  magneticMoment: [ Abs: 0.00000  Tot: -0.00000 ]
	SubspaceRotationAdjust: set factor to 0.698
ElecMinimize: Iter:  32  G: -1588.762928808024526  |grad|_K:  1.814e-07  alpha:  5.853e-02  linmin:  1.192e-05  t[s]:   1053.97
	Linear fluid (dielectric constant: 78.4, screening length: 8.12261 Bohr) occupying 0.425554 of unit cell:	Completed after 12 iterations at t[s]:   1057.83
	Linear fluid (dielectric constant: 78.4, screening length: 8.12261 Bohr) occupying 0.425568 of unit cell:	Completed after 10 iterations at t[s]:   1060.92
	FillingsUpdate:  mu: -0.171300000  nElectrons: 151.916000  magneticMoment: [ Abs: 0.00000  Tot: -0.00000 ]
	SubspaceRotationAdjust: set factor to 0.56
ElecMinimize: Iter:  33  G: -1588.762928966541494  |grad|_K:  1.364e-07  alpha:  4.152e-02  linmin: -2.946e-07  t[s]:   1065.28
	Linear fluid (dielectric constant: 78.4, screening length: 8.12261 Bohr) occupying 0.425546 of unit cell:	Completed after 7 iterations at t[s]:   1068.96
	Linear fluid (dielectric constant: 78.4, screening length: 8.12261 Bohr) occupying 0.425532 of unit cell:	Completed after 5 iterations at t[s]:   1071.89
	FillingsUpdate:  mu: -0.171300000  nElectrons: 151.916082  magneticMoment: [ Abs: 0.00000  Tot: -0.00000 ]
	SubspaceRotationAdjust: set factor to 0.598
ElecMinimize: Iter:  34  G: -1588.762929116011037  |grad|_K:  1.231e-07  alpha:  6.900e-02  linmin: -1.256e-05  t[s]:   1076.29
	Linear fluid (dielectric constant: 78.4, screening length: 8.12261 Bohr) occupying 0.425500 of unit cell:	Completed after 6 iterations at t[s]:   1080.21
	Linear fluid (dielectric constant: 78.4, screening length: 8.12261 Bohr) occupying 0.425488 of unit cell:	Completed after 3 iterations at t[s]:   1083.23
	FillingsUpdate:  mu: -0.171300000  nElectrons: 151.916335  magneticMoment: [ Abs: 0.00000  Tot: -0.00000 ]
	SubspaceRotationAdjust: set factor to 0.659
ElecMinimize: Iter:  35  G: -1588.762929287036513  |grad|_K:  1.200e-07  alpha:  9.669e-02  linmin:  8.924e-07  t[s]:   1087.63
	Linear fluid (dielectric constant: 78.4, screening length: 8.12261 Bohr) occupying 0.425446 of unit cell:	Completed after 9 iterations at t[s]:   1091.47
	Linear fluid (dielectric constant: 78.4, screening length: 8.12261 Bohr) occupying 0.425460 of unit cell:	Completed after 7 iterations at t[s]:   1094.48
	FillingsUpdate:  mu: -0.171300000  nElectrons: 151.916612  magneticMoment: [ Abs: 0.00000  Tot: -0.00000 ]
	SubspaceRotationAdjust: set factor to 0.597
ElecMinimize: Iter:  36  G: -1588.762929393700460  |grad|_K:  9.908e-08  alpha:  6.379e-02  linmin:  4.440e-06  t[s]:   1098.85
	Linear fluid (dielectric constant: 78.4, screening length: 8.12261 Bohr) occupying 0.425441 of unit cell:	Completed after 9 iterations at t[s]:   1102.73
	Linear fluid (dielectric constant: 78.4, screening length: 8.12261 Bohr) occupying 0.425447 of unit cell:	Completed after 8 iterations at t[s]:   1105.75
	FillingsUpdate:  mu: -0.171300000  nElectrons: 151.916528  magneticMoment: [ Abs: 0.00000  Tot: -0.00000 ]
	SubspaceRotationAdjust: set factor to 0.479
ElecMinimize: Iter:  37  G: -1588.762929442577615  |grad|_K:  7.792e-08  alpha:  4.316e-02  linmin: -2.744e-05  t[s]:   1110.21
	Linear fluid (dielectric constant: 78.4, screening length: 8.12261 Bohr) occupying 0.425440 of unit cell:	Completed after 7 iterations at t[s]:   1113.98
	Linear fluid (dielectric constant: 78.4, screening length: 8.12261 Bohr) occupying 0.425436 of unit cell:	Completed after 2 iterations at t[s]:   1116.85
	FillingsUpdate:  mu: -0.171300000  nElectrons: 151.916629  magneticMoment: [ Abs: 0.00000  Tot: -0.00000 ]
	SubspaceRotationAdjust: set factor to 0.541
ElecMinimize: Iter:  38  G: -1588.762929490262422  |grad|_K:  6.895e-08  alpha:  6.721e-02  linmin: -5.061e-05  t[s]:   1121.23
ElecMinimize: Converged (|Delta G|<1.000000e-07 for 2 iters).
Setting wave functions to eigenvectors of Hamiltonian
Converging empty states (this may take a while): |deigs|: 3.388e-04
Single-point solvation energy estimate, DeltaG = -0.000939273647873

Computing DFT-D3 correction:
# coordination-number Cu 8.354 9.157 5.354 9.147 9.147 5.354 9.157 8.354
# diagonal-C6 Cu 175.00 175.00 175.00 175.00 175.00 175.00 175.00 175.00
EvdW_6 =   -0.045710
EvdW_8 =   -0.069700

# Ionic positions in cartesian coordinates:
ion Cu   4.766623000000000   6.741023000000000  44.091266999999995 1
ion Cu   0.000000000000000   6.741023000000000  39.324643000000002 1
ion Cu   2.383311000000000   3.370512000000000  46.474578999999991 1
ion Cu   2.383311000000000   3.370512000000000  41.707954999999998 1
ion Cu   0.000000000000000   0.000000000000000  34.558019999999992 1
ion Cu   0.000000000000000   0.000000000000000  29.791396999999996 1
ion Cu   2.383311000000000   3.370512000000000  36.941332000000003 1
ion Cu   2.383311000000000   3.370512000000000  32.174708000000003 1

# Forces in Cartesian coordinates:
force Cu   0.000001482918122   0.000002069387259   0.006614016182382 1
force Cu  -0.000001802490608  -0.000002905147298  -0.000109662675858 1
force Cu  -0.000006160069809  -0.000004283055329  -0.004701346510909 1
force Cu  -0.000000664497541   0.000000306639599  -0.001593917504065 1
force Cu  -0.000003258418811  -0.000001202191109   0.001438653915957 1
force Cu   0.000001467426845   0.000001000780482   0.004679546982879 1
force Cu   0.000004617968828   0.000002373314520   0.000084416208419 1
force Cu  -0.000000103150665   0.000000423957145  -0.006499790074500 1

# Energy components:
   A_diel =        0.0161656421970272
   Eewald =     5558.9646568299776845
       EH =     7044.4799224981943553
     Eloc =   -14521.4186604068308952
      Enl =      293.0000378682142355
     EvdW =       -0.1154101923946297
      Exc =     -155.2209942389008006
 Exc_core =        0.3757307890347127
       KE =      165.1243300210159077
  MuShift =        0.0082094258870953
-------------------------------------
     Etot =    -1614.7860117636053019
       TS =        0.0002362070997429
-------------------------------------
        F =    -1614.7862479707050625
      muN =      -26.0233184804426223
-------------------------------------
        G =    -1588.7629294902624224


Dumping 'jdft.fillings' ... done
Dumping 'jdft.wfns' ... done
Dumping 'jdft.fluidState' ... done
Dumping 'jdft.ionpos' ... done
Dumping 'jdft.lattice' ... done
Dumping 'jdft.eigenvals' ... done
Dumping 'jdft.eigStats' ... 
	eMin: -4.308305 at state 0 ( [ +0.000000 +0.000000 +0.000000 ] spin 1 )
	HOMO: -0.171547 at state 132 ( [ +0.333333 +0.500000 +0.000000 ] spin -1 )
	mu  : -0.171300
	LUMO: -0.169268 at state 101 ( [ +0.000000 -0.375000 +0.000000 ] spin -1 )
	eMax: +0.231324 at state 144 ( [ +0.500000 +0.000000 +0.000000 ] spin -1 )
	HOMO-LUMO gap: +0.002279
	Optical gap  : +0.009752 at state 14 ( [ +0.083333 -0.250000 +0.000000 ] spin 1 )
Dumping 'jdft.Ecomponents' ... done
IonicMinimize: Iter:   0  G: -1588.762929490262422  |grad|_K:  2.368e-03  t[s]:   1160.04

#--- Lowdin population analysis ---
# oxidation-state Cu +0.013 +0.073 +0.229 +0.065 +0.066 +0.229 +0.073 +0.014
# magnetic-moments Cu +0.000 -0.000 -0.000 +0.000 +0.000 -0.000 +0.000 +0.000


Computing DFT-D3 correction:
# coordination-number Cu 8.353 9.155 5.372 9.141 9.142 5.372 9.155 8.353
# diagonal-C6 Cu 175.00 175.00 175.00 175.00 175.00 175.00 175.00 175.00
EvdW_6 =   -0.045710
EvdW_8 =   -0.069700
Shifting auxilliary hamiltonian by 0.000000 to set nElectrons=151.916629

-------- Electronic minimization -----------
	Linear fluid (dielectric constant: 78.4, screening length: 8.12261 Bohr) occupying 0.425674 of unit cell:	Completed after 14 iterations at t[s]:   1164.34
	FillingsUpdate:  mu: -0.171300000  nElectrons: 151.916629  magneticMoment: [ Abs: 0.00000  Tot: -0.00000 ]
ElecMinimize: Iter:   0  G: -1588.763015395706134  |grad|_K:  9.040e-07  alpha:  1.000e+00
	Linear fluid (dielectric constant: 78.4, screening length: 8.12261 Bohr) occupying 0.425615 of unit cell:	Completed after 20 iterations at t[s]:   1173.79
	Linear fluid (dielectric constant: 78.4, screening length: 8.12261 Bohr) occupying 0.425670 of unit cell:	Completed after 19 iterations at t[s]:   1177.04
	FillingsUpdate:  mu: -0.171300000  nElectrons: 151.914659  magneticMoment: [ Abs: 0.00000  Tot: -0.00000 ]
	SubspaceRotationAdjust: set factor to 0.351
ElecMinimize: Iter:   1  G: -1588.763022708212247  |grad|_K:  9.286e-07  alpha:  6.992e-02  linmin: -3.920e-03  t[s]:   1181.38
	Linear fluid (dielectric constant: 78.4, screening length: 8.12261 Bohr) occupying 0.425670 of unit cell:	Completed after 15 iterations at t[s]:   1185.32
	Linear fluid (dielectric constant: 78.4, screening length: 8.12261 Bohr) occupying 0.425670 of unit cell:	Completed after 8 iterations at t[s]:   1188.27
	FillingsUpdate:  mu: -0.171300000  nElectrons: 151.917049  magneticMoment: [ Abs: 0.00000  Tot: -0.00000 ]
	SubspaceRotationAdjust: set factor to 0.249
ElecMinimize: Iter:   2  G: -1588.763030058249797  |grad|_K:  6.811e-07  alpha:  6.689e-02  linmin: -4.151e-05  t[s]:   1192.59
	Linear fluid (dielectric constant: 78.4, screening length: 8.12261 Bohr) occupying 0.425668 of unit cell:	Completed after 9 iterations at t[s]:   1196.43
ElecMinimize: 	Predicted alpha/alphaT>3.000000, increasing alphaT to 2.006727e-01.
	Linear fluid (dielectric constant: 78.4, screening length: 8.12261 Bohr) occupying 0.425663 of unit cell:	Completed after 10 iterations at t[s]:   1199.67
	Linear fluid (dielectric constant: 78.4, screening length: 8.12261 Bohr) occupying 0.425661 of unit cell:	Completed after 8 iterations at t[s]:   1202.84
	FillingsUpdate:  mu: -0.171300000  nElectrons: 151.917190  magneticMoment: [ Abs: 0.00000  Tot: -0.00000 ]
	SubspaceRotationAdjust: set factor to 0.307
ElecMinimize: Iter:   3  G: -1588.763043123659827  |grad|_K:  5.162e-07  alpha:  2.415e-01  linmin:  1.331e-06  t[s]:   1207.22
	Linear fluid (dielectric constant: 78.4, screening length: 8.12261 Bohr) occupying 0.425653 of unit cell:	Completed after 15 iterations at t[s]:   1211.13
	Linear fluid (dielectric constant: 78.4, screening length: 8.12261 Bohr) occupying 0.425655 of unit cell:	Completed after 9 iterations at t[s]:   1214.11
	FillingsUpdate:  mu: -0.171300000  nElectrons: 151.917005  magneticMoment: [ Abs: 0.00000  Tot: -0.00000 ]
	SubspaceRotationAdjust: set factor to 0.352
ElecMinimize: Iter:   4  G: -1588.763048900040758  |grad|_K:  4.195e-07  alpha:  1.863e-01  linmin: -1.430e-07  t[s]:   1218.48
	Linear fluid (dielectric constant: 78.4, screening length: 8.12261 Bohr) occupying 0.425651 of unit cell:	Completed after 15 iterations at t[s]:   1222.44
	Linear fluid (dielectric constant: 78.4, screening length: 8.12261 Bohr) occupying 0.425652 of unit cell:	Completed after 10 iterations at t[s]:   1225.47
	FillingsUpdate:  mu: -0.171300000  nElectrons: 151.917461  magneticMoment: [ Abs: 0.00000  Tot: -0.00000 ]
	SubspaceRotationAdjust: set factor to 0.35
ElecMinimize: Iter:   5  G: -1588.763051881398496  |grad|_K:  3.427e-07  alpha:  1.456e-01  linmin: -8.798e-06  t[s]:   1229.90
	Linear fluid (dielectric constant: 78.4, screening length: 8.12261 Bohr) occupying 0.425648 of unit cell:	Completed after 12 iterations at t[s]:   1233.84
	Linear fluid (dielectric constant: 78.4, screening length: 8.12261 Bohr) occupying 0.425649 of unit cell:	Completed after 9 iterations at t[s]:   1236.84
	FillingsUpdate:  mu: -0.171300000  nElectrons: 151.916066  magneticMoment: [ Abs: 0.00000  Tot: -0.00000 ]
	SubspaceRotationAdjust: set factor to 0.282
ElecMinimize: Iter:   6  G: -1588.763053547093477  |grad|_K:  4.395e-07  alpha:  1.217e-01  linmin:  7.715e-06  t[s]:   1241.21
	Linear fluid (dielectric constant: 78.4, screening length: 8.12261 Bohr) occupying 0.425648 of unit cell:	Completed after 15 iterations at t[s]:   1245.08
	Linear fluid (dielectric constant: 78.4, screening length: 8.12261 Bohr) occupying 0.425648 of unit cell:	Completed after 8 iterations at t[s]:   1248.06
	FillingsUpdate:  mu: -0.171300000  nElectrons: 151.916495  magneticMoment: [ Abs: 0.00000  Tot: -0.00000 ]
	SubspaceRotationAdjust: set factor to 0.232
ElecMinimize: Iter:   7  G: -1588.763056584279411  |grad|_K:  2.400e-07  alpha:  1.352e-01  linmin: -3.418e-06  t[s]:   1252.43
	Linear fluid (dielectric constant: 78.4, screening length: 8.12261 Bohr) occupying 0.425648 of unit cell:	Completed after 9 iterations at t[s]:   1256.22
	Linear fluid (dielectric constant: 78.4, screening length: 8.12261 Bohr) occupying 0.425648 of unit cell:	Completed after 0 iterations at t[s]:   1259.15
	FillingsUpdate:  mu: -0.171300000  nElectrons: 151.916443  magneticMoment: [ Abs: 0.00000  Tot: -0.00000 ]
	SubspaceRotationAdjust: set factor to 0.307
ElecMinimize: Iter:   8  G: -1588.763057478407745  |grad|_K:  1.589e-07  alpha:  1.334e-01  linmin:  1.451e-05  t[s]:   1263.76
	Linear fluid (dielectric constant: 78.4, screening length: 8.12261 Bohr) occupying 0.425647 of unit cell:	Completed after 10 iterations at t[s]:   1267.66
	Linear fluid (dielectric constant: 78.4, screening length: 8.12261 Bohr) occupying 0.425647 of unit cell:	Completed after 9 iterations at t[s]:   1270.68
	FillingsUpdate:  mu: -0.171300000  nElectrons: 151.916327  magneticMoment: [ Abs: 0.00000  Tot: -0.00000 ]
	SubspaceRotationAdjust: set factor to 0.299
ElecMinimize: Iter:   9  G: -1588.763058119362540  |grad|_K:  1.833e-07  alpha:  2.183e-01  linmin:  2.107e-06  t[s]:   1275.04
	Linear fluid (dielectric constant: 78.4, screening length: 8.12261 Bohr) occupying 0.425646 of unit cell:	Completed after 12 iterations at t[s]:   1278.92
	Linear fluid (dielectric constant: 78.4, screening length: 8.12261 Bohr) occupying 0.425647 of unit cell:	Completed after 11 iterations at t[s]:   1281.97
	FillingsUpdate:  mu: -0.171300000  nElectrons: 151.916997  magneticMoment: [ Abs: 0.00000  Tot: -0.00000 ]
	SubspaceRotationAdjust: set factor to 0.2
ElecMinimize: Iter:  10  G: -1588.763058489715831  |grad|_K:  1.351e-07  alpha:  9.449e-02  linmin:  1.438e-05  t[s]:   1286.38
	Linear fluid (dielectric constant: 78.4, screening length: 8.12261 Bohr) occupying 0.425645 of unit cell:	Completed after 11 iterations at t[s]:   1290.43
	Linear fluid (dielectric constant: 78.4, screening length: 8.12261 Bohr) occupying 0.425645 of unit cell:	Completed after 6 iterations at t[s]:   1293.43
	FillingsUpdate:  mu: -0.171300000  nElectrons: 151.916816  magneticMoment: [ Abs: 0.00000  Tot: -0.00000 ]
	SubspaceRotationAdjust: set factor to 0.18
ElecMinimize: Iter:  11  G: -1588.763058728173519  |grad|_K:  8.954e-08  alpha:  1.124e-01  linmin:  2.170e-05  t[s]:   1297.79
	Linear fluid (dielectric constant: 78.4, screening length: 8.12261 Bohr) occupying 0.425644 of unit cell:	Completed after 7 iterations at t[s]:   1301.55
	Linear fluid (dielectric constant: 78.4, screening length: 8.12261 Bohr) occupying 0.425643 of unit cell:	Completed after 2 iterations at t[s]:   1304.40
	FillingsUpdate:  mu: -0.171300000  nElectrons: 151.916819  magneticMoment: [ Abs: 0.00000  Tot: -0.00000 ]
	SubspaceRotationAdjust: set factor to 0.216
ElecMinimize: Iter:  12  G: -1588.763058867974223  |grad|_K:  6.370e-08  alpha:  1.500e-01  linmin: -5.457e-05  t[s]:   1308.76
	Linear fluid (dielectric constant: 78.4, screening length: 8.12261 Bohr) occupying 0.425642 of unit cell:	Completed after 9 iterations at t[s]:   1312.61
	Linear fluid (dielectric constant: 78.4, screening length: 8.12261 Bohr) occupying 0.425642 of unit cell:	Completed after 6 iterations at t[s]:   1315.53
	FillingsUpdate:  mu: -0.171300000  nElectrons: 151.916982  magneticMoment: [ Abs: 0.00000  Tot: -0.00000 ]
	SubspaceRotationAdjust: set factor to 0.194
ElecMinimize: Iter:  13  G: -1588.763058956220448  |grad|_K:  6.528e-08  alpha:  1.866e-01  linmin:  4.728e-05  t[s]:   1320.00
	Linear fluid (dielectric constant: 78.4, screening length: 8.12261 Bohr) occupying 0.425639 of unit cell:	Completed after 9 iterations at t[s]:   1323.86
	Linear fluid (dielectric constant: 78.4, screening length: 8.12261 Bohr) occupying 0.425640 of unit cell:	Completed after 5 iterations at t[s]:   1326.80
	FillingsUpdate:  mu: -0.171300000  nElectrons: 151.916794  magneticMoment: [ Abs: 0.00000  Tot: -0.00000 ]
	SubspaceRotationAdjust: set factor to 0.162
ElecMinimize: Iter:  14  G: -1588.763059033552281  |grad|_K:  4.059e-08  alpha:  1.561e-01  linmin:  1.306e-04  t[s]:   1331.16
ElecMinimize: Converged (|Delta G|<1.000000e-07 for 2 iters).
Setting wave functions to eigenvectors of Hamiltonian
Converging empty states (this may take a while): |deigs|: 1.100e-07

Computing DFT-D3 correction:
# coordination-number Cu 8.353 9.155 5.372 9.141 9.142 5.372 9.155 8.353
# diagonal-C6 Cu 175.00 175.00 175.00 175.00 175.00 175.00 175.00 175.00
EvdW_6 =   -0.045710
EvdW_8 =   -0.069700
IonicMinimize: 	Wolfe criterion not satisfied: alpha: 1  (E-E0)/|gdotd0|: -0.962275  gdotd/gdotd0: 0.908575 (taking cubic step)

Computing DFT-D3 correction:
# coordination-number Cu 8.350 9.152 5.406 9.130 9.130 5.406 9.152 8.351
# diagonal-C6 Cu 175.00 175.00 175.00 175.00 175.00 175.00 175.00 175.00
EvdW_6 =   -0.045709
EvdW_8 =   -0.069700
Shifting auxilliary hamiltonian by 0.000053 to set nElectrons=151.916794

-------- Electronic minimization -----------
	Linear fluid (dielectric constant: 78.4, screening length: 8.12261 Bohr) occupying 0.426058 of unit cell:	Completed after 17 iterations at t[s]:   1347.07
	FillingsUpdate:  mu: -0.171300000  nElectrons: 151.916794  magneticMoment: [ Abs: 0.00000  Tot: +0.00000 ]
ElecMinimize: Iter:   0  G: -1588.763112985878251  |grad|_K:  1.520e-06  alpha:  1.000e+00
	Linear fluid (dielectric constant: 78.4, screening length: 8.12261 Bohr) occupying 0.426112 of unit cell:	Completed after 17 iterations at t[s]:   1356.42
	Linear fluid (dielectric constant: 78.4, screening length: 8.12261 Bohr) occupying 0.426065 of unit cell:	Completed after 18 iterations at t[s]:   1359.61
	FillingsUpdate:  mu: -0.171300000  nElectrons: 151.916282  magneticMoment: [ Abs: 0.00000  Tot: +0.00000 ]
	SubspaceRotationAdjust: set factor to 0.179
ElecMinimize: Iter:   1  G: -1588.763149383978771  |grad|_K:  1.115e-06  alpha:  1.353e-01  linmin: -2.836e-05  t[s]:   1363.95
	Linear fluid (dielectric constant: 78.4, screening length: 8.12261 Bohr) occupying 0.426071 of unit cell:	Completed after 11 iterations at t[s]:   1367.79
	Linear fluid (dielectric constant: 78.4, screening length: 8.12261 Bohr) occupying 0.426077 of unit cell:	Completed after 13 iterations at t[s]:   1370.96
	FillingsUpdate:  mu: -0.171300000  nElectrons: 151.916993  magneticMoment: [ Abs: 0.00000  Tot: +0.00000 ]
	SubspaceRotationAdjust: set factor to 0.202
ElecMinimize: Iter:   2  G: -1588.763190712023288  |grad|_K:  9.007e-07  alpha:  2.854e-01  linmin: -5.187e-06  t[s]:   1375.37
	Linear fluid (dielectric constant: 78.4, screening length: 8.12261 Bohr) occupying 0.426076 of unit cell:	Completed after 12 iterations at t[s]:   1379.37
	Linear fluid (dielectric constant: 78.4, screening length: 8.12261 Bohr) occupying 0.426076 of unit cell:	Completed after 10 iterations at t[s]:   1382.58
	FillingsUpdate:  mu: -0.171300000  nElectrons: 151.916365  magneticMoment: [ Abs: 0.00000  Tot: +0.00000 ]
	SubspaceRotationAdjust: set factor to 0.234
ElecMinimize: Iter:   3  G: -1588.763210746503546  |grad|_K:  8.060e-07  alpha:  2.122e-01  linmin:  1.415e-06  t[s]:   1386.94
	Linear fluid (dielectric constant: 78.4, screening length: 8.12261 Bohr) occupying 0.426074 of unit cell:	Completed after 15 iterations at t[s]:   1390.93
	Linear fluid (dielectric constant: 78.4, screening length: 8.12261 Bohr) occupying 0.426074 of unit cell:	Completed after 12 iterations at t[s]:   1393.97
	FillingsUpdate:  mu: -0.171300000  nElectrons: 151.917383  magneticMoment: [ Abs: 0.00000  Tot: +0.00000 ]
	SubspaceRotationAdjust: set factor to 0.276
ElecMinimize: Iter:   4  G: -1588.763222946943642  |grad|_K:  6.518e-07  alpha:  1.614e-01  linmin:  5.976e-07  t[s]:   1398.33
	Linear fluid (dielectric constant: 78.4, screening length: 8.12261 Bohr) occupying 0.426071 of unit cell:	Completed after 13 iterations at t[s]:   1402.15
	Linear fluid (dielectric constant: 78.4, screening length: 8.12261 Bohr) occupying 0.426068 of unit cell:	Completed after 15 iterations at t[s]:   1405.29
	FillingsUpdate:  mu: -0.171300000  nElectrons: 151.914898  magneticMoment: [ Abs: 0.00000  Tot: +0.00000 ]
	SubspaceRotationAdjust: set factor to 0.246
ElecMinimize: Iter:   5  G: -1588.763239611974996  |grad|_K:  1.072e-06  alpha:  3.378e-01  linmin:  4.756e-05  t[s]:   1409.70
	Linear fluid (dielectric constant: 78.4, screening length: 8.12261 Bohr) occupying 0.426070 of unit cell:	Completed after 16 iterations at t[s]:   1413.83
	Linear fluid (dielectric constant: 78.4, screening length: 8.12261 Bohr) occupying 0.426069 of unit cell:	Completed after 15 iterations at t[s]:   1416.97
	FillingsUpdate:  mu: -0.171300000  nElectrons: 151.917767  magneticMoment: [ Abs: 0.00000  Tot: +0.00000 ]
	SubspaceRotationAdjust: set factor to 0.166
ElecMinimize: Iter:   6  G: -1588.763254766276305  |grad|_K:  6.951e-07  alpha:  1.142e-01  linmin:  3.173e-05  t[s]:   1421.31
	Linear fluid (dielectric constant: 78.4, screening length: 8.12261 Bohr) occupying 0.426064 of unit cell:	Completed after 15 iterations at t[s]:   1425.26
	Linear fluid (dielectric constant: 78.4, screening length: 8.12261 Bohr) occupying 0.426063 of unit cell:	Completed after 9 iterations at t[s]:   1428.24
	FillingsUpdate:  mu: -0.171300000  nElectrons: 151.916469  magneticMoment: [ Abs: 0.00000  Tot: +0.00000 ]
	SubspaceRotationAdjust: set factor to 0.163
ElecMinimize: Iter:   7  G: -1588.763261894256402  |grad|_K:  5.132e-07  alpha:  1.271e-01  linmin:  1.680e-05  t[s]:   1432.61
	Linear fluid (dielectric constant: 78.4, screening length: 8.12261 Bohr) occupying 0.426056 of unit cell:	Completed after 13 iterations at t[s]:   1437.48
	Linear fluid (dielectric constant: 78.4, screening length: 8.12261 Bohr) occupying 0.426047 of unit cell:	Completed after 13 iterations at t[s]:   1441.19
	FillingsUpdate:  mu: -0.171300000  nElectrons: 151.916300  magneticMoment: [ Abs: 0.00000  Tot: +0.00000 ]
	SubspaceRotationAdjust: set factor to 0.174
ElecMinimize: Iter:   8  G: -1588.763271443140411  |grad|_K:  6.131e-07  alpha:  3.120e-01  linmin:  3.914e-06  t[s]:   1445.59
	Linear fluid (dielectric constant: 78.4, screening length: 8.12261 Bohr) occupying 0.426016 of unit cell:	Completed after 15 iterations at t[s]:   1449.57
	Linear fluid (dielectric constant: 78.4, screening length: 8.12261 Bohr) occupying 0.426035 of unit cell:	Completed after 15 iterations at t[s]:   1452.69
	FillingsUpdate:  mu: -0.171300000  nElectrons: 151.917411  magneticMoment: [ Abs: 0.00000  Tot: +0.00000 ]
	SubspaceRotationAdjust: set factor to 0.178
ElecMinimize: Iter:   9  G: -1588.763276904360055  |grad|_K:  3.728e-07  alpha:  1.248e-01  linmin: -4.944e-06  t[s]:   1457.03
	Linear fluid (dielectric constant: 78.4, screening length: 8.12261 Bohr) occupying 0.426025 of unit cell:	Completed after 10 iterations at t[s]:   1460.85
	Linear fluid (dielectric constant: 78.4, screening length: 8.12261 Bohr) occupying 0.426015 of unit cell:	Completed after 10 iterations at t[s]:   1463.89
	FillingsUpdate:  mu: -0.171300000  nElectrons: 151.917430  magneticMoment: [ Abs: 0.00000  Tot: +0.00000 ]
	SubspaceRotationAdjust: set factor to 0.187
ElecMinimize: Iter:  10  G: -1588.763280820571254  |grad|_K:  3.468e-07  alpha:  2.421e-01  linmin:  5.038e-06  t[s]:   1468.26
	Linear fluid (dielectric constant: 78.4, screening length: 8.12261 Bohr) occupying 0.425991 of unit cell:	Completed after 9 iterations at t[s]:   1472.33
[...]
	Linear fluid (dielectric constant: 78.4, screening length: 8.12261 Bohr) occupying 0.427507 of unit cell:	Completed after 9 iterations at t[s]:   2042.69
	Linear fluid (dielectric constant: 78.4, screening length: 8.12261 Bohr) occupying 0.427507 of unit cell:	Completed after 5 iterations at t[s]:   2045.58
	FillingsUpdate:  mu: -0.171300000  nElectrons: 151.923273  magneticMoment: [ Abs: 0.00000  Tot: +0.00000 ]
	SubspaceRotationAdjust: set factor to 0.302
ElecMinimize: Iter:  41  G: -1588.763800364238705  |grad|_K:  7.298e-08  alpha:  1.377e-01  linmin:  2.105e-05  t[s]:   2049.96
	Linear fluid (dielectric constant: 78.4, screening length: 8.12261 Bohr) occupying 0.427507 of unit cell:	Completed after 9 iterations at t[s]:   2053.71
	Linear fluid (dielectric constant: 78.4, screening length: 8.12261 Bohr) occupying 0.427507 of unit cell:	Completed after 8 iterations at t[s]:   2056.69
	FillingsUpdate:  mu: -0.171300000  nElectrons: 151.923436  magneticMoment: [ Abs: 0.00000  Tot: +0.00000 ]
	SubspaceRotationAdjust: set factor to 0.229
ElecMinimize: Iter:  42  G: -1588.763800412851197  |grad|_K:  6.095e-08  alpha:  7.955e-02  linmin: -5.873e-06  t[s]:   2061.07
	Linear fluid (dielectric constant: 78.4, screening length: 8.12261 Bohr) occupying 0.427507 of unit cell:	Completed after 8 iterations at t[s]:   2064.88
	Linear fluid (dielectric constant: 78.4, screening length: 8.12261 Bohr) occupying 0.427507 of unit cell:	Completed after 6 iterations at t[s]:   2067.82
	FillingsUpdate:  mu: -0.171300000  nElectrons: 151.923326  magneticMoment: [ Abs: 0.00000  Tot: +0.00000 ]
	SubspaceRotationAdjust: set factor to 0.215
ElecMinimize: Iter:  43  G: -1588.763800468499085  |grad|_K:  5.731e-08  alpha:  1.284e-01  linmin: -8.341e-06  t[s]:   2072.43
ElecMinimize: Converged (|Delta G|<1.000000e-07 for 2 iters).
Setting wave functions to eigenvectors of Hamiltonian
Converging empty states (this may take a while): |deigs|: 6.345e-06

Computing DFT-D3 correction:
# coordination-number Cu 8.364 9.131 5.563 9.115 9.084 5.550 9.116 8.338
# diagonal-C6 Cu 175.00 175.00 175.00 175.00 175.00 175.00 175.00 175.00
EvdW_6 =   -0.045709
EvdW_8 =   -0.069779

# Ionic positions in cartesian coordinates:
ion Cu   4.766602862087872   6.741023987294106  44.160532735538268 1
ion Cu  -0.000027084893910   6.740998609084373  39.345226821825705 1
ion Cu   2.383322383726903   3.370459809660051  46.406755962153277 1
ion Cu   2.383295390428442   3.370496346388081  41.688742922119168 1
ion Cu  -0.000033765701894   0.000043909148071  34.580202667887015 1
ion Cu   0.000032486159509   0.000028475679961  29.851024453104007 1
ion Cu   2.383389439425380   3.370538399957394  36.930202552251501 1
ion Cu   2.383285288767698   3.370504462787964  32.101212885121036 1

# Forces in Cartesian coordinates:
force Cu   0.000001902400090  -0.000001941835504   0.000820539553564 1
force Cu   0.000001182609757   0.000000346188608  -0.000647701596857 1
force Cu  -0.000002106127536   0.000000964713922  -0.000188747132666 1
force Cu  -0.000002391045386  -0.000001364752110  -0.000129872754543 1
force Cu   0.000005071239421  -0.000002242750390  -0.000091186090766 1
force Cu  -0.000008214822395  -0.000002910129115   0.000584940104425 1
force Cu   0.000000964705610   0.000001346658938   0.000080623281375 1
force Cu   0.000001041961677   0.000002529005292  -0.000521457761580 1

# Energy components:
   A_diel =        0.0148887239056117
   Eewald =     5568.3798600032359900
       EH =     7053.6977368104253401
     Eloc =   -14540.0426726211262576
      Enl =      292.9919611781512572
     EvdW =       -0.1154874515049290
      Exc =     -155.2261184654524016
 Exc_core =        0.3757289526845323
       KE =      165.1285548318237204
  MuShift =        0.0075499888137292
-------------------------------------
     Etot =    -1614.7879980490433809
       TS =        0.0002680889453737
-------------------------------------
        F =    -1614.7882661379887850
      muN =      -26.0244656694896612
-------------------------------------
        G =    -1588.7638004684990847


Dumping 'jdft.fillings' ... done
Dumping 'jdft.wfns' ... done
Dumping 'jdft.fluidState' ... done
Dumping 'jdft.ionpos' ... done
Dumping 'jdft.lattice' ... done
Dumping 'jdft.eigenvals' ... done
Dumping 'jdft.eigStats' ... 
	eMin: -4.307970 at state 96 ( [ +0.000000 +0.000000 +0.000000 ] spin -1 )
	HOMO: -0.171562 at state 132 ( [ +0.333333 +0.500000 +0.000000 ] spin -1 )
	mu  : -0.171300
	LUMO: -0.170087 at state 3 ( [ +0.000000 +0.375000 +0.000000 ] spin 1 )
	eMax: +0.231575 at state 144 ( [ +0.500000 +0.000000 +0.000000 ] spin -1 )
	HOMO-LUMO gap: +0.001475
	Optical gap  : +0.010133 at state 190 ( [ -0.083333 -0.250000 +0.000000 ] spin -1 )
Dumping 'jdft.Ecomponents' ... done
IonicMinimize: Iter:   2  G: -1588.763800468499085  |grad|_K:  2.718e-04  alpha:  1.000e+00  linmin: -6.415e-01  t[s]:   2089.90

#--- Lowdin population analysis ---
# oxidation-state Cu +0.014 +0.073 +0.221 +0.067 +0.068 +0.221 +0.073 +0.014
# magnetic-moments Cu +0.000 -0.000 -0.000 +0.000 -0.000 -0.000 +0.000 +0.000


Computing DFT-D3 correction:
# coordination-number Cu 8.349 9.124 5.579 9.093 9.087 5.574 9.122 8.343
# diagonal-C6 Cu 175.00 175.00 175.00 175.00 175.00 175.00 175.00 175.00
EvdW_6 =   -0.045709
EvdW_8 =   -0.069776
Shifting auxilliary hamiltonian by 0.000032 to set nElectrons=151.923326

-------- Electronic minimization -----------
	Linear fluid (dielectric constant: 78.4, screening length: 8.12261 Bohr) occupying 0.427782 of unit cell:	Completed after 15 iterations at t[s]:   2094.32
	FillingsUpdate:  mu: -0.171300000  nElectrons: 151.923326  magneticMoment: [ Abs: 0.00000  Tot: +0.00000 ]
ElecMinimize: Iter:   0  G: -1588.763722152734317  |grad|_K:  1.107e-06  alpha:  1.000e+00
	Linear fluid (dielectric constant: 78.4, screening length: 8.12261 Bohr) occupying 0.427797 of unit cell:	Completed after 17 iterations at t[s]:   2103.73
	Linear fluid (dielectric constant: 78.4, screening length: 8.12261 Bohr) occupying 0.427784 of unit cell:	Completed after 16 iterations at t[s]:   2106.91
	FillingsUpdate:  mu: -0.171300000  nElectrons: 151.922130  magneticMoment: [ Abs: 0.00000  Tot: +0.00000 ]
	SubspaceRotationAdjust: set factor to 0.226
ElecMinimize: Iter:   1  G: -1588.763740928356128  |grad|_K:  8.467e-07  alpha:  1.311e-01  linmin: -2.493e-04  t[s]:   2111.28
	Linear fluid (dielectric constant: 78.4, screening length: 8.12261 Bohr) occupying 0.427786 of unit cell:	Completed after 12 iterations at t[s]:   2115.20
	Linear fluid (dielectric constant: 78.4, screening length: 8.12261 Bohr) occupying 0.427788 of unit cell:	Completed after 12 iterations at t[s]:   2118.27
	FillingsUpdate:  mu: -0.171300000  nElectrons: 151.925128  magneticMoment: [ Abs: 0.00000  Tot: +0.00000 ]
	SubspaceRotationAdjust: set factor to 0.181
ElecMinimize: Iter:   2  G: -1588.763760180027248  |grad|_K:  9.416e-07  alpha:  2.299e-01  linmin: -5.819e-05  t[s]:   2122.63
	Linear fluid (dielectric constant: 78.4, screening length: 8.12261 Bohr) occupying 0.427780 of unit cell:	Completed after 13 iterations at t[s]:   2126.53
	Linear fluid (dielectric constant: 78.4, screening length: 8.12261 Bohr) occupying 0.427784 of unit cell:	Completed after 12 iterations at t[s]:   2129.82
	FillingsUpdate:  mu: -0.171300000  nElectrons: 151.922602  magneticMoment: [ Abs: 0.00000  Tot: +0.00000 ]
	SubspaceRotationAdjust: set factor to 0.131
ElecMinimize: Iter:   3  G: -1588.763770536879974  |grad|_K:  6.055e-07  alpha:  9.925e-02  linmin: -1.699e-04  t[s]:   2134.32
	Linear fluid (dielectric constant: 78.4, screening length: 8.12261 Bohr) occupying 0.427782 of unit cell:	Completed after 10 iterations at t[s]:   2138.17
	Linear fluid (dielectric constant: 78.4, screening length: 8.12261 Bohr) occupying 0.427780 of unit cell:	Completed after 10 iterations at t[s]:   2141.24
	FillingsUpdate:  mu: -0.171300000  nElectrons: 151.923255  magneticMoment: [ Abs: 0.00000  Tot: +0.00000 ]
	SubspaceRotationAdjust: set factor to 0.172
ElecMinimize: Iter:   4  G: -1588.763779735480966  |grad|_K:  4.564e-07  alpha:  2.143e-01  linmin:  5.061e-06  t[s]:   2145.67
	Linear fluid (dielectric constant: 78.4, screening length: 8.12261 Bohr) occupying 0.427779 of unit cell:	Completed after 12 iterations at t[s]:   2149.52
	Linear fluid (dielectric constant: 78.4, screening length: 8.12261 Bohr) occupying 0.427779 of unit cell:	Completed after 8 iterations at t[s]:   2152.46
	FillingsUpdate:  mu: -0.171300000  nElectrons: 151.924003  magneticMoment: [ Abs: 0.00000  Tot: +0.00000 ]
	SubspaceRotationAdjust: set factor to 0.184
ElecMinimize: Iter:   5  G: -1588.763784299336749  |grad|_K:  5.090e-07  alpha:  1.883e-01  linmin:  7.062e-06  t[s]:   2156.87
	Linear fluid (dielectric constant: 78.4, screening length: 8.12261 Bohr) occupying 0.427778 of unit cell:	Completed after 12 iterations at t[s]:   2160.95
	Linear fluid (dielectric constant: 78.4, screening length: 8.12261 Bohr) occupying 0.427778 of unit cell:	Completed after 10 iterations at t[s]:   2164.02
	FillingsUpdate:  mu: -0.171300000  nElectrons: 151.922463  magneticMoment: [ Abs: 0.00000  Tot: +0.00000 ]
	SubspaceRotationAdjust: set factor to 0.168
ElecMinimize: Iter:   6  G: -1588.763793329096870  |grad|_K:  5.437e-07  alpha:  2.998e-01  linmin:  2.312e-05  t[s]:   2168.39
	Linear fluid (dielectric constant: 78.4, screening length: 8.12261 Bohr) occupying 0.427778 of unit cell:	Completed after 12 iterations at t[s]:   2172.21
	Linear fluid (dielectric constant: 78.4, screening length: 8.12261 Bohr) occupying 0.427778 of unit cell:	Completed after 12 iterations at t[s]:   2175.30
	FillingsUpdate:  mu: -0.171300000  nElectrons: 151.923589  magneticMoment: [ Abs: 0.00000  Tot: +0.00000 ]
	SubspaceRotationAdjust: set factor to 0.149
ElecMinimize: Iter:   7  G: -1588.763797069877228  |grad|_K:  3.313e-07  alpha:  1.090e-01  linmin:  5.876e-07  t[s]:   2179.67
	Linear fluid (dielectric constant: 78.4, screening length: 8.12261 Bohr) occupying 0.427775 of unit cell:	Completed after 10 iterations at t[s]:   2183.53
	Linear fluid (dielectric constant: 78.4, screening length: 8.12261 Bohr) occupying 0.427770 of unit cell:	Completed after 11 iterations at t[s]:   2186.58
	FillingsUpdate:  mu: -0.171300000  nElectrons: 151.923225  magneticMoment: [ Abs: 0.00000  Tot: +0.00000 ]
	SubspaceRotationAdjust: set factor to 0.153
ElecMinimize: Iter:   8  G: -1588.763800714262288  |grad|_K:  4.346e-07  alpha:  2.852e-01  linmin: -9.732e-07  t[s]:   2191.06
	Linear fluid (dielectric constant: 78.4, screening length: 8.12261 Bohr) occupying 0.427754 of unit cell:	Completed after 13 iterations at t[s]:   2195.03
	Linear fluid (dielectric constant: 78.4, screening length: 8.12261 Bohr) occupying 0.427759 of unit cell:	Completed after 8 iterations at t[s]:   2198.05
	FillingsUpdate:  mu: -0.171300000  nElectrons: 151.923220  magneticMoment: [ Abs: 0.00000  Tot: +0.00000 ]
	SubspaceRotationAdjust: set factor to 0.17
ElecMinimize: Iter:   9  G: -1588.763805007948122  |grad|_K:  2.871e-07  alpha:  1.953e-01  linmin:  1.919e-06  t[s]:   2202.42
	Linear fluid (dielectric constant: 78.4, screening length: 8.12261 Bohr) occupying 0.427751 of unit cell:	Completed after 12 iterations at t[s]:   2206.19
	Linear fluid (dielectric constant: 78.4, screening length: 8.12261 Bohr) occupying 0.427752 of unit cell:	Completed after 8 iterations at t[s]:   2209.21
	FillingsUpdate:  mu: -0.171300000  nElectrons: 151.924071  magneticMoment: [ Abs: 0.00000  Tot: +0.00000 ]
	SubspaceRotationAdjust: set factor to 0.151
ElecMinimize: Iter:  10  G: -1588.763806663848754  |grad|_K:  2.834e-07  alpha:  1.727e-01  linmin: -1.107e-05  t[s]:   2213.57
	Linear fluid (dielectric constant: 78.4, screening length: 8.12261 Bohr) occupying 0.427740 of unit cell:	Completed after 13 iterations at t[s]:   2217.50
	Linear fluid (dielectric constant: 78.4, screening length: 8.12261 Bohr) occupying 0.427741 of unit cell:	Completed after 6 iterations at t[s]:   2220.57
	FillingsUpdate:  mu: -0.171300000  nElectrons: 151.923638  magneticMoment: [ Abs: 0.00000  Tot: +0.00000 ]
	SubspaceRotationAdjust: set factor to 0.133
ElecMinimize: Iter:  11  G: -1588.763808141451591  |grad|_K:  1.971e-07  alpha:  1.580e-01  linmin:  8.448e-06  t[s]:   2225.04
	Linear fluid (dielectric constant: 78.4, screening length: 8.12261 Bohr) occupying 0.427733 of unit cell:	Completed after 8 iterations at t[s]:   2228.81
	Linear fluid (dielectric constant: 78.4, screening length: 8.12261 Bohr) occupying 0.427729 of unit cell:	Completed after 7 iterations at t[s]:   2231.76
	FillingsUpdate:  mu: -0.171300000  nElectrons: 151.923829  magneticMoment: [ Abs: 0.00000  Tot: +0.00000 ]
	SubspaceRotationAdjust: set factor to 0.137
ElecMinimize: Iter:  12  G: -1588.763809206032420  |grad|_K:  1.935e-07  alpha:  2.355e-01  linmin: -8.664e-06  t[s]:   2236.14
	Linear fluid (dielectric constant: 78.4, screening length: 8.12261 Bohr) occupying 0.427714 of unit cell:	Completed after 10 iterations at t[s]:   2239.99
	Linear fluid (dielectric constant: 78.4, screening length: 8.12261 Bohr) occupying 0.427720 of unit cell:	Completed after 8 iterations at t[s]:   2242.97
	FillingsUpdate:  mu: -0.171300000  nElectrons: 151.923990  magneticMoment: [ Abs: 0.00000  Tot: +0.00000 ]
	SubspaceRotationAdjust: set factor to 0.142
ElecMinimize: Iter:  13  G: -1588.763809814442084  |grad|_K:  1.086e-07  alpha:  1.396e-01  linmin:  1.204e-06  t[s]:   2247.39
	Linear fluid (dielectric constant: 78.4, screening length: 8.12261 Bohr) occupying 0.427716 of unit cell:	Completed after 8 iterations at t[s]:   2251.36
	Linear fluid (dielectric constant: 78.4, screening length: 8.12261 Bohr) occupying 0.427715 of unit cell:	Completed after 2 iterations at t[s]:   2254.28
	FillingsUpdate:  mu: -0.171300000  nElectrons: 151.923878  magneticMoment: [ Abs: 0.00000  Tot: +0.00000 ]
	SubspaceRotationAdjust: set factor to 0.142
ElecMinimize: Iter:  14  G: -1588.763810021275276  |grad|_K:  9.419e-08  alpha:  1.508e-01  linmin: -5.001e-05  t[s]:   2258.65
	Linear fluid (dielectric constant: 78.4, screening length: 8.12261 Bohr) occupying 0.427710 of unit cell:	Completed after 6 iterations at t[s]:   2262.32
	Linear fluid (dielectric constant: 78.4, screening length: 8.12261 Bohr) occupying 0.427709 of unit cell:	Completed after 2 iterations at t[s]:   2265.18
	FillingsUpdate:  mu: -0.171300000  nElectrons: 151.923895  magneticMoment: [ Abs: 0.00000  Tot: +0.00000 ]
	SubspaceRotationAdjust: set factor to 0.15
ElecMinimize: Iter:  15  G: -1588.763810232341257  |grad|_K:  6.076e-08  alpha:  2.041e-01  linmin: -2.265e-05  t[s]:   2269.54
	Linear fluid (dielectric constant: 78.4, screening length: 8.12261 Bohr) occupying 0.427705 of unit cell:	Completed after 8 iterations at t[s]:   2273.35
	Linear fluid (dielectric constant: 78.4, screening length: 8.12261 Bohr) occupying 0.427706 of unit cell:	Completed after 2 iterations at t[s]:   2276.16
	FillingsUpdate:  mu: -0.171300000  nElectrons: 151.923957  magneticMoment: [ Abs: 0.00000  Tot: +0.00000 ]
	SubspaceRotationAdjust: set factor to 0.153
ElecMinimize: Iter:  16  G: -1588.763810296203928  |grad|_K:  5.261e-08  alpha:  1.485e-01  linmin:  1.237e-04  t[s]:   2280.67
	Linear fluid (dielectric constant: 78.4, screening length: 8.12261 Bohr) occupying 0.427704 of unit cell:	Completed after 6 iterations at t[s]:   2284.48
	Linear fluid (dielectric constant: 78.4, screening length: 8.12261 Bohr) occupying 0.427703 of unit cell:	Completed after 2 iterations at t[s]:   2287.32
	FillingsUpdate:  mu: -0.171300000  nElectrons: 151.923906  magneticMoment: [ Abs: 0.00000  Tot: +0.00000 ]
	SubspaceRotationAdjust: set factor to 0.157
ElecMinimize: Iter:  17  G: -1588.763810362770528  |grad|_K:  4.011e-08  alpha:  2.065e-01  linmin: -3.904e-04  t[s]:   2291.70
ElecMinimize: Converged (|Delta G|<1.000000e-07 for 2 iters).
Setting wave functions to eigenvectors of Hamiltonian
Converging empty states (this may take a while): |deigs|: 4.256e-08

Computing DFT-D3 correction:
# coordination-number Cu 8.349 9.124 5.579 9.093 9.087 5.574 9.122 8.343
# diagonal-C6 Cu 175.00 175.00 175.00 175.00 175.00 175.00 175.00 175.00
EvdW_6 =   -0.045709
EvdW_8 =   -0.069776

# Ionic positions in cartesian coordinates:
ion Cu   4.766631686457965   6.740996084360350  44.170700345011667 1
ion Cu  -0.000004753217609   6.741011951505651  39.337957854835949 1
ion Cu   2.383305397644966   3.370481792077281  46.403706803484241 1
ion Cu   2.383261214896141   3.370478461864401  41.687248765555005 1
ion Cu   0.000051138308758   0.000022162397538  34.579191097798137 1
ion Cu  -0.000090648020987  -0.000009389716348  29.859636550426938 1
ion Cu   2.383410290119644   3.370564589108220  36.930119080117002 1
ion Cu   2.383302673811122   3.370548348402907  32.095340502771037 1

# Forces in Cartesian coordinates:
force Cu  -0.000002477660526  -0.000001816362537  -0.000128794855137 1
force Cu  -0.000000103083324  -0.000000592991588   0.000137890843429 1
force Cu  -0.000000042946265  -0.000001273566211   0.000123156386883 1
force Cu  -0.000000182687780  -0.000000531941441  -0.000143665383718 1
force Cu   0.000001946892728   0.000002191368428   0.000003233156225 1
force Cu   0.000000734435301   0.000001617892203  -0.000014580108349 1
force Cu   0.000002064122318  -0.000001470747847  -0.000203400585092 1
force Cu  -0.000002352308823  -0.000004052264614   0.000036252442225 1

# Energy components:
   A_diel =        0.0147764663914244
   Eewald =     5568.6073646358681799
       EH =     7053.9098161010979311
     Eloc =   -14540.4817157936831791
      Enl =      292.9908424892397534
     EvdW =       -0.1154851198750312
      Exc =     -155.2266604050786896
 Exc_core =        0.3757287154988114
       KE =      165.1297384314692351
  MuShift =        0.0074928318169683
-------------------------------------
     Etot =    -1614.7881016472538249
       TS =        0.0002738181187745
-------------------------------------
        F =    -1614.7883754653726101
      muN =      -26.0245651026020752
-------------------------------------
        G =    -1588.7638103627705277


Dumping 'jdft.fillings' ... done
Dumping 'jdft.wfns' ... done
Dumping 'jdft.fluidState' ... done
Dumping 'jdft.ionpos' ... done
Dumping 'jdft.lattice' ... done
Dumping 'jdft.eigenvals' ... done
Dumping 'jdft.eigStats' ... 
	eMin: -4.307885 at state 0 ( [ +0.000000 +0.000000 +0.000000 ] spin 1 )
	HOMO: -0.171543 at state 132 ( [ +0.333333 +0.500000 +0.000000 ] spin -1 )
	mu  : -0.171300
	LUMO: -0.170325 at state 3 ( [ +0.000000 +0.375000 +0.000000 ] spin 1 )
	eMax: +0.231606 at state 48 ( [ +0.500000 +0.000000 +0.000000 ] spin 1 )
	HOMO-LUMO gap: +0.001218
	Optical gap  : +0.010231 at state 10 ( [ +0.083333 +0.250000 +0.000000 ] spin 1 )
Dumping 'jdft.Ecomponents' ... done
IonicMinimize: Iter:   3  G: -1588.763810362770528  |grad|_K:  6.766e-05  alpha:  1.000e+00  linmin:  4.967e-01  t[s]:   2303.62
IonicMinimize: Converged (|grad|_K<1.000000e-04).

#--- Lowdin population analysis ---
# oxidation-state Cu +0.014 +0.073 +0.220 +0.068 +0.068 +0.220 +0.073 +0.015
# magnetic-moments Cu -0.000 -0.000 +0.000 -0.000 -0.000 +0.000 +0.000 -0.000


Dumping 'jdft.n_up' ... done
Dumping 'jdft.n_dn' ... done
Dumping 'jdft.tau_up' ... done
Dumping 'jdft.tau_dn' ... done
Dumping 'jdft.eigenvals' ... done
Dumping 'jdft.eigStats' ... 
	eMin: -4.307885 at state 0 ( [ +0.000000 +0.000000 +0.000000 ] spin 1 )
	HOMO: -0.171543 at state 132 ( [ +0.333333 +0.500000 +0.000000 ] spin -1 )
	mu  : -0.171300
	LUMO: -0.170325 at state 3 ( [ +0.000000 +0.375000 +0.000000 ] spin 1 )
	eMax: +0.231606 at state 48 ( [ +0.500000 +0.000000 +0.000000 ] spin 1 )
	HOMO-LUMO gap: +0.001218
	Optical gap  : +0.010231 at state 10 ( [ +0.083333 +0.250000 +0.000000 ] spin 1 )
Dumping 'jdft.kPts' ... done
Dumping 'jdft.dosUp' ... done.
Dumping 'jdft.dosDn' ... done.
End date and time: Mon Dec  6 16:46:33 2021  (Duration: 0-0:38:32.27)
Done!
