
*************** JDFTx 1.6.0  ***************

Start date and time: Thu Feb 17 04:39:30 2022
Executable /projects/musgravc/apps/jdftx-1.6.1/build/jdftx with command-line: -i in
Running on hosts (process indices):  shas0652.rc.int.colorado.edu (0-23)
Divided in process groups (process indices):  0 (0)  1 (1)  2 (2)  3 (3)  4 (4)  5 (5)  6 (6)  7 (7)  8 (8)  9 (9)  10 (10)  11 (11)  12 (12)  13 (13)  14 (14)  15 (15)  16 (16)  17 (17)  18 (18)  19 (19)  20 (20)  21 (21)  22 (22)  23 (23)
Resource initialization completed at t[s]:      0.00
Run totals: 24 processes, 24 threads, 0 GPUs


Input parsed successfully to the following command list (including defaults):

basis kpoint-dependent
converge-empty-states yes
coords-type Cartesian
core-overlap-check none
coulomb-interaction Periodic
davidson-band-ratio 1.1
density-of-states Etol 1.000000e-06 Esigma 1.000000e-03 \
		Complete \
	Total \
	OrthoOrbital Ag 1   s \
	OrthoOrbital Ag 1   p \
	OrthoOrbital Ag 1   px \
	OrthoOrbital Ag 1   py \
	OrthoOrbital Ag 1   pz \
	OrthoOrbital Ag 1   d \
	OrthoOrbital Ag 1   dxy \
	OrthoOrbital Ag 1   dyz \
	OrthoOrbital Ag 1   dz2 \
	OrthoOrbital Ag 1   dxz \
	OrthoOrbital Ag 1   dx2-y2 \
	OrthoOrbital Ag 2   s \
	OrthoOrbital Ag 2   p \
	OrthoOrbital Ag 2   px \
	OrthoOrbital Ag 2   py \
	OrthoOrbital Ag 2   pz \
	OrthoOrbital Ag 2   d \
	OrthoOrbital Ag 2   dxy \
	OrthoOrbital Ag 2   dyz \
	OrthoOrbital Ag 2   dz2 \
	OrthoOrbital Ag 2   dxz \
	OrthoOrbital Ag 2   dx2-y2 \
	OrthoOrbital Ag 3   s \
	OrthoOrbital Ag 3   p \
	OrthoOrbital Ag 3   px \
	OrthoOrbital Ag 3   py \
	OrthoOrbital Ag 3   pz \
	OrthoOrbital Ag 3   d \
	OrthoOrbital Ag 3   dxy \
	OrthoOrbital Ag 3   dyz \
	OrthoOrbital Ag 3   dz2 \
	OrthoOrbital Ag 3   dxz \
	OrthoOrbital Ag 3   dx2-y2 \
	OrthoOrbital Ag 4   s \
	OrthoOrbital Ag 4   p \
	OrthoOrbital Ag 4   px \
	OrthoOrbital Ag 4   py \
	OrthoOrbital Ag 4   pz \
	OrthoOrbital Ag 4   d \
	OrthoOrbital Ag 4   dxy \
	OrthoOrbital Ag 4   dyz \
	OrthoOrbital Ag 4   dz2 \
	OrthoOrbital Ag 4   dxz \
	OrthoOrbital Ag 4   dx2-y2 \
	OrthoOrbital Ag 5   s \
	OrthoOrbital Ag 5   p \
	OrthoOrbital Ag 5   px \
	OrthoOrbital Ag 5   py \
	OrthoOrbital Ag 5   pz \
	OrthoOrbital Ag 5   d \
	OrthoOrbital Ag 5   dxy \
	OrthoOrbital Ag 5   dyz \
	OrthoOrbital Ag 5   dz2 \
	OrthoOrbital Ag 5   dxz \
	OrthoOrbital Ag 5   dx2-y2 \
	OrthoOrbital Ag 6   s \
	OrthoOrbital Ag 6   p \
	OrthoOrbital Ag 6   px \
	OrthoOrbital Ag 6   py \
	OrthoOrbital Ag 6   pz \
	OrthoOrbital Ag 6   d \
	OrthoOrbital Ag 6   dxy \
	OrthoOrbital Ag 6   dyz \
	OrthoOrbital Ag 6   dz2 \
	OrthoOrbital Ag 6   dxz \
	OrthoOrbital Ag 6   dx2-y2 \
	OrthoOrbital Ag 7   s \
	OrthoOrbital Ag 7   p \
	OrthoOrbital Ag 7   px \
	OrthoOrbital Ag 7   py \
	OrthoOrbital Ag 7   pz \
	OrthoOrbital Ag 7   d \
	OrthoOrbital Ag 7   dxy \
	OrthoOrbital Ag 7   dyz \
	OrthoOrbital Ag 7   dz2 \
	OrthoOrbital Ag 7   dxz \
	OrthoOrbital Ag 7   dx2-y2 \
	OrthoOrbital Ag 8   s \
	OrthoOrbital Ag 8   p \
	OrthoOrbital Ag 8   px \
	OrthoOrbital Ag 8   py \
	OrthoOrbital Ag 8   pz \
	OrthoOrbital Ag 8   d \
	OrthoOrbital Ag 8   dxy \
	OrthoOrbital Ag 8   dyz \
	OrthoOrbital Ag 8   dz2 \
	OrthoOrbital Ag 8   dxz \
	OrthoOrbital Ag 8   dx2-y2 \
	OrthoOrbital Ag 9   s \
	OrthoOrbital Ag 9   p \
	OrthoOrbital Ag 9   px \
	OrthoOrbital Ag 9   py \
	OrthoOrbital Ag 9   pz \
	OrthoOrbital Ag 9   d \
	OrthoOrbital Ag 9   dxy \
	OrthoOrbital Ag 9   dyz \
	OrthoOrbital Ag 9   dz2 \
	OrthoOrbital Ag 9   dxz \
	OrthoOrbital Ag 9   dx2-y2 \
	OrthoOrbital Ag 10   s \
	OrthoOrbital Ag 10   p \
	OrthoOrbital Ag 10   px \
	OrthoOrbital Ag 10   py \
	OrthoOrbital Ag 10   pz \
	OrthoOrbital Ag 10   d \
	OrthoOrbital Ag 10   dxy \
	OrthoOrbital Ag 10   dyz \
	OrthoOrbital Ag 10   dz2 \
	OrthoOrbital Ag 10   dxz \
	OrthoOrbital Ag 10   dx2-y2 \
	OrthoOrbital Ag 11   s \
	OrthoOrbital Ag 11   p \
	OrthoOrbital Ag 11   px \
	OrthoOrbital Ag 11   py \
	OrthoOrbital Ag 11   pz \
	OrthoOrbital Ag 11   d \
	OrthoOrbital Ag 11   dxy \
	OrthoOrbital Ag 11   dyz \
	OrthoOrbital Ag 11   dz2 \
	OrthoOrbital Ag 11   dxz \
	OrthoOrbital Ag 11   dx2-y2 \
	OrthoOrbital Ag 12   s \
	OrthoOrbital Ag 12   p \
	OrthoOrbital Ag 12   px \
	OrthoOrbital Ag 12   py \
	OrthoOrbital Ag 12   pz \
	OrthoOrbital Ag 12   d \
	OrthoOrbital Ag 12   dxy \
	OrthoOrbital Ag 12   dyz \
	OrthoOrbital Ag 12   dz2 \
	OrthoOrbital Ag 12   dxz \
	OrthoOrbital Ag 12   dx2-y2 \
	OrthoOrbital Ag 13   s \
	OrthoOrbital Ag 13   p \
	OrthoOrbital Ag 13   px \
	OrthoOrbital Ag 13   py \
	OrthoOrbital Ag 13   pz \
	OrthoOrbital Ag 13   d \
	OrthoOrbital Ag 13   dxy \
	OrthoOrbital Ag 13   dyz \
	OrthoOrbital Ag 13   dz2 \
	OrthoOrbital Ag 13   dxz \
	OrthoOrbital Ag 13   dx2-y2 \
	OrthoOrbital Ag 14   s \
	OrthoOrbital Ag 14   p \
	OrthoOrbital Ag 14   px \
	OrthoOrbital Ag 14   py \
	OrthoOrbital Ag 14   pz \
	OrthoOrbital Ag 14   d \
	OrthoOrbital Ag 14   dxy \
	OrthoOrbital Ag 14   dyz \
	OrthoOrbital Ag 14   dz2 \
	OrthoOrbital Ag 14   dxz \
	OrthoOrbital Ag 14   dx2-y2 \
	OrthoOrbital Ag 15   s \
	OrthoOrbital Ag 15   p \
	OrthoOrbital Ag 15   px \
	OrthoOrbital Ag 15   py \
	OrthoOrbital Ag 15   pz \
	OrthoOrbital Ag 15   d \
	OrthoOrbital Ag 15   dxy \
	OrthoOrbital Ag 15   dyz \
	OrthoOrbital Ag 15   dz2 \
	OrthoOrbital Ag 15   dxz \
	OrthoOrbital Ag 15   dx2-y2 \
	OrthoOrbital Ag 16   s \
	OrthoOrbital Ag 16   p \
	OrthoOrbital Ag 16   px \
	OrthoOrbital Ag 16   py \
	OrthoOrbital Ag 16   pz \
	OrthoOrbital Ag 16   d \
	OrthoOrbital Ag 16   dxy \
	OrthoOrbital Ag 16   dyz \
	OrthoOrbital Ag 16   dz2 \
	OrthoOrbital Ag 16   dxz \
	OrthoOrbital Ag 16   dx2-y2 \
	OrthoOrbital Ag 17   s \
	OrthoOrbital Ag 17   p \
	OrthoOrbital Ag 17   px \
	OrthoOrbital Ag 17   py \
	OrthoOrbital Ag 17   pz \
	OrthoOrbital Ag 17   d \
	OrthoOrbital Ag 17   dxy \
	OrthoOrbital Ag 17   dyz \
	OrthoOrbital Ag 17   dz2 \
	OrthoOrbital Ag 17   dxz \
	OrthoOrbital Ag 17   dx2-y2 \
	OrthoOrbital Ag 18   s \
	OrthoOrbital Ag 18   p \
	OrthoOrbital Ag 18   px \
	OrthoOrbital Ag 18   py \
	OrthoOrbital Ag 18   pz \
	OrthoOrbital Ag 18   d \
	OrthoOrbital Ag 18   dxy \
	OrthoOrbital Ag 18   dyz \
	OrthoOrbital Ag 18   dz2 \
	OrthoOrbital Ag 18   dxz \
	OrthoOrbital Ag 18   dx2-y2 \
	OrthoOrbital Ag 19   s \
	OrthoOrbital Ag 19   p \
	OrthoOrbital Ag 19   px \
	OrthoOrbital Ag 19   py \
	OrthoOrbital Ag 19   pz \
	OrthoOrbital Ag 19   d \
	OrthoOrbital Ag 19   dxy \
	OrthoOrbital Ag 19   dyz \
	OrthoOrbital Ag 19   dz2 \
	OrthoOrbital Ag 19   dxz \
	OrthoOrbital Ag 19   dx2-y2 \
	OrthoOrbital Ag 20   s \
	OrthoOrbital Ag 20   p \
	OrthoOrbital Ag 20   px \
	OrthoOrbital Ag 20   py \
	OrthoOrbital Ag 20   pz \
	OrthoOrbital Ag 20   d \
	OrthoOrbital Ag 20   dxy \
	OrthoOrbital Ag 20   dyz \
	OrthoOrbital Ag 20   dz2 \
	OrthoOrbital Ag 20   dxz \
	OrthoOrbital Ag 20   dx2-y2 \
	OrthoOrbital Ag 21   s \
	OrthoOrbital Ag 21   p \
	OrthoOrbital Ag 21   px \
	OrthoOrbital Ag 21   py \
	OrthoOrbital Ag 21   pz \
	OrthoOrbital Ag 21   d \
	OrthoOrbital Ag 21   dxy \
	OrthoOrbital Ag 21   dyz \
	OrthoOrbital Ag 21   dz2 \
	OrthoOrbital Ag 21   dxz \
	OrthoOrbital Ag 21   dx2-y2 \
	OrthoOrbital Ag 22   s \
	OrthoOrbital Ag 22   p \
	OrthoOrbital Ag 22   px \
	OrthoOrbital Ag 22   py \
	OrthoOrbital Ag 22   pz \
	OrthoOrbital Ag 22   d \
	OrthoOrbital Ag 22   dxy \
	OrthoOrbital Ag 22   dyz \
	OrthoOrbital Ag 22   dz2 \
	OrthoOrbital Ag 22   dxz \
	OrthoOrbital Ag 22   dx2-y2 \
	OrthoOrbital Ag 23   s \
	OrthoOrbital Ag 23   p \
	OrthoOrbital Ag 23   px \
	OrthoOrbital Ag 23   py \
	OrthoOrbital Ag 23   pz \
	OrthoOrbital Ag 23   d \
	OrthoOrbital Ag 23   dxy \
	OrthoOrbital Ag 23   dyz \
	OrthoOrbital Ag 23   dz2 \
	OrthoOrbital Ag 23   dxz \
	OrthoOrbital Ag 23   dx2-y2 \
	OrthoOrbital Ag 24   s \
	OrthoOrbital Ag 24   p \
	OrthoOrbital Ag 24   px \
	OrthoOrbital Ag 24   py \
	OrthoOrbital Ag 24   pz \
	OrthoOrbital Ag 24   d \
	OrthoOrbital Ag 24   dxy \
	OrthoOrbital Ag 24   dyz \
	OrthoOrbital Ag 24   dz2 \
	OrthoOrbital Ag 24   dxz \
	OrthoOrbital Ag 24   dx2-y2 \
	OrthoOrbital Ag 25   s \
	OrthoOrbital Ag 25   p \
	OrthoOrbital Ag 25   px \
	OrthoOrbital Ag 25   py \
	OrthoOrbital Ag 25   pz \
	OrthoOrbital Ag 25   d \
	OrthoOrbital Ag 25   dxy \
	OrthoOrbital Ag 25   dyz \
	OrthoOrbital Ag 25   dz2 \
	OrthoOrbital Ag 25   dxz \
	OrthoOrbital Ag 25   dx2-y2 \
	OrthoOrbital Ag 26   s \
	OrthoOrbital Ag 26   p \
	OrthoOrbital Ag 26   px \
	OrthoOrbital Ag 26   py \
	OrthoOrbital Ag 26   pz \
	OrthoOrbital Ag 26   d \
	OrthoOrbital Ag 26   dxy \
	OrthoOrbital Ag 26   dyz \
	OrthoOrbital Ag 26   dz2 \
	OrthoOrbital Ag 26   dxz \
	OrthoOrbital Ag 26   dx2-y2 \
	OrthoOrbital Ag 27   s \
	OrthoOrbital Ag 27   p \
	OrthoOrbital Ag 27   px \
	OrthoOrbital Ag 27   py \
	OrthoOrbital Ag 27   pz \
	OrthoOrbital Ag 27   d \
	OrthoOrbital Ag 27   dxy \
	OrthoOrbital Ag 27   dyz \
	OrthoOrbital Ag 27   dz2 \
	OrthoOrbital Ag 27   dxz \
	OrthoOrbital Ag 27   dx2-y2 \
	OrthoOrbital Ag 28   s \
	OrthoOrbital Ag 28   p \
	OrthoOrbital Ag 28   px \
	OrthoOrbital Ag 28   py \
	OrthoOrbital Ag 28   pz \
	OrthoOrbital Ag 28   d \
	OrthoOrbital Ag 28   dxy \
	OrthoOrbital Ag 28   dyz \
	OrthoOrbital Ag 28   dz2 \
	OrthoOrbital Ag 28   dxz \
	OrthoOrbital Ag 28   dx2-y2 \
	OrthoOrbital Ag 29   s \
	OrthoOrbital Ag 29   p \
	OrthoOrbital Ag 29   px \
	OrthoOrbital Ag 29   py \
	OrthoOrbital Ag 29   pz \
	OrthoOrbital Ag 29   d \
	OrthoOrbital Ag 29   dxy \
	OrthoOrbital Ag 29   dyz \
	OrthoOrbital Ag 29   dz2 \
	OrthoOrbital Ag 29   dxz \
	OrthoOrbital Ag 29   dx2-y2 \
	OrthoOrbital Ag 30   s \
	OrthoOrbital Ag 30   p \
	OrthoOrbital Ag 30   px \
	OrthoOrbital Ag 30   py \
	OrthoOrbital Ag 30   pz \
	OrthoOrbital Ag 30   d \
	OrthoOrbital Ag 30   dxy \
	OrthoOrbital Ag 30   dyz \
	OrthoOrbital Ag 30   dz2 \
	OrthoOrbital Ag 30   dxz \
	OrthoOrbital Ag 30   dx2-y2 \
	OrthoOrbital Ag 31   s \
	OrthoOrbital Ag 31   p \
	OrthoOrbital Ag 31   px \
	OrthoOrbital Ag 31   py \
	OrthoOrbital Ag 31   pz \
	OrthoOrbital Ag 31   d \
	OrthoOrbital Ag 31   dxy \
	OrthoOrbital Ag 31   dyz \
	OrthoOrbital Ag 31   dz2 \
	OrthoOrbital Ag 31   dxz \
	OrthoOrbital Ag 31   dx2-y2 \
	OrthoOrbital Ag 32   s \
	OrthoOrbital Ag 32   p \
	OrthoOrbital Ag 32   px \
	OrthoOrbital Ag 32   py \
	OrthoOrbital Ag 32   pz \
	OrthoOrbital Ag 32   d \
	OrthoOrbital Ag 32   dxy \
	OrthoOrbital Ag 32   dyz \
	OrthoOrbital Ag 32   dz2 \
	OrthoOrbital Ag 32   dxz \
	OrthoOrbital Ag 32   dx2-y2 \
	OrthoOrbital Ag 33   s \
	OrthoOrbital Ag 33   p \
	OrthoOrbital Ag 33   px \
	OrthoOrbital Ag 33   py \
	OrthoOrbital Ag 33   pz \
	OrthoOrbital Ag 33   d \
	OrthoOrbital Ag 33   dxy \
	OrthoOrbital Ag 33   dyz \
	OrthoOrbital Ag 33   dz2 \
	OrthoOrbital Ag 33   dxz \
	OrthoOrbital Ag 33   dx2-y2 \
	OrthoOrbital Ag 34   s \
	OrthoOrbital Ag 34   p \
	OrthoOrbital Ag 34   px \
	OrthoOrbital Ag 34   py \
	OrthoOrbital Ag 34   pz \
	OrthoOrbital Ag 34   d \
	OrthoOrbital Ag 34   dxy \
	OrthoOrbital Ag 34   dyz \
	OrthoOrbital Ag 34   dz2 \
	OrthoOrbital Ag 34   dxz \
	OrthoOrbital Ag 34   dx2-y2 \
	OrthoOrbital Ag 35   s \
	OrthoOrbital Ag 35   p \
	OrthoOrbital Ag 35   px \
	OrthoOrbital Ag 35   py \
	OrthoOrbital Ag 35   pz \
	OrthoOrbital Ag 35   d \
	OrthoOrbital Ag 35   dxy \
	OrthoOrbital Ag 35   dyz \
	OrthoOrbital Ag 35   dz2 \
	OrthoOrbital Ag 35   dxz \
	OrthoOrbital Ag 35   dx2-y2 \
	OrthoOrbital Ag 36   s \
	OrthoOrbital Ag 36   p \
	OrthoOrbital Ag 36   px \
	OrthoOrbital Ag 36   py \
	OrthoOrbital Ag 36   pz \
	OrthoOrbital Ag 36   d \
	OrthoOrbital Ag 36   dxy \
	OrthoOrbital Ag 36   dyz \
	OrthoOrbital Ag 36   dz2 \
	OrthoOrbital Ag 36   dxz \
	OrthoOrbital Ag 36   dx2-y2 \
	OrthoOrbital Ag 37   s \
	OrthoOrbital Ag 37   p \
	OrthoOrbital Ag 37   px \
	OrthoOrbital Ag 37   py \
	OrthoOrbital Ag 37   pz \
	OrthoOrbital Ag 37   d \
	OrthoOrbital Ag 37   dxy \
	OrthoOrbital Ag 37   dyz \
	OrthoOrbital Ag 37   dz2 \
	OrthoOrbital Ag 37   dxz \
	OrthoOrbital Ag 37   dx2-y2 \
	OrthoOrbital Ag 38   s \
	OrthoOrbital Ag 38   p \
	OrthoOrbital Ag 38   px \
	OrthoOrbital Ag 38   py \
	OrthoOrbital Ag 38   pz \
	OrthoOrbital Ag 38   d \
	OrthoOrbital Ag 38   dxy \
	OrthoOrbital Ag 38   dyz \
	OrthoOrbital Ag 38   dz2 \
	OrthoOrbital Ag 38   dxz \
	OrthoOrbital Ag 38   dx2-y2 \
	OrthoOrbital Ag 39   s \
	OrthoOrbital Ag 39   p \
	OrthoOrbital Ag 39   px \
	OrthoOrbital Ag 39   py \
	OrthoOrbital Ag 39   pz \
	OrthoOrbital Ag 39   d \
	OrthoOrbital Ag 39   dxy \
	OrthoOrbital Ag 39   dyz \
	OrthoOrbital Ag 39   dz2 \
	OrthoOrbital Ag 39   dxz \
	OrthoOrbital Ag 39   dx2-y2 \
	OrthoOrbital Ag 40   s \
	OrthoOrbital Ag 40   p \
	OrthoOrbital Ag 40   px \
	OrthoOrbital Ag 40   py \
	OrthoOrbital Ag 40   pz \
	OrthoOrbital Ag 40   d \
	OrthoOrbital Ag 40   dxy \
	OrthoOrbital Ag 40   dyz \
	OrthoOrbital Ag 40   dz2 \
	OrthoOrbital Ag 40   dxz \
	OrthoOrbital Ag 40   dx2-y2 \
	OrthoOrbital Ag 41   s \
	OrthoOrbital Ag 41   p \
	OrthoOrbital Ag 41   px \
	OrthoOrbital Ag 41   py \
	OrthoOrbital Ag 41   pz \
	OrthoOrbital Ag 41   d \
	OrthoOrbital Ag 41   dxy \
	OrthoOrbital Ag 41   dyz \
	OrthoOrbital Ag 41   dz2 \
	OrthoOrbital Ag 41   dxz \
	OrthoOrbital Ag 41   dx2-y2 \
	OrthoOrbital Ag 42   s \
	OrthoOrbital Ag 42   p \
	OrthoOrbital Ag 42   px \
	OrthoOrbital Ag 42   py \
	OrthoOrbital Ag 42   pz \
	OrthoOrbital Ag 42   d \
	OrthoOrbital Ag 42   dxy \
	OrthoOrbital Ag 42   dyz \
	OrthoOrbital Ag 42   dz2 \
	OrthoOrbital Ag 42   dxz \
	OrthoOrbital Ag 42   dx2-y2 \
	OrthoOrbital Ag 43   s \
	OrthoOrbital Ag 43   p \
	OrthoOrbital Ag 43   px \
	OrthoOrbital Ag 43   py \
	OrthoOrbital Ag 43   pz \
	OrthoOrbital Ag 43   d \
	OrthoOrbital Ag 43   dxy \
	OrthoOrbital Ag 43   dyz \
	OrthoOrbital Ag 43   dz2 \
	OrthoOrbital Ag 43   dxz \
	OrthoOrbital Ag 43   dx2-y2 \
	OrthoOrbital Ag 44   s \
	OrthoOrbital Ag 44   p \
	OrthoOrbital Ag 44   px \
	OrthoOrbital Ag 44   py \
	OrthoOrbital Ag 44   pz \
	OrthoOrbital Ag 44   d \
	OrthoOrbital Ag 44   dxy \
	OrthoOrbital Ag 44   dyz \
	OrthoOrbital Ag 44   dz2 \
	OrthoOrbital Ag 44   dxz \
	OrthoOrbital Ag 44   dx2-y2 \
	OrthoOrbital Ag 45   s \
	OrthoOrbital Ag 45   p \
	OrthoOrbital Ag 45   px \
	OrthoOrbital Ag 45   py \
	OrthoOrbital Ag 45   pz \
	OrthoOrbital Ag 45   d \
	OrthoOrbital Ag 45   dxy \
	OrthoOrbital Ag 45   dyz \
	OrthoOrbital Ag 45   dz2 \
	OrthoOrbital Ag 45   dxz \
	OrthoOrbital Ag 45   dx2-y2 \
	OrthoOrbital Ag 46   s \
	OrthoOrbital Ag 46   p \
	OrthoOrbital Ag 46   px \
	OrthoOrbital Ag 46   py \
	OrthoOrbital Ag 46   pz \
	OrthoOrbital Ag 46   d \
	OrthoOrbital Ag 46   dxy \
	OrthoOrbital Ag 46   dyz \
	OrthoOrbital Ag 46   dz2 \
	OrthoOrbital Ag 46   dxz \
	OrthoOrbital Ag 46   dx2-y2 \
	OrthoOrbital Ag 47   s \
	OrthoOrbital Ag 47   p \
	OrthoOrbital Ag 47   px \
	OrthoOrbital Ag 47   py \
	OrthoOrbital Ag 47   pz \
	OrthoOrbital Ag 47   d \
	OrthoOrbital Ag 47   dxy \
	OrthoOrbital Ag 47   dyz \
	OrthoOrbital Ag 47   dz2 \
	OrthoOrbital Ag 47   dxz \
	OrthoOrbital Ag 47   dx2-y2 \
	OrthoOrbital Ag 48   s \
	OrthoOrbital Ag 48   p \
	OrthoOrbital Ag 48   px \
	OrthoOrbital Ag 48   py \
	OrthoOrbital Ag 48   pz \
	OrthoOrbital Ag 48   d \
	OrthoOrbital Ag 48   dxy \
	OrthoOrbital Ag 48   dyz \
	OrthoOrbital Ag 48   dz2 \
	OrthoOrbital Ag 48   dxz \
	OrthoOrbital Ag 48   dx2-y2 \
	OrthoOrbital C 1   s \
	OrthoOrbital C 1   p \
	OrthoOrbital C 1   px \
	OrthoOrbital C 1   py \
	OrthoOrbital C 1   pz \
	OrthoOrbital O 1   s \
	OrthoOrbital O 1   p \
	OrthoOrbital O 1   px \
	OrthoOrbital O 1   py \
	OrthoOrbital O 1   pz
dump End ElecDensity KEdensity BandEigs EigStats RhoAtom DOS Kpoints
dump Ionic State IonicPositions Lattice EigStats Ecomponents
dump 
dump 
dump 
dump 
dump 
dump 
dump 
dump 
dump-name jdft.$VAR
elec-cutoff 20
elec-eigen-algo Davidson
elec-ex-corr gga-PBE
elec-initial-magnetization 0.000000 no
elec-n-bands 554
elec-smearing Fermi 0.001
electronic-minimize  \
	dirUpdateScheme      FletcherReeves \
	linminMethod         DirUpdateRecommended \
	nIterations          100 \
	history              15 \
	knormThreshold       0 \
	energyDiffThreshold  1e-07 \
	nEnergyDiff          2 \
	alphaTstart          1 \
	alphaTmin            1e-10 \
	updateTestStepSize   yes \
	alphaTreduceFactor   0.1 \
	alphaTincreaseFactor 3 \
	nAlphaAdjustMax      3 \
	wolfeEnergy          0.0001 \
	wolfeGradient        0.9 \
	fdTest               no
exchange-regularization WignerSeitzTruncated
fluid LinearPCM 298.000000 1.013250
fluid-anion F- 0.5 MeanFieldLJ \
	epsBulk 1 \
	pMol 0 \
	epsInf 1 \
	Pvap 0 \
	sigmaBulk 0 \
	Rvdw 2.24877 \
	Res 0 \
	tauNuc 343133
fluid-cation Na+ 0.5 MeanFieldLJ \
	epsBulk 1 \
	pMol 0 \
	epsInf 1 \
	Pvap 0 \
	sigmaBulk 0 \
	Rvdw 2.19208 \
	Res 0 \
	tauNuc 343133
fluid-ex-corr lda-TF lda-PZ
fluid-gummel-loop 10 1.000000e-05
fluid-minimize  \
	dirUpdateScheme      PolakRibiere \
	linminMethod         DirUpdateRecommended \
	nIterations          400 \
	history              15 \
	knormThreshold       1e-11 \
	energyDiffThreshold  0 \
	nEnergyDiff          2 \
	alphaTstart          1 \
	alphaTmin            1e-10 \
	updateTestStepSize   yes \
	alphaTreduceFactor   0.1 \
	alphaTincreaseFactor 3 \
	nAlphaAdjustMax      6 \
	wolfeEnergy          0.0001 \
	wolfeGradient        0.9 \
	fdTest               no
fluid-solvent H2O 55.338 ScalarEOS \
	epsBulk 78.4 \
	pMol 0.92466 \
	epsInf 1.77 \
	Pvap 1.06736e-10 \
	sigmaBulk 4.62e-05 \
	Rvdw 2.61727 \
	Res 1.42 \
	tauNuc 343133 \
	poleEl 15 7 1
forces-output-coords Positions
ion Ag  10.839213999999998  26.417100999999992  17.976664000000000 0
ion Ag  10.839213999999998  13.139773999999996  17.976664000000000 0
ion Ag   5.418766999999999  26.417100999999992  17.976664000000000 0
ion Ag   5.418766999999999  13.139773999999996  17.976664000000000 0
ion Ag   0.000217000000000   4.519150999999998   2.204173000000000 0
ion Ag   0.000217000000000  17.796477999999997   2.204173000000000 0
ion Ag   5.420663999999999   4.519150999999998   2.204173000000000 0
ion Ag   5.420663999999999  17.796477999999997   2.204173000000000 0
ion Ag   0.000954000000000   8.973428999999996   5.467986999999999 0
ion Ag   0.000954000000000  22.250755999999992   5.467986999999999 0
ion Ag   5.421401000000000   8.973428999999996   5.467986999999999 0
ion Ag   5.421401000000000  22.250755999999992   5.467986999999999 0
ion Ag  10.840016000000000   0.022810000000000   8.601168999999999 0
ion Ag  10.840016000000000  13.300137999999997   8.601168999999999 0
ion Ag   5.419558000000000   0.022810000000000   8.601168999999999 0
ion Ag   5.419558000000000  13.300137999999997   8.601168999999999 0
ion Ag   0.000022000000000   4.389802999999999  11.760488999999998 0
ion Ag   0.000022000000000  17.667103999999991  11.760488999999998 0
ion Ag   5.420469000000000   4.389802999999999  11.760488999999998 0
ion Ag   5.420469000000000  17.667103999999991  11.760488999999998 0
ion Ag   5.421032000000000   8.708757999999998  15.042160000000001 0
ion Ag   5.421032000000000  21.986085999999997  15.042160000000001 0
ion Ag   0.000585000000000   8.708757999999998  15.042160000000001 0
ion Ag   0.000585000000000  21.986085999999997  15.042160000000001 0
ion Ag   2.709595000000000   0.146449000000000   3.735190999999999 0
ion Ag   2.709595000000000  13.423749999999995   3.735190999999999 0
ion Ag   8.130042000000000   0.146449000000000   3.735190999999999 0
ion Ag   8.130042000000000  13.423749999999995   3.735190999999999 0
ion Ag   2.710256000000000   4.461951999999999   7.016861999999999 0
ion Ag   2.710256000000000  17.739278999999996   7.016861999999999 0
ion Ag   8.130702999999999   4.461951999999999   7.016861999999999 0
ion Ag   8.130702999999999  17.739278999999996   7.016861999999999 0
ion Ag   2.711004000000000   8.825173999999997  10.174547999999998 0
ion Ag   2.711004000000000  22.102500999999997  10.174547999999998 0
ion Ag   8.131451000000000   8.825173999999997  10.174547999999998 0
ion Ag   8.131451000000000  22.102500999999997  10.174547999999998 0
ion Ag   2.709269000000000  26.433883999999992  13.312124999999996 0
ion Ag   2.709269000000000  13.156556999999996  13.312124999999996 0
ion Ag   8.129716000000000  26.433883999999992  13.312124999999996 0
ion Ag   8.129716000000000  13.156556999999996  13.312124999999996 0
ion Ag   2.710104000000000   4.330638999999999  16.571093999999999 0
ion Ag   2.710104000000000  17.607966999999991  16.571093999999999 0
ion Ag   8.130540000000000   4.330638999999999  16.571093999999999 0
ion Ag   8.130540000000000  17.607966999999991  16.571093999999999 0
ion Ag   2.711904000000000   8.989520999999996   0.799449000000000 0
ion Ag   2.711904000000000  22.266847999999992   0.799449000000000 0
ion Ag   8.132351000000000   8.989520999999996   0.799449000000000 0
ion Ag   8.132351000000000  22.266847999999992   0.799449000000000 0
ion C   5.419807000000000   7.267025999999998  18.002518999999999 1  Linear 0 0 1
ion O   5.479898000000000   7.267025999999998  20.157852999999996 1  Linear 0 0 1
ion-species /projects/musgravc/apps/jdftx-1.6.0/build/pseudopotentials/GBRV_v1.5/$ID_pbe_v1.uspp
ion-species /projects/musgravc/apps/jdftx-1.6.0/build/pseudopotentials/GBRV_v1.5/$ID_pbe_v1.2.uspp
ion-species /projects/musgravc/apps/jdftx-1.6.0/build/pseudopotentials/GBRV_v1.5/$ID_pbe_v1.4.uspp
ion-species /projects/musgravc/apps/jdftx-1.6.0/build/pseudopotentials/GBRV_v1.5/$ID_pbe_v1.5.uspp
ion-width Ecut
ionic-minimize  \
	dirUpdateScheme      L-BFGS \
	linminMethod         DirUpdateRecommended \
	nIterations          100 \
	history              15 \
	knormThreshold       0.0001 \
	energyDiffThreshold  1e-06 \
	nEnergyDiff          2 \
	alphaTstart          1 \
	alphaTmin            1e-10 \
	updateTestStepSize   yes \
	alphaTreduceFactor   0.1 \
	alphaTincreaseFactor 3 \
	nAlphaAdjustMax      3 \
	wolfeEnergy          0.0001 \
	wolfeGradient        0.9 \
	fdTest               no
kpoint   0.000000000000   0.000000000000   0.000000000000  1.00000000000000
kpoint-folding 6 2 1 
latt-move-scale 0 0 0
latt-scale 1 1 1 
lattice  \
	  10.840894000000000    0.000000000000000    0.000000000000000  \
	   0.000000000000000   26.554655000000000    0.000000000000000  \
	   0.000000000000000    0.000000000000000   56.330927000000003 
lattice-minimize  \
	dirUpdateScheme      L-BFGS \
	linminMethod         DirUpdateRecommended \
	nIterations          0 \
	history              15 \
	knormThreshold       0 \
	energyDiffThreshold  1e-06 \
	nEnergyDiff          2 \
	alphaTstart          1 \
	alphaTmin            1e-10 \
	updateTestStepSize   yes \
	alphaTreduceFactor   0.1 \
	alphaTincreaseFactor 3 \
	nAlphaAdjustMax      3 \
	wolfeEnergy          0.0001 \
	wolfeGradient        0.9 \
	fdTest               no
lcao-params 30 1e-06 0.001
pcm-variant CANDLE
spintype z-spin
subspace-rotation-factor 1 yes
symmetries automatic
symmetry-threshold 0.0001
van-der-waals D3



---------- Setting up symmetries ----------

Found 8 point-group symmetries of the bravais lattice
Found 1 space-group symmetries with basis
Applied RMS atom displacement 0 bohrs to make symmetries exact.

---------- Initializing the Grid ----------
R = 
[      10.8409            0            0  ]
[            0      26.5547            0  ]
[            0            0      56.3309  ]
unit cell volume = 16216.3
G =
[   0.579582          0          0  ]
[          0   0.236613          0  ]
[          0          0   0.111541  ]
Minimum fftbox size, Smin = [  44  108  228  ]
Chosen fftbox size, S = [  48  108  240  ]

---------- Exchange Correlation functional ----------
Initalized PBE GGA exchange.
Initalized PBE GGA correlation.

---------- Setting up pseudopotentials ----------
Width of ionic core gaussian charges (only for fluid interactions / plotting) set to 0.397384

Reading pseudopotential file '/projects/musgravc/apps/jdftx-1.6.0/build/pseudopotentials/GBRV_v1.5/ag_pbe_v1.4.uspp':
  Title: Ag.  Created by USPP 7.3.6 on 1-4-15
  Reference state energy: -147.606242.  19 valence electrons in orbitals:
    |400>  occupation: 2  eigenvalue: -3.637437
    |410>  occupation: 6  eigenvalue: -2.297267
    |420>  occupation: 10  eigenvalue: -0.417763
    |500>  occupation: 0.5  eigenvalue: -0.283525
    |510>  occupation: 0  eigenvalue: -0.122889
  lMax: 2  lLocal: 0  QijEcut: 5.5
  6 projectors sampled on a log grid with 717 points:
    l: 0  eig: -0.283528  rCut: 1.5
    l: 0  eig: -3.637440  rCut: 1.5
    l: 1  eig: -0.122892  rCut: 1.5
    l: 1  eig: -2.297267  rCut: 1.5
    l: 2  eig: -0.417762  rCut: 1.7
    l: 2  eig: -1.000000  rCut: 1.7
  Partial core density with radius 1.2
  Transforming core density to a uniform radial grid of dG=0.02 with 1163 points.
  Transforming local potential to a uniform radial grid of dG=0.02 with 1163 points.
  Transforming nonlocal projectors to a uniform radial grid of dG=0.02 with 432 points.
  Transforming density augmentations to a uniform radial grid of dG=0.02 with 1163 points.
  Transforming atomic orbitals to a uniform radial grid of dG=0.02 with 432 points.
  Core radius for overlap checks: 1.70 bohrs.

Reading pseudopotential file '/projects/musgravc/apps/jdftx-1.6.0/build/pseudopotentials/GBRV_v1.5/c_pbe_v1.2.uspp':
  Title: C.  Created by USPP 7.3.6 on 3-2-2014
  Reference state energy: -5.406344.  4 valence electrons in orbitals:
    |200>  occupation: 2  eigenvalue: -0.504890
    |210>  occupation: 2  eigenvalue: -0.194356
  lMax: 1  lLocal: 2  QijEcut: 5
  4 projectors sampled on a log grid with 503 points:
    l: 0  eig: -0.504890  rCut: 1.3
    l: 0  eig: 0.000000  rCut: 1.3
    l: 1  eig: -0.194357  rCut: 1.3
    l: 1  eig: 0.000000  rCut: 1.3
  Partial core density with radius 1.1
  Transforming core density to a uniform radial grid of dG=0.02 with 1163 points.
  Transforming local potential to a uniform radial grid of dG=0.02 with 1163 points.
  Transforming nonlocal projectors to a uniform radial grid of dG=0.02 with 432 points.
  Transforming density augmentations to a uniform radial grid of dG=0.02 with 1163 points.
  Transforming atomic orbitals to a uniform radial grid of dG=0.02 with 432 points.
  Core radius for overlap checks: 1.30 bohrs.

Reading pseudopotential file '/projects/musgravc/apps/jdftx-1.6.0/build/pseudopotentials/GBRV_v1.5/o_pbe_v1.2.uspp':
  Title: O.  Created by USPP 7.3.6 on 3-2-2014
  Reference state energy: -15.894388.  6 valence electrons in orbitals:
    |200>  occupation: 2  eigenvalue: -0.878823
    |210>  occupation: 4  eigenvalue: -0.332131
  lMax: 2  lLocal: 2  QijEcut: 6
  5 projectors sampled on a log grid with 511 points:
    l: 0  eig: -0.878823  rCut: 1.25
    l: 0  eig: 0.000000  rCut: 1.25
    l: 1  eig: -0.332132  rCut: 1.25
    l: 1  eig: 0.000000  rCut: 1.25
    l: 2  eig: 1.000000  rCut: 1.25
  Partial core density with radius 0.7
  Transforming core density to a uniform radial grid of dG=0.02 with 1163 points.
  Transforming local potential to a uniform radial grid of dG=0.02 with 1163 points.
  Transforming nonlocal projectors to a uniform radial grid of dG=0.02 with 432 points.
  Transforming density augmentations to a uniform radial grid of dG=0.02 with 1163 points.
  Transforming atomic orbitals to a uniform radial grid of dG=0.02 with 432 points.
  Core radius for overlap checks: 1.25 bohrs.

Initialized 3 species with 50 total atoms.

Folded 1 k-points by 6x2x1 to 12 k-points.

---------- Setting up k-points, bands, fillings ----------
Adding inversion symmetry to k-mesh for non-inversion-symmetric unit cell.
Reduced to 8 k-points under symmetry. 
Computing the number of bands and number of electrons
Calculating initial fillings.
nElectrons: 922.000000   nBands: 554   nStates: 16

----- Setting up reduced wavefunction bases (one per k-point) -----
average nbasis = 69288.417 , ideal nbasis = 69277.411

----- Initializing Supercell corresponding to k-point mesh -----
Lattice vector linear combinations in supercell:
[   6   0   0  ]
[   0   2   0  ]
[   0   0   1  ]
Supercell lattice vectors:
[  65.0454  0  0  ]
[  0  53.1093  0  ]
[  0  0  56.3309  ]

Initializing DFT-D3 calculator:
	Parameters set for gga-PBE functional
	s6:  1.000  s_r6:  1.217
	s8:  0.722  s_r8:  1.000
	Per-atom parameters loaded for:
	Ag:  sqrtQ[a0]:  5.443  Rcov[a0]:  2.173  CN: [ 0.00 0.97 ]
	 C:  sqrtQ[a0]:  3.105  Rcov[a0]:  1.417  CN: [ 0.00 0.99 2.00 3.00 3.98 ]
	 O:  sqrtQ[a0]:  2.594  Rcov[a0]:  1.191  CN: [ 0.00 0.99 1.99 ]

Initializing DFT-D2 calculator for fluid / solvation:
	Ag:  C6:  427.91 Eh-a0^6  R0: 3.097 a0
	 C:  C6:   30.35 Eh-a0^6  R0: 2.744 a0
	 O:  C6:   12.14 Eh-a0^6  R0: 2.536 a0

---------- Setting up ewald sum ----------
Optimum gaussian width for ewald sums = 5.260972 bohr.
Real space sum over 455 unit cells with max indices [  6  3  2  ]
Reciprocal space sum over 7733 terms with max indices [  5  9  18  ]

Computing DFT-D3 correction:
# coordination-number Ag 5.464 5.467 5.467 5.523 6.738 6.738 6.738 6.738 8.993 8.993 8.993 8.993 8.975 8.975 8.975 8.975 8.935 8.934 8.942 8.934 8.573 7.497 7.539 7.497 7.499 7.499 7.499 7.499 8.932 8.932 8.932 8.932 8.981 8.979 8.981 8.979 8.997 8.998 8.997 8.998 7.691 6.742 7.700 6.742 5.455 5.455 5.455 5.455
# coordination-number C 3.888
# coordination-number O 1.231
# diagonal-C6 Ag 268.61 268.61 268.61 268.61 268.61 268.61 268.61 268.61 268.61 268.61 268.61 268.61 268.61 268.61 268.61 268.61 268.61 268.61 268.61 268.61 268.61 268.61 268.61 268.61 268.61 268.61 268.61 268.61 268.61 268.61 268.61 268.61 268.61 268.61 268.61 268.61 268.61 268.61 268.61 268.61 268.61 268.61 268.61 268.61 268.61 268.61 268.61 268.61
# diagonal-C6 C 18.49
# diagonal-C6 O 12.53
EvdW_6 =   -0.277368
EvdW_8 =   -0.387190

---------- Allocating electronic variables ----------
Initializing wave functions:  linear combination of atomic orbitals
Ag pseudo-atom occupations:   s ( 2 1 )  p ( 6 0 )  d ( 10 )
C pseudo-atom occupations:   s ( 2 )  p ( 2 )
O pseudo-atom occupations:   s ( 2 )  p ( 4 )
	FillingsUpdate:  mu: -0.029461938  nElectrons: 922.000000  magneticMoment: [ Abs: 0.00298  Tot: -0.00001 ]
LCAOMinimize: Iter:   0  F: -7105.2707682830887279  |grad|_K:  1.578e-03  alpha:  1.000e+00
	FillingsUpdate:  mu: +0.178597858  nElectrons: 922.000000  magneticMoment: [ Abs: 0.00259  Tot: +0.00008 ]
LCAOMinimize: Iter:   1  F: -7105.8381223059395779  |grad|_K:  1.521e-03  alpha:  1.321e-01  linmin:  4.500e-02  cgtest: -4.878e-01  t[s]:    307.03
	FillingsUpdate:  mu: +0.217059472  nElectrons: 922.000000  magneticMoment: [ Abs: 0.00239  Tot: +0.00007 ]
LCAOMinimize: Iter:   2  F: -7105.9902343866542651  |grad|_K:  1.104e-03  alpha:  4.644e-02  linmin:  8.583e-03  cgtest:  7.494e-01  t[s]:    418.57
LCAOMinimize: Encountered beta<0, resetting CG.
	FillingsUpdate:  mu: +0.087197717  nElectrons: 922.000000  magneticMoment: [ Abs: 0.00240  Tot: +0.00001 ]
LCAOMinimize: Iter:   3  F: -7106.3308714576141938  |grad|_K:  5.833e-04  alpha:  9.614e-02  linmin:  3.916e-02  cgtest: -2.403e-01  t[s]:    531.05
	FillingsUpdate:  mu: +0.077962305  nElectrons: 922.000000  magneticMoment: [ Abs: 0.00237  Tot: -0.00001 ]
LCAOMinimize: Iter:   4  F: -7106.3678824057451493  |grad|_K:  3.510e-04  alpha:  4.386e-02  linmin: -1.943e-03  cgtest:  4.978e-01  t[s]:    642.86
	FillingsUpdate:  mu: +0.112768569  nElectrons: 922.000000  magneticMoment: [ Abs: 0.00226  Tot: -0.00001 ]
LCAOMinimize: Iter:   5  F: -7106.4181066148794343  |grad|_K:  2.344e-04  alpha:  1.237e-01  linmin: -1.173e-02  cgtest:  5.190e-02  t[s]:    754.38
	FillingsUpdate:  mu: +0.116397856  nElectrons: 922.000000  magneticMoment: [ Abs: 0.00220  Tot: -0.00000 ]
LCAOMinimize: Iter:   6  F: -7106.4375994409019768  |grad|_K:  2.653e-04  alpha:  1.057e-01  linmin: -2.729e-04  cgtest: -7.490e-02  t[s]:    865.74
	FillingsUpdate:  mu: +0.105925552  nElectrons: 922.000000  magneticMoment: [ Abs: 0.00211  Tot: -0.00001 ]
LCAOMinimize: Iter:   7  F: -7106.4660527780351913  |grad|_K:  8.540e-05  alpha:  1.255e-01  linmin: -1.453e-03  cgtest:  3.102e-01  t[s]:    977.45
	FillingsUpdate:  mu: +0.108923704  nElectrons: 922.000000  magneticMoment: [ Abs: 0.00210  Tot: +0.00000 ]
LCAOMinimize: Iter:   8  F: -7106.4675169988686321  |grad|_K:  4.612e-05  alpha:  6.354e-02  linmin:  1.670e-03  cgtest: -1.277e-02  t[s]:   1089.14
	FillingsUpdate:  mu: +0.110292142  nElectrons: 922.000000  magneticMoment: [ Abs: 0.00210  Tot: +0.00001 ]
LCAOMinimize: Iter:   9  F: -7106.4679572055101744  |grad|_K:  2.051e-05  alpha:  6.501e-02  linmin: -4.401e-04  cgtest:  1.078e-02  t[s]:   1201.75
	FillingsUpdate:  mu: +0.109476340  nElectrons: 922.000000  magneticMoment: [ Abs: 0.00211  Tot: +0.00002 ]
LCAOMinimize: Iter:  10  F: -7106.4682071070010352  |grad|_K:  1.097e-05  alpha:  1.846e-01  linmin: -1.117e-03  cgtest: -9.248e-03  t[s]:   1313.72
	FillingsUpdate:  mu: +0.108904928  nElectrons: 922.000000  magneticMoment: [ Abs: 0.00211  Tot: +0.00002 ]
LCAOMinimize: Iter:  11  F: -7106.4682950571796027  |grad|_K:  9.798e-06  alpha:  2.270e-01  linmin: -5.639e-05  cgtest: -5.290e-03  t[s]:   1424.79
	FillingsUpdate:  mu: +0.109099626  nElectrons: 922.000000  magneticMoment: [ Abs: 0.00211  Tot: +0.00002 ]
LCAOMinimize: Iter:  12  F: -7106.4683178861687338  |grad|_K:  6.942e-06  alpha:  7.417e-02  linmin:  3.346e-05  cgtest: -5.518e-04  t[s]:   1537.72
	FillingsUpdate:  mu: +0.109457804  nElectrons: 922.000000  magneticMoment: [ Abs: 0.00212  Tot: +0.00002 ]
LCAOMinimize: Iter:  13  F: -7106.4683311103281085  |grad|_K:  2.928e-06  alpha:  8.563e-02  linmin: -2.157e-04  cgtest:  3.251e-03  t[s]:   1649.10
	FillingsUpdate:  mu: +0.109386537  nElectrons: 922.000000  magneticMoment: [ Abs: 0.00212  Tot: +0.00002 ]
LCAOMinimize: Iter:  14  F: -7106.4683380970709550  |grad|_K:  1.395e-06  alpha:  2.540e-01  linmin:  1.531e-04  cgtest: -4.725e-03  t[s]:   1760.94
	FillingsUpdate:  mu: +0.109384049  nElectrons: 922.000000  magneticMoment: [ Abs: 0.00212  Tot: +0.00002 ]
LCAOMinimize: Iter:  15  F: -7106.4683388470775753  |grad|_K:  1.407e-06  alpha:  1.204e-01  linmin: -4.668e-05  cgtest:  1.436e-03  t[s]:   1872.28
	FillingsUpdate:  mu: +0.109395306  nElectrons: 922.000000  magneticMoment: [ Abs: 0.00212  Tot: +0.00002 ]
LCAOMinimize: Iter:  16  F: -7106.4683393841160068  |grad|_K:  9.813e-07  alpha:  8.451e-02  linmin: -1.882e-05  cgtest: -1.595e-03  t[s]:   1983.99
LCAOMinimize: Converged (|Delta F|<1.000000e-06 for 2 iters).
----- createFluidSolver() ----- (Fluid-side solver setup)
   Initializing fluid molecule 'H2O'
     Initializing site 'O'
       Electron density: proportional to exp(-r/0.36935)*erfc((r-0.51523)/0.36823) with norm 6.826
       Charge density: gaussian nuclear width 0.478731 with net site charge 0.826
       Polarizability: cuspless exponential with width 0.32 and norm 3.73
       Hard sphere radius: 2.57003 bohrs
       Positions in reference frame:
         [ +0.000000 +0.000000 +0.000000 ]
     Initializing site 'H'
       Electron density: proportional to exp(-r/0.34641)*erfc((r-0)/0.390882) with norm 0.587
       Charge density: gaussian nuclear width 0.377945 with net site charge -0.413
       Polarizability: cuspless exponential with width 0.39 and norm 3.3
       Positions in reference frame:
         [ +0.000000 -1.441945 +1.122523 ]
         [ +0.000000 +1.441945 +1.122523 ]
     Net charge: 0   dipole magnitude: 0.927204
     Initializing spherical shell mfKernel with radius 2.61727 Bohr
     deltaS corrections:
       site 'O': -7.54299
       site 'H': -6.83917
   Initializing fluid molecule 'Na+'
     Initializing site 'Na'
       Electron density: proportional to exp(-r/0.19682)*erfc((r-0.71491)/0.41314) with norm 8.1383
       Charge density: gaussian nuclear width 0.365347 with net site charge -1
       Hard sphere radius: 1.86327 bohrs
       Positions in reference frame:
         [ +0.000000 +0.000000 +0.000000 ]
     Net charge: -1   dipole magnitude: 0
     Initializing gaussian mfKernel with width: 1.55004 Bohr
     deltaS corrections:
       site 'Na': -22.3555
   Initializing fluid molecule 'F-'
     Initializing site 'F'
       Electron density: proportional to exp(-r/0.38886)*erfc((r-0)/0.438782) with norm 8
       Charge density: gaussian nuclear width 0.374796 with net site charge 1
       Hard sphere radius: 2.39995 bohrs
       Positions in reference frame:
         [ +0.000000 +0.000000 +0.000000 ]
     Net charge: 1   dipole magnitude: 0
     Initializing gaussian mfKernel with width: 1.59012 Bohr
     deltaS corrections:
       site 'F': -9.04335

Correction to mu due to finite nuclear width = -0.0564128
   Cavity determined by nc: 0.00142 and sigma: 0.707107
   Nonlocal vdW cavity from gaussian model electron density with norm = 8 and sigma = 0.993594 bohr
   Charge asymmetry in cavity with sensitivity pCavity = 36.5 e-bohr/Eh
   Electrostatic cavity expanded by eta = 1.46 bohrs
   Weighted density cavitation model constrained by Nbulk: 0.0049383 bohr^-3, Pvap: 3.14029 kPa, Rvdw: 2.61727 bohr and sigmaBulk: 4.62e-05 Eh/bohr^2 at T: 298 K.
   Weighted density dispersion model using vdW pair potentials with single solvent site with sqrtC6eff: 0.77 SI.


---- Citations for features of the code used in this run ----

   Software package:
      R. Sundararaman, K. Letchworth-Weaver, K.A. Schwarz, D. Gunceler, Y. Ozhabes and T.A. Arias, 'JDFTx: software for joint density-functional theory', SoftwareX 6, 278 (2017)

   gga-PBE exchange-correlation functional:
      J.P. Perdew, K. Burke and M. Ernzerhof, Phys. Rev. Lett. 77, 3865 (1996)

   Pseudopotentials:
      KF Garrity, JW Bennett, KM Rabe and D Vanderbilt, Comput. Mater. Sci. 81, 446 (2014)

   DFT-D3 dispersion correction:
      S. Grimme, J. Antony, S. Ehrlich and H. Krieg, J. Chem. Phys. 132, 154104 (2010)

   DFT-D2 dispersion correction:
      S. Grimme, J. Comput. Chem. 27, 1787 (2006)

   Charge-asymmetric nonlocally-determined local-electric (CANDLE) solvation model:
      R. Sundararaman and W.A. Goddard III, J. Chem. Phys. 142, 064107 (2015)

   Total energy minimization with Auxiliary Hamiltonian:
      C. Freysoldt, S. Boeck, and J. Neugebauer, Phys. Rev. B 79, 241103(R) (2009)

   Linear-tetrahedron sampling for density of states:
      G. Lehmann and M. Taut, Phys. status solidi (b) 54, 469 (1972)

This list may not be complete. Please suggest additional citations or
report any other bugs at https://github.com/shankar1729/jdftx/issues

Initialization completed successfully at t[s]:   2026.20


Computing DFT-D3 correction:
# coordination-number Ag 5.464 5.467 5.467 5.523 6.738 6.738 6.738 6.738 8.993 8.993 8.993 8.993 8.975 8.975 8.975 8.975 8.935 8.934 8.942 8.934 8.573 7.497 7.539 7.497 7.499 7.499 7.499 7.499 8.932 8.932 8.932 8.932 8.981 8.979 8.981 8.979 8.997 8.998 8.997 8.998 7.691 6.742 7.700 6.742 5.455 5.455 5.455 5.455
# coordination-number C 3.888
# coordination-number O 1.231
# diagonal-C6 Ag 268.61 268.61 268.61 268.61 268.61 268.61 268.61 268.61 268.61 268.61 268.61 268.61 268.61 268.61 268.61 268.61 268.61 268.61 268.61 268.61 268.61 268.61 268.61 268.61 268.61 268.61 268.61 268.61 268.61 268.61 268.61 268.61 268.61 268.61 268.61 268.61 268.61 268.61 268.61 268.61 268.61 268.61 268.61 268.61 268.61 268.61 268.61 268.61
# diagonal-C6 C 18.49
# diagonal-C6 O 12.53
EvdW_6 =   -0.277368
EvdW_8 =   -0.387190
Fluid solver invoked on fresh (random / LCAO) wavefunctions
Running a vacuum solve first:

-------- Initial electronic minimization -----------
	FillingsUpdate:  mu: +0.109395307  nElectrons: 922.000000  magneticMoment: [ Abs: 0.00212  Tot: +0.00002 ]
ElecMinimize: Iter:   0  F: -7106.468339384102364  |grad|_K:  3.535e-05  alpha:  1.000e+00
	FillingsUpdate:  mu: +0.120570654  nElectrons: 922.000000  magneticMoment: [ Abs: 0.00165  Tot: +0.00002 ]
	SubspaceRotationAdjust: set factor to 1
ElecMinimize: Iter:   1  F: -7106.797230249408130  |grad|_K:  2.185e-05  alpha:  4.321e-01  linmin:  1.048e-04  t[s]:   2376.17
	FillingsUpdate:  mu: +0.111183605  nElectrons: 922.000000  magneticMoment: [ Abs: 0.00132  Tot: +0.00004 ]
	SubspaceRotationAdjust: set factor to 0.766
ElecMinimize: Iter:   2  F: -7106.874275846478668  |grad|_K:  1.771e-05  alpha:  2.672e-01  linmin:  3.540e-06  t[s]:   2604.21
	FillingsUpdate:  mu: +0.113015559  nElectrons: 922.000000  magneticMoment: [ Abs: 0.00123  Tot: +0.00004 ]
	SubspaceRotationAdjust: set factor to 0.457
ElecMinimize: Iter:   3  F: -7106.886257691496212  |grad|_K:  1.254e-05  alpha:  6.319e-02  linmin:  9.238e-05  t[s]:   2833.27
ElecMinimize: 	Predicted alpha/alphaT>3.000000, increasing alphaT to 1.895678e-01.
	FillingsUpdate:  mu: +0.120421650  nElectrons: 922.000000  magneticMoment: [ Abs: 0.00094  Tot: +0.00004 ]
	SubspaceRotationAdjust: set factor to 0.422
ElecMinimize: Iter:   4  F: -7106.907703341389606  |grad|_K:  7.889e-06  alpha:  2.246e-01  linmin: -1.967e-05  t[s]:   3120.67
	FillingsUpdate:  mu: +0.117804404  nElectrons: 922.000000  magneticMoment: [ Abs: 0.00080  Tot: +0.00004 ]
	SubspaceRotationAdjust: set factor to 0.362
ElecMinimize: Iter:   5  F: -7106.914322350137809  |grad|_K:  6.705e-06  alpha:  1.718e-01  linmin:  5.921e-06  t[s]:   3349.61
	FillingsUpdate:  mu: +0.114628306  nElectrons: 922.000000  magneticMoment: [ Abs: 0.00066  Tot: +0.00003 ]
	SubspaceRotationAdjust: set factor to 0.336
ElecMinimize: Iter:   6  F: -7106.919214173889486  |grad|_K:  4.094e-06  alpha:  1.766e-01  linmin:  3.093e-05  t[s]:   3578.52
	FillingsUpdate:  mu: +0.115761508  nElectrons: 922.000000  magneticMoment: [ Abs: 0.00053  Tot: +0.00003 ]
	SubspaceRotationAdjust: set factor to 0.317
ElecMinimize: Iter:   7  F: -7106.922065895934793  |grad|_K:  3.637e-06  alpha:  2.771e-01  linmin:  7.966e-06  t[s]:   3807.19
	FillingsUpdate:  mu: +0.117621489  nElectrons: 922.000000  magneticMoment: [ Abs: 0.00045  Tot: +0.00002 ]
	SubspaceRotationAdjust: set factor to 0.252
ElecMinimize: Iter:   8  F: -7106.923518074210733  |grad|_K:  2.504e-06  alpha:  1.784e-01  linmin: -7.198e-08  t[s]:   4036.39
	FillingsUpdate:  mu: +0.119022115  nElectrons: 922.000000  magneticMoment: [ Abs: 0.00037  Tot: +0.00002 ]
	SubspaceRotationAdjust: set factor to 0.35
ElecMinimize: Iter:   9  F: -7106.924597294450905  |grad|_K:  1.844e-06  alpha:  2.793e-01  linmin:  9.240e-06  t[s]:   4264.62
	FillingsUpdate:  mu: +0.118556259  nElectrons: 922.000000  magneticMoment: [ Abs: 0.00033  Tot: +0.00001 ]
	SubspaceRotationAdjust: set factor to 0.283
ElecMinimize: Iter:  10  F: -7106.925099631301237  |grad|_K:  1.530e-06  alpha:  2.397e-01  linmin:  5.884e-06  t[s]:   4493.30
	FillingsUpdate:  mu: +0.117918931  nElectrons: 922.000000  magneticMoment: [ Abs: 0.00028  Tot: +0.00001 ]
	SubspaceRotationAdjust: set factor to 0.31
ElecMinimize: Iter:  11  F: -7106.925470077252612  |grad|_K:  1.041e-06  alpha:  2.570e-01  linmin:  8.634e-06  t[s]:   4722.52
	FillingsUpdate:  mu: +0.118613366  nElectrons: 922.000000  magneticMoment: [ Abs: 0.00024  Tot: +0.00001 ]
	SubspaceRotationAdjust: set factor to 0.334
ElecMinimize: Iter:  12  F: -7106.925705267671219  |grad|_K:  8.101e-07  alpha:  3.529e-01  linmin:  5.847e-06  t[s]:   4951.94
	FillingsUpdate:  mu: +0.118989156  nElectrons: 922.000000  magneticMoment: [ Abs: 0.00021  Tot: +0.00000 ]
	SubspaceRotationAdjust: set factor to 0.275
ElecMinimize: Iter:  13  F: -7106.925799604463464  |grad|_K:  6.840e-07  alpha:  2.333e-01  linmin: -1.940e-07  t[s]:   5180.78
	FillingsUpdate:  mu: +0.119033058  nElectrons: 922.000000  magneticMoment: [ Abs: 0.00017  Tot: +0.00000 ]
	SubspaceRotationAdjust: set factor to 0.277
ElecMinimize: Iter:  14  F: -7106.925881009862678  |grad|_K:  4.479e-07  alpha:  2.823e-01  linmin:  4.342e-06  t[s]:   5410.01
	FillingsUpdate:  mu: +0.118847550  nElectrons: 922.000000  magneticMoment: [ Abs: 0.00014  Tot: +0.00000 ]
	SubspaceRotationAdjust: set factor to 0.314
ElecMinimize: Iter:  15  F: -7106.925924053186463  |grad|_K:  3.711e-07  alpha:  3.490e-01  linmin:  3.467e-06  t[s]:   5640.08
	FillingsUpdate:  mu: +0.118900704  nElectrons: 922.000000  magneticMoment: [ Abs: 0.00011  Tot: -0.00000 ]
	SubspaceRotationAdjust: set factor to 0.262
ElecMinimize: Iter:  16  F: -7106.925947133120644  |grad|_K:  2.908e-07  alpha:  2.722e-01  linmin:  5.315e-07  t[s]:   5869.74
	FillingsUpdate:  mu: +0.119070733  nElectrons: 922.000000  magneticMoment: [ Abs: 0.00009  Tot: -0.00000 ]
	SubspaceRotationAdjust: set factor to 0.245
ElecMinimize: Iter:  17  F: -7106.925961127172741  |grad|_K:  2.120e-07  alpha:  2.685e-01  linmin:  3.982e-07  t[s]:   6098.31
	FillingsUpdate:  mu: +0.119108177  nElectrons: 922.000000  magneticMoment: [ Abs: 0.00007  Tot: -0.00000 ]
	SubspaceRotationAdjust: set factor to 0.292
ElecMinimize: Iter:  18  F: -7106.925970796819456  |grad|_K:  1.480e-07  alpha:  3.491e-01  linmin:  1.385e-06  t[s]:   6327.34
	FillingsUpdate:  mu: +0.119045703  nElectrons: 922.000000  magneticMoment: [ Abs: 0.00006  Tot: -0.00000 ]
	SubspaceRotationAdjust: set factor to 0.262
ElecMinimize: Iter:  19  F: -7106.925975075518181  |grad|_K:  1.245e-07  alpha:  3.171e-01  linmin:  6.110e-07  t[s]:   6557.27
	FillingsUpdate:  mu: +0.119022764  nElectrons: 922.000000  magneticMoment: [ Abs: 0.00005  Tot: -0.00000 ]
	SubspaceRotationAdjust: set factor to 0.227
ElecMinimize: Iter:  20  F: -7106.925977566342226  |grad|_K:  8.483e-08  alpha:  2.607e-01  linmin:  5.292e-08  t[s]:   6786.44
	FillingsUpdate:  mu: +0.119053993  nElectrons: 922.000000  magneticMoment: [ Abs: 0.00004  Tot: -0.00000 ]
	SubspaceRotationAdjust: set factor to 0.262
ElecMinimize: Iter:  21  F: -7106.925979129366169  |grad|_K:  6.318e-08  alpha:  3.527e-01  linmin:  6.004e-07  t[s]:   7015.38
	FillingsUpdate:  mu: +0.119069179  nElectrons: 922.000000  magneticMoment: [ Abs: 0.00003  Tot: -0.00000 ]
	SubspaceRotationAdjust: set factor to 0.271
ElecMinimize: Iter:  22  F: -7106.925979940460820  |grad|_K:  4.916e-08  alpha:  3.299e-01  linmin:  8.799e-08  t[s]:   7245.24
	FillingsUpdate:  mu: +0.119058501  nElectrons: 922.000000  magneticMoment: [ Abs: 0.00002  Tot: -0.00000 ]
	SubspaceRotationAdjust: set factor to 0.248
ElecMinimize: Iter:  23  F: -7106.925980410655029  |grad|_K:  3.901e-08  alpha:  3.158e-01  linmin:  6.065e-07  t[s]:   7473.89
	FillingsUpdate:  mu: +0.119044397  nElectrons: 922.000000  magneticMoment: [ Abs: 0.00002  Tot: +0.00000 ]
	SubspaceRotationAdjust: set factor to 0.261
ElecMinimize: Iter:  24  F: -7106.925980696611987  |grad|_K:  2.874e-08  alpha:  3.056e-01  linmin:  3.796e-07  t[s]:   7701.92
	FillingsUpdate:  mu: +0.119048679  nElectrons: 922.000000  magneticMoment: [ Abs: 0.00002  Tot: +0.00000 ]
	SubspaceRotationAdjust: set factor to 0.308
ElecMinimize: Iter:  25  F: -7106.925980888987397  |grad|_K:  2.165e-08  alpha:  3.798e-01  linmin:  8.582e-07  t[s]:   7930.43
	FillingsUpdate:  mu: +0.119056902  nElectrons: 922.000000  magneticMoment: [ Abs: 0.00001  Tot: +0.00000 ]
	SubspaceRotationAdjust: set factor to 0.3
ElecMinimize: Iter:  26  F: -7106.925980984618036  |grad|_K:  1.936e-08  alpha:  3.348e-01  linmin:  5.823e-07  t[s]:   8159.63
	FillingsUpdate:  mu: +0.119053870  nElectrons: 922.000000  magneticMoment: [ Abs: 0.00001  Tot: +0.00000 ]
	SubspaceRotationAdjust: set factor to 0.263
ElecMinimize: Iter:  27  F: -7106.925981049140319  |grad|_K:  1.469e-08  alpha:  2.838e-01  linmin:  1.971e-06  t[s]:   8388.63
ElecMinimize: Converged (|Delta F|<1.000000e-07 for 2 iters).
Setting wave functions to eigenvectors of Hamiltonian
Converging empty states (this may take a while): |deigs|: 1.087e-02
Vacuum energy after initial minimize, F = -7106.925981049140319


-------- Electronic minimization -----------
	Linear fluid (dielectric constant: 78.4, screening length: 8.12261 Bohr) occupying 0.509606 of unit cell:	Completed after 25 iterations at t[s]:   9687.70
	FillingsUpdate:  mu: -0.150291795  nElectrons: 922.000000  magneticMoment: [ Abs: 0.00000  Tot: +0.00000 ]
ElecMinimize: Iter:   0  F: -7106.928842382440052  |grad|_K:  9.109e-07  alpha:  1.000e+00
	Linear fluid (dielectric constant: 78.4, screening length: 8.12261 Bohr) occupying 0.510746 of unit cell:	Completed after 18 iterations at t[s]:   9881.18
	Linear fluid (dielectric constant: 78.4, screening length: 8.12261 Bohr) occupying 0.510593 of unit cell:	Completed after 12 iterations at t[s]:   9946.59
	FillingsUpdate:  mu: -0.144978892  nElectrons: 922.000000  magneticMoment: [ Abs: 0.00000  Tot: +0.00000 ]
	SubspaceRotationAdjust: set factor to 0.28
ElecMinimize: Iter:   1  F: -7106.929283061094793  |grad|_K:  9.548e-07  alpha:  8.632e-01  linmin: -5.056e-07  t[s]:  10033.28
	Linear fluid (dielectric constant: 78.4, screening length: 8.12261 Bohr) occupying 0.511916 of unit cell:	Completed after 14 iterations at t[s]:  10125.16
	Linear fluid (dielectric constant: 78.4, screening length: 8.12261 Bohr) occupying 0.511409 of unit cell:	Completed after 11 iterations at t[s]:  10190.63
	FillingsUpdate:  mu: -0.146328880  nElectrons: 922.000000  magneticMoment: [ Abs: 0.00000  Tot: +0.00000 ]
	SubspaceRotationAdjust: set factor to 0.293
ElecMinimize: Iter:   2  F: -7106.929578768855208  |grad|_K:  6.497e-07  alpha:  5.240e-01  linmin:  1.290e-08  t[s]:  10277.22
	Linear fluid (dielectric constant: 78.4, screening length: 8.12261 Bohr) occupying 0.511891 of unit cell:	Completed after 12 iterations at t[s]:  10368.40
	Linear fluid (dielectric constant: 78.4, screening length: 8.12261 Bohr) occupying 0.511842 of unit cell:	Completed after 2 iterations at t[s]:  10431.66
	FillingsUpdate:  mu: -0.145622043  nElectrons: 922.000000  magneticMoment: [ Abs: 0.00000  Tot: +0.00000 ]
	SubspaceRotationAdjust: set factor to 0.342
ElecMinimize: Iter:   3  F: -7106.929700856181626  |grad|_K:  4.723e-07  alpha:  4.694e-01  linmin: -3.895e-08  t[s]:  10517.87
	Linear fluid (dielectric constant: 78.4, screening length: 8.12261 Bohr) occupying 0.512097 of unit cell:	Completed after 9 iterations at t[s]:  10607.71
	Linear fluid (dielectric constant: 78.4, screening length: 8.12261 Bohr) occupying 0.512055 of unit cell:	Completed after 3 iterations at t[s]:  10670.13
	FillingsUpdate:  mu: -0.145276538  nElectrons: 922.000000  magneticMoment: [ Abs: 0.00000  Tot: -0.00000 ]
	SubspaceRotationAdjust: set factor to 0.403
ElecMinimize: Iter:   4  F: -7106.929754675612458  |grad|_K:  3.269e-07  alpha:  3.908e-01  linmin:  1.135e-07  t[s]:  10757.51
	Linear fluid (dielectric constant: 78.4, screening length: 8.12261 Bohr) occupying 0.512159 of unit cell:	Completed after 5 iterations at t[s]:  10846.71
	Linear fluid (dielectric constant: 78.4, screening length: 8.12261 Bohr) occupying 0.512179 of unit cell:	Completed after 3 iterations at t[s]:  10909.00
	FillingsUpdate:  mu: -0.145489761  nElectrons: 922.000000  magneticMoment: [ Abs: 0.00000  Tot: -0.00000 ]
	SubspaceRotationAdjust: set factor to 0.471
ElecMinimize: Iter:   5  F: -7106.929785555917988  |grad|_K:  2.066e-07  alpha:  4.697e-01  linmin: -1.401e-08  t[s]:  10995.50
	Linear fluid (dielectric constant: 78.4, screening length: 8.12261 Bohr) occupying 0.512236 of unit cell:	Completed after 7 iterations at t[s]:  11084.76
	Linear fluid (dielectric constant: 78.4, screening length: 8.12261 Bohr) occupying 0.512238 of unit cell:	Completed after 0 iterations at t[s]:  11145.69
	FillingsUpdate:  mu: -0.145298408  nElectrons: 922.000000  magneticMoment: [ Abs: 0.00000  Tot: -0.00000 ]
	SubspaceRotationAdjust: set factor to 0.529
ElecMinimize: Iter:   6  F: -7106.929798397658487  |grad|_K:  1.432e-07  alpha:  4.880e-01  linmin: -1.508e-07  t[s]:  11232.14
	Linear fluid (dielectric constant: 78.4, screening length: 8.12261 Bohr) occupying 0.512258 of unit cell:	Completed after 7 iterations at t[s]:  11321.75
	Linear fluid (dielectric constant: 78.4, screening length: 8.12261 Bohr) occupying 0.512255 of unit cell:	Completed after 2 iterations at t[s]:  11384.07
	FillingsUpdate:  mu: -0.145397510  nElectrons: 922.000000  magneticMoment: [ Abs: 0.00000  Tot: -0.00000 ]
	SubspaceRotationAdjust: set factor to 0.532
ElecMinimize: Iter:   7  F: -7106.929803580704174  |grad|_K:  9.737e-08  alpha:  4.090e-01  linmin:  2.095e-07  t[s]:  11471.01
	Linear fluid (dielectric constant: 78.4, screening length: 8.12261 Bohr) occupying 0.512260 of unit cell:	Completed after 6 iterations at t[s]:  11560.25
	Linear fluid (dielectric constant: 78.4, screening length: 8.12261 Bohr) occupying 0.512259 of unit cell:	Completed after 2 iterations at t[s]:  11622.18
	FillingsUpdate:  mu: -0.145334977  nElectrons: 922.000000  magneticMoment: [ Abs: 0.00000  Tot: -0.00000 ]
	SubspaceRotationAdjust: set factor to 0.438
ElecMinimize: Iter:   8  F: -7106.929805573875456  |grad|_K:  6.968e-08  alpha:  3.435e-01  linmin:  3.449e-07  t[s]:  11709.19
	Linear fluid (dielectric constant: 78.4, screening length: 8.12261 Bohr) occupying 0.512255 of unit cell:	Completed after 6 iterations at t[s]:  11798.45
	Linear fluid (dielectric constant: 78.4, screening length: 8.12261 Bohr) occupying 0.512256 of unit cell:	Completed after 0 iterations at t[s]:  11859.62
	FillingsUpdate:  mu: -0.145393693  nElectrons: 922.000000  magneticMoment: [ Abs: 0.00000  Tot: -0.00000 ]
	SubspaceRotationAdjust: set factor to 0.316
ElecMinimize: Iter:   9  F: -7106.929806452702906  |grad|_K:  4.355e-08  alpha:  2.947e-01  linmin:  3.907e-06  t[s]:  11946.77
	Linear fluid (dielectric constant: 78.4, screening length: 8.12261 Bohr) occupying 0.512252 of unit cell:	Completed after 2 iterations at t[s]:  12034.61
	Linear fluid (dielectric constant: 78.4, screening length: 8.12261 Bohr) occupying 0.512251 of unit cell:	Completed after 0 iterations at t[s]:  12095.49
	FillingsUpdate:  mu: -0.145376538  nElectrons: 922.000000  magneticMoment: [ Abs: 0.00000  Tot: -0.00000 ]
	SubspaceRotationAdjust: set factor to 0.298
ElecMinimize: Iter:  10  F: -7106.929806823096442  |grad|_K:  2.486e-08  alpha:  3.223e-01  linmin: -3.102e-05  t[s]:  12182.22
	Linear fluid (dielectric constant: 78.4, screening length: 8.12261 Bohr) occupying 0.512247 of unit cell:	Completed after 0 iterations at t[s]:  12270.20
	Linear fluid (dielectric constant: 78.4, screening length: 8.12261 Bohr) occupying 0.512246 of unit cell:	Completed after 2 iterations at t[s]:  12332.63
	FillingsUpdate:  mu: -0.145376472  nElectrons: 922.000000  magneticMoment: [ Abs: 0.00000  Tot: -0.00000 ]
	SubspaceRotationAdjust: set factor to 0.321
ElecMinimize: Iter:  11  F: -7106.929806972675578  |grad|_K:  2.057e-08  alpha:  4.057e-01  linmin:  4.566e-05  t[s]:  12419.24
	Linear fluid (dielectric constant: 78.4, screening length: 8.12261 Bohr) occupying 0.512240 of unit cell:	Completed after 0 iterations at t[s]:  12506.47
	Linear fluid (dielectric constant: 78.4, screening length: 8.12261 Bohr) occupying 0.512241 of unit cell:	Completed after 0 iterations at t[s]:  12568.07
	FillingsUpdate:  mu: -0.145376427  nElectrons: 922.000000  magneticMoment: [ Abs: 0.00000  Tot: -0.00000 ]
	SubspaceRotationAdjust: set factor to 0.372
ElecMinimize: Iter:  12  F: -7106.929807054795674  |grad|_K:  1.427e-08  alpha:  3.497e-01  linmin:  1.300e-06  t[s]:  12654.77
	Linear fluid (dielectric constant: 78.4, screening length: 8.12261 Bohr) occupying 0.512237 of unit cell:	Completed after 2 iterations at t[s]:  12742.89
	Linear fluid (dielectric constant: 78.4, screening length: 8.12261 Bohr) occupying 0.512239 of unit cell:	Completed after 0 iterations at t[s]:  12803.96
	FillingsUpdate:  mu: -0.145401413  nElectrons: 922.000000  magneticMoment: [ Abs: 0.00000  Tot: -0.00000 ]
	SubspaceRotationAdjust: set factor to 0.341
ElecMinimize: Iter:  13  F: -7106.929807063046610  |grad|_K:  1.723e-08  alpha:  1.559e-01  linmin:  1.121e-05  t[s]:  12890.56
ElecMinimize: Converged (|Delta F|<1.000000e-07 for 2 iters).
Setting wave functions to eigenvectors of Hamiltonian
Converging empty states (this may take a while): |deigs|: 1.105e-04
Single-point solvation energy estimate, DeltaF = -0.003826013906291

Computing DFT-D3 correction:
# coordination-number Ag 5.464 5.467 5.467 5.523 6.738 6.738 6.738 6.738 8.993 8.993 8.993 8.993 8.975 8.975 8.975 8.975 8.935 8.934 8.942 8.934 8.573 7.497 7.539 7.497 7.499 7.499 7.499 7.499 8.932 8.932 8.932 8.932 8.981 8.979 8.981 8.979 8.997 8.998 8.997 8.998 7.691 6.742 7.700 6.742 5.455 5.455 5.455 5.455
# coordination-number C 3.888
# coordination-number O 1.231
# diagonal-C6 Ag 268.61 268.61 268.61 268.61 268.61 268.61 268.61 268.61 268.61 268.61 268.61 268.61 268.61 268.61 268.61 268.61 268.61 268.61 268.61 268.61 268.61 268.61 268.61 268.61 268.61 268.61 268.61 268.61 268.61 268.61 268.61 268.61 268.61 268.61 268.61 268.61 268.61 268.61 268.61 268.61 268.61 268.61 268.61 268.61 268.61 268.61 268.61 268.61
# diagonal-C6 C 18.49
# diagonal-C6 O 12.53
EvdW_6 =   -0.277368
EvdW_8 =   -0.387190

# Ionic positions in cartesian coordinates:
ion Ag  10.839213999999998  26.417100999999992  17.976664000000000 0
ion Ag  10.839213999999998  13.139773999999996  17.976664000000000 0
ion Ag   5.418766999999999  26.417100999999992  17.976664000000000 0
ion Ag   5.418766999999999  13.139773999999996  17.976664000000000 0
ion Ag   0.000217000000000   4.519150999999998   2.204173000000000 0
ion Ag   0.000217000000000  17.796477999999997   2.204173000000000 0
ion Ag   5.420663999999999   4.519150999999998   2.204173000000000 0
ion Ag   5.420663999999999  17.796477999999997   2.204173000000000 0
ion Ag   0.000954000000000   8.973428999999996   5.467986999999999 0
ion Ag   0.000954000000000  22.250755999999992   5.467986999999999 0
ion Ag   5.421401000000000   8.973428999999996   5.467986999999999 0
ion Ag   5.421401000000000  22.250755999999992   5.467986999999999 0
ion Ag  10.840016000000000   0.022810000000000   8.601168999999999 0
ion Ag  10.840016000000000  13.300137999999997   8.601168999999999 0
ion Ag   5.419558000000000   0.022810000000000   8.601168999999999 0
ion Ag   5.419558000000000  13.300137999999997   8.601168999999999 0
ion Ag   0.000022000000000   4.389802999999999  11.760488999999998 0
ion Ag   0.000022000000000  17.667103999999991  11.760488999999998 0
ion Ag   5.420469000000000   4.389802999999999  11.760488999999998 0
ion Ag   5.420469000000000  17.667103999999991  11.760488999999998 0
ion Ag   5.421032000000000   8.708757999999998  15.042160000000001 0
ion Ag   5.421032000000000  21.986085999999997  15.042160000000001 0
ion Ag   0.000585000000000   8.708757999999998  15.042160000000001 0
ion Ag   0.000585000000000  21.986085999999997  15.042160000000001 0
ion Ag   2.709595000000000   0.146449000000000   3.735190999999999 0
ion Ag   2.709595000000000  13.423749999999995   3.735190999999999 0
ion Ag   8.130042000000000   0.146449000000000   3.735190999999999 0
ion Ag   8.130042000000000  13.423749999999995   3.735190999999999 0
ion Ag   2.710256000000000   4.461951999999999   7.016861999999999 0
ion Ag   2.710256000000000  17.739278999999996   7.016861999999999 0
ion Ag   8.130702999999999   4.461951999999999   7.016861999999999 0
ion Ag   8.130702999999999  17.739278999999996   7.016861999999999 0
ion Ag   2.711004000000000   8.825173999999997  10.174547999999998 0
ion Ag   2.711004000000000  22.102500999999997  10.174547999999998 0
ion Ag   8.131451000000000   8.825173999999997  10.174547999999998 0
ion Ag   8.131451000000000  22.102500999999997  10.174547999999998 0
ion Ag   2.709269000000000  26.433883999999992  13.312124999999996 0
ion Ag   2.709269000000000  13.156556999999996  13.312124999999996 0
ion Ag   8.129716000000000  26.433883999999992  13.312124999999996 0
ion Ag   8.129716000000000  13.156556999999996  13.312124999999996 0
ion Ag   2.710104000000000   4.330638999999999  16.571093999999999 0
ion Ag   2.710104000000000  17.607966999999991  16.571093999999999 0
ion Ag   8.130540000000000   4.330638999999999  16.571093999999999 0
ion Ag   8.130540000000000  17.607966999999991  16.571093999999999 0
ion Ag   2.711904000000000   8.989520999999996   0.799449000000000 0
ion Ag   2.711904000000000  22.266847999999992   0.799449000000000 0
ion Ag   8.132351000000000   8.989520999999996   0.799449000000000 0
ion Ag   8.132351000000000  22.266847999999992   0.799449000000000 0
ion C   5.419807000000000   7.267025999999998  18.002518999999999 1  Linear 0 0 1
ion O   5.479898000000000   7.267025999999998  20.157852999999996 1  Linear 0 0 1

# Forces in Cartesian coordinates:
force Ag   0.000005210153412   0.001060520453074  -0.001016105294104 0
force Ag   0.000012117903683   0.001610919219593  -0.000257529473681 0
force Ag   0.000011788870748  -0.001827996153901  -0.000000143662116 0
force Ag  -0.000000260134905   0.004850753946417  -0.001251916036493 0
force Ag   0.000013463985595   0.000149175991123  -0.000355545418257 0
force Ag  -0.000000095771509   0.000186462029285   0.000689880680922 0
force Ag  -0.000021137016754   0.000210766784074   0.000385710116578 0
force Ag  -0.000001976351313  -0.000112596920922  -0.000058375333951 0
force Ag   0.000005417887352  -0.000239631061873   0.000270603729278 0
force Ag   0.000008581155976   0.000026852977514  -0.000980873521039 0
force Ag  -0.000027411934880   0.000037425594250  -0.001443110428166 0
force Ag  -0.000008791877505  -0.000384153753329  -0.000345791959290 0
force Ag  -0.000011400550405   0.000413996360420  -0.000058573561790 0
force Ag  -0.000004053338586   0.000867697686633  -0.000449722238082 0
force Ag   0.000032800527683  -0.000476676931581  -0.000136634687595 0
force Ag   0.000009339171442  -0.000005395608017   0.000095941898896 0
force Ag  -0.000020501590670   0.000218971506208   0.000240776440147 0
force Ag  -0.000005040146210  -0.001023221985160   0.000318192143163 0
force Ag   0.000022433990244  -0.002144522171509  -0.006099224831788 0
force Ag  -0.000001533008799   0.000105155224411  -0.000165819331087 0
force Ag  -0.000063351156697   0.067962736912331  -0.127206021760235 0
force Ag   0.000014109165268  -0.000398535395296  -0.000515592957332 0
force Ag  -0.000132350924890   0.002828174637418  -0.003814123386082 0
force Ag  -0.000004942885135  -0.000288115928496  -0.000218132694332 0
force Ag   0.000104968303022  -0.000308889397911  -0.000208923262124 0
force Ag   0.000290018823339  -0.000121599141975   0.000091238567259 0
force Ag  -0.000118189955834  -0.000353218221975  -0.000200585180146 0
force Ag  -0.000291680092674  -0.000111056028629   0.000080034490828 0
force Ag  -0.000339536182408   0.000336164747414  -0.000006886855327 0
force Ag  -0.000285633892925  -0.000377485402930   0.000331744213219 0
force Ag   0.000317766293267   0.000328532176665  -0.000021126378546 0
force Ag   0.000290578832459  -0.000391811696635   0.000331213108874 0
force Ag   0.001158726992424   0.000042541482263   0.000730017614461 0
force Ag   0.000382264717854  -0.000035466101605   0.000682592029263 0
force Ag  -0.001216835221752   0.000024545509528   0.000791438182165 0
force Ag  -0.000384681049238  -0.000006484071936   0.000687873429433 0
force Ag   0.000003383683824   0.000504916608787   0.000752270623644 0
force Ag  -0.000370350147087   0.000388578747752  -0.000473160651271 0
force Ag  -0.000012751316861   0.000463163665665   0.000724356926127 0
force Ag   0.000363819202863   0.000375078446224  -0.000442247535641 0
force Ag  -0.013377216396727  -0.013154187812547  -0.006176620763215 0
force Ag  -0.000285245819246  -0.000632166289032  -0.000311581730951 0
force Ag   0.013750057456041  -0.013761692813796  -0.006894314157246 0
force Ag   0.000284784638590  -0.000640051192175  -0.000307080006898 0
force Ag   0.001036230759763   0.000081274745954   0.000612859421690 0
force Ag  -0.000201486976107   0.000343302152172   0.000431362500718 0
force Ag  -0.001071239186327   0.000069995129627   0.000585186817038 0
force Ag   0.000186158017534   0.000337209788949   0.000424732039138 0
force C  -0.001903800995638  -0.054491643538717   0.050650873640262 1  Linear 0 0 1
force O   0.001661387461286   0.007567089923049   0.100383793102293 1  Linear 0 0 1

# Energy components:
   A_diel =       -0.0051143378367993
   Eewald =    32901.0225973243141198
       EH =    39319.2584017318149563
     Eloc =   -80448.8377112907910487
      Enl =      192.4742704775423476
     EvdW =       -0.6645578714005720
      Exc =     -700.8990936858841678
 Exc_core =       10.0909321958934282
       KE =     1620.6318342533118084
-------------------------------------
     Etot =    -7106.9284412030428939
       TS =        0.0013658600036255
-------------------------------------
        F =    -7106.9298070630466100


Dumping 'jdft.fillings' ... done
Dumping 'jdft.wfns' ... done
Dumping 'jdft.fluidState' ... done
Dumping 'jdft.ionpos' ... done
Dumping 'jdft.lattice' ... done
Dumping 'jdft.eigenvals' ... done
Dumping 'jdft.eigStats' ... 
	eMin: -3.585736 at state 0 ( [ +0.000000 +0.000000 +0.000000 ] spin 1 )
	HOMO: -0.146007 at state 1 ( [ +0.000000 +0.500000 +0.000000 ] spin 1 )
	mu  : -0.145401
	LUMO: -0.145073 at state 1 ( [ +0.000000 +0.500000 +0.000000 ] spin 1 )
	eMax: +0.148733 at state 0 ( [ +0.000000 +0.000000 +0.000000 ] spin 1 )
	HOMO-LUMO gap: +0.000934
	Optical gap  : +0.000934 at state 1 ( [ +0.000000 +0.500000 +0.000000 ] spin 1 )
Dumping 'jdft.Ecomponents' ... done
IonicMinimize: Iter:   0  F: -7106.929807063046610  |grad|_K:  7.951e-02  t[s]:  14006.47

#--- Lowdin population analysis ---
# oxidation-state Ag +0.084 +0.093 +0.096 +0.074 +0.019 +0.012 +0.007 +0.014 -0.037 -0.038 -0.039 -0.037 -0.005 -0.004 +0.002 +0.003 -0.014 -0.008 -0.002 -0.003 -0.062 -0.022 -0.019 -0.026 -0.027 -0.025 -0.027 -0.025 -0.004 -0.004 -0.004 -0.004 -0.016 -0.001 -0.016 -0.001 -0.042 -0.044 -0.042 -0.044 -0.008 +0.009 -0.007 +0.009 +0.097 +0.096 +0.098 +0.096
# magnetic-moments Ag -0.000 +0.000 -0.000 +0.000 -0.000 -0.000 +0.000 -0.000 +0.000 +0.000 +0.000 +0.000 +0.000 +0.000 +0.000 +0.000 +0.000 +0.000 +0.000 +0.000 +0.000 -0.000 +0.000 -0.000 +0.000 -0.000 +0.000 +0.000 -0.000 +0.000 +0.000 +0.000 +0.000 +0.000 +0.000 +0.000 +0.000 +0.000 +0.000 +0.000 -0.000 -0.000 -0.000 -0.000 +0.000 -0.000 -0.000 -0.000
# oxidation-state C +0.335
# magnetic-moments C -0.000
# oxidation-state O -0.114
# magnetic-moments O +0.000


Computing DFT-D3 correction:
# coordination-number Ag 5.464 5.467 5.467 5.522 6.738 6.738 6.738 6.738 8.993 8.993 8.993 8.993 8.975 8.975 8.975 8.975 8.935 8.934 8.941 8.934 8.557 7.497 7.537 7.497 7.499 7.499 7.499 7.499 8.932 8.932 8.932 8.932 8.980 8.979 8.980 8.979 8.997 8.998 8.997 8.998 7.674 6.742 7.682 6.742 5.455 5.455 5.455 5.455
# coordination-number C 3.870
# coordination-number O 1.195
# diagonal-C6 Ag 268.61 268.61 268.61 268.61 268.61 268.61 268.61 268.61 268.61 268.61 268.61 268.61 268.61 268.61 268.61 268.61 268.61 268.61 268.61 268.61 268.61 268.61 268.61 268.61 268.61 268.61 268.61 268.61 268.61 268.61 268.61 268.61 268.61 268.61 268.61 268.61 268.61 268.61 268.61 268.61 268.61 268.61 268.61 268.61 268.61 268.61 268.61 268.61
# diagonal-C6 C 18.53
# diagonal-C6 O 12.60
EvdW_6 =   -0.277336
EvdW_8 =   -0.387231

-------- Electronic minimization -----------
	Linear fluid (dielectric constant: 78.4, screening length: 8.12261 Bohr) occupying 0.512202 of unit cell:	Completed after 21 iterations at t[s]:  14099.76
	FillingsUpdate:  mu: -0.134613645  nElectrons: 922.000000  magneticMoment: [ Abs: 0.00000  Tot: -0.00000 ]
ElecMinimize: Iter:   0  F: -7106.861577046940511  |grad|_K:  1.741e-05  alpha:  1.000e+00
	Linear fluid (dielectric constant: 78.4, screening length: 8.12261 Bohr) occupying 0.511393 of unit cell:	Completed after 25 iterations at t[s]:  14294.99
	Linear fluid (dielectric constant: 78.4, screening length: 8.12261 Bohr) occupying 0.511878 of unit cell:	Completed after 25 iterations at t[s]:  14365.87
	FillingsUpdate:  mu: -0.147505411  nElectrons: 922.000000  magneticMoment: [ Abs: 0.00000  Tot: +0.00000 ]
	SubspaceRotationAdjust: set factor to 0.292
ElecMinimize: Iter:   1  F: -7106.930510907751341  |grad|_K:  5.919e-06  alpha:  3.700e-01  linmin:  2.964e-04  t[s]:  14453.04
	Linear fluid (dielectric constant: 78.4, screening length: 8.12261 Bohr) occupying 0.511896 of unit cell:	Completed after 20 iterations at t[s]:  14547.36
	Linear fluid (dielectric constant: 78.4, screening length: 8.12261 Bohr) occupying 0.511887 of unit cell:	Completed after 13 iterations at t[s]:  14613.67
	FillingsUpdate:  mu: -0.144820824  nElectrons: 922.000000  magneticMoment: [ Abs: 0.00000  Tot: +0.00000 ]
	SubspaceRotationAdjust: set factor to 0.265
ElecMinimize: Iter:   2  F: -7106.936980445129848  |grad|_K:  2.726e-06  alpha:  3.012e-01  linmin: -3.438e-05  t[s]:  14701.06
	Linear fluid (dielectric constant: 78.4, screening length: 8.12261 Bohr) occupying 0.511873 of unit cell:	Completed after 16 iterations at t[s]:  14794.03
	Linear fluid (dielectric constant: 78.4, screening length: 8.12261 Bohr) occupying 0.511870 of unit cell:	Completed after 13 iterations at t[s]:  14859.89
	FillingsUpdate:  mu: -0.146172249  nElectrons: 922.000000  magneticMoment: [ Abs: 0.00000  Tot: +0.00000 ]
	SubspaceRotationAdjust: set factor to 0.291
ElecMinimize: Iter:   3  F: -7106.939149979425565  |grad|_K:  1.717e-06  alpha:  4.733e-01  linmin:  4.122e-05  t[s]:  14947.21
	Linear fluid (dielectric constant: 78.4, screening length: 8.12261 Bohr) occupying 0.511876 of unit cell:	Completed after 13 iterations at t[s]:  15039.55
	Linear fluid (dielectric constant: 78.4, screening length: 8.12261 Bohr) occupying 0.511874 of unit cell:	Completed after 7 iterations at t[s]:  15103.71
	FillingsUpdate:  mu: -0.146485571  nElectrons: 922.000000  magneticMoment: [ Abs: 0.00000  Tot: +0.00000 ]
	SubspaceRotationAdjust: set factor to 0.337
ElecMinimize: Iter:   4  F: -7106.939826672884919  |grad|_K:  1.118e-06  alpha:  3.728e-01  linmin:  5.947e-06  t[s]:  15190.20
	Linear fluid (dielectric constant: 78.4, screening length: 8.12261 Bohr) occupying 0.511884 of unit cell:	Completed after 10 iterations at t[s]:  15281.45
	Linear fluid (dielectric constant: 78.4, screening length: 8.12261 Bohr) occupying 0.511884 of unit cell:	Completed after 2 iterations at t[s]:  15343.89
	FillingsUpdate:  mu: -0.146273535  nElectrons: 922.000000  magneticMoment: [ Abs: 0.00000  Tot: +0.00000 ]
	SubspaceRotationAdjust: set factor to 0.42
ElecMinimize: Iter:   5  F: -7106.940129621363667  |grad|_K:  7.316e-07  alpha:  3.935e-01  linmin:  2.162e-06  t[s]:  15430.62
	Linear fluid (dielectric constant: 78.4, screening length: 8.12261 Bohr) occupying 0.511903 of unit cell:	Completed after 8 iterations at t[s]:  15521.04
	Linear fluid (dielectric constant: 78.4, screening length: 8.12261 Bohr) occupying 0.511910 of unit cell:	Completed after 5 iterations at t[s]:  15585.18
	FillingsUpdate:  mu: -0.146101550  nElectrons: 922.000000  magneticMoment: [ Abs: 0.00000  Tot: +0.00000 ]
	SubspaceRotationAdjust: set factor to 0.542
ElecMinimize: Iter:   6  F: -7106.940313801418597  |grad|_K:  5.084e-07  alpha:  5.587e-01  linmin:  1.486e-05  t[s]:  15671.93
	Linear fluid (dielectric constant: 78.4, screening length: 8.12261 Bohr) occupying 0.511949 of unit cell:	Completed after 10 iterations at t[s]:  15762.46
	Linear fluid (dielectric constant: 78.4, screening length: 8.12261 Bohr) occupying 0.511946 of unit cell:	Completed after 2 iterations at t[s]:  15824.96
	FillingsUpdate:  mu: -0.145865280  nElectrons: 922.000000  magneticMoment: [ Abs: 0.00000  Tot: +0.00000 ]
	SubspaceRotationAdjust: set factor to 0.65
ElecMinimize: Iter:   7  F: -7106.940396674527619  |grad|_K:  4.184e-07  alpha:  5.211e-01  linmin:  2.857e-06  t[s]:  15911.98
	Linear fluid (dielectric constant: 78.4, screening length: 8.12261 Bohr) occupying 0.511976 of unit cell:	Completed after 8 iterations at t[s]:  16002.00
	Linear fluid (dielectric constant: 78.4, screening length: 8.12261 Bohr) occupying 0.511967 of unit cell:	Completed after 4 iterations at t[s]:  16065.05
	FillingsUpdate:  mu: -0.145930702  nElectrons: 922.000000  magneticMoment: [ Abs: 0.00000  Tot: +0.00000 ]
	SubspaceRotationAdjust: set factor to 0.686
ElecMinimize: Iter:   8  F: -7106.940435295662610  |grad|_K:  2.755e-07  alpha:  3.579e-01  linmin:  2.087e-06  t[s]:  16151.97
	Linear fluid (dielectric constant: 78.4, screening length: 8.12261 Bohr) occupying 0.511987 of unit cell:	Completed after 7 iterations at t[s]:  16242.50
	Linear fluid (dielectric constant: 78.4, screening length: 8.12261 Bohr) occupying 0.511984 of unit cell:	Completed after 3 iterations at t[s]:  16305.57
	FillingsUpdate:  mu: -0.145874223  nElectrons: 922.000000  magneticMoment: [ Abs: 0.00000  Tot: +0.00000 ]
	SubspaceRotationAdjust: set factor to 0.568
ElecMinimize: Iter:   9  F: -7106.940449005697701  |grad|_K:  1.939e-07  alpha:  2.938e-01  linmin: -1.490e-05  t[s]:  16392.29
	Linear fluid (dielectric constant: 78.4, screening length: 8.12261 Bohr) occupying 0.511993 of unit cell:	Completed after 6 iterations at t[s]:  16483.26
	Linear fluid (dielectric constant: 78.4, screening length: 8.12261 Bohr) occupying 0.511993 of unit cell:	Completed after 0 iterations at t[s]:  16545.05
	FillingsUpdate:  mu: -0.145887347  nElectrons: 922.000000  magneticMoment: [ Abs: 0.00000  Tot: +0.00000 ]
	SubspaceRotationAdjust: set factor to 0.4
ElecMinimize: Iter:  10  F: -7106.940455846897748  |grad|_K:  1.278e-07  alpha:  2.944e-01  linmin: -2.934e-05  t[s]:  16631.93
	Linear fluid (dielectric constant: 78.4, screening length: 8.12261 Bohr) occupying 0.511998 of unit cell:	Completed after 3 iterations at t[s]:  16721.22
	Linear fluid (dielectric constant: 78.4, screening length: 8.12261 Bohr) occupying 0.511998 of unit cell:	Completed after 0 iterations at t[s]:  16783.08
	FillingsUpdate:  mu: -0.145901526  nElectrons: 922.000000  magneticMoment: [ Abs: 0.00000  Tot: +0.00000 ]
	SubspaceRotationAdjust: set factor to 0.373
ElecMinimize: Iter:  11  F: -7106.940458644743558  |grad|_K:  7.835e-08  alpha:  2.764e-01  linmin:  1.271e-04  t[s]:  16869.60
	Linear fluid (dielectric constant: 78.4, screening length: 8.12261 Bohr) occupying 0.512001 of unit cell:	Completed after 2 iterations at t[s]:  16958.23
	Linear fluid (dielectric constant: 78.4, screening length: 8.12261 Bohr) occupying 0.512002 of unit cell:	Completed after 0 iterations at t[s]:  17019.31
	FillingsUpdate:  mu: -0.145891421  nElectrons: 922.000000  magneticMoment: [ Abs: 0.00000  Tot: +0.00000 ]
	SubspaceRotationAdjust: set factor to 0.434
ElecMinimize: Iter:  12  F: -7106.940460003801491  |grad|_K:  5.090e-08  alpha:  3.614e-01  linmin: -2.515e-04  t[s]:  17105.95
	Linear fluid (dielectric constant: 78.4, screening length: 8.12261 Bohr) occupying 0.512003 of unit cell:	Completed after 2 iterations at t[s]:  17194.60
	Linear fluid (dielectric constant: 78.4, screening length: 8.12261 Bohr) occupying 0.512003 of unit cell:	Completed after 0 iterations at t[s]:  17255.99
	FillingsUpdate:  mu: -0.145878888  nElectrons: 922.000000  magneticMoment: [ Abs: 0.00000  Tot: +0.00000 ]
	SubspaceRotationAdjust: set factor to 0.486
ElecMinimize: Iter:  13  F: -7106.940460598535537  |grad|_K:  3.497e-08  alpha:  3.640e-01  linmin: -5.677e-05  t[s]:  17342.47
	Linear fluid (dielectric constant: 78.4, screening length: 8.12261 Bohr) occupying 0.512003 of unit cell:	Completed after 2 iterations at t[s]:  17431.36
	Linear fluid (dielectric constant: 78.4, screening length: 8.12261 Bohr) occupying 0.512003 of unit cell:	Completed after 0 iterations at t[s]:  17492.84
	FillingsUpdate:  mu: -0.145892506  nElectrons: 922.000000  magneticMoment: [ Abs: 0.00000  Tot: +0.00000 ]
	SubspaceRotationAdjust: set factor to 0.641
ElecMinimize: Iter:  14  F: -7106.940460912848721  |grad|_K:  2.499e-08  alpha:  4.111e-01  linmin: -1.189e-04  t[s]:  17579.75
	Linear fluid (dielectric constant: 78.4, screening length: 8.12261 Bohr) occupying 0.512002 of unit cell:	Completed after 2 iterations at t[s]:  17668.28
	Linear fluid (dielectric constant: 78.4, screening length: 8.12261 Bohr) occupying 0.512002 of unit cell:	Completed after 0 iterations at t[s]:  17729.51
	FillingsUpdate:  mu: -0.145898734  nElectrons: 922.000000  magneticMoment: [ Abs: 0.00000  Tot: +0.00000 ]
	SubspaceRotationAdjust: set factor to 0.781
ElecMinimize: Iter:  15  F: -7106.940461069692901  |grad|_K:  2.072e-08  alpha:  3.990e-01  linmin: -7.958e-05  t[s]:  17816.09
	Linear fluid (dielectric constant: 78.4, screening length: 8.12261 Bohr) occupying 0.512002 of unit cell:	Completed after 2 iterations at t[s]:  17904.84
	Linear fluid (dielectric constant: 78.4, screening length: 8.12261 Bohr) occupying 0.512002 of unit cell:	Completed after 0 iterations at t[s]:  17966.39
	FillingsUpdate:  mu: -0.145883467  nElectrons: 922.000000  magneticMoment: [ Abs: 0.00000  Tot: +0.00000 ]
	SubspaceRotationAdjust: set factor to 0.698
ElecMinimize: Iter:  16  F: -7106.940461156437777  |grad|_K:  2.009e-08  alpha:  3.134e-01  linmin:  3.665e-04  t[s]:  18052.88
	Linear fluid (dielectric constant: 78.4, screening length: 8.12261 Bohr) occupying 0.512001 of unit cell:	Completed after 2 iterations at t[s]:  18141.48
	Linear fluid (dielectric constant: 78.4, screening length: 8.12261 Bohr) occupying 0.512001 of unit cell:	Completed after 0 iterations at t[s]:  18202.89
	FillingsUpdate:  mu: -0.145896563  nElectrons: 922.000000  magneticMoment: [ Abs: 0.00000  Tot: +0.00000 ]
	SubspaceRotationAdjust: set factor to 0.454
ElecMinimize: Iter:  17  F: -7106.940461197168588  |grad|_K:  1.453e-08  alpha:  1.811e-01  linmin:  4.434e-04  t[s]:  18289.98
ElecMinimize: Converged (|Delta F|<1.000000e-07 for 2 iters).
Setting wave functions to eigenvectors of Hamiltonian
Converging empty states (this may take a while): |deigs|: 3.931e-07

Computing DFT-D3 correction:
# coordination-number Ag 5.464 5.467 5.467 5.522 6.738 6.738 6.738 6.738 8.993 8.993 8.993 8.993 8.975 8.975 8.975 8.975 8.935 8.934 8.941 8.934 8.557 7.497 7.537 7.497 7.499 7.499 7.499 7.499 8.932 8.932 8.932 8.932 8.980 8.979 8.980 8.979 8.997 8.998 8.997 8.998 7.674 6.742 7.682 6.742 5.455 5.455 5.455 5.455
# coordination-number C 3.870
# coordination-number O 1.195
# diagonal-C6 Ag 268.61 268.61 268.61 268.61 268.61 268.61 268.61 268.61 268.61 268.61 268.61 268.61 268.61 268.61 268.61 268.61 268.61 268.61 268.61 268.61 268.61 268.61 268.61 268.61 268.61 268.61 268.61 268.61 268.61 268.61 268.61 268.61 268.61 268.61 268.61 268.61 268.61 268.61 268.61 268.61 268.61 268.61 268.61 268.61 268.61 268.61 268.61 268.61
# diagonal-C6 C 18.53
# diagonal-C6 O 12.60
EvdW_6 =   -0.277336
EvdW_8 =   -0.387231

# Ionic positions in cartesian coordinates:
ion Ag  10.839213999999998  26.417100999999992  17.976664000000000 0
ion Ag  10.839213999999998  13.139773999999996  17.976664000000000 0
ion Ag   5.418766999999999  26.417100999999992  17.976664000000000 0
ion Ag   5.418766999999999  13.139773999999996  17.976664000000000 0
ion Ag   0.000217000000000   4.519150999999998   2.204173000000000 0
ion Ag   0.000217000000000  17.796477999999997   2.204173000000000 0
ion Ag   5.420663999999999   4.519150999999998   2.204173000000000 0
ion Ag   5.420663999999999  17.796477999999997   2.204173000000000 0
ion Ag   0.000954000000000   8.973428999999996   5.467986999999999 0
ion Ag   0.000954000000000  22.250755999999992   5.467986999999999 0
ion Ag   5.421401000000000   8.973428999999996   5.467986999999999 0
ion Ag   5.421401000000000  22.250755999999992   5.467986999999999 0
ion Ag  10.840016000000000   0.022810000000000   8.601168999999999 0
ion Ag  10.840016000000000  13.300137999999997   8.601168999999999 0
ion Ag   5.419558000000000   0.022810000000000   8.601168999999999 0
ion Ag   5.419558000000000  13.300137999999997   8.601168999999999 0
ion Ag   0.000022000000000   4.389802999999999  11.760488999999998 0
ion Ag   0.000022000000000  17.667103999999991  11.760488999999998 0
ion Ag   5.420469000000000   4.389802999999999  11.760488999999998 0
ion Ag   5.420469000000000  17.667103999999991  11.760488999999998 0
ion Ag   5.421032000000000   8.708757999999998  15.042160000000001 0
ion Ag   5.421032000000000  21.986085999999997  15.042160000000001 0
ion Ag   0.000585000000000   8.708757999999998  15.042160000000001 0
ion Ag   0.000585000000000  21.986085999999997  15.042160000000001 0
[...]
force Ag   0.000282116669799  -0.000438892177307  -0.000426813592289 0
force Ag   0.000741763614077   0.000147100457904   0.000420361361530 0
force Ag  -0.000226828308099   0.000415716815905   0.000472775668411 0
force Ag  -0.000780290400228   0.000149506317880   0.000422788709284 0
force Ag   0.000210571853247   0.000414198086164   0.000474429380741 0
force C   0.000235802416022  -0.004534212096782   0.000362908596414 1  Linear 0 0 1
force O  -0.000400233800521   0.002361762483138  -0.000092967046073 1  Linear 0 0 1

# Energy components:
   A_diel =       -0.0043747569684319
   Eewald =    32772.4373282131418819
       EH =    39191.3081445710413391
     Eloc =   -80192.0955525645549642
      Enl =      192.5013490582962845
     EvdW =       -0.6641375771009539
      Exc =     -700.7531617655804439
 Exc_core =       10.0909379254694045
       KE =     1620.1955031682816752
-------------------------------------
     Etot =    -7106.9839637279774252
       TS =        0.0013347934580842
-------------------------------------
        F =    -7106.9852985214356522


Dumping 'jdft.fillings' ... done
Dumping 'jdft.wfns' ... done
Dumping 'jdft.fluidState' ... done
Dumping 'jdft.ionpos' ... done
Dumping 'jdft.lattice' ... done
Dumping 'jdft.eigenvals' ... done
Dumping 'jdft.eigStats' ... 
	eMin: -3.538615 at state 8 ( [ +0.000000 +0.000000 +0.000000 ] spin -1 )
	HOMO: -0.145405 at state 1 ( [ +0.000000 +0.500000 +0.000000 ] spin 1 )
	mu  : -0.145371
	LUMO: -0.144323 at state 0 ( [ +0.000000 +0.000000 +0.000000 ] spin 1 )
	eMax: +0.148892 at state 8 ( [ +0.000000 +0.000000 +0.000000 ] spin -1 )
	HOMO-LUMO gap: +0.001082
	Optical gap  : +0.002407 at state 1 ( [ +0.000000 +0.500000 +0.000000 ] spin 1 )
Dumping 'jdft.Ecomponents' ... done
IonicMinimize: Iter:  13  F: -7106.985298521435652  |grad|_K:  2.649e-04  alpha:  1.000e+00  linmin: -1.684e-02  t[s]:  76386.42

#--- Lowdin population analysis ---
# oxidation-state Ag +0.087 +0.089 +0.093 +0.061 +0.020 +0.013 +0.011 +0.014 -0.034 -0.036 -0.038 -0.034 -0.004 -0.006 +0.001 +0.001 -0.010 -0.008 -0.005 -0.003 -0.086 -0.022 -0.015 -0.028 -0.026 -0.026 -0.026 -0.026 -0.005 -0.004 -0.005 -0.004 -0.005 -0.002 -0.005 -0.002 -0.038 -0.038 -0.038 -0.037 -0.038 +0.013 -0.038 +0.013 +0.094 +0.097 +0.094 +0.097
# magnetic-moments Ag +0.000 +0.000 -0.000 -0.000 +0.000 +0.000 -0.000 -0.000 +0.000 +0.000 -0.000 +0.000 -0.000 -0.000 -0.000 -0.000 -0.000 -0.000 +0.000 -0.000 +0.000 -0.000 +0.000 +0.000 +0.000 +0.000 -0.000 -0.000 -0.000 -0.000 +0.000 +0.000 +0.000 +0.000 -0.000 -0.000 -0.000 +0.000 -0.000 -0.000 +0.000 -0.000 -0.000 +0.000 -0.000 +0.000 +0.000 -0.000
# oxidation-state C +0.376
# magnetic-moments C +0.000
# oxidation-state O -0.113
# magnetic-moments O -0.000


Computing DFT-D3 correction:
# coordination-number Ag 5.464 5.466 5.466 5.507 6.738 6.738 6.738 6.738 8.993 8.993 8.993 8.993 8.975 8.975 8.975 8.975 8.934 8.934 8.936 8.934 8.365 7.497 7.513 7.497 7.499 7.499 7.499 7.499 8.932 8.932 8.932 8.932 8.980 8.979 8.980 8.979 8.997 8.997 8.997 8.997 7.307 6.742 7.307 6.742 5.455 5.455 5.455 5.455
# coordination-number C 3.035
# coordination-number O 1.044
# diagonal-C6 Ag 268.61 268.61 268.61 268.61 268.61 268.61 268.61 268.61 268.61 268.61 268.61 268.61 268.61 268.61 268.61 268.61 268.61 268.61 268.61 268.61 268.61 268.61 268.61 268.61 268.61 268.61 268.61 268.61 268.61 268.61 268.61 268.61 268.61 268.61 268.61 268.61 268.61 268.61 268.61 268.61 268.61 268.61 268.61 268.61 268.61 268.61 268.61 268.61
# diagonal-C6 C 25.60
# diagonal-C6 O 12.78
EvdW_6 =   -0.277375
EvdW_8 =   -0.386735

-------- Electronic minimization -----------
	Linear fluid (dielectric constant: 78.4, screening length: 8.12261 Bohr) occupying 0.507807 of unit cell:	Completed after 7 iterations at t[s]:  76488.48
	FillingsUpdate:  mu: -0.145365468  nElectrons: 922.000000  magneticMoment: [ Abs: 0.00000  Tot: -0.00000 ]
ElecMinimize: Iter:   0  F: -7106.985247203183462  |grad|_K:  4.288e-07  alpha:  1.000e+00
	Linear fluid (dielectric constant: 78.4, screening length: 8.12261 Bohr) occupying 0.507816 of unit cell:	Completed after 7 iterations at t[s]:  76677.75
	Linear fluid (dielectric constant: 78.4, screening length: 8.12261 Bohr) occupying 0.507810 of unit cell:	Completed after 6 iterations at t[s]:  76741.76
	FillingsUpdate:  mu: -0.145324584  nElectrons: 922.000000  magneticMoment: [ Abs: 0.00000  Tot: +0.00000 ]
	SubspaceRotationAdjust: set factor to 0.551
ElecMinimize: Iter:   1  F: -7106.985282633674615  |grad|_K:  1.930e-07  alpha:  3.132e-01  linmin:  4.954e-05  t[s]:  76828.13
	Linear fluid (dielectric constant: 78.4, screening length: 8.12261 Bohr) occupying 0.507809 of unit cell:	Completed after 3 iterations at t[s]:  76916.73
	Linear fluid (dielectric constant: 78.4, screening length: 8.12261 Bohr) occupying 0.507808 of unit cell:	Completed after 2 iterations at t[s]:  76979.13
	FillingsUpdate:  mu: -0.145380864  nElectrons: 922.000000  magneticMoment: [ Abs: 0.00000  Tot: +0.00000 ]
	SubspaceRotationAdjust: set factor to 0.631
ElecMinimize: Iter:   2  F: -7106.985292503645724  |grad|_K:  1.256e-07  alpha:  4.300e-01  linmin: -2.689e-05  t[s]:  77065.86
	Linear fluid (dielectric constant: 78.4, screening length: 8.12261 Bohr) occupying 0.507809 of unit cell:	Completed after 3 iterations at t[s]:  77154.90
	Linear fluid (dielectric constant: 78.4, screening length: 8.12261 Bohr) occupying 0.507810 of unit cell:	Completed after 2 iterations at t[s]:  77217.06
	FillingsUpdate:  mu: -0.145328335  nElectrons: 922.000000  magneticMoment: [ Abs: 0.00000  Tot: +0.00000 ]
	SubspaceRotationAdjust: set factor to 0.768
ElecMinimize: Iter:   3  F: -7106.985298584513657  |grad|_K:  1.027e-07  alpha:  6.261e-01  linmin:  3.757e-05  t[s]:  77304.09
	Linear fluid (dielectric constant: 78.4, screening length: 8.12261 Bohr) occupying 0.507807 of unit cell:	Completed after 7 iterations at t[s]:  77394.56
	Linear fluid (dielectric constant: 78.4, screening length: 8.12261 Bohr) occupying 0.507808 of unit cell:	Completed after 4 iterations at t[s]:  77457.51
	FillingsUpdate:  mu: -0.145405478  nElectrons: 922.000000  magneticMoment: [ Abs: 0.00000  Tot: +0.00000 ]
	SubspaceRotationAdjust: set factor to 0.631
ElecMinimize: Iter:   4  F: -7106.985300523983824  |grad|_K:  7.877e-08  alpha:  2.955e-01  linmin:  6.690e-05  t[s]:  77544.83
	Linear fluid (dielectric constant: 78.4, screening length: 8.12261 Bohr) occupying 0.507809 of unit cell:	Completed after 7 iterations at t[s]:  77635.77
	Linear fluid (dielectric constant: 78.4, screening length: 8.12261 Bohr) occupying 0.507809 of unit cell:	Completed after 2 iterations at t[s]:  77698.66
	FillingsUpdate:  mu: -0.145348470  nElectrons: 922.000000  magneticMoment: [ Abs: 0.00000  Tot: +0.00000 ]
	SubspaceRotationAdjust: set factor to 0.395
ElecMinimize: Iter:   5  F: -7106.985301295806494  |grad|_K:  5.131e-08  alpha:  2.097e-01  linmin: -5.606e-05  t[s]:  77785.39
	Linear fluid (dielectric constant: 78.4, screening length: 8.12261 Bohr) occupying 0.507809 of unit cell:	Completed after 2 iterations at t[s]:  77873.97
	Linear fluid (dielectric constant: 78.4, screening length: 8.12261 Bohr) occupying 0.507809 of unit cell:	Completed after 0 iterations at t[s]:  77936.19
	FillingsUpdate:  mu: -0.145353679  nElectrons: 922.000000  magneticMoment: [ Abs: 0.00000  Tot: +0.00000 ]
	SubspaceRotationAdjust: set factor to 0.569
ElecMinimize: Iter:   6  F: -7106.985301714936213  |grad|_K:  2.281e-08  alpha:  2.531e-01  linmin: -9.058e-04  t[s]:  78022.69
	Linear fluid (dielectric constant: 78.4, screening length: 8.12261 Bohr) occupying 0.507809 of unit cell:	Completed after 3 iterations at t[s]:  78111.39
	Linear fluid (dielectric constant: 78.4, screening length: 8.12261 Bohr) occupying 0.507809 of unit cell:	Completed after 0 iterations at t[s]:  78173.10
	FillingsUpdate:  mu: -0.145367384  nElectrons: 922.000000  magneticMoment: [ Abs: 0.00000  Tot: +0.00000 ]
	SubspaceRotationAdjust: set factor to 0.494
ElecMinimize: Iter:   7  F: -7106.985301783222894  |grad|_K:  2.010e-08  alpha:  2.127e-01  linmin: -2.128e-03  t[s]:  78259.81
	Linear fluid (dielectric constant: 78.4, screening length: 8.12261 Bohr) occupying 0.507808 of unit cell:	Completed after 2 iterations at t[s]:  78348.47
	Linear fluid (dielectric constant: 78.4, screening length: 8.12261 Bohr) occupying 0.507809 of unit cell:	Completed after 0 iterations at t[s]:  78410.18
	FillingsUpdate:  mu: -0.145364095  nElectrons: 922.000000  magneticMoment: [ Abs: 0.00000  Tot: +0.00000 ]
	SubspaceRotationAdjust: set factor to 0.426
ElecMinimize: Iter:   8  F: -7106.985301827947296  |grad|_K:  9.765e-09  alpha:  1.602e-01  linmin:  6.597e-04  t[s]:  78496.83
ElecMinimize: Converged (|Delta F|<1.000000e-07 for 2 iters).
Setting wave functions to eigenvectors of Hamiltonian
Converging empty states (this may take a while): |deigs|: 1.183e-08

Computing DFT-D3 correction:
# coordination-number Ag 5.464 5.466 5.466 5.507 6.738 6.738 6.738 6.738 8.993 8.993 8.993 8.993 8.975 8.975 8.975 8.975 8.934 8.934 8.936 8.934 8.365 7.497 7.513 7.497 7.499 7.499 7.499 7.499 8.932 8.932 8.932 8.932 8.980 8.979 8.980 8.979 8.997 8.997 8.997 8.997 7.307 6.742 7.307 6.742 5.455 5.455 5.455 5.455
# coordination-number C 3.035
# coordination-number O 1.044
# diagonal-C6 Ag 268.61 268.61 268.61 268.61 268.61 268.61 268.61 268.61 268.61 268.61 268.61 268.61 268.61 268.61 268.61 268.61 268.61 268.61 268.61 268.61 268.61 268.61 268.61 268.61 268.61 268.61 268.61 268.61 268.61 268.61 268.61 268.61 268.61 268.61 268.61 268.61 268.61 268.61 268.61 268.61 268.61 268.61 268.61 268.61 268.61 268.61 268.61 268.61
# diagonal-C6 C 25.60
# diagonal-C6 O 12.78
EvdW_6 =   -0.277375
EvdW_8 =   -0.386735

# Ionic positions in cartesian coordinates:
ion Ag  10.839213999999998  26.417100999999992  17.976664000000000 0
ion Ag  10.839213999999998  13.139773999999996  17.976664000000000 0
ion Ag   5.418766999999999  26.417100999999992  17.976664000000000 0
ion Ag   5.418766999999999  13.139773999999996  17.976664000000000 0
ion Ag   0.000217000000000   4.519150999999998   2.204173000000000 0
ion Ag   0.000217000000000  17.796477999999997   2.204173000000000 0
ion Ag   5.420663999999999   4.519150999999998   2.204173000000000 0
ion Ag   5.420663999999999  17.796477999999997   2.204173000000000 0
ion Ag   0.000954000000000   8.973428999999996   5.467986999999999 0
ion Ag   0.000954000000000  22.250755999999992   5.467986999999999 0
ion Ag   5.421401000000000   8.973428999999996   5.467986999999999 0
ion Ag   5.421401000000000  22.250755999999992   5.467986999999999 0
ion Ag  10.840016000000000   0.022810000000000   8.601168999999999 0
ion Ag  10.840016000000000  13.300137999999997   8.601168999999999 0
ion Ag   5.419558000000000   0.022810000000000   8.601168999999999 0
ion Ag   5.419558000000000  13.300137999999997   8.601168999999999 0
ion Ag   0.000022000000000   4.389802999999999  11.760488999999998 0
ion Ag   0.000022000000000  17.667103999999991  11.760488999999998 0
ion Ag   5.420469000000000   4.389802999999999  11.760488999999998 0
ion Ag   5.420469000000000  17.667103999999991  11.760488999999998 0
ion Ag   5.421032000000000   8.708757999999998  15.042160000000001 0
ion Ag   5.421032000000000  21.986085999999997  15.042160000000001 0
ion Ag   0.000585000000000   8.708757999999998  15.042160000000001 0
ion Ag   0.000585000000000  21.986085999999997  15.042160000000001 0
ion Ag   2.709595000000000   0.146449000000000   3.735190999999999 0
ion Ag   2.709595000000000  13.423749999999995   3.735190999999999 0
ion Ag   8.130042000000000   0.146449000000000   3.735190999999999 0
ion Ag   8.130042000000000  13.423749999999995   3.735190999999999 0
ion Ag   2.710256000000000   4.461951999999999   7.016861999999999 0
ion Ag   2.710256000000000  17.739278999999996   7.016861999999999 0
ion Ag   8.130702999999999   4.461951999999999   7.016861999999999 0
ion Ag   8.130702999999999  17.739278999999996   7.016861999999999 0
ion Ag   2.711004000000000   8.825173999999997  10.174547999999998 0
ion Ag   2.711004000000000  22.102500999999997  10.174547999999998 0
ion Ag   8.131451000000000   8.825173999999997  10.174547999999998 0
ion Ag   8.131451000000000  22.102500999999997  10.174547999999998 0
ion Ag   2.709269000000000  26.433883999999992  13.312124999999996 0
ion Ag   2.709269000000000  13.156556999999996  13.312124999999996 0
ion Ag   8.129716000000000  26.433883999999992  13.312124999999996 0
ion Ag   8.129716000000000  13.156556999999996  13.312124999999996 0
ion Ag   2.710104000000000   4.330638999999999  16.571093999999999 0
ion Ag   2.710104000000000  17.607966999999991  16.571093999999999 0
ion Ag   8.130540000000000   4.330638999999999  16.571093999999999 0
ion Ag   8.130540000000000  17.607966999999991  16.571093999999999 0
ion Ag   2.711904000000000   8.989520999999996   0.799449000000000 0
ion Ag   2.711904000000000  22.266847999999992   0.799449000000000 0
ion Ag   8.132351000000000   8.989520999999996   0.799449000000000 0
ion Ag   8.132351000000000  22.266847999999992   0.799449000000000 0
ion C   5.419807000000000   7.267025999999998  19.093599997604699 1  Linear 0 0 1
ion O   5.479898000000000   7.267025999999998  21.296832543234537 1  Linear 0 0 1

# Forces in Cartesian coordinates:
force Ag   0.000005553357100   0.000045922583972  -0.000275063744804 0
force Ag   0.000018866706372   0.000702951721472   0.000025454796053 0
force Ag   0.000011325667279  -0.000813490134950  -0.000069664336133 0
force Ag  -0.000008056327958   0.002072862678510  -0.000104495562683 0
force Ag   0.000006492885522   0.000278675544372  -0.000137297780383 0
force Ag  -0.000004098443304   0.000121128085457   0.000628143282400 0
force Ag  -0.000016253438905   0.000297902444333   0.000357201486629 0
force Ag   0.000005002928069  -0.000153326576350  -0.000030653584888 0
force Ag   0.000000524518930  -0.000040014548070   0.000281961436299 0
force Ag   0.000003459911165   0.000218358983995  -0.001024383677829 0
force Ag  -0.000026871936333  -0.000018023815822  -0.000999774353501 0
force Ag   0.000004392458863  -0.000407928176802  -0.000387383376467 0
force Ag  -0.000007826194279   0.000662384059140   0.000285627881986 0
force Ag  -0.000013618865918   0.000641204334842  -0.000237137858132 0
force Ag   0.000019958633516  -0.000261670927045  -0.000084730588544 0
force Ag   0.000012934564687   0.000354948513479  -0.000309501932700 0
force Ag   0.000008844541592   0.000360034824956   0.000960791448154 0
force Ag  -0.000004336471718  -0.000584565136357   0.000172481112413 0
force Ag  -0.000013078411739  -0.000391406911372  -0.003057287758615 0
force Ag   0.000000835755464  -0.000003298477267  -0.000546980819146 0
force Ag   0.000055334527498   0.004835808895719  -0.000105997239689 0
force Ag   0.000017159056427  -0.000158061601960  -0.000353519969211 0
force Ag  -0.000125427789647   0.001551065064399  -0.002895604507238 0
force Ag  -0.000007614162792   0.000075950654238  -0.000066735234207 0
force Ag  -0.000055597088772  -0.000300163334562  -0.000084859830268 0
force Ag  -0.000068859675274  -0.000117927946876  -0.000091371038828 0
force Ag   0.000046057975830  -0.000329549509502  -0.000079269583600 0
force Ag   0.000065065802728  -0.000115799690316  -0.000088285442404 0
force Ag  -0.000060676481736  -0.000130668793686  -0.000023199287790 0
force Ag  -0.000175642666520  -0.000281314461563   0.000373196965996 0
force Ag   0.000044445908736  -0.000146648229724  -0.000012639256152 0
force Ag   0.000172214378191  -0.000293712198448   0.000364676447245 0
force Ag   0.000988063144946  -0.000487496138944   0.001383869331863 0
force Ag   0.000143242041129  -0.000003833961109   0.000400141126426 0
force Ag  -0.001035705612005  -0.000478116643837   0.001352672052497 0
force Ag  -0.000151168588488  -0.000003233633992   0.000396810250051 0
force Ag   0.000088405402729   0.000557573264318   0.000666115908352 0
force Ag  -0.000309265429501   0.000230598394396   0.000144842190665 0
force Ag  -0.000086461802253   0.000501894936522   0.000647273094927 0
force Ag   0.000308704517993   0.000240599306497   0.000162141459757 0
force Ag  -0.003267306214939  -0.003042163909798   0.000989628154936 0
force Ag  -0.000284612259114  -0.000441306071416  -0.000368278054239 0
force Ag   0.003440840990733  -0.003195138144848   0.000596341985713 0
force Ag   0.000283130572780  -0.000436545750381  -0.000368824068372 0
force Ag   0.000735636914686   0.000145262009893   0.000398360851926 0
force Ag  -0.000227002582023   0.000417270237861   0.000480193882709 0
force Ag  -0.000774204602133   0.000147911468113   0.000401032141659 0
force Ag   0.000210701660987   0.000415932581747   0.000482057587342 0
force C   0.000225339301626  -0.004437716656172  -0.000054706146344 1  Linear 0 0 1
force O  -0.000389260593477   0.002296218858170   0.000011382389541 1  Linear 0 0 1

# Energy components:
   A_diel =       -0.0043515235360515
   Eewald =    32770.8585416382120457
       EH =    39189.7386892868089490
     Eloc =   -80188.9470922174514271
      Enl =      192.5017489544508749
     EvdW =       -0.6641106980993058
      Exc =     -700.7523642146802558
 Exc_core =       10.0909361018056938
       KE =     1620.1940322995401402
-------------------------------------
     Etot =    -7106.9839703729448956
       TS =        0.0013314550026626
-------------------------------------
        F =    -7106.9853018279472963


Dumping 'jdft.fillings' ... done
Dumping 'jdft.wfns' ... done
Dumping 'jdft.fluidState' ... done
Dumping 'jdft.ionpos' ... done
Dumping 'jdft.lattice' ... done
Dumping 'jdft.eigenvals' ... done
Dumping 'jdft.eigStats' ... 
	eMin: -3.538396 at state 8 ( [ +0.000000 +0.000000 +0.000000 ] spin -1 )
	HOMO: -0.145386 at state 9 ( [ +0.000000 +0.500000 +0.000000 ] spin -1 )
	mu  : -0.145364
	LUMO: -0.144274 at state 0 ( [ +0.000000 +0.000000 +0.000000 ] spin 1 )
	eMax: +0.148897 at state 8 ( [ +0.000000 +0.000000 +0.000000 ] spin -1 )
	HOMO-LUMO gap: +0.001112
	Optical gap  : +0.002445 at state 1 ( [ +0.000000 +0.500000 +0.000000 ] spin 1 )
Dumping 'jdft.Ecomponents' ... done
IonicMinimize: Iter:  14  F: -7106.985301827947296  |grad|_K:  3.951e-05  alpha:  1.000e+00  linmin:  2.704e-03  t[s]:  78878.06
IonicMinimize: Converged (|grad|_K<1.000000e-04).

#--- Lowdin population analysis ---
# oxidation-state Ag +0.087 +0.089 +0.092 +0.061 +0.020 +0.013 +0.011 +0.014 -0.034 -0.036 -0.038 -0.034 -0.004 -0.006 +0.001 +0.000 -0.010 -0.008 -0.005 -0.003 -0.086 -0.022 -0.015 -0.028 -0.026 -0.026 -0.026 -0.026 -0.005 -0.003 -0.005 -0.004 -0.005 -0.002 -0.005 -0.002 -0.038 -0.038 -0.038 -0.038 -0.039 +0.013 -0.038 +0.013 +0.094 +0.097 +0.094 +0.097
# magnetic-moments Ag -0.000 +0.000 +0.000 -0.000 +0.000 +0.000 -0.000 +0.000 -0.000 +0.000 +0.000 +0.000 -0.000 +0.000 -0.000 -0.000 +0.000 -0.000 -0.000 +0.000 -0.000 -0.000 -0.000 -0.000 -0.000 -0.000 -0.000 +0.000 +0.000 -0.000 -0.000 +0.000 -0.000 +0.000 -0.000 +0.000 +0.000 +0.000 +0.000 -0.000 +0.000 +0.000 -0.000 -0.000 +0.000 -0.000 -0.000 -0.000
# oxidation-state C +0.376
# magnetic-moments C +0.000
# oxidation-state O -0.112
# magnetic-moments O +0.000


Dumping 'jdft.n_up' ... done
Dumping 'jdft.n_dn' ... done
Dumping 'jdft.tau_up' ... done
Dumping 'jdft.tau_dn' ... done
Dumping 'jdft.eigenvals' ... done
Dumping 'jdft.eigStats' ... 
	eMin: -3.538396 at state 8 ( [ +0.000000 +0.000000 +0.000000 ] spin -1 )
	HOMO: -0.145386 at state 9 ( [ +0.000000 +0.500000 +0.000000 ] spin -1 )
	mu  : -0.145364
	LUMO: -0.144274 at state 0 ( [ +0.000000 +0.000000 +0.000000 ] spin 1 )
	eMax: +0.148897 at state 8 ( [ +0.000000 +0.000000 +0.000000 ] spin -1 )
	HOMO-LUMO gap: +0.001112
	Optical gap  : +0.002445 at state 1 ( [ +0.000000 +0.500000 +0.000000 ] spin 1 )
Dumping 'jdft.kPts' ... done
Dumping 'jdft.kMap' ... done
Dumping 'jdft.dosUp' ... done.
Dumping 'jdft.dosDn' ... done.
End date and time: Fri Feb 18 02:36:17 2022  (Duration: 0-21:56:47.19)
Done!
