
*************** JDFTx 1.6.0  ***************

Start date and time: Mon Dec  6 16:28:33 2021
Executable /projects/musgravc/apps/jdftx-1.6.1/build/jdftx with command-line: -i in
Running on hosts (process indices):  shas0651.rc.int.colorado.edu (0-23)
Divided in process groups (process indices):  0 (0)  1 (1)  2 (2)  3 (3)  4 (4)  5 (5)  6 (6)  7 (7)  8 (8)  9 (9)  10 (10)  11 (11)  12 (12)  13 (13)  14 (14)  15 (15)  16 (16)  17 (17)  18 (18)  19 (19)  20 (20)  21 (21)  22 (22)  23 (23)
Resource initialization completed at t[s]:      0.00
Run totals: 24 processes, 24 threads, 0 GPUs


Input parsed successfully to the following command list (including defaults):

basis kpoint-dependent
converge-empty-states yes
coords-type Cartesian
core-overlap-check none
coulomb-interaction Periodic
davidson-band-ratio 1.1
density-of-states Etol 1.000000e-06 Esigma 1.000000e-03 \
		Complete \
	Total \
	OrthoOrbital Pt 1   s \
	OrthoOrbital Pt 1   p \
	OrthoOrbital Pt 1   px \
	OrthoOrbital Pt 1   py \
	OrthoOrbital Pt 1   pz \
	OrthoOrbital Pt 1   d \
	OrthoOrbital Pt 1   dxy \
	OrthoOrbital Pt 1   dyz \
	OrthoOrbital Pt 1   dz2 \
	OrthoOrbital Pt 1   dxz \
	OrthoOrbital Pt 1   dx2-y2 \
	OrthoOrbital Pt 2   s \
	OrthoOrbital Pt 2   p \
	OrthoOrbital Pt 2   px \
	OrthoOrbital Pt 2   py \
	OrthoOrbital Pt 2   pz \
	OrthoOrbital Pt 2   d \
	OrthoOrbital Pt 2   dxy \
	OrthoOrbital Pt 2   dyz \
	OrthoOrbital Pt 2   dz2 \
	OrthoOrbital Pt 2   dxz \
	OrthoOrbital Pt 2   dx2-y2 \
	OrthoOrbital Pt 3   s \
	OrthoOrbital Pt 3   p \
	OrthoOrbital Pt 3   px \
	OrthoOrbital Pt 3   py \
	OrthoOrbital Pt 3   pz \
	OrthoOrbital Pt 3   d \
	OrthoOrbital Pt 3   dxy \
	OrthoOrbital Pt 3   dyz \
	OrthoOrbital Pt 3   dz2 \
	OrthoOrbital Pt 3   dxz \
	OrthoOrbital Pt 3   dx2-y2 \
	OrthoOrbital Pt 4   s \
	OrthoOrbital Pt 4   p \
	OrthoOrbital Pt 4   px \
	OrthoOrbital Pt 4   py \
	OrthoOrbital Pt 4   pz \
	OrthoOrbital Pt 4   d \
	OrthoOrbital Pt 4   dxy \
	OrthoOrbital Pt 4   dyz \
	OrthoOrbital Pt 4   dz2 \
	OrthoOrbital Pt 4   dxz \
	OrthoOrbital Pt 4   dx2-y2 \
	OrthoOrbital Pt 5   s \
	OrthoOrbital Pt 5   p \
	OrthoOrbital Pt 5   px \
	OrthoOrbital Pt 5   py \
	OrthoOrbital Pt 5   pz \
	OrthoOrbital Pt 5   d \
	OrthoOrbital Pt 5   dxy \
	OrthoOrbital Pt 5   dyz \
	OrthoOrbital Pt 5   dz2 \
	OrthoOrbital Pt 5   dxz \
	OrthoOrbital Pt 5   dx2-y2 \
	OrthoOrbital Pt 6   s \
	OrthoOrbital Pt 6   p \
	OrthoOrbital Pt 6   px \
	OrthoOrbital Pt 6   py \
	OrthoOrbital Pt 6   pz \
	OrthoOrbital Pt 6   d \
	OrthoOrbital Pt 6   dxy \
	OrthoOrbital Pt 6   dyz \
	OrthoOrbital Pt 6   dz2 \
	OrthoOrbital Pt 6   dxz \
	OrthoOrbital Pt 6   dx2-y2 \
	OrthoOrbital Pt 7   s \
	OrthoOrbital Pt 7   p \
	OrthoOrbital Pt 7   px \
	OrthoOrbital Pt 7   py \
	OrthoOrbital Pt 7   pz \
	OrthoOrbital Pt 7   d \
	OrthoOrbital Pt 7   dxy \
	OrthoOrbital Pt 7   dyz \
	OrthoOrbital Pt 7   dz2 \
	OrthoOrbital Pt 7   dxz \
	OrthoOrbital Pt 7   dx2-y2 \
	OrthoOrbital Pt 8   s \
	OrthoOrbital Pt 8   p \
	OrthoOrbital Pt 8   px \
	OrthoOrbital Pt 8   py \
	OrthoOrbital Pt 8   pz \
	OrthoOrbital Pt 8   d \
	OrthoOrbital Pt 8   dxy \
	OrthoOrbital Pt 8   dyz \
	OrthoOrbital Pt 8   dz2 \
	OrthoOrbital Pt 8   dxz \
	OrthoOrbital Pt 8   dx2-y2 \
	OrthoOrbital Pt 9   s \
	OrthoOrbital Pt 9   p \
	OrthoOrbital Pt 9   px \
	OrthoOrbital Pt 9   py \
	OrthoOrbital Pt 9   pz \
	OrthoOrbital Pt 9   d \
	OrthoOrbital Pt 9   dxy \
	OrthoOrbital Pt 9   dyz \
	OrthoOrbital Pt 9   dz2 \
	OrthoOrbital Pt 9   dxz \
	OrthoOrbital Pt 9   dx2-y2 \
	OrthoOrbital Pt 10   s \
	OrthoOrbital Pt 10   p \
	OrthoOrbital Pt 10   px \
	OrthoOrbital Pt 10   py \
	OrthoOrbital Pt 10   pz \
	OrthoOrbital Pt 10   d \
	OrthoOrbital Pt 10   dxy \
	OrthoOrbital Pt 10   dyz \
	OrthoOrbital Pt 10   dz2 \
	OrthoOrbital Pt 10   dxz \
	OrthoOrbital Pt 10   dx2-y2 \
	OrthoOrbital Pt 11   s \
	OrthoOrbital Pt 11   p \
	OrthoOrbital Pt 11   px \
	OrthoOrbital Pt 11   py \
	OrthoOrbital Pt 11   pz \
	OrthoOrbital Pt 11   d \
	OrthoOrbital Pt 11   dxy \
	OrthoOrbital Pt 11   dyz \
	OrthoOrbital Pt 11   dz2 \
	OrthoOrbital Pt 11   dxz \
	OrthoOrbital Pt 11   dx2-y2 \
	OrthoOrbital Pt 12   s \
	OrthoOrbital Pt 12   p \
	OrthoOrbital Pt 12   px \
	OrthoOrbital Pt 12   py \
	OrthoOrbital Pt 12   pz \
	OrthoOrbital Pt 12   d \
	OrthoOrbital Pt 12   dxy \
	OrthoOrbital Pt 12   dyz \
	OrthoOrbital Pt 12   dz2 \
	OrthoOrbital Pt 12   dxz \
	OrthoOrbital Pt 12   dx2-y2 \
	OrthoOrbital Pt 13   s \
	OrthoOrbital Pt 13   p \
	OrthoOrbital Pt 13   px \
	OrthoOrbital Pt 13   py \
	OrthoOrbital Pt 13   pz \
	OrthoOrbital Pt 13   d \
	OrthoOrbital Pt 13   dxy \
	OrthoOrbital Pt 13   dyz \
	OrthoOrbital Pt 13   dz2 \
	OrthoOrbital Pt 13   dxz \
	OrthoOrbital Pt 13   dx2-y2 \
	OrthoOrbital Pt 14   s \
	OrthoOrbital Pt 14   p \
	OrthoOrbital Pt 14   px \
	OrthoOrbital Pt 14   py \
	OrthoOrbital Pt 14   pz \
	OrthoOrbital Pt 14   d \
	OrthoOrbital Pt 14   dxy \
	OrthoOrbital Pt 14   dyz \
	OrthoOrbital Pt 14   dz2 \
	OrthoOrbital Pt 14   dxz \
	OrthoOrbital Pt 14   dx2-y2 \
	OrthoOrbital Pt 15   s \
	OrthoOrbital Pt 15   p \
	OrthoOrbital Pt 15   px \
	OrthoOrbital Pt 15   py \
	OrthoOrbital Pt 15   pz \
	OrthoOrbital Pt 15   d \
	OrthoOrbital Pt 15   dxy \
	OrthoOrbital Pt 15   dyz \
	OrthoOrbital Pt 15   dz2 \
	OrthoOrbital Pt 15   dxz \
	OrthoOrbital Pt 15   dx2-y2 \
	OrthoOrbital Pt 16   s \
	OrthoOrbital Pt 16   p \
	OrthoOrbital Pt 16   px \
	OrthoOrbital Pt 16   py \
	OrthoOrbital Pt 16   pz \
	OrthoOrbital Pt 16   d \
	OrthoOrbital Pt 16   dxy \
	OrthoOrbital Pt 16   dyz \
	OrthoOrbital Pt 16   dz2 \
	OrthoOrbital Pt 16   dxz \
	OrthoOrbital Pt 16   dx2-y2 \
	OrthoOrbital Pt 17   s \
	OrthoOrbital Pt 17   p \
	OrthoOrbital Pt 17   px \
	OrthoOrbital Pt 17   py \
	OrthoOrbital Pt 17   pz \
	OrthoOrbital Pt 17   d \
	OrthoOrbital Pt 17   dxy \
	OrthoOrbital Pt 17   dyz \
	OrthoOrbital Pt 17   dz2 \
	OrthoOrbital Pt 17   dxz \
	OrthoOrbital Pt 17   dx2-y2 \
	OrthoOrbital Pt 18   s \
	OrthoOrbital Pt 18   p \
	OrthoOrbital Pt 18   px \
	OrthoOrbital Pt 18   py \
	OrthoOrbital Pt 18   pz \
	OrthoOrbital Pt 18   d \
	OrthoOrbital Pt 18   dxy \
	OrthoOrbital Pt 18   dyz \
	OrthoOrbital Pt 18   dz2 \
	OrthoOrbital Pt 18   dxz \
	OrthoOrbital Pt 18   dx2-y2 \
	OrthoOrbital Pt 19   s \
	OrthoOrbital Pt 19   p \
	OrthoOrbital Pt 19   px \
	OrthoOrbital Pt 19   py \
	OrthoOrbital Pt 19   pz \
	OrthoOrbital Pt 19   d \
	OrthoOrbital Pt 19   dxy \
	OrthoOrbital Pt 19   dyz \
	OrthoOrbital Pt 19   dz2 \
	OrthoOrbital Pt 19   dxz \
	OrthoOrbital Pt 19   dx2-y2
dump End ElecDensity KEdensity BandEigs EigStats RhoAtom DOS Kpoints
dump Ionic State IonicPositions Lattice EigStats Ecomponents
dump 
dump 
dump 
dump 
dump 
dump 
dump 
dump 
dump-name jdft.$VAR
elec-cutoff 20
elec-eigen-algo Davidson
elec-ex-corr gga-PBE
elec-initial-magnetization 0.000000 no
elec-n-bands 183
elec-smearing Fermi 0.001
electronic-minimize  \
	dirUpdateScheme      FletcherReeves \
	linminMethod         DirUpdateRecommended \
	nIterations          100 \
	history              15 \
	knormThreshold       0 \
	energyDiffThreshold  1e-07 \
	nEnergyDiff          2 \
	alphaTstart          1 \
	alphaTmin            1e-10 \
	updateTestStepSize   yes \
	alphaTreduceFactor   0.1 \
	alphaTincreaseFactor 3 \
	nAlphaAdjustMax      3 \
	wolfeEnergy          0.0001 \
	wolfeGradient        0.9 \
	fdTest               no
exchange-regularization WignerSeitzTruncated
fluid LinearPCM 298.000000 1.013250
fluid-anion F- 0.5 MeanFieldLJ \
	epsBulk 1 \
	pMol 0 \
	epsInf 1 \
	Pvap 0 \
	sigmaBulk 0 \
	Rvdw 2.24877 \
	Res 0 \
	tauNuc 343133
fluid-cation Na+ 0.5 MeanFieldLJ \
	epsBulk 1 \
	pMol 0 \
	epsInf 1 \
	Pvap 0 \
	sigmaBulk 0 \
	Rvdw 2.19208 \
	Res 0 \
	tauNuc 343133
fluid-ex-corr lda-TF lda-PZ
fluid-gummel-loop 10 1.000000e-05
fluid-minimize  \
	dirUpdateScheme      PolakRibiere \
	linminMethod         DirUpdateRecommended \
	nIterations          400 \
	history              15 \
	knormThreshold       1e-11 \
	energyDiffThreshold  0 \
	nEnergyDiff          2 \
	alphaTstart          1 \
	alphaTmin            1e-10 \
	updateTestStepSize   yes \
	alphaTreduceFactor   0.1 \
	alphaTincreaseFactor 3 \
	nAlphaAdjustMax      6 \
	wolfeEnergy          0.0001 \
	wolfeGradient        0.9 \
	fdTest               no
fluid-solvent H2O 55.338 ScalarEOS \
	epsBulk 78.4 \
	pMol 0.92466 \
	epsInf 1.77 \
	Pvap 1.06736e-10 \
	sigmaBulk 4.62e-05 \
	Rvdw 2.61727 \
	Res 1.42 \
	tauNuc 343133 \
	poleEl 15 7 1
forces-output-coords Positions
ion Pt  -0.000002000000000   7.201812000000000  63.655619000000002 1
ion Pt   2.615997999999999   3.000756000000000  61.958122000000003 1
ion Pt   2.615995999999999  10.202567999999999  60.260688999999999 1
ion Pt   0.000000000000000   0.000000000000000  33.100931999999993 1
ion Pt  -0.000000000000000   6.001512000000000  58.563191999999994 1
ion Pt   2.615994999999999   1.800456000000000  56.865694999999995 1
ion Pt   2.615998999999999   9.002268000000001  55.168197999999990 1
ion Pt  -0.000002000000000   4.801212000000000  53.470702000000003 1
ion Pt   2.615998000000000   0.600156000000000  51.773268999999999 1
ion Pt   2.615995999999999   7.801968000000000  50.075771999999994 1
ion Pt   0.000003000000000   3.600900000000000  48.378274999999995 1
ion Pt   0.000001000000000  10.802712000000000  46.680777999999997 1
ion Pt   2.616001000000000   6.601656000000000  44.983280999999998 1
ion Pt  -0.000000000000000   2.400600000000000  43.285848999999999 1
ion Pt   0.000003000000000   9.602411999999999  41.588351999999993 1
ion Pt   2.615997999999999   5.401356000000000  39.890854999999995 1
ion Pt   0.000003000000000   1.200300000000000  38.193358000000003 1
ion Pt   0.000000999999999   8.402112000000001  36.495860999999998 1
ion Pt   2.616000999999999   4.201056000000000  34.798428999999992 1
ion-species /projects/musgravc/apps/jdftx-1.6.0/build/pseudopotentials/GBRV_v1.5/$ID_pbe_v1.uspp
ion-species /projects/musgravc/apps/jdftx-1.6.0/build/pseudopotentials/GBRV_v1.5/$ID_pbe_v1.2.uspp
ion-species /projects/musgravc/apps/jdftx-1.6.0/build/pseudopotentials/GBRV_v1.5/$ID_pbe_v1.4.uspp
ion-species /projects/musgravc/apps/jdftx-1.6.0/build/pseudopotentials/GBRV_v1.5/$ID_pbe_v1.5.uspp
ion-width Ecut
ionic-minimize  \
	dirUpdateScheme      L-BFGS \
	linminMethod         DirUpdateRecommended \
	nIterations          100 \
	history              15 \
	knormThreshold       0.0001 \
	energyDiffThreshold  1e-06 \
	nEnergyDiff          2 \
	alphaTstart          1 \
	alphaTmin            1e-10 \
	updateTestStepSize   yes \
	alphaTreduceFactor   0.1 \
	alphaTincreaseFactor 3 \
	nAlphaAdjustMax      3 \
	wolfeEnergy          0.0001 \
	wolfeGradient        0.9 \
	fdTest               no
kpoint   0.000000000000   0.000000000000   0.000000000000  1.00000000000000
kpoint-folding 11 5 1 
latt-move-scale 0 0 0
latt-scale 1 1 1 
lattice  \
	   5.231996000000000   -2.615997000000000    0.000000000000000  \
	   0.000000000000000   11.402868000000000    0.000000000000000  \
	   0.000000000000000    0.000000000000000   64.504367000000002 
lattice-minimize  \
	dirUpdateScheme      L-BFGS \
	linminMethod         DirUpdateRecommended \
	nIterations          0 \
	history              15 \
	knormThreshold       0 \
	energyDiffThreshold  1e-06 \
	nEnergyDiff          2 \
	alphaTstart          1 \
	alphaTmin            1e-10 \
	updateTestStepSize   yes \
	alphaTreduceFactor   0.1 \
	alphaTincreaseFactor 3 \
	nAlphaAdjustMax      3 \
	wolfeEnergy          0.0001 \
	wolfeGradient        0.9 \
	fdTest               no
lcao-params 30 1e-06 0.001
pcm-variant CANDLE
spintype z-spin
subspace-rotation-factor 1 yes
symmetries none
symmetry-threshold 0.0001
van-der-waals D3


Applied RMS atom displacement 0 bohrs to make symmetries exact.

---------- Initializing the Grid ----------
R = 
[        5.232       -2.616            0  ]
[            0      11.4029            0  ]
[            0            0      64.5044  ]
unit cell volume = 3848.32
G =
[    1.20092   0.275509         -0  ]
[          0   0.551018          0  ]
[          0         -0  0.0974071  ]
Minimum fftbox size, Smin = [  24  48  260  ]
Chosen fftbox size, S = [  24  48  270  ]

---------- Exchange Correlation functional ----------
Initalized PBE GGA exchange.
Initalized PBE GGA correlation.

---------- Setting up pseudopotentials ----------
Width of ionic core gaussian charges (only for fluid interactions / plotting) set to 0.397384

Reading pseudopotential file '/projects/musgravc/apps/jdftx-1.6.0/build/pseudopotentials/GBRV_v1.5/pt_pbe_v1.4.uspp':
  Title: Pt.  Created by USPP 7.3.6 on 31-3-15
  Reference state energy: -105.002503.  16 valence electrons in orbitals:
    |510>  occupation: 6  eigenvalue: -2.158104
    |520>  occupation: 9.5  eigenvalue: -0.335376
    |600>  occupation: 0  eigenvalue: -0.319640
    |610>  occupation: 0  eigenvalue: -0.122947
  lMax: 2  lLocal: 3  QijEcut: 5.5
  6 projectors sampled on a log grid with 745 points:
    l: 0  eig: -0.319640  rCut: 2.45
    l: 0  eig: 1.500000  rCut: 2.45
    l: 1  eig: -2.158104  rCut: 1.6
    l: 1  eig: -0.122947  rCut: 1.6
    l: 2  eig: -0.500000  rCut: 1.6
    l: 2  eig: -0.335375  rCut: 1.6
  Partial core density with radius 1.1
  Transforming core density to a uniform radial grid of dG=0.02 with 1284 points.
  Transforming local potential to a uniform radial grid of dG=0.02 with 1284 points.
  Transforming nonlocal projectors to a uniform radial grid of dG=0.02 with 432 points.
  Transforming density augmentations to a uniform radial grid of dG=0.02 with 1284 points.
  Transforming atomic orbitals to a uniform radial grid of dG=0.02 with 432 points.
  Core radius for overlap checks: 2.45 bohrs.

Initialized 1 species with 19 total atoms.

Folded 1 k-points by 11x5x1 to 55 k-points.

---------- Setting up k-points, bands, fillings ----------
No reducable k-points. 
Computing the number of bands and number of electrons
Calculating initial fillings.
nElectrons: 304.000000   nBands: 183   nStates: 110

----- Setting up reduced wavefunction bases (one per k-point) -----
average nbasis = 16439.073 , ideal nbasis = 16440.295

----- Initializing Supercell corresponding to k-point mesh -----
Lattice vector linear combinations in supercell:
[  11   0   0  ]
[   0   5   0  ]
[   0   0   1  ]
Supercell lattice vectors:
[  57.552  -13.08  0  ]
[  0  57.0143  0  ]
[  0  0  64.5044  ]

Initializing DFT-D3 calculator:
	Parameters set for gga-PBE functional
	s6:  1.000  s_r6:  1.217
	s8:  0.722  s_r8:  1.000
	Per-atom parameters loaded for:
	Pt:  sqrtQ[a0]:  5.888  Rcov[a0]:  2.116  CN: [ 0.00 1.92 6.67 ]

Initializing DFT-D2 calculator for fluid / solvation:
	Pt:  C6:  815.23 Eh-a0^6  R0: 3.326 a0 (WARNING: beyond Grimme's data set)

---------- Setting up ewald sum ----------
Optimum gaussian width for ewald sums = 3.827143 bohr.
Real space sum over 1045 unit cells with max indices [  9  5  2  ]
Reciprocal space sum over 6435 terms with max indices [  4  6  27  ]

Computing DFT-D3 correction:
# coordination-number Pt 5.564 7.155 8.721 5.564 9.546 9.555 9.561 9.563 9.563 9.564 9.564 9.564 9.563 9.563 9.561 9.555 9.546 8.721 7.155
# diagonal-C6 Pt 336.87 336.87 336.87 336.87 336.87 336.87 336.87 336.87 336.87 336.87 336.87 336.87 336.87 336.87 336.87 336.87 336.87 336.87 336.87
EvdW_6 =   -0.179231
EvdW_8 =   -0.282349

---------- Allocating electronic variables ----------
Initializing wave functions:  linear combination of atomic orbitals
Pt pseudo-atom occupations:   s ( 0 )  p ( 6 0 )  d ( 10 )
	FillingsUpdate:  mu: -1.111973041  nElectrons: 304.000000  magneticMoment: [ Abs: 0.00247  Tot: +0.00020 ]
LCAOMinimize: Iter:   0  F: -1679.7892109299907588  |grad|_K:  1.631e-02  alpha:  1.000e+00
LCAOMinimize: 	Step increased F by 7.258142e+02, reducing alpha to 1.980386e-02.
LCAOMinimize: 	Step increased F by 2.580202e+00, reducing alpha to 1.980386e-03.
	FillingsUpdate:  mu: -0.993602576  nElectrons: 304.000000  magneticMoment: [ Abs: 0.00240  Tot: +0.00015 ]
LCAOMinimize: Iter:   1  F: -1682.6236274104994664  |grad|_K:  1.352e-02  alpha:  1.980e-03  linmin: -1.515e-01  cgtest:  9.582e-01  t[s]:    169.77
LCAOMinimize: Encountered beta<0, resetting CG.
LCAOMinimize: 	Predicted alpha/alphaT>3.000000, increasing alphaT to 5.941158e-03.
	FillingsUpdate:  mu: +0.374151638  nElectrons: 304.000000  magneticMoment: [ Abs: 0.00213  Tot: +0.00010 ]
LCAOMinimize: Iter:   2  F: -1687.3161998706664235  |grad|_K:  5.448e-03  alpha:  1.131e-02  linmin:  1.139e-01  cgtest: -7.913e-01  t[s]:    223.04
	FillingsUpdate:  mu: +0.477641106  nElectrons: 304.000000  magneticMoment: [ Abs: 0.00208  Tot: +0.00006 ]
LCAOMinimize: Iter:   3  F: -1687.3772231992479647  |grad|_K:  6.117e-03  alpha:  3.863e-03  linmin: -1.047e-03  cgtest:  9.775e-01  t[s]:    265.65
LCAOMinimize: 	Predicted alpha/alphaT>3.000000, increasing alphaT to 1.158871e-02.
	FillingsUpdate:  mu: -0.079856473  nElectrons: 304.000000  magneticMoment: [ Abs: 0.00201  Tot: +0.00006 ]
LCAOMinimize: Iter:   4  F: -1688.5872484310082200  |grad|_K:  2.590e-03  alpha:  1.103e-02  linmin:  5.879e-02  cgtest: -3.863e-01  t[s]:    319.20
	FillingsUpdate:  mu: +0.106500360  nElectrons: 304.000000  magneticMoment: [ Abs: 0.00181  Tot: +0.00002 ]
LCAOMinimize: Iter:   5  F: -1689.0236293855316489  |grad|_K:  2.569e-03  alpha:  3.128e-02  linmin:  2.111e-03  cgtest:  6.305e-01  t[s]:    361.88
	FillingsUpdate:  mu: +0.243145744  nElectrons: 304.000000  magneticMoment: [ Abs: 0.00177  Tot: +0.00002 ]
LCAOMinimize: Iter:   6  F: -1689.2024181188114653  |grad|_K:  1.508e-03  alpha:  9.018e-03  linmin: -8.939e-03  cgtest:  1.005e-01  t[s]:    404.31
LCAOMinimize: 	Predicted alpha/alphaT>3.000000, increasing alphaT to 2.705257e-02.
	FillingsUpdate:  mu: +0.169331294  nElectrons: 304.000000  magneticMoment: [ Abs: 0.00158  Tot: -0.00004 ]
LCAOMinimize: Iter:   7  F: -1689.5781585670251843  |grad|_K:  1.154e-03  alpha:  5.789e-02  linmin:  5.495e-03  cgtest: -1.624e-01  t[s]:    457.74
	FillingsUpdate:  mu: +0.341455888  nElectrons: 304.000000  magneticMoment: [ Abs: 0.00140  Tot: +0.00006 ]
LCAOMinimize: Iter:   8  F: -1689.7673343008536904  |grad|_K:  3.534e-03  alpha:  5.069e-02  linmin:  2.744e-04  cgtest:  3.825e-02  t[s]:    500.32
	FillingsUpdate:  mu: +0.408234740  nElectrons: 304.000000  magneticMoment: [ Abs: 0.00112  Tot: +0.00008 ]
LCAOMinimize: Iter:   9  F: -1689.8605799925519477  |grad|_K:  4.242e-03  alpha:  1.007e-02  linmin:  1.327e-02  cgtest: -6.721e-01  t[s]:    542.71
LCAOMinimize: 	Bad step direction: g.d > 0.
LCAOMinimize: 	Undoing step.
LCAOMinimize: 	Step failed: resetting search direction.
	FillingsUpdate:  mu: +0.408234740  nElectrons: 304.000000  magneticMoment: [ Abs: 0.00112  Tot: +0.00008 ]
LCAOMinimize: Iter:  10  F: -1689.8605799925519477  |grad|_K:  4.242e-03  alpha:  0.000e+00
	FillingsUpdate:  mu: +0.362214657  nElectrons: 304.000000  magneticMoment: [ Abs: 0.00111  Tot: +0.00009 ]
LCAOMinimize: Iter:  11  F: -1690.0235999769174668  |grad|_K:  1.597e-03  alpha:  2.955e-03  linmin: -2.002e-02  cgtest:  1.189e-01  t[s]:    616.59
	FillingsUpdate:  mu: +0.363171615  nElectrons: 304.000000  magneticMoment: [ Abs: 0.00111  Tot: +0.00008 ]
LCAOMinimize: Iter:  12  F: -1690.0701715200495983  |grad|_K:  4.593e-04  alpha:  6.172e-03  linmin:  8.397e-03  cgtest: -1.496e-01  t[s]:    659.44
	FillingsUpdate:  mu: +0.387537503  nElectrons: 304.000000  magneticMoment: [ Abs: 0.00110  Tot: +0.00008 ]
LCAOMinimize: Iter:  13  F: -1690.0764343722148624  |grad|_K:  7.603e-04  alpha:  1.050e-02  linmin:  3.439e-05  cgtest:  1.542e-02  t[s]:    701.87
	FillingsUpdate:  mu: +0.377555130  nElectrons: 304.000000  magneticMoment: [ Abs: 0.00106  Tot: +0.00007 ]
LCAOMinimize: Iter:  14  F: -1690.1230449713627877  |grad|_K:  8.047e-04  alpha:  2.829e-02  linmin:  1.376e-03  cgtest: -9.737e-02  t[s]:    744.46
	FillingsUpdate:  mu: +0.330862634  nElectrons: 304.000000  magneticMoment: [ Abs: 0.00105  Tot: +0.00006 ]
LCAOMinimize: Iter:  15  F: -1690.1342854102424553  |grad|_K:  5.377e-04  alpha:  6.530e-03  linmin:  2.282e-03  cgtest:  1.273e-02  t[s]:    786.95
	FillingsUpdate:  mu: +0.304910781  nElectrons: 304.000000  magneticMoment: [ Abs: 0.00104  Tot: +0.00006 ]
LCAOMinimize: Iter:  16  F: -1690.1383037423915994  |grad|_K:  3.601e-04  alpha:  5.013e-03  linmin: -8.831e-05  cgtest:  5.109e-02  t[s]:    829.68
LCAOMinimize: 	Predicted alpha/alphaT>3.000000, increasing alphaT to 1.503888e-02.
LCAOMinimize: 	Predicted alpha/alphaT>3.000000, increasing alphaT to 4.511664e-02.
	FillingsUpdate:  mu: +0.326303303  nElectrons: 304.000000  magneticMoment: [ Abs: 0.00100  Tot: +0.00009 ]
LCAOMinimize: Iter:  17  F: -1690.1636794254743563  |grad|_K:  1.171e-03  alpha:  6.791e-02  linmin:  6.658e-05  cgtest: -7.857e-02  t[s]:    894.06
	FillingsUpdate:  mu: +0.293870408  nElectrons: 304.000000  magneticMoment: [ Abs: 0.00096  Tot: +0.00009 ]
LCAOMinimize: Iter:  18  F: -1690.1869835325410349  |grad|_K:  5.828e-04  alpha:  5.196e-03  linmin: -4.020e-03  cgtest:  2.287e-01  t[s]:    936.49
	FillingsUpdate:  mu: +0.306862357  nElectrons: 304.000000  magneticMoment: [ Abs: 0.00095  Tot: +0.00008 ]
LCAOMinimize: Iter:  19  F: -1690.1940178134034340  |grad|_K:  2.466e-04  alpha:  6.764e-03  linmin:  9.362e-04  cgtest: -1.309e-01  t[s]:    979.03
	FillingsUpdate:  mu: +0.311906656  nElectrons: 304.000000  magneticMoment: [ Abs: 0.00095  Tot: +0.00008 ]
LCAOMinimize: Iter:  20  F: -1690.1952422823403595  |grad|_K:  3.056e-04  alpha:  7.042e-03  linmin:  1.020e-04  cgtest:  2.160e-02  t[s]:   1021.45
	FillingsUpdate:  mu: +0.293259288  nElectrons: 304.000000  magneticMoment: [ Abs: 0.00094  Tot: +0.00009 ]
LCAOMinimize: Iter:  21  F: -1690.2002716417739521  |grad|_K:  1.631e-04  alpha:  1.890e-02  linmin:  1.861e-03  cgtest: -7.506e-02  t[s]:   1063.81
	FillingsUpdate:  mu: +0.288579027  nElectrons: 304.000000  magneticMoment: [ Abs: 0.00094  Tot: +0.00009 ]
LCAOMinimize: Iter:  22  F: -1690.2010602337413729  |grad|_K:  2.165e-04  alpha:  1.046e-02  linmin: -4.870e-05  cgtest:  1.697e-02  t[s]:   1106.52
	FillingsUpdate:  mu: +0.284704878  nElectrons: 304.000000  magneticMoment: [ Abs: 0.00093  Tot: +0.00009 ]
LCAOMinimize: Iter:  23  F: -1690.2022442319387210  |grad|_K:  2.389e-04  alpha:  8.739e-03  linmin:  8.805e-05  cgtest: -1.776e-02  t[s]:   1149.26
	FillingsUpdate:  mu: +0.296403840  nElectrons: 304.000000  magneticMoment: [ Abs: 0.00092  Tot: +0.00010 ]
LCAOMinimize: Iter:  24  F: -1690.2047061764276350  |grad|_K:  1.217e-04  alpha:  1.487e-02  linmin: -1.302e-03  cgtest:  8.788e-02  t[s]:   1191.63
	FillingsUpdate:  mu: +0.301353687  nElectrons: 304.000000  magneticMoment: [ Abs: 0.00092  Tot: +0.00010 ]
LCAOMinimize: Iter:  25  F: -1690.2050301724682413  |grad|_K:  1.419e-04  alpha:  7.488e-03  linmin:  4.581e-05  cgtest: -1.598e-02  t[s]:   1234.11
	FillingsUpdate:  mu: +0.306487802  nElectrons: 304.000000  magneticMoment: [ Abs: 0.00092  Tot: +0.00011 ]
LCAOMinimize: Iter:  26  F: -1690.2055157045933811  |grad|_K:  1.132e-04  alpha:  8.378e-03  linmin:  3.090e-04  cgtest:  2.065e-02  t[s]:   1276.38
	FillingsUpdate:  mu: +0.301349044  nElectrons: 304.000000  magneticMoment: [ Abs: 0.00092  Tot: +0.00011 ]
LCAOMinimize: Iter:  27  F: -1690.2060108572734407  |grad|_K:  9.248e-05  alpha:  1.349e-02  linmin:  1.849e-04  cgtest:  4.639e-03  t[s]:   1318.84
	FillingsUpdate:  mu: +0.304076379  nElectrons: 304.000000  magneticMoment: [ Abs: 0.00092  Tot: +0.00012 ]
LCAOMinimize: Iter:  28  F: -1690.2066117724430114  |grad|_K:  2.231e-04  alpha:  2.444e-02  linmin:  3.995e-05  cgtest: -2.514e-04  t[s]:   1361.36
	FillingsUpdate:  mu: +0.303319324  nElectrons: 304.000000  magneticMoment: [ Abs: 0.00091  Tot: +0.00014 ]
LCAOMinimize: Iter:  29  F: -1690.2075598567087127  |grad|_K:  6.233e-05  alpha:  6.642e-03  linmin:  1.964e-04  cgtest: -9.877e-03  t[s]:   1403.64
	FillingsUpdate:  mu: +0.306425171  nElectrons: 304.000000  magneticMoment: [ Abs: 0.00091  Tot: +0.00014 ]
LCAOMinimize: Iter:  30  F: -1690.2076344199213054  |grad|_K:  2.390e-05  alpha:  6.672e-03  linmin:  7.717e-06  cgtest:  6.594e-03  t[s]:   1446.85
LCAOMinimize: None of the convergence criteria satisfied after 30 iterations.
----- createFluidSolver() ----- (Fluid-side solver setup)
   Initializing fluid molecule 'H2O'
     Initializing site 'O'
       Electron density: proportional to exp(-r/0.36935)*erfc((r-0.51523)/0.36823) with norm 6.826
       Charge density: gaussian nuclear width 0.478731 with net site charge 0.826
       Polarizability: cuspless exponential with width 0.32 and norm 3.73
       Hard sphere radius: 2.57003 bohrs
       Positions in reference frame:
         [ +0.000000 +0.000000 +0.000000 ]
     Initializing site 'H'
       Electron density: proportional to exp(-r/0.34641)*erfc((r-0)/0.390882) with norm 0.587
       Charge density: gaussian nuclear width 0.377945 with net site charge -0.413
       Polarizability: cuspless exponential with width 0.39 and norm 3.3
       Positions in reference frame:
         [ +0.000000 -1.441945 +1.122523 ]
         [ +0.000000 +1.441945 +1.122523 ]
     Net charge: 0   dipole magnitude: 0.927204
     Initializing spherical shell mfKernel with radius 2.61727 Bohr
     deltaS corrections:
       site 'O': -7.54299
       site 'H': -6.83917
   Initializing fluid molecule 'Na+'
     Initializing site 'Na'
       Electron density: proportional to exp(-r/0.19682)*erfc((r-0.71491)/0.41314) with norm 8.1383
       Charge density: gaussian nuclear width 0.365347 with net site charge -1
       Hard sphere radius: 1.86327 bohrs
       Positions in reference frame:
         [ +0.000000 +0.000000 +0.000000 ]
     Net charge: -1   dipole magnitude: 0
     Initializing gaussian mfKernel with width: 1.55004 Bohr
     deltaS corrections:
       site 'Na': -22.3555
   Initializing fluid molecule 'F-'
     Initializing site 'F'
       Electron density: proportional to exp(-r/0.38886)*erfc((r-0)/0.438782) with norm 8
       Charge density: gaussian nuclear width 0.374796 with net site charge 1
       Hard sphere radius: 2.39995 bohrs
       Positions in reference frame:
         [ +0.000000 +0.000000 +0.000000 ]
     Net charge: 1   dipole magnitude: 0
     Initializing gaussian mfKernel with width: 1.59012 Bohr
     deltaS corrections:
       site 'F': -9.04335

Correction to mu due to finite nuclear width = -0.0783795
   Cavity determined by nc: 0.00142 and sigma: 0.707107
   Nonlocal vdW cavity from gaussian model electron density with norm = 8 and sigma = 0.993594 bohr
   Charge asymmetry in cavity with sensitivity pCavity = 36.5 e-bohr/Eh
   Electrostatic cavity expanded by eta = 1.46 bohrs
   Weighted density cavitation model constrained by Nbulk: 0.0049383 bohr^-3, Pvap: 3.14029 kPa, Rvdw: 2.61727 bohr and sigmaBulk: 4.62e-05 Eh/bohr^2 at T: 298 K.
   Weighted density dispersion model using vdW pair potentials with single solvent site with sqrtC6eff: 0.77 SI.


---- Citations for features of the code used in this run ----

   Software package:
      R. Sundararaman, K. Letchworth-Weaver, K.A. Schwarz, D. Gunceler, Y. Ozhabes and T.A. Arias, 'JDFTx: software for joint density-functional theory', SoftwareX 6, 278 (2017)

   gga-PBE exchange-correlation functional:
      J.P. Perdew, K. Burke and M. Ernzerhof, Phys. Rev. Lett. 77, 3865 (1996)

   Pseudopotentials:
      KF Garrity, JW Bennett, KM Rabe and D Vanderbilt, Comput. Mater. Sci. 81, 446 (2014)

   DFT-D3 dispersion correction:
      S. Grimme, J. Antony, S. Ehrlich and H. Krieg, J. Chem. Phys. 132, 154104 (2010)

   DFT-D2 dispersion correction:
      S. Grimme, J. Comput. Chem. 27, 1787 (2006)

   Charge-asymmetric nonlocally-determined local-electric (CANDLE) solvation model:
      R. Sundararaman and W.A. Goddard III, J. Chem. Phys. 142, 064107 (2015)

   Total energy minimization with Auxiliary Hamiltonian:
      C. Freysoldt, S. Boeck, and J. Neugebauer, Phys. Rev. B 79, 241103(R) (2009)

   Linear-tetrahedron sampling for density of states:
      G. Lehmann and M. Taut, Phys. status solidi (b) 54, 469 (1972)

This list may not be complete. Please suggest additional citations or
report any other bugs at https://github.com/shankar1729/jdftx/issues

Initialization completed successfully at t[s]:   1457.56


Computing DFT-D3 correction:
# coordination-number Pt 5.564 7.155 8.721 5.564 9.546 9.555 9.561 9.563 9.563 9.564 9.564 9.564 9.563 9.563 9.561 9.555 9.546 8.721 7.155
# diagonal-C6 Pt 336.87 336.87 336.87 336.87 336.87 336.87 336.87 336.87 336.87 336.87 336.87 336.87 336.87 336.87 336.87 336.87 336.87 336.87 336.87
EvdW_6 =   -0.179231
EvdW_8 =   -0.282349
Fluid solver invoked on fresh (random / LCAO) wavefunctions
Running a vacuum solve first:

-------- Initial electronic minimization -----------
	FillingsUpdate:  mu: +0.306425621  nElectrons: 304.000000  magneticMoment: [ Abs: 0.00091  Tot: +0.00014 ]
ElecMinimize: Iter:   0  F: -1690.207634419921533  |grad|_K:  3.796e-05  alpha:  1.000e+00
	FillingsUpdate:  mu: +0.418718015  nElectrons: 304.000000  magneticMoment: [ Abs: 0.00076  Tot: +0.00016 ]
	SubspaceRotationAdjust: set factor to 0.505
ElecMinimize: Iter:   1  F: -1690.374486988352828  |grad|_K:  1.944e-04  alpha:  3.493e-01  linmin:  1.292e-05  t[s]:   1553.85
ElecMinimize: 	Step increased F by 1.261485e-01, reducing alpha to 8.766483e-04.
	FillingsUpdate:  mu: +0.388655533  nElectrons: 304.000000  magneticMoment: [ Abs: 0.00075  Tot: +0.00016 ]
	SubspaceRotationAdjust: set factor to 0.262
ElecMinimize: Iter:   2  F: -1690.393034510259895  |grad|_K:  9.603e-05  alpha:  8.766e-04  linmin: -3.893e-03  t[s]:   1653.63
ElecMinimize: 	Predicted alpha/alphaT>3.000000, increasing alphaT to 2.629945e-03.
	FillingsUpdate:  mu: +0.334413949  nElectrons: 304.000000  magneticMoment: [ Abs: 0.00074  Tot: +0.00017 ]
	SubspaceRotationAdjust: set factor to 0.115
	SubspaceRotationAdjust: resetting CG because factor has changed by 0.114635
ElecMinimize: 	State modified externally: resetting search direction.
ElecMinimize: Iter:   3  F: -1690.409032601114404  |grad|_K:  1.864e-05  alpha:  3.095e-03
ElecMinimize: 	Predicted alpha/alphaT>3.000000, increasing alphaT to 9.284699e-03.
ElecMinimize: 	Predicted alpha/alphaT>3.000000, increasing alphaT to 2.785410e-02.
ElecMinimize: 	Predicted alpha/alphaT>3.000000, increasing alphaT to 8.356229e-02.
	FillingsUpdate:  mu: +0.371720864  nElectrons: 304.000000  magneticMoment: [ Abs: 0.00068  Tot: +0.00016 ]
	SubspaceRotationAdjust: set factor to 0.0636
ElecMinimize: Iter:   4  F: -1690.430819267545985  |grad|_K:  3.625e-05  alpha:  1.878e-01  linmin: -1.792e-04  t[s]:   1853.44
	FillingsUpdate:  mu: +0.331586344  nElectrons: 304.000000  magneticMoment: [ Abs: 0.00062  Tot: +0.00016 ]
	SubspaceRotationAdjust: set factor to 0.0403
ElecMinimize: Iter:   5  F: -1690.447572633090658  |grad|_K:  1.235e-05  alpha:  3.803e-02  linmin: -6.553e-05  t[s]:   1914.04
ElecMinimize: 	Predicted alpha/alphaT>3.000000, increasing alphaT to 1.140931e-01.
	FillingsUpdate:  mu: +0.313727842  nElectrons: 304.000000  magneticMoment: [ Abs: 0.00049  Tot: +0.00016 ]
	SubspaceRotationAdjust: set factor to 0.0354
ElecMinimize: Iter:   6  F: -1690.464309681294253  |grad|_K:  1.125e-05  alpha:  3.286e-01  linmin: -1.074e-04  t[s]:   1990.13
	FillingsUpdate:  mu: +0.324953828  nElectrons: 304.000000  magneticMoment: [ Abs: 0.00044  Tot: +0.00016 ]
	SubspaceRotationAdjust: set factor to 0.0274
ElecMinimize: Iter:   7  F: -1690.470077919483174  |grad|_K:  8.450e-06  alpha:  1.366e-01  linmin:  2.692e-05  t[s]:   2050.87
	FillingsUpdate:  mu: +0.328586259  nElectrons: 304.000000  magneticMoment: [ Abs: 0.00041  Tot: +0.00016 ]
	SubspaceRotationAdjust: set factor to 0.0202
ElecMinimize: Iter:   8  F: -1690.472804227668121  |grad|_K:  3.841e-06  alpha:  1.148e-01  linmin:  8.932e-06  t[s]:   2111.69
	FillingsUpdate:  mu: +0.329544885  nElectrons: 304.000000  magneticMoment: [ Abs: 0.00037  Tot: +0.00016 ]
	SubspaceRotationAdjust: set factor to 0.021
ElecMinimize: Iter:   9  F: -1690.474409818853474  |grad|_K:  3.281e-06  alpha:  3.272e-01  linmin:  8.090e-07  t[s]:   2172.28
	FillingsUpdate:  mu: +0.324189764  nElectrons: 304.000000  magneticMoment: [ Abs: 0.00035  Tot: +0.00016 ]
	SubspaceRotationAdjust: set factor to 0.0155
	SubspaceRotationAdjust: resetting CG because factor has changed by 0.135122
ElecMinimize: 	State modified externally: resetting search direction.
ElecMinimize: Iter:  10  F: -1690.475078408165018  |grad|_K:  2.319e-06  alpha:  1.868e-01
	FillingsUpdate:  mu: +0.324508438  nElectrons: 304.000000  magneticMoment: [ Abs: 0.00034  Tot: +0.00016 ]
	SubspaceRotationAdjust: set factor to 0.0142
ElecMinimize: Iter:  11  F: -1690.475557638906139  |grad|_K:  1.415e-06  alpha:  2.678e-01  linmin: -3.449e-06  t[s]:   2324.78
	FillingsUpdate:  mu: +0.323660275  nElectrons: 304.000000  magneticMoment: [ Abs: 0.00033  Tot: +0.00016 ]
	SubspaceRotationAdjust: set factor to 0.0114
ElecMinimize: Iter:  12  F: -1690.475757805950479  |grad|_K:  1.143e-06  alpha:  3.004e-01  linmin: -1.768e-06  t[s]:   2385.19
	FillingsUpdate:  mu: +0.322361404  nElectrons: 304.000000  magneticMoment: [ Abs: 0.00032  Tot: +0.00015 ]
	SubspaceRotationAdjust: set factor to 0.0138
ElecMinimize: Iter:  13  F: -1690.476038180214800  |grad|_K:  8.874e-07  alpha:  6.451e-01  linmin:  1.397e-05  t[s]:   2445.63
	FillingsUpdate:  mu: +0.323530534  nElectrons: 304.000000  magneticMoment: [ Abs: 0.00031  Tot: +0.00015 ]
	SubspaceRotationAdjust: set factor to 0.0165
ElecMinimize: Iter:  14  F: -1690.476176828255120  |grad|_K:  8.404e-07  alpha:  5.297e-01  linmin: -8.717e-08  t[s]:   2506.37
	FillingsUpdate:  mu: +0.324032217  nElectrons: 304.000000  magneticMoment: [ Abs: 0.00031  Tot: +0.00015 ]
	SubspaceRotationAdjust: set factor to 0.0131
ElecMinimize: Iter:  15  F: -1690.476357240511106  |grad|_K:  1.185e-06  alpha:  7.678e-01  linmin:  5.481e-06  t[s]:   2566.98
	FillingsUpdate:  mu: +0.322857281  nElectrons: 304.000000  magneticMoment: [ Abs: 0.00031  Tot: +0.00015 ]
	SubspaceRotationAdjust: set factor to 0.0107
ElecMinimize: Iter:  16  F: -1690.476493033754650  |grad|_K:  8.880e-07  alpha:  2.909e-01  linmin:  6.641e-06  t[s]:   2627.50
	FillingsUpdate:  mu: +0.321209156  nElectrons: 304.000000  magneticMoment: [ Abs: 0.00031  Tot: +0.00015 ]
	SubspaceRotationAdjust: set factor to 0.012
ElecMinimize: Iter:  17  F: -1690.476710296194369  |grad|_K:  1.130e-06  alpha:  8.319e-01  linmin:  1.395e-05  t[s]:   2687.96
	FillingsUpdate:  mu: +0.320184098  nElectrons: 304.000000  magneticMoment: [ Abs: 0.00029  Tot: +0.00014 ]
	SubspaceRotationAdjust: set factor to 0.0117
ElecMinimize: Iter:  18  F: -1690.477116228345949  |grad|_K:  1.683e-06  alpha:  9.619e-01  linmin:  3.216e-06  t[s]:   2748.52
	FillingsUpdate:  mu: +0.318116831  nElectrons: 304.000000  magneticMoment: [ Abs: 0.00028  Tot: +0.00014 ]
	SubspaceRotationAdjust: set factor to 0.00907
ElecMinimize: Iter:  19  F: -1690.477510590631027  |grad|_K:  1.451e-06  alpha:  4.207e-01  linmin:  2.723e-06  t[s]:   2809.28
	FillingsUpdate:  mu: +0.316938011  nElectrons: 304.000000  magneticMoment: [ Abs: 0.00027  Tot: +0.00014 ]
	SubspaceRotationAdjust: set factor to 0.00976
ElecMinimize: Iter:  20  F: -1690.477863849886944  |grad|_K:  1.050e-06  alpha:  5.050e-01  linmin: -6.442e-06  t[s]:   2869.85
	FillingsUpdate:  mu: +0.317045747  nElectrons: 304.000000  magneticMoment: [ Abs: 0.00024  Tot: +0.00014 ]
	SubspaceRotationAdjust: set factor to 0.00951
ElecMinimize: Iter:  21  F: -1690.478069925398586  |grad|_K:  8.942e-07  alpha:  5.597e-01  linmin: -6.188e-06  t[s]:   2930.57
	FillingsUpdate:  mu: +0.316487406  nElectrons: 304.000000  magneticMoment: [ Abs: 0.00023  Tot: +0.00014 ]
	SubspaceRotationAdjust: set factor to 0.00765
ElecMinimize: Iter:  22  F: -1690.478182026042077  |grad|_K:  6.785e-07  alpha:  4.203e-01  linmin: -1.824e-06  t[s]:   2990.98
	FillingsUpdate:  mu: +0.315798219  nElectrons: 304.000000  magneticMoment: [ Abs: 0.00021  Tot: +0.00014 ]
	SubspaceRotationAdjust: set factor to 0.00824
ElecMinimize: Iter:  23  F: -1690.478255007288681  |grad|_K:  4.776e-07  alpha:  4.760e-01  linmin: -5.775e-07  t[s]:   3051.83
	FillingsUpdate:  mu: +0.315789706  nElectrons: 304.000000  magneticMoment: [ Abs: 0.00021  Tot: +0.00014 ]
	SubspaceRotationAdjust: set factor to 0.00915
ElecMinimize: Iter:  24  F: -1690.478296332696573  |grad|_K:  3.665e-07  alpha:  5.443e-01  linmin:  5.888e-07  t[s]:   3112.75
	FillingsUpdate:  mu: +0.315858427  nElectrons: 304.000000  magneticMoment: [ Abs: 0.00021  Tot: +0.00014 ]
	SubspaceRotationAdjust: set factor to 0.00917
ElecMinimize: Iter:  25  F: -1690.478316143432266  |grad|_K:  2.700e-07  alpha:  4.433e-01  linmin:  4.262e-08  t[s]:   3173.59
	FillingsUpdate:  mu: +0.315795929  nElectrons: 304.000000  magneticMoment: [ Abs: 0.00021  Tot: +0.00014 ]
	SubspaceRotationAdjust: set factor to 0.0105
ElecMinimize: Iter:  26  F: -1690.478329411558661  |grad|_K:  2.509e-07  alpha:  5.471e-01  linmin:  3.312e-08  t[s]:   3234.82
	FillingsUpdate:  mu: +0.315748135  nElectrons: 304.000000  magneticMoment: [ Abs: 0.00021  Tot: +0.00014 ]
	SubspaceRotationAdjust: set factor to 0.0125
ElecMinimize: Iter:  27  F: -1690.478345201556522  |grad|_K:  2.731e-07  alpha:  7.539e-01  linmin:  4.726e-07  t[s]:   3295.79
	FillingsUpdate:  mu: +0.315859104  nElectrons: 304.000000  magneticMoment: [ Abs: 0.00021  Tot: +0.00014 ]
	SubspaceRotationAdjust: set factor to 0.0133
ElecMinimize: Iter:  28  F: -1690.478362014405320  |grad|_K:  3.050e-07  alpha:  6.776e-01  linmin:  8.062e-07  t[s]:   3356.69
	FillingsUpdate:  mu: +0.315777974  nElectrons: 304.000000  magneticMoment: [ Abs: 0.00021  Tot: +0.00014 ]
	SubspaceRotationAdjust: set factor to 0.0118
ElecMinimize: Iter:  29  F: -1690.478377619602725  |grad|_K:  3.277e-07  alpha:  5.046e-01  linmin:  1.058e-06  t[s]:   3417.48
	FillingsUpdate:  mu: +0.315641801  nElectrons: 304.000000  magneticMoment: [ Abs: 0.00021  Tot: +0.00014 ]
	SubspaceRotationAdjust: set factor to 0.0114
ElecMinimize: Iter:  30  F: -1690.478396836321963  |grad|_K:  3.033e-07  alpha:  5.382e-01  linmin:  4.810e-07  t[s]:   3478.12
	FillingsUpdate:  mu: +0.315885763  nElectrons: 304.000000  magneticMoment: [ Abs: 0.00021  Tot: +0.00014 ]
	SubspaceRotationAdjust: set factor to 0.0125
ElecMinimize: Iter:  31  F: -1690.478417451512996  |grad|_K:  2.879e-07  alpha:  6.736e-01  linmin:  3.259e-08  t[s]:   3539.08
	FillingsUpdate:  mu: +0.315932100  nElectrons: 304.000000  magneticMoment: [ Abs: 0.00021  Tot: +0.00014 ]
	SubspaceRotationAdjust: set factor to 0.0129
ElecMinimize: Iter:  32  F: -1690.478434612177352  |grad|_K:  2.728e-07  alpha:  6.222e-01  linmin: -6.976e-07  t[s]:   3599.99
	FillingsUpdate:  mu: +0.316026063  nElectrons: 304.000000  magneticMoment: [ Abs: 0.00021  Tot: +0.00014 ]
	SubspaceRotationAdjust: set factor to 0.0115
ElecMinimize: Iter:  33  F: -1690.478446131315877  |grad|_K:  2.503e-07  alpha:  4.648e-01  linmin: -4.011e-07  t[s]:   3660.65
	FillingsUpdate:  mu: +0.316140515  nElectrons: 304.000000  magneticMoment: [ Abs: 0.00020  Tot: +0.00014 ]
	SubspaceRotationAdjust: set factor to 0.0111
ElecMinimize: Iter:  34  F: -1690.478454538232199  |grad|_K:  1.884e-07  alpha:  4.031e-01  linmin: -2.241e-07  t[s]:   3721.50
	FillingsUpdate:  mu: +0.316125458  nElectrons: 304.000000  magneticMoment: [ Abs: 0.00020  Tot: +0.00014 ]
	SubspaceRotationAdjust: set factor to 0.0133
ElecMinimize: Iter:  35  F: -1690.478461835706185  |grad|_K:  1.717e-07  alpha:  6.179e-01  linmin: -3.485e-07  t[s]:   3782.05
	FillingsUpdate:  mu: +0.316072136  nElectrons: 304.000000  magneticMoment: [ Abs: 0.00020  Tot: +0.00014 ]
	SubspaceRotationAdjust: set factor to 0.0151
ElecMinimize: Iter:  36  F: -1690.478468420789341  |grad|_K:  1.823e-07  alpha:  6.712e-01  linmin: -1.436e-07  t[s]:   3842.94
	FillingsUpdate:  mu: +0.316196423  nElectrons: 304.000000  magneticMoment: [ Abs: 0.00020  Tot: +0.00013 ]
	SubspaceRotationAdjust: set factor to 0.0142
ElecMinimize: Iter:  37  F: -1690.478473960497922  |grad|_K:  2.002e-07  alpha:  5.010e-01  linmin: -4.868e-08  t[s]:   3903.81
	FillingsUpdate:  mu: +0.316311540  nElectrons: 304.000000  magneticMoment: [ Abs: 0.00020  Tot: +0.00013 ]
	SubspaceRotationAdjust: set factor to 0.0129
ElecMinimize: Iter:  38  F: -1690.478479557865285  |grad|_K:  1.804e-07  alpha:  4.198e-01  linmin: -3.015e-08  t[s]:   3964.36
	FillingsUpdate:  mu: +0.316298145  nElectrons: 304.000000  magneticMoment: [ Abs: 0.00020  Tot: +0.00013 ]
	SubspaceRotationAdjust: set factor to 0.0142
ElecMinimize: Iter:  39  F: -1690.478486699499172  |grad|_K:  1.791e-07  alpha:  6.589e-01  linmin: -9.549e-07  t[s]:   4025.10
	FillingsUpdate:  mu: +0.316461019  nElectrons: 304.000000  magneticMoment: [ Abs: 0.00019  Tot: +0.00013 ]
	SubspaceRotationAdjust: set factor to 0.0159
ElecMinimize: Iter:  40  F: -1690.478494347426704  |grad|_K:  1.827e-07  alpha:  7.158e-01  linmin: -9.584e-07  t[s]:   4085.89
	FillingsUpdate:  mu: +0.316478793  nElectrons: 304.000000  magneticMoment: [ Abs: 0.00018  Tot: +0.00013 ]
	SubspaceRotationAdjust: set factor to 0.0159
ElecMinimize: Iter:  41  F: -1690.478501446310247  |grad|_K:  2.075e-07  alpha:  6.383e-01  linmin: -5.460e-07  t[s]:   4146.86
	FillingsUpdate:  mu: +0.316468858  nElectrons: 304.000000  magneticMoment: [ Abs: 0.00017  Tot: +0.00013 ]
	SubspaceRotationAdjust: set factor to 0.013
ElecMinimize: Iter:  42  F: -1690.478506759562606  |grad|_K:  1.988e-07  alpha:  3.709e-01  linmin:  1.117e-07  t[s]:   4207.69
	FillingsUpdate:  mu: +0.316536823  nElectrons: 304.000000  magneticMoment: [ Abs: 0.00016  Tot: +0.00013 ]
	SubspaceRotationAdjust: set factor to 0.0133
ElecMinimize: Iter:  43  F: -1690.478512793706614  |grad|_K:  1.605e-07  alpha:  4.586e-01  linmin: -4.486e-07  t[s]:   4268.51
	FillingsUpdate:  mu: +0.316618686  nElectrons: 304.000000  magneticMoment: [ Abs: 0.00015  Tot: +0.00013 ]
	SubspaceRotationAdjust: set factor to 0.0152
ElecMinimize: Iter:  44  F: -1690.478517932868272  |grad|_K:  1.411e-07  alpha:  5.995e-01  linmin: -2.634e-07  t[s]:   4329.33
	FillingsUpdate:  mu: +0.316542033  nElectrons: 304.000000  magneticMoment: [ Abs: 0.00015  Tot: +0.00013 ]
	SubspaceRotationAdjust: set factor to 0.0164
ElecMinimize: Iter:  45  F: -1690.478522088778163  |grad|_K:  1.351e-07  alpha:  6.271e-01  linmin: -1.870e-07  t[s]:   4389.89
	FillingsUpdate:  mu: +0.316558061  nElectrons: 304.000000  magneticMoment: [ Abs: 0.00015  Tot: +0.00013 ]
	SubspaceRotationAdjust: set factor to 0.0142
ElecMinimize: Iter:  46  F: -1690.478524650687405  |grad|_K:  1.345e-07  alpha:  4.221e-01  linmin:  2.174e-08  t[s]:   4450.74
	FillingsUpdate:  mu: +0.316561122  nElectrons: 304.000000  magneticMoment: [ Abs: 0.00015  Tot: +0.00013 ]
	SubspaceRotationAdjust: set factor to 0.0119
ElecMinimize: Iter:  47  F: -1690.478526694235143  |grad|_K:  1.000e-07  alpha:  3.395e-01  linmin: -1.113e-07  t[s]:   4511.25
	FillingsUpdate:  mu: +0.316487478  nElectrons: 304.000000  magneticMoment: [ Abs: 0.00014  Tot: +0.00012 ]
	SubspaceRotationAdjust: set factor to 0.0133
ElecMinimize: Iter:  48  F: -1690.478528407329122  |grad|_K:  7.635e-08  alpha:  5.147e-01  linmin: -3.596e-07  t[s]:   4571.73
	FillingsUpdate:  mu: +0.316493445  nElectrons: 304.000000  magneticMoment: [ Abs: 0.00014  Tot: +0.00012 ]
	SubspaceRotationAdjust: set factor to 0.015
ElecMinimize: Iter:  49  F: -1690.478529535168491  |grad|_K:  6.815e-08  alpha:  5.813e-01  linmin: -8.947e-07  t[s]:   4632.51
	FillingsUpdate:  mu: +0.316503598  nElectrons: 304.000000  magneticMoment: [ Abs: 0.00014  Tot: +0.00012 ]
	SubspaceRotationAdjust: set factor to 0.014
ElecMinimize: Iter:  50  F: -1690.478530239820202  |grad|_K:  6.697e-08  alpha:  4.557e-01  linmin:  2.694e-07  t[s]:   4693.06
	FillingsUpdate:  mu: +0.316484559  nElectrons: 304.000000  magneticMoment: [ Abs: 0.00014  Tot: +0.00012 ]
	SubspaceRotationAdjust: set factor to 0.0125
ElecMinimize: Iter:  51  F: -1690.478530803589365  |grad|_K:  5.475e-08  alpha:  3.779e-01  linmin:  3.246e-07  t[s]:   4753.90
	FillingsUpdate:  mu: +0.316459396  nElectrons: 304.000000  magneticMoment: [ Abs: 0.00014  Tot: +0.00012 ]
	SubspaceRotationAdjust: set factor to 0.0145
ElecMinimize: Iter:  52  F: -1690.478531340803102  |grad|_K:  4.487e-08  alpha:  5.387e-01  linmin:  8.221e-07  t[s]:   4814.51
	FillingsUpdate:  mu: +0.316472316  nElectrons: 304.000000  magneticMoment: [ Abs: 0.00013  Tot: +0.00012 ]
	SubspaceRotationAdjust: set factor to 0.0167
ElecMinimize: Iter:  53  F: -1690.478531761568092  |grad|_K:  4.173e-08  alpha:  6.285e-01  linmin: -4.667e-09  t[s]:   4875.17
	FillingsUpdate:  mu: +0.316446367  nElectrons: 304.000000  magneticMoment: [ Abs: 0.00013  Tot: +0.00012 ]
	SubspaceRotationAdjust: set factor to 0.0162
ElecMinimize: Iter:  54  F: -1690.478532070894289  |grad|_K:  4.563e-08  alpha:  5.339e-01  linmin: -3.331e-07  t[s]:   4935.72
	FillingsUpdate:  mu: +0.316434543  nElectrons: 304.000000  magneticMoment: [ Abs: 0.00013  Tot: +0.00012 ]
	SubspaceRotationAdjust: set factor to 0.0132
ElecMinimize: Iter:  55  F: -1690.478532303737666  |grad|_K:  4.036e-08  alpha:  3.362e-01  linmin:  5.516e-07  t[s]:   4996.61
	FillingsUpdate:  mu: +0.316453321  nElectrons: 304.000000  magneticMoment: [ Abs: 0.00013  Tot: +0.00012 ]
	SubspaceRotationAdjust: set factor to 0.0141
ElecMinimize: Iter:  56  F: -1690.478532569590243  |grad|_K:  3.238e-08  alpha:  4.909e-01  linmin:  2.377e-06  t[s]:   5057.32
	FillingsUpdate:  mu: +0.316453106  nElectrons: 304.000000  magneticMoment: [ Abs: 0.00013  Tot: +0.00012 ]
	SubspaceRotationAdjust: set factor to 0.0165
ElecMinimize: Iter:  57  F: -1690.478532779902253  |grad|_K:  2.840e-08  alpha:  6.034e-01  linmin: -1.723e-06  t[s]:   5118.10
	FillingsUpdate:  mu: +0.316455855  nElectrons: 304.000000  magneticMoment: [ Abs: 0.00013  Tot: +0.00012 ]
	SubspaceRotationAdjust: set factor to 0.0171
ElecMinimize: Iter:  58  F: -1690.478532932887447  |grad|_K:  2.929e-08  alpha:  5.700e-01  linmin:  2.372e-06  t[s]:   5178.61
	FillingsUpdate:  mu: +0.316468856  nElectrons: 304.000000  magneticMoment: [ Abs: 0.00013  Tot: +0.00012 ]
	SubspaceRotationAdjust: set factor to 0.0148
ElecMinimize: Iter:  59  F: -1690.478533037977513  |grad|_K:  2.967e-08  alpha:  3.680e-01  linmin:  1.294e-06  t[s]:   5239.12
	FillingsUpdate:  mu: +0.316484839  nElectrons: 304.000000  magneticMoment: [ Abs: 0.00013  Tot: +0.00012 ]
	SubspaceRotationAdjust: set factor to 0.0148
ElecMinimize: Iter:  60  F: -1690.478533167406567  |grad|_K:  2.458e-08  alpha:  4.413e-01  linmin: -5.197e-06  t[s]:   5299.61
	FillingsUpdate:  mu: +0.316483532  nElectrons: 304.000000  magneticMoment: [ Abs: 0.00013  Tot: +0.00012 ]
	SubspaceRotationAdjust: set factor to 0.0171
ElecMinimize: Iter:  61  F: -1690.478533295952730  |grad|_K:  2.275e-08  alpha:  6.372e-01  linmin: -4.728e-06  t[s]:   5360.03
	FillingsUpdate:  mu: +0.316507066  nElectrons: 304.000000  magneticMoment: [ Abs: 0.00013  Tot: +0.00012 ]
	SubspaceRotationAdjust: set factor to 0.0191
ElecMinimize: Iter:  62  F: -1690.478533407529085  |grad|_K:  2.248e-08  alpha:  6.463e-01  linmin:  4.048e-06  t[s]:   5420.49
	FillingsUpdate:  mu: +0.316512263  nElectrons: 304.000000  magneticMoment: [ Abs: 0.00012  Tot: +0.00012 ]
	SubspaceRotationAdjust: set factor to 0.0182
ElecMinimize: Iter:  63  F: -1690.478533494494513  |grad|_K:  2.622e-08  alpha:  5.191e-01  linmin: -1.929e-06  t[s]:   5481.15
	FillingsUpdate:  mu: +0.316512783  nElectrons: 304.000000  magneticMoment: [ Abs: 0.00012  Tot: +0.00011 ]
	SubspaceRotationAdjust: set factor to 0.0145
ElecMinimize: Iter:  64  F: -1690.478533561811901  |grad|_K:  2.277e-08  alpha:  2.928e-01  linmin:  2.366e-06  t[s]:   5542.01
ElecMinimize: Converged (|Delta F|<1.000000e-07 for 2 iters).
Setting wave functions to eigenvectors of Hamiltonian
Converging empty states (this may take a while): |deigs|: 5.791e-04
Vacuum energy after initial minimize, F = -1690.478533561811901


-------- Electronic minimization -----------
	Linear fluid (dielectric constant: 78.4, screening length: 8.12261 Bohr) occupying 0.363865 of unit cell:	Completed after 28 iterations at t[s]:   5770.53
	FillingsUpdate:  mu: -0.191797938  nElectrons: 304.000000  magneticMoment: [ Abs: 0.00011  Tot: +0.00010 ]
ElecMinimize: Iter:   0  F: -1690.481028550514111  |grad|_K:  2.378e-06  alpha:  1.000e+00
	Linear fluid (dielectric constant: 78.4, screening length: 8.12261 Bohr) occupying 0.364621 of unit cell:	Completed after 24 iterations at t[s]:   5821.99
	Linear fluid (dielectric constant: 78.4, screening length: 8.12261 Bohr) occupying 0.363935 of unit cell:	Completed after 19 iterations at t[s]:   5839.53
	FillingsUpdate:  mu: -0.194558757  nElectrons: 304.000000  magneticMoment: [ Abs: 0.00011  Tot: +0.00010 ]
	SubspaceRotationAdjust: set factor to 0.0274
ElecMinimize: Iter:   1  F: -1690.481447576855544  |grad|_K:  5.944e-07  alpha:  2.225e-01  linmin:  1.928e-05  t[s]:   5864.54
	Linear fluid (dielectric constant: 78.4, screening length: 8.12261 Bohr) occupying 0.364039 of unit cell:	Completed after 17 iterations at t[s]:   5886.82
	Linear fluid (dielectric constant: 78.4, screening length: 8.12261 Bohr) occupying 0.364183 of unit cell:	Completed after 18 iterations at t[s]:   5904.40
	FillingsUpdate:  mu: -0.193908223  nElectrons: 304.000000  magneticMoment: [ Abs: 0.00011  Tot: +0.00010 ]
	SubspaceRotationAdjust: set factor to 0.0296
ElecMinimize: Iter:   2  F: -1690.481510084278852  |grad|_K:  4.099e-07  alpha:  5.322e-01  linmin:  5.074e-07  t[s]:   5929.76
	Linear fluid (dielectric constant: 78.4, screening length: 8.12261 Bohr) occupying 0.364481 of unit cell:	Completed after 17 iterations at t[s]:   5952.29
	Linear fluid (dielectric constant: 78.4, screening length: 8.12261 Bohr) occupying 0.364533 of unit cell:	Completed after 10 iterations at t[s]:   5969.17
	FillingsUpdate:  mu: -0.192703518  nElectrons: 304.000000  magneticMoment: [ Abs: 0.00011  Tot: +0.00010 ]
	SubspaceRotationAdjust: set factor to 0.0339
ElecMinimize: Iter:   3  F: -1690.481544988447467  |grad|_K:  3.443e-07  alpha:  6.245e-01  linmin: -3.215e-07  t[s]:   5994.29
	Linear fluid (dielectric constant: 78.4, screening length: 8.12261 Bohr) occupying 0.364886 of unit cell:	Completed after 16 iterations at t[s]:   6016.56
	Linear fluid (dielectric constant: 78.4, screening length: 8.12261 Bohr) occupying 0.364864 of unit cell:	Completed after 4 iterations at t[s]:   6033.06
	FillingsUpdate:  mu: -0.192659278  nElectrons: 304.000000  magneticMoment: [ Abs: 0.00011  Tot: +0.00010 ]
	SubspaceRotationAdjust: set factor to 0.0408
ElecMinimize: Iter:   4  F: -1690.481568042670688  |grad|_K:  2.662e-07  alpha:  5.843e-01  linmin: -1.026e-07  t[s]:   6058.30
	Linear fluid (dielectric constant: 78.4, screening length: 8.12261 Bohr) occupying 0.365089 of unit cell:	Completed after 19 iterations at t[s]:   6080.78
	Linear fluid (dielectric constant: 78.4, screening length: 8.12261 Bohr) occupying 0.365090 of unit cell:	Completed after 0 iterations at t[s]:   6096.86
	FillingsUpdate:  mu: -0.190870728  nElectrons: 304.000000  magneticMoment: [ Abs: 0.00011  Tot: +0.00010 ]
	SubspaceRotationAdjust: set factor to 0.0381
ElecMinimize: Iter:   5  F: -1690.481581914502385  |grad|_K:  2.966e-07  alpha:  5.880e-01  linmin: -4.156e-07  t[s]:   6121.85
	Linear fluid (dielectric constant: 78.4, screening length: 8.12261 Bohr) occupying 0.365359 of unit cell:	Completed after 19 iterations at t[s]:   6144.33
	Linear fluid (dielectric constant: 78.4, screening length: 8.12261 Bohr) occupying 0.365231 of unit cell:	Completed after 16 iterations at t[s]:   6161.65
	FillingsUpdate:  mu: -0.191812316  nElectrons: 304.000000  magneticMoment: [ Abs: 0.00011  Tot: +0.00010 ]
	SubspaceRotationAdjust: set factor to 0.0322
ElecMinimize: Iter:   6  F: -1690.481590922443729  |grad|_K:  2.764e-07  alpha:  3.067e-01  linmin:  5.238e-08  t[s]:   6186.74
	Linear fluid (dielectric constant: 78.4, screening length: 8.12261 Bohr) occupying 0.365340 of unit cell:	Completed after 16 iterations at t[s]:   6209.63
	Linear fluid (dielectric constant: 78.4, screening length: 8.12261 Bohr) occupying 0.365403 of unit cell:	Completed after 12 iterations at t[s]:   6226.72
	FillingsUpdate:  mu: -0.191538564  nElectrons: 304.000000  magneticMoment: [ Abs: 0.00010  Tot: +0.00010 ]
	SubspaceRotationAdjust: set factor to 0.0302
ElecMinimize: Iter:   7  F: -1690.481603259190706  |grad|_K:  2.933e-07  alpha:  4.852e-01  linmin: -7.217e-08  t[s]:   6251.89
	Linear fluid (dielectric constant: 78.4, screening length: 8.12261 Bohr) occupying 0.365561 of unit cell:	Completed after 19 iterations at t[s]:   6274.37
	Linear fluid (dielectric constant: 78.4, screening length: 8.12261 Bohr) occupying 0.365526 of unit cell:	Completed after 15 iterations at t[s]:   6291.68
	FillingsUpdate:  mu: -0.189614082  nElectrons: 304.000000  magneticMoment: [ Abs: 0.00010  Tot: +0.00010 ]
	SubspaceRotationAdjust: set factor to 0.0245
ElecMinimize: Iter:   8  F: -1690.481614048670735  |grad|_K:  2.692e-07  alpha:  3.773e-01  linmin: -1.425e-07  t[s]:   6316.95
	Linear fluid (dielectric constant: 78.4, screening length: 8.12261 Bohr) occupying 0.365602 of unit cell:	Completed after 13 iterations at t[s]:   6339.03
	Linear fluid (dielectric constant: 78.4, screening length: 8.12261 Bohr) occupying 0.365633 of unit cell:	Completed after 9 iterations at t[s]:   6355.83
	FillingsUpdate:  mu: -0.190240400  nElectrons: 304.000000  magneticMoment: [ Abs: 0.00010  Tot: +0.00010 ]
	SubspaceRotationAdjust: set factor to 0.0257
ElecMinimize: Iter:   9  F: -1690.481627140623232  |grad|_K:  2.245e-07  alpha:  5.416e-01  linmin: -8.850e-08  t[s]:   6380.69
	Linear fluid (dielectric constant: 78.4, screening length: 8.12261 Bohr) occupying 0.365680 of unit cell:	Completed after 16 iterations at t[s]:   6402.96
	Linear fluid (dielectric constant: 78.4, screening length: 8.12261 Bohr) occupying 0.365688 of unit cell:	Completed after 9 iterations at t[s]:   6419.81
	FillingsUpdate:  mu: -0.189853770  nElectrons: 304.000000  magneticMoment: [ Abs: 0.00010  Tot: +0.00010 ]
	SubspaceRotationAdjust: set factor to 0.0263
ElecMinimize: Iter:  10  F: -1690.481637929528461  |grad|_K:  2.222e-07  alpha:  6.425e-01  linmin: -1.491e-08  t[s]:   6444.88
	Linear fluid (dielectric constant: 78.4, screening length: 8.12261 Bohr) occupying 0.365728 of unit cell:	Completed after 19 iterations at t[s]:   6467.37
	Linear fluid (dielectric constant: 78.4, screening length: 8.12261 Bohr) occupying 0.365712 of unit cell:	Completed after 14 iterations at t[s]:   6484.58
	FillingsUpdate:  mu: -0.189256703  nElectrons: 304.000000  magneticMoment: [ Abs: 0.00010  Tot: +0.00009 ]
	SubspaceRotationAdjust: set factor to 0.0213
ElecMinimize: Iter:  11  F: -1690.481644119846123  |grad|_K:  2.046e-07  alpha:  3.774e-01  linmin:  2.796e-09  t[s]:   6510.09
	Linear fluid (dielectric constant: 78.4, screening length: 8.12261 Bohr) occupying 0.365731 of unit cell:	Completed after 11 iterations at t[s]:   6531.93
	Linear fluid (dielectric constant: 78.4, screening length: 8.12261 Bohr) occupying 0.365735 of unit cell:	Completed after 9 iterations at t[s]:   6548.74
	FillingsUpdate:  mu: -0.189461247  nElectrons: 304.000000  magneticMoment: [ Abs: 0.00010  Tot: +0.00009 ]
	SubspaceRotationAdjust: set factor to 0.0233
ElecMinimize: Iter:  12  F: -1690.481650688043601  |grad|_K:  1.553e-07  alpha:  4.715e-01  linmin:  2.449e-09  t[s]:   6573.77
	Linear fluid (dielectric constant: 78.4, screening length: 8.12261 Bohr) occupying 0.365755 of unit cell:	Completed after 9 iterations at t[s]:   6595.46
	Linear fluid (dielectric constant: 78.4, screening length: 8.12261 Bohr) occupying 0.365762 of unit cell:	Completed after 7 iterations at t[s]:   6612.13
	FillingsUpdate:  mu: -0.189430763  nElectrons: 304.000000  magneticMoment: [ Abs: 0.00010  Tot: +0.00009 ]
	SubspaceRotationAdjust: set factor to 0.0276
ElecMinimize: Iter:  13  F: -1690.481655840756048  |grad|_K:  1.397e-07  alpha:  6.424e-01  linmin: -1.280e-08  t[s]:   6636.96
	Linear fluid (dielectric constant: 78.4, screening length: 8.12261 Bohr) occupying 0.365800 of unit cell:	Completed after 15 iterations at t[s]:   6659.20
	Linear fluid (dielectric constant: 78.4, screening length: 8.12261 Bohr) occupying 0.365794 of unit cell:	Completed after 9 iterations at t[s]:   6676.03
	FillingsUpdate:  mu: -0.189021346  nElectrons: 304.000000  magneticMoment: [ Abs: 0.00010  Tot: +0.00009 ]
	SubspaceRotationAdjust: set factor to 0.0262
ElecMinimize: Iter:  14  F: -1690.481659341063278  |grad|_K:  1.480e-07  alpha:  5.393e-01  linmin: -5.121e-08  t[s]:   6701.13
	Linear fluid (dielectric constant: 78.4, screening length: 8.12261 Bohr) occupying 0.365842 of unit cell:	Completed after 13 iterations at t[s]:   6723.30
	Linear fluid (dielectric constant: 78.4, screening length: 8.12261 Bohr) occupying 0.365828 of unit cell:	Completed after 10 iterations at t[s]:   6740.18
	FillingsUpdate:  mu: -0.189213565  nElectrons: 304.000000  magneticMoment: [ Abs: 0.00010  Tot: +0.00009 ]
	SubspaceRotationAdjust: set factor to 0.0226
ElecMinimize: Iter:  15  F: -1690.481662116148300  |grad|_K:  1.278e-07  alpha:  3.804e-01  linmin:  1.979e-08  t[s]:   6765.08
	Linear fluid (dielectric constant: 78.4, screening length: 8.12261 Bohr) occupying 0.365862 of unit cell:	Completed after 10 iterations at t[s]:   6787.07
	Linear fluid (dielectric constant: 78.4, screening length: 8.12261 Bohr) occupying 0.365880 of unit cell:	Completed after 9 iterations at t[s]:   6803.91
	FillingsUpdate:  mu: -0.189406525  nElectrons: 304.000000  magneticMoment: [ Abs: 0.00010  Tot: +0.00009 ]
	SubspaceRotationAdjust: set factor to 0.024
ElecMinimize: Iter:  16  F: -1690.481665224062226  |grad|_K:  1.122e-07  alpha:  5.713e-01  linmin: -8.996e-08  t[s]:   6828.84
	Linear fluid (dielectric constant: 78.4, screening length: 8.12261 Bohr) occupying 0.365929 of unit cell:	Completed after 12 iterations at t[s]:   6850.86
	Linear fluid (dielectric constant: 78.4, screening length: 8.12261 Bohr) occupying 0.365928 of unit cell:	Completed after 0 iterations at t[s]:   6867.05
	FillingsUpdate:  mu: -0.188849997  nElectrons: 304.000000  magneticMoment: [ Abs: 0.00009  Tot: +0.00009 ]
	SubspaceRotationAdjust: set factor to 0.0237
ElecMinimize: Iter:  17  F: -1690.481667593543989  |grad|_K:  1.006e-07  alpha:  5.653e-01  linmin:  9.176e-08  t[s]:   6891.84
	Linear fluid (dielectric constant: 78.4, screening length: 8.12261 Bohr) occupying 0.365972 of unit cell:	Completed after 13 iterations at t[s]:   6913.85
	Linear fluid (dielectric constant: 78.4, screening length: 8.12261 Bohr) occupying 0.365966 of unit cell:	Completed after 6 iterations at t[s]:   6930.47
	FillingsUpdate:  mu: -0.189308834  nElectrons: 304.000000  magneticMoment: [ Abs: 0.00009  Tot: +0.00009 ]
	SubspaceRotationAdjust: set factor to 0.0212
ElecMinimize: Iter:  18  F: -1690.481669211669669  |grad|_K:  8.736e-08  alpha:  4.812e-01  linmin: -6.553e-08  t[s]:   6955.62
	Linear fluid (dielectric constant: 78.4, screening length: 8.12261 Bohr) occupying 0.365995 of unit cell:	Completed after 10 iterations at t[s]:   6977.40
	Linear fluid (dielectric constant: 78.4, screening length: 8.12261 Bohr) occupying 0.365992 of unit cell:	Completed after 2 iterations at t[s]:   6993.70
	FillingsUpdate:  mu: -0.189184505  nElectrons: 304.000000  magneticMoment: [ Abs: 0.00009  Tot: +0.00009 ]
	SubspaceRotationAdjust: set factor to 0.0191
ElecMinimize: Iter:  19  F: -1690.481670314792837  |grad|_K:  7.079e-08  alpha:  4.342e-01  linmin:  2.370e-07  t[s]:   7018.56
	Linear fluid (dielectric constant: 78.4, screening length: 8.12261 Bohr) occupying 0.366010 of unit cell:	Completed after 10 iterations at t[s]:   7040.37
	Linear fluid (dielectric constant: 78.4, screening length: 8.12261 Bohr) occupying 0.366010 of unit cell:	Completed after 1 iterations at t[s]:   7056.65
	FillingsUpdate:  mu: -0.188985715  nElectrons: 304.000000  magneticMoment: [ Abs: 0.00009  Tot: +0.00009 ]
	SubspaceRotationAdjust: set factor to 0.0178
ElecMinimize: Iter:  20  F: -1690.481671057511448  |grad|_K:  5.512e-08  alpha:  4.466e-01  linmin: -1.022e-06  t[s]:   7081.51
	Linear fluid (dielectric constant: 78.4, screening length: 8.12261 Bohr) occupying 0.366020 of unit cell:	Completed after 10 iterations at t[s]:   7103.34
	Linear fluid (dielectric constant: 78.4, screening length: 8.12261 Bohr) occupying 0.366021 of unit cell:	Completed after 2 iterations at t[s]:   7120.45
	FillingsUpdate:  mu: -0.189179631  nElectrons: 304.000000  magneticMoment: [ Abs: 0.00009  Tot: +0.00009 ]
	SubspaceRotationAdjust: set factor to 0.0193
ElecMinimize: Iter:  21  F: -1690.481671570653361  |grad|_K:  4.304e-08  alpha:  5.021e-01  linmin: -1.395e-07  t[s]:   7145.39
	Linear fluid (dielectric constant: 78.4, screening length: 8.12261 Bohr) occupying 0.366027 of unit cell:	Completed after 7 iterations at t[s]:   7167.15
	Linear fluid (dielectric constant: 78.4, screening length: 8.12261 Bohr) occupying 0.366027 of unit cell:	Completed after 0 iterations at t[s]:   7183.20
	FillingsUpdate:  mu: -0.189151212  nElectrons: 304.000000  magneticMoment: [ Abs: 0.00009  Tot: +0.00009 ]
	SubspaceRotationAdjust: set factor to 0.0218
ElecMinimize: Iter:  22  F: -1690.481671901066420  |grad|_K:  3.816e-08  alpha:  5.348e-01  linmin: -8.910e-07  t[s]:   7208.44
	Linear fluid (dielectric constant: 78.4, screening length: 8.12261 Bohr) occupying 0.366030 of unit cell:	Completed after 9 iterations at t[s]:   7230.30
	Linear fluid (dielectric constant: 78.4, screening length: 8.12261 Bohr) occupying 0.366030 of unit cell:	Completed after 0 iterations at t[s]:   7246.40
	FillingsUpdate:  mu: -0.189041292  nElectrons: 304.000000  magneticMoment: [ Abs: 0.00009  Tot: +0.00009 ]
	SubspaceRotationAdjust: set factor to 0.0215
ElecMinimize: Iter:  23  F: -1690.481672147039262  |grad|_K:  3.692e-08  alpha:  5.023e-01  linmin:  2.509e-06  t[s]:   7271.57
	Linear fluid (dielectric constant: 78.4, screening length: 8.12261 Bohr) occupying 0.366032 of unit cell:	Completed after 10 iterations at t[s]:   7293.32
	Linear fluid (dielectric constant: 78.4, screening length: 8.12261 Bohr) occupying 0.366032 of unit cell:	Completed after 0 iterations at t[s]:   7309.34
	FillingsUpdate:  mu: -0.189173198  nElectrons: 304.000000  magneticMoment: [ Abs: 0.00009  Tot: +0.00009 ]
	SubspaceRotationAdjust: set factor to 0.0218
ElecMinimize: Iter:  24  F: -1690.481672356964964  |grad|_K:  3.392e-08  alpha:  4.761e-01  linmin: -3.563e-07  t[s]:   7334.18
	Linear fluid (dielectric constant: 78.4, screening length: 8.12261 Bohr) occupying 0.366034 of unit cell:	Completed after 4 iterations at t[s]:   7355.46
	Linear fluid (dielectric constant: 78.4, screening length: 8.12261 Bohr) occupying 0.366034 of unit cell:	Completed after 3 iterations at t[s]:   7371.78
	FillingsUpdate:  mu: -0.189118344  nElectrons: 304.000000  magneticMoment: [ Abs: 0.00009  Tot: +0.00009 ]
	SubspaceRotationAdjust: set factor to 0.0253
ElecMinimize: Iter:  25  F: -1690.481672603388461  |grad|_K:  3.244e-08  alpha:  6.393e-01  linmin: -5.515e-07  t[s]:   7396.74
	Linear fluid (dielectric constant: 78.4, screening length: 8.12261 Bohr) occupying 0.366036 of unit cell:	Completed after 7 iterations at t[s]:   7418.83
	Linear fluid (dielectric constant: 78.4, screening length: 8.12261 Bohr) occupying 0.366036 of unit cell:	Completed after 0 iterations at t[s]:   7434.82
	FillingsUpdate:  mu: -0.189066195  nElectrons: 304.000000  magneticMoment: [ Abs: 0.00009  Tot: +0.00008 ]
	SubspaceRotationAdjust: set factor to 0.0269
ElecMinimize: Iter:  26  F: -1690.481672849515462  |grad|_K:  3.583e-08  alpha:  6.967e-01  linmin: -8.330e-07  t[s]:   7459.88
	Linear fluid (dielectric constant: 78.4, screening length: 8.12261 Bohr) occupying 0.366039 of unit cell:	Completed after 9 iterations at t[s]:   7481.60
	Linear fluid (dielectric constant: 78.4, screening length: 8.12261 Bohr) occupying 0.366039 of unit cell:	Completed after 6 iterations at t[s]:   7498.26
	FillingsUpdate:  mu: -0.189191206  nElectrons: 304.000000  magneticMoment: [ Abs: 0.00009  Tot: +0.00008 ]
	SubspaceRotationAdjust: set factor to 0.0239
ElecMinimize: Iter:  27  F: -1690.481673074818900  |grad|_K:  3.748e-08  alpha:  5.174e-01  linmin:  5.656e-07  t[s]:   7523.44
	Linear fluid (dielectric constant: 78.4, screening length: 8.12261 Bohr) occupying 0.366042 of unit cell:	Completed after 9 iterations at t[s]:   7545.31
	Linear fluid (dielectric constant: 78.4, screening length: 8.12261 Bohr) occupying 0.366042 of unit cell:	Completed after 0 iterations at t[s]:   7561.52
	FillingsUpdate:  mu: -0.189144408  nElectrons: 304.000000  magneticMoment: [ Abs: 0.00009  Tot: +0.00008 ]
	SubspaceRotationAdjust: set factor to 0.0214
ElecMinimize: Iter:  28  F: -1690.481673298989335  |grad|_K:  3.405e-08  alpha:  4.842e-01  linmin:  6.717e-07  t[s]:   7586.51
	Linear fluid (dielectric constant: 78.4, screening length: 8.12261 Bohr) occupying 0.366044 of unit cell:	Completed after 6 iterations at t[s]:   7607.98
	Linear fluid (dielectric constant: 78.4, screening length: 8.12261 Bohr) occupying 0.366045 of unit cell:	Completed after 2 iterations at t[s]:   7624.32
	FillingsUpdate:  mu: -0.189120469  nElectrons: 304.000000  magneticMoment: [ Abs: 0.00009  Tot: +0.00008 ]
	SubspaceRotationAdjust: set factor to 0.0213
ElecMinimize: Iter:  29  F: -1690.481673514974773  |grad|_K:  2.921e-08  alpha:  5.665e-01  linmin: -7.904e-07  t[s]:   7649.23
	Linear fluid (dielectric constant: 78.4, screening length: 8.12261 Bohr) occupying 0.366047 of unit cell:	Completed after 7 iterations at t[s]:   7670.74
	Linear fluid (dielectric constant: 78.4, screening length: 8.12261 Bohr) occupying 0.366047 of unit cell:	Completed after 0 iterations at t[s]:   7686.71
	FillingsUpdate:  mu: -0.189214768  nElectrons: 304.000000  magneticMoment: [ Abs: 0.00009  Tot: +0.00008 ]
	SubspaceRotationAdjust: set factor to 0.0217
ElecMinimize: Iter:  30  F: -1690.481673678620155  |grad|_K:  2.593e-08  alpha:  5.684e-01  linmin:  2.424e-07  t[s]:   7711.62
	Linear fluid (dielectric constant: 78.4, screening length: 8.12261 Bohr) occupying 0.366050 of unit cell:	Completed after 5 iterations at t[s]:   7732.98
	Linear fluid (dielectric constant: 78.4, screening length: 8.12261 Bohr) occupying 0.366050 of unit cell:	Completed after 0 iterations at t[s]:   7748.96
	FillingsUpdate:  mu: -0.189177099  nElectrons: 304.000000  magneticMoment: [ Abs: 0.00008  Tot: +0.00008 ]
	SubspaceRotationAdjust: set factor to 0.0231
ElecMinimize: Iter:  31  F: -1690.481673802564728  |grad|_K:  2.105e-08  alpha:  5.562e-01  linmin: -1.543e-07  t[s]:   7773.93
	Linear fluid (dielectric constant: 78.4, screening length: 8.12261 Bohr) occupying 0.366051 of unit cell:	Completed after 2 iterations at t[s]:   7795.04
	Linear fluid (dielectric constant: 78.4, screening length: 8.12261 Bohr) occupying 0.366051 of unit cell:	Completed after 0 iterations at t[s]:   7810.98
	FillingsUpdate:  mu: -0.189198787  nElectrons: 304.000000  magneticMoment: [ Abs: 0.00008  Tot: +0.00008 ]
	SubspaceRotationAdjust: set factor to 0.0262
ElecMinimize: Iter:  32  F: -1690.481673891642458  |grad|_K:  1.748e-08  alpha:  6.029e-01  linmin: -3.022e-07  t[s]:   7836.06
	Linear fluid (dielectric constant: 78.4, screening length: 8.12261 Bohr) occupying 0.366052 of unit cell:	Completed after 6 iterations at t[s]:   7857.59
	Linear fluid (dielectric constant: 78.4, screening length: 8.12261 Bohr) occupying 0.366052 of unit cell:	Completed after 3 iterations at t[s]:   7873.94
	FillingsUpdate:  mu: -0.189294020  nElectrons: 304.000000  magneticMoment: [ Abs: 0.00008  Tot: +0.00008 ]
	SubspaceRotationAdjust: set factor to 0.0276
ElecMinimize: Iter:  33  F: -1690.481673941943882  |grad|_K:  1.544e-08  alpha:  5.024e-01  linmin: -2.482e-06  t[s]:   7899.20
ElecMinimize: Converged (|Delta F|<1.000000e-07 for 2 iters).
Setting wave functions to eigenvectors of Hamiltonian
Converging empty states (this may take a while): |deigs|: 6.369e-05
Single-point solvation energy estimate, DeltaF = -0.003140380131981

Computing DFT-D3 correction:
# coordination-number Pt 5.564 7.155 8.721 5.564 9.546 9.555 9.561 9.563 9.563 9.564 9.564 9.564 9.563 9.563 9.561 9.555 9.546 8.721 7.155
# diagonal-C6 Pt 336.87 336.87 336.87 336.87 336.87 336.87 336.87 336.87 336.87 336.87 336.87 336.87 336.87 336.87 336.87 336.87 336.87 336.87 336.87
EvdW_6 =   -0.179231
EvdW_8 =   -0.282349

# Ionic positions in cartesian coordinates:
ion Pt  -0.000002000000000   7.201812000000000  63.655619000000002 1
ion Pt   2.615997999999999   3.000756000000000  61.958122000000003 1
ion Pt   2.615995999999999  10.202567999999999  60.260688999999999 1
ion Pt   0.000000000000000   0.000000000000000  33.100931999999993 1
ion Pt  -0.000000000000000   6.001512000000000  58.563191999999994 1
ion Pt   2.615994999999999   1.800456000000000  56.865694999999995 1
ion Pt   2.615998999999999   9.002268000000001  55.168197999999990 1
ion Pt  -0.000002000000000   4.801212000000000  53.470702000000003 1
ion Pt   2.615998000000000   0.600156000000000  51.773268999999999 1
ion Pt   2.615995999999999   7.801968000000000  50.075771999999994 1
ion Pt   0.000003000000000   3.600900000000000  48.378274999999995 1
ion Pt   0.000001000000000  10.802712000000000  46.680777999999997 1
ion Pt   2.616001000000000   6.601656000000000  44.983280999999998 1
ion Pt  -0.000000000000000   2.400600000000000  43.285848999999999 1
ion Pt   0.000003000000000   9.602411999999999  41.588351999999993 1
ion Pt   2.615997999999999   5.401356000000000  39.890854999999995 1
ion Pt   0.000003000000000   1.200300000000000  38.193358000000003 1
ion Pt   0.000000999999999   8.402112000000001  36.495860999999998 1
ion Pt   2.616000999999999   4.201056000000000  34.798428999999992 1

# Forces in Cartesian coordinates:
force Pt  -0.000068574333247  -0.006046931184519  -0.013749273438865 1
force Pt  -0.000047819109898  -0.003630119881929   0.009365066864269 1
force Pt  -0.000031181699396   0.009471619703301   0.018502959840124 1
force Pt   0.000070945988034   0.006051639166360   0.013715864618489 1
force Pt  -0.000060378792065   0.003957682978898  -0.006992118580220 1
force Pt  -0.000062817806562  -0.001939253498677  -0.003741441331190 1
force Pt  -0.000054156224893  -0.001328079883147  -0.003473871818553 1
force Pt   0.000081965983144   0.000123980638611   0.001539802824574 1
force Pt  -0.000070087381912  -0.000649548134615   0.000606908173351 1
force Pt  -0.000090294086178  -0.000403923294680  -0.001204315825213 1
force Pt  -0.000011484192324  -0.000007351074950   0.000035233867679 1
force Pt   0.000108017759555   0.000410634053803   0.001267236987894 1
force Pt   0.000060289914531   0.000654657351738  -0.000555688626760 1
force Pt  -0.000079119005678  -0.000136682405009  -0.001511723980925 1
force Pt   0.000064112364279   0.001331224130343   0.003483618245814 1
force Pt   0.000045423150940   0.001945319723863   0.003734519374029 1
force Pt   0.000074073673937  -0.003962878647422   0.006970479386434 1
force Pt   0.000016985399749  -0.009470891833052  -0.018498626080977 1
force Pt   0.000056246502293   0.003640992716308  -0.009392364336464 1

# Energy components:
   A_diel =       -0.0033548801610280
   Eewald =    11632.3151147445605602
       EH =    13216.9333304040992516
     Eloc =   -26832.9106398685071326
      Enl =      -20.0976970614512567
     EvdW =       -0.4615802274831846
      Exc =     -540.6045801591995996
 Exc_core =      311.4362420065594961
       KE =      542.9151905931853435
-------------------------------------
     Etot =    -1690.4779744483948889
       TS =        0.0036994935489819
-------------------------------------
        F =    -1690.4816739419438818


Dumping 'jdft.fillings' ... done
Dumping 'jdft.wfns' ... done
Dumping 'jdft.fluidState' ... done
Dumping 'jdft.ionpos' ... done
Dumping 'jdft.lattice' ... done
Dumping 'jdft.eigenvals' ... done
Dumping 'jdft.eigStats' ... 
	eMin: -2.139098 at state 25 ( [ +0.454545 +0.000000 +0.000000 ] spin 1 )
	HOMO: -0.189344 at state 100 ( [ -0.181818 +0.000000 +0.000000 ] spin -1 )
	mu  : -0.189294
	LUMO: -0.189279 at state 28 ( [ +0.454545 -0.400000 +0.000000 ] spin 1 )
	eMax: +0.135039 at state 77 ( [ +0.363636 +0.400000 +0.000000 ] spin -1 )
	HOMO-LUMO gap: +0.000065
	Optical gap  : +0.000532 at state 37 ( [ -0.363636 +0.400000 +0.000000 ] spin 1 )
Dumping 'jdft.Ecomponents' ... done
IonicMinimize: Iter:   0  F: -1690.481673941943882  |grad|_K:  5.491e-03  t[s]:   8092.66

#--- Lowdin population analysis ---
# oxidation-state Pt +0.060 +0.012 -0.037 +0.059 +0.011 +0.011 +0.013 +0.010 +0.008 +0.005 +0.004 +0.005 +0.007 +0.009 +0.012 +0.010 +0.010 -0.038 +0.011
# magnetic-moments Pt +0.000 +0.000 +0.000 +0.000 +0.000 +0.000 +0.000 +0.000 +0.000 +0.000 +0.000 +0.000 +0.000 +0.000 +0.000 +0.000 +0.000 +0.000 +0.000


Computing DFT-D3 correction:
# coordination-number Pt 5.594 7.155 8.711 5.594 9.526 9.541 9.560 9.569 9.567 9.566 9.562 9.566 9.567 9.569 9.560 9.540 9.526 8.711 7.155
# diagonal-C6 Pt 336.87 336.87 336.87 336.87 336.87 336.87 336.87 336.87 336.87 336.87 336.87 336.87 336.87 336.87 336.87 336.87 336.87 336.87 336.87
EvdW_6 =   -0.179232
EvdW_8 =   -0.282310

-------- Electronic minimization -----------
	Linear fluid (dielectric constant: 78.4, screening length: 8.12261 Bohr) occupying 0.366059 of unit cell:	Completed after 24 iterations at t[s]:   8116.09
	FillingsUpdate:  mu: -0.170615868  nElectrons: 304.000000  magneticMoment: [ Abs: 0.00007  Tot: +0.00007 ]
ElecMinimize: Iter:   0  F: -1690.418897236072780  |grad|_K:  2.316e-05  alpha:  1.000e+00
	Linear fluid (dielectric constant: 78.4, screening length: 8.12261 Bohr) occupying 0.366114 of unit cell:	Completed after 28 iterations at t[s]:   8167.41
	Linear fluid (dielectric constant: 78.4, screening length: 8.12261 Bohr) occupying 0.366031 of unit cell:	Completed after 26 iterations at t[s]:   8185.59
	FillingsUpdate:  mu: -0.206973637  nElectrons: 304.000000  magneticMoment: [ Abs: 0.00007  Tot: +0.00007 ]
	SubspaceRotationAdjust: set factor to 0.0258
ElecMinimize: Iter:   1  F: -1690.475366349886144  |grad|_K:  6.272e-06  alpha:  3.169e-01  linmin:  1.801e-03  t[s]:   8210.39
	Linear fluid (dielectric constant: 78.4, screening length: 8.12261 Bohr) occupying 0.366058 of unit cell:	Completed after 22 iterations at t[s]:   8233.11
	Linear fluid (dielectric constant: 78.4, screening length: 8.12261 Bohr) occupying 0.366058 of unit cell:	Completed after 2 iterations at t[s]:   8249.40
	FillingsUpdate:  mu: -0.181513920  nElectrons: 304.000000  magneticMoment: [ Abs: 0.00007  Tot: +0.00007 ]
	SubspaceRotationAdjust: set factor to 0.0196
ElecMinimize: Iter:   2  F: -1690.479516791982405  |grad|_K:  2.676e-06  alpha:  3.174e-01  linmin: -7.783e-05  t[s]:   8274.35
	Linear fluid (dielectric constant: 78.4, screening length: 8.12261 Bohr) occupying 0.366068 of unit cell:	Completed after 22 iterations at t[s]:   8297.25
	Linear fluid (dielectric constant: 78.4, screening length: 8.12261 Bohr) occupying 0.366067 of unit cell:	Completed after 16 iterations at t[s]:   8314.63
	FillingsUpdate:  mu: -0.193015453  nElectrons: 304.000000  magneticMoment: [ Abs: 0.00007  Tot: +0.00007 ]
	SubspaceRotationAdjust: set factor to 0.0145
ElecMinimize: Iter:   3  F: -1690.480214004670415  |grad|_K:  1.309e-06  alpha:  2.924e-01  linmin:  4.191e-05  t[s]:   8339.67
	Linear fluid (dielectric constant: 78.4, screening length: 8.12261 Bohr) occupying 0.366089 of unit cell:	Completed after 22 iterations at t[s]:   8362.37
	Linear fluid (dielectric constant: 78.4, screening length: 8.12261 Bohr) occupying 0.366098 of unit cell:	Completed after 17 iterations at t[s]:   8379.75
	FillingsUpdate:  mu: -0.190594109  nElectrons: 304.000000  magneticMoment: [ Abs: 0.00007  Tot: +0.00007 ]
	SubspaceRotationAdjust: set factor to 0.0167
ElecMinimize: Iter:   4  F: -1690.480446666859962  |grad|_K:  8.822e-07  alpha:  4.079e-01  linmin:  1.456e-05  t[s]:   8404.77
	Linear fluid (dielectric constant: 78.4, screening length: 8.12261 Bohr) occupying 0.366137 of unit cell:	Completed after 19 iterations at t[s]:   8427.35
	Linear fluid (dielectric constant: 78.4, screening length: 8.12261 Bohr) occupying 0.366157 of unit cell:	Completed after 17 iterations at t[s]:   8444.73
	FillingsUpdate:  mu: -0.186920495  nElectrons: 304.000000  magneticMoment: [ Abs: 0.00007  Tot: +0.00007 ]
	SubspaceRotationAdjust: set factor to 0.0197
ElecMinimize: Iter:   5  F: -1690.480607503720648  |grad|_K:  7.772e-07  alpha:  6.210e-01  linmin: -2.964e-05  t[s]:   8469.75
	Linear fluid (dielectric constant: 78.4, screening length: 8.12261 Bohr) occupying 0.366227 of unit cell:	Completed after 16 iterations at t[s]:   8492.07
	Linear fluid (dielectric constant: 78.4, screening length: 8.12261 Bohr) occupying 0.366219 of unit cell:	Completed after 13 iterations at t[s]:   8509.33
	FillingsUpdate:  mu: -0.191011027  nElectrons: 304.000000  magneticMoment: [ Abs: 0.00007  Tot: +0.00007 ]
	SubspaceRotationAdjust: set factor to 0.0228
ElecMinimize: Iter:   6  F: -1690.480718592164521  |grad|_K:  7.496e-07  alpha:  5.524e-01  linmin: -4.762e-06  t[s]:   8534.37
	Linear fluid (dielectric constant: 78.4, screening length: 8.12261 Bohr) occupying 0.366290 of unit cell:	Completed after 19 iterations at t[s]:   8556.86
	Linear fluid (dielectric constant: 78.4, screening length: 8.12261 Bohr) occupying 0.366341 of unit cell:	Completed after 18 iterations at t[s]:   8574.38
	FillingsUpdate:  mu: -0.187983518  nElectrons: 304.000000  magneticMoment: [ Abs: 0.00007  Tot: +0.00007 ]
	SubspaceRotationAdjust: set factor to 0.0252
ElecMinimize: Iter:   7  F: -1690.480897251336728  |grad|_K:  1.105e-06  alpha:  9.561e-01  linmin:  2.418e-05  t[s]:   8599.10
	Linear fluid (dielectric constant: 78.4, screening length: 8.12261 Bohr) occupying 0.366563 of unit cell:	Completed after 22 iterations at t[s]:   8621.82
	Linear fluid (dielectric constant: 78.4, screening length: 8.12261 Bohr) occupying 0.366544 of unit cell:	Completed after 11 iterations at t[s]:   8638.84
	FillingsUpdate:  mu: -0.186170833  nElectrons: 304.000000  magneticMoment: [ Abs: 0.00007  Tot: +0.00007 ]
	SubspaceRotationAdjust: set factor to 0.025
ElecMinimize: Iter:   8  F: -1690.481253047621749  |grad|_K:  1.572e-06  alpha:  8.770e-01  linmin:  7.994e-06  t[s]:   8664.09
	Linear fluid (dielectric constant: 78.4, screening length: 8.12261 Bohr) occupying 0.366809 of unit cell:	Completed after 23 iterations at t[s]:   8686.85
	Linear fluid (dielectric constant: 78.4, screening length: 8.12261 Bohr) occupying 0.366699 of unit cell:	Completed after 22 iterations at t[s]:   8704.68
	FillingsUpdate:  mu: -0.191242689  nElectrons: 304.000000  magneticMoment: [ Abs: 0.00007  Tot: +0.00007 ]
	SubspaceRotationAdjust: set factor to 0.021
ElecMinimize: Iter:   9  F: -1690.481685673119500  |grad|_K:  1.707e-06  alpha:  5.317e-01  linmin:  1.352e-05  t[s]:   8729.84
	Linear fluid (dielectric constant: 78.4, screening length: 8.12261 Bohr) occupying 0.366770 of unit cell:	Completed after 22 iterations at t[s]:   8752.56
	Linear fluid (dielectric constant: 78.4, screening length: 8.12261 Bohr) occupying 0.366780 of unit cell:	Completed after 17 iterations at t[s]:   8769.96
	FillingsUpdate:  mu: -0.186768585  nElectrons: 304.000000  magneticMoment: [ Abs: 0.00007  Tot: +0.00006 ]
	SubspaceRotationAdjust: set factor to 0.0195
ElecMinimize: Iter:  10  F: -1690.482273970508913  |grad|_K:  1.600e-06  alpha:  6.095e-01  linmin:  6.882e-05  t[s]:   8795.07
	Linear fluid (dielectric constant: 78.4, screening length: 8.12261 Bohr) occupying 0.366727 of unit cell:	Completed after 19 iterations at t[s]:   8817.72
	Linear fluid (dielectric constant: 78.4, screening length: 8.12261 Bohr) occupying 0.366728 of unit cell:	Completed after 2 iterations at t[s]:   8833.96
[...]
force Pt  -0.000033239438987  -0.000189478807106   0.000381671552612 1
force Pt  -0.000016610392108  -0.000121705719303   0.000281109537521 1
force Pt  -0.000023606347491  -0.000010481336704   0.000269441132820 1
force Pt  -0.000013221871173   0.000100117775787   0.000187258306375 1
force Pt  -0.000012378876819   0.000036733746240   0.000104134767403 1
force Pt  -0.000001140608493   0.000016323915332   0.000077756921545 1
force Pt   0.000014548472099  -0.000041451139324   0.000068676303477 1
force Pt   0.000014276498364  -0.000103697296303   0.000088703725566 1
force Pt   0.000024335026745  -0.000006553263949   0.000041981720236 1
force Pt   0.000016503338180   0.000092280835883   0.000006997612262 1
force Pt   0.000032920361374   0.000224081802401  -0.000243593280066 1
force Pt   0.000026001340321   0.000052950380905  -0.000132625377189 1
force Pt   0.000026391252288  -0.000190667405892  -0.000119768286397 1
force Pt   0.000019474668406   0.000151830295456  -0.000168386765427 1

# Energy components:
   A_diel =       -0.0037551290429366
   Eewald =    11610.9372986675098218
       EH =    13195.5613844940380659
     Eloc =   -26790.1518304079436348
      Enl =      -20.0318455562122750
     EvdW =       -0.4614334664936734
      Exc =     -540.6343465722989095
 Exc_core =      311.4362479392652290
       KE =      542.8577072616432133
-------------------------------------
     Etot =    -1690.4905727695349924
       TS =        0.0032664359285542
-------------------------------------
        F =    -1690.4938392054634733


Dumping 'jdft.fillings' ... done
Dumping 'jdft.wfns' ... done
Dumping 'jdft.fluidState' ... done
Dumping 'jdft.ionpos' ... done
Dumping 'jdft.lattice' ... done
Dumping 'jdft.eigenvals' ... done
Dumping 'jdft.eigStats' ... 
	eMin: -2.138070 at state 2 ( [ +0.000000 +0.400000 +0.000000 ] spin 1 )
	HOMO: -0.188032 at state 57 ( [ +0.000000 +0.400000 +0.000000 ] spin -1 )
	mu  : -0.187980
	LUMO: -0.187950 at state 31 ( [ -0.454545 +0.200000 +0.000000 ] spin 1 )
	eMax: +0.138909 at state 77 ( [ +0.363636 +0.400000 +0.000000 ] spin -1 )
	HOMO-LUMO gap: +0.000083
	Optical gap  : +0.000801 at state 50 ( [ -0.090909 +0.000000 +0.000000 ] spin 1 )
Dumping 'jdft.Ecomponents' ... done
IonicMinimize: Iter:  13  F: -1690.493839205463473  |grad|_K:  1.333e-04  alpha:  1.000e+00  linmin:  1.124e-01  t[s]:  39550.60

#--- Lowdin population analysis ---
# oxidation-state Pt +0.062 +0.017 -0.041 +0.059 +0.013 +0.011 +0.015 +0.012 +0.011 +0.007 +0.004 +0.006 +0.008 +0.009 +0.011 +0.007 +0.009 -0.043 +0.015
# magnetic-moments Pt +0.000 +0.000 +0.000 +0.000 +0.000 +0.000 +0.000 +0.000 +0.000 +0.000 +0.000 +0.000 +0.000 +0.000 +0.000 +0.000 +0.000 +0.000 +0.000


Computing DFT-D3 correction:
# coordination-number Pt 5.969 7.106 8.563 5.972 9.224 9.402 9.504 9.524 9.562 9.557 9.569 9.555 9.558 9.521 9.503 9.404 9.227 8.566 7.110
# diagonal-C6 Pt 336.87 336.87 336.87 336.87 336.87 336.87 336.87 336.87 336.87 336.87 336.87 336.87 336.87 336.87 336.87 336.87 336.87 336.87 336.87
EvdW_6 =   -0.179079
EvdW_8 =   -0.282342

-------- Electronic minimization -----------
	Linear fluid (dielectric constant: 78.4, screening length: 8.12261 Bohr) occupying 0.370940 of unit cell:	Completed after 22 iterations at t[s]:  39576.43
	FillingsUpdate:  mu: -0.185402394  nElectrons: 304.000000  magneticMoment: [ Abs: 0.00000  Tot: +0.00000 ]
ElecMinimize: Iter:   0  F: -1690.493747400598068  |grad|_K:  1.141e-06  alpha:  1.000e+00
	Linear fluid (dielectric constant: 78.4, screening length: 8.12261 Bohr) occupying 0.371029 of unit cell:	Completed after 23 iterations at t[s]:  39627.79
	Linear fluid (dielectric constant: 78.4, screening length: 8.12261 Bohr) occupying 0.370928 of unit cell:	Completed after 24 iterations at t[s]:  39645.69
	FillingsUpdate:  mu: -0.187721909  nElectrons: 304.000000  magneticMoment: [ Abs: 0.00000  Tot: +0.00000 ]
	SubspaceRotationAdjust: set factor to 0.0441
ElecMinimize: Iter:   1  F: -1690.493829446102382  |grad|_K:  2.007e-07  alpha:  1.892e-01  linmin: -4.606e-04  t[s]:  39670.61
	Linear fluid (dielectric constant: 78.4, screening length: 8.12261 Bohr) occupying 0.370928 of unit cell:	Completed after 12 iterations at t[s]:  39692.51
	Linear fluid (dielectric constant: 78.4, screening length: 8.12261 Bohr) occupying 0.370927 of unit cell:	Completed after 12 iterations at t[s]:  39709.52
	FillingsUpdate:  mu: -0.188157432  nElectrons: 304.000000  magneticMoment: [ Abs: 0.00000  Tot: +0.00000 ]
	SubspaceRotationAdjust: set factor to 0.0494
ElecMinimize: Iter:   2  F: -1690.493834831418553  |grad|_K:  1.082e-07  alpha:  4.024e-01  linmin:  1.119e-03  t[s]:  39734.32
	Linear fluid (dielectric constant: 78.4, screening length: 8.12261 Bohr) occupying 0.370928 of unit cell:	Completed after 14 iterations at t[s]:  39756.47
	Linear fluid (dielectric constant: 78.4, screening length: 8.12261 Bohr) occupying 0.370928 of unit cell:	Completed after 6 iterations at t[s]:  39773.08
	FillingsUpdate:  mu: -0.187714345  nElectrons: 304.000000  magneticMoment: [ Abs: 0.00000  Tot: +0.00000 ]
	SubspaceRotationAdjust: set factor to 0.0399
ElecMinimize: Iter:   3  F: -1690.493836185767123  |grad|_K:  1.007e-07  alpha:  3.486e-01  linmin:  6.488e-04  t[s]:  39798.17
	Linear fluid (dielectric constant: 78.4, screening length: 8.12261 Bohr) occupying 0.370927 of unit cell:	Completed after 13 iterations at t[s]:  39820.71
	Linear fluid (dielectric constant: 78.4, screening length: 8.12261 Bohr) occupying 0.370927 of unit cell:	Completed after 10 iterations at t[s]:  39837.75
	FillingsUpdate:  mu: -0.187927702  nElectrons: 304.000000  magneticMoment: [ Abs: 0.00000  Tot: +0.00000 ]
	SubspaceRotationAdjust: set factor to 0.0308
ElecMinimize: Iter:   4  F: -1690.493836918843272  |grad|_K:  7.045e-08  alpha:  2.182e-01  linmin:  6.511e-05  t[s]:  39862.95
	Linear fluid (dielectric constant: 78.4, screening length: 8.12261 Bohr) occupying 0.370927 of unit cell:	Completed after 9 iterations at t[s]:  39884.63
	Linear fluid (dielectric constant: 78.4, screening length: 8.12261 Bohr) occupying 0.370927 of unit cell:	Completed after 9 iterations at t[s]:  39901.50
	FillingsUpdate:  mu: -0.188189688  nElectrons: 304.000000  magneticMoment: [ Abs: 0.00000  Tot: +0.00000 ]
	SubspaceRotationAdjust: set factor to 0.0279
ElecMinimize: Iter:   5  F: -1690.493837540579079  |grad|_K:  5.756e-08  alpha:  3.756e-01  linmin: -5.158e-04  t[s]:  39926.68
	Linear fluid (dielectric constant: 78.4, screening length: 8.12261 Bohr) occupying 0.370927 of unit cell:	Completed after 12 iterations at t[s]:  39948.60
	Linear fluid (dielectric constant: 78.4, screening length: 8.12261 Bohr) occupying 0.370927 of unit cell:	Completed after 0 iterations at t[s]:  39964.82
	FillingsUpdate:  mu: -0.187854503  nElectrons: 304.000000  magneticMoment: [ Abs: 0.00000  Tot: +0.00000 ]
	SubspaceRotationAdjust: set factor to 0.0258
ElecMinimize: Iter:   6  F: -1690.493837942589607  |grad|_K:  4.518e-08  alpha:  3.628e-01  linmin:  1.382e-03  t[s]:  39989.81
	Linear fluid (dielectric constant: 78.4, screening length: 8.12261 Bohr) occupying 0.370927 of unit cell:	Completed after 7 iterations at t[s]:  40011.37
	Linear fluid (dielectric constant: 78.4, screening length: 8.12261 Bohr) occupying 0.370926 of unit cell:	Completed after 2 iterations at t[s]:  40027.70
	FillingsUpdate:  mu: -0.187933942  nElectrons: 304.000000  magneticMoment: [ Abs: 0.00000  Tot: +0.00000 ]
	SubspaceRotationAdjust: set factor to 0.0292
ElecMinimize: Iter:   7  F: -1690.493838277043551  |grad|_K:  3.667e-08  alpha:  4.971e-01  linmin: -1.182e-03  t[s]:  40052.76
	Linear fluid (dielectric constant: 78.4, screening length: 8.12261 Bohr) occupying 0.370926 of unit cell:	Completed after 9 iterations at t[s]:  40074.51
	Linear fluid (dielectric constant: 78.4, screening length: 8.12261 Bohr) occupying 0.370926 of unit cell:	Completed after 0 iterations at t[s]:  40090.73
	FillingsUpdate:  mu: -0.188068168  nElectrons: 304.000000  magneticMoment: [ Abs: 0.00000  Tot: +0.00000 ]
	SubspaceRotationAdjust: set factor to 0.0262
ElecMinimize: Iter:   8  F: -1690.493838499286539  |grad|_K:  4.048e-08  alpha:  4.907e-01  linmin:  6.328e-04  t[s]:  40116.09
	Linear fluid (dielectric constant: 78.4, screening length: 8.12261 Bohr) occupying 0.370925 of unit cell:	Completed after 10 iterations at t[s]:  40138.11
	Linear fluid (dielectric constant: 78.4, screening length: 8.12261 Bohr) occupying 0.370925 of unit cell:	Completed after 3 iterations at t[s]:  40154.52
	FillingsUpdate:  mu: -0.187906401  nElectrons: 304.000000  magneticMoment: [ Abs: 0.00000  Tot: +0.00000 ]
	SubspaceRotationAdjust: set factor to 0.0258
ElecMinimize: Iter:   9  F: -1690.493838721942211  |grad|_K:  3.387e-08  alpha:  4.129e-01  linmin:  1.505e-04  t[s]:  40179.43
	Linear fluid (dielectric constant: 78.4, screening length: 8.12261 Bohr) occupying 0.370925 of unit cell:	Completed after 2 iterations at t[s]:  40200.65
	Linear fluid (dielectric constant: 78.4, screening length: 8.12261 Bohr) occupying 0.370925 of unit cell:	Completed after 2 iterations at t[s]:  40216.92
	FillingsUpdate:  mu: -0.187920624  nElectrons: 304.000000  magneticMoment: [ Abs: 0.00000  Tot: +0.00000 ]
	SubspaceRotationAdjust: set factor to 0.0297
ElecMinimize: Iter:  10  F: -1690.493838982232091  |grad|_K:  3.253e-08  alpha:  6.810e-01  linmin: -2.462e-04  t[s]:  40241.94
	Linear fluid (dielectric constant: 78.4, screening length: 8.12261 Bohr) occupying 0.370925 of unit cell:	Completed after 9 iterations at t[s]:  40263.68
	Linear fluid (dielectric constant: 78.4, screening length: 8.12261 Bohr) occupying 0.370925 of unit cell:	Completed after 2 iterations at t[s]:  40279.96
	FillingsUpdate:  mu: -0.188002572  nElectrons: 304.000000  magneticMoment: [ Abs: 0.00000  Tot: +0.00000 ]
	SubspaceRotationAdjust: set factor to 0.0293
ElecMinimize: Iter:  11  F: -1690.493839198135220  |grad|_K:  3.730e-08  alpha:  6.101e-01  linmin:  2.346e-04  t[s]:  40304.95
	Linear fluid (dielectric constant: 78.4, screening length: 8.12261 Bohr) occupying 0.370925 of unit cell:	Completed after 9 iterations at t[s]:  40326.69
	Linear fluid (dielectric constant: 78.4, screening length: 8.12261 Bohr) occupying 0.370925 of unit cell:	Completed after 9 iterations at t[s]:  40343.55
	FillingsUpdate:  mu: -0.187900940  nElectrons: 304.000000  magneticMoment: [ Abs: 0.00000  Tot: +0.00000 ]
	SubspaceRotationAdjust: set factor to 0.0242
ElecMinimize: Iter:  12  F: -1690.493839364668474  |grad|_K:  3.369e-08  alpha:  3.647e-01  linmin:  4.436e-05  t[s]:  40368.63
	Linear fluid (dielectric constant: 78.4, screening length: 8.12261 Bohr) occupying 0.370925 of unit cell:	Completed after 6 iterations at t[s]:  40390.13
	Linear fluid (dielectric constant: 78.4, screening length: 8.12261 Bohr) occupying 0.370924 of unit cell:	Completed after 4 iterations at t[s]:  40406.74
	FillingsUpdate:  mu: -0.187890158  nElectrons: 304.000000  magneticMoment: [ Abs: 0.00000  Tot: +0.00000 ]
	SubspaceRotationAdjust: set factor to 0.0274
ElecMinimize: Iter:  13  F: -1690.493839585093156  |grad|_K:  2.952e-08  alpha:  5.827e-01  linmin: -2.529e-04  t[s]:  40431.45
	Linear fluid (dielectric constant: 78.4, screening length: 8.12261 Bohr) occupying 0.370924 of unit cell:	Completed after 7 iterations at t[s]:  40453.02
	Linear fluid (dielectric constant: 78.4, screening length: 8.12261 Bohr) occupying 0.370924 of unit cell:	Completed after 0 iterations at t[s]:  40469.09
	FillingsUpdate:  mu: -0.188021876  nElectrons: 304.000000  magneticMoment: [ Abs: 0.00000  Tot: +0.00000 ]
	SubspaceRotationAdjust: set factor to 0.0276
ElecMinimize: Iter:  14  F: -1690.493839762523749  |grad|_K:  2.944e-08  alpha:  6.080e-01  linmin: -4.524e-04  t[s]:  40493.90
	Linear fluid (dielectric constant: 78.4, screening length: 8.12261 Bohr) occupying 0.370924 of unit cell:	Completed after 9 iterations at t[s]:  40515.68
	Linear fluid (dielectric constant: 78.4, screening length: 8.12261 Bohr) occupying 0.370924 of unit cell:	Completed after 4 iterations at t[s]:  40532.10
	FillingsUpdate:  mu: -0.187898297  nElectrons: 304.000000  magneticMoment: [ Abs: 0.00000  Tot: +0.00000 ]
	SubspaceRotationAdjust: set factor to 0.0246
ElecMinimize: Iter:  15  F: -1690.493839902006357  |grad|_K:  2.816e-08  alpha:  4.752e-01  linmin:  4.880e-04  t[s]:  40557.37
	Linear fluid (dielectric constant: 78.4, screening length: 8.12261 Bohr) occupying 0.370923 of unit cell:	Completed after 7 iterations at t[s]:  40578.96
	Linear fluid (dielectric constant: 78.4, screening length: 8.12261 Bohr) occupying 0.370923 of unit cell:	Completed after 0 iterations at t[s]:  40595.06
	FillingsUpdate:  mu: -0.187920769  nElectrons: 304.000000  magneticMoment: [ Abs: 0.00000  Tot: +0.00000 ]
	SubspaceRotationAdjust: set factor to 0.0235
ElecMinimize: Iter:  16  F: -1690.493840020821608  |grad|_K:  2.508e-08  alpha:  4.570e-01  linmin:  1.822e-04  t[s]:  40620.14
	Linear fluid (dielectric constant: 78.4, screening length: 8.12261 Bohr) occupying 0.370923 of unit cell:	Completed after 7 iterations at t[s]:  40641.73
	Linear fluid (dielectric constant: 78.4, screening length: 8.12261 Bohr) occupying 0.370923 of unit cell:	Completed after 0 iterations at t[s]:  40657.76
	FillingsUpdate:  mu: -0.188031751  nElectrons: 304.000000  magneticMoment: [ Abs: 0.00000  Tot: +0.00000 ]
	SubspaceRotationAdjust: set factor to 0.0214
ElecMinimize: Iter:  17  F: -1690.493840116731690  |grad|_K:  2.193e-08  alpha:  4.605e-01  linmin: -5.752e-04  t[s]:  40682.96
	Linear fluid (dielectric constant: 78.4, screening length: 8.12261 Bohr) occupying 0.370922 of unit cell:	Completed after 4 iterations at t[s]:  40704.31
	Linear fluid (dielectric constant: 78.4, screening length: 8.12261 Bohr) occupying 0.370922 of unit cell:	Completed after 1 iterations at t[s]:  40720.65
	FillingsUpdate:  mu: -0.187980491  nElectrons: 304.000000  magneticMoment: [ Abs: 0.00000  Tot: +0.00000 ]
	SubspaceRotationAdjust: set factor to 0.0242
ElecMinimize: Iter:  18  F: -1690.493840203910850  |grad|_K:  1.825e-08  alpha:  5.355e-01  linmin: -9.010e-04  t[s]:  40745.89
ElecMinimize: Converged (|Delta F|<1.000000e-07 for 2 iters).
Setting wave functions to eigenvectors of Hamiltonian
Converging empty states (this may take a while): |deigs|: 3.268e-09

Computing DFT-D3 correction:
# coordination-number Pt 5.969 7.106 8.563 5.972 9.224 9.402 9.504 9.524 9.562 9.557 9.569 9.555 9.558 9.521 9.503 9.404 9.227 8.566 7.110
# diagonal-C6 Pt 336.87 336.87 336.87 336.87 336.87 336.87 336.87 336.87 336.87 336.87 336.87 336.87 336.87 336.87 336.87 336.87 336.87 336.87 336.87
EvdW_6 =   -0.179079
EvdW_8 =   -0.282342

# Ionic positions in cartesian coordinates:
ion Pt  -0.003621228230923   7.025730254880786  63.415572119579096 1
ion Pt   2.611576051369040   2.915430192914728  62.117134590168853 1
ion Pt   2.612161982621579  10.310434594528932  60.490680172249178 1
ion Pt   0.004078885562910   0.176156701263158  33.343185583681063 1
ion Pt  -0.007032354430891   6.054930924443770  58.452794697837732 1
ion Pt   2.607390489212795   1.786644771980355  56.909998046011729 1
ion Pt   2.605695179505694   9.066513592669075  55.152402036873923 1
ion Pt  -0.008157389055810   4.827124904905147  53.486663594754212 1
ion Pt   2.609733422214241   0.615329632530232  51.780876178054726 1
ion Pt   2.612795472399456   7.796680818978247  50.055087203241392 1
ion Pt  -0.000234003058019   3.600776654574450  48.378772357941578 1
ion Pt   0.003254891594622  10.807996611062006  46.702202876934649 1
ion Pt   2.622014526821717   6.586675577311739  44.975641956372826 1
ion Pt   0.008074976952394   2.374614203371585  43.269031991129943 1
ion Pt   0.010329121724071   9.538155909418716  41.602614606979479 1
ion Pt   2.624330345034864   5.415161381652969  39.845420368656427 1
ion Pt   0.007407940596914   1.147030924492713  38.303130594644472 1
ion Pt   0.003693082744948   8.293870961382993  36.265539353581183 1
ion Pt   2.620497606420387   4.286553387638402  34.640479671307467 1

# Forces in Cartesian coordinates:
force Pt  -0.000030213349680  -0.000107750180086  -0.000127456289529 1
force Pt  -0.000015975537144  -0.000126794774132  -0.000036324851154 1
force Pt  -0.000020421553828   0.000160878801884  -0.000121092686466 1
force Pt   0.000022611733562   0.000108561552602  -0.000020474572139 1
force Pt  -0.000019362510389  -0.000032102480468   0.000118550669798 1
force Pt  -0.000026119706911  -0.000241476849289   0.000086039595247 1
force Pt  -0.000007273032304  -0.000079039561804  -0.000056966963823 1
force Pt  -0.000018769501803  -0.000065911710339  -0.000159096793911 1
force Pt  -0.000007195858555   0.000147672269553  -0.000223158052926 1
force Pt  -0.000011416818133   0.000019205823663  -0.000238156386167 1
force Pt  -0.000000711615625   0.000014175578713  -0.000162859743201 1
force Pt   0.000012769514164  -0.000016723143288  -0.000042709949038 1
force Pt   0.000007072248285  -0.000155042819955   0.000103817184259 1
force Pt   0.000017194867670   0.000053658542542   0.000180649638037 1
force Pt   0.000007795763662   0.000045960255772   0.000186381649847 1
force Pt   0.000027307206302   0.000276141000907   0.000039495065108 1
force Pt   0.000016975211641   0.000036263712113   0.000011481678133 1
force Pt   0.000021139103719  -0.000152237209487   0.000115089849052 1
force Pt   0.000017086118180   0.000113358935366  -0.000077651991041 1

# Energy components:
   A_diel =       -0.0037544711026394
   Eewald =    11610.1652944781999395
       EH =    13194.7926481771028193
     Eloc =   -26788.6109848446067190
      Enl =      -20.0318241138922630
     EvdW =       -0.4614211017535638
      Exc =     -540.6342903251877487
 Exc_core =      311.4362480417871666
       KE =      542.8575105796214757
-------------------------------------
     Etot =    -1690.4905735798299702
       TS =        0.0032666240808081
-------------------------------------
        F =    -1690.4938402039108496


Dumping 'jdft.fillings' ... done
Dumping 'jdft.wfns' ... done
Dumping 'jdft.fluidState' ... done
Dumping 'jdft.ionpos' ... done
Dumping 'jdft.lattice' ... done
Dumping 'jdft.eigenvals' ... done
Dumping 'jdft.eigStats' ... 
	eMin: -2.138042 at state 2 ( [ +0.000000 +0.400000 +0.000000 ] spin 1 )
	HOMO: -0.188033 at state 57 ( [ +0.000000 +0.400000 +0.000000 ] spin -1 )
	mu  : -0.187980
	LUMO: -0.187940 at state 31 ( [ -0.454545 +0.200000 +0.000000 ] spin 1 )
	eMax: +0.138908 at state 77 ( [ +0.363636 +0.400000 +0.000000 ] spin -1 )
	HOMO-LUMO gap: +0.000093
	Optical gap  : +0.000805 at state 50 ( [ -0.090909 +0.000000 +0.000000 ] spin 1 )
Dumping 'jdft.Ecomponents' ... done
IonicMinimize: Iter:  14  F: -1690.493840203910850  |grad|_K:  1.038e-04  alpha:  1.000e+00  linmin:  4.715e-02  t[s]:  40810.24
IonicMinimize: Converged (|Delta F|<1.000000e-06 for 2 iters).

#--- Lowdin population analysis ---
# oxidation-state Pt +0.060 +0.015 -0.043 +0.061 +0.009 +0.008 +0.011 +0.010 +0.010 +0.008 +0.006 +0.009 +0.011 +0.011 +0.014 +0.009 +0.011 -0.042 +0.016
# magnetic-moments Pt +0.000 +0.000 +0.000 +0.000 +0.000 +0.000 +0.000 +0.000 +0.000 +0.000 +0.000 +0.000 +0.000 +0.000 +0.000 +0.000 +0.000 +0.000 +0.000


Dumping 'jdft.n_up' ... done
Dumping 'jdft.n_dn' ... done
Dumping 'jdft.tau_up' ... done
Dumping 'jdft.tau_dn' ... done
Dumping 'jdft.eigenvals' ... done
Dumping 'jdft.eigStats' ... 
	eMin: -2.138042 at state 2 ( [ +0.000000 +0.400000 +0.000000 ] spin 1 )
	HOMO: -0.188033 at state 57 ( [ +0.000000 +0.400000 +0.000000 ] spin -1 )
	mu  : -0.187980
	LUMO: -0.187940 at state 31 ( [ -0.454545 +0.200000 +0.000000 ] spin 1 )
	eMax: +0.138908 at state 77 ( [ +0.363636 +0.400000 +0.000000 ] spin -1 )
	HOMO-LUMO gap: +0.000093
	Optical gap  : +0.000805 at state 50 ( [ -0.090909 +0.000000 +0.000000 ] spin 1 )
Dumping 'jdft.kPts' ... done
Dumping 'jdft.dosUp' ... done.
Dumping 'jdft.dosDn' ... done.
End date and time: Tue Dec  7 03:49:24 2021  (Duration: 0-11:20:50.91)
Done!
