
*************** JDFTx 1.7.0 (git hash 5f12716a) ***************

Start date and time: Fri Sep  9 08:21:26 2022
Executable /home/nisi6161/jdftx_alpine/build/jdftx with command-line: -i in
Running on hosts (process indices):  c3cpu-a2-u13-3.rc.int.colorado.edu (0-23)
Divided in process groups (process indices):  0 (0)  1 (1)  2 (2)  3 (3)  4 (4)  5 (5)  6 (6)  7 (7)  8 (8)  9 (9)  10 (10)  11 (11)  12 (12)  13 (13)  14 (14)  15 (15)  16 (16)  17 (17)  18 (18)  19 (19)  20 (20)  21 (21)  22 (22)  23 (23)
Resource initialization completed at t[s]:      0.00
Run totals: 24 processes, 64 threads, 0 GPUs


Input parsed successfully to the following command list (including defaults):

basis kpoint-dependent
converge-empty-states yes
coords-type Cartesian
core-overlap-check none
coulomb-interaction Periodic
davidson-band-ratio 1.1
density-of-states Etol 1.000000e-06 Esigma 1.000000e-03 \
		Complete \
	Total \
	OrthoOrbital Pt 1   s \
	OrthoOrbital Pt 1   p \
	OrthoOrbital Pt 1   px \
	OrthoOrbital Pt 1   py \
	OrthoOrbital Pt 1   pz \
	OrthoOrbital Pt 1   d \
	OrthoOrbital Pt 1   dxy \
	OrthoOrbital Pt 1   dyz \
	OrthoOrbital Pt 1   dz2 \
	OrthoOrbital Pt 1   dxz \
	OrthoOrbital Pt 1   dx2-y2 \
	OrthoOrbital Pt 2   s \
	OrthoOrbital Pt 2   p \
	OrthoOrbital Pt 2   px \
	OrthoOrbital Pt 2   py \
	OrthoOrbital Pt 2   pz \
	OrthoOrbital Pt 2   d \
	OrthoOrbital Pt 2   dxy \
	OrthoOrbital Pt 2   dyz \
	OrthoOrbital Pt 2   dz2 \
	OrthoOrbital Pt 2   dxz \
	OrthoOrbital Pt 2   dx2-y2 \
	OrthoOrbital Pt 3   s \
	OrthoOrbital Pt 3   p \
	OrthoOrbital Pt 3   px \
	OrthoOrbital Pt 3   py \
	OrthoOrbital Pt 3   pz \
	OrthoOrbital Pt 3   d \
	OrthoOrbital Pt 3   dxy \
	OrthoOrbital Pt 3   dyz \
	OrthoOrbital Pt 3   dz2 \
	OrthoOrbital Pt 3   dxz \
	OrthoOrbital Pt 3   dx2-y2 \
	OrthoOrbital Pt 4   s \
	OrthoOrbital Pt 4   p \
	OrthoOrbital Pt 4   px \
	OrthoOrbital Pt 4   py \
	OrthoOrbital Pt 4   pz \
	OrthoOrbital Pt 4   d \
	OrthoOrbital Pt 4   dxy \
	OrthoOrbital Pt 4   dyz \
	OrthoOrbital Pt 4   dz2 \
	OrthoOrbital Pt 4   dxz \
	OrthoOrbital Pt 4   dx2-y2 \
	OrthoOrbital Pt 5   s \
	OrthoOrbital Pt 5   p \
	OrthoOrbital Pt 5   px \
	OrthoOrbital Pt 5   py \
	OrthoOrbital Pt 5   pz \
	OrthoOrbital Pt 5   d \
	OrthoOrbital Pt 5   dxy \
	OrthoOrbital Pt 5   dyz \
	OrthoOrbital Pt 5   dz2 \
	OrthoOrbital Pt 5   dxz \
	OrthoOrbital Pt 5   dx2-y2 \
	OrthoOrbital Pt 6   s \
	OrthoOrbital Pt 6   p \
	OrthoOrbital Pt 6   px \
	OrthoOrbital Pt 6   py \
	OrthoOrbital Pt 6   pz \
	OrthoOrbital Pt 6   d \
	OrthoOrbital Pt 6   dxy \
	OrthoOrbital Pt 6   dyz \
	OrthoOrbital Pt 6   dz2 \
	OrthoOrbital Pt 6   dxz \
	OrthoOrbital Pt 6   dx2-y2 \
	OrthoOrbital Pt 7   s \
	OrthoOrbital Pt 7   p \
	OrthoOrbital Pt 7   px \
	OrthoOrbital Pt 7   py \
	OrthoOrbital Pt 7   pz \
	OrthoOrbital Pt 7   d \
	OrthoOrbital Pt 7   dxy \
	OrthoOrbital Pt 7   dyz \
	OrthoOrbital Pt 7   dz2 \
	OrthoOrbital Pt 7   dxz \
	OrthoOrbital Pt 7   dx2-y2 \
	OrthoOrbital Pt 8   s \
	OrthoOrbital Pt 8   p \
	OrthoOrbital Pt 8   px \
	OrthoOrbital Pt 8   py \
	OrthoOrbital Pt 8   pz \
	OrthoOrbital Pt 8   d \
	OrthoOrbital Pt 8   dxy \
	OrthoOrbital Pt 8   dyz \
	OrthoOrbital Pt 8   dz2 \
	OrthoOrbital Pt 8   dxz \
	OrthoOrbital Pt 8   dx2-y2 \
	OrthoOrbital Pt 9   s \
	OrthoOrbital Pt 9   p \
	OrthoOrbital Pt 9   px \
	OrthoOrbital Pt 9   py \
	OrthoOrbital Pt 9   pz \
	OrthoOrbital Pt 9   d \
	OrthoOrbital Pt 9   dxy \
	OrthoOrbital Pt 9   dyz \
	OrthoOrbital Pt 9   dz2 \
	OrthoOrbital Pt 9   dxz \
	OrthoOrbital Pt 9   dx2-y2 \
	OrthoOrbital Pt 10   s \
	OrthoOrbital Pt 10   p \
	OrthoOrbital Pt 10   px \
	OrthoOrbital Pt 10   py \
	OrthoOrbital Pt 10   pz \
	OrthoOrbital Pt 10   d \
	OrthoOrbital Pt 10   dxy \
	OrthoOrbital Pt 10   dyz \
	OrthoOrbital Pt 10   dz2 \
	OrthoOrbital Pt 10   dxz \
	OrthoOrbital Pt 10   dx2-y2 \
	OrthoOrbital Pt 11   s \
	OrthoOrbital Pt 11   p \
	OrthoOrbital Pt 11   px \
	OrthoOrbital Pt 11   py \
	OrthoOrbital Pt 11   pz \
	OrthoOrbital Pt 11   d \
	OrthoOrbital Pt 11   dxy \
	OrthoOrbital Pt 11   dyz \
	OrthoOrbital Pt 11   dz2 \
	OrthoOrbital Pt 11   dxz \
	OrthoOrbital Pt 11   dx2-y2 \
	OrthoOrbital Pt 12   s \
	OrthoOrbital Pt 12   p \
	OrthoOrbital Pt 12   px \
	OrthoOrbital Pt 12   py \
	OrthoOrbital Pt 12   pz \
	OrthoOrbital Pt 12   d \
	OrthoOrbital Pt 12   dxy \
	OrthoOrbital Pt 12   dyz \
	OrthoOrbital Pt 12   dz2 \
	OrthoOrbital Pt 12   dxz \
	OrthoOrbital Pt 12   dx2-y2 \
	OrthoOrbital Pt 13   s \
	OrthoOrbital Pt 13   p \
	OrthoOrbital Pt 13   px \
	OrthoOrbital Pt 13   py \
	OrthoOrbital Pt 13   pz \
	OrthoOrbital Pt 13   d \
	OrthoOrbital Pt 13   dxy \
	OrthoOrbital Pt 13   dyz \
	OrthoOrbital Pt 13   dz2 \
	OrthoOrbital Pt 13   dxz \
	OrthoOrbital Pt 13   dx2-y2 \
	OrthoOrbital Pt 14   s \
	OrthoOrbital Pt 14   p \
	OrthoOrbital Pt 14   px \
	OrthoOrbital Pt 14   py \
	OrthoOrbital Pt 14   pz \
	OrthoOrbital Pt 14   d \
	OrthoOrbital Pt 14   dxy \
	OrthoOrbital Pt 14   dyz \
	OrthoOrbital Pt 14   dz2 \
	OrthoOrbital Pt 14   dxz \
	OrthoOrbital Pt 14   dx2-y2 \
	OrthoOrbital Pt 15   s \
	OrthoOrbital Pt 15   p \
	OrthoOrbital Pt 15   px \
	OrthoOrbital Pt 15   py \
	OrthoOrbital Pt 15   pz \
	OrthoOrbital Pt 15   d \
	OrthoOrbital Pt 15   dxy \
	OrthoOrbital Pt 15   dyz \
	OrthoOrbital Pt 15   dz2 \
	OrthoOrbital Pt 15   dxz \
	OrthoOrbital Pt 15   dx2-y2 \
	OrthoOrbital Pt 16   s \
	OrthoOrbital Pt 16   p \
	OrthoOrbital Pt 16   px \
	OrthoOrbital Pt 16   py \
	OrthoOrbital Pt 16   pz \
	OrthoOrbital Pt 16   d \
	OrthoOrbital Pt 16   dxy \
	OrthoOrbital Pt 16   dyz \
	OrthoOrbital Pt 16   dz2 \
	OrthoOrbital Pt 16   dxz \
	OrthoOrbital Pt 16   dx2-y2 \
	OrthoOrbital Pt 17   s \
	OrthoOrbital Pt 17   p \
	OrthoOrbital Pt 17   px \
	OrthoOrbital Pt 17   py \
	OrthoOrbital Pt 17   pz \
	OrthoOrbital Pt 17   d \
	OrthoOrbital Pt 17   dxy \
	OrthoOrbital Pt 17   dyz \
	OrthoOrbital Pt 17   dz2 \
	OrthoOrbital Pt 17   dxz \
	OrthoOrbital Pt 17   dx2-y2 \
	OrthoOrbital Pt 18   s \
	OrthoOrbital Pt 18   p \
	OrthoOrbital Pt 18   px \
	OrthoOrbital Pt 18   py \
	OrthoOrbital Pt 18   pz \
	OrthoOrbital Pt 18   d \
	OrthoOrbital Pt 18   dxy \
	OrthoOrbital Pt 18   dyz \
	OrthoOrbital Pt 18   dz2 \
	OrthoOrbital Pt 18   dxz \
	OrthoOrbital Pt 18   dx2-y2 \
	OrthoOrbital Pt 19   s \
	OrthoOrbital Pt 19   p \
	OrthoOrbital Pt 19   px \
	OrthoOrbital Pt 19   py \
	OrthoOrbital Pt 19   pz \
	OrthoOrbital Pt 19   d \
	OrthoOrbital Pt 19   dxy \
	OrthoOrbital Pt 19   dyz \
	OrthoOrbital Pt 19   dz2 \
	OrthoOrbital Pt 19   dxz \
	OrthoOrbital Pt 19   dx2-y2 \
	OrthoOrbital Pt 20   s \
	OrthoOrbital Pt 20   p \
	OrthoOrbital Pt 20   px \
	OrthoOrbital Pt 20   py \
	OrthoOrbital Pt 20   pz \
	OrthoOrbital Pt 20   d \
	OrthoOrbital Pt 20   dxy \
	OrthoOrbital Pt 20   dyz \
	OrthoOrbital Pt 20   dz2 \
	OrthoOrbital Pt 20   dxz \
	OrthoOrbital Pt 20   dx2-y2 \
	OrthoOrbital Pt 21   s \
	OrthoOrbital Pt 21   p \
	OrthoOrbital Pt 21   px \
	OrthoOrbital Pt 21   py \
	OrthoOrbital Pt 21   pz \
	OrthoOrbital Pt 21   d \
	OrthoOrbital Pt 21   dxy \
	OrthoOrbital Pt 21   dyz \
	OrthoOrbital Pt 21   dz2 \
	OrthoOrbital Pt 21   dxz \
	OrthoOrbital Pt 21   dx2-y2 \
	OrthoOrbital Pt 22   s \
	OrthoOrbital Pt 22   p \
	OrthoOrbital Pt 22   px \
	OrthoOrbital Pt 22   py \
	OrthoOrbital Pt 22   pz \
	OrthoOrbital Pt 22   d \
	OrthoOrbital Pt 22   dxy \
	OrthoOrbital Pt 22   dyz \
	OrthoOrbital Pt 22   dz2 \
	OrthoOrbital Pt 22   dxz \
	OrthoOrbital Pt 22   dx2-y2 \
	OrthoOrbital Pt 23   s \
	OrthoOrbital Pt 23   p \
	OrthoOrbital Pt 23   px \
	OrthoOrbital Pt 23   py \
	OrthoOrbital Pt 23   pz \
	OrthoOrbital Pt 23   d \
	OrthoOrbital Pt 23   dxy \
	OrthoOrbital Pt 23   dyz \
	OrthoOrbital Pt 23   dz2 \
	OrthoOrbital Pt 23   dxz \
	OrthoOrbital Pt 23   dx2-y2 \
	OrthoOrbital Pt 24   s \
	OrthoOrbital Pt 24   p \
	OrthoOrbital Pt 24   px \
	OrthoOrbital Pt 24   py \
	OrthoOrbital Pt 24   pz \
	OrthoOrbital Pt 24   d \
	OrthoOrbital Pt 24   dxy \
	OrthoOrbital Pt 24   dyz \
	OrthoOrbital Pt 24   dz2 \
	OrthoOrbital Pt 24   dxz \
	OrthoOrbital Pt 24   dx2-y2 \
	OrthoOrbital Pt 25   s \
	OrthoOrbital Pt 25   p \
	OrthoOrbital Pt 25   px \
	OrthoOrbital Pt 25   py \
	OrthoOrbital Pt 25   pz \
	OrthoOrbital Pt 25   d \
	OrthoOrbital Pt 25   dxy \
	OrthoOrbital Pt 25   dyz \
	OrthoOrbital Pt 25   dz2 \
	OrthoOrbital Pt 25   dxz \
	OrthoOrbital Pt 25   dx2-y2 \
	OrthoOrbital Pt 26   s \
	OrthoOrbital Pt 26   p \
	OrthoOrbital Pt 26   px \
	OrthoOrbital Pt 26   py \
	OrthoOrbital Pt 26   pz \
	OrthoOrbital Pt 26   d \
	OrthoOrbital Pt 26   dxy \
	OrthoOrbital Pt 26   dyz \
	OrthoOrbital Pt 26   dz2 \
	OrthoOrbital Pt 26   dxz \
	OrthoOrbital Pt 26   dx2-y2
dump End ElecDensity KEdensity BandEigs EigStats RhoAtom DOS Kpoints
dump Ionic State IonicPositions Lattice EigStats Ecomponents
dump 
dump 
dump 
dump 
dump 
dump 
dump 
dump 
dump-name jdft.$VAR
elec-cutoff 20
elec-eigen-algo Davidson
elec-ex-corr gga-PBE
elec-initial-magnetization 0.000000 no
elec-n-bands 250
elec-smearing Fermi 0.001
electronic-minimize  \
	dirUpdateScheme      FletcherReeves \
	linminMethod         DirUpdateRecommended \
	nIterations          100 \
	history              15 \
	knormThreshold       0 \
	energyDiffThreshold  1e-07 \
	nEnergyDiff          2 \
	alphaTstart          1 \
	alphaTmin            1e-10 \
	updateTestStepSize   yes \
	alphaTreduceFactor   0.1 \
	alphaTincreaseFactor 3 \
	nAlphaAdjustMax      3 \
	wolfeEnergy          0.0001 \
	wolfeGradient        0.9 \
	fdTest               no
exchange-regularization WignerSeitzTruncated
fluid LinearPCM 298.000000 1.013250
fluid-anion F- 0.5 MeanFieldLJ \
	epsBulk 1 \
	pMol 0 \
	epsInf 1 \
	Pvap 0 \
	sigmaBulk 0 \
	Rvdw 2.24877 \
	Res 0 \
	tauNuc 343133
fluid-cation Na+ 0.5 MeanFieldLJ \
	epsBulk 1 \
	pMol 0 \
	epsInf 1 \
	Pvap 0 \
	sigmaBulk 0 \
	Rvdw 2.19208 \
	Res 0 \
	tauNuc 343133
fluid-ex-corr lda-TF lda-PZ
fluid-gummel-loop 10 1.000000e-05
fluid-minimize  \
	dirUpdateScheme      PolakRibiere \
	linminMethod         DirUpdateRecommended \
	nIterations          400 \
	history              15 \
	knormThreshold       1e-11 \
	energyDiffThreshold  0 \
	nEnergyDiff          2 \
	alphaTstart          1 \
	alphaTmin            1e-10 \
	updateTestStepSize   yes \
	alphaTreduceFactor   0.1 \
	alphaTincreaseFactor 3 \
	nAlphaAdjustMax      6 \
	wolfeEnergy          0.0001 \
	wolfeGradient        0.9 \
	fdTest               no
fluid-solvent H2O 55.338 ScalarEOS \
	epsBulk 78.4 \
	pMol 0.92466 \
	epsInf 1.77 \
	Pvap 1.06736e-10 \
	sigmaBulk 4.62e-05 \
	Rvdw 2.61727 \
	Res 1.42 \
	tauNuc 343133 \
	poleEl 15 7 1
forces-output-coords Positions
initial-state jdft.$VAR
ion Pt   0.004658000000000  10.244355999999998  24.366871999999997 1
ion Pt   0.002634000000000   4.101669999999999  19.959872999999998 1
ion Pt   3.705117000000000   7.312145999999999  22.281742999999999 1
ion Pt   3.698765000000000   1.003201000000000  17.915320999999995 1
ion Pt  -0.001454000000000   8.212795999999999  13.889363999999999 1
ion Pt   0.001502000000000   2.050074000000000   9.724066999999998 1
ion Pt   3.697107999999999  11.267018999999998  15.905503999999999 1
ion Pt   3.700471000000000   5.131961999999999  11.799593000000000 1
ion Pt  -0.001643000000000  12.350494999999999   7.622131000000000 1
ion Pt  -0.002579000000000   6.106671000000000   3.512778000000000 1
ion Pt   0.005538000000000   0.003455000000000  25.880638000000001 1
ion Pt   3.697563000000000   9.240007999999998   5.729483999999999 1
ion Pt   3.694966000000000   3.045631999999999   1.681837000000000 1
ion Pt   3.701592000000000  12.307862999999998  20.948695000000001 1
ion Pt   3.698048000000000   6.158306999999999  16.954751000000002 1
ion Pt   0.001591000000000   9.197122999999998  19.056287000000001 1
ion Pt  -0.000932000000000   3.076032000000000  14.879385999999998 1
ion Pt   3.702106000000000  10.279517999999998  10.773395000000001 1
ion Pt   3.696793000000000   4.106831999999999   6.717825000000000 1
ion Pt   0.001435000000000  13.333793999999997  12.789934999999998 1
ion Pt   0.000766000000000   7.204765999999999   8.763097000000000 1
ion Pt  -0.005568000000000   0.896983000000000   4.395714999999999 1
ion Pt   3.694147999999999   8.205846999999999   0.796740000000000 1
ion Pt   3.702206000000000   2.102764000000000  23.164599999999997 1
ion Pt  -0.004480000000000  11.304061999999998   2.309944999999999 1
ion Pt   0.004613000000000   5.163922999999999  24.994820000000001 1
ion-species /projects/musgravc/apps/jdftx-1.6.0/build/pseudopotentials/GBRV_v1.5/$ID_pbe_v1.uspp
ion-species /projects/musgravc/apps/jdftx-1.6.0/build/pseudopotentials/GBRV_v1.5/$ID_pbe_v1.2.uspp
ion-species /projects/musgravc/apps/jdftx-1.6.0/build/pseudopotentials/GBRV_v1.5/$ID_pbe_v1.4.uspp
ion-species /projects/musgravc/apps/jdftx-1.6.0/build/pseudopotentials/GBRV_v1.5/$ID_pbe_v1.5.uspp
ion-width Ecut
ionic-minimize  \
	dirUpdateScheme      L-BFGS \
	linminMethod         DirUpdateRecommended \
	nIterations          100 \
	history              15 \
	knormThreshold       0.0001 \
	energyDiffThreshold  0.0001 \
	nEnergyDiff          2 \
	alphaTstart          1 \
	alphaTmin            1e-10 \
	updateTestStepSize   yes \
	alphaTreduceFactor   0.1 \
	alphaTincreaseFactor 3 \
	nAlphaAdjustMax      3 \
	wolfeEnergy          0.0001 \
	wolfeGradient        0.9 \
	fdTest               no
kpoint   0.000000000000   0.000000000000   0.000000000000  1.00000000000000
kpoint-folding 9 4 1 
latt-move-scale 0 0 0
latt-scale 1 1 1 
lattice  \
	   7.399158000000000   -3.699579000000000    0.000000000000000  \
	   0.000000000000000   13.339022999999999    0.000000000000000  \
	   0.000000000000000    0.000000000000000   80.034133999999995 
lattice-minimize  \
	dirUpdateScheme      L-BFGS \
	linminMethod         DirUpdateRecommended \
	nIterations          0 \
	history              15 \
	knormThreshold       0 \
	energyDiffThreshold  1e-06 \
	nEnergyDiff          2 \
	alphaTstart          1 \
	alphaTmin            1e-10 \
	updateTestStepSize   yes \
	alphaTreduceFactor   0.1 \
	alphaTincreaseFactor 3 \
	nAlphaAdjustMax      3 \
	wolfeEnergy          0.0001 \
	wolfeGradient        0.9 \
	fdTest               no
lcao-params 30 1e-06 0.001
pcm-variant CANDLE
spintype z-spin
subspace-rotation-factor 1 yes
symmetries automatic
symmetry-threshold 0.0001
target-mu -0.24475 no

van-der-waals D3



---------- Setting up symmetries ----------

Found 8 point-group symmetries of the bravais lattice
Found 1 space-group symmetries with basis
Applied RMS atom displacement 0 bohrs to make symmetries exact.

---------- Initializing the Grid ----------
R = 
[      7.39916     -3.69958            0  ]
[            0       13.339            0  ]
[            0            0      80.0341  ]
unit cell volume = 7899.17
G =
[   0.849176   0.235519         -0  ]
[          0   0.471038          0  ]
[          0         -0  0.0785063  ]
Minimum fftbox size, Smin = [  32  56  324  ]
Chosen fftbox size, S = [  32  56  324  ]

---------- Exchange Correlation functional ----------
Initalized PBE GGA exchange.
Initalized PBE GGA correlation.

---------- Setting up pseudopotentials ----------
Width of ionic core gaussian charges (only for fluid interactions / plotting) set to 0.397384

Reading pseudopotential file '/projects/musgravc/apps/jdftx-1.6.0/build/pseudopotentials/GBRV_v1.5/pt_pbe_v1.4.uspp':
  Title: Pt.  Created by USPP 7.3.6 on 31-3-15
  Reference state energy: -105.002503.  16 valence electrons in orbitals:
    |510>  occupation: 6  eigenvalue: -2.158104
    |520>  occupation: 9.5  eigenvalue: -0.335376
    |600>  occupation: 0  eigenvalue: -0.319640
    |610>  occupation: 0  eigenvalue: -0.122947
  lMax: 2  lLocal: 3  QijEcut: 5.5
  6 projectors sampled on a log grid with 745 points:
    l: 0  eig: -0.319640  rCut: 2.45
    l: 0  eig: 1.500000  rCut: 2.45
    l: 1  eig: -2.158104  rCut: 1.6
    l: 1  eig: -0.122947  rCut: 1.6
    l: 2  eig: -0.500000  rCut: 1.6
    l: 2  eig: -0.335375  rCut: 1.6
  Partial core density with radius 1.1
  Transforming core density to a uniform radial grid of dG=0.02 with 1264 points.
  Transforming local potential to a uniform radial grid of dG=0.02 with 1264 points.
  Transforming nonlocal projectors to a uniform radial grid of dG=0.02 with 432 points.
  Transforming density augmentations to a uniform radial grid of dG=0.02 with 1264 points.
  Transforming atomic orbitals to a uniform radial grid of dG=0.02 with 432 points.
  Core radius for overlap checks: 2.45 bohrs.

Initialized 1 species with 26 total atoms.

Folded 1 k-points by 9x4x1 to 36 k-points.

---------- Setting up k-points, bands, fillings ----------
Adding inversion symmetry to k-mesh for non-inversion-symmetric unit cell.
Reduced to 19 k-points under symmetry. 
Computing the number of bands and number of electrons
Calculating initial fillings.
nElectrons: 416.000000   nBands: 250   nStates: 38

----- Setting up reduced wavefunction bases (one per k-point) -----
average nbasis = 33742.806 , ideal nbasis = 33745.865

----- Initializing Supercell corresponding to k-point mesh -----
Lattice vector linear combinations in supercell:
[   9   0   0  ]
[   0   4   0  ]
[   0   0   1  ]
Supercell lattice vectors:
[  66.5924  -14.7983  0  ]
[  0  53.3561  0  ]
[  0  0  80.0341  ]

Initializing DFT-D3 calculator:
	Parameters set for gga-PBE functional
	s6:  1.000  s_r6:  1.217
	s8:  0.722  s_r8:  1.000
	Per-atom parameters loaded for:
	Pt:  sqrtQ[a0]:  5.888  Rcov[a0]:  2.116  CN: [ 0.00 1.92 6.67 ]

Initializing DFT-D2 calculator for fluid / solvation:
	Pt:  C6:  815.23 Eh-a0^6  R0: 3.326 a0 (WARNING: beyond Grimme's data set)

---------- Setting up ewald sum ----------
Optimum gaussian width for ewald sums = 4.616098 bohr.
Real space sum over 935 unit cells with max indices [  8  5  2  ]
Reciprocal space sum over 6669 terms with max indices [  4  6  28  ]

Computing DFT-D3 correction:
# coordination-number Pt 6.997 9.392 8.581 9.510 9.535 9.448 9.565 9.550 9.393 8.627 5.282 9.394 5.971 9.397 9.451 9.397 9.551 9.563 9.390 9.534 9.508 8.578 5.282 8.629 6.994 5.972
# diagonal-C6 Pt 336.87 336.87 336.87 336.87 336.87 336.87 336.87 336.87 336.87 336.87 336.87 336.87 336.87 336.87 336.87 336.87 336.87 336.87 336.87 336.87 336.87 336.87 336.87 336.87 336.87 336.87
EvdW_6 =   -0.233145
EvdW_8 =   -0.376073

---------- Allocating electronic variables ----------
Initializing wave functions:  linear combination of atomic orbitals
Pt pseudo-atom occupations:   s ( 0 )  p ( 6 0 )  d ( 10 )
	FillingsUpdate:  mu: -0.244750000  nElectrons: 416.000000  magneticMoment: [ Abs: 0.00238  Tot: +0.00028 ]
LCAOMinimize: Iter:   0  G: -2197.9240192080255838  |grad|_K:  1.850e-02  alpha:  1.000e+00
LCAOMinimize: 	Step increased G by 5.499123e+02, reducing alpha to 2.088664e-02.
	FillingsUpdate:  mu: -0.244750000  nElectrons: 416.000000  magneticMoment: [ Abs: 0.00175  Tot: +0.00014 ]
LCAOMinimize: Iter:   1  G: -2204.0400128773480901  |grad|_K:  1.340e-02  alpha:  2.089e-02  linmin:  1.609e-01  cgtest: -9.062e-01  t[s]:    364.27
LCAOMinimize: 	Bad step direction: g.d > 0.
LCAOMinimize: 	Undoing step.
LCAOMinimize: 	Step failed: resetting search direction.
	FillingsUpdate:  mu: -0.244750000  nElectrons: 416.000000  magneticMoment: [ Abs: 0.00175  Tot: +0.00014 ]
LCAOMinimize: Iter:   2  G: -2204.0400128773480901  |grad|_K:  1.340e-02  alpha:  0.000e+00
	FillingsUpdate:  mu: -0.244750000  nElectrons: 416.000000  magneticMoment: [ Abs: 0.00175  Tot: -0.00001 ]
LCAOMinimize: Iter:   3  G: -2208.6337609280662946  |grad|_K:  2.819e-03  alpha:  1.230e-02  linmin: -4.280e-02  cgtest:  5.529e-02  t[s]:    556.49
LCAOMinimize: 	Predicted alpha/alphaT>3.000000, increasing alphaT to 3.691017e-02.
	FillingsUpdate:  mu: -0.244750000  nElectrons: 416.000000  magneticMoment: [ Abs: 0.00151  Tot: +0.00003 ]
LCAOMinimize: Iter:   4  G: -2209.3631381750246874  |grad|_K:  6.049e-03  alpha:  4.939e-02  linmin:  5.268e-03  cgtest:  5.400e-02  t[s]:    693.67
	FillingsUpdate:  mu: -0.244750000  nElectrons: 416.000000  magneticMoment: [ Abs: 0.00140  Tot: +0.00005 ]
LCAOMinimize: Iter:   5  G: -2209.7293091872247714  |grad|_K:  3.254e-03  alpha:  6.984e-03  linmin:  2.267e-02  cgtest: -1.665e-01  t[s]:    803.06
	FillingsUpdate:  mu: -0.244750000  nElectrons: 416.000000  magneticMoment: [ Abs: 0.00133  Tot: +0.00005 ]
LCAOMinimize: Iter:   6  G: -2209.8951176205559932  |grad|_K:  2.236e-03  alpha:  1.133e-02  linmin:  4.011e-04  cgtest:  4.908e-01  t[s]:    913.12
	FillingsUpdate:  mu: -0.244750000  nElectrons: 416.000000  magneticMoment: [ Abs: 0.00127  Tot: +0.00001 ]
LCAOMinimize: Iter:   7  G: -2210.1784041512119074  |grad|_K:  4.647e-03  alpha:  2.968e-02  linmin: -2.670e-03  cgtest:  1.117e-02  t[s]:   1023.97
	FillingsUpdate:  mu: -0.244750000  nElectrons: 416.000000  magneticMoment: [ Abs: 0.00120  Tot: -0.00006 ]
LCAOMinimize: Iter:   8  G: -2210.4949740974388988  |grad|_K:  2.102e-03  alpha:  9.331e-03  linmin:  1.748e-02  cgtest: -8.221e-01  t[s]:   1135.00
	FillingsUpdate:  mu: -0.244750000  nElectrons: 416.000000  magneticMoment: [ Abs: 0.00117  Tot: -0.00006 ]
LCAOMinimize: Iter:   9  G: -2210.5190519729708285  |grad|_K:  1.477e-03  alpha:  5.461e-03  linmin:  1.424e-04  cgtest:  8.845e-01  t[s]:   1245.21
LCAOMinimize: Encountered beta<0, resetting CG.
	FillingsUpdate:  mu: -0.244750000  nElectrons: 416.000000  magneticMoment: [ Abs: 0.00116  Tot: -0.00006 ]
LCAOMinimize: Iter:  10  G: -2210.5552216588894225  |grad|_K:  1.777e-03  alpha:  8.968e-03  linmin:  1.785e-03  cgtest: -7.912e-03  t[s]:   1355.56
	FillingsUpdate:  mu: -0.244750000  nElectrons: 416.000000  magneticMoment: [ Abs: 0.00110  Tot: -0.00001 ]
LCAOMinimize: Iter:  11  G: -2210.6911407563002285  |grad|_K:  1.070e-03  alpha:  2.400e-02  linmin:  5.749e-03  cgtest:  8.770e-02  t[s]:   1466.33
	FillingsUpdate:  mu: -0.244750000  nElectrons: 416.000000  magneticMoment: [ Abs: 0.00108  Tot: -0.00002 ]
LCAOMinimize: Iter:  12  G: -2210.7244302809363035  |grad|_K:  8.989e-04  alpha:  1.598e-02  linmin: -1.998e-04  cgtest:  6.173e-02  t[s]:   1576.97
	FillingsUpdate:  mu: -0.244750000  nElectrons: 416.000000  magneticMoment: [ Abs: 0.00107  Tot: -0.00002 ]
LCAOMinimize: Iter:  13  G: -2210.7411362540433402  |grad|_K:  1.341e-03  alpha:  1.111e-02  linmin: -5.478e-05  cgtest: -1.075e-02  t[s]:   1687.25
LCAOMinimize: 	Predicted alpha/alphaT>3.000000, increasing alphaT to 3.332614e-02.
	FillingsUpdate:  mu: -0.244750000  nElectrons: 416.000000  magneticMoment: [ Abs: 0.00089  Tot: -0.00004 ]
LCAOMinimize: Iter:  14  G: -2210.9501858211633589  |grad|_K:  7.066e-04  alpha:  6.305e-02  linmin:  2.182e-03  cgtest: -1.174e-01  t[s]:   1825.37
	FillingsUpdate:  mu: -0.244750000  nElectrons: 416.000000  magneticMoment: [ Abs: 0.00087  Tot: -0.00004 ]
LCAOMinimize: Iter:  15  G: -2210.9636095035489234  |grad|_K:  9.382e-04  alpha:  1.490e-02  linmin:  1.222e-05  cgtest:  1.166e-02  t[s]:   1935.54
	FillingsUpdate:  mu: -0.244750000  nElectrons: 416.000000  magneticMoment: [ Abs: 0.00086  Tot: -0.00005 ]
LCAOMinimize: Iter:  16  G: -2210.9754244376481438  |grad|_K:  6.498e-04  alpha:  7.159e-03  linmin: -2.747e-04  cgtest:  5.764e-04  t[s]:   2045.78
LCAOMinimize: 	Predicted alpha/alphaT>3.000000, increasing alphaT to 2.147752e-02.
	FillingsUpdate:  mu: -0.244750000  nElectrons: 416.000000  magneticMoment: [ Abs: 0.00082  Tot: -0.00005 ]
LCAOMinimize: Iter:  17  G: -2211.0041992863652922  |grad|_K:  2.923e-04  alpha:  3.684e-02  linmin:  2.975e-03  cgtest: -1.824e-01  t[s]:   2183.33
	FillingsUpdate:  mu: -0.244750000  nElectrons: 416.000000  magneticMoment: [ Abs: 0.00082  Tot: -0.00005 ]
LCAOMinimize: Iter:  18  G: -2211.0054682881486769  |grad|_K:  3.468e-04  alpha:  8.264e-03  linmin: -1.436e-04  cgtest:  3.601e-02  t[s]:   2292.75
	FillingsUpdate:  mu: -0.244750000  nElectrons: 416.000000  magneticMoment: [ Abs: 0.00081  Tot: -0.00005 ]
LCAOMinimize: Iter:  19  G: -2211.0089852814462574  |grad|_K:  2.808e-04  alpha:  1.555e-02  linmin: -9.946e-04  cgtest: -1.099e-01  t[s]:   2403.53
	FillingsUpdate:  mu: -0.244750000  nElectrons: 416.000000  magneticMoment: [ Abs: 0.00080  Tot: -0.00006 ]
LCAOMinimize: Iter:  20  G: -2211.0139136993029751  |grad|_K:  1.370e-04  alpha:  3.307e-02  linmin:  5.598e-04  cgtest: -1.104e-01  t[s]:   2514.14
	FillingsUpdate:  mu: -0.244750000  nElectrons: 416.000000  magneticMoment: [ Abs: 0.00080  Tot: -0.00006 ]
LCAOMinimize: Iter:  21  G: -2211.0141992743115225  |grad|_K:  1.700e-04  alpha:  8.212e-03  linmin: -1.366e-04  cgtest:  8.325e-03  t[s]:   2625.60
LCAOMinimize: 	Predicted alpha/alphaT>3.000000, increasing alphaT to 2.463456e-02.
	FillingsUpdate:  mu: -0.244750000  nElectrons: 416.000000  magneticMoment: [ Abs: 0.00080  Tot: -0.00006 ]
LCAOMinimize: Iter:  22  G: -2211.0157460889267895  |grad|_K:  1.195e-04  alpha:  2.871e-02  linmin:  8.117e-05  cgtest: -6.532e-02  t[s]:   2764.23
	FillingsUpdate:  mu: -0.244750000  nElectrons: 416.000000  magneticMoment: [ Abs: 0.00080  Tot: -0.00007 ]
LCAOMinimize: Iter:  23  G: -2211.0169099551640102  |grad|_K:  2.387e-04  alpha:  4.396e-02  linmin:  9.747e-05  cgtest:  1.279e-02  t[s]:   2876.18
	FillingsUpdate:  mu: -0.244750000  nElectrons: 416.000000  magneticMoment: [ Abs: 0.00079  Tot: -0.00007 ]
LCAOMinimize: Iter:  24  G: -2211.0173987253378982  |grad|_K:  8.194e-05  alpha:  4.680e-03  linmin:  2.759e-04  cgtest:  2.195e-02  t[s]:   2987.34
	FillingsUpdate:  mu: -0.244750000  nElectrons: 416.000000  magneticMoment: [ Abs: 0.00079  Tot: -0.00007 ]
LCAOMinimize: Iter:  25  G: -2211.0175598402356627  |grad|_K:  3.467e-05  alpha:  1.255e-02  linmin: -1.089e-02  cgtest:  1.218e-01  t[s]:   3097.89
	FillingsUpdate:  mu: -0.244750000  nElectrons: 416.000000  magneticMoment: [ Abs: 0.00079  Tot: -0.00007 ]
LCAOMinimize: Iter:  26  G: -2211.0176021015504375  |grad|_K:  6.385e-05  alpha:  1.828e-02  linmin:  2.264e-04  cgtest: -2.455e-02  t[s]:   3208.06
	FillingsUpdate:  mu: -0.244750000  nElectrons: 416.000000  magneticMoment: [ Abs: 0.00080  Tot: -0.00008 ]
LCAOMinimize: Iter:  27  G: -2211.0176689840891413  |grad|_K:  2.493e-05  alpha:  8.791e-03  linmin:  5.058e-04  cgtest:  1.609e-01  t[s]:   3317.98
LCAOMinimize: 	Predicted alpha/alphaT>3.000000, increasing alphaT to 2.637394e-02.
	FillingsUpdate:  mu: -0.244750000  nElectrons: 416.000000  magneticMoment: [ Abs: 0.00080  Tot: -0.00008 ]
LCAOMinimize: Iter:  28  G: -2211.0177267978824602  |grad|_K:  4.078e-05  alpha:  4.989e-02  linmin: -3.331e-04  cgtest:  3.586e-03  t[s]:   3456.67
	FillingsUpdate:  mu: -0.244750000  nElectrons: 416.000000  magneticMoment: [ Abs: 0.00080  Tot: -0.00008 ]
LCAOMinimize: Iter:  29  G: -2211.0177456977007751  |grad|_K:  3.463e-05  alpha:  5.996e-03  linmin:  5.410e-05  cgtest: -1.185e-02  t[s]:   3566.90
LCAOMinimize: 	Predicted alpha/alphaT>3.000000, increasing alphaT to 1.798653e-02.
	FillingsUpdate:  mu: -0.244750000  nElectrons: 416.000000  magneticMoment: [ Abs: 0.00080  Tot: -0.00008 ]
LCAOMinimize: Iter:  30  G: -2211.0177925728503396  |grad|_K:  3.434e-05  alpha:  2.114e-02  linmin:  1.832e-03  cgtest: -1.493e-02  t[s]:   3706.01
LCAOMinimize: None of the convergence criteria satisfied after 30 iterations.
----- createFluidSolver() ----- (Fluid-side solver setup)
   Initializing fluid molecule 'H2O'
     Initializing site 'O'
       Electron density: proportional to exp(-r/0.36935)*erfc((r-0.51523)/0.36823) with norm 6.826
       Charge density: gaussian nuclear width 0.478731 with net site charge 0.826
       Polarizability: cuspless exponential with width 0.32 and norm 3.73
       Hard sphere radius: 2.57003 bohrs
       Positions in reference frame:
         [ +0.000000 +0.000000 +0.000000 ]
     Initializing site 'H'
       Electron density: proportional to exp(-r/0.34641)*erfc((r-0)/0.390882) with norm 0.587
       Charge density: gaussian nuclear width 0.377945 with net site charge -0.413
       Polarizability: cuspless exponential with width 0.39 and norm 3.3
       Positions in reference frame:
         [ +0.000000 -1.441945 +1.122523 ]
         [ +0.000000 +1.441945 +1.122523 ]
     Net charge: 0   dipole magnitude: 0.927204
     Initializing spherical shell mfKernel with radius 2.61727 Bohr
     deltaS corrections:
       site 'O': -7.54299
       site 'H': -6.83917
   Initializing fluid molecule 'Na+'
     Initializing site 'Na'
       Electron density: proportional to exp(-r/0.19682)*erfc((r-0.71491)/0.41314) with norm 8.1383
       Charge density: gaussian nuclear width 0.365347 with net site charge -1
       Hard sphere radius: 1.86327 bohrs
       Positions in reference frame:
         [ +0.000000 +0.000000 +0.000000 ]
     Net charge: -1   dipole magnitude: 0
     Initializing gaussian mfKernel with width: 1.55004 Bohr
     deltaS corrections:
       site 'Na': -22.3555
   Initializing fluid molecule 'F-'
     Initializing site 'F'
       Electron density: proportional to exp(-r/0.38886)*erfc((r-0)/0.438782) with norm 8
       Charge density: gaussian nuclear width 0.374796 with net site charge 1
       Hard sphere radius: 2.39995 bohrs
       Positions in reference frame:
         [ +0.000000 +0.000000 +0.000000 ]
     Net charge: 1   dipole magnitude: 0
     Initializing gaussian mfKernel with width: 1.59012 Bohr
     deltaS corrections:
       site 'F': -9.04335

Correction to mu due to finite nuclear width = -0.052253
   Cavity determined by nc: 0.00142 and sigma: 0.707107
   Nonlocal vdW cavity from gaussian model electron density with norm = 8 and sigma = 0.993594 bohr
   Charge asymmetry in cavity with sensitivity pCavity = 36.5 e-bohr/Eh
   Electrostatic cavity expanded by eta = 1.46 bohrs
   Weighted density cavitation model constrained by Nbulk: 0.0049383 bohr^-3, Pvap: 3.14029 kPa, Rvdw: 2.61727 bohr and sigmaBulk: 4.62e-05 Eh/bohr^2 at T: 298 K.
   Weighted density dispersion model using vdW pair potentials with single solvent site with sqrtC6eff: 0.77 SI.


---- Citations for features of the code used in this run ----

   Software package:
      R. Sundararaman, K. Letchworth-Weaver, K.A. Schwarz, D. Gunceler, Y. Ozhabes and T.A. Arias, 'JDFTx: software for joint density-functional theory', SoftwareX 6, 278 (2017)

   gga-PBE exchange-correlation functional:
      J.P. Perdew, K. Burke and M. Ernzerhof, Phys. Rev. Lett. 77, 3865 (1996)

   Pseudopotentials:
      KF Garrity, JW Bennett, KM Rabe and D Vanderbilt, Comput. Mater. Sci. 81, 446 (2014)

   DFT-D3 dispersion correction:
      S. Grimme, J. Antony, S. Ehrlich and H. Krieg, J. Chem. Phys. 132, 154104 (2010)

   DFT-D2 dispersion correction:
      S. Grimme, J. Comput. Chem. 27, 1787 (2006)

   Charge-asymmetric nonlocally-determined local-electric (CANDLE) solvation model:
      R. Sundararaman and W.A. Goddard III, J. Chem. Phys. 142, 064107 (2015)

   Total energy minimization with Auxiliary Hamiltonian:
      C. Freysoldt, S. Boeck, and J. Neugebauer, Phys. Rev. B 79, 241103(R) (2009)

   Grand-canonical (fixed-potential) DFT:
      R. Sundararaman, W. A. Goddard III and T. A. Arias, J. Chem. Phys. 146, 114104 (2017)

   Linear-tetrahedron sampling for density of states:
      G. Lehmann and M. Taut, Phys. status solidi (b) 54, 469 (1972)

This list may not be complete. Please suggest additional citations or
report any other bugs at https://github.com/shankar1729/jdftx/issues

Initialization completed successfully at t[s]:   3729.03


Computing DFT-D3 correction:
# coordination-number Pt 6.997 9.392 8.581 9.510 9.535 9.448 9.565 9.550 9.393 8.627 5.282 9.394 5.971 9.397 9.451 9.397 9.551 9.563 9.390 9.534 9.508 8.578 5.282 8.629 6.994 5.972
# diagonal-C6 Pt 336.87 336.87 336.87 336.87 336.87 336.87 336.87 336.87 336.87 336.87 336.87 336.87 336.87 336.87 336.87 336.87 336.87 336.87 336.87 336.87 336.87 336.87 336.87 336.87 336.87 336.87
EvdW_6 =   -0.233145
EvdW_8 =   -0.376073
Fluid solver invoked on fresh (random / LCAO) wavefunctions
Running a vacuum solve first:

-------- Initial electronic minimization -----------
	FillingsUpdate:  mu: +0.137005648  nElectrons: 416.000000  magneticMoment: [ Abs: 0.00080  Tot: -0.00008 ]
ElecMinimize: Iter:   0  G: -2211.022338095291161  |grad|_K:  4.499e-05  alpha:  1.000e+00
	FillingsUpdate:  mu: +0.143022005  nElectrons: 416.000000  magneticMoment: [ Abs: 0.00064  Tot: -0.00010 ]
	SubspaceRotationAdjust: set factor to 0.547
ElecMinimize: Iter:   1  G: -2211.286238482281078  |grad|_K:  7.721e-05  alpha:  4.066e-01  linmin:  1.233e-05  t[s]:   3972.99
	FillingsUpdate:  mu: +0.217864345  nElectrons: 416.000000  magneticMoment: [ Abs: 0.00062  Tot: -0.00009 ]
	SubspaceRotationAdjust: set factor to 0.302
ElecMinimize: Iter:   2  G: -2211.299897478816547  |grad|_K:  7.381e-05  alpha:  1.722e-02  linmin:  2.060e-03  t[s]:   4125.94
	FillingsUpdate:  mu: +0.217962946  nElectrons: 416.000000  magneticMoment: [ Abs: 0.00061  Tot: -0.00009 ]
	SubspaceRotationAdjust: set factor to 0.21
ElecMinimize: Iter:   3  G: -2211.303168590521182  |grad|_K:  4.323e-05  alpha:  4.323e-03  linmin: -2.938e-05  t[s]:   4278.75
	FillingsUpdate:  mu: +0.214558415  nElectrons: 416.000000  magneticMoment: [ Abs: 0.00060  Tot: -0.00009 ]
	SubspaceRotationAdjust: set factor to 0.166
ElecMinimize: Iter:   4  G: -2211.309200086049259  |grad|_K:  3.657e-05  alpha:  9.933e-03  linmin: -1.010e-05  t[s]:   4431.34
	FillingsUpdate:  mu: +0.210084724  nElectrons: 416.000000  magneticMoment: [ Abs: 0.00058  Tot: -0.00010 ]
	SubspaceRotationAdjust: set factor to 0.097
	SubspaceRotationAdjust: resetting CG because factor has changed by 0.0969555
ElecMinimize: 	State modified externally: resetting search direction.
ElecMinimize: Iter:   5  G: -2211.321584015885492  |grad|_K:  4.122e-05  alpha:  2.835e-02
	FillingsUpdate:  mu: +0.171279025  nElectrons: 416.000000  magneticMoment: [ Abs: 0.00057  Tot: -0.00010 ]
	SubspaceRotationAdjust: set factor to 0.068
ElecMinimize: Iter:   6  G: -2211.341463535130515  |grad|_K:  1.893e-05  alpha:  3.635e-02  linmin: -9.040e-05  t[s]:   4816.04
ElecMinimize: 	Predicted alpha/alphaT>3.000000, increasing alphaT to 1.090388e-01.
	FillingsUpdate:  mu: +0.144490534  nElectrons: 416.000000  magneticMoment: [ Abs: 0.00049  Tot: -0.00010 ]
	SubspaceRotationAdjust: set factor to 0.0595
ElecMinimize: Iter:   7  G: -2211.372407595021286  |grad|_K:  1.054e-05  alpha:  2.684e-01  linmin:  8.389e-05  t[s]:   5004.84
	FillingsUpdate:  mu: +0.176213683  nElectrons: 416.000000  magneticMoment: [ Abs: 0.00040  Tot: -0.00010 ]
	SubspaceRotationAdjust: set factor to 0.0435
ElecMinimize: Iter:   8  G: -2211.384620870232538  |grad|_K:  9.300e-06  alpha:  3.420e-01  linmin:  6.856e-06  t[s]:   5157.85
	FillingsUpdate:  mu: +0.156414654  nElectrons: 416.000000  magneticMoment: [ Abs: 0.00032  Tot: -0.00010 ]
	SubspaceRotationAdjust: set factor to 0.0423
ElecMinimize: Iter:   9  G: -2211.393042934060304  |grad|_K:  4.622e-06  alpha:  3.028e-01  linmin:  1.476e-05  t[s]:   5309.69
	FillingsUpdate:  mu: +0.155706282  nElectrons: 416.000000  magneticMoment: [ Abs: 0.00030  Tot: -0.00010 ]
	SubspaceRotationAdjust: set factor to 0.0294
ElecMinimize: Iter:  10  G: -2211.394538775726687  |grad|_K:  4.643e-06  alpha:  2.179e-01  linmin:  2.854e-06  t[s]:   5461.32
	FillingsUpdate:  mu: +0.154287793  nElectrons: 416.000000  magneticMoment: [ Abs: 0.00028  Tot: -0.00010 ]
	SubspaceRotationAdjust: set factor to 0.0233
ElecMinimize: Iter:  11  G: -2211.395470057775583  |grad|_K:  2.329e-06  alpha:  1.343e-01  linmin:  4.953e-06  t[s]:   5613.96
ElecMinimize: 	Predicted alpha/alphaT>3.000000, increasing alphaT to 4.028874e-01.
	FillingsUpdate:  mu: +0.159816672  nElectrons: 416.000000  magneticMoment: [ Abs: 0.00025  Tot: -0.00010 ]
	SubspaceRotationAdjust: set factor to 0.0268
ElecMinimize: Iter:  12  G: -2211.396406371691228  |grad|_K:  2.097e-06  alpha:  5.366e-01  linmin:  1.145e-05  t[s]:   5802.28
	FillingsUpdate:  mu: +0.157274724  nElectrons: 416.000000  magneticMoment: [ Abs: 0.00024  Tot: -0.00010 ]
	SubspaceRotationAdjust: set factor to 0.023
ElecMinimize: Iter:  13  G: -2211.396804024005633  |grad|_K:  1.909e-06  alpha:  2.814e-01  linmin:  1.061e-05  t[s]:   5955.00
	FillingsUpdate:  mu: +0.153577268  nElectrons: 416.000000  magneticMoment: [ Abs: 0.00023  Tot: -0.00010 ]
	SubspaceRotationAdjust: set factor to 0.0205
ElecMinimize: Iter:  14  G: -2211.397086252616646  |grad|_K:  1.272e-06  alpha:  2.411e-01  linmin:  1.168e-05  t[s]:   6107.41
	FillingsUpdate:  mu: +0.154209124  nElectrons: 416.000000  magneticMoment: [ Abs: 0.00023  Tot: -0.00010 ]
	SubspaceRotationAdjust: set factor to 0.0251
ElecMinimize: Iter:  15  G: -2211.397410529273202  |grad|_K:  1.405e-06  alpha:  6.238e-01  linmin:  1.072e-05  t[s]:   6259.98
	FillingsUpdate:  mu: +0.155370196  nElectrons: 416.000000  magneticMoment: [ Abs: 0.00023  Tot: -0.00010 ]
	SubspaceRotationAdjust: set factor to 0.0229
ElecMinimize: Iter:  16  G: -2211.397712379295172  |grad|_K:  1.678e-06  alpha:  4.770e-01  linmin:  7.142e-06  t[s]:   6412.14
	FillingsUpdate:  mu: +0.154090458  nElectrons: 416.000000  magneticMoment: [ Abs: 0.00023  Tot: -0.00010 ]
	SubspaceRotationAdjust: set factor to 0.0186
ElecMinimize: Iter:  17  G: -2211.397957952844536  |grad|_K:  1.386e-06  alpha:  2.718e-01  linmin:  3.194e-06  t[s]:   6562.91
	FillingsUpdate:  mu: +0.150368800  nElectrons: 416.000000  magneticMoment: [ Abs: 0.00023  Tot: -0.00010 ]
	SubspaceRotationAdjust: set factor to 0.0202
ElecMinimize: Iter:  18  G: -2211.398304582014589  |grad|_K:  1.405e-06  alpha:  5.626e-01  linmin:  6.373e-06  t[s]:   6714.55
	FillingsUpdate:  mu: +0.151031979  nElectrons: 416.000000  magneticMoment: [ Abs: 0.00022  Tot: -0.00010 ]
	SubspaceRotationAdjust: set factor to 0.0199
ElecMinimize: Iter:  19  G: -2211.398738422920360  |grad|_K:  1.690e-06  alpha:  6.851e-01  linmin: -6.435e-06  t[s]:   6866.42
	FillingsUpdate:  mu: +0.150693919  nElectrons: 416.000000  magneticMoment: [ Abs: 0.00021  Tot: -0.00010 ]
	SubspaceRotationAdjust: set factor to 0.0151
ElecMinimize: Iter:  20  G: -2211.399029373598296  |grad|_K:  1.435e-06  alpha:  3.161e-01  linmin: -5.043e-06  t[s]:   7019.32
	FillingsUpdate:  mu: +0.148180247  nElectrons: 416.000000  magneticMoment: [ Abs: 0.00020  Tot: -0.00009 ]
	SubspaceRotationAdjust: set factor to 0.0144
ElecMinimize: Iter:  21  G: -2211.399297700836996  |grad|_K:  1.157e-06  alpha:  4.038e-01  linmin: -6.428e-06  t[s]:   7170.77
	FillingsUpdate:  mu: +0.146960569  nElectrons: 416.000000  magneticMoment: [ Abs: 0.00018  Tot: -0.00009 ]
	SubspaceRotationAdjust: set factor to 0.0155
ElecMinimize: Iter:  22  G: -2211.399511505491319  |grad|_K:  9.715e-07  alpha:  4.938e-01  linmin: -6.947e-06  t[s]:   7323.18
	FillingsUpdate:  mu: +0.147327615  nElectrons: 416.000000  magneticMoment: [ Abs: 0.00017  Tot: -0.00009 ]
	SubspaceRotationAdjust: set factor to 0.013
	SubspaceRotationAdjust: resetting CG because factor has changed by 0.133683
ElecMinimize: 	State modified externally: resetting search direction.
ElecMinimize: Iter:  23  G: -2211.399628126922380  |grad|_K:  7.246e-07  alpha:  3.826e-01
	FillingsUpdate:  mu: +0.147177075  nElectrons: 416.000000  magneticMoment: [ Abs: 0.00016  Tot: -0.00009 ]
	SubspaceRotationAdjust: set factor to 0.02
ElecMinimize: Iter:  24  G: -2211.399675132530319  |grad|_K:  4.217e-07  alpha:  2.782e-01  linmin: -2.670e-06  t[s]:   7705.98
	FillingsUpdate:  mu: +0.147319653  nElectrons: 416.000000  magneticMoment: [ Abs: 0.00016  Tot: -0.00009 ]
	SubspaceRotationAdjust: set factor to 0.0184
ElecMinimize: Iter:  25  G: -2211.399711357182241  |grad|_K:  3.904e-07  alpha:  6.330e-01  linmin: -6.379e-06  t[s]:   7857.00
	FillingsUpdate:  mu: +0.147477845  nElectrons: 416.000000  magneticMoment: [ Abs: 0.00015  Tot: -0.00009 ]
	SubspaceRotationAdjust: set factor to 0.0168
ElecMinimize: Iter:  26  G: -2211.399732753258377  |grad|_K:  3.392e-07  alpha:  4.359e-01  linmin: -4.671e-06  t[s]:   8009.59
	FillingsUpdate:  mu: +0.147411293  nElectrons: 416.000000  magneticMoment: [ Abs: 0.00015  Tot: -0.00009 ]
	SubspaceRotationAdjust: set factor to 0.0143
ElecMinimize: Iter:  27  G: -2211.399751451788688  |grad|_K:  3.256e-07  alpha:  5.047e-01  linmin: -3.660e-06  t[s]:   8163.78
	FillingsUpdate:  mu: +0.147485199  nElectrons: 416.000000  magneticMoment: [ Abs: 0.00015  Tot: -0.00009 ]
	SubspaceRotationAdjust: set factor to 0.0132
ElecMinimize: Iter:  28  G: -2211.399768223659976  |grad|_K:  2.779e-07  alpha:  4.909e-01  linmin: -3.185e-06  t[s]:   8316.80
	FillingsUpdate:  mu: +0.147855303  nElectrons: 416.000000  magneticMoment: [ Abs: 0.00015  Tot: -0.00009 ]
	SubspaceRotationAdjust: set factor to 0.0138
ElecMinimize: Iter:  29  G: -2211.399783813897102  |grad|_K:  2.627e-07  alpha:  6.266e-01  linmin: -1.808e-06  t[s]:   8469.88
	FillingsUpdate:  mu: +0.147776046  nElectrons: 416.000000  magneticMoment: [ Abs: 0.00014  Tot: -0.00009 ]
	SubspaceRotationAdjust: set factor to 0.0144
ElecMinimize: Iter:  30  G: -2211.399802996601011  |grad|_K:  2.831e-07  alpha:  8.626e-01  linmin: -2.886e-06  t[s]:   8622.90
	FillingsUpdate:  mu: +0.147936583  nElectrons: 416.000000  magneticMoment: [ Abs: 0.00014  Tot: -0.00009 ]
	SubspaceRotationAdjust: set factor to 0.0146
ElecMinimize: Iter:  31  G: -2211.399822338877584  |grad|_K:  2.902e-07  alpha:  7.485e-01  linmin: -3.768e-06  t[s]:   8774.45
	FillingsUpdate:  mu: +0.148329626  nElectrons: 416.000000  magneticMoment: [ Abs: 0.00013  Tot: -0.00008 ]
	SubspaceRotationAdjust: set factor to 0.0135
ElecMinimize: Iter:  32  G: -2211.399840723020588  |grad|_K:  3.125e-07  alpha:  6.762e-01  linmin: -4.211e-06  t[s]:   8925.12
	FillingsUpdate:  mu: +0.148250503  nElectrons: 416.000000  magneticMoment: [ Abs: 0.00013  Tot: -0.00008 ]
	SubspaceRotationAdjust: set factor to 0.0111
ElecMinimize: Iter:  33  G: -2211.399857571891516  |grad|_K:  2.847e-07  alpha:  5.338e-01  linmin: -3.895e-06  t[s]:   9076.10
	FillingsUpdate:  mu: +0.148075313  nElectrons: 416.000000  magneticMoment: [ Abs: 0.00012  Tot: -0.00008 ]
	SubspaceRotationAdjust: set factor to 0.0101
ElecMinimize: Iter:  34  G: -2211.399871014555629  |grad|_K:  2.176e-07  alpha:  5.133e-01  linmin: -3.189e-06  t[s]:   9227.31
	FillingsUpdate:  mu: +0.148388221  nElectrons: 416.000000  magneticMoment: [ Abs: 0.00012  Tot: -0.00008 ]
	SubspaceRotationAdjust: set factor to 0.0113
ElecMinimize: Iter:  35  G: -2211.399881707196982  |grad|_K:  1.842e-07  alpha:  6.994e-01  linmin: -1.746e-06  t[s]:   9378.55
	FillingsUpdate:  mu: +0.148369500  nElectrons: 416.000000  magneticMoment: [ Abs: 0.00011  Tot: -0.00008 ]
	SubspaceRotationAdjust: set factor to 0.0128
ElecMinimize: Iter:  36  G: -2211.399888125483812  |grad|_K:  1.539e-07  alpha:  5.873e-01  linmin: -7.888e-08  t[s]:   9528.97
	FillingsUpdate:  mu: +0.148226402  nElectrons: 416.000000  magneticMoment: [ Abs: 0.00011  Tot: -0.00008 ]
	SubspaceRotationAdjust: set factor to 0.0135
ElecMinimize: Iter:  37  G: -2211.399893038937989  |grad|_K:  1.557e-07  alpha:  6.452e-01  linmin: -9.085e-08  t[s]:   9680.50
	FillingsUpdate:  mu: +0.148232353  nElectrons: 416.000000  magneticMoment: [ Abs: 0.00011  Tot: -0.00008 ]
	SubspaceRotationAdjust: set factor to 0.0133
ElecMinimize: Iter:  38  G: -2211.399897719702494  |grad|_K:  1.594e-07  alpha:  6.002e-01  linmin: -1.101e-06  t[s]:   9832.55
	FillingsUpdate:  mu: +0.148272741  nElectrons: 416.000000  magneticMoment: [ Abs: 0.00011  Tot: -0.00008 ]
	SubspaceRotationAdjust: set factor to 0.0134
ElecMinimize: Iter:  39  G: -2211.399903650550641  |grad|_K:  1.703e-07  alpha:  7.247e-01  linmin: -2.743e-06  t[s]:   9984.86
	FillingsUpdate:  mu: +0.148090743  nElectrons: 416.000000  magneticMoment: [ Abs: 0.00011  Tot: -0.00008 ]
	SubspaceRotationAdjust: set factor to 0.0138
ElecMinimize: Iter:  40  G: -2211.399910398228712  |grad|_K:  1.848e-07  alpha:  7.206e-01  linmin: -3.523e-06  t[s]:  10136.82
	FillingsUpdate:  mu: +0.147822270  nElectrons: 416.000000  magneticMoment: [ Abs: 0.00011  Tot: -0.00007 ]
	SubspaceRotationAdjust: set factor to 0.0142
ElecMinimize: Iter:  41  G: -2211.399921534217356  |grad|_K:  1.961e-07  alpha:  1.007e+00  linmin: -4.702e-06  t[s]:  10287.25
	FillingsUpdate:  mu: +0.147826079  nElectrons: 416.000000  magneticMoment: [ Abs: 0.00010  Tot: -0.00007 ]
	SubspaceRotationAdjust: set factor to 0.0148
ElecMinimize: Iter:  42  G: -2211.399928721703418  |grad|_K:  1.427e-07  alpha:  5.767e-01  linmin: -2.008e-06  t[s]:  10438.54
	FillingsUpdate:  mu: +0.147697592  nElectrons: 416.000000  magneticMoment: [ Abs: 0.00010  Tot: -0.00007 ]
	SubspaceRotationAdjust: set factor to 0.0163
ElecMinimize: Iter:  43  G: -2211.399932605379945  |grad|_K:  1.055e-07  alpha:  5.909e-01  linmin: -2.898e-07  t[s]:  10589.38
	FillingsUpdate:  mu: +0.147683111  nElectrons: 416.000000  magneticMoment: [ Abs: 0.00009  Tot: -0.00007 ]
	SubspaceRotationAdjust: set factor to 0.0181
ElecMinimize: Iter:  44  G: -2211.399934915757512  |grad|_K:  9.445e-08  alpha:  6.444e-01  linmin:  4.271e-07  t[s]:  10740.29
	FillingsUpdate:  mu: +0.147722772  nElectrons: 416.000000  magneticMoment: [ Abs: 0.00009  Tot: -0.00007 ]
	SubspaceRotationAdjust: set factor to 0.019
ElecMinimize: Iter:  45  G: -2211.399936787367096  |grad|_K:  9.280e-08  alpha:  6.524e-01  linmin: -1.654e-08  t[s]:  10890.88
	FillingsUpdate:  mu: +0.147686597  nElectrons: 416.000000  magneticMoment: [ Abs: 0.00009  Tot: -0.00007 ]
	SubspaceRotationAdjust: set factor to 0.0162
ElecMinimize: Iter:  46  G: -2211.399937918144133  |grad|_K:  8.579e-08  alpha:  4.081e-01  linmin: -1.862e-07  t[s]:  11040.86
	FillingsUpdate:  mu: +0.147643482  nElectrons: 416.000000  magneticMoment: [ Abs: 0.00009  Tot: -0.00007 ]
	SubspaceRotationAdjust: set factor to 0.0141
ElecMinimize: Iter:  47  G: -2211.399938833410943  |grad|_K:  6.702e-08  alpha:  3.865e-01  linmin: -4.239e-07  t[s]:  11190.81
	FillingsUpdate:  mu: +0.147664355  nElectrons: 416.000000  magneticMoment: [ Abs: 0.00009  Tot: -0.00007 ]
	SubspaceRotationAdjust: set factor to 0.0155
ElecMinimize: Iter:  48  G: -2211.399939836686826  |grad|_K:  6.220e-08  alpha:  6.946e-01  linmin: -4.706e-07  t[s]:  11342.47
	FillingsUpdate:  mu: +0.147658243  nElectrons: 416.000000  magneticMoment: [ Abs: 0.00009  Tot: -0.00007 ]
	SubspaceRotationAdjust: set factor to 0.017
ElecMinimize: Iter:  49  G: -2211.399940645159859  |grad|_K:  5.239e-08  alpha:  6.493e-01  linmin: -9.555e-07  t[s]:  11494.68
	FillingsUpdate:  mu: +0.147672961  nElectrons: 416.000000  magneticMoment: [ Abs: 0.00009  Tot: -0.00007 ]
	SubspaceRotationAdjust: set factor to 0.0168
ElecMinimize: Iter:  50  G: -2211.399941202183072  |grad|_K:  5.014e-08  alpha:  6.303e-01  linmin: -9.789e-07  t[s]:  11647.26
	FillingsUpdate:  mu: +0.147691434  nElectrons: 416.000000  magneticMoment: [ Abs: 0.00008  Tot: -0.00007 ]
	SubspaceRotationAdjust: set factor to 0.0132
ElecMinimize: Iter:  51  G: -2211.399941557898728  |grad|_K:  4.553e-08  alpha:  4.390e-01  linmin:  7.437e-09  t[s]:  11799.32
	FillingsUpdate:  mu: +0.147700544  nElectrons: 416.000000  magneticMoment: [ Abs: 0.00008  Tot: -0.00007 ]
	SubspaceRotationAdjust: set factor to 0.0113
ElecMinimize: Iter:  52  G: -2211.399941809950633  |grad|_K:  3.162e-08  alpha:  3.781e-01  linmin: -2.355e-06  t[s]:  11951.77
	FillingsUpdate:  mu: +0.147702933  nElectrons: 416.000000  magneticMoment: [ Abs: 0.00008  Tot: -0.00007 ]
	SubspaceRotationAdjust: set factor to 0.0128
ElecMinimize: Iter:  53  G: -2211.399941992223376  |grad|_K:  2.436e-08  alpha:  5.620e-01  linmin: -5.891e-06  t[s]:  12103.14
	FillingsUpdate:  mu: +0.147711120  nElectrons: 416.000000  magneticMoment: [ Abs: 0.00008  Tot: -0.00007 ]
	SubspaceRotationAdjust: set factor to 0.0132
ElecMinimize: Iter:  54  G: -2211.399942095598817  |grad|_K:  1.960e-08  alpha:  5.394e-01  linmin: -1.708e-06  t[s]:  12254.74
	FillingsUpdate:  mu: +0.147719707  nElectrons: 416.000000  magneticMoment: [ Abs: 0.00008  Tot: -0.00006 ]
	SubspaceRotationAdjust: set factor to 0.0125
ElecMinimize: Iter:  55  G: -2211.399942158205249  |grad|_K:  1.736e-08  alpha:  5.078e-01  linmin:  2.911e-06  t[s]:  12404.68
	FillingsUpdate:  mu: +0.147723977  nElectrons: 416.000000  magneticMoment: [ Abs: 0.00008  Tot: -0.00006 ]
	SubspaceRotationAdjust: set factor to 0.0134
ElecMinimize: Iter:  56  G: -2211.399942203744104  |grad|_K:  1.422e-08  alpha:  4.734e-01  linmin: -7.939e-07  t[s]:  12555.30
ElecMinimize: Converged (|Delta G|<1.000000e-07 for 2 iters).
Setting wave functions to eigenvectors of Hamiltonian
Converging empty states (this may take a while): |deigs|: 2.650e-03
Vacuum energy after initial minimize, F = -2211.399942203744104

Shifting auxilliary hamiltonian by -0.392474 to set nElectrons=416.000000

-------- Electronic minimization -----------
	Linear fluid (dielectric constant: 78.4, screening length: 8.12261 Bohr) occupying 0.558178 of unit cell:	Completed after 26 iterations at t[s]:  13027.41
	FillingsUpdate:  mu: -0.244750000  nElectrons: 416.000000  magneticMoment: [ Abs: 0.00006  Tot: -0.00005 ]
ElecMinimize: Iter:   0  G: -2211.405199045838799  |grad|_K:  9.206e-06  alpha:  1.000e+00
	Linear fluid (dielectric constant: 78.4, screening length: 8.12261 Bohr) occupying 0.558884 of unit cell:	Completed after 23 iterations at t[s]:  13157.25
	Linear fluid (dielectric constant: 78.4, screening length: 8.12261 Bohr) occupying 0.558272 of unit cell:	Completed after 23 iterations at t[s]:  13202.41
	FillingsUpdate:  mu: -0.244750000  nElectrons: 415.865340  magneticMoment: [ Abs: 0.00006  Tot: -0.00005 ]
	SubspaceRotationAdjust: set factor to 0.0124
ElecMinimize: Iter:   1  G: -2211.408848157707780  |grad|_K:  4.469e-06  alpha:  1.352e-01  linmin:  3.620e-03  t[s]:  13265.24
	Linear fluid (dielectric constant: 78.4, screening length: 8.12261 Bohr) occupying 0.558386 of unit cell:	Completed after 15 iterations at t[s]:  13321.18
ElecMinimize: 	Predicted alpha/alphaT>3.000000, increasing alphaT to 4.055440e-01.
	Linear fluid (dielectric constant: 78.4, screening length: 8.12261 Bohr) occupying 0.558613 of unit cell:	Completed after 20 iterations at t[s]:  13366.04
	Linear fluid (dielectric constant: 78.4, screening length: 8.12261 Bohr) occupying 0.558784 of unit cell:	Completed after 19 iterations at t[s]:  13410.02
	FillingsUpdate:  mu: -0.244750000  nElectrons: 415.736281  magneticMoment: [ Abs: 0.00006  Tot: -0.00005 ]
	SubspaceRotationAdjust: set factor to 0.0151
ElecMinimize: Iter:   2  G: -2211.412731173320481  |grad|_K:  3.163e-06  alpha:  6.104e-01  linmin: -4.156e-04  t[s]:  13472.77
	Linear fluid (dielectric constant: 78.4, screening length: 8.12261 Bohr) occupying 0.559531 of unit cell:	Completed after 19 iterations at t[s]:  13530.52
	Linear fluid (dielectric constant: 78.4, screening length: 8.12261 Bohr) occupying 0.559598 of unit cell:	Completed after 11 iterations at t[s]:  13572.97
	FillingsUpdate:  mu: -0.244750000  nElectrons: 415.649398  magneticMoment: [ Abs: 0.00006  Tot: -0.00005 ]
	SubspaceRotationAdjust: set factor to 0.0164
ElecMinimize: Iter:   3  G: -2211.414876544725757  |grad|_K:  2.961e-06  alpha:  6.650e-01  linmin: -8.347e-04  t[s]:  13635.67
	Linear fluid (dielectric constant: 78.4, screening length: 8.12261 Bohr) occupying 0.560812 of unit cell:	Completed after 16 iterations at t[s]:  13692.66
	Linear fluid (dielectric constant: 78.4, screening length: 8.12261 Bohr) occupying 0.560240 of unit cell:	Completed after 15 iterations at t[s]:  13735.36
	FillingsUpdate:  mu: -0.244750000  nElectrons: 415.657455  magneticMoment: [ Abs: 0.00006  Tot: -0.00005 ]
	SubspaceRotationAdjust: set factor to 0.0131
ElecMinimize: Iter:   4  G: -2211.415867270004128  |grad|_K:  3.530e-06  alpha:  3.506e-01  linmin: -1.368e-04  t[s]:  13797.74
	Linear fluid (dielectric constant: 78.4, screening length: 8.12261 Bohr) occupying 0.561371 of unit cell:	Completed after 20 iterations at t[s]:  13855.71
	Linear fluid (dielectric constant: 78.4, screening length: 8.12261 Bohr) occupying 0.561049 of unit cell:	Completed after 15 iterations at t[s]:  13899.30
	FillingsUpdate:  mu: -0.244750000  nElectrons: 415.585663  magneticMoment: [ Abs: 0.00005  Tot: -0.00005 ]
	SubspaceRotationAdjust: set factor to 0.00979
ElecMinimize: Iter:   5  G: -2211.416871689240907  |grad|_K:  2.309e-06  alpha:  2.503e-01  linmin: -7.486e-04  t[s]:  13960.91
	Linear fluid (dielectric constant: 78.4, screening length: 8.12261 Bohr) occupying 0.561499 of unit cell:	Completed after 14 iterations at t[s]:  14017.64
	Linear fluid (dielectric constant: 78.4, screening length: 8.12261 Bohr) occupying 0.562130 of unit cell:	Completed after 15 iterations at t[s]:  14059.42
	FillingsUpdate:  mu: -0.244750000  nElectrons: 415.554745  magneticMoment: [ Abs: 0.00005  Tot: -0.00005 ]
	SubspaceRotationAdjust: set factor to 0.0122
ElecMinimize: Iter:   6  G: -2211.417922161243951  |grad|_K:  1.822e-06  alpha:  6.060e-01  linmin: -1.295e-03  t[s]:  14122.36
	Linear fluid (dielectric constant: 78.4, screening length: 8.12261 Bohr) occupying 0.562840 of unit cell:	Completed after 14 iterations at t[s]:  14177.88
	Linear fluid (dielectric constant: 78.4, screening length: 8.12261 Bohr) occupying 0.562964 of unit cell:	Completed after 12 iterations at t[s]:  14219.85
	FillingsUpdate:  mu: -0.244750000  nElectrons: 415.540061  magneticMoment: [ Abs: 0.00005  Tot: -0.00005 ]
	SubspaceRotationAdjust: set factor to 0.0134
ElecMinimize: Iter:   7  G: -2211.418699256716081  |grad|_K:  1.776e-06  alpha:  7.146e-01  linmin: -9.569e-04  t[s]:  14282.75
	Linear fluid (dielectric constant: 78.4, screening length: 8.12261 Bohr) occupying 0.563627 of unit cell:	Completed after 15 iterations at t[s]:  14339.01
	Linear fluid (dielectric constant: 78.4, screening length: 8.12261 Bohr) occupying 0.563444 of unit cell:	Completed after 14 iterations at t[s]:  14382.07
	FillingsUpdate:  mu: -0.244750000  nElectrons: 415.501328  magneticMoment: [ Abs: 0.00005  Tot: -0.00005 ]
	SubspaceRotationAdjust: set factor to 0.0106
ElecMinimize: Iter:   8  G: -2211.419224746937743  |grad|_K:  2.267e-06  alpha:  5.096e-01  linmin: -5.092e-04  t[s]:  14443.82
	Linear fluid (dielectric constant: 78.4, screening length: 8.12261 Bohr) occupying 0.564084 of unit cell:	Completed after 15 iterations at t[s]:  14500.73
	Linear fluid (dielectric constant: 78.4, screening length: 8.12261 Bohr) occupying 0.563831 of unit cell:	Completed after 14 iterations at t[s]:  14542.14
	FillingsUpdate:  mu: -0.244750000  nElectrons: 415.514716  magneticMoment: [ Abs: 0.00006  Tot: -0.00005 ]
	SubspaceRotationAdjust: set factor to 0.00814
ElecMinimize: Iter:   9  G: -2211.419725592411396  |grad|_K:  1.811e-06  alpha:  2.988e-01  linmin: -3.746e-04  t[s]:  14604.69
	Linear fluid (dielectric constant: 78.4, screening length: 8.12261 Bohr) occupying 0.564004 of unit cell:	Completed after 14 iterations at t[s]:  14660.97
	Linear fluid (dielectric constant: 78.4, screening length: 8.12261 Bohr) occupying 0.564230 of unit cell:	Completed after 14 iterations at t[s]:  14704.20
	FillingsUpdate:  mu: -0.244750000  nElectrons: 415.488090  magneticMoment: [ Abs: 0.00006  Tot: -0.00005 ]
	SubspaceRotationAdjust: set factor to 0.0102
ElecMinimize: Iter:  10  G: -2211.420507000983889  |grad|_K:  1.769e-06  alpha:  7.302e-01  linmin: -5.769e-04  t[s]:  14766.67
	Linear fluid (dielectric constant: 78.4, screening length: 8.12261 Bohr) occupying 0.564517 of unit cell:	Completed after 15 iterations at t[s]:  14824.06
	Linear fluid (dielectric constant: 78.4, screening length: 8.12261 Bohr) occupying 0.564502 of unit cell:	Completed after 11 iterations at t[s]:  14866.98
	FillingsUpdate:  mu: -0.244750000  nElectrons: 415.446750  magneticMoment: [ Abs: 0.00006  Tot: -0.00005 ]
	SubspaceRotationAdjust: set factor to 0.00987
ElecMinimize: Iter:  11  G: -2211.421212185761760  |grad|_K:  2.115e-06  alpha:  6.877e-01  linmin: -3.969e-04  t[s]:  14928.50
	Linear fluid (dielectric constant: 78.4, screening length: 8.12261 Bohr) occupying 0.564932 of unit cell:	Completed after 15 iterations at t[s]:  14985.97
	Linear fluid (dielectric constant: 78.4, screening length: 8.12261 Bohr) occupying 0.564754 of unit cell:	Completed after 15 iterations at t[s]:  15029.78
	FillingsUpdate:  mu: -0.244750000  nElectrons: 415.456998  magneticMoment: [ Abs: 0.00006  Tot: -0.00005 ]
	SubspaceRotationAdjust: set factor to 0.00763
ElecMinimize: Iter:  12  G: -2211.421777332453075  |grad|_K:  2.057e-06  alpha:  3.855e-01  linmin: -1.903e-04  t[s]:  15092.09
	Linear fluid (dielectric constant: 78.4, screening length: 8.12261 Bohr) occupying 0.565035 of unit cell:	Completed after 14 iterations at t[s]:  15149.25
	Linear fluid (dielectric constant: 78.4, screening length: 8.12261 Bohr) occupying 0.565173 of unit cell:	Completed after 14 iterations at t[s]:  15192.51
	FillingsUpdate:  mu: -0.244750000  nElectrons: 415.415331  magneticMoment: [ Abs: 0.00006  Tot: -0.00005 ]
	SubspaceRotationAdjust: set factor to 0.00841
ElecMinimize: Iter:  13  G: -2211.422585151021849  |grad|_K:  1.832e-06  alpha:  5.858e-01  linmin: -4.449e-04  t[s]:  15254.72
	Linear fluid (dielectric constant: 78.4, screening length: 8.12261 Bohr) occupying 0.565611 of unit cell:	Completed after 15 iterations at t[s]:  15312.10
	Linear fluid (dielectric constant: 78.4, screening length: 8.12261 Bohr) occupying 0.565681 of unit cell:	Completed after 11 iterations at t[s]:  15354.39
	FillingsUpdate:  mu: -0.244750000  nElectrons: 415.381671  magneticMoment: [ Abs: 0.00006  Tot: -0.00004 ]
	SubspaceRotationAdjust: set factor to 0.00891
ElecMinimize: Iter:  14  G: -2211.423336670447497  |grad|_K:  1.778e-06  alpha:  6.829e-01  linmin: -2.642e-04  t[s]:  15417.39
	Linear fluid (dielectric constant: 78.4, screening length: 8.12261 Bohr) occupying 0.566261 of unit cell:	Completed after 15 iterations at t[s]:  15473.88
	Linear fluid (dielectric constant: 78.4, screening length: 8.12261 Bohr) occupying 0.566126 of unit cell:	Completed after 13 iterations at t[s]:  15516.15
	FillingsUpdate:  mu: -0.244750000  nElectrons: 415.385238  magneticMoment: [ Abs: 0.00006  Tot: -0.00004 ]
	SubspaceRotationAdjust: set factor to 0.0079
ElecMinimize: Iter:  15  G: -2211.423871701997996  |grad|_K:  1.800e-06  alpha:  5.199e-01  linmin: -7.193e-05  t[s]:  15579.04
	Linear fluid (dielectric constant: 78.4, screening length: 8.12261 Bohr) occupying 0.566583 of unit cell:	Completed after 15 iterations at t[s]:  15635.99
	Linear fluid (dielectric constant: 78.4, screening length: 8.12261 Bohr) occupying 0.566496 of unit cell:	Completed after 12 iterations at t[s]:  15677.89
	FillingsUpdate:  mu: -0.244750000  nElectrons: 415.354289  magneticMoment: [ Abs: 0.00006  Tot: -0.00004 ]
	SubspaceRotationAdjust: set factor to 0.00656
ElecMinimize: Iter:  16  G: -2211.424309794693272  |grad|_K:  1.449e-06  alpha:  4.194e-01  linmin: -8.835e-05  t[s]:  15739.80
	Linear fluid (dielectric constant: 78.4, screening length: 8.12261 Bohr) occupying 0.566738 of unit cell:	Completed after 12 iterations at t[s]:  15796.20
	Linear fluid (dielectric constant: 78.4, screening length: 8.12261 Bohr) occupying 0.566813 of unit cell:	Completed after 10 iterations at t[s]:  15837.61
	FillingsUpdate:  mu: -0.244750000  nElectrons: 415.351153  magneticMoment: [ Abs: 0.00005  Tot: -0.00004 ]
	SubspaceRotationAdjust: set factor to 0.00738
ElecMinimize: Iter:  17  G: -2211.424685123426570  |grad|_K:  1.211e-06  alpha:  5.536e-01  linmin: -1.464e-05  t[s]:  15899.67
	Linear fluid (dielectric constant: 78.4, screening length: 8.12261 Bohr) occupying 0.566998 of unit cell:	Completed after 13 iterations at t[s]:  15956.83
	Linear fluid (dielectric constant: 78.4, screening length: 8.12261 Bohr) occupying 0.567003 of unit cell:	Completed after 2 iterations at t[s]:  15996.65
	FillingsUpdate:  mu: -0.244750000  nElectrons: 415.351993  magneticMoment: [ Abs: 0.00005  Tot: -0.00004 ]
	SubspaceRotationAdjust: set factor to 0.00796
ElecMinimize: Iter:  18  G: -2211.424953325470142  |grad|_K:  1.108e-06  alpha:  5.679e-01  linmin: -2.429e-05  t[s]:  16059.88
	Linear fluid (dielectric constant: 78.4, screening length: 8.12261 Bohr) occupying 0.567110 of unit cell:	Completed after 14 iterations at t[s]:  16115.84
	Linear fluid (dielectric constant: 78.4, screening length: 8.12261 Bohr) occupying 0.567102 of unit cell:	Completed after 10 iterations at t[s]:  16156.98
	FillingsUpdate:  mu: -0.244750000  nElectrons: 415.335983  magneticMoment: [ Abs: 0.00005  Tot: -0.00004 ]
	SubspaceRotationAdjust: set factor to 0.00727
ElecMinimize: Iter:  19  G: -2211.425161039635441  |grad|_K:  1.092e-06  alpha:  5.255e-01  linmin:  2.904e-05  t[s]:  16218.86
	Linear fluid (dielectric constant: 78.4, screening length: 8.12261 Bohr) occupying 0.567175 of unit cell:	Completed after 14 iterations at t[s]:  16275.53
	Linear fluid (dielectric constant: 78.4, screening length: 8.12261 Bohr) occupying 0.567178 of unit cell:	Completed after 7 iterations at t[s]:  16316.10
	FillingsUpdate:  mu: -0.244750000  nElectrons: 415.343668  magneticMoment: [ Abs: 0.00005  Tot: -0.00004 ]
	SubspaceRotationAdjust: set factor to 0.00716
ElecMinimize: Iter:  20  G: -2211.425369612244594  |grad|_K:  1.042e-06  alpha:  5.445e-01  linmin: -1.957e-05  t[s]:  16378.21
	Linear fluid (dielectric constant: 78.4, screening length: 8.12261 Bohr) occupying 0.567223 of unit cell:	Completed after 11 iterations at t[s]:  16433.54
	Linear fluid (dielectric constant: 78.4, screening length: 8.12261 Bohr) occupying 0.567235 of unit cell:	Completed after 7 iterations at t[s]:  16474.72
	FillingsUpdate:  mu: -0.244750000  nElectrons: 415.338026  magneticMoment: [ Abs: 0.00005  Tot: -0.00004 ]
	SubspaceRotationAdjust: set factor to 0.00808
ElecMinimize: Iter:  21  G: -2211.425613324661754  |grad|_K:  1.093e-06  alpha:  6.976e-01  linmin: -6.047e-05  t[s]:  16536.98
	Linear fluid (dielectric constant: 78.4, screening length: 8.12261 Bohr) occupying 0.567296 of unit cell:	Completed after 13 iterations at t[s]:  16593.32
	Linear fluid (dielectric constant: 78.4, screening length: 8.12261 Bohr) occupying 0.567298 of unit cell:	Completed after 7 iterations at t[s]:  16634.55
	FillingsUpdate:  mu: -0.244750000  nElectrons: 415.324367  magneticMoment: [ Abs: 0.00005  Tot: -0.00004 ]
	SubspaceRotationAdjust: set factor to 0.00827
ElecMinimize: Iter:  22  G: -2211.425891213597424  |grad|_K:  1.236e-06  alpha:  7.215e-01  linmin: -8.449e-05  t[s]:  16696.46
	Linear fluid (dielectric constant: 78.4, screening length: 8.12261 Bohr) occupying 0.567424 of unit cell:	Completed after 14 iterations at t[s]:  16754.16
	Linear fluid (dielectric constant: 78.4, screening length: 8.12261 Bohr) occupying 0.567395 of unit cell:	Completed after 12 iterations at t[s]:  16796.64
	FillingsUpdate:  mu: -0.244750000  nElectrons: 415.334373  magneticMoment: [ Abs: 0.00005  Tot: -0.00004 ]
	SubspaceRotationAdjust: set factor to 0.00703
ElecMinimize: Iter:  23  G: -2211.426165490466246  |grad|_K:  1.348e-06  alpha:  5.554e-01  linmin: -5.300e-05  t[s]:  16858.87
	Linear fluid (dielectric constant: 78.4, screening length: 8.12261 Bohr) occupying 0.567533 of unit cell:	Completed after 15 iterations at t[s]:  16916.38
	Linear fluid (dielectric constant: 78.4, screening length: 8.12261 Bohr) occupying 0.567532 of unit cell:	Completed after 0 iterations at t[s]:  16956.51
	FillingsUpdate:  mu: -0.244750000  nElectrons: 415.315143  magneticMoment: [ Abs: 0.00005  Tot: -0.00004 ]
	SubspaceRotationAdjust: set factor to 0.00639
ElecMinimize: Iter:  24  G: -2211.426490223122528  |grad|_K:  1.221e-06  alpha:  5.531e-01  linmin: -5.306e-05  t[s]:  17018.71
	Linear fluid (dielectric constant: 78.4, screening length: 8.12261 Bohr) occupying 0.567687 of unit cell:	Completed after 13 iterations at t[s]:  17075.90
	Linear fluid (dielectric constant: 78.4, screening length: 8.12261 Bohr) occupying 0.567702 of unit cell:	Completed after 3 iterations at t[s]:  17116.98
	FillingsUpdate:  mu: -0.244750000  nElectrons: 415.308809  magneticMoment: [ Abs: 0.00005  Tot: -0.00004 ]
	SubspaceRotationAdjust: set factor to 0.0069
ElecMinimize: Iter:  25  G: -2211.426783033626634  |grad|_K:  1.074e-06  alpha:  6.084e-01  linmin: -5.910e-05  t[s]:  17179.31
	Linear fluid (dielectric constant: 78.4, screening length: 8.12261 Bohr) occupying 0.567866 of unit cell:	Completed after 13 iterations at t[s]:  17235.76
	Linear fluid (dielectric constant: 78.4, screening length: 8.12261 Bohr) occupying 0.567849 of unit cell:	Completed after 10 iterations at t[s]:  17278.11
	FillingsUpdate:  mu: -0.244750000  nElectrons: 415.310692  magneticMoment: [ Abs: 0.00004  Tot: -0.00004 ]
	SubspaceRotationAdjust: set factor to 0.00646
ElecMinimize: Iter:  26  G: -2211.426984541725687  |grad|_K:  8.919e-07  alpha:  5.415e-01  linmin: -4.375e-05  t[s]:  17340.92
	Linear fluid (dielectric constant: 78.4, screening length: 8.12261 Bohr) occupying 0.567960 of unit cell:	Completed after 15 iterations at t[s]:  17397.35
	Linear fluid (dielectric constant: 78.4, screening length: 8.12261 Bohr) occupying 0.567945 of unit cell:	Completed after 11 iterations at t[s]:  17439.32
	FillingsUpdate:  mu: -0.244750000  nElectrons: 415.297260  magneticMoment: [ Abs: 0.00004  Tot: -0.00004 ]
	SubspaceRotationAdjust: set factor to 0.00534
ElecMinimize: Iter:  27  G: -2211.427104118323768  |grad|_K:  7.037e-07  alpha:  4.661e-01  linmin: -2.043e-06  t[s]:  17502.50
	Linear fluid (dielectric constant: 78.4, screening length: 8.12261 Bohr) occupying 0.568020 of unit cell:	Completed after 12 iterations at t[s]:  17558.96
	Linear fluid (dielectric constant: 78.4, screening length: 8.12261 Bohr) occupying 0.568023 of unit cell:	Completed after 2 iterations at t[s]:  17598.54
	FillingsUpdate:  mu: -0.244750000  nElectrons: 415.297184  magneticMoment: [ Abs: 0.00004  Tot: -0.00004 ]
	SubspaceRotationAdjust: set factor to 0.00551
ElecMinimize: Iter:  28  G: -2211.427181099431891  |grad|_K:  5.145e-07  alpha:  4.831e-01  linmin: -7.280e-05  t[s]:  17660.65
	Linear fluid (dielectric constant: 78.4, screening length: 8.12261 Bohr) occupying 0.568073 of unit cell:	Completed after 11 iterations at t[s]:  17716.93
	Linear fluid (dielectric constant: 78.4, screening length: 8.12261 Bohr) occupying 0.568076 of unit cell:	Completed after 2 iterations at t[s]:  17756.28
	FillingsUpdate:  mu: -0.244750000  nElectrons: 415.295813  magneticMoment: [ Abs: 0.00004  Tot: -0.00004 ]
	SubspaceRotationAdjust: set factor to 0.00609
ElecMinimize: Iter:  29  G: -2211.427224669799216  |grad|_K:  4.056e-07  alpha:  5.103e-01  linmin: -9.407e-05  t[s]:  17818.84
	Linear fluid (dielectric constant: 78.4, screening length: 8.12261 Bohr) occupying 0.568114 of unit cell:	Completed after 12 iterations at t[s]:  17875.12
	Linear fluid (dielectric constant: 78.4, screening length: 8.12261 Bohr) occupying 0.568116 of unit cell:	Completed after 2 iterations at t[s]:  17914.83
	FillingsUpdate:  mu: -0.244750000  nElectrons: 415.290912  magneticMoment: [ Abs: 0.00004  Tot: -0.00004 ]
	SubspaceRotationAdjust: set factor to 0.00615
ElecMinimize: Iter:  30  G: -2211.427252869118092  |grad|_K:  3.418e-07  alpha:  5.315e-01  linmin: -9.900e-05  t[s]:  17977.55
	Linear fluid (dielectric constant: 78.4, screening length: 8.12261 Bohr) occupying 0.568152 of unit cell:	Completed after 11 iterations at t[s]:  18032.78
	Linear fluid (dielectric constant: 78.4, screening length: 8.12261 Bohr) occupying 0.568155 of unit cell:	Completed after 3 iterations at t[s]:  18072.76
	FillingsUpdate:  mu: -0.244750000  nElectrons: 415.291411  magneticMoment: [ Abs: 0.00004  Tot: -0.00004 ]
	SubspaceRotationAdjust: set factor to 0.00652
ElecMinimize: Iter:  31  G: -2211.427274525767643  |grad|_K:  3.184e-07  alpha:  5.747e-01  linmin: -6.653e-05  t[s]:  18134.45
	Linear fluid (dielectric constant: 78.4, screening length: 8.12261 Bohr) occupying 0.568192 of unit cell:	Completed after 11 iterations at t[s]:  18190.25
	Linear fluid (dielectric constant: 78.4, screening length: 8.12261 Bohr) occupying 0.568196 of unit cell:	Completed after 2 iterations at t[s]:  18230.17
	FillingsUpdate:  mu: -0.244750000  nElectrons: 415.288652  magneticMoment: [ Abs: 0.00004  Tot: -0.00004 ]
	SubspaceRotationAdjust: set factor to 0.00746
ElecMinimize: Iter:  32  G: -2211.427295810453415  |grad|_K:  3.287e-07  alpha:  6.511e-01  linmin: -1.073e-04  t[s]:  18291.92
	Linear fluid (dielectric constant: 78.4, screening length: 8.12261 Bohr) occupying 0.568242 of unit cell:	Completed after 12 iterations at t[s]:  18348.49
	Linear fluid (dielectric constant: 78.4, screening length: 8.12261 Bohr) occupying 0.568247 of unit cell:	Completed after 2 iterations at t[s]:  18387.98
	FillingsUpdate:  mu: -0.244750000  nElectrons: 415.284140  magneticMoment: [ Abs: 0.00004  Tot: -0.00004 ]
	SubspaceRotationAdjust: set factor to 0.00797
ElecMinimize: Iter:  33  G: -2211.427320635440992  |grad|_K:  3.801e-07  alpha:  7.108e-01  linmin: -2.213e-04  t[s]:  18450.28
	Linear fluid (dielectric constant: 78.4, screening length: 8.12261 Bohr) occupying 0.568315 of unit cell:	Completed after 12 iterations at t[s]:  18505.73
	Linear fluid (dielectric constant: 78.4, screening length: 8.12261 Bohr) occupying 0.568308 of unit cell:	Completed after 9 iterations at t[s]:  18547.00
	FillingsUpdate:  mu: -0.244750000  nElectrons: 415.285284  magneticMoment: [ Abs: 0.00004  Tot: -0.00004 ]
	SubspaceRotationAdjust: set factor to 0.00741
ElecMinimize: Iter:  34  G: -2211.427350628026943  |grad|_K:  4.454e-07  alpha:  6.370e-01  linmin: -3.439e-05  t[s]:  18609.46
	Linear fluid (dielectric constant: 78.4, screening length: 8.12261 Bohr) occupying 0.568382 of unit cell:	Completed after 14 iterations at t[s]:  18666.05
	Linear fluid (dielectric constant: 78.4, screening length: 8.12261 Bohr) occupying 0.568381 of unit cell:	Completed after 0 iterations at t[s]:  18704.79
	FillingsUpdate:  mu: -0.244750000  nElectrons: 415.277276  magneticMoment: [ Abs: 0.00004  Tot: -0.00003 ]
	SubspaceRotationAdjust: set factor to 0.00697
ElecMinimize: Iter:  35  G: -2211.427390801037745  |grad|_K:  4.695e-07  alpha:  6.278e-01  linmin: -5.474e-05  t[s]:  18767.00
	Linear fluid (dielectric constant: 78.4, screening length: 8.12261 Bohr) occupying 0.568456 of unit cell:	Completed after 11 iterations at t[s]:  18822.81
	Linear fluid (dielectric constant: 78.4, screening length: 8.12261 Bohr) occupying 0.568461 of unit cell:	Completed after 2 iterations at t[s]:  18862.78
	FillingsUpdate:  mu: -0.244750000  nElectrons: 415.273613  magneticMoment: [ Abs: 0.00004  Tot: -0.00003 ]
	SubspaceRotationAdjust: set factor to 0.00741
ElecMinimize: Iter:  36  G: -2211.427438853964304  |grad|_K:  4.617e-07  alpha:  6.745e-01  linmin: -1.044e-04  t[s]:  18924.61
	Linear fluid (dielectric constant: 78.4, screening length: 8.12261 Bohr) occupying 0.568529 of unit cell:	Completed after 12 iterations at t[s]:  18981.13
	Linear fluid (dielectric constant: 78.4, screening length: 8.12261 Bohr) occupying 0.568521 of unit cell:	Completed after 7 iterations at t[s]:  19022.05
	FillingsUpdate:  mu: -0.244750000  nElectrons: 415.273282  magneticMoment: [ Abs: 0.00004  Tot: -0.00003 ]
	SubspaceRotationAdjust: set factor to 0.00725
ElecMinimize: Iter:  37  G: -2211.427480044225376  |grad|_K:  4.303e-07  alpha:  5.965e-01  linmin: -6.515e-05  t[s]:  19084.47
	Linear fluid (dielectric constant: 78.4, screening length: 8.12261 Bohr) occupying 0.568561 of unit cell:	Completed after 13 iterations at t[s]:  19141.25
	Linear fluid (dielectric constant: 78.4, screening length: 8.12261 Bohr) occupying 0.568553 of unit cell:	Completed after 10 iterations at t[s]:  19182.86
	FillingsUpdate:  mu: -0.244750000  nElectrons: 415.267816  magneticMoment: [ Abs: 0.00004  Tot: -0.00003 ]
	SubspaceRotationAdjust: set factor to 0.00619
ElecMinimize: Iter:  38  G: -2211.427508540145027  |grad|_K:  3.603e-07  alpha:  4.763e-01  linmin: -2.092e-05  t[s]:  19245.67
	Linear fluid (dielectric constant: 78.4, screening length: 8.12261 Bohr) occupying 0.568573 of unit cell:	Completed after 12 iterations at t[s]:  19301.99
	Linear fluid (dielectric constant: 78.4, screening length: 8.12261 Bohr) occupying 0.568573 of unit cell:	Completed after 0 iterations at t[s]:  19341.22
	FillingsUpdate:  mu: -0.244750000  nElectrons: 415.269903  magneticMoment: [ Abs: 0.00004  Tot: -0.00003 ]
	SubspaceRotationAdjust: set factor to 0.00577
ElecMinimize: Iter:  39  G: -2211.427528255881953  |grad|_K:  2.727e-07  alpha:  4.713e-01  linmin:  3.799e-05  t[s]:  19404.55
	Linear fluid (dielectric constant: 78.4, screening length: 8.12261 Bohr) occupying 0.568579 of unit cell:	Completed after 3 iterations at t[s]:  19459.88
	Linear fluid (dielectric constant: 78.4, screening length: 8.12261 Bohr) occupying 0.568579 of unit cell:	Completed after 0 iterations at t[s]:  19498.50
	FillingsUpdate:  mu: -0.244750000  nElectrons: 415.269680  magneticMoment: [ Abs: 0.00004  Tot: -0.00003 ]
	SubspaceRotationAdjust: set factor to 0.0065
ElecMinimize: Iter:  40  G: -2211.427540393964591  |grad|_K:  2.099e-07  alpha:  5.080e-01  linmin: -6.046e-05  t[s]:  19562.75
	Linear fluid (dielectric constant: 78.4, screening length: 8.12261 Bohr) occupying 0.568577 of unit cell:	Completed after 10 iterations at t[s]:  19619.06
	Linear fluid (dielectric constant: 78.4, screening length: 8.12261 Bohr) occupying 0.568577 of unit cell:	Completed after 0 iterations at t[s]:  19658.60
	FillingsUpdate:  mu: -0.244750000  nElectrons: 415.268490  magneticMoment: [ Abs: 0.00004  Tot: -0.00003 ]
	SubspaceRotationAdjust: set factor to 0.00639
ElecMinimize: Iter:  41  G: -2211.427547214181686  |grad|_K:  1.774e-07  alpha:  4.805e-01  linmin: -6.008e-05  t[s]:  19721.30
	Linear fluid (dielectric constant: 78.4, screening length: 8.12261 Bohr) occupying 0.568574 of unit cell:	Completed after 11 iterations at t[s]:  19777.59
	Linear fluid (dielectric constant: 78.4, screening length: 8.12261 Bohr) occupying 0.568574 of unit cell:	Completed after 2 iterations at t[s]:  19817.57
	FillingsUpdate:  mu: -0.244750000  nElectrons: 415.270412  magneticMoment: [ Abs: 0.00004  Tot: -0.00003 ]
	SubspaceRotationAdjust: set factor to 0.00588
ElecMinimize: Iter:  42  G: -2211.427551704812231  |grad|_K:  1.480e-07  alpha:  4.432e-01  linmin: -1.104e-04  t[s]:  19879.74
	Linear fluid (dielectric constant: 78.4, screening length: 8.12261 Bohr) occupying 0.568569 of unit cell:	Completed after 9 iterations at t[s]:  19935.43
	Linear fluid (dielectric constant: 78.4, screening length: 8.12261 Bohr) occupying 0.568568 of unit cell:	Completed after 2 iterations at t[s]:  19975.72
	FillingsUpdate:  mu: -0.244750000  nElectrons: 415.270163  magneticMoment: [ Abs: 0.00004  Tot: -0.00003 ]
	SubspaceRotationAdjust: set factor to 0.00697
ElecMinimize: Iter:  43  G: -2211.427555581544766  |grad|_K:  1.307e-07  alpha:  5.448e-01  linmin: -2.851e-04  t[s]:  20037.68
	Linear fluid (dielectric constant: 78.4, screening length: 8.12261 Bohr) occupying 0.568562 of unit cell:	Completed after 10 iterations at t[s]:  20093.39
	Linear fluid (dielectric constant: 78.4, screening length: 8.12261 Bohr) occupying 0.568561 of unit cell:	Completed after 0 iterations at t[s]:  20132.99
	FillingsUpdate:  mu: -0.244750000  nElectrons: 415.269773  magneticMoment: [ Abs: 0.00004  Tot: -0.00003 ]
	SubspaceRotationAdjust: set factor to 0.00755
ElecMinimize: Iter:  44  G: -2211.427558879198386  |grad|_K:  1.323e-07  alpha:  5.880e-01  linmin: -3.166e-04  t[s]:  20195.59
	Linear fluid (dielectric constant: 78.4, screening length: 8.12261 Bohr) occupying 0.568557 of unit cell:	Completed after 11 iterations at t[s]:  20251.96
	Linear fluid (dielectric constant: 78.4, screening length: 8.12261 Bohr) occupying 0.568557 of unit cell:	Completed after 0 iterations at t[s]:  20290.17
	FillingsUpdate:  mu: -0.244750000  nElectrons: 415.271916  magneticMoment: [ Abs: 0.00004  Tot: -0.00003 ]
	SubspaceRotationAdjust: set factor to 0.00701
ElecMinimize: Iter:  45  G: -2211.427562265515007  |grad|_K:  1.441e-07  alpha:  5.840e-01  linmin:  6.035e-05  t[s]:  20353.21
	Linear fluid (dielectric constant: 78.4, screening length: 8.12261 Bohr) occupying 0.568553 of unit cell:	Completed after 10 iterations at t[s]:  20408.60
	Linear fluid (dielectric constant: 78.4, screening length: 8.12261 Bohr) occupying 0.568553 of unit cell:	Completed after 0 iterations at t[s]:  20448.19
	FillingsUpdate:  mu: -0.244750000  nElectrons: 415.271647  magneticMoment: [ Abs: 0.00003  Tot: -0.00003 ]
	SubspaceRotationAdjust: set factor to 0.0075
ElecMinimize: Iter:  46  G: -2211.427566287125046  |grad|_K:  1.433e-07  alpha:  6.057e-01  linmin: -1.797e-04  t[s]:  20510.73
	Linear fluid (dielectric constant: 78.4, screening length: 8.12261 Bohr) occupying 0.568553 of unit cell:	Completed after 10 iterations at t[s]:  20566.32
	Linear fluid (dielectric constant: 78.4, screening length: 8.12261 Bohr) occupying 0.568553 of unit cell:	Completed after 1 iterations at t[s]:  20605.91
	FillingsUpdate:  mu: -0.244750000  nElectrons: 415.271597  magneticMoment: [ Abs: 0.00003  Tot: -0.00003 ]
	SubspaceRotationAdjust: set factor to 0.00816
ElecMinimize: Iter:  47  G: -2211.427570809285953  |grad|_K:  1.553e-07  alpha:  6.691e-01  linmin: -1.668e-04  t[s]:  20668.04
	Linear fluid (dielectric constant: 78.4, screening length: 8.12261 Bohr) occupying 0.568558 of unit cell:	Completed after 11 iterations at t[s]:  20724.23
	Linear fluid (dielectric constant: 78.4, screening length: 8.12261 Bohr) occupying 0.568558 of unit cell:	Completed after 7 iterations at t[s]:  20764.38
	FillingsUpdate:  mu: -0.244750000  nElectrons: 415.273734  magneticMoment: [ Abs: 0.00006  Tot: -0.00004 ]
	SubspaceRotationAdjust: set factor to 0.00743
ElecMinimize: Iter:  48  G: -2211.427575357683963  |grad|_K:  1.705e-07  alpha:  5.713e-01  linmin:  5.260e-06  t[s]:  20827.26
	Linear fluid (dielectric constant: 78.4, screening length: 8.12261 Bohr) occupying 0.568567 of unit cell:	Completed after 11 iterations at t[s]:  20882.59
	Linear fluid (dielectric constant: 78.4, screening length: 8.12261 Bohr) occupying 0.568566 of unit cell:	Completed after 2 iterations at t[s]:  20922.41
	FillingsUpdate:  mu: -0.244750000  nElectrons: 415.272127  magneticMoment: [ Abs: 0.00006  Tot: -0.00004 ]
	SubspaceRotationAdjust: set factor to 0.00698
ElecMinimize: Iter:  49  G: -2211.427580362499612  |grad|_K:  1.640e-07  alpha:  5.355e-01  linmin:  4.006e-06  t[s]:  20984.98
	Linear fluid (dielectric constant: 78.4, screening length: 8.12261 Bohr) occupying 0.568580 of unit cell:	Completed after 7 iterations at t[s]:  21039.70
	Linear fluid (dielectric constant: 78.4, screening length: 8.12261 Bohr) occupying 0.568584 of unit cell:	Completed after 2 iterations at t[s]:  21080.11
	FillingsUpdate:  mu: -0.244750000  nElectrons: 415.271975  magneticMoment: [ Abs: 0.00020  Tot: -0.00008 ]
	SubspaceRotationAdjust: set factor to 0.0079
ElecMinimize: Iter:  50  G: -2211.427586039033486  |grad|_K:  1.625e-07  alpha:  6.556e-01  linmin: -8.598e-05  t[s]:  21142.17
	Linear fluid (dielectric constant: 78.4, screening length: 8.12261 Bohr) occupying 0.568608 of unit cell:	Completed after 10 iterations at t[s]:  21198.02
	Linear fluid (dielectric constant: 78.4, screening length: 8.12261 Bohr) occupying 0.568608 of unit cell:	Completed after 0 iterations at t[s]:  21237.08
	FillingsUpdate:  mu: -0.244750000  nElectrons: 415.272339  magneticMoment: [ Abs: 0.00017  Tot: -0.00010 ]
	SubspaceRotationAdjust: set factor to 0.00812
ElecMinimize: Iter:  51  G: -2211.427591653325635  |grad|_K:  1.752e-07  alpha:  6.539e-01  linmin: -5.061e-05  t[s]:  21299.03
	Linear fluid (dielectric constant: 78.4, screening length: 8.12261 Bohr) occupying 0.568641 of unit cell:	Completed after 11 iterations at t[s]:  21355.23
	Linear fluid (dielectric constant: 78.4, screening length: 8.12261 Bohr) occupying 0.568635 of unit cell:	Completed after 9 iterations at t[s]:  21396.04
[...]
	FillingsUpdate:  mu: -0.244750000  nElectrons: 415.233420  magneticMoment: [ Abs: 0.00040  Tot: -0.00037 ]
	SubspaceRotationAdjust: set factor to 0.0153
ElecMinimize: Iter:  67  G: -2211.428531383740847  |grad|_K:  4.178e-08  alpha:  4.221e-01  linmin: -1.454e-03  t[s]:  59879.79
	Linear fluid (dielectric constant: 78.4, screening length: 8.12261 Bohr) occupying 0.569794 of unit cell:	Completed after 9 iterations at t[s]:  59930.11
	Linear fluid (dielectric constant: 78.4, screening length: 8.12261 Bohr) occupying 0.569791 of unit cell:	Completed after 3 iterations at t[s]:  59966.57
	FillingsUpdate:  mu: -0.244750000  nElectrons: 415.233565  magneticMoment: [ Abs: 0.00040  Tot: -0.00037 ]
	SubspaceRotationAdjust: set factor to 0.0125
ElecMinimize: Iter:  68  G: -2211.428531519016360  |grad|_K:  3.822e-08  alpha:  2.212e-01  linmin:  1.080e-03  t[s]:  60023.80
	Linear fluid (dielectric constant: 78.4, screening length: 8.12261 Bohr) occupying 0.569794 of unit cell:	Completed after 6 iterations at t[s]:  60073.56
	Linear fluid (dielectric constant: 78.4, screening length: 8.12261 Bohr) occupying 0.569795 of unit cell:	Completed after 0 iterations at t[s]:  60109.19
	FillingsUpdate:  mu: -0.244750000  nElectrons: 415.233070  magneticMoment: [ Abs: 0.00039  Tot: -0.00036 ]
	SubspaceRotationAdjust: set factor to 0.0162
ElecMinimize: Iter:  69  G: -2211.428531681058303  |grad|_K:  3.327e-08  alpha:  3.347e-01  linmin: -3.673e-03  t[s]:  60166.99
	Linear fluid (dielectric constant: 78.4, screening length: 8.12261 Bohr) occupying 0.569798 of unit cell:	Completed after 6 iterations at t[s]:  60216.77
	Linear fluid (dielectric constant: 78.4, screening length: 8.12261 Bohr) occupying 0.569798 of unit cell:	Completed after 0 iterations at t[s]:  60252.44
	FillingsUpdate:  mu: -0.244750000  nElectrons: 415.232502  magneticMoment: [ Abs: 0.00038  Tot: -0.00035 ]
	SubspaceRotationAdjust: set factor to 0.0139
ElecMinimize: Iter:  70  G: -2211.428531813074642  |grad|_K:  4.507e-08  alpha:  3.177e-01  linmin: -1.284e-03  t[s]:  60309.33
	Linear fluid (dielectric constant: 78.4, screening length: 8.12261 Bohr) occupying 0.569803 of unit cell:	Completed after 7 iterations at t[s]:  60359.29
	Linear fluid (dielectric constant: 78.4, screening length: 8.12261 Bohr) occupying 0.569801 of unit cell:	Completed after 3 iterations at t[s]:  60395.79
	FillingsUpdate:  mu: -0.244750000  nElectrons: 415.232554  magneticMoment: [ Abs: 0.00037  Tot: -0.00035 ]
	SubspaceRotationAdjust: set factor to 0.0138
ElecMinimize: Iter:  71  G: -2211.428531954677055  |grad|_K:  3.573e-08  alpha:  2.051e-01  linmin:  3.629e-04  t[s]:  60452.69
	Linear fluid (dielectric constant: 78.4, screening length: 8.12261 Bohr) occupying 0.569803 of unit cell:	Completed after 0 iterations at t[s]:  60501.03
	Linear fluid (dielectric constant: 78.4, screening length: 8.12261 Bohr) occupying 0.569806 of unit cell:	Completed after 2 iterations at t[s]:  60537.49
	FillingsUpdate:  mu: -0.244750000  nElectrons: 415.232420  magneticMoment: [ Abs: 0.00036  Tot: -0.00034 ]
	SubspaceRotationAdjust: set factor to 0.0163
ElecMinimize: Iter:  72  G: -2211.428532122326033  |grad|_K:  3.911e-08  alpha:  4.820e-01  linmin:  1.584e-03  t[s]:  60594.35
	Linear fluid (dielectric constant: 78.4, screening length: 8.12261 Bohr) occupying 0.569811 of unit cell:	Completed after 7 iterations at t[s]:  60644.25
	Linear fluid (dielectric constant: 78.4, screening length: 8.12261 Bohr) occupying 0.569810 of unit cell:	Completed after 2 iterations at t[s]:  60680.53
	FillingsUpdate:  mu: -0.244750000  nElectrons: 415.231852  magneticMoment: [ Abs: 0.00035  Tot: -0.00032 ]
	SubspaceRotationAdjust: set factor to 0.0163
ElecMinimize: Iter:  73  G: -2211.428532271492713  |grad|_K:  3.914e-08  alpha:  3.345e-01  linmin:  6.375e-04  t[s]:  60737.38
	Linear fluid (dielectric constant: 78.4, screening length: 8.12261 Bohr) occupying 0.569813 of unit cell:	Completed after 3 iterations at t[s]:  60786.60
	Linear fluid (dielectric constant: 78.4, screening length: 8.12261 Bohr) occupying 0.569813 of unit cell:	Completed after 0 iterations at t[s]:  60822.09
	FillingsUpdate:  mu: -0.244750000  nElectrons: 415.231840  magneticMoment: [ Abs: 0.00033  Tot: -0.00031 ]
	SubspaceRotationAdjust: set factor to 0.0202
ElecMinimize: Iter:  74  G: -2211.428532432819793  |grad|_K:  3.435e-08  alpha:  3.456e-01  linmin: -3.518e-04  t[s]:  60878.93
	Linear fluid (dielectric constant: 78.4, screening length: 8.12261 Bohr) occupying 0.569814 of unit cell:	Completed after 6 iterations at t[s]:  60928.70
	Linear fluid (dielectric constant: 78.4, screening length: 8.12261 Bohr) occupying 0.569814 of unit cell:	Completed after 0 iterations at t[s]:  60964.22
	FillingsUpdate:  mu: -0.244750000  nElectrons: 415.232034  magneticMoment: [ Abs: 0.00032  Tot: -0.00030 ]
	SubspaceRotationAdjust: set factor to 0.017
ElecMinimize: Iter:  75  G: -2211.428532568934315  |grad|_K:  4.730e-08  alpha:  3.484e-01  linmin: -8.641e-04  t[s]:  61021.07
	Linear fluid (dielectric constant: 78.4, screening length: 8.12261 Bohr) occupying 0.569815 of unit cell:	Completed after 9 iterations at t[s]:  61071.35
	Linear fluid (dielectric constant: 78.4, screening length: 8.12261 Bohr) occupying 0.569815 of unit cell:	Completed after 7 iterations at t[s]:  61108.65
	FillingsUpdate:  mu: -0.244750000  nElectrons: 415.231589  magneticMoment: [ Abs: 0.00031  Tot: -0.00030 ]
	SubspaceRotationAdjust: set factor to 0.015
ElecMinimize: Iter:  76  G: -2211.428532707066552  |grad|_K:  3.930e-08  alpha:  1.731e-01  linmin:  2.436e-04  t[s]:  61165.53
	Linear fluid (dielectric constant: 78.4, screening length: 8.12261 Bohr) occupying 0.569814 of unit cell:	Completed after 2 iterations at t[s]:  61214.48
	Linear fluid (dielectric constant: 78.4, screening length: 8.12261 Bohr) occupying 0.569814 of unit cell:	Completed after 2 iterations at t[s]:  61250.58
	FillingsUpdate:  mu: -0.244750000  nElectrons: 415.231550  magneticMoment: [ Abs: 0.00030  Tot: -0.00029 ]
	SubspaceRotationAdjust: set factor to 0.0186
ElecMinimize: Iter:  77  G: -2211.428532889556209  |grad|_K:  3.894e-08  alpha:  3.656e-01  linmin: -4.321e-04  t[s]:  61307.45
	Linear fluid (dielectric constant: 78.4, screening length: 8.12261 Bohr) occupying 0.569813 of unit cell:	Completed after 7 iterations at t[s]:  61357.37
	Linear fluid (dielectric constant: 78.4, screening length: 8.12261 Bohr) occupying 0.569813 of unit cell:	Completed after 2 iterations at t[s]:  61393.66
	FillingsUpdate:  mu: -0.244750000  nElectrons: 415.231974  magneticMoment: [ Abs: 0.00030  Tot: -0.00029 ]
	SubspaceRotationAdjust: set factor to 0.0161
ElecMinimize: Iter:  78  G: -2211.428533025583420  |grad|_K:  4.305e-08  alpha:  2.673e-01  linmin:  5.323e-04  t[s]:  61450.59
	Linear fluid (dielectric constant: 78.4, screening length: 8.12261 Bohr) occupying 0.569811 of unit cell:	Completed after 7 iterations at t[s]:  61500.50
	Linear fluid (dielectric constant: 78.4, screening length: 8.12261 Bohr) occupying 0.569812 of unit cell:	Completed after 0 iterations at t[s]:  61536.04
	FillingsUpdate:  mu: -0.244750000  nElectrons: 415.231752  magneticMoment: [ Abs: 0.00030  Tot: -0.00028 ]
	SubspaceRotationAdjust: set factor to 0.0134
ElecMinimize: Iter:  79  G: -2211.428533138908733  |grad|_K:  3.358e-08  alpha:  2.018e-01  linmin:  3.987e-04  t[s]:  61593.30
	Linear fluid (dielectric constant: 78.4, screening length: 8.12261 Bohr) occupying 0.569810 of unit cell:	Completed after 2 iterations at t[s]:  61642.31
	Linear fluid (dielectric constant: 78.4, screening length: 8.12261 Bohr) occupying 0.569810 of unit cell:	Completed after 0 iterations at t[s]:  61677.81
	FillingsUpdate:  mu: -0.244750000  nElectrons: 415.231908  magneticMoment: [ Abs: 0.00030  Tot: -0.00027 ]
	SubspaceRotationAdjust: set factor to 0.0152
ElecMinimize: Iter:  80  G: -2211.428533246424649  |grad|_K:  2.777e-08  alpha:  2.910e-01  linmin: -1.479e-03  t[s]:  61734.71
	Linear fluid (dielectric constant: 78.4, screening length: 8.12261 Bohr) occupying 0.569808 of unit cell:	Completed after 3 iterations at t[s]:  61783.87
	Linear fluid (dielectric constant: 78.4, screening length: 8.12261 Bohr) occupying 0.569808 of unit cell:	Completed after 0 iterations at t[s]:  61819.38
	FillingsUpdate:  mu: -0.244750000  nElectrons: 415.232128  magneticMoment: [ Abs: 0.00029  Tot: -0.00026 ]
	SubspaceRotationAdjust: set factor to 0.0164
ElecMinimize: Iter:  81  G: -2211.428533352005616  |grad|_K:  2.635e-08  alpha:  3.669e-01  linmin: -1.143e-03  t[s]:  61876.62
	Linear fluid (dielectric constant: 78.4, screening length: 8.12261 Bohr) occupying 0.569806 of unit cell:	Completed after 2 iterations at t[s]:  61925.69
	Linear fluid (dielectric constant: 78.4, screening length: 8.12261 Bohr) occupying 0.569806 of unit cell:	Completed after 0 iterations at t[s]:  61961.14
	FillingsUpdate:  mu: -0.244750000  nElectrons: 415.232054  magneticMoment: [ Abs: 0.00028  Tot: -0.00025 ]
	SubspaceRotationAdjust: set factor to 0.0188
ElecMinimize: Iter:  82  G: -2211.428533441250693  |grad|_K:  2.341e-08  alpha:  3.634e-01  linmin:  9.462e-05  t[s]:  62017.96
	Linear fluid (dielectric constant: 78.4, screening length: 8.12261 Bohr) occupying 0.569805 of unit cell:	Completed after 3 iterations at t[s]:  62067.11
	Linear fluid (dielectric constant: 78.4, screening length: 8.12261 Bohr) occupying 0.569805 of unit cell:	Completed after 0 iterations at t[s]:  62102.62
	FillingsUpdate:  mu: -0.244750000  nElectrons: 415.231961  magneticMoment: [ Abs: 0.00027  Tot: -0.00025 ]
	SubspaceRotationAdjust: set factor to 0.0199
ElecMinimize: Iter:  83  G: -2211.428533491930466  |grad|_K:  2.711e-08  alpha:  2.932e-01  linmin: -1.802e-05  t[s]:  62159.48
ElecMinimize: Converged (|Delta G|<1.000000e-07 for 2 iters).
Setting wave functions to eigenvectors of Hamiltonian
Converging empty states (this may take a while): |deigs|: 1.745e-07

Computing DFT-D3 correction:
# coordination-number Pt 7.199 9.441 8.650 9.503 9.536 9.474 9.561 9.544 9.457 8.682 5.248 9.491 5.966 9.482 9.469 9.456 9.542 9.565 9.444 9.539 9.505 8.651 5.262 8.668 7.208 5.960
# diagonal-C6 Pt 336.87 336.87 336.87 336.87 336.87 336.87 336.87 336.87 336.87 336.87 336.87 336.87 336.87 336.87 336.87 336.87 336.87 336.87 336.87 336.87 336.87 336.87 336.87 336.87 336.87 336.87
EvdW_6 =   -0.233485
EvdW_8 =   -0.376836

# Ionic positions in cartesian coordinates:
ion Pt   0.005787683390489  10.243269695498300  24.247939117856141 1
ion Pt   0.001615988410727   4.133789168254906  19.984783053671187 1
ion Pt   3.706709691463581   7.308622811886051  22.257492971274242 1
ion Pt   3.698130497972563   1.013987027540351  17.915961819772193 1
ion Pt  -0.000338188816718   8.213987660199173  13.880939284964185 1
ion Pt   0.001407643981343   2.059765826470804   9.731031252594624 1
ion Pt   3.697030690800132  11.264284059156727  15.909433184617683 1
ion Pt   3.701173928081413   5.127338549128230  11.784805867307467 1
ion Pt  -0.003140423733229  12.338371563026177   7.652361073305082 1
ion Pt  -0.003193033914771   6.111000820449942   3.503240162357439 1
ion Pt   0.006770781217697  -0.063907792998168  25.881827532680006 1
ion Pt   3.696291164979405   9.196405568814406   5.707615080978915 1
ion Pt   3.693615114581823   3.062361435015767   1.703857152839678 1
ion Pt   3.702859883904848  12.350680501692796  20.965427107911164 1
ion Pt   3.697931691586300   6.149062009897483  16.948548449333330 1
ion Pt   0.002954251306058   9.208950659497019  19.026493400623341 1
ion Pt  -0.001620008552895   3.079840308564440  14.890543809695631 1
ion Pt   3.702060856361884  10.282122208633808  10.766738363610548 1
ion Pt   3.697765907179225   4.075289079320854   6.689721832297193 1
ion Pt   0.000437810401980  13.332640548648806  12.793133205214522 1
ion Pt   0.001347660409933   7.194025580441493   8.762194169434620 1
ion Pt  -0.007122696063536   0.900254951052824   4.421653500102393 1
ion Pt   3.693204088016838   8.272824237073412   0.803651000198980 1
ion Pt   3.702732397702666   2.100269979068287  23.174663796195851 1
ion Pt  -0.005560904141144  11.302659184131986   2.431922266918894 1
ion Pt   0.006111523473381   5.149403359534094  24.978417544244667 1

# Forces in Cartesian coordinates:
force Pt  -0.000007821399275  -0.001261691762318   0.000705846675917 1
force Pt   0.000008386872593  -0.000910558521337  -0.000005471936943 1
force Pt  -0.000000795872015   0.000463516691312   0.000226826040703 1
force Pt   0.000074813190971  -0.000507723426837  -0.000099652205602 1
force Pt  -0.000060009204207  -0.000406340671056   0.000175210729247 1
force Pt  -0.000016161439092  -0.000539707335022   0.000300420617056 1
force Pt  -0.000006057956576   0.000684715489851   0.001268529210481 1
force Pt   0.000010159238554  -0.000028629962742  -0.000557021417286 1
force Pt   0.000028599024322  -0.000573509965677   0.000406744888171 1
force Pt   0.000002485511979  -0.000472339565505  -0.000081776101386 1
force Pt  -0.000004752760638   0.000112830863220   0.000176172657446 1
force Pt   0.000005972089807   0.000844781749151   0.002143592979096 1
force Pt  -0.000028265790665  -0.001252922422918  -0.000696407473550 1
force Pt  -0.000020881921653  -0.000603111257598  -0.000990453960776 1
force Pt   0.000044668210026   0.000546992001053  -0.000710426567805 1
force Pt  -0.000026356304687   0.000618636707496  -0.000603792508214 1
force Pt  -0.000020064219568   0.000132909925668   0.000810650746989 1
force Pt   0.000019900029856  -0.000704558619259  -0.001383092310189 1
force Pt  -0.000013292436100   0.000802753801220   0.000618597112149 1
force Pt   0.000030865272230   0.000330302867767   0.000366745544973 1
force Pt  -0.000076419224790   0.000528278984174  -0.000187384813440 1
force Pt   0.000002696571164  -0.000433199875657  -0.000236578825507 1
force Pt  -0.000029555997624  -0.000041128430748  -0.001438893643254 1
force Pt   0.000019000462646   0.000052584682696   0.000200140027936 1
force Pt   0.000014835339622   0.001812436294282  -0.000804105037147 1
force Pt   0.000022328931714   0.000917595874217   0.000244191147865 1

# Energy components:
   A_diel =        0.1546679969278445
   Eewald =    30730.5086367841540778
       EH =    32782.9212232574718655
     Eloc =   -66228.1184468328574440
      Enl =      -27.4574336248149962
     EvdW =       -0.6103209479792390
      Exc =     -739.5683623066881864
 Exc_core =      426.1759240865371794
       KE =      742.9017236109111764
  MuShift =        0.0401323594310001
-------------------------------------
     Etot =    -2313.0522556169062227
       TS =        0.0043003014725422
-------------------------------------
        F =    -2313.0565559183787627
      muN =     -101.6280224264483962
-------------------------------------
        G =    -2211.4285334919304660


Dumping 'jdft.fillings' ... done
Dumping 'jdft.wfns' ... done
Dumping 'jdft.fluidState' ... done
Dumping 'jdft.ionpos' ... done
Dumping 'jdft.lattice' ... done
Dumping 'jdft.eigenvals' ... done
Dumping 'jdft.eigStats' ... 
	eMin: -2.194992 at state 36 ( [ +0.444444 +0.500000 +0.000000 ] spin -1 )
	HOMO: -0.244893 at state 32 ( [ +0.333333 +0.500000 +0.000000 ] spin -1 )
	mu  : -0.244750
	LUMO: -0.244791 at state 3 ( [ +0.111111 +0.000000 +0.000000 ] spin 1 )
	eMax: +0.074002 at state 15 ( [ +0.444444 +0.000000 +0.000000 ] spin 1 )
	HOMO-LUMO gap: +0.000102
	Optical gap  : +0.000465 at state 15 ( [ +0.444444 +0.000000 +0.000000 ] spin 1 )
Dumping 'jdft.Ecomponents' ... done
IonicMinimize: Iter:   4  G: -2211.428533491930466  |grad|_K:  6.132e-04  alpha:  1.000e+00  linmin:  3.248e-01  t[s]:  62354.42
IonicMinimize: Converged (|Delta G|<1.000000e-04 for 2 iters).

#--- Lowdin population analysis ---
# oxidation-state Pt +0.047 +0.014 -0.019 +0.009 +0.004 +0.003 +0.002 +0.010 +0.008 -0.035 +0.270 +0.002 +0.209 +0.004 +0.004 +0.009 +0.010 +0.002 +0.013 +0.003 +0.008 -0.019 +0.272 -0.035 +0.049 +0.207
# magnetic-moments Pt -0.000 -0.000 -0.000 +0.000 +0.000 -0.000 +0.000 -0.000 -0.000 -0.000 -0.000 -0.000 -0.000 -0.000 +0.000 +0.000 +0.000 -0.000 -0.000 +0.000 -0.000 -0.000 -0.000 -0.000 -0.000 -0.000


Dumping 'jdft.n_up' ... done
Dumping 'jdft.n_dn' ... done
Dumping 'jdft.tau_up' ... done
Dumping 'jdft.tau_dn' ... done
Dumping 'jdft.eigenvals' ... done
Dumping 'jdft.eigStats' ... 
	eMin: -2.194992 at state 36 ( [ +0.444444 +0.500000 +0.000000 ] spin -1 )
	HOMO: -0.244893 at state 32 ( [ +0.333333 +0.500000 +0.000000 ] spin -1 )
	mu  : -0.244750
	LUMO: -0.244791 at state 3 ( [ +0.111111 +0.000000 +0.000000 ] spin 1 )
	eMax: +0.074002 at state 15 ( [ +0.444444 +0.000000 +0.000000 ] spin 1 )
	HOMO-LUMO gap: +0.000102
	Optical gap  : +0.000465 at state 15 ( [ +0.444444 +0.000000 +0.000000 ] spin 1 )
Dumping 'jdft.kPts' ... done
Dumping 'jdft.kMap' ... done
Dumping 'jdft.dosUp' ... done.
Dumping 'jdft.dosDn' ... done.
End date and time: Sat Sep 10 01:42:08 2022  (Duration: 0-17:20:42.21)
Done!

PROFILER:             augmentDensityGrid     9.886148 +/-     0.808593 s,  800 calls,   7908.918480 s total
PROFILER:         augmentDensityGridGrad     0.569584 +/-     0.097629 s,  406 calls,    231.251285 s total
PROFILER:        augmentDensitySpherical     0.003697 +/-     0.000366 s,  800 calls,      2.957402 s total
PROFILER:    augmentDensitySphericalGrad     0.003581 +/-     0.000648 s,  448 calls,      1.604122 s total
PROFILER:                 augmentOverlap     4.992875 +/-     0.589181 s, 1543 calls,   7704.006097 s total
PROFILER:        ColumnBundle::randomize     0.002351 +/-     0.000000 s,    1 calls,      0.002351 s total
PROFILER:                     diagouterI     8.672600 +/-     0.793266 s,  803 calls,   6964.097694 s total
PROFILER:              EdensityAndVscloc     3.211633 +/-     1.959530 s,  801 calls,   2572.517712 s total
PROFILER:                     EnlAndGrad     0.016751 +/-     0.003317 s,  781 calls,     13.082274 s total
PROFILER:            ExCorrCommunication     0.035311 +/-     0.229322 s, 4863 calls,    171.716181 s total
PROFILER:               ExCorrFunctional     0.007665 +/-     0.000864 s,  817 calls,      6.262016 s total
PROFILER:                    ExCorrTotal     0.297922 +/-     0.538278 s,  817 calls,    243.401933 s total
PROFILER:                   Idag_DiagV_I    16.376394 +/-     3.973573 s,  443 calls,   7254.742660 s total
PROFILER:                    initWeights     1.897650 +/-     0.000000 s,    1 calls,      1.897650 s total
PROFILER:                    inv(matrix)     0.010007 +/-     0.000823 s,  727 calls,      7.274923 s total
PROFILER:            matrix::diagonalize     0.029553 +/-     0.011562 s, 1241 calls,     36.674742 s total
PROFILER:                    matrix::set     0.000009 +/-     0.000007 s, 32266 calls,      0.277583 s total
PROFILER:            orthoMatrix(matrix)     0.005297 +/-     0.002297 s,  767 calls,      4.062615 s total
PROFILER:     RadialFunctionR::transform     0.472226 +/-     2.494222 s,   56 calls,     26.444652 s total
PROFILER:                    reduceKmesh     0.000512 +/-     0.000000 s,    1 calls,      0.000512 s total
PROFILER:   VanDerWaalsD3::energyAndGrad     0.014395 +/-     0.000756 s,   11 calls,      0.158342 s total
PROFILER:               WavefunctionDrag    29.052879 +/-     5.942564 s,    5 calls,    145.264395 s total
PROFILER:                            Y*M     1.600630 +/-     0.555606 s, 5128 calls,   8208.029724 s total
PROFILER:                          Y1^Y2     1.672335 +/-     0.618456 s, 3220 calls,   5384.917895 s total

MEMUSAGE:                   ColumnBundle     0.864493 GB
MEMUSAGE:        complexScalarFieldTilde     0.017303 GB
MEMUSAGE:                    IndexArrays     0.019108 GB
MEMUSAGE:                         matrix     0.044251 GB
MEMUSAGE:                           misc     0.017404 GB
MEMUSAGE:                    ScalarField     0.125450 GB
MEMUSAGE:               ScalarFieldTilde     0.091404 GB
MEMUSAGE:                          Total     0.988460 GB
