
*************** JDFTx 1.6.0  ***************

Start date and time: Thu Dec  9 05:46:35 2021
Executable /projects/musgravc/apps/jdftx-1.6.1/build/jdftx with command-line: -i in
Running on hosts (process indices):  shas0114.rc.int.colorado.edu (0-23)
Divided in process groups (process indices):  0 (0)  1 (1)  2 (2)  3 (3)  4 (4)  5 (5)  6 (6)  7 (7)  8 (8)  9 (9)  10 (10)  11 (11)  12 (12)  13 (13)  14 (14)  15 (15)  16 (16)  17 (17)  18 (18)  19 (19)  20 (20)  21 (21)  22 (22)  23 (23)
Resource initialization completed at t[s]:      0.00
Run totals: 24 processes, 24 threads, 0 GPUs


Input parsed successfully to the following command list (including defaults):

basis kpoint-dependent
converge-empty-states yes
coords-type Cartesian
core-overlap-check none
coulomb-interaction Periodic
davidson-band-ratio 1.1
density-of-states Etol 1.000000e-06 Esigma 1.000000e-03 \
		Complete \
	Total \
	OrthoOrbital Cu 1   s \
	OrthoOrbital Cu 1   p \
	OrthoOrbital Cu 1   px \
	OrthoOrbital Cu 1   py \
	OrthoOrbital Cu 1   pz \
	OrthoOrbital Cu 1   d \
	OrthoOrbital Cu 1   dxy \
	OrthoOrbital Cu 1   dyz \
	OrthoOrbital Cu 1   dz2 \
	OrthoOrbital Cu 1   dxz \
	OrthoOrbital Cu 1   dx2-y2 \
	OrthoOrbital Cu 2   s \
	OrthoOrbital Cu 2   p \
	OrthoOrbital Cu 2   px \
	OrthoOrbital Cu 2   py \
	OrthoOrbital Cu 2   pz \
	OrthoOrbital Cu 2   d \
	OrthoOrbital Cu 2   dxy \
	OrthoOrbital Cu 2   dyz \
	OrthoOrbital Cu 2   dz2 \
	OrthoOrbital Cu 2   dxz \
	OrthoOrbital Cu 2   dx2-y2 \
	OrthoOrbital Cu 3   s \
	OrthoOrbital Cu 3   p \
	OrthoOrbital Cu 3   px \
	OrthoOrbital Cu 3   py \
	OrthoOrbital Cu 3   pz \
	OrthoOrbital Cu 3   d \
	OrthoOrbital Cu 3   dxy \
	OrthoOrbital Cu 3   dyz \
	OrthoOrbital Cu 3   dz2 \
	OrthoOrbital Cu 3   dxz \
	OrthoOrbital Cu 3   dx2-y2 \
	OrthoOrbital Cu 4   s \
	OrthoOrbital Cu 4   p \
	OrthoOrbital Cu 4   px \
	OrthoOrbital Cu 4   py \
	OrthoOrbital Cu 4   pz \
	OrthoOrbital Cu 4   d \
	OrthoOrbital Cu 4   dxy \
	OrthoOrbital Cu 4   dyz \
	OrthoOrbital Cu 4   dz2 \
	OrthoOrbital Cu 4   dxz \
	OrthoOrbital Cu 4   dx2-y2 \
	OrthoOrbital Cu 5   s \
	OrthoOrbital Cu 5   p \
	OrthoOrbital Cu 5   px \
	OrthoOrbital Cu 5   py \
	OrthoOrbital Cu 5   pz \
	OrthoOrbital Cu 5   d \
	OrthoOrbital Cu 5   dxy \
	OrthoOrbital Cu 5   dyz \
	OrthoOrbital Cu 5   dz2 \
	OrthoOrbital Cu 5   dxz \
	OrthoOrbital Cu 5   dx2-y2 \
	OrthoOrbital Cu 6   s \
	OrthoOrbital Cu 6   p \
	OrthoOrbital Cu 6   px \
	OrthoOrbital Cu 6   py \
	OrthoOrbital Cu 6   pz \
	OrthoOrbital Cu 6   d \
	OrthoOrbital Cu 6   dxy \
	OrthoOrbital Cu 6   dyz \
	OrthoOrbital Cu 6   dz2 \
	OrthoOrbital Cu 6   dxz \
	OrthoOrbital Cu 6   dx2-y2 \
	OrthoOrbital Cu 7   s \
	OrthoOrbital Cu 7   p \
	OrthoOrbital Cu 7   px \
	OrthoOrbital Cu 7   py \
	OrthoOrbital Cu 7   pz \
	OrthoOrbital Cu 7   d \
	OrthoOrbital Cu 7   dxy \
	OrthoOrbital Cu 7   dyz \
	OrthoOrbital Cu 7   dz2 \
	OrthoOrbital Cu 7   dxz \
	OrthoOrbital Cu 7   dx2-y2 \
	OrthoOrbital Cu 8   s \
	OrthoOrbital Cu 8   p \
	OrthoOrbital Cu 8   px \
	OrthoOrbital Cu 8   py \
	OrthoOrbital Cu 8   pz \
	OrthoOrbital Cu 8   d \
	OrthoOrbital Cu 8   dxy \
	OrthoOrbital Cu 8   dyz \
	OrthoOrbital Cu 8   dz2 \
	OrthoOrbital Cu 8   dxz \
	OrthoOrbital Cu 8   dx2-y2 \
	OrthoOrbital Cu 9   s \
	OrthoOrbital Cu 9   p \
	OrthoOrbital Cu 9   px \
	OrthoOrbital Cu 9   py \
	OrthoOrbital Cu 9   pz \
	OrthoOrbital Cu 9   d \
	OrthoOrbital Cu 9   dxy \
	OrthoOrbital Cu 9   dyz \
	OrthoOrbital Cu 9   dz2 \
	OrthoOrbital Cu 9   dxz \
	OrthoOrbital Cu 9   dx2-y2 \
	OrthoOrbital Cu 10   s \
	OrthoOrbital Cu 10   p \
	OrthoOrbital Cu 10   px \
	OrthoOrbital Cu 10   py \
	OrthoOrbital Cu 10   pz \
	OrthoOrbital Cu 10   d \
	OrthoOrbital Cu 10   dxy \
	OrthoOrbital Cu 10   dyz \
	OrthoOrbital Cu 10   dz2 \
	OrthoOrbital Cu 10   dxz \
	OrthoOrbital Cu 10   dx2-y2 \
	OrthoOrbital Cu 11   s \
	OrthoOrbital Cu 11   p \
	OrthoOrbital Cu 11   px \
	OrthoOrbital Cu 11   py \
	OrthoOrbital Cu 11   pz \
	OrthoOrbital Cu 11   d \
	OrthoOrbital Cu 11   dxy \
	OrthoOrbital Cu 11   dyz \
	OrthoOrbital Cu 11   dz2 \
	OrthoOrbital Cu 11   dxz \
	OrthoOrbital Cu 11   dx2-y2 \
	OrthoOrbital Cu 12   s \
	OrthoOrbital Cu 12   p \
	OrthoOrbital Cu 12   px \
	OrthoOrbital Cu 12   py \
	OrthoOrbital Cu 12   pz \
	OrthoOrbital Cu 12   d \
	OrthoOrbital Cu 12   dxy \
	OrthoOrbital Cu 12   dyz \
	OrthoOrbital Cu 12   dz2 \
	OrthoOrbital Cu 12   dxz \
	OrthoOrbital Cu 12   dx2-y2 \
	OrthoOrbital Cu 13   s \
	OrthoOrbital Cu 13   p \
	OrthoOrbital Cu 13   px \
	OrthoOrbital Cu 13   py \
	OrthoOrbital Cu 13   pz \
	OrthoOrbital Cu 13   d \
	OrthoOrbital Cu 13   dxy \
	OrthoOrbital Cu 13   dyz \
	OrthoOrbital Cu 13   dz2 \
	OrthoOrbital Cu 13   dxz \
	OrthoOrbital Cu 13   dx2-y2 \
	OrthoOrbital Cu 14   s \
	OrthoOrbital Cu 14   p \
	OrthoOrbital Cu 14   px \
	OrthoOrbital Cu 14   py \
	OrthoOrbital Cu 14   pz \
	OrthoOrbital Cu 14   d \
	OrthoOrbital Cu 14   dxy \
	OrthoOrbital Cu 14   dyz \
	OrthoOrbital Cu 14   dz2 \
	OrthoOrbital Cu 14   dxz \
	OrthoOrbital Cu 14   dx2-y2 \
	OrthoOrbital Cu 15   s \
	OrthoOrbital Cu 15   p \
	OrthoOrbital Cu 15   px \
	OrthoOrbital Cu 15   py \
	OrthoOrbital Cu 15   pz \
	OrthoOrbital Cu 15   d \
	OrthoOrbital Cu 15   dxy \
	OrthoOrbital Cu 15   dyz \
	OrthoOrbital Cu 15   dz2 \
	OrthoOrbital Cu 15   dxz \
	OrthoOrbital Cu 15   dx2-y2 \
	OrthoOrbital Cu 16   s \
	OrthoOrbital Cu 16   p \
	OrthoOrbital Cu 16   px \
	OrthoOrbital Cu 16   py \
	OrthoOrbital Cu 16   pz \
	OrthoOrbital Cu 16   d \
	OrthoOrbital Cu 16   dxy \
	OrthoOrbital Cu 16   dyz \
	OrthoOrbital Cu 16   dz2 \
	OrthoOrbital Cu 16   dxz \
	OrthoOrbital Cu 16   dx2-y2 \
	OrthoOrbital Cu 17   s \
	OrthoOrbital Cu 17   p \
	OrthoOrbital Cu 17   px \
	OrthoOrbital Cu 17   py \
	OrthoOrbital Cu 17   pz \
	OrthoOrbital Cu 17   d \
	OrthoOrbital Cu 17   dxy \
	OrthoOrbital Cu 17   dyz \
	OrthoOrbital Cu 17   dz2 \
	OrthoOrbital Cu 17   dxz \
	OrthoOrbital Cu 17   dx2-y2 \
	OrthoOrbital Cu 18   s \
	OrthoOrbital Cu 18   p \
	OrthoOrbital Cu 18   px \
	OrthoOrbital Cu 18   py \
	OrthoOrbital Cu 18   pz \
	OrthoOrbital Cu 18   d \
	OrthoOrbital Cu 18   dxy \
	OrthoOrbital Cu 18   dyz \
	OrthoOrbital Cu 18   dz2 \
	OrthoOrbital Cu 18   dxz \
	OrthoOrbital Cu 18   dx2-y2 \
	OrthoOrbital Cu 19   s \
	OrthoOrbital Cu 19   p \
	OrthoOrbital Cu 19   px \
	OrthoOrbital Cu 19   py \
	OrthoOrbital Cu 19   pz \
	OrthoOrbital Cu 19   d \
	OrthoOrbital Cu 19   dxy \
	OrthoOrbital Cu 19   dyz \
	OrthoOrbital Cu 19   dz2 \
	OrthoOrbital Cu 19   dxz \
	OrthoOrbital Cu 19   dx2-y2 \
	OrthoOrbital Cu 20   s \
	OrthoOrbital Cu 20   p \
	OrthoOrbital Cu 20   px \
	OrthoOrbital Cu 20   py \
	OrthoOrbital Cu 20   pz \
	OrthoOrbital Cu 20   d \
	OrthoOrbital Cu 20   dxy \
	OrthoOrbital Cu 20   dyz \
	OrthoOrbital Cu 20   dz2 \
	OrthoOrbital Cu 20   dxz \
	OrthoOrbital Cu 20   dx2-y2 \
	OrthoOrbital Cu 21   s \
	OrthoOrbital Cu 21   p \
	OrthoOrbital Cu 21   px \
	OrthoOrbital Cu 21   py \
	OrthoOrbital Cu 21   pz \
	OrthoOrbital Cu 21   d \
	OrthoOrbital Cu 21   dxy \
	OrthoOrbital Cu 21   dyz \
	OrthoOrbital Cu 21   dz2 \
	OrthoOrbital Cu 21   dxz \
	OrthoOrbital Cu 21   dx2-y2 \
	OrthoOrbital Cu 22   s \
	OrthoOrbital Cu 22   p \
	OrthoOrbital Cu 22   px \
	OrthoOrbital Cu 22   py \
	OrthoOrbital Cu 22   pz \
	OrthoOrbital Cu 22   d \
	OrthoOrbital Cu 22   dxy \
	OrthoOrbital Cu 22   dyz \
	OrthoOrbital Cu 22   dz2 \
	OrthoOrbital Cu 22   dxz \
	OrthoOrbital Cu 22   dx2-y2 \
	OrthoOrbital Cu 23   s \
	OrthoOrbital Cu 23   p \
	OrthoOrbital Cu 23   px \
	OrthoOrbital Cu 23   py \
	OrthoOrbital Cu 23   pz \
	OrthoOrbital Cu 23   d \
	OrthoOrbital Cu 23   dxy \
	OrthoOrbital Cu 23   dyz \
	OrthoOrbital Cu 23   dz2 \
	OrthoOrbital Cu 23   dxz \
	OrthoOrbital Cu 23   dx2-y2 \
	OrthoOrbital Cu 24   s \
	OrthoOrbital Cu 24   p \
	OrthoOrbital Cu 24   px \
	OrthoOrbital Cu 24   py \
	OrthoOrbital Cu 24   pz \
	OrthoOrbital Cu 24   d \
	OrthoOrbital Cu 24   dxy \
	OrthoOrbital Cu 24   dyz \
	OrthoOrbital Cu 24   dz2 \
	OrthoOrbital Cu 24   dxz \
	OrthoOrbital Cu 24   dx2-y2 \
	OrthoOrbital Cu 25   s \
	OrthoOrbital Cu 25   p \
	OrthoOrbital Cu 25   px \
	OrthoOrbital Cu 25   py \
	OrthoOrbital Cu 25   pz \
	OrthoOrbital Cu 25   d \
	OrthoOrbital Cu 25   dxy \
	OrthoOrbital Cu 25   dyz \
	OrthoOrbital Cu 25   dz2 \
	OrthoOrbital Cu 25   dxz \
	OrthoOrbital Cu 25   dx2-y2 \
	OrthoOrbital Cu 26   s \
	OrthoOrbital Cu 26   p \
	OrthoOrbital Cu 26   px \
	OrthoOrbital Cu 26   py \
	OrthoOrbital Cu 26   pz \
	OrthoOrbital Cu 26   d \
	OrthoOrbital Cu 26   dxy \
	OrthoOrbital Cu 26   dyz \
	OrthoOrbital Cu 26   dz2 \
	OrthoOrbital Cu 26   dxz \
	OrthoOrbital Cu 26   dx2-y2 \
	OrthoOrbital Cu 27   s \
	OrthoOrbital Cu 27   p \
	OrthoOrbital Cu 27   px \
	OrthoOrbital Cu 27   py \
	OrthoOrbital Cu 27   pz \
	OrthoOrbital Cu 27   d \
	OrthoOrbital Cu 27   dxy \
	OrthoOrbital Cu 27   dyz \
	OrthoOrbital Cu 27   dz2 \
	OrthoOrbital Cu 27   dxz \
	OrthoOrbital Cu 27   dx2-y2 \
	OrthoOrbital Cu 28   s \
	OrthoOrbital Cu 28   p \
	OrthoOrbital Cu 28   px \
	OrthoOrbital Cu 28   py \
	OrthoOrbital Cu 28   pz \
	OrthoOrbital Cu 28   d \
	OrthoOrbital Cu 28   dxy \
	OrthoOrbital Cu 28   dyz \
	OrthoOrbital Cu 28   dz2 \
	OrthoOrbital Cu 28   dxz \
	OrthoOrbital Cu 28   dx2-y2 \
	OrthoOrbital Cu 29   s \
	OrthoOrbital Cu 29   p \
	OrthoOrbital Cu 29   px \
	OrthoOrbital Cu 29   py \
	OrthoOrbital Cu 29   pz \
	OrthoOrbital Cu 29   d \
	OrthoOrbital Cu 29   dxy \
	OrthoOrbital Cu 29   dyz \
	OrthoOrbital Cu 29   dz2 \
	OrthoOrbital Cu 29   dxz \
	OrthoOrbital Cu 29   dx2-y2 \
	OrthoOrbital Cu 30   s \
	OrthoOrbital Cu 30   p \
	OrthoOrbital Cu 30   px \
	OrthoOrbital Cu 30   py \
	OrthoOrbital Cu 30   pz \
	OrthoOrbital Cu 30   d \
	OrthoOrbital Cu 30   dxy \
	OrthoOrbital Cu 30   dyz \
	OrthoOrbital Cu 30   dz2 \
	OrthoOrbital Cu 30   dxz \
	OrthoOrbital Cu 30   dx2-y2 \
	OrthoOrbital Cu 31   s \
	OrthoOrbital Cu 31   p \
	OrthoOrbital Cu 31   px \
	OrthoOrbital Cu 31   py \
	OrthoOrbital Cu 31   pz \
	OrthoOrbital Cu 31   d \
	OrthoOrbital Cu 31   dxy \
	OrthoOrbital Cu 31   dyz \
	OrthoOrbital Cu 31   dz2 \
	OrthoOrbital Cu 31   dxz \
	OrthoOrbital Cu 31   dx2-y2 \
	OrthoOrbital Cu 32   s \
	OrthoOrbital Cu 32   p \
	OrthoOrbital Cu 32   px \
	OrthoOrbital Cu 32   py \
	OrthoOrbital Cu 32   pz \
	OrthoOrbital Cu 32   d \
	OrthoOrbital Cu 32   dxy \
	OrthoOrbital Cu 32   dyz \
	OrthoOrbital Cu 32   dz2 \
	OrthoOrbital Cu 32   dxz \
	OrthoOrbital Cu 32   dx2-y2 \
	OrthoOrbital Cu 33   s \
	OrthoOrbital Cu 33   p \
	OrthoOrbital Cu 33   px \
	OrthoOrbital Cu 33   py \
	OrthoOrbital Cu 33   pz \
	OrthoOrbital Cu 33   d \
	OrthoOrbital Cu 33   dxy \
	OrthoOrbital Cu 33   dyz \
	OrthoOrbital Cu 33   dz2 \
	OrthoOrbital Cu 33   dxz \
	OrthoOrbital Cu 33   dx2-y2 \
	OrthoOrbital Cu 34   s \
	OrthoOrbital Cu 34   p \
	OrthoOrbital Cu 34   px \
	OrthoOrbital Cu 34   py \
	OrthoOrbital Cu 34   pz \
	OrthoOrbital Cu 34   d \
	OrthoOrbital Cu 34   dxy \
	OrthoOrbital Cu 34   dyz \
	OrthoOrbital Cu 34   dz2 \
	OrthoOrbital Cu 34   dxz \
	OrthoOrbital Cu 34   dx2-y2
dump End ElecDensity KEdensity BandEigs EigStats RhoAtom DOS Kpoints
dump Ionic State IonicPositions Lattice EigStats Ecomponents
dump 
dump 
dump 
dump 
dump 
dump 
dump 
dump 
dump-name jdft.$VAR
elec-cutoff 20
elec-eigen-algo Davidson
elec-ex-corr gga-PBE
elec-initial-magnetization 0.000000 no
elec-n-bands 388
elec-smearing Fermi 0.001
electronic-minimize  \
	dirUpdateScheme      FletcherReeves \
	linminMethod         DirUpdateRecommended \
	nIterations          100 \
	history              15 \
	knormThreshold       0 \
	energyDiffThreshold  1e-07 \
	nEnergyDiff          2 \
	alphaTstart          1 \
	alphaTmin            1e-10 \
	updateTestStepSize   yes \
	alphaTreduceFactor   0.1 \
	alphaTincreaseFactor 3 \
	nAlphaAdjustMax      3 \
	wolfeEnergy          0.0001 \
	wolfeGradient        0.9 \
	fdTest               no
exchange-regularization WignerSeitzTruncated
fluid LinearPCM 298.000000 1.013250
fluid-anion F- 0.5 MeanFieldLJ \
	epsBulk 1 \
	pMol 0 \
	epsInf 1 \
	Pvap 0 \
	sigmaBulk 0 \
	Rvdw 2.24877 \
	Res 0 \
	tauNuc 343133
fluid-cation Na+ 0.5 MeanFieldLJ \
	epsBulk 1 \
	pMol 0 \
	epsInf 1 \
	Pvap 0 \
	sigmaBulk 0 \
	Rvdw 2.19208 \
	Res 0 \
	tauNuc 343133
fluid-ex-corr lda-TF lda-PZ
fluid-gummel-loop 10 1.000000e-05
fluid-minimize  \
	dirUpdateScheme      PolakRibiere \
	linminMethod         DirUpdateRecommended \
	nIterations          400 \
	history              15 \
	knormThreshold       1e-11 \
	energyDiffThreshold  0 \
	nEnergyDiff          2 \
	alphaTstart          1 \
	alphaTmin            1e-10 \
	updateTestStepSize   yes \
	alphaTreduceFactor   0.1 \
	alphaTincreaseFactor 3 \
	nAlphaAdjustMax      6 \
	wolfeEnergy          0.0001 \
	wolfeGradient        0.9 \
	fdTest               no
fluid-solvent H2O 55.338 ScalarEOS \
	epsBulk 78.4 \
	pMol 0.92466 \
	epsInf 1.77 \
	Pvap 1.06736e-10 \
	sigmaBulk 4.62e-05 \
	Rvdw 2.61727 \
	Res 1.42 \
	tauNuc 343133 \
	poleEl 15 7 1
forces-output-coords Positions
initial-state jdft.$VAR
ion Cu  -0.000009624473019  11.491269571304899   1.177698640172767 1
ion Cu  -0.000111324382361  15.089576751044474   4.567149347703624 1
ion Cu   0.000054519682847   0.130671109795431  27.230997206167082 1
ion Cu  -0.000117376602465   3.516609927874870   2.810106022328031 1
ion Cu  -0.000103760786045   6.952456671647801   6.147445797543896 1
ion Cu  -0.000013483488243  10.392589412914933   9.432373404719238 1
ion Cu   0.000003492000937  17.347893290243135  15.945655697735369 1
ion Cu  -0.000085233881308  18.512772598461360   7.738031825241698 1
ion Cu   0.000006261125432   2.300829308604745  11.025583467448280 1
ion Cu   0.000009582901803   5.785493529287277  14.291497146760324 1
ion Cu  -0.000010977794500   9.262888198021860  17.580402600718955 1
ion Cu   0.000117090380281  12.727233801658283  20.863549384052572 1
ion Cu  -0.000008791889159  13.867368217185224  12.688927640408618 1
ion Cu   0.000005393567018   1.159967164426779  19.174720182828754 1
ion Cu   0.000044364212774   4.603241162497481  22.451303040742495 1
ion Cu   0.000110093083796   8.092137476760902  25.789776556512855 1
ion Cu   0.000131829288403  16.101757159526930  24.302003302593416 1
ion Cu   2.383268013119826  11.005596583128073   5.342964661067861 1
ion Cu   2.383307827165935  14.448974812687220   8.620666156825846 1
ion Cu   2.383132669089054  19.157226912307070   3.490236925524107 1
ion Cu   2.383231762991446   2.880970486165745   6.930581703451002 1
ion Cu   2.383298447214357   6.345433016355324  10.215805894584346 1
ion Cu   2.383285742750632   9.822480509724745  13.504881546839151 1
ion Cu   2.383435558936995  16.746956817454233  20.055374775130019 1
ion Cu   2.383362597864721  17.913596993281736  11.849807275789438 1
ion Cu   2.383326204130126   1.740017706653455  15.106671923812549 1
ion Cu   2.383332061757737   5.213554100859029  18.362335835773880 1
ion Cu   2.383400924529947   8.652838366257274  21.645657928577052 1
ion Cu   2.383424230658266  12.087435290091705  24.980919488714392 1
ion Cu   2.383313248380305  13.305010578011499  16.769654245516548 1
ion Cu   2.383371475080778   0.516548325912241  23.225717196682822 1
ion Cu   2.383372189083159   4.116880029761402  26.614533408815369 1
ion Cu   2.383197069740298   7.515241332238189   2.002938294423108 1
ion Cu   2.383204924560216  15.475794787854552   0.561243474794419 1
ion-species /projects/musgravc/apps/jdftx-1.6.0/build/pseudopotentials/GBRV_v1.5/$ID_pbe_v1.uspp
ion-species /projects/musgravc/apps/jdftx-1.6.0/build/pseudopotentials/GBRV_v1.5/$ID_pbe_v1.2.uspp
ion-species /projects/musgravc/apps/jdftx-1.6.0/build/pseudopotentials/GBRV_v1.5/$ID_pbe_v1.4.uspp
ion-species /projects/musgravc/apps/jdftx-1.6.0/build/pseudopotentials/GBRV_v1.5/$ID_pbe_v1.5.uspp
ion-width Ecut
ionic-minimize  \
	dirUpdateScheme      L-BFGS \
	linminMethod         DirUpdateRecommended \
	nIterations          100 \
	history              15 \
	knormThreshold       0.0001 \
	energyDiffThreshold  1e-06 \
	nEnergyDiff          2 \
	alphaTstart          1 \
	alphaTmin            1e-10 \
	updateTestStepSize   yes \
	alphaTreduceFactor   0.1 \
	alphaTincreaseFactor 3 \
	nAlphaAdjustMax      3 \
	wolfeEnergy          0.0001 \
	wolfeGradient        0.9 \
	fdTest               no
kpoint   0.000000000000   0.000000000000   0.000000000000  1.00000000000000
kpoint-folding 12 3 1 
latt-move-scale 0 0 0
latt-scale 1 1 1 
lattice  \
	   4.766623000000000   -0.000000000000000    0.000000000000000  \
	   0.000000000000000   19.653292000000000    0.000000000000000  \
	   0.000000000000000    0.000000000000000   83.381855999999999 
lattice-minimize  \
	dirUpdateScheme      L-BFGS \
	linminMethod         DirUpdateRecommended \
	nIterations          0 \
	history              15 \
	knormThreshold       0 \
	energyDiffThreshold  1e-06 \
	nEnergyDiff          2 \
	alphaTstart          1 \
	alphaTmin            1e-10 \
	updateTestStepSize   yes \
	alphaTreduceFactor   0.1 \
	alphaTincreaseFactor 3 \
	nAlphaAdjustMax      3 \
	wolfeEnergy          0.0001 \
	wolfeGradient        0.9 \
	fdTest               no
lcao-params 30 1e-06 0.001
pcm-variant CANDLE
spintype z-spin
subspace-rotation-factor 1 yes
symmetries none
symmetry-threshold 0.0001
target-mu -0.0978 no

van-der-waals D3


Applied RMS atom displacement 0 bohrs to make symmetries exact.

---------- Initializing the Grid ----------
R = 
[      4.76662            0            0  ]
[            0      19.6533            0  ]
[            0            0      83.3819  ]
unit cell volume = 7811.2
G =
[    1.31816          0         -0  ]
[          0   0.319701          0  ]
[          0         -0  0.0753543  ]
Minimum fftbox size, Smin = [  20  80  336  ]
Chosen fftbox size, S = [  20  80  336  ]

---------- Exchange Correlation functional ----------
Initalized PBE GGA exchange.
Initalized PBE GGA correlation.

---------- Setting up pseudopotentials ----------
Width of ionic core gaussian charges (only for fluid interactions / plotting) set to 0.397384

Reading pseudopotential file '/projects/musgravc/apps/jdftx-1.6.0/build/pseudopotentials/GBRV_v1.5/cu_pbe_v1.2.uspp':
  Title: Cu.  Created by USPP 7.3.6 on 3-2-2014
  Reference state energy: -201.059491.  19 valence electrons in orbitals:
    |300>  occupation: 2  eigenvalue: -5.020764
    |310>  occupation: 6  eigenvalue: -3.445588
    |320>  occupation: 8  eigenvalue: -0.925168
    |400>  occupation: 2  eigenvalue: -0.567638
    |410>  occupation: 0  eigenvalue: -0.326154
  lMax: 2  lLocal: 3  QijEcut: 6
  6 projectors sampled on a log grid with 613 points:
    l: 0  eig: -5.020767  rCut: 1.4
    l: 0  eig: -0.567640  rCut: 1.4
    l: 1  eig: -3.445589  rCut: 1.55
    l: 1  eig: -0.326157  rCut: 1.55
    l: 2  eig: -0.925170  rCut: 1.5
    l: 2  eig: 1.500000  rCut: 1.5
  Partial core density with radius 0.8
  Transforming core density to a uniform radial grid of dG=0.02 with 1121 points.
  Transforming local potential to a uniform radial grid of dG=0.02 with 1121 points.
  Transforming nonlocal projectors to a uniform radial grid of dG=0.02 with 432 points.
  Transforming density augmentations to a uniform radial grid of dG=0.02 with 1121 points.
  Transforming atomic orbitals to a uniform radial grid of dG=0.02 with 432 points.
  Core radius for overlap checks: 1.55 bohrs.

Initialized 1 species with 34 total atoms.

Folded 1 k-points by 12x3x1 to 36 k-points.

---------- Setting up k-points, bands, fillings ----------
No reducable k-points. 
Computing the number of bands and number of electrons
Reading initial fillings from file jdft.fillings.
nElectrons: 647.568750   nBands: 388   nStates: 72

----- Setting up reduced wavefunction bases (one per k-point) -----
average nbasis = 33374.861 , ideal nbasis = 33370.035

----- Initializing Supercell corresponding to k-point mesh -----
Lattice vector linear combinations in supercell:
[  12   0   0  ]
[   0   3   0  ]
[   0   0   1  ]
Supercell lattice vectors:
[  57.1995  0  0  ]
[  0  58.9599  0  ]
[  0  0  83.3819  ]

Initializing DFT-D3 calculator:
	Parameters set for gga-PBE functional
	s6:  1.000  s_r6:  1.217
	s8:  0.722  s_r8:  1.000
	Per-atom parameters loaded for:
	Cu:  sqrtQ[a0]:  5.226  Rcov[a0]:  1.909  CN: [ 0.00 0.96 ]

Initializing DFT-D2 calculator for fluid / solvation:
	Cu:  C6:  187.33 Eh-a0^6  R0: 2.952 a0

---------- Setting up ewald sum ----------
Optimum gaussian width for ewald sums = 4.397807 bohr.
Real space sum over 945 unit cells with max indices [  10  4  2  ]
Reciprocal space sum over 7259 terms with max indices [  3  8  30  ]

Computing DFT-D3 correction:
# coordination-number Cu 6.792 9.063 5.602 6.891 9.065 9.177 9.142 8.973 9.168 9.198 9.189 9.061 9.192 9.190 8.997 6.856 7.373 8.991 9.186 7.372 9.054 9.184 9.198 8.976 9.142 9.194 9.183 9.072 6.897 9.172 9.062 6.793 6.849 5.604
# diagonal-C6 Cu 175.00 175.00 175.00 175.00 175.00 175.00 175.00 175.00 175.00 175.00 175.00 175.00 175.00 175.00 175.00 175.00 175.00 175.00 175.00 175.00 175.00 175.00 175.00 175.00 175.00 175.00 175.00 175.00 175.00 175.00 175.00 175.00 175.00 175.00
EvdW_6 =   -0.219406
EvdW_8 =   -0.319056

---------- Allocating electronic variables ----------
Initializing wave functions:  reading from 'jdft.wfns'
----- createFluidSolver() ----- (Fluid-side solver setup)
   Initializing fluid molecule 'H2O'
     Initializing site 'O'
       Electron density: proportional to exp(-r/0.36935)*erfc((r-0.51523)/0.36823) with norm 6.826
       Charge density: gaussian nuclear width 0.478731 with net site charge 0.826
       Polarizability: cuspless exponential with width 0.32 and norm 3.73
       Hard sphere radius: 2.57003 bohrs
       Positions in reference frame:
         [ +0.000000 +0.000000 +0.000000 ]
     Initializing site 'H'
       Electron density: proportional to exp(-r/0.34641)*erfc((r-0)/0.390882) with norm 0.587
       Charge density: gaussian nuclear width 0.377945 with net site charge -0.413
       Polarizability: cuspless exponential with width 0.39 and norm 3.3
       Positions in reference frame:
         [ +0.000000 -1.441945 +1.122523 ]
         [ +0.000000 +1.441945 +1.122523 ]
     Net charge: 0   dipole magnitude: 0.927204
     Initializing spherical shell mfKernel with radius 2.61727 Bohr
     deltaS corrections:
       site 'O': -7.54299
       site 'H': -6.83917
   Initializing fluid molecule 'Na+'
     Initializing site 'Na'
       Electron density: proportional to exp(-r/0.19682)*erfc((r-0.71491)/0.41314) with norm 8.1383
       Charge density: gaussian nuclear width 0.365347 with net site charge -1
       Hard sphere radius: 1.86327 bohrs
       Positions in reference frame:
         [ +0.000000 +0.000000 +0.000000 ]
     Net charge: -1   dipole magnitude: 0
     Initializing gaussian mfKernel with width: 1.55004 Bohr
     deltaS corrections:
       site 'Na': -22.3555
   Initializing fluid molecule 'F-'
     Initializing site 'F'
       Electron density: proportional to exp(-r/0.38886)*erfc((r-0)/0.438782) with norm 8
       Charge density: gaussian nuclear width 0.374796 with net site charge 1
       Hard sphere radius: 2.39995 bohrs
       Positions in reference frame:
         [ +0.000000 +0.000000 +0.000000 ]
     Net charge: 1   dipole magnitude: 0
     Initializing gaussian mfKernel with width: 1.59012 Bohr
     deltaS corrections:
       site 'F': -9.04335

Correction to mu due to finite nuclear width = -0.0820568
   Cavity determined by nc: 0.00142 and sigma: 0.707107
   Nonlocal vdW cavity from gaussian model electron density with norm = 8 and sigma = 0.993594 bohr
   Charge asymmetry in cavity with sensitivity pCavity = 36.5 e-bohr/Eh
   Electrostatic cavity expanded by eta = 1.46 bohrs
   Weighted density cavitation model constrained by Nbulk: 0.0049383 bohr^-3, Pvap: 3.14029 kPa, Rvdw: 2.61727 bohr and sigmaBulk: 4.62e-05 Eh/bohr^2 at T: 298 K.
   Weighted density dispersion model using vdW pair potentials with single solvent site with sqrtC6eff: 0.77 SI.
Reading fluid state from 'jdft.fluidState'


---- Citations for features of the code used in this run ----

   Software package:
      R. Sundararaman, K. Letchworth-Weaver, K.A. Schwarz, D. Gunceler, Y. Ozhabes and T.A. Arias, 'JDFTx: software for joint density-functional theory', SoftwareX 6, 278 (2017)

   gga-PBE exchange-correlation functional:
      J.P. Perdew, K. Burke and M. Ernzerhof, Phys. Rev. Lett. 77, 3865 (1996)

   Pseudopotentials:
      KF Garrity, JW Bennett, KM Rabe and D Vanderbilt, Comput. Mater. Sci. 81, 446 (2014)

   DFT-D3 dispersion correction:
      S. Grimme, J. Antony, S. Ehrlich and H. Krieg, J. Chem. Phys. 132, 154104 (2010)

   DFT-D2 dispersion correction:
      S. Grimme, J. Comput. Chem. 27, 1787 (2006)

   Charge-asymmetric nonlocally-determined local-electric (CANDLE) solvation model:
      R. Sundararaman and W.A. Goddard III, J. Chem. Phys. 142, 064107 (2015)

   Total energy minimization with Auxiliary Hamiltonian:
      C. Freysoldt, S. Boeck, and J. Neugebauer, Phys. Rev. B 79, 241103(R) (2009)

   Grand-canonical (fixed-potential) DFT:
      R. Sundararaman, W. A. Goddard III and T. A. Arias, J. Chem. Phys. 146, 114104 (2017)

   Linear-tetrahedron sampling for density of states:
      G. Lehmann and M. Taut, Phys. status solidi (b) 54, 469 (1972)

This list may not be complete. Please suggest additional citations or
report any other bugs at https://github.com/shankar1729/jdftx/issues

Initialization completed successfully at t[s]:     39.88


Computing DFT-D3 correction:
# coordination-number Cu 6.792 9.063 5.602 6.891 9.065 9.177 9.142 8.973 9.168 9.198 9.189 9.061 9.192 9.190 8.997 6.856 7.373 8.991 9.186 7.372 9.054 9.184 9.198 8.976 9.142 9.194 9.183 9.072 6.897 9.172 9.062 6.793 6.849 5.604
# diagonal-C6 Cu 175.00 175.00 175.00 175.00 175.00 175.00 175.00 175.00 175.00 175.00 175.00 175.00 175.00 175.00 175.00 175.00 175.00 175.00 175.00 175.00 175.00 175.00 175.00 175.00 175.00 175.00 175.00 175.00 175.00 175.00 175.00 175.00 175.00 175.00
EvdW_6 =   -0.219406
EvdW_8 =   -0.319056
Shifting auxilliary hamiltonian by -0.000022 to set nElectrons=647.568750

-------- Electronic minimization -----------
	Linear fluid (dielectric constant: 78.4, screening length: 8.12261 Bohr) occupying 0.599980 of unit cell:	Completed after 13 iterations at t[s]:     62.38
	FillingsUpdate:  mu: -0.097800000  nElectrons: 647.568750  magneticMoment: [ Abs: 0.00000  Tot: +0.00000 ]
ElecMinimize: Iter:   0  G: -6799.919292501252130  |grad|_K:  3.719e-07  alpha:  1.000e+00
	Linear fluid (dielectric constant: 78.4, screening length: 8.12261 Bohr) occupying 0.603169 of unit cell:	Completed after 31 iterations at t[s]:    248.16
	Linear fluid (dielectric constant: 78.4, screening length: 8.12261 Bohr) occupying 0.600012 of unit cell:	Completed after 31 iterations at t[s]:    307.63
	FillingsUpdate:  mu: -0.097800000  nElectrons: 647.570696  magneticMoment: [ Abs: 0.00000  Tot: +0.00000 ]
	SubspaceRotationAdjust: set factor to 0.543
ElecMinimize: Iter:   1  G: -6799.919293577861936  |grad|_K:  1.290e-07  alpha:  8.266e-03  linmin:  2.059e-04  t[s]:    391.42
	Linear fluid (dielectric constant: 78.4, screening length: 8.12261 Bohr) occupying 0.600007 of unit cell:	Completed after 2 iterations at t[s]:    470.63
ElecMinimize: 	Predicted alpha/alphaT>3.000000, increasing alphaT to 2.479789e-02.
	Linear fluid (dielectric constant: 78.4, screening length: 8.12261 Bohr) occupying 0.599999 of unit cell:	Completed after 9 iterations at t[s]:    526.60
	Linear fluid (dielectric constant: 78.4, screening length: 8.12261 Bohr) occupying 0.599994 of unit cell:	Completed after 3 iterations at t[s]:    582.23
	FillingsUpdate:  mu: -0.097800000  nElectrons: 647.569608  magneticMoment: [ Abs: 0.00000  Tot: +0.00000 ]
	SubspaceRotationAdjust: set factor to 0.397
ElecMinimize: Iter:   2  G: -6799.919294090848780  |grad|_K:  2.842e-08  alpha:  3.296e-02  linmin: -7.708e-04  t[s]:    665.96
	Linear fluid (dielectric constant: 78.4, screening length: 8.12261 Bohr) occupying 0.599992 of unit cell:	Completed after 2 iterations at t[s]:    744.71
	Linear fluid (dielectric constant: 78.4, screening length: 8.12261 Bohr) occupying 0.599988 of unit cell:	Completed after 3 iterations at t[s]:    799.85
	FillingsUpdate:  mu: -0.097800000  nElectrons: 647.569214  magneticMoment: [ Abs: 0.00000  Tot: +0.00000 ]
	SubspaceRotationAdjust: set factor to 0.624
ElecMinimize: Iter:   3  G: -6799.919294154666204  |grad|_K:  1.261e-08  alpha:  8.246e-02  linmin: -9.654e-04  t[s]:    883.11
	Linear fluid (dielectric constant: 78.4, screening length: 8.12261 Bohr) occupying 0.599990 of unit cell:	Completed after 2 iterations at t[s]:    962.69
	Linear fluid (dielectric constant: 78.4, screening length: 8.12261 Bohr) occupying 0.599989 of unit cell:	Completed after 0 iterations at t[s]:   1017.18
	FillingsUpdate:  mu: -0.097800000  nElectrons: 647.569269  magneticMoment: [ Abs: 0.00000  Tot: +0.00000 ]
	SubspaceRotationAdjust: set factor to 0.359
ElecMinimize: Iter:   4  G: -6799.919294165828433  |grad|_K:  1.561e-08  alpha:  6.277e-02  linmin:  9.750e-05  t[s]:   1100.28
ElecMinimize: Converged (|Delta G|<1.000000e-07 for 2 iters).
Setting wave functions to eigenvectors of Hamiltonian
Converging empty states (this may take a while): |deigs|: 2.693e-09

Computing DFT-D3 correction:
# coordination-number Cu 6.792 9.063 5.602 6.891 9.065 9.177 9.142 8.973 9.168 9.198 9.189 9.061 9.192 9.190 8.997 6.856 7.373 8.991 9.186 7.372 9.054 9.184 9.198 8.976 9.142 9.194 9.183 9.072 6.897 9.172 9.062 6.793 6.849 5.604
# diagonal-C6 Cu 175.00 175.00 175.00 175.00 175.00 175.00 175.00 175.00 175.00 175.00 175.00 175.00 175.00 175.00 175.00 175.00 175.00 175.00 175.00 175.00 175.00 175.00 175.00 175.00 175.00 175.00 175.00 175.00 175.00 175.00 175.00 175.00 175.00 175.00
EvdW_6 =   -0.219406
EvdW_8 =   -0.319056

# Ionic positions in cartesian coordinates:
ion Cu  -0.000009624473019  11.491269571304899   1.177698640172767 1
ion Cu  -0.000111324382361  15.089576751044474   4.567149347703624 1
ion Cu   0.000054519682847   0.130671109795431  27.230997206167082 1
ion Cu  -0.000117376602465   3.516609927874870   2.810106022328031 1
ion Cu  -0.000103760786045   6.952456671647801   6.147445797543896 1
ion Cu  -0.000013483488243  10.392589412914933   9.432373404719238 1
ion Cu   0.000003492000937  17.347893290243135  15.945655697735369 1
ion Cu  -0.000085233881308  18.512772598461360   7.738031825241698 1
ion Cu   0.000006261125432   2.300829308604745  11.025583467448280 1
ion Cu   0.000009582901803   5.785493529287277  14.291497146760324 1
ion Cu  -0.000010977794500   9.262888198021860  17.580402600718955 1
ion Cu   0.000117090380281  12.727233801658283  20.863549384052572 1
ion Cu  -0.000008791889159  13.867368217185224  12.688927640408618 1
ion Cu   0.000005393567018   1.159967164426779  19.174720182828754 1
ion Cu   0.000044364212774   4.603241162497481  22.451303040742495 1
ion Cu   0.000110093083796   8.092137476760902  25.789776556512855 1
ion Cu   0.000131829288403  16.101757159526930  24.302003302593416 1
ion Cu   2.383268013119826  11.005596583128073   5.342964661067861 1
ion Cu   2.383307827165935  14.448974812687220   8.620666156825846 1
ion Cu   2.383132669089054  19.157226912307070   3.490236925524107 1
ion Cu   2.383231762991446   2.880970486165745   6.930581703451002 1
ion Cu   2.383298447214357   6.345433016355324  10.215805894584346 1
ion Cu   2.383285742750632   9.822480509724745  13.504881546839151 1
ion Cu   2.383435558936995  16.746956817454233  20.055374775130019 1
ion Cu   2.383362597864721  17.913596993281736  11.849807275789438 1
ion Cu   2.383326204130126   1.740017706653455  15.106671923812549 1
ion Cu   2.383332061757737   5.213554100859029  18.362335835773880 1
ion Cu   2.383400924529947   8.652838366257274  21.645657928577052 1
ion Cu   2.383424230658266  12.087435290091705  24.980919488714392 1
ion Cu   2.383313248380305  13.305010578011499  16.769654245516548 1
ion Cu   2.383371475080778   0.516548325912241  23.225717196682822 1
ion Cu   2.383372189083159   4.116880029761402  26.614533408815369 1
ion Cu   2.383197069740298   7.515241332238189   2.002938294423108 1
ion Cu   2.383204924560216  15.475794787854552   0.561243474794419 1

# Forces in Cartesian coordinates:
force Cu  -0.000003621897590  -0.000069793844120   0.000171657417087 1
force Cu   0.000000594544631  -0.000104887279030   0.000034294385894 1
force Cu   0.000001104733120   0.000077870458442   0.000615452118556 1
force Cu  -0.000002705496090  -0.000158055435350  -0.000408028972630 1
force Cu   0.000000330199620   0.000173663377888   0.000109270416727 1
force Cu   0.000000587375852   0.000072545775515  -0.000106649031300 1
force Cu   0.000001023589161  -0.000134083996403   0.000016021115432 1
force Cu  -0.000000554182681   0.000078245086221  -0.000039819278948 1
force Cu   0.000000079051181   0.000047918384415  -0.000236366775809 1
force Cu   0.000000471155917  -0.000026182720099  -0.000295738347129 1
force Cu   0.000001002372581  -0.000076929738146   0.000200079959727 1
force Cu  -0.000002418798870  -0.000271592161821   0.000200290566443 1
force Cu   0.000000019586821   0.000019309722393   0.000356280166482 1
force Cu   0.000001357754509  -0.000166276632911  -0.000101960088988 1
force Cu   0.000000773112617  -0.000071909982279  -0.000321269556250 1
force Cu   0.000002232552783   0.000255568865907   0.000052367975795 1
force Cu   0.000000394428357   0.000271484410708  -0.000084349930847 1
force Cu  -0.000000796308067   0.000070853427554   0.000293711222834 1
force Cu  -0.000001035510901   0.000158521323429   0.000081980985375 1
force Cu   0.000001906638419  -0.000237519241753   0.000136449923244 1
force Cu  -0.000000536838121   0.000271200912446  -0.000202662196441 1
force Cu  -0.000000932367717   0.000074413281779  -0.000252551213414 1
force Cu  -0.000000319660670   0.000026854870637   0.000246514987969 1
force Cu   0.000000970291737  -0.000075379540879   0.000028376812424 1
force Cu  -0.000000383119369   0.000147284100367  -0.000045737937191 1
force Cu   0.000000281729651  -0.000055114485850  -0.000416524167108 1
force Cu   0.000000357675256  -0.000073513371463   0.000084736059310 1
force Cu  -0.000000011078024  -0.000172221343100  -0.000116974975397 1
force Cu   0.000001466700474   0.000175609252111   0.000466120291438 1
force Cu   0.000000765312309  -0.000038282485800   0.000193281749793 1
force Cu   0.000001095940362   0.000070358559027  -0.000041858988459 1
force Cu   0.000000338434184   0.000137288302168  -0.000146891446278 1
force Cu  -0.000000052936240  -0.000236035121403  -0.000002567027179 1
force Cu  -0.000005106848210  -0.000009710783511  -0.000596897910996 1

# Energy components:
   A_diel =       -0.5446074469238993
   Eewald =    82376.3389061390043935
       EH =    88814.2210535211052047
     Eloc =  -179340.8768550946551841
      Enl =     1245.0892827592531376
     EvdW =       -0.5384627182757205
      Exc =     -660.1921009383128194
 Exc_core =        1.5969493881921306
       KE =      701.7842119643545402
  MuShift =       -0.1287691495174771
-------------------------------------
     Etot =    -6863.2503915757879440
       TS =        0.0011770933565848
-------------------------------------
        F =    -6863.2515686691449446
      muN =      -63.3322745033162988
-------------------------------------
        G =    -6799.9192941658284326


Dumping 'jdft.fillings' ... done
Dumping 'jdft.wfns' ... done
Dumping 'jdft.fluidState' ... done
Dumping 'jdft.ionpos' ... done
Dumping 'jdft.lattice' ... done
Dumping 'jdft.eigenvals' ... done
Dumping 'jdft.eigStats' ... 
	eMin: -4.236966 at state 0 ( [ +0.000000 +0.000000 +0.000000 ] spin 1 )
	HOMO: -0.097978 at state 42 ( [ +0.166667 +0.000000 +0.000000 ] spin -1 )
	mu  : -0.097800
	LUMO: -0.097671 at state 69 ( [ -0.083333 +0.000000 +0.000000 ] spin -1 )
	eMax: +0.242251 at state 18 ( [ +0.500000 +0.000000 +0.000000 ] spin 1 )
	HOMO-LUMO gap: +0.000307
	Optical gap  : +0.001320 at state 42 ( [ +0.166667 +0.000000 +0.000000 ] spin -1 )
Dumping 'jdft.Ecomponents' ... done
IonicMinimize: Iter:   0  G: -6799.919294165828433  |grad|_K:  1.683e-04  t[s]:   1328.41

#--- Lowdin population analysis ---
# oxidation-state Cu -0.077 +0.045 -0.044 -0.030 +0.067 +0.073 +0.077 +0.074 +0.075 +0.077 +0.073 +0.068 +0.077 +0.073 +0.070 -0.043 +0.020 +0.070 +0.073 +0.019 +0.068 +0.073 +0.077 +0.074 +0.077 +0.077 +0.073 +0.067 -0.029 +0.075 +0.045 -0.077 -0.043 -0.044
# magnetic-moments Cu -0.000 +0.000 +0.000 -0.000 -0.000 +0.000 +0.000 +0.000 +0.000 +0.000 +0.000 +0.000 -0.000 -0.000 +0.000 -0.000 -0.000 -0.000 +0.000 -0.000 +0.000 -0.000 +0.000 -0.000 +0.000 +0.000 -0.000 +0.000 +0.000 +0.000 +0.000 +0.000 -0.000 +0.000


Computing DFT-D3 correction:
# coordination-number Cu 6.792 9.062 5.601 6.890 9.065 9.177 9.142 8.973 9.168 9.197 9.190 9.060 9.191 9.190 8.997 6.855 7.373 8.991 9.186 7.372 9.054 9.185 9.198 8.977 9.142 9.194 9.183 9.073 6.897 9.172 9.062 6.792 6.849 5.602
# diagonal-C6 Cu 175.00 175.00 175.00 175.00 175.00 175.00 175.00 175.00 175.00 175.00 175.00 175.00 175.00 175.00 175.00 175.00 175.00 175.00 175.00 175.00 175.00 175.00 175.00 175.00 175.00 175.00 175.00 175.00 175.00 175.00 175.00 175.00 175.00 175.00
EvdW_6 =   -0.219406
EvdW_8 =   -0.319054
Shifting auxilliary hamiltonian by -0.000037 to set nElectrons=647.569269

-------- Electronic minimization -----------
	Linear fluid (dielectric constant: 78.4, screening length: 8.12261 Bohr) occupying 0.599977 of unit cell:	Completed after 13 iterations at t[s]:   1414.96
	FillingsUpdate:  mu: -0.097800000  nElectrons: 647.569269  magneticMoment: [ Abs: 0.00000  Tot: +0.00000 ]
ElecMinimize: Iter:   0  G: -6799.919294696854195  |grad|_K:  2.115e-07  alpha:  1.000e+00
	Linear fluid (dielectric constant: 78.4, screening length: 8.12261 Bohr) occupying 0.601208 of unit cell:	Completed after 28 iterations at t[s]:   1595.79
	Linear fluid (dielectric constant: 78.4, screening length: 8.12261 Bohr) occupying 0.600006 of unit cell:	Completed after 28 iterations at t[s]:   1655.35
	FillingsUpdate:  mu: -0.097800000  nElectrons: 647.571026  magneticMoment: [ Abs: 0.00000  Tot: +0.00000 ]
	SubspaceRotationAdjust: set factor to 0.239
ElecMinimize: Iter:   1  G: -6799.919295608184257  |grad|_K:  7.174e-08  alpha:  2.206e-02  linmin:  3.900e-04  t[s]:   1738.81
	Linear fluid (dielectric constant: 78.4, screening length: 8.12261 Bohr) occupying 0.600002 of unit cell:	Completed after 2 iterations at t[s]:   1817.85
ElecMinimize: 	Predicted alpha/alphaT>3.000000, increasing alphaT to 6.617798e-02.
	Linear fluid (dielectric constant: 78.4, screening length: 8.12261 Bohr) occupying 0.599993 of unit cell:	Completed after 9 iterations at t[s]:   1874.98
	Linear fluid (dielectric constant: 78.4, screening length: 8.12261 Bohr) occupying 0.599986 of unit cell:	Completed after 6 iterations at t[s]:   1930.93
	FillingsUpdate:  mu: -0.097800000  nElectrons: 647.569782  magneticMoment: [ Abs: 0.00000  Tot: +0.00000 ]
	SubspaceRotationAdjust: set factor to 0.247
ElecMinimize: Iter:   2  G: -6799.919296112911070  |grad|_K:  3.724e-08  alpha:  1.060e-01  linmin: -4.240e-05  t[s]:   2014.27
	Linear fluid (dielectric constant: 78.4, screening length: 8.12261 Bohr) occupying 0.599980 of unit cell:	Completed after 6 iterations at t[s]:   2093.38
	Linear fluid (dielectric constant: 78.4, screening length: 8.12261 Bohr) occupying 0.599978 of unit cell:	Completed after 2 iterations at t[s]:   2149.33
	FillingsUpdate:  mu: -0.097800000  nElectrons: 647.569281  magneticMoment: [ Abs: 0.00000  Tot: +0.00000 ]
	SubspaceRotationAdjust: set factor to 0.309
ElecMinimize: Iter:   3  G: -6799.919296282760115  |grad|_K:  2.530e-08  alpha:  1.282e-01  linmin: -1.809e-03  t[s]:   2232.56
	Linear fluid (dielectric constant: 78.4, screening length: 8.12261 Bohr) occupying 0.599983 of unit cell:	Completed after 6 iterations at t[s]:   2311.51
	Linear fluid (dielectric constant: 78.4, screening length: 8.12261 Bohr) occupying 0.599984 of unit cell:	Completed after 0 iterations at t[s]:   2366.67
	FillingsUpdate:  mu: -0.097800000  nElectrons: 647.569601  magneticMoment: [ Abs: 0.00000  Tot: +0.00000 ]
	SubspaceRotationAdjust: set factor to 0.2
ElecMinimize: Iter:   4  G: -6799.919296369427684  |grad|_K:  3.170e-08  alpha:  1.340e-01  linmin: -5.381e-04  t[s]:   2451.01
	Linear fluid (dielectric constant: 78.4, screening length: 8.12261 Bohr) occupying 0.599972 of unit cell:	Completed after 10 iterations at t[s]:   2530.36
	Linear fluid (dielectric constant: 78.4, screening length: 8.12261 Bohr) occupying 0.599976 of unit cell:	Completed after 3 iterations at t[s]:   2585.89
	FillingsUpdate:  mu: -0.097800000  nElectrons: 647.569106  magneticMoment: [ Abs: 0.00000  Tot: +0.00000 ]
	SubspaceRotationAdjust: set factor to 0.131
ElecMinimize: Iter:   5  G: -6799.919296459428551  |grad|_K:  2.365e-08  alpha:  8.722e-02  linmin:  1.120e-03  t[s]:   2669.23
ElecMinimize: Converged (|Delta G|<1.000000e-07 for 2 iters).
Setting wave functions to eigenvectors of Hamiltonian
Converging empty states (this may take a while): |deigs|: 6.330e-09

Computing DFT-D3 correction:
# coordination-number Cu 6.792 9.062 5.601 6.890 9.065 9.177 9.142 8.973 9.168 9.197 9.190 9.060 9.191 9.190 8.997 6.855 7.373 8.991 9.186 7.372 9.054 9.185 9.198 8.977 9.142 9.194 9.183 9.073 6.897 9.172 9.062 6.792 6.849 5.602
# diagonal-C6 Cu 175.00 175.00 175.00 175.00 175.00 175.00 175.00 175.00 175.00 175.00 175.00 175.00 175.00 175.00 175.00 175.00 175.00 175.00 175.00 175.00 175.00 175.00 175.00 175.00 175.00 175.00 175.00 175.00 175.00 175.00 175.00 175.00 175.00 175.00
EvdW_6 =   -0.219406
EvdW_8 =   -0.319054
IonicMinimize: 	Wolfe criterion not satisfied: alpha: 1  (E-E0)/|gdotd0|: -0.794277  gdotd/gdotd0: 0.901811 (taking cubic step)

Computing DFT-D3 correction:
# coordination-number Cu 6.791 9.062 5.599 6.889 9.066 9.177 9.142 8.973 9.169 9.196 9.190 9.059 9.191 9.189 8.998 6.855 7.373 8.992 9.186 7.372 9.053 9.185 9.197 8.977 9.142 9.193 9.183 9.073 6.895 9.173 9.061 6.792 6.848 5.600
# diagonal-C6 Cu 175.00 175.00 175.00 175.00 175.00 175.00 175.00 175.00 175.00 175.00 175.00 175.00 175.00 175.00 175.00 175.00 175.00 175.00 175.00 175.00 175.00 175.00 175.00 175.00 175.00 175.00 175.00 175.00 175.00 175.00 175.00 175.00 175.00 175.00
EvdW_6 =   -0.219404
EvdW_8 =   -0.319049
Shifting auxilliary hamiltonian by 0.000068 to set nElectrons=647.569106

-------- Electronic minimization -----------
	Linear fluid (dielectric constant: 78.4, screening length: 8.12261 Bohr) occupying 0.599980 of unit cell:	Completed after 16 iterations at t[s]:   2981.54
	FillingsUpdate:  mu: -0.097800000  nElectrons: 647.569106  magneticMoment: [ Abs: 0.00000  Tot: +0.00000 ]
ElecMinimize: Iter:   0  G: -6799.919282710142397  |grad|_K:  3.247e-07  alpha:  1.000e+00
	Linear fluid (dielectric constant: 78.4, screening length: 8.12261 Bohr) occupying 0.599459 of unit cell:	Completed after 27 iterations at t[s]:   3162.20
	Linear fluid (dielectric constant: 78.4, screening length: 8.12261 Bohr) occupying 0.599921 of unit cell:	Completed after 27 iterations at t[s]:   3221.96
	FillingsUpdate:  mu: -0.097800000  nElectrons: 647.565497  magneticMoment: [ Abs: 0.00000  Tot: +0.00000 ]
	SubspaceRotationAdjust: set factor to 0.103
ElecMinimize: Iter:   1  G: -6799.919294736259872  |grad|_K:  2.116e-07  alpha:  1.188e-01  linmin: -4.648e-04  t[s]:   3304.77
	Linear fluid (dielectric constant: 78.4, screening length: 8.12261 Bohr) occupying 0.599972 of unit cell:	Completed after 17 iterations at t[s]:   3385.94
	Linear fluid (dielectric constant: 78.4, screening length: 8.12261 Bohr) occupying 0.599961 of unit cell:	Completed after 11 iterations at t[s]:   3442.40
	FillingsUpdate:  mu: -0.097800000  nElectrons: 647.567959  magneticMoment: [ Abs: 0.00000  Tot: +0.00000 ]
	SubspaceRotationAdjust: set factor to 0.0532
ElecMinimize: Iter:   2  G: -6799.919298732223069  |grad|_K:  7.566e-08  alpha:  9.378e-02  linmin:  2.316e-06  t[s]:   3526.07
	Linear fluid (dielectric constant: 78.4, screening length: 8.12261 Bohr) occupying 0.599953 of unit cell:	Completed after 10 iterations at t[s]:   3605.76
	Linear fluid (dielectric constant: 78.4, screening length: 8.12261 Bohr) occupying 0.599951 of unit cell:	Completed after 2 iterations at t[s]:   3661.06
	FillingsUpdate:  mu: -0.097800000  nElectrons: 647.567338  magneticMoment: [ Abs: 0.00000  Tot: +0.00000 ]
	SubspaceRotationAdjust: set factor to 0.0565
ElecMinimize: Iter:   3  G: -6799.919299334098469  |grad|_K:  4.736e-08  alpha:  1.118e-01  linmin: -7.155e-04  t[s]:   3745.00
	Linear fluid (dielectric constant: 78.4, screening length: 8.12261 Bohr) occupying 0.599948 of unit cell:	Completed after 6 iterations at t[s]:   3823.97
	Linear fluid (dielectric constant: 78.4, screening length: 8.12261 Bohr) occupying 0.599945 of unit cell:	Completed after 6 iterations at t[s]:   3879.92
	FillingsUpdate:  mu: -0.097800000  nElectrons: 647.566992  magneticMoment: [ Abs: 0.00000  Tot: +0.00000 ]
	SubspaceRotationAdjust: set factor to 0.0618
ElecMinimize: Iter:   4  G: -6799.919299765378128  |grad|_K:  3.740e-08  alpha:  1.965e-01  linmin: -1.251e-03  t[s]:   3963.55
	Linear fluid (dielectric constant: 78.4, screening length: 8.12261 Bohr) occupying 0.599953 of unit cell:	Completed after 6 iterations at t[s]:   4043.52
	Linear fluid (dielectric constant: 78.4, screening length: 8.12261 Bohr) occupying 0.599955 of unit cell:	Completed after 4 iterations at t[s]:   4098.94
	FillingsUpdate:  mu: -0.097800000  nElectrons: 647.567644  magneticMoment: [ Abs: 0.00000  Tot: +0.00000 ]
	SubspaceRotationAdjust: set factor to 0.0622
ElecMinimize: Iter:   5  G: -6799.919300110203039  |grad|_K:  3.183e-08  alpha:  2.567e-01  linmin:  4.694e-04  t[s]:   4182.66
	Linear fluid (dielectric constant: 78.4, screening length: 8.12261 Bohr) occupying 0.599961 of unit cell:	Completed after 8 iterations at t[s]:   4263.27
	Linear fluid (dielectric constant: 78.4, screening length: 8.12261 Bohr) occupying 0.599958 of unit cell:	Completed after 2 iterations at t[s]:   4318.21
	FillingsUpdate:  mu: -0.097800000  nElectrons: 647.567842  magneticMoment: [ Abs: 0.00000  Tot: +0.00000 ]
	SubspaceRotationAdjust: set factor to 0.071
ElecMinimize: Iter:   6  G: -6799.919300232852038  |grad|_K:  2.301e-08  alpha:  1.368e-01  linmin:  2.130e-05  t[s]:   4402.00
	Linear fluid (dielectric constant: 78.4, screening length: 8.12261 Bohr) occupying 0.599955 of unit cell:	Completed after 5 iterations at t[s]:   4481.27
	Linear fluid (dielectric constant: 78.4, screening length: 8.12261 Bohr) occupying 0.599954 of unit cell:	Completed after 0 iterations at t[s]:   4536.15
	FillingsUpdate:  mu: -0.097800000  nElectrons: 647.567596  magneticMoment: [ Abs: 0.00000  Tot: +0.00000 ]
	SubspaceRotationAdjust: set factor to 0.0838
ElecMinimize: Iter:   7  G: -6799.919300328479039  |grad|_K:  1.988e-08  alpha:  1.831e-01  linmin: -2.931e-03  t[s]:   4620.22
	Linear fluid (dielectric constant: 78.4, screening length: 8.12261 Bohr) occupying 0.599951 of unit cell:	Completed after 8 iterations at t[s]:   4699.74
	Linear fluid (dielectric constant: 78.4, screening length: 8.12261 Bohr) occupying 0.599952 of unit cell:	Completed after 0 iterations at t[s]:   4754.65
	FillingsUpdate:  mu: -0.097800000  nElectrons: 647.567494  magneticMoment: [ Abs: 0.00000  Tot: +0.00000 ]
	SubspaceRotationAdjust: set factor to 0.0596
ElecMinimize: Iter:   8  G: -6799.919300384333837  |grad|_K:  2.940e-08  alpha:  1.376e-01  linmin: -8.273e-04  t[s]:   4839.04
ElecMinimize: Converged (|Delta G|<1.000000e-07 for 2 iters).
Setting wave functions to eigenvectors of Hamiltonian
Converging empty states (this may take a while): |deigs|: 1.093e-08

Computing DFT-D3 correction:
# coordination-number Cu 6.791 9.062 5.599 6.889 9.066 9.177 9.142 8.973 9.169 9.196 9.190 9.059 9.191 9.189 8.998 6.855 7.373 8.992 9.186 7.372 9.053 9.185 9.197 8.977 9.142 9.193 9.183 9.073 6.895 9.173 9.061 6.792 6.848 5.600
# diagonal-C6 Cu 175.00 175.00 175.00 175.00 175.00 175.00 175.00 175.00 175.00 175.00 175.00 175.00 175.00 175.00 175.00 175.00 175.00 175.00 175.00 175.00 175.00 175.00 175.00 175.00 175.00 175.00 175.00 175.00 175.00 175.00 175.00 175.00 175.00 175.00
EvdW_6 =   -0.219404
EvdW_8 =   -0.319049

# Ionic positions in cartesian coordinates:
ion Cu  -0.000020373530817  11.491046821953679   1.178225079631954 1
ion Cu  -0.000109424113498  15.089248721388524   4.567263698069234 1
ion Cu   0.000057950517177   0.130891353351895  27.232855029730672 1
ion Cu  -0.000125376455763   3.516122393749960   2.808893402618066 1
ion Cu  -0.000102653552215   6.952964293962606   6.147785076002005 1
ion Cu  -0.000011604725717  10.392793682422617   9.432064924833265 1
ion Cu   0.000006679403392  17.347477670435069  15.945715228289592 1
ion Cu  -0.000086779794378  18.512993965901163   7.737923834612782 1
ion Cu   0.000006614913946   2.300959695939129  11.024885834328780 1
ion Cu   0.000011113004526   5.785401613308119  14.290621398926866 1
ion Cu  -0.000007854041785   9.262644040988562  17.581014307806061 1
ion Cu   0.000109950618643  12.726405657353959  20.864161722959828 1
ion Cu  -0.000008616493725  13.867412778533540  12.690007948115991 1
ion Cu   0.000009583465515   1.159454966709185  19.174425769769716 1
ion Cu   0.000046800185595   4.603012064731783  22.450350699281667 1
ion Cu   0.000116907377117   8.092890815539761  25.789945127648167 1
ion Cu   0.000133129208444  16.102558244940191  24.301761720008798 1
ion Cu   2.383265740830595  11.005795775591871   5.343857261944289 1
ion Cu   2.383304837268204  14.449437008838645   8.620923566989898 1
ion Cu   2.383138505639281  19.156500986762950   3.490657742501764 1
ion Cu   2.383230269112056   2.881770721084223   6.929985184069605 1
ion Cu   2.383295766746178   6.345642888381800  10.215059708152030 1
ion Cu   2.383284900403593   9.822547706517796  13.505632559010984 1
ion Cu   2.383438586447177  16.746717311012734  20.055471372775219 1
ion Cu   2.383361565141586  17.914025477763975  11.849681529185789 1
ion Cu   2.383327165954050   1.739838995377044  15.105433818519153 1
ion Cu   2.383333251418476   5.213320192925781  18.362601511159738 1
ion Cu   2.383401007930846   8.652308334409113  21.645318470858786 1
ion Cu   2.383428747394660  12.087948750029177  24.982329316796633 1
ion Cu   2.383315660952203  13.304882362735238  16.770245557973855 1
ion Cu   2.383374879536836   0.516746033770462  23.225603086925375 1
ion Cu   2.383373321020683   4.117278526849048  26.614104201684459 1
ion Cu   2.383197027566551   7.514519859055120   2.002942060549497 1
ion Cu   2.383189720650556  15.475752287685157   0.559464248269358 1

# Forces in Cartesian coordinates:
force Cu  -0.000003295336313  -0.000069302130276   0.000060280408019 1
force Cu   0.000000520326151  -0.000056756232262  -0.000393438382927 1
force Cu   0.000000891869591   0.000038638961702   0.000552881863069 1
force Cu  -0.000002434819104  -0.000118812492893  -0.000667121199139 1
force Cu   0.000000270044707   0.000164436836347  -0.000308096907368 1
force Cu   0.000000469029068   0.000049666315165  -0.000113334455177 1
force Cu   0.000000900489435  -0.000075249907035   0.000372676312920 1
force Cu  -0.000000493948784   0.000127500578361  -0.000215969165971 1
force Cu   0.000000089714673   0.000007461857479  -0.000425217840581 1
force Cu   0.000000408277052   0.000011122472523  -0.000055884064882 1
force Cu   0.000001010513718  -0.000117343129747   0.000397981682367 1
force Cu  -0.000002311310468  -0.000185208648891   0.000483402059091 1
force Cu  -0.000000090585532  -0.000012214042043   0.000141943003713 1
force Cu   0.000001106893123  -0.000183639541945   0.000045728125773 1
force Cu   0.000000505259132   0.000001506222234   0.000131240841918 1
force Cu   0.000001704356819   0.000249464934442   0.000109509515273 1
force Cu   0.000000473446423   0.000310689417205   0.000148514347419 1
force Cu  -0.000000592578104  -0.000004327070632  -0.000127183040019 1
force Cu  -0.000000891661727   0.000207431088882   0.000001481526453 1
force Cu   0.000002143737228  -0.000242468988174  -0.000189088325589 1
force Cu  -0.000000479242985   0.000202653419078  -0.000464810706012 1
force Cu  -0.000000638826650   0.000125376665641  -0.000334909780953 1
force Cu  -0.000000222089281  -0.000010434674529   0.000166041126014 1
force Cu   0.000000749588903  -0.000144198749620   0.000267367460627 1
force Cu  -0.000000106260273   0.000077475750018  -0.000261403485463 1
force Cu   0.000000470761204  -0.000011588885795  -0.000033469762012 1
force Cu   0.000000369130140  -0.000068460388367   0.000199580316729 1
force Cu  -0.000000044741396  -0.000178343772923   0.000342237535521 1
force Cu   0.000001434372277   0.000095511074366   0.000586120986816 1
force Cu   0.000000664242108   0.000005821886570   0.000515669946902 1
force Cu   0.000001003847613   0.000041590200969   0.000400455636693 1
force Cu   0.000000347990267   0.000098821996292  -0.000154665510544 1
force Cu  -0.000000147074709  -0.000249592687468  -0.000201919219925 1
force Cu  -0.000004381948472   0.000050651421855  -0.000682014271137 1

# Energy components:
   A_diel =       -0.5437193143098292
   Eewald =    82374.3210443581629079
       EH =    88811.9523774592380505
     Eloc =  -179336.5920137160574086
      Enl =     1245.0916179274399838
     EvdW =       -0.5384532344560853
      Exc =     -660.1915566708985352
 Exc_core =        1.5969486917497320
       KE =      701.7821548666652234
  MuShift =       -0.1286234831691582
-------------------------------------
     Etot =    -6863.2502231156549897
       TS =        0.0011781584357114
-------------------------------------
        F =    -6863.2514012740903127
      muN =      -63.3321008897563544
-------------------------------------
        G =    -6799.9193003843338374


Dumping 'jdft.fillings' ... done
Dumping 'jdft.wfns' ... done
Dumping 'jdft.fluidState' ... done
Dumping 'jdft.ionpos' ... done
Dumping 'jdft.lattice' ... done
Dumping 'jdft.eigenvals' ... done
Dumping 'jdft.eigStats' ... 
	eMin: -4.237279 at state 36 ( [ +0.000000 +0.000000 +0.000000 ] spin -1 )
	HOMO: -0.098163 at state 66 ( [ -0.166667 +0.000000 +0.000000 ] spin -1 )
	mu  : -0.097800
	LUMO: -0.097877 at state 3 ( [ +0.083333 +0.000000 +0.000000 ] spin 1 )
	eMax: +0.242165 at state 18 ( [ +0.500000 +0.000000 +0.000000 ] spin 1 )
	HOMO-LUMO gap: +0.000286
	Optical gap  : +0.001312 at state 66 ( [ -0.166667 +0.000000 +0.000000 ] spin -1 )
Dumping 'jdft.Ecomponents' ... done
IonicMinimize: Iter:   1  G: -6799.919300384333837  |grad|_K:  2.095e-04  alpha:  3.000e+00  linmin: -6.877e-01  t[s]:   5067.38

#--- Lowdin population analysis ---
# oxidation-state Cu -0.076 +0.045 -0.042 -0.028 +0.067 +0.072 +0.076 +0.074 +0.074 +0.076 +0.073 +0.068 +0.076 +0.073 +0.070 -0.042 +0.020 +0.070 +0.073 +0.020 +0.068 +0.073 +0.076 +0.074 +0.076 +0.076 +0.072 +0.067 -0.029 +0.074 +0.045 -0.076 -0.042 -0.042
# magnetic-moments Cu +0.000 -0.000 +0.000 -0.000 -0.000 -0.000 -0.000 +0.000 -0.000 -0.000 +0.000 +0.000 -0.000 -0.000 -0.000 +0.000 +0.000 -0.000 -0.000 -0.000 -0.000 -0.000 +0.000 +0.000 -0.000 -0.000 +0.000 -0.000 +0.000 +0.000 +0.000 -0.000 +0.000 -0.000


Computing DFT-D3 correction:
# coordination-number Cu 6.779 9.051 5.559 6.864 9.080 9.175 9.141 8.979 9.181 9.174 9.197 9.045 9.175 9.178 9.007 6.841 7.372 9.004 9.176 7.373 9.045 9.196 9.177 8.981 9.141 9.177 9.178 9.082 6.866 9.182 9.049 6.778 6.836 5.560
# diagonal-C6 Cu 175.00 175.00 175.00 175.00 175.00 175.00 175.00 175.00 175.00 175.00 175.00 175.00 175.00 175.00 175.00 175.00 175.00 175.00 175.00 175.00 175.00 175.00 175.00 175.00 175.00 175.00 175.00 175.00 175.00 175.00 175.00 175.00 175.00 175.00
EvdW_6 =   -0.219365
EvdW_8 =   -0.318919
Shifting auxilliary hamiltonian by 0.000164 to set nElectrons=647.567494

-------- Electronic minimization -----------
	Linear fluid (dielectric constant: 78.4, screening length: 8.12261 Bohr) occupying 0.599934 of unit cell:	Completed after 31 iterations at t[s]:   5145.58
	FillingsUpdate:  mu: -0.097800000  nElectrons: 647.567494  magneticMoment: [ Abs: 0.00000  Tot: +0.00000 ]
ElecMinimize: Iter:   0  G: -6799.796239974193668  |grad|_K:  1.914e-05  alpha:  1.000e+00
	Linear fluid (dielectric constant: 78.4, screening length: 8.12261 Bohr) occupying 0.579406 of unit cell:	Completed after 32 iterations at t[s]:   5328.08
	Linear fluid (dielectric constant: 78.4, screening length: 8.12261 Bohr) occupying 0.597849 of unit cell:	Completed after 36 iterations at t[s]:   5388.91
	FillingsUpdate:  mu: -0.097800000  nElectrons: 647.450600  magneticMoment: [ Abs: 0.00000  Tot: +0.00000 ]
	SubspaceRotationAdjust: set factor to 0.0577
ElecMinimize: Iter:   1  G: -6799.852664918655137  |grad|_K:  1.597e-05  alpha:  1.655e-01  linmin:  4.210e-04  t[s]:   5472.58
	Linear fluid (dielectric constant: 78.4, screening length: 8.12261 Bohr) occupying 0.597841 of unit cell:	Completed after 27 iterations at t[s]:   5554.86
	Linear fluid (dielectric constant: 78.4, screening length: 8.12261 Bohr) occupying 0.597838 of unit cell:	Completed after 19 iterations at t[s]:   5612.05
	FillingsUpdate:  mu: -0.097800000  nElectrons: 647.448716  magneticMoment: [ Abs: 0.00000  Tot: +0.00000 ]
	SubspaceRotationAdjust: set factor to 0.0741
ElecMinimize: Iter:   2  G: -6799.900636424799814  |grad|_K:  6.441e-06  alpha:  2.022e-01  linmin:  5.554e-05  t[s]:   5695.98
	Linear fluid (dielectric constant: 78.4, screening length: 8.12261 Bohr) occupying 0.600459 of unit cell:	Completed after 31 iterations at t[s]:   5779.15
	Linear fluid (dielectric constant: 78.4, screening length: 8.12261 Bohr) occupying 0.599803 of unit cell:	Completed after 23 iterations at t[s]:   5837.50
	FillingsUpdate:  mu: -0.097800000  nElectrons: 647.557525  magneticMoment: [ Abs: 0.00000  Tot: +0.00000 ]
	SubspaceRotationAdjust: set factor to 0.0573
ElecMinimize: Iter:   3  G: -6799.906327525765846  |grad|_K:  3.677e-06  alpha:  1.464e-01  linmin:  3.206e-05  t[s]:   5921.29
	Linear fluid (dielectric constant: 78.4, screening length: 8.12261 Bohr) occupying 0.599771 of unit cell:	Completed after 17 iterations at t[s]:   6003.24
	Linear fluid (dielectric constant: 78.4, screening length: 8.12261 Bohr) occupying 0.599757 of unit cell:	Completed after 15 iterations at t[s]:   6061.19
	FillingsUpdate:  mu: -0.097800000  nElectrons: 647.555662  magneticMoment: [ Abs: 0.00000  Tot: +0.00000 ]
	SubspaceRotationAdjust: set factor to 0.0679
ElecMinimize: Iter:   4  G: -6799.908924683857549  |grad|_K:  3.027e-06  alpha:  2.050e-01  linmin:  3.536e-06  t[s]:   6144.34
	Linear fluid (dielectric constant: 78.4, screening length: 8.12261 Bohr) occupying 0.599381 of unit cell:	Completed after 22 iterations at t[s]:   6225.72
	Linear fluid (dielectric constant: 78.4, screening length: 8.12261 Bohr) occupying 0.599521 of unit cell:	Completed after 17 iterations at t[s]:   6283.44
	FillingsUpdate:  mu: -0.097800000  nElectrons: 647.542085  magneticMoment: [ Abs: 0.00000  Tot: +0.00000 ]
	SubspaceRotationAdjust: set factor to 0.0769
ElecMinimize: Iter:   5  G: -6799.910040987349021  |grad|_K:  1.768e-06  alpha:  1.300e-01  linmin:  3.510e-07  t[s]:   6367.22
	Linear fluid (dielectric constant: 78.4, screening length: 8.12261 Bohr) occupying 0.599591 of unit cell:	Completed after 16 iterations at t[s]:   6448.75
	Linear fluid (dielectric constant: 78.4, screening length: 8.12261 Bohr) occupying 0.599618 of unit cell:	Completed after 13 iterations at t[s]:   6505.74
	FillingsUpdate:  mu: -0.097800000  nElectrons: 647.548341  magneticMoment: [ Abs: 0.00000  Tot: +0.00000 ]
	SubspaceRotationAdjust: set factor to 0.101
ElecMinimize: Iter:   6  G: -6799.910570341541643  |grad|_K:  1.546e-06  alpha:  1.806e-01  linmin: -1.120e-06  t[s]:   6589.75
	Linear fluid (dielectric constant: 78.4, screening length: 8.12261 Bohr) occupying 0.599795 of unit cell:	Completed after 17 iterations at t[s]:   6671.26
	Linear fluid (dielectric constant: 78.4, screening length: 8.12261 Bohr) occupying 0.599841 of unit cell:	Completed after 15 iterations at t[s]:   6728.17
	FillingsUpdate:  mu: -0.097800000  nElectrons: 647.562832  magneticMoment: [ Abs: 0.00000  Tot: +0.00000 ]
	SubspaceRotationAdjust: set factor to 0.119
ElecMinimize: Iter:   7  G: -6799.911084071774894  |grad|_K:  1.929e-06  alpha:  2.291e-01  linmin: -3.023e-07  t[s]:   6811.90
	Linear fluid (dielectric constant: 78.4, screening length: 8.12261 Bohr) occupying 0.599746 of unit cell:	Completed after 17 iterations at t[s]:   6892.73
	Linear fluid (dielectric constant: 78.4, screening length: 8.12261 Bohr) occupying 0.599663 of unit cell:	Completed after 16 iterations at t[s]:   6950.90
	FillingsUpdate:  mu: -0.097800000  nElectrons: 647.555990  magneticMoment: [ Abs: 0.00000  Tot: +0.00000 ]
	SubspaceRotationAdjust: set factor to 0.125
ElecMinimize: Iter:   8  G: -6799.912485474515961  |grad|_K:  2.750e-06  alpha:  4.024e-01  linmin:  4.722e-06  t[s]:   7034.51
	Linear fluid (dielectric constant: 78.4, screening length: 8.12261 Bohr) occupying 0.600533 of unit cell:	Completed after 28 iterations at t[s]:   7116.11
	Linear fluid (dielectric constant: 78.4, screening length: 8.12261 Bohr) occupying 0.600125 of unit cell:	Completed after 20 iterations at t[s]:   7174.01
	FillingsUpdate:  mu: -0.097800000  nElectrons: 647.588820  magneticMoment: [ Abs: 0.00000  Tot: +0.00000 ]
	SubspaceRotationAdjust: set factor to 0.126
ElecMinimize: Iter:   9  G: -6799.913834145900182  |grad|_K:  2.542e-06  alpha:  1.933e-01  linmin:  7.817e-06  t[s]:   7258.78
	Linear fluid (dielectric constant: 78.4, screening length: 8.12261 Bohr) occupying 0.599895 of unit cell:	Completed after 18 iterations at t[s]:   7339.39
	Linear fluid (dielectric constant: 78.4, screening length: 8.12261 Bohr) occupying 0.599805 of unit cell:	Completed after 16 iterations at t[s]:   7396.73
	FillingsUpdate:  mu: -0.097800000  nElectrons: 647.573543  magneticMoment: [ Abs: 0.00000  Tot: +0.00000 ]
	SubspaceRotationAdjust: set factor to 0.122
ElecMinimize: Iter:  10  G: -6799.915383091392869  |grad|_K:  3.205e-06  alpha:  2.585e-01  linmin:  1.118e-05  t[s]:   7480.11
	Linear fluid (dielectric constant: 78.4, screening length: 8.12261 Bohr) occupying 0.600220 of unit cell:	Completed after 22 iterations at t[s]:   7561.38
	Linear fluid (dielectric constant: 78.4, screening length: 8.12261 Bohr) occupying 0.600093 of unit cell:	Completed after 18 iterations at t[s]:   7619.35
	FillingsUpdate:  mu: -0.097800000  nElectrons: 647.596208  magneticMoment: [ Abs: 0.00000  Tot: +0.00000 ]
	SubspaceRotationAdjust: set factor to 0.11
ElecMinimize: Iter:  11  G: -6799.916887843459335  |grad|_K:  1.995e-06  alpha:  1.602e-01  linmin:  2.362e-06  t[s]:   7702.65
	Linear fluid (dielectric constant: 78.4, screening length: 8.12261 Bohr) occupying 0.599811 of unit cell:	Completed after 19 iterations at t[s]:   7783.71
	Linear fluid (dielectric constant: 78.4, screening length: 8.12261 Bohr) occupying 0.599736 of unit cell:	Completed after 16 iterations at t[s]:   7842.08
	FillingsUpdate:  mu: -0.097800000  nElectrons: 647.575351  magneticMoment: [ Abs: 0.00000  Tot: +0.00000 ]
	SubspaceRotationAdjust: set factor to 0.102
ElecMinimize: Iter:  12  G: -6799.917633264925826  |grad|_K:  2.001e-06  alpha:  2.003e-01  linmin:  6.873e-06  t[s]:   7925.56
	Linear fluid (dielectric constant: 78.4, screening length: 8.12261 Bohr) occupying 0.599851 of unit cell:	Completed after 18 iterations at t[s]:   8006.48
	Linear fluid (dielectric constant: 78.4, screening length: 8.12261 Bohr) occupying 0.599838 of unit cell:	Completed after 14 iterations at t[s]:   8063.13
	FillingsUpdate:  mu: -0.097800000  nElectrons: 647.582564  magneticMoment: [ Abs: 0.00000  Tot: +0.00000 ]
	SubspaceRotationAdjust: set factor to 0.0988
ElecMinimize: Iter:  13  G: -6799.918283444239933  |grad|_K:  1.581e-06  alpha:  1.742e-01  linmin: -1.414e-06  t[s]:   8147.14
	Linear fluid (dielectric constant: 78.4, screening length: 8.12261 Bohr) occupying 0.599808 of unit cell:	Completed after 12 iterations at t[s]:   8227.43
	Linear fluid (dielectric constant: 78.4, screening length: 8.12261 Bohr) occupying 0.599808 of unit cell:	Completed after 0 iterations at t[s]:   8282.62
	FillingsUpdate:  mu: -0.097800000  nElectrons: 647.580784  magneticMoment: [ Abs: 0.00000  Tot: +0.00000 ]
	SubspaceRotationAdjust: set factor to 0.1
ElecMinimize: Iter:  14  G: -6799.918689785052266  |grad|_K:  1.268e-06  alpha:  1.733e-01  linmin:  4.094e-08  t[s]:   8366.15
	Linear fluid (dielectric constant: 78.4, screening length: 8.12261 Bohr) occupying 0.599716 of unit cell:	Completed after 16 iterations at t[s]:   8446.77
	Linear fluid (dielectric constant: 78.4, screening length: 8.12261 Bohr) occupying 0.599726 of unit cell:	Completed after 8 iterations at t[s]:   8502.90
	FillingsUpdate:  mu: -0.097800000  nElectrons: 647.575278  magneticMoment: [ Abs: 0.00000  Tot: +0.00000 ]
	SubspaceRotationAdjust: set factor to 0.098
ElecMinimize: Iter:  15  G: -6799.918924887414505  |grad|_K:  7.945e-07  alpha:  1.559e-01  linmin:  2.111e-06  t[s]:   8586.34
	Linear fluid (dielectric constant: 78.4, screening length: 8.12261 Bohr) occupying 0.599811 of unit cell:	Completed after 16 iterations at t[s]:   8667.36
	Linear fluid (dielectric constant: 78.4, screening length: 8.12261 Bohr) occupying 0.599824 of unit cell:	Completed after 11 iterations at t[s]:   8723.98
	FillingsUpdate:  mu: -0.097800000  nElectrons: 647.580759  magneticMoment: [ Abs: 0.00000  Tot: +0.00000 ]
	SubspaceRotationAdjust: set factor to 0.0927
ElecMinimize: Iter:  16  G: -6799.919031071376594  |grad|_K:  7.545e-07  alpha:  1.795e-01  linmin: -4.982e-06  t[s]:   8807.63
	Linear fluid (dielectric constant: 78.4, screening length: 8.12261 Bohr) occupying 0.599766 of unit cell:	Completed after 16 iterations at t[s]:   8888.13
	Linear fluid (dielectric constant: 78.4, screening length: 8.12261 Bohr) occupying 0.599770 of unit cell:	Completed after 2 iterations at t[s]:   8943.96
	FillingsUpdate:  mu: -0.097800000  nElectrons: 647.576588  magneticMoment: [ Abs: 0.00000  Tot: +0.00000 ]
	SubspaceRotationAdjust: set factor to 0.0976
ElecMinimize: Iter:  17  G: -6799.919121553624791  |grad|_K:  4.561e-07  alpha:  1.692e-01  linmin:  4.626e-06  t[s]:   9027.59
	Linear fluid (dielectric constant: 78.4, screening length: 8.12261 Bohr) occupying 0.599750 of unit cell:	Completed after 13 iterations at t[s]:   9108.57
	Linear fluid (dielectric constant: 78.4, screening length: 8.12261 Bohr) occupying 0.599752 of unit cell:	Completed after 2 iterations at t[s]:   9164.07
	FillingsUpdate:  mu: -0.097800000  nElectrons: 647.575030  magneticMoment: [ Abs: 0.00000  Tot: +0.00000 ]
	SubspaceRotationAdjust: set factor to 0.103
ElecMinimize: Iter:  18  G: -6799.919152096447760  |grad|_K:  3.865e-07  alpha:  1.567e-01  linmin:  1.555e-05  t[s]:   9247.82
	Linear fluid (dielectric constant: 78.4, screening length: 8.12261 Bohr) occupying 0.599777 of unit cell:	Completed after 12 iterations at t[s]:   9327.39
	Linear fluid (dielectric constant: 78.4, screening length: 8.12261 Bohr) occupying 0.599785 of unit cell:	Completed after 9 iterations at t[s]:   9383.83
	FillingsUpdate:  mu: -0.097800000  nElectrons: 647.576492  magneticMoment: [ Abs: 0.00000  Tot: +0.00000 ]
	SubspaceRotationAdjust: set factor to 0.111
ElecMinimize: Iter:  19  G: -6799.919180569697346  |grad|_K:  3.031e-07  alpha:  2.034e-01  linmin: -3.780e-05  t[s]:   9467.57
	Linear fluid (dielectric constant: 78.4, screening length: 8.12261 Bohr) occupying 0.599782 of unit cell:	Completed after 12 iterations at t[s]:   9547.75
	Linear fluid (dielectric constant: 78.4, screening length: 8.12261 Bohr) occupying 0.599782 of unit cell:	Completed after 2 iterations at t[s]:   9603.15
	FillingsUpdate:  mu: -0.097800000  nElectrons: 647.575947  magneticMoment: [ Abs: 0.00000  Tot: +0.00000 ]
	SubspaceRotationAdjust: set factor to 0.126
ElecMinimize: Iter:  20  G: -6799.919194272792083  |grad|_K:  2.638e-07  alpha:  1.589e-01  linmin:  7.311e-06  t[s]:   9687.52
	Linear fluid (dielectric constant: 78.4, screening length: 8.12261 Bohr) occupying 0.599793 of unit cell:	Completed after 9 iterations at t[s]:   9767.03
	Linear fluid (dielectric constant: 78.4, screening length: 8.12261 Bohr) occupying 0.599797 of unit cell:	Completed after 2 iterations at t[s]:   9822.09
	FillingsUpdate:  mu: -0.097800000  nElectrons: 647.576367  magneticMoment: [ Abs: 0.00000  Tot: +0.00000 ]
	SubspaceRotationAdjust: set factor to 0.147
ElecMinimize: Iter:  21  G: -6799.919208499756678  |grad|_K:  2.343e-07  alpha:  2.179e-01  linmin: -9.880e-06  t[s]:   9905.95
	Linear fluid (dielectric constant: 78.4, screening length: 8.12261 Bohr) occupying 0.599784 of unit cell:	Completed after 10 iterations at t[s]:   9986.64
	Linear fluid (dielectric constant: 78.4, screening length: 8.12261 Bohr) occupying 0.599786 of unit cell:	Completed after 2 iterations at t[s]:  10042.00
	FillingsUpdate:  mu: -0.097800000  nElectrons: 647.575329  magneticMoment: [ Abs: 0.00000  Tot: +0.00000 ]
	SubspaceRotationAdjust: set factor to 0.171
ElecMinimize: Iter:  22  G: -6799.919218240213922  |grad|_K:  2.342e-07  alpha:  1.888e-01  linmin:  6.007e-06  t[s]:  10125.76
	Linear fluid (dielectric constant: 78.4, screening length: 8.12261 Bohr) occupying 0.599806 of unit cell:	Completed after 13 iterations at t[s]:  10206.65
	Linear fluid (dielectric constant: 78.4, screening length: 8.12261 Bohr) occupying 0.599809 of unit cell:	Completed after 2 iterations at t[s]:  10263.09
	FillingsUpdate:  mu: -0.097800000  nElectrons: 647.576313  magneticMoment: [ Abs: 0.00000  Tot: +0.00000 ]
	SubspaceRotationAdjust: set factor to 0.198
ElecMinimize: Iter:  23  G: -6799.919229057921257  |grad|_K:  2.142e-07  alpha:  2.106e-01  linmin: -9.870e-06  t[s]:  10346.70
	Linear fluid (dielectric constant: 78.4, screening length: 8.12261 Bohr) occupying 0.599748 of unit cell:	Completed after 16 iterations at t[s]:  10426.92
	Linear fluid (dielectric constant: 78.4, screening length: 8.12261 Bohr) occupying 0.599763 of unit cell:	Completed after 12 iterations at t[s]:  10483.56
	FillingsUpdate:  mu: -0.097800000  nElectrons: 647.573243  magneticMoment: [ Abs: 0.00000  Tot: +0.00000 ]
	SubspaceRotationAdjust: set factor to 0.195
ElecMinimize: Iter:  24  G: -6799.919235876762286  |grad|_K:  2.458e-07  alpha:  1.573e-01  linmin:  7.119e-06  t[s]:  10567.29
	Linear fluid (dielectric constant: 78.4, screening length: 8.12261 Bohr) occupying 0.599831 of unit cell:	Completed after 16 iterations at t[s]:  10647.75
	Linear fluid (dielectric constant: 78.4, screening length: 8.12261 Bohr) occupying 0.599822 of unit cell:	Completed after 9 iterations at t[s]:  10703.54
	FillingsUpdate:  mu: -0.097800000  nElectrons: 647.576556  magneticMoment: [ Abs: 0.00000  Tot: +0.00000 ]
	SubspaceRotationAdjust: set factor to 0.155
ElecMinimize: Iter:  25  G: -6799.919243630957681  |grad|_K:  2.923e-07  alpha:  1.373e-01  linmin:  3.446e-06  t[s]:  10787.27
	Linear fluid (dielectric constant: 78.4, screening length: 8.12261 Bohr) occupying 0.599764 of unit cell:	Completed after 16 iterations at t[s]:  10869.20
	Linear fluid (dielectric constant: 78.4, screening length: 8.12261 Bohr) occupying 0.599772 of unit cell:	Completed after 8 iterations at t[s]:  10925.64
	FillingsUpdate:  mu: -0.097800000  nElectrons: 647.573125  magneticMoment: [ Abs: 0.00000  Tot: +0.00000 ]
	SubspaceRotationAdjust: set factor to 0.131
ElecMinimize: Iter:  26  G: -6799.919253092598410  |grad|_K:  2.070e-07  alpha:  1.184e-01  linmin:  1.910e-06  t[s]:  11009.66
	Linear fluid (dielectric constant: 78.4, screening length: 8.12261 Bohr) occupying 0.599782 of unit cell:	Completed after 11 iterations at t[s]:  11089.54
	Linear fluid (dielectric constant: 78.4, screening length: 8.12261 Bohr) occupying 0.599788 of unit cell:	Completed after 10 iterations at t[s]:  11146.23
	FillingsUpdate:  mu: -0.097800000  nElectrons: 647.573820  magneticMoment: [ Abs: 0.00000  Tot: +0.00000 ]
	SubspaceRotationAdjust: set factor to 0.128
ElecMinimize: Iter:  27  G: -6799.919261163007832  |grad|_K:  2.189e-07  alpha:  2.002e-01  linmin: -6.736e-06  t[s]:  11229.93
	Linear fluid (dielectric constant: 78.4, screening length: 8.12261 Bohr) occupying 0.599762 of unit cell:	Completed after 13 iterations at t[s]:  11309.74
	Linear fluid (dielectric constant: 78.4, screening length: 8.12261 Bohr) occupying 0.599764 of unit cell:	Completed after 2 iterations at t[s]:  11364.91
	FillingsUpdate:  mu: -0.097800000  nElectrons: 647.572095  magneticMoment: [ Abs: 0.00000  Tot: +0.00000 ]
	SubspaceRotationAdjust: set factor to 0.128
ElecMinimize: Iter:  28  G: -6799.919269451589571  |grad|_K:  1.662e-07  alpha:  1.831e-01  linmin:  1.146e-06  t[s]:  11449.39
	Linear fluid (dielectric constant: 78.4, screening length: 8.12261 Bohr) occupying 0.599768 of unit cell:	Completed after 10 iterations at t[s]:  11529.85
	Linear fluid (dielectric constant: 78.4, screening length: 8.12261 Bohr) occupying 0.599768 of unit cell:	Completed after 0 iterations at t[s]:  11584.83
	FillingsUpdate:  mu: -0.097800000  nElectrons: 647.572225  magneticMoment: [ Abs: 0.00000  Tot: +0.00000 ]
	SubspaceRotationAdjust: set factor to 0.129
ElecMinimize: Iter:  29  G: -6799.919273868259552  |grad|_K:  1.539e-07  alpha:  1.708e-01  linmin:  1.369e-06  t[s]:  11668.52
	Linear fluid (dielectric constant: 78.4, screening length: 8.12261 Bohr) occupying 0.599759 of unit cell:	Completed after 7 iterations at t[s]:  11748.46
	Linear fluid (dielectric constant: 78.4, screening length: 8.12261 Bohr) occupying 0.599757 of unit cell:	Completed after 2 iterations at t[s]:  11803.97
	FillingsUpdate:  mu: -0.097800000  nElectrons: 647.571522  magneticMoment: [ Abs: 0.00000  Tot: +0.00000 ]
	SubspaceRotationAdjust: set factor to 0.131
ElecMinimize: Iter:  30  G: -6799.919278250023126  |grad|_K:  1.242e-07  alpha:  1.973e-01  linmin: -4.751e-06  t[s]:  11887.45
	Linear fluid (dielectric constant: 78.4, screening length: 8.12261 Bohr) occupying 0.599760 of unit cell:	Completed after 6 iterations at t[s]:  11966.52
	Linear fluid (dielectric constant: 78.4, screening length: 8.12261 Bohr) occupying 0.599760 of unit cell:	Completed after 0 iterations at t[s]:  12021.50
	FillingsUpdate:  mu: -0.097800000  nElectrons: 647.571680  magneticMoment: [ Abs: 0.00000  Tot: +0.00000 ]
	SubspaceRotationAdjust: set factor to 0.133
ElecMinimize: Iter:  31  G: -6799.919280879536018  |grad|_K:  1.168e-07  alpha:  1.811e-01  linmin:  1.052e-05  t[s]:  12105.38
	Linear fluid (dielectric constant: 78.4, screening length: 8.12261 Bohr) occupying 0.599752 of unit cell:	Completed after 3 iterations at t[s]:  12184.71
	Linear fluid (dielectric constant: 78.4, screening length: 8.12261 Bohr) occupying 0.599752 of unit cell:	Completed after 0 iterations at t[s]:  12239.92
	FillingsUpdate:  mu: -0.097800000  nElectrons: 647.571260  magneticMoment: [ Abs: 0.00000  Tot: +0.00000 ]
	SubspaceRotationAdjust: set factor to 0.141
ElecMinimize: Iter:  32  G: -6799.919283061529313  |grad|_K:  8.026e-08  alpha:  1.718e-01  linmin:  6.705e-07  t[s]:  12323.37
	Linear fluid (dielectric constant: 78.4, screening length: 8.12261 Bohr) occupying 0.599749 of unit cell:	Completed after 2 iterations at t[s]:  12402.39
	Linear fluid (dielectric constant: 78.4, screening length: 8.12261 Bohr) occupying 0.599749 of unit cell:	Completed after 0 iterations at t[s]:  12457.39
	FillingsUpdate:  mu: -0.097800000  nElectrons: 647.571119  magneticMoment: [ Abs: 0.00000  Tot: +0.00000 ]
	SubspaceRotationAdjust: set factor to 0.153
ElecMinimize: Iter:  33  G: -6799.919284054913078  |grad|_K:  7.167e-08  alpha:  1.646e-01  linmin: -7.065e-06  t[s]:  12541.24
	Linear fluid (dielectric constant: 78.4, screening length: 8.12261 Bohr) occupying 0.599748 of unit cell:	Completed after 2 iterations at t[s]:  12619.43
	Linear fluid (dielectric constant: 78.4, screening length: 8.12261 Bohr) occupying 0.599748 of unit cell:	Completed after 0 iterations at t[s]:  12675.06
	FillingsUpdate:  mu: -0.097800000  nElectrons: 647.571113  magneticMoment: [ Abs: 0.00000  Tot: +0.00000 ]
	SubspaceRotationAdjust: set factor to 0.174
ElecMinimize: Iter:  34  G: -6799.919285010386375  |grad|_K:  5.711e-08  alpha:  1.980e-01  linmin: -1.709e-05  t[s]:  12758.67
	Linear fluid (dielectric constant: 78.4, screening length: 8.12261 Bohr) occupying 0.599750 of unit cell:	Completed after 3 iterations at t[s]:  12838.06
	Linear fluid (dielectric constant: 78.4, screening length: 8.12261 Bohr) occupying 0.599750 of unit cell:	Completed after 0 iterations at t[s]:  12893.22
	FillingsUpdate:  mu: -0.097800000  nElectrons: 647.571252  magneticMoment: [ Abs: 0.00000  Tot: +0.00000 ]
	SubspaceRotationAdjust: set factor to 0.201
ElecMinimize: Iter:  35  G: -6799.919285537255746  |grad|_K:  5.472e-08  alpha:  1.714e-01  linmin:  1.218e-05  t[s]:  12977.79
	Linear fluid (dielectric constant: 78.4, screening length: 8.12261 Bohr) occupying 0.599749 of unit cell:	Completed after 1 iterations at t[s]:  13056.68
	Linear fluid (dielectric constant: 78.4, screening length: 8.12261 Bohr) occupying 0.599749 of unit cell:	Completed after 0 iterations at t[s]:  13111.52
	FillingsUpdate:  mu: -0.097800000  nElectrons: 647.571333  magneticMoment: [ Abs: 0.00000  Tot: +0.00000 ]
	SubspaceRotationAdjust: set factor to 0.244
ElecMinimize: Iter:  36  G: -6799.919286141358498  |grad|_K:  4.702e-08  alpha:  2.152e-01  linmin: -1.372e-04  t[s]:  13195.29
	Linear fluid (dielectric constant: 78.4, screening length: 8.12261 Bohr) occupying 0.599746 of unit cell:	Completed after 2 iterations at t[s]:  13274.02
	Linear fluid (dielectric constant: 78.4, screening length: 8.12261 Bohr) occupying 0.599746 of unit cell:	Completed after 1 iterations at t[s]:  13329.00
	FillingsUpdate:  mu: -0.097800000  nElectrons: 647.571218  magneticMoment: [ Abs: 0.00000  Tot: +0.00000 ]
	SubspaceRotationAdjust: set factor to 0.292
ElecMinimize: Iter:  37  G: -6799.919286493342042  |grad|_K:  4.484e-08  alpha:  1.686e-01  linmin:  1.819e-05  t[s]:  13412.83
	Linear fluid (dielectric constant: 78.4, screening length: 8.12261 Bohr) occupying 0.599751 of unit cell:	Completed after 3 iterations at t[s]:  13491.98
	Linear fluid (dielectric constant: 78.4, screening length: 8.12261 Bohr) occupying 0.599752 of unit cell:	Completed after 0 iterations at t[s]:  13547.73
	FillingsUpdate:  mu: -0.097800000  nElectrons: 647.571656  magneticMoment: [ Abs: 0.00000  Tot: -0.00000 ]
	SubspaceRotationAdjust: set factor to 0.354
ElecMinimize: Iter:  38  G: -6799.919286887414273  |grad|_K:  4.102e-08  alpha:  2.097e-01  linmin: -3.849e-05  t[s]:  13631.48
	Linear fluid (dielectric constant: 78.4, screening length: 8.12261 Bohr) occupying 0.599749 of unit cell:	Completed after 3 iterations at t[s]:  13710.07
	Linear fluid (dielectric constant: 78.4, screening length: 8.12261 Bohr) occupying 0.599750 of unit cell:	Completed after 0 iterations at t[s]:  13764.89
	FillingsUpdate:  mu: -0.097800000  nElectrons: 647.571622  magneticMoment: [ Abs: 0.00000  Tot: +0.00000 ]
	SubspaceRotationAdjust: set factor to 0.42
ElecMinimize: Iter:  39  G: -6799.919287157003964  |grad|_K:  3.957e-08  alpha:  1.678e-01  linmin:  1.927e-05  t[s]:  13848.90
	Linear fluid (dielectric constant: 78.4, screening length: 8.12261 Bohr) occupying 0.599755 of unit cell:	Completed after 2 iterations at t[s]:  13927.57
	Linear fluid (dielectric constant: 78.4, screening length: 8.12261 Bohr) occupying 0.599756 of unit cell:	Completed after 0 iterations at t[s]:  13982.41
	FillingsUpdate:  mu: -0.097800000  nElectrons: 647.572142  magneticMoment: [ Abs: 0.00000  Tot: -0.00000 ]
	SubspaceRotationAdjust: set factor to 0.487
	SubspaceRotationAdjust: resetting CG because factor has changed by 8.17513
[...]
# diagonal-C6 Cu 175.00 175.00 175.00 175.00 175.00 175.00 175.00 175.00 175.00 175.00 175.00 175.00 175.00 175.00 175.00 175.00 175.00 175.00 175.00 175.00 175.00 175.00 175.00 175.00 175.00 175.00 175.00 175.00 175.00 175.00 175.00 175.00 175.00 175.00
EvdW_6 =   -0.219392
EvdW_8 =   -0.319003
Shifting auxilliary hamiltonian by -0.000006 to set nElectrons=647.569912

-------- Electronic minimization -----------
	Linear fluid (dielectric constant: 78.4, screening length: 8.12261 Bohr) occupying 0.599915 of unit cell:	Completed after 11 iterations at t[s]:  21648.28
	FillingsUpdate:  mu: -0.097800000  nElectrons: 647.569912  magneticMoment: [ Abs: 0.00000  Tot: +0.00000 ]
ElecMinimize: Iter:   0  G: -6799.919303427296654  |grad|_K:  2.510e-07  alpha:  1.000e+00
	Linear fluid (dielectric constant: 78.4, screening length: 8.12261 Bohr) occupying 0.600167 of unit cell:	Completed after 19 iterations at t[s]:  21828.31
	Linear fluid (dielectric constant: 78.4, screening length: 8.12261 Bohr) occupying 0.599945 of unit cell:	Completed after 19 iterations at t[s]:  21886.49
	FillingsUpdate:  mu: -0.097800000  nElectrons: 647.571712  magneticMoment: [ Abs: 0.00000  Tot: +0.00000 ]
	SubspaceRotationAdjust: set factor to 0.0839
ElecMinimize: Iter:   1  G: -6799.919310406498880  |grad|_K:  1.644e-07  alpha:  1.184e-01  linmin:  6.069e-05  t[s]:  21969.96
	Linear fluid (dielectric constant: 78.4, screening length: 8.12261 Bohr) occupying 0.599934 of unit cell:	Completed after 11 iterations at t[s]:  22049.98
	Linear fluid (dielectric constant: 78.4, screening length: 8.12261 Bohr) occupying 0.599919 of unit cell:	Completed after 11 iterations at t[s]:  22106.48
	FillingsUpdate:  mu: -0.097800000  nElectrons: 647.569984  magneticMoment: [ Abs: 0.00000  Tot: +0.00000 ]
	SubspaceRotationAdjust: set factor to 0.0822
ElecMinimize: Iter:   2  G: -6799.919317385551039  |grad|_K:  1.290e-07  alpha:  2.748e-01  linmin: -1.284e-04  t[s]:  22190.12
	Linear fluid (dielectric constant: 78.4, screening length: 8.12261 Bohr) occupying 0.599928 of unit cell:	Completed after 12 iterations at t[s]:  22270.97
	Linear fluid (dielectric constant: 78.4, screening length: 8.12261 Bohr) occupying 0.599925 of unit cell:	Completed after 6 iterations at t[s]:  22326.40
	FillingsUpdate:  mu: -0.097800000  nElectrons: 647.570314  magneticMoment: [ Abs: 0.00000  Tot: +0.00000 ]
	SubspaceRotationAdjust: set factor to 0.085
ElecMinimize: Iter:   3  G: -6799.919320127946776  |grad|_K:  9.859e-08  alpha:  1.751e-01  linmin:  5.466e-05  t[s]:  22410.17
	Linear fluid (dielectric constant: 78.4, screening length: 8.12261 Bohr) occupying 0.599914 of unit cell:	Completed after 9 iterations at t[s]:  22489.60
	Linear fluid (dielectric constant: 78.4, screening length: 8.12261 Bohr) occupying 0.599916 of unit cell:	Completed after 2 iterations at t[s]:  22545.12
	FillingsUpdate:  mu: -0.097800000  nElectrons: 647.569743  magneticMoment: [ Abs: 0.00000  Tot: +0.00000 ]
	SubspaceRotationAdjust: set factor to 0.1
ElecMinimize: Iter:   4  G: -6799.919321514732474  |grad|_K:  6.320e-08  alpha:  1.529e-01  linmin: -3.378e-05  t[s]:  22628.24
	Linear fluid (dielectric constant: 78.4, screening length: 8.12261 Bohr) occupying 0.599918 of unit cell:	Completed after 2 iterations at t[s]:  22707.88
	Linear fluid (dielectric constant: 78.4, screening length: 8.12261 Bohr) occupying 0.599920 of unit cell:	Completed after 7 iterations at t[s]:  22764.09
	FillingsUpdate:  mu: -0.097800000  nElectrons: 647.569985  magneticMoment: [ Abs: 0.00000  Tot: +0.00000 ]
	SubspaceRotationAdjust: set factor to 0.107
ElecMinimize: Iter:   5  G: -6799.919322862516310  |grad|_K:  9.636e-08  alpha:  3.616e-01  linmin:  2.515e-05  t[s]:  22849.14
	Linear fluid (dielectric constant: 78.4, screening length: 8.12261 Bohr) occupying 0.599905 of unit cell:	Completed after 11 iterations at t[s]:  22929.13
	Linear fluid (dielectric constant: 78.4, screening length: 8.12261 Bohr) occupying 0.599912 of unit cell:	Completed after 5 iterations at t[s]:  22984.47
	FillingsUpdate:  mu: -0.097800000  nElectrons: 647.569429  magneticMoment: [ Abs: 0.00000  Tot: +0.00000 ]
	SubspaceRotationAdjust: set factor to 0.125
ElecMinimize: Iter:   6  G: -6799.919324525289085  |grad|_K:  6.343e-08  alpha:  1.911e-01  linmin:  3.617e-05  t[s]:  23068.01
	Linear fluid (dielectric constant: 78.4, screening length: 8.12261 Bohr) occupying 0.599917 of unit cell:	Completed after 9 iterations at t[s]:  23148.54
	Linear fluid (dielectric constant: 78.4, screening length: 8.12261 Bohr) occupying 0.599917 of unit cell:	Completed after 0 iterations at t[s]:  23203.45
	FillingsUpdate:  mu: -0.097800000  nElectrons: 647.569693  magneticMoment: [ Abs: 0.00000  Tot: +0.00000 ]
	SubspaceRotationAdjust: set factor to 0.139
ElecMinimize: Iter:   7  G: -6799.919325211784781  |grad|_K:  7.368e-08  alpha:  1.824e-01  linmin: -7.120e-05  t[s]:  23287.11
	Linear fluid (dielectric constant: 78.4, screening length: 8.12261 Bohr) occupying 0.599909 of unit cell:	Completed after 6 iterations at t[s]:  23367.28
	Linear fluid (dielectric constant: 78.4, screening length: 8.12261 Bohr) occupying 0.599901 of unit cell:	Completed after 9 iterations at t[s]:  23423.84
	FillingsUpdate:  mu: -0.097800000  nElectrons: 647.568785  magneticMoment: [ Abs: 0.00000  Tot: +0.00000 ]
	SubspaceRotationAdjust: set factor to 0.138
ElecMinimize: Iter:   8  G: -6799.919327094676191  |grad|_K:  9.063e-08  alpha:  3.673e-01  linmin:  1.974e-05  t[s]:  23507.54
	Linear fluid (dielectric constant: 78.4, screening length: 8.12261 Bohr) occupying 0.599953 of unit cell:	Completed after 16 iterations at t[s]:  23588.10
	Linear fluid (dielectric constant: 78.4, screening length: 8.12261 Bohr) occupying 0.599919 of unit cell:	Completed after 15 iterations at t[s]:  23645.45
	FillingsUpdate:  mu: -0.097800000  nElectrons: 647.569894  magneticMoment: [ Abs: 0.00000  Tot: +0.00000 ]
	SubspaceRotationAdjust: set factor to 0.11
ElecMinimize: Iter:   9  G: -6799.919328038699859  |grad|_K:  7.487e-08  alpha:  1.236e-01  linmin:  9.185e-06  t[s]:  23729.21
	Linear fluid (dielectric constant: 78.4, screening length: 8.12261 Bohr) occupying 0.599909 of unit cell:	Completed after 9 iterations at t[s]:  23809.48
	Linear fluid (dielectric constant: 78.4, screening length: 8.12261 Bohr) occupying 0.599903 of unit cell:	Completed after 9 iterations at t[s]:  23865.59
	FillingsUpdate:  mu: -0.097800000  nElectrons: 647.568990  magneticMoment: [ Abs: 0.00000  Tot: +0.00000 ]
	SubspaceRotationAdjust: set factor to 0.0942
ElecMinimize: Iter:  10  G: -6799.919329078579722  |grad|_K:  8.035e-08  alpha:  1.996e-01  linmin:  3.989e-05  t[s]:  23949.26
	Linear fluid (dielectric constant: 78.4, screening length: 8.12261 Bohr) occupying 0.599910 of unit cell:	Completed after 8 iterations at t[s]:  24029.22
	Linear fluid (dielectric constant: 78.4, screening length: 8.12261 Bohr) occupying 0.599908 of unit cell:	Completed after 2 iterations at t[s]:  24084.99
	FillingsUpdate:  mu: -0.097800000  nElectrons: 647.569447  magneticMoment: [ Abs: 0.00000  Tot: -0.00000 ]
	SubspaceRotationAdjust: set factor to 0.0981
ElecMinimize: Iter:  11  G: -6799.919330055030514  |grad|_K:  6.623e-08  alpha:  1.635e-01  linmin:  1.816e-05  t[s]:  24168.66
	Linear fluid (dielectric constant: 78.4, screening length: 8.12261 Bohr) occupying 0.599914 of unit cell:	Completed after 7 iterations at t[s]:  24248.24
	Linear fluid (dielectric constant: 78.4, screening length: 8.12261 Bohr) occupying 0.599916 of unit cell:	Completed after 2 iterations at t[s]:  24303.43
	FillingsUpdate:  mu: -0.097800000  nElectrons: 647.570013  magneticMoment: [ Abs: 0.00000  Tot: -0.00000 ]
	SubspaceRotationAdjust: set factor to 0.098
ElecMinimize: Iter:  12  G: -6799.919330969616567  |grad|_K:  6.181e-08  alpha:  2.236e-01  linmin: -2.403e-05  t[s]:  24387.56
	Linear fluid (dielectric constant: 78.4, screening length: 8.12261 Bohr) occupying 0.599904 of unit cell:	Completed after 8 iterations at t[s]:  24467.35
	Linear fluid (dielectric constant: 78.4, screening length: 8.12261 Bohr) occupying 0.599908 of unit cell:	Completed after 3 iterations at t[s]:  24522.48
	FillingsUpdate:  mu: -0.097800000  nElectrons: 647.569642  magneticMoment: [ Abs: 0.00000  Tot: -0.00000 ]
	SubspaceRotationAdjust: set factor to 0.0904
ElecMinimize: Iter:  13  G: -6799.919331463966955  |grad|_K:  3.905e-08  alpha:  1.361e-01  linmin:  9.357e-05  t[s]:  24605.96
	Linear fluid (dielectric constant: 78.4, screening length: 8.12261 Bohr) occupying 0.599909 of unit cell:	Completed after 2 iterations at t[s]:  24685.87
	Linear fluid (dielectric constant: 78.4, screening length: 8.12261 Bohr) occupying 0.599909 of unit cell:	Completed after 2 iterations at t[s]:  24741.39
	FillingsUpdate:  mu: -0.097800000  nElectrons: 647.569749  magneticMoment: [ Abs: 0.00000  Tot: -0.00000 ]
	SubspaceRotationAdjust: set factor to 0.0906
ElecMinimize: Iter:  14  G: -6799.919331779595268  |grad|_K:  3.920e-08  alpha:  2.195e-01  linmin: -1.374e-04  t[s]:  24824.64
	Linear fluid (dielectric constant: 78.4, screening length: 8.12261 Bohr) occupying 0.599908 of unit cell:	Completed after 3 iterations at t[s]:  24903.61
	Linear fluid (dielectric constant: 78.4, screening length: 8.12261 Bohr) occupying 0.599908 of unit cell:	Completed after 2 iterations at t[s]:  24959.14
	FillingsUpdate:  mu: -0.097800000  nElectrons: 647.569795  magneticMoment: [ Abs: 0.00000  Tot: -0.00000 ]
	SubspaceRotationAdjust: set factor to 0.0914
ElecMinimize: Iter:  15  G: -6799.919332003457384  |grad|_K:  2.308e-08  alpha:  1.539e-01  linmin: -1.026e-04  t[s]:  25042.96
	Linear fluid (dielectric constant: 78.4, screening length: 8.12261 Bohr) occupying 0.599906 of unit cell:	Completed after 1 iterations at t[s]:  25121.40
	Linear fluid (dielectric constant: 78.4, screening length: 8.12261 Bohr) occupying 0.599905 of unit cell:	Completed after 2 iterations at t[s]:  25176.51
	FillingsUpdate:  mu: -0.097800000  nElectrons: 647.569610  magneticMoment: [ Abs: 0.00000  Tot: -0.00000 ]
	SubspaceRotationAdjust: set factor to 0.0905
ElecMinimize: Iter:  16  G: -6799.919332107445371  |grad|_K:  2.443e-08  alpha:  2.173e-01  linmin:  4.525e-04  t[s]:  25260.37
	Linear fluid (dielectric constant: 78.4, screening length: 8.12261 Bohr) occupying 0.599903 of unit cell:	Completed after 3 iterations at t[s]:  25339.11
	Linear fluid (dielectric constant: 78.4, screening length: 8.12261 Bohr) occupying 0.599904 of unit cell:	Completed after 0 iterations at t[s]:  25393.95
	FillingsUpdate:  mu: -0.097800000  nElectrons: 647.569588  magneticMoment: [ Abs: 0.00000  Tot: -0.00000 ]
	SubspaceRotationAdjust: set factor to 0.0982
ElecMinimize: Iter:  17  G: -6799.919332184575069  |grad|_K:  1.693e-08  alpha:  1.422e-01  linmin:  8.147e-04  t[s]:  25477.74
	Linear fluid (dielectric constant: 78.4, screening length: 8.12261 Bohr) occupying 0.599907 of unit cell:	Completed after 2 iterations at t[s]:  25556.85
	Linear fluid (dielectric constant: 78.4, screening length: 8.12261 Bohr) occupying 0.599906 of unit cell:	Completed after 0 iterations at t[s]:  25611.76
	FillingsUpdate:  mu: -0.097800000  nElectrons: 647.569775  magneticMoment: [ Abs: 0.00000  Tot: -0.00000 ]
	SubspaceRotationAdjust: set factor to 0.107
ElecMinimize: Iter:  18  G: -6799.919332216793009  |grad|_K:  1.278e-08  alpha:  1.235e-01  linmin: -9.920e-04  t[s]:  25695.58
ElecMinimize: Converged (|Delta G|<1.000000e-07 for 2 iters).
Setting wave functions to eigenvectors of Hamiltonian
Converging empty states (this may take a while): |deigs|: 2.035e-09

Computing DFT-D3 correction:
# coordination-number Cu 6.793 9.059 5.585 6.881 9.072 9.178 9.140 8.978 9.170 9.192 9.190 9.056 9.187 9.183 9.000 6.853 7.376 8.997 9.182 7.377 9.053 9.188 9.193 8.978 9.141 9.189 9.181 9.075 6.885 9.172 9.056 6.793 6.848 5.587
# diagonal-C6 Cu 175.00 175.00 175.00 175.00 175.00 175.00 175.00 175.00 175.00 175.00 175.00 175.00 175.00 175.00 175.00 175.00 175.00 175.00 175.00 175.00 175.00 175.00 175.00 175.00 175.00 175.00 175.00 175.00 175.00 175.00 175.00 175.00 175.00 175.00
EvdW_6 =   -0.219392
EvdW_8 =   -0.319003

# Ionic positions in cartesian coordinates:
ion Cu  -0.000098954285291  11.489705069841040   1.183613163863931 1
ion Cu  -0.000106799065359  15.087193858827677   4.565810494953391 1
ion Cu   0.000080215930439   0.133310580073881  27.242338080612818 1
ion Cu  -0.000173653423649   3.512421706522936   2.802373515393034 1
ion Cu  -0.000099974577877   6.955808824565249   6.147482014232778 1
ion Cu  -0.000004087727883  10.395406929612779   9.433532831486824 1
ion Cu   0.000028557726604  17.345700418530438  15.946732774949959 1
ion Cu  -0.000097191984314  18.515146789615187   7.736930911330974 1
ion Cu   0.000004954224953   2.302306034797821  11.018376424053471 1
ion Cu   0.000019888351563   5.785106730869685  14.286201692547085 1
ion Cu   0.000011392584556   9.260106055888532  17.583854482667341 1
ion Cu   0.000067001215012  12.722011270667199  20.869630583838539 1
ion Cu  -0.000010140232485  13.867477681061377  12.694751938825457 1
ion Cu   0.000037167986932   1.155990410535439  19.170248679727891 1
ion Cu   0.000061964571020   4.601559752387071  22.446197056835103 1
ion Cu   0.000152548152186   8.097098254988303  25.789630599427621 1
ion Cu   0.000146629076209  16.108058331279576  24.300504715554453 1
ion Cu   2.383251548522471  11.006997925131643   5.347924355491084 1
ion Cu   2.383286907194918  14.452667613123261   8.624561349586063 1
ion Cu   2.383170611039556  19.151393456737580   3.493363200354127 1
ion Cu   2.383218607982386   2.886041987665063   6.924678319098137 1
ion Cu   2.383284731569418   6.347981975700546  10.211207256071221 1
ion Cu   2.383287599086918   9.822507618422065  13.508976159815663 1
ion Cu   2.383455339639340  16.744164354063066  20.056339352616913 1
ion Cu   2.383359430177800  17.915540101800673  11.847877274364341 1
ion Cu   2.383343069538111   1.739185956357764  15.099576118049475 1
ion Cu   2.383345170502083   5.210356021352081  18.360471793723157 1
ion Cu   2.383400388886842   8.649419380160849  21.645804067103651 1
ion Cu   2.383470439435136  12.091826730324309  24.990299805451301 1
ion Cu   2.383331263460663  13.303561793851101  16.775848941552368 1
ion Cu   2.383399494706012   0.518183146489696  23.227413326022038 1
ion Cu   2.383385351896127   4.119686144007348  26.609492490749545 1
ion Cu   2.383187204553158   7.510652119352040   2.004473457861551 1
ion Cu   2.383090323286434  15.474736975396610   0.550694771788567 1

# Forces in Cartesian coordinates:
force Cu  -0.000002209703834  -0.000055685969669   0.000131591386949 1
force Cu  -0.000001215252922   0.000010873249452  -0.000104737690857 1
force Cu   0.000000445565416   0.000083017407843   0.000053304664930 1
force Cu  -0.000000233114369  -0.000090210459845  -0.000171156149231 1
force Cu  -0.000000360532305   0.000054566369212  -0.000153910465391 1
force Cu  -0.000000182892873   0.000052196283961   0.000075906803053 1
force Cu   0.000000496785218  -0.000036983650659   0.000065519557446 1
force Cu  -0.000000079264218   0.000039378395883  -0.000116726218495 1
force Cu  -0.000000253016666   0.000051159602083  -0.000237662373017 1
force Cu   0.000000341209202  -0.000008328970657  -0.000054486692532 1
force Cu   0.000000284603769  -0.000093138971486   0.000093831456107 1
force Cu   0.000000492380797  -0.000010450693944   0.000217043786937 1
force Cu  -0.000000135252019   0.000028018694817   0.000035001122908 1
force Cu   0.000000351033034  -0.000085596682114   0.000016790531209 1
force Cu   0.000000229231706   0.000015531339512   0.000003375141023 1
force Cu  -0.000000408834008   0.000070884201271   0.000024133256911 1
force Cu   0.000001120177171   0.000124458317381   0.000165734132425 1
force Cu  -0.000000265075170  -0.000007483084272   0.000021954335310 1
force Cu  -0.000000064400132   0.000085618277162  -0.000042923392788 1
force Cu  -0.000000253495831  -0.000091599294691  -0.000122366373304 1
force Cu  -0.000000432646365   0.000023574504282  -0.000211999901928 1
force Cu   0.000000359093657   0.000097445548449  -0.000118430942663 1
force Cu   0.000000684465097   0.000010039889343   0.000004430542783 1
force Cu  -0.000000138769998  -0.000043494222530   0.000119105570442 1
force Cu   0.000000616834616   0.000034587781809  -0.000107785487033 1
force Cu   0.000001212683181  -0.000032585936567  -0.000070634245878 1
force Cu   0.000000495758204  -0.000051066002246  -0.000092059004739 1
force Cu  -0.000000180180001  -0.000053955462074   0.000176198754817 1
force Cu   0.000001720514859   0.000089347031052   0.000196596042669 1
force Cu   0.000000229231761  -0.000057155558088   0.000203574336592 1
force Cu   0.000000705371840  -0.000007421522176   0.000141398871215 1
force Cu   0.000000821433868   0.000073775891849  -0.000107688858141 1
force Cu  -0.000001344162489  -0.000049186967084  -0.000012384774767 1
force Cu  -0.000001684529854  -0.000032127215145  -0.000049686296035 1

# Energy components:
   A_diel =       -0.5448186563174683
   Eewald =    82364.2351776587165659
       EH =    88802.1332627695664996
     Eloc =  -179316.6825717409956269
      Enl =     1245.0880034433837409
     EvdW =       -0.5383950101572833
      Exc =     -660.1899100946819772
 Exc_core =        1.5969441855238315
       KE =      701.7806419376056510
  MuShift =       -0.1288106455531189
-------------------------------------
     Etot =    -6863.2504761529071402
       TS =        0.0011800245718879
-------------------------------------
        F =    -6863.2516561774791626
      muN =      -63.3323239606861961
-------------------------------------
        G =    -6799.9193322167930091


Dumping 'jdft.fillings' ... done
Dumping 'jdft.wfns' ... done
Dumping 'jdft.fluidState' ... done
Dumping 'jdft.ionpos' ... done
Dumping 'jdft.lattice' ... done
Dumping 'jdft.eigenvals' ... done
Dumping 'jdft.eigStats' ... 
	eMin: -4.237025 at state 36 ( [ +0.000000 +0.000000 +0.000000 ] spin -1 )
	HOMO: -0.098028 at state 30 ( [ -0.166667 +0.000000 +0.000000 ] spin 1 )
	mu  : -0.097800
	LUMO: -0.097752 at state 69 ( [ -0.083333 +0.000000 +0.000000 ] spin -1 )
	eMax: +0.242270 at state 18 ( [ +0.500000 +0.000000 +0.000000 ] spin 1 )
	HOMO-LUMO gap: +0.000276
	Optical gap  : +0.001264 at state 69 ( [ -0.083333 +0.000000 +0.000000 ] spin -1 )
Dumping 'jdft.Ecomponents' ... done
IonicMinimize: Iter:   3  G: -6799.919332216793009  |grad|_K:  7.897e-05  alpha:  1.000e+00  linmin: -4.882e-01  t[s]:  25924.87
IonicMinimize: Converged (|grad|_K<1.000000e-04).

#--- Lowdin population analysis ---
# oxidation-state Cu -0.077 +0.045 -0.043 -0.030 +0.067 +0.073 +0.077 +0.074 +0.075 +0.077 +0.073 +0.068 +0.077 +0.073 +0.070 -0.043 +0.020 +0.070 +0.073 +0.020 +0.068 +0.073 +0.077 +0.074 +0.077 +0.077 +0.073 +0.067 -0.030 +0.075 +0.045 -0.077 -0.043 -0.043
# magnetic-moments Cu -0.000 -0.000 +0.000 -0.000 +0.000 -0.000 -0.000 +0.000 -0.000 -0.000 -0.000 +0.000 -0.000 +0.000 -0.000 +0.000 +0.000 -0.000 -0.000 -0.000 -0.000 -0.000 +0.000 +0.000 +0.000 -0.000 +0.000 +0.000 -0.000 +0.000 +0.000 -0.000 -0.000 -0.000


Dumping 'jdft.n_up' ... done
Dumping 'jdft.n_dn' ... done
Dumping 'jdft.tau_up' ... done
Dumping 'jdft.tau_dn' ... done
Dumping 'jdft.eigenvals' ... done
Dumping 'jdft.eigStats' ... 
	eMin: -4.237025 at state 36 ( [ +0.000000 +0.000000 +0.000000 ] spin -1 )
	HOMO: -0.098028 at state 30 ( [ -0.166667 +0.000000 +0.000000 ] spin 1 )
	mu  : -0.097800
	LUMO: -0.097752 at state 69 ( [ -0.083333 +0.000000 +0.000000 ] spin -1 )
	eMax: +0.242270 at state 18 ( [ +0.500000 +0.000000 +0.000000 ] spin 1 )
	HOMO-LUMO gap: +0.000276
	Optical gap  : +0.001264 at state 69 ( [ -0.083333 +0.000000 +0.000000 ] spin -1 )
Dumping 'jdft.kPts' ... done
Dumping 'jdft.dosUp' ... done.
Dumping 'jdft.dosDn' ... done.
End date and time: Thu Dec  9 13:00:43 2021  (Duration: 0-7:14:08.36)
Done!
