
*************** JDFTx 1.7.0 (git hash 5f12716a) ***************

Start date and time: Thu Sep  8 21:30:52 2022
Executable /home/nisi6161/jdftx_alpine/build/jdftx with command-line: -i in
Running on hosts (process indices):  c3cpu-a2-u26-2.rc.int.colorado.edu (0-17)
Divided in process groups (process indices):  0 (0)  1 (1)  2 (2)  3 (3)  4 (4)  5 (5)  6 (6)  7 (7)  8 (8)  9 (9)  10 (10)  11 (11)  12 (12)  13 (13)  14 (14)  15 (15)  16 (16)  17 (17)
Resource initialization completed at t[s]:      0.00
Run totals: 18 processes, 64 threads, 0 GPUs


Input parsed successfully to the following command list (including defaults):

basis kpoint-dependent
converge-empty-states yes
coords-type Cartesian
core-overlap-check none
coulomb-interaction Periodic
davidson-band-ratio 1.1
density-of-states Etol 1.000000e-06 Esigma 1.000000e-03 \
		Complete \
	Total \
	OrthoOrbital Ag 1   s \
	OrthoOrbital Ag 1   p \
	OrthoOrbital Ag 1   px \
	OrthoOrbital Ag 1   py \
	OrthoOrbital Ag 1   pz \
	OrthoOrbital Ag 1   d \
	OrthoOrbital Ag 1   dxy \
	OrthoOrbital Ag 1   dyz \
	OrthoOrbital Ag 1   dz2 \
	OrthoOrbital Ag 1   dxz \
	OrthoOrbital Ag 1   dx2-y2 \
	OrthoOrbital Ag 2   s \
	OrthoOrbital Ag 2   p \
	OrthoOrbital Ag 2   px \
	OrthoOrbital Ag 2   py \
	OrthoOrbital Ag 2   pz \
	OrthoOrbital Ag 2   d \
	OrthoOrbital Ag 2   dxy \
	OrthoOrbital Ag 2   dyz \
	OrthoOrbital Ag 2   dz2 \
	OrthoOrbital Ag 2   dxz \
	OrthoOrbital Ag 2   dx2-y2 \
	OrthoOrbital Ag 3   s \
	OrthoOrbital Ag 3   p \
	OrthoOrbital Ag 3   px \
	OrthoOrbital Ag 3   py \
	OrthoOrbital Ag 3   pz \
	OrthoOrbital Ag 3   d \
	OrthoOrbital Ag 3   dxy \
	OrthoOrbital Ag 3   dyz \
	OrthoOrbital Ag 3   dz2 \
	OrthoOrbital Ag 3   dxz \
	OrthoOrbital Ag 3   dx2-y2 \
	OrthoOrbital Ag 4   s \
	OrthoOrbital Ag 4   p \
	OrthoOrbital Ag 4   px \
	OrthoOrbital Ag 4   py \
	OrthoOrbital Ag 4   pz \
	OrthoOrbital Ag 4   d \
	OrthoOrbital Ag 4   dxy \
	OrthoOrbital Ag 4   dyz \
	OrthoOrbital Ag 4   dz2 \
	OrthoOrbital Ag 4   dxz \
	OrthoOrbital Ag 4   dx2-y2 \
	OrthoOrbital Ag 5   s \
	OrthoOrbital Ag 5   p \
	OrthoOrbital Ag 5   px \
	OrthoOrbital Ag 5   py \
	OrthoOrbital Ag 5   pz \
	OrthoOrbital Ag 5   d \
	OrthoOrbital Ag 5   dxy \
	OrthoOrbital Ag 5   dyz \
	OrthoOrbital Ag 5   dz2 \
	OrthoOrbital Ag 5   dxz \
	OrthoOrbital Ag 5   dx2-y2 \
	OrthoOrbital Ag 6   s \
	OrthoOrbital Ag 6   p \
	OrthoOrbital Ag 6   px \
	OrthoOrbital Ag 6   py \
	OrthoOrbital Ag 6   pz \
	OrthoOrbital Ag 6   d \
	OrthoOrbital Ag 6   dxy \
	OrthoOrbital Ag 6   dyz \
	OrthoOrbital Ag 6   dz2 \
	OrthoOrbital Ag 6   dxz \
	OrthoOrbital Ag 6   dx2-y2 \
	OrthoOrbital Ag 7   s \
	OrthoOrbital Ag 7   p \
	OrthoOrbital Ag 7   px \
	OrthoOrbital Ag 7   py \
	OrthoOrbital Ag 7   pz \
	OrthoOrbital Ag 7   d \
	OrthoOrbital Ag 7   dxy \
	OrthoOrbital Ag 7   dyz \
	OrthoOrbital Ag 7   dz2 \
	OrthoOrbital Ag 7   dxz \
	OrthoOrbital Ag 7   dx2-y2 \
	OrthoOrbital Ag 8   s \
	OrthoOrbital Ag 8   p \
	OrthoOrbital Ag 8   px \
	OrthoOrbital Ag 8   py \
	OrthoOrbital Ag 8   pz \
	OrthoOrbital Ag 8   d \
	OrthoOrbital Ag 8   dxy \
	OrthoOrbital Ag 8   dyz \
	OrthoOrbital Ag 8   dz2 \
	OrthoOrbital Ag 8   dxz \
	OrthoOrbital Ag 8   dx2-y2 \
	OrthoOrbital Ag 9   s \
	OrthoOrbital Ag 9   p \
	OrthoOrbital Ag 9   px \
	OrthoOrbital Ag 9   py \
	OrthoOrbital Ag 9   pz \
	OrthoOrbital Ag 9   d \
	OrthoOrbital Ag 9   dxy \
	OrthoOrbital Ag 9   dyz \
	OrthoOrbital Ag 9   dz2 \
	OrthoOrbital Ag 9   dxz \
	OrthoOrbital Ag 9   dx2-y2 \
	OrthoOrbital Ag 10   s \
	OrthoOrbital Ag 10   p \
	OrthoOrbital Ag 10   px \
	OrthoOrbital Ag 10   py \
	OrthoOrbital Ag 10   pz \
	OrthoOrbital Ag 10   d \
	OrthoOrbital Ag 10   dxy \
	OrthoOrbital Ag 10   dyz \
	OrthoOrbital Ag 10   dz2 \
	OrthoOrbital Ag 10   dxz \
	OrthoOrbital Ag 10   dx2-y2
dump End ElecDensity KEdensity BandEigs EigStats RhoAtom DOS Kpoints
dump Ionic State IonicPositions Lattice EigStats Ecomponents
dump 
dump 
dump 
dump 
dump 
dump 
dump 
dump 
dump-name jdft.$VAR
elec-cutoff 20
elec-eigen-algo Davidson
elec-ex-corr gga-PBE
elec-initial-magnetization 0.000000 no
elec-n-bands 114
elec-smearing Fermi 0.001
electronic-minimize  \
	dirUpdateScheme      FletcherReeves \
	linminMethod         DirUpdateRecommended \
	nIterations          100 \
	history              15 \
	knormThreshold       0 \
	energyDiffThreshold  1e-07 \
	nEnergyDiff          2 \
	alphaTstart          1 \
	alphaTmin            1e-10 \
	updateTestStepSize   yes \
	alphaTreduceFactor   0.1 \
	alphaTincreaseFactor 3 \
	nAlphaAdjustMax      3 \
	wolfeEnergy          0.0001 \
	wolfeGradient        0.9 \
	fdTest               no
exchange-regularization WignerSeitzTruncated
fluid LinearPCM 298.000000 1.013250
fluid-anion F- 0.5 MeanFieldLJ \
	epsBulk 1 \
	pMol 0 \
	epsInf 1 \
	Pvap 0 \
	sigmaBulk 0 \
	Rvdw 2.24877 \
	Res 0 \
	tauNuc 343133
fluid-cation Na+ 0.5 MeanFieldLJ \
	epsBulk 1 \
	pMol 0 \
	epsInf 1 \
	Pvap 0 \
	sigmaBulk 0 \
	Rvdw 2.19208 \
	Res 0 \
	tauNuc 343133
fluid-ex-corr lda-TF lda-PZ
fluid-gummel-loop 10 1.000000e-05
fluid-minimize  \
	dirUpdateScheme      PolakRibiere \
	linminMethod         DirUpdateRecommended \
	nIterations          400 \
	history              15 \
	knormThreshold       1e-11 \
	energyDiffThreshold  0 \
	nEnergyDiff          2 \
	alphaTstart          1 \
	alphaTmin            1e-10 \
	updateTestStepSize   yes \
	alphaTreduceFactor   0.1 \
	alphaTincreaseFactor 3 \
	nAlphaAdjustMax      6 \
	wolfeEnergy          0.0001 \
	wolfeGradient        0.9 \
	fdTest               no
fluid-solvent H2O 55.338 ScalarEOS \
	epsBulk 78.4 \
	pMol 0.92466 \
	epsInf 1.77 \
	Pvap 1.06736e-10 \
	sigmaBulk 4.62e-05 \
	Rvdw 2.61727 \
	Res 1.42 \
	tauNuc 343133 \
	poleEl 15 7 1
forces-output-coords Positions
ion Ag   3.837514000000001   1.716110000000000  13.037701999999998 1
ion Ag  -0.001005000000000   3.403183000000000   9.425451000000001 1
ion Ag   3.830185000000001   5.173321000000000   5.969989000000000 1
ion Ag  -0.003266000000000   6.911731000000001   2.408493000000000 1
ion Ag   0.007420000000000  -0.075523000000000  16.315035999999999 1
ion Ag   3.836379000000000   6.825246000000000  11.171514999999999 1
ion Ag   3.833401000000000   0.024340000000000   7.715487000000001 1
ion Ag  -0.006083000000000   1.711876000000000   4.102876000000000 1
ion Ag   3.825249000000000   3.504700000000001   0.826160000000000 1
ion Ag   0.004377000000000   5.086922000000001  14.732136999999998 1
ion-species /projects/musgravc/apps/jdftx-1.6.0/build/pseudopotentials/GBRV_v1.5/$ID_pbe_v1.uspp
ion-species /projects/musgravc/apps/jdftx-1.6.0/build/pseudopotentials/GBRV_v1.5/$ID_pbe_v1.2.uspp
ion-species /projects/musgravc/apps/jdftx-1.6.0/build/pseudopotentials/GBRV_v1.5/$ID_pbe_v1.4.uspp
ion-species /projects/musgravc/apps/jdftx-1.6.0/build/pseudopotentials/GBRV_v1.5/$ID_pbe_v1.5.uspp
ion-width Ecut
ionic-minimize  \
	dirUpdateScheme      L-BFGS \
	linminMethod         DirUpdateRecommended \
	nIterations          100 \
	history              15 \
	knormThreshold       0.0001 \
	energyDiffThreshold  0.0001 \
	nEnergyDiff          2 \
	alphaTstart          1 \
	alphaTmin            1e-10 \
	updateTestStepSize   yes \
	alphaTreduceFactor   0.1 \
	alphaTincreaseFactor 3 \
	nAlphaAdjustMax      3 \
	wolfeEnergy          0.0001 \
	wolfeGradient        0.9 \
	fdTest               no
kpoint   0.000000000000   0.000000000000   0.000000000000  1.00000000000000
kpoint-folding 9 7 1 
latt-move-scale 0 0 0
latt-scale 1 1 1 
lattice  \
	   7.665668000000000   -3.832835000000000    0.000000000000000  \
	   0.000000000000000    8.570479000000001    0.000000000000000  \
	   0.000000000000000    0.000000000000000   51.422865999999999 
lattice-minimize  \
	dirUpdateScheme      L-BFGS \
	linminMethod         DirUpdateRecommended \
	nIterations          0 \
	history              15 \
	knormThreshold       0 \
	energyDiffThreshold  1e-06 \
	nEnergyDiff          2 \
	alphaTstart          1 \
	alphaTmin            1e-10 \
	updateTestStepSize   yes \
	alphaTreduceFactor   0.1 \
	alphaTincreaseFactor 3 \
	nAlphaAdjustMax      3 \
	wolfeEnergy          0.0001 \
	wolfeGradient        0.9 \
	fdTest               no
lcao-params 30 1e-06 0.001
pcm-variant CANDLE
spintype z-spin
subspace-rotation-factor 1 yes
symmetries automatic
symmetry-threshold 0.0001
target-mu -0.24475 no

van-der-waals D3



---------- Setting up symmetries ----------

Found 8 point-group symmetries of the bravais lattice
Found 1 space-group symmetries with basis
Applied RMS atom displacement 0 bohrs to make symmetries exact.

---------- Initializing the Grid ----------
R = 
[      7.66567     -3.83284            0  ]
[            0      8.57048            0  ]
[            0            0      51.4229  ]
unit cell volume = 3378.4
G =
[   0.819653    0.36656         -0  ]
[          0    0.73312          0  ]
[          0         -0   0.122187  ]
Minimum fftbox size, Smin = [  32  40  208  ]
Chosen fftbox size, S = [  32  40  210  ]

---------- Exchange Correlation functional ----------
Initalized PBE GGA exchange.
Initalized PBE GGA correlation.

---------- Setting up pseudopotentials ----------
Width of ionic core gaussian charges (only for fluid interactions / plotting) set to 0.397384

Reading pseudopotential file '/projects/musgravc/apps/jdftx-1.6.0/build/pseudopotentials/GBRV_v1.5/ag_pbe_v1.4.uspp':
  Title: Ag.  Created by USPP 7.3.6 on 1-4-15
  Reference state energy: -147.606242.  19 valence electrons in orbitals:
    |400>  occupation: 2  eigenvalue: -3.637437
    |410>  occupation: 6  eigenvalue: -2.297267
    |420>  occupation: 10  eigenvalue: -0.417763
    |500>  occupation: 0.5  eigenvalue: -0.283525
    |510>  occupation: 0  eigenvalue: -0.122889
  lMax: 2  lLocal: 0  QijEcut: 5.5
  6 projectors sampled on a log grid with 717 points:
    l: 0  eig: -0.283528  rCut: 1.5
    l: 0  eig: -3.637440  rCut: 1.5
    l: 1  eig: -0.122892  rCut: 1.5
    l: 1  eig: -2.297267  rCut: 1.5
    l: 2  eig: -0.417762  rCut: 1.7
    l: 2  eig: -1.000000  rCut: 1.7
  Partial core density with radius 1.2
  Transforming core density to a uniform radial grid of dG=0.02 with 1382 points.
  Transforming local potential to a uniform radial grid of dG=0.02 with 1382 points.
  Transforming nonlocal projectors to a uniform radial grid of dG=0.02 with 432 points.
  Transforming density augmentations to a uniform radial grid of dG=0.02 with 1382 points.
  Transforming atomic orbitals to a uniform radial grid of dG=0.02 with 432 points.
  Core radius for overlap checks: 1.70 bohrs.

Initialized 1 species with 10 total atoms.

Folded 1 k-points by 9x7x1 to 63 k-points.

---------- Setting up k-points, bands, fillings ----------
Adding inversion symmetry to k-mesh for non-inversion-symmetric unit cell.
Reduced to 32 k-points under symmetry. 
Computing the number of bands and number of electrons
Calculating initial fillings.
nElectrons: 190.000000   nBands: 114   nStates: 64

----- Setting up reduced wavefunction bases (one per k-point) -----
average nbasis = 14428.778 , ideal nbasis = 14432.793

----- Initializing Supercell corresponding to k-point mesh -----
Lattice vector linear combinations in supercell:
[   9   0   0  ]
[   0   7   0  ]
[   0   0   1  ]
Supercell lattice vectors:
[  68.991  -26.8298  0  ]
[  0  59.9934  0  ]
[  0  0  51.4229  ]

Initializing DFT-D3 calculator:
	Parameters set for gga-PBE functional
	s6:  1.000  s_r6:  1.217
	s8:  0.722  s_r8:  1.000
	Per-atom parameters loaded for:
	Ag:  sqrtQ[a0]:  5.443  Rcov[a0]:  2.173  CN: [ 0.00 0.97 ]

Initializing DFT-D2 calculator for fluid / solvation:
	Ag:  C6:  427.91 Eh-a0^6  R0: 3.097 a0

---------- Setting up ewald sum ----------
Optimum gaussian width for ewald sums = 4.078313 bohr.
Real space sum over 975 unit cells with max indices [  7  6  2  ]
Reciprocal space sum over 4257 terms with max indices [  4  5  21  ]

Computing DFT-D3 correction:
# coordination-number Ag 8.164 8.803 8.880 6.765 4.791 8.881 8.803 8.163 4.792 6.766
# diagonal-C6 Ag 268.61 268.61 268.61 268.61 268.61 268.61 268.61 268.61 268.61 268.61
EvdW_6 =   -0.054353
EvdW_8 =   -0.078019

---------- Allocating electronic variables ----------
Initializing wave functions:  linear combination of atomic orbitals
Ag pseudo-atom occupations:   s ( 2 1 )  p ( 6 0 )  d ( 10 )
	FillingsUpdate:  mu: -0.244750000  nElectrons: 190.000000  magneticMoment: [ Abs: 0.00122  Tot: +0.00004 ]
LCAOMinimize: Iter:   0  G: -1429.3875644203053525  |grad|_K:  9.314e-04  alpha:  1.000e+00
	FillingsUpdate:  mu: -0.244750000  nElectrons: 190.000000  magneticMoment: [ Abs: 0.00093  Tot: +0.00004 ]
LCAOMinimize: Iter:   1  G: -1429.4317957064154143  |grad|_K:  1.031e-03  alpha:  2.639e-01  linmin:  5.180e-02  cgtest: -5.589e-01  t[s]:     83.74
	FillingsUpdate:  mu: -0.244750000  nElectrons: 190.000000  magneticMoment: [ Abs: 0.00077  Tot: +0.00011 ]
LCAOMinimize: Iter:   2  G: -1429.4472878986375690  |grad|_K:  1.000e-03  alpha:  1.102e-01  linmin:  1.910e-03  cgtest:  1.011e+00  t[s]:    116.74
LCAOMinimize: Encountered beta<0, resetting CG.
	FillingsUpdate:  mu: -0.244750000  nElectrons: 190.000000  magneticMoment: [ Abs: 0.00080  Tot: +0.00010 ]
LCAOMinimize: Iter:   3  G: -1429.5114730293983030  |grad|_K:  8.015e-05  alpha:  1.170e-01  linmin:  3.857e-02  cgtest: -2.486e-01  t[s]:    150.24
	FillingsUpdate:  mu: -0.244750000  nElectrons: 190.000000  magneticMoment: [ Abs: 0.00079  Tot: +0.00013 ]
LCAOMinimize: Iter:   4  G: -1429.5125191805773284  |grad|_K:  3.384e-05  alpha:  3.182e-01  linmin: -9.909e-04  cgtest:  3.137e-01  t[s]:    182.98
	FillingsUpdate:  mu: -0.244750000  nElectrons: 190.000000  magneticMoment: [ Abs: 0.00079  Tot: +0.00013 ]
LCAOMinimize: Iter:   5  G: -1429.5125994577097117  |grad|_K:  1.432e-05  alpha:  1.289e-01  linmin: -3.612e-03  cgtest:  1.766e-02  t[s]:    216.71
	FillingsUpdate:  mu: -0.244750000  nElectrons: 190.000000  magneticMoment: [ Abs: 0.00079  Tot: +0.00013 ]
LCAOMinimize: Iter:   6  G: -1429.5126165607489384  |grad|_K:  1.636e-05  alpha:  1.502e-01  linmin: -2.403e-03  cgtest:  1.091e-02  t[s]:    250.47
	FillingsUpdate:  mu: -0.244750000  nElectrons: 190.000000  magneticMoment: [ Abs: 0.00079  Tot: +0.00013 ]
LCAOMinimize: Iter:   7  G: -1429.5126389162805935  |grad|_K:  2.772e-06  alpha:  1.487e-01  linmin: -8.310e-03  cgtest: -1.865e-01  t[s]:    283.59
	FillingsUpdate:  mu: -0.244750000  nElectrons: 190.000000  magneticMoment: [ Abs: 0.00079  Tot: +0.00013 ]
LCAOMinimize: Iter:   8  G: -1429.5126401726465701  |grad|_K:  2.641e-06  alpha:  2.755e-01  linmin: -1.363e-02  cgtest:  9.242e-02  t[s]:    317.18
	FillingsUpdate:  mu: -0.244750000  nElectrons: 190.000000  magneticMoment: [ Abs: 0.00079  Tot: +0.00014 ]
LCAOMinimize: Iter:   9  G: -1429.5126404830589308  |grad|_K:  1.076e-06  alpha:  7.789e-02  linmin: -5.724e-03  cgtest: -2.388e-01  t[s]:    351.00
	FillingsUpdate:  mu: -0.244750000  nElectrons: 190.000000  magneticMoment: [ Abs: 0.00079  Tot: +0.00014 ]
LCAOMinimize: Iter:  10  G: -1429.5126405967721439  |grad|_K:  6.232e-07  alpha:  1.478e-01  linmin: -7.099e-02  cgtest:  6.878e-01  t[s]:    383.73
LCAOMinimize: Encountered beta<0, resetting CG.
LCAOMinimize: Converged (|Delta G|<1.000000e-06 for 2 iters).
----- createFluidSolver() ----- (Fluid-side solver setup)
   Initializing fluid molecule 'H2O'
     Initializing site 'O'
       Electron density: proportional to exp(-r/0.36935)*erfc((r-0.51523)/0.36823) with norm 6.826
       Charge density: gaussian nuclear width 0.478731 with net site charge 0.826
       Polarizability: cuspless exponential with width 0.32 and norm 3.73
       Hard sphere radius: 2.57003 bohrs
       Positions in reference frame:
         [ +0.000000 +0.000000 +0.000000 ]
     Initializing site 'H'
       Electron density: proportional to exp(-r/0.34641)*erfc((r-0)/0.390882) with norm 0.587
       Charge density: gaussian nuclear width 0.377945 with net site charge -0.413
       Polarizability: cuspless exponential with width 0.39 and norm 3.3
       Positions in reference frame:
         [ +0.000000 -1.441945 +1.122523 ]
         [ +0.000000 +1.441945 +1.122523 ]
     Net charge: 0   dipole magnitude: 0.927204
     Initializing spherical shell mfKernel with radius 2.61727 Bohr
     deltaS corrections:
       site 'O': -7.54299
       site 'H': -6.83917
   Initializing fluid molecule 'Na+'
     Initializing site 'Na'
       Electron density: proportional to exp(-r/0.19682)*erfc((r-0.71491)/0.41314) with norm 8.1383
       Charge density: gaussian nuclear width 0.365347 with net site charge -1
       Hard sphere radius: 1.86327 bohrs
       Positions in reference frame:
         [ +0.000000 +0.000000 +0.000000 ]
     Net charge: -1   dipole magnitude: 0
     Initializing gaussian mfKernel with width: 1.55004 Bohr
     deltaS corrections:
       site 'Na': -22.3555
   Initializing fluid molecule 'F-'
     Initializing site 'F'
       Electron density: proportional to exp(-r/0.38886)*erfc((r-0)/0.438782) with norm 8
       Charge density: gaussian nuclear width 0.374796 with net site charge 1
       Hard sphere radius: 2.39995 bohrs
       Positions in reference frame:
         [ +0.000000 +0.000000 +0.000000 ]
     Net charge: 1   dipole magnitude: 0
     Initializing gaussian mfKernel with width: 1.59012 Bohr
     deltaS corrections:
       site 'F': -9.04335

Correction to mu due to finite nuclear width = -0.055801
   Cavity determined by nc: 0.00142 and sigma: 0.707107
   Nonlocal vdW cavity from gaussian model electron density with norm = 8 and sigma = 0.993594 bohr
   Charge asymmetry in cavity with sensitivity pCavity = 36.5 e-bohr/Eh
   Electrostatic cavity expanded by eta = 1.46 bohrs
   Weighted density cavitation model constrained by Nbulk: 0.0049383 bohr^-3, Pvap: 3.14029 kPa, Rvdw: 2.61727 bohr and sigmaBulk: 4.62e-05 Eh/bohr^2 at T: 298 K.
   Weighted density dispersion model using vdW pair potentials with single solvent site with sqrtC6eff: 0.77 SI.


---- Citations for features of the code used in this run ----

   Software package:
      R. Sundararaman, K. Letchworth-Weaver, K.A. Schwarz, D. Gunceler, Y. Ozhabes and T.A. Arias, 'JDFTx: software for joint density-functional theory', SoftwareX 6, 278 (2017)

   gga-PBE exchange-correlation functional:
      J.P. Perdew, K. Burke and M. Ernzerhof, Phys. Rev. Lett. 77, 3865 (1996)

   Pseudopotentials:
      KF Garrity, JW Bennett, KM Rabe and D Vanderbilt, Comput. Mater. Sci. 81, 446 (2014)

   DFT-D3 dispersion correction:
      S. Grimme, J. Antony, S. Ehrlich and H. Krieg, J. Chem. Phys. 132, 154104 (2010)

   DFT-D2 dispersion correction:
      S. Grimme, J. Comput. Chem. 27, 1787 (2006)

   Charge-asymmetric nonlocally-determined local-electric (CANDLE) solvation model:
      R. Sundararaman and W.A. Goddard III, J. Chem. Phys. 142, 064107 (2015)

   Total energy minimization with Auxiliary Hamiltonian:
      C. Freysoldt, S. Boeck, and J. Neugebauer, Phys. Rev. B 79, 241103(R) (2009)

   Grand-canonical (fixed-potential) DFT:
      R. Sundararaman, W. A. Goddard III and T. A. Arias, J. Chem. Phys. 146, 114104 (2017)

   Linear-tetrahedron sampling for density of states:
      G. Lehmann and M. Taut, Phys. status solidi (b) 54, 469 (1972)

This list may not be complete. Please suggest additional citations or
report any other bugs at https://github.com/shankar1729/jdftx/issues

Initialization completed successfully at t[s]:    389.72


Computing DFT-D3 correction:
# coordination-number Ag 8.164 8.803 8.880 6.765 4.791 8.881 8.803 8.163 4.792 6.766
# diagonal-C6 Ag 268.61 268.61 268.61 268.61 268.61 268.61 268.61 268.61 268.61 268.61
EvdW_6 =   -0.054353
EvdW_8 =   -0.078019
Fluid solver invoked on fresh (random / LCAO) wavefunctions
Running a vacuum solve first:

-------- Initial electronic minimization -----------
	FillingsUpdate:  mu: +0.112104438  nElectrons: 190.000000  magneticMoment: [ Abs: 0.00079  Tot: +0.00014 ]
ElecMinimize: Iter:   0  G: -1429.512902390472163  |grad|_K:  2.961e-05  alpha:  1.000e+00
	FillingsUpdate:  mu: +0.119193925  nElectrons: 190.000000  magneticMoment: [ Abs: 0.00061  Tot: +0.00014 ]
	SubspaceRotationAdjust: set factor to 1
ElecMinimize: Iter:   1  G: -1429.553935657415423  |grad|_K:  2.096e-05  alpha:  4.444e-01  linmin:  4.196e-05  t[s]:    456.84
	FillingsUpdate:  mu: +0.110072184  nElectrons: 190.000000  magneticMoment: [ Abs: 0.00046  Tot: +0.00013 ]
	SubspaceRotationAdjust: set factor to 0.91
ElecMinimize: Iter:   2  G: -1429.566924667828971  |grad|_K:  1.013e-05  alpha:  2.795e-01  linmin: -1.023e-05  t[s]:    496.82
	FillingsUpdate:  mu: +0.122777989  nElectrons: 190.000000  magneticMoment: [ Abs: 0.00035  Tot: +0.00011 ]
	SubspaceRotationAdjust: set factor to 0.707
ElecMinimize: Iter:   3  G: -1429.570554250458599  |grad|_K:  8.206e-06  alpha:  3.345e-01  linmin:  2.237e-05  t[s]:    537.51
	FillingsUpdate:  mu: +0.114279237  nElectrons: 190.000000  magneticMoment: [ Abs: 0.00028  Tot: +0.00009 ]
	SubspaceRotationAdjust: set factor to 0.524
ElecMinimize: Iter:   4  G: -1429.571895754953857  |grad|_K:  5.615e-06  alpha:  1.885e-01  linmin: -6.081e-06  t[s]:    578.19
	FillingsUpdate:  mu: +0.112308529  nElectrons: 190.000000  magneticMoment: [ Abs: 0.00024  Tot: +0.00008 ]
	SubspaceRotationAdjust: set factor to 0.361
ElecMinimize: Iter:   5  G: -1429.572436344913740  |grad|_K:  4.694e-06  alpha:  1.621e-01  linmin:  2.512e-05  t[s]:    618.84
	FillingsUpdate:  mu: +0.115420166  nElectrons: 190.000000  magneticMoment: [ Abs: 0.00017  Tot: +0.00006 ]
	SubspaceRotationAdjust: set factor to 0.557
ElecMinimize: Iter:   6  G: -1429.573063784552687  |grad|_K:  2.766e-06  alpha:  2.700e-01  linmin:  3.472e-05  t[s]:    658.85
	FillingsUpdate:  mu: +0.117643332  nElectrons: 190.000000  magneticMoment: [ Abs: 0.00014  Tot: +0.00005 ]
	SubspaceRotationAdjust: set factor to 0.456
ElecMinimize: Iter:   7  G: -1429.573300726904336  |grad|_K:  2.548e-06  alpha:  2.939e-01  linmin:  2.792e-05  t[s]:    699.67
	FillingsUpdate:  mu: +0.117764563  nElectrons: 190.000000  magneticMoment: [ Abs: 0.00011  Tot: +0.00004 ]
	SubspaceRotationAdjust: set factor to 0.311
ElecMinimize: Iter:   8  G: -1429.573409770977378  |grad|_K:  1.450e-06  alpha:  1.590e-01  linmin:  1.818e-05  t[s]:    740.43
	FillingsUpdate:  mu: +0.116330706  nElectrons: 190.000000  magneticMoment: [ Abs: 0.00009  Tot: +0.00002 ]
	SubspaceRotationAdjust: set factor to 0.321
ElecMinimize: Iter:   9  G: -1429.573488200564270  |grad|_K:  1.043e-06  alpha:  3.542e-01  linmin:  8.046e-05  t[s]:    780.37
	FillingsUpdate:  mu: +0.116970549  nElectrons: 190.000000  magneticMoment: [ Abs: 0.00006  Tot: +0.00001 ]
	SubspaceRotationAdjust: set factor to 0.314
ElecMinimize: Iter:  10  G: -1429.573530853059310  |grad|_K:  8.260e-07  alpha:  3.745e-01  linmin:  4.918e-05  t[s]:    821.28
	FillingsUpdate:  mu: +0.117686910  nElectrons: 190.000000  magneticMoment: [ Abs: 0.00005  Tot: +0.00001 ]
	SubspaceRotationAdjust: set factor to 0.246
ElecMinimize: Iter:  11  G: -1429.573549979225618  |grad|_K:  5.553e-07  alpha:  2.666e-01  linmin:  2.113e-05  t[s]:    861.84
	FillingsUpdate:  mu: +0.117753964  nElectrons: 190.000000  magneticMoment: [ Abs: 0.00004  Tot: +0.00000 ]
	SubspaceRotationAdjust: set factor to 0.308
ElecMinimize: Iter:  12  G: -1429.573562566983810  |grad|_K:  3.829e-07  alpha:  3.879e-01  linmin:  3.941e-05  t[s]:    901.97
	FillingsUpdate:  mu: +0.117565468  nElectrons: 190.000000  magneticMoment: [ Abs: 0.00003  Tot: +0.00000 ]
	SubspaceRotationAdjust: set factor to 0.284
ElecMinimize: Iter:  13  G: -1429.573568477152776  |grad|_K:  3.053e-07  alpha:  3.846e-01  linmin:  2.537e-05  t[s]:    942.53
	FillingsUpdate:  mu: +0.117580297  nElectrons: 190.000000  magneticMoment: [ Abs: 0.00002  Tot: -0.00000 ]
	SubspaceRotationAdjust: set factor to 0.246
ElecMinimize: Iter:  14  G: -1429.573571563649921  |grad|_K:  2.156e-07  alpha:  3.150e-01  linmin:  1.466e-05  t[s]:    983.52
	FillingsUpdate:  mu: +0.117737666  nElectrons: 190.000000  magneticMoment: [ Abs: 0.00002  Tot: -0.00000 ]
	SubspaceRotationAdjust: set factor to 0.275
ElecMinimize: Iter:  15  G: -1429.573573561427793  |grad|_K:  1.615e-07  alpha:  4.089e-01  linmin:  1.438e-05  t[s]:   1023.49
	FillingsUpdate:  mu: +0.117751380  nElectrons: 190.000000  magneticMoment: [ Abs: 0.00002  Tot: -0.00000 ]
	SubspaceRotationAdjust: set factor to 0.293
ElecMinimize: Iter:  16  G: -1429.573574615682446  |grad|_K:  1.212e-07  alpha:  3.850e-01  linmin:  1.146e-05  t[s]:   1064.40
	FillingsUpdate:  mu: +0.117685974  nElectrons: 190.000000  magneticMoment: [ Abs: 0.00001  Tot: -0.00000 ]
	SubspaceRotationAdjust: set factor to 0.261
ElecMinimize: Iter:  17  G: -1429.573575155760636  |grad|_K:  8.774e-08  alpha:  3.497e-01  linmin:  6.478e-06  t[s]:   1104.84
	FillingsUpdate:  mu: +0.117685434  nElectrons: 190.000000  magneticMoment: [ Abs: 0.00001  Tot: -0.00000 ]
	SubspaceRotationAdjust: set factor to 0.275
ElecMinimize: Iter:  18  G: -1429.573575464505893  |grad|_K:  6.660e-08  alpha:  3.815e-01  linmin:  4.841e-06  t[s]:   1145.32
	FillingsUpdate:  mu: +0.117725826  nElectrons: 190.000000  magneticMoment: [ Abs: 0.00001  Tot: -0.00000 ]
	SubspaceRotationAdjust: set factor to 0.299
ElecMinimize: Iter:  19  G: -1429.573575636890610  |grad|_K:  4.724e-08  alpha:  3.697e-01  linmin:  2.955e-06  t[s]:   1186.23
	FillingsUpdate:  mu: +0.117723467  nElectrons: 190.000000  magneticMoment: [ Abs: 0.00001  Tot: -0.00000 ]
	SubspaceRotationAdjust: set factor to 0.298
ElecMinimize: Iter:  20  G: -1429.573575732096060  |grad|_K:  3.675e-08  alpha:  4.055e-01  linmin:  2.248e-06  t[s]:   1226.69
	FillingsUpdate:  mu: +0.117708371  nElectrons: 190.000000  magneticMoment: [ Abs: 0.00001  Tot: -0.00000 ]
	SubspaceRotationAdjust: set factor to 0.269
ElecMinimize: Iter:  21  G: -1429.573575779628300  |grad|_K:  2.779e-08  alpha:  3.335e-01  linmin:  7.772e-07  t[s]:   1266.83
ElecMinimize: Converged (|Delta G|<1.000000e-07 for 2 iters).
Setting wave functions to eigenvectors of Hamiltonian
Converging empty states (this may take a while): |deigs|: 1.105e-02
Vacuum energy after initial minimize, F = -1429.573575779628300

Shifting auxilliary hamiltonian by -0.362458 to set nElectrons=190.000000

-------- Electronic minimization -----------
	Linear fluid (dielectric constant: 78.4, screening length: 8.12261 Bohr) occupying 0.493594 of unit cell:	Completed after 20 iterations at t[s]:   1376.73
	FillingsUpdate:  mu: -0.244750000  nElectrons: 190.000000  magneticMoment: [ Abs: 0.00000  Tot: -0.00000 ]
ElecMinimize: Iter:   0  G: -1429.574133229346899  |grad|_K:  3.232e-05  alpha:  1.000e+00
	Linear fluid (dielectric constant: 78.4, screening length: 8.12261 Bohr) occupying 0.504765 of unit cell:	Completed after 22 iterations at t[s]:   1412.51
	Linear fluid (dielectric constant: 78.4, screening length: 8.12261 Bohr) occupying 0.495534 of unit cell:	Completed after 19 iterations at t[s]:   1425.24
	FillingsUpdate:  mu: -0.244750000  nElectrons: 189.688229  magneticMoment: [ Abs: 0.00000  Tot: -0.00000 ]
	SubspaceRotationAdjust: set factor to 0.16
ElecMinimize: Iter:   1  G: -1429.584926891096302  |grad|_K:  2.157e-05  alpha:  1.433e-01  linmin:  1.444e-02  t[s]:   1443.54
	Linear fluid (dielectric constant: 78.4, screening length: 8.12261 Bohr) occupying 0.497538 of unit cell:	Completed after 14 iterations at t[s]:   1457.99
	Linear fluid (dielectric constant: 78.4, screening length: 8.12261 Bohr) occupying 0.499956 of unit cell:	Completed after 15 iterations at t[s]:   1469.77
	FillingsUpdate:  mu: -0.244750000  nElectrons: 189.672435  magneticMoment: [ Abs: 0.00000  Tot: -0.00000 ]
	SubspaceRotationAdjust: set factor to 0.0861
ElecMinimize: Iter:   2  G: -1429.596433736916424  |grad|_K:  1.082e-05  alpha:  3.404e-01  linmin:  4.205e-03  t[s]:   1487.58
	Linear fluid (dielectric constant: 78.4, screening length: 8.12261 Bohr) occupying 0.502426 of unit cell:	Completed after 17 iterations at t[s]:   1502.43
	Linear fluid (dielectric constant: 78.4, screening length: 8.12261 Bohr) occupying 0.503176 of unit cell:	Completed after 14 iterations at t[s]:   1514.60
	FillingsUpdate:  mu: -0.244750000  nElectrons: 189.467608  magneticMoment: [ Abs: 0.00000  Tot: -0.00000 ]
	SubspaceRotationAdjust: set factor to 0.0513
ElecMinimize: Iter:   3  G: -1429.600642433012808  |grad|_K:  1.081e-05  alpha:  4.294e-01  linmin:  1.180e-02  t[s]:   1532.93
	Linear fluid (dielectric constant: 78.4, screening length: 8.12261 Bohr) occupying 0.508196 of unit cell:	Completed after 16 iterations at t[s]:   1547.70
	Linear fluid (dielectric constant: 78.4, screening length: 8.12261 Bohr) occupying 0.512301 of unit cell:	Completed after 17 iterations at t[s]:   1560.25
	FillingsUpdate:  mu: -0.244750000  nElectrons: 189.158395  magneticMoment: [ Abs: 0.00000  Tot: +0.00000 ]
	SubspaceRotationAdjust: set factor to 0.0394
ElecMinimize: Iter:   4  G: -1429.603291590108483  |grad|_K:  1.367e-05  alpha:  7.399e-01  linmin:  9.015e-03  t[s]:   1578.20
	Linear fluid (dielectric constant: 78.4, screening length: 8.12261 Bohr) occupying 0.523611 of unit cell:	Completed after 18 iterations at t[s]:   1592.68
	Linear fluid (dielectric constant: 78.4, screening length: 8.12261 Bohr) occupying 0.518446 of unit cell:	Completed after 17 iterations at t[s]:   1605.22
	FillingsUpdate:  mu: -0.244750000  nElectrons: 189.049019  magneticMoment: [ Abs: 0.00000  Tot: -0.00000 ]
	SubspaceRotationAdjust: set factor to 0.0423
ElecMinimize: Iter:   5  G: -1429.609586266921042  |grad|_K:  6.891e-06  alpha:  3.332e-01  linmin: -9.117e-03  t[s]:   1623.58
	Linear fluid (dielectric constant: 78.4, screening length: 8.12261 Bohr) occupying 0.520206 of unit cell:	Completed after 15 iterations at t[s]:   1637.98
	Linear fluid (dielectric constant: 78.4, screening length: 8.12261 Bohr) occupying 0.521029 of unit cell:	Completed after 14 iterations at t[s]:   1650.32
	FillingsUpdate:  mu: -0.244750000  nElectrons: 189.083241  magneticMoment: [ Abs: 0.00001  Tot: -0.00000 ]
	SubspaceRotationAdjust: set factor to 0.0461
ElecMinimize: Iter:   6  G: -1429.612715800232081  |grad|_K:  7.963e-06  alpha:  5.005e-01  linmin:  9.178e-04  t[s]:   1668.63
	Linear fluid (dielectric constant: 78.4, screening length: 8.12261 Bohr) occupying 0.524081 of unit cell:	Completed after 16 iterations at t[s]:   1683.30
	Linear fluid (dielectric constant: 78.4, screening length: 8.12261 Bohr) occupying 0.523419 of unit cell:	Completed after 14 iterations at t[s]:   1695.51
	FillingsUpdate:  mu: -0.244750000  nElectrons: 189.127855  magneticMoment: [ Abs: 0.00001  Tot: -0.00000 ]
	SubspaceRotationAdjust: set factor to 0.0474
ElecMinimize: Iter:   7  G: -1429.615078170444576  |grad|_K:  6.397e-06  alpha:  3.796e-01  linmin: -4.255e-04  t[s]:   1713.65
	Linear fluid (dielectric constant: 78.4, screening length: 8.12261 Bohr) occupying 0.524405 of unit cell:	Completed after 15 iterations at t[s]:   1728.04
	Linear fluid (dielectric constant: 78.4, screening length: 8.12261 Bohr) occupying 0.524200 of unit cell:	Completed after 12 iterations at t[s]:   1739.71
	FillingsUpdate:  mu: -0.244750000  nElectrons: 189.137620  magneticMoment: [ Abs: 0.00001  Tot: -0.00000 ]
	SubspaceRotationAdjust: set factor to 0.0594
ElecMinimize: Iter:   8  G: -1429.616365038539698  |grad|_K:  5.048e-06  alpha:  2.926e-01  linmin: -1.136e-04  t[s]:   1757.73
	Linear fluid (dielectric constant: 78.4, screening length: 8.12261 Bohr) occupying 0.524314 of unit cell:	Completed after 14 iterations at t[s]:   1772.27
	Linear fluid (dielectric constant: 78.4, screening length: 8.12261 Bohr) occupying 0.524324 of unit cell:	Completed after 11 iterations at t[s]:   1784.30
	FillingsUpdate:  mu: -0.244750000  nElectrons: 189.134873  magneticMoment: [ Abs: 0.00001  Tot: -0.00000 ]
	SubspaceRotationAdjust: set factor to 0.0683
ElecMinimize: Iter:   9  G: -1429.617262423059856  |grad|_K:  4.159e-06  alpha:  3.316e-01  linmin: -1.699e-04  t[s]:   1802.39
	Linear fluid (dielectric constant: 78.4, screening length: 8.12261 Bohr) occupying 0.524126 of unit cell:	Completed after 14 iterations at t[s]:   1816.84
	Linear fluid (dielectric constant: 78.4, screening length: 8.12261 Bohr) occupying 0.524099 of unit cell:	Completed after 10 iterations at t[s]:   1828.82
	FillingsUpdate:  mu: -0.244750000  nElectrons: 189.129040  magneticMoment: [ Abs: 0.00001  Tot: -0.00000 ]
	SubspaceRotationAdjust: set factor to 0.0743
ElecMinimize: Iter:  10  G: -1429.617944926607379  |grad|_K:  3.894e-06  alpha:  3.713e-01  linmin: -6.714e-05  t[s]:   1846.78
	Linear fluid (dielectric constant: 78.4, screening length: 8.12261 Bohr) occupying 0.523793 of unit cell:	Completed after 13 iterations at t[s]:   1860.58
	Linear fluid (dielectric constant: 78.4, screening length: 8.12261 Bohr) occupying 0.523841 of unit cell:	Completed after 11 iterations at t[s]:   1872.63
	FillingsUpdate:  mu: -0.244750000  nElectrons: 189.125272  magneticMoment: [ Abs: 0.00000  Tot: -0.00000 ]
	SubspaceRotationAdjust: set factor to 0.0835
ElecMinimize: Iter:  11  G: -1429.618454905791168  |grad|_K:  3.188e-06  alpha:  3.175e-01  linmin: -5.302e-05  t[s]:   1890.84
	Linear fluid (dielectric constant: 78.4, screening length: 8.12261 Bohr) occupying 0.523747 of unit cell:	Completed after 12 iterations at t[s]:   1905.11
	Linear fluid (dielectric constant: 78.4, screening length: 8.12261 Bohr) occupying 0.523724 of unit cell:	Completed after 6 iterations at t[s]:   1916.43
	FillingsUpdate:  mu: -0.244750000  nElectrons: 189.121526  magneticMoment: [ Abs: 0.00000  Tot: -0.00000 ]
	SubspaceRotationAdjust: set factor to 0.0941
ElecMinimize: Iter:  12  G: -1429.618869468638422  |grad|_K:  3.214e-06  alpha:  3.850e-01  linmin: -7.206e-05  t[s]:   1934.71
	Linear fluid (dielectric constant: 78.4, screening length: 8.12261 Bohr) occupying 0.523821 of unit cell:	Completed after 13 iterations at t[s]:   1949.12
	Linear fluid (dielectric constant: 78.4, screening length: 8.12261 Bohr) occupying 0.523818 of unit cell:	Completed after 7 iterations at t[s]:   1960.36
	FillingsUpdate:  mu: -0.244750000  nElectrons: 189.114636  magneticMoment: [ Abs: 0.00000  Tot: -0.00000 ]
	SubspaceRotationAdjust: set factor to 0.106
ElecMinimize: Iter:  13  G: -1429.619274489479494  |grad|_K:  3.087e-06  alpha:  3.696e-01  linmin: -1.651e-05  t[s]:   1977.93
	Linear fluid (dielectric constant: 78.4, screening length: 8.12261 Bohr) occupying 0.524177 of unit cell:	Completed after 14 iterations at t[s]:   1992.57
	Linear fluid (dielectric constant: 78.4, screening length: 8.12261 Bohr) occupying 0.524173 of unit cell:	Completed after 2 iterations at t[s]:   2003.70
	FillingsUpdate:  mu: -0.244750000  nElectrons: 189.106929  magneticMoment: [ Abs: 0.00000  Tot: -0.00000 ]
	SubspaceRotationAdjust: set factor to 0.115
ElecMinimize: Iter:  14  G: -1429.619642906896388  |grad|_K:  2.914e-06  alpha:  3.654e-01  linmin:  7.773e-06  t[s]:   2021.86
	Linear fluid (dielectric constant: 78.4, screening length: 8.12261 Bohr) occupying 0.524734 of unit cell:	Completed after 12 iterations at t[s]:   2036.29
	Linear fluid (dielectric constant: 78.4, screening length: 8.12261 Bohr) occupying 0.524695 of unit cell:	Completed after 8 iterations at t[s]:   2048.09
	FillingsUpdate:  mu: -0.244750000  nElectrons: 189.103664  magneticMoment: [ Abs: 0.00000  Tot: -0.00000 ]
	SubspaceRotationAdjust: set factor to 0.123
ElecMinimize: Iter:  15  G: -1429.619947583215662  |grad|_K:  2.661e-06  alpha:  3.397e-01  linmin: -3.362e-05  t[s]:   2066.25
	Linear fluid (dielectric constant: 78.4, screening length: 8.12261 Bohr) occupying 0.525262 of unit cell:	Completed after 12 iterations at t[s]:   2080.13
	Linear fluid (dielectric constant: 78.4, screening length: 8.12261 Bohr) occupying 0.525248 of unit cell:	Completed after 6 iterations at t[s]:   2091.52
	FillingsUpdate:  mu: -0.244750000  nElectrons: 189.102803  magneticMoment: [ Abs: 0.00000  Tot: +0.00000 ]
	SubspaceRotationAdjust: set factor to 0.127
ElecMinimize: Iter:  16  G: -1429.620195946737567  |grad|_K:  2.240e-06  alpha:  3.311e-01  linmin: -2.897e-05  t[s]:   2109.84
	Linear fluid (dielectric constant: 78.4, screening length: 8.12261 Bohr) occupying 0.525676 of unit cell:	Completed after 14 iterations at t[s]:   2124.11
	Linear fluid (dielectric constant: 78.4, screening length: 8.12261 Bohr) occupying 0.525659 of unit cell:	Completed after 2 iterations at t[s]:   2135.23
	FillingsUpdate:  mu: -0.244750000  nElectrons: 189.099113  magneticMoment: [ Abs: 0.00000  Tot: +0.00000 ]
	SubspaceRotationAdjust: set factor to 0.132
ElecMinimize: Iter:  17  G: -1429.620364430644713  |grad|_K:  1.882e-06  alpha:  3.170e-01  linmin:  7.613e-06  t[s]:   2153.49
	Linear fluid (dielectric constant: 78.4, screening length: 8.12261 Bohr) occupying 0.525944 of unit cell:	Completed after 14 iterations at t[s]:   2167.91
	Linear fluid (dielectric constant: 78.4, screening length: 8.12261 Bohr) occupying 0.525933 of unit cell:	Completed after 2 iterations at t[s]:   2179.08
	FillingsUpdate:  mu: -0.244750000  nElectrons: 189.094960  magneticMoment: [ Abs: 0.00000  Tot: +0.00000 ]
	SubspaceRotationAdjust: set factor to 0.146
ElecMinimize: Iter:  18  G: -1429.620478220536143  |grad|_K:  1.489e-06  alpha:  3.041e-01  linmin:  2.788e-05  t[s]:   2196.77
	Linear fluid (dielectric constant: 78.4, screening length: 8.12261 Bohr) occupying 0.526091 of unit cell:	Completed after 11 iterations at t[s]:   2210.86
	Linear fluid (dielectric constant: 78.4, screening length: 8.12261 Bohr) occupying 0.526101 of unit cell:	Completed after 3 iterations at t[s]:   2221.73
	FillingsUpdate:  mu: -0.244750000  nElectrons: 189.093428  magneticMoment: [ Abs: 0.00000  Tot: +0.00000 ]
	SubspaceRotationAdjust: set factor to 0.167
ElecMinimize: Iter:  19  G: -1429.620554045303152  |grad|_K:  1.311e-06  alpha:  3.239e-01  linmin: -3.642e-05  t[s]:   2239.91
	Linear fluid (dielectric constant: 78.4, screening length: 8.12261 Bohr) occupying 0.526224 of unit cell:	Completed after 12 iterations at t[s]:   2254.28
	Linear fluid (dielectric constant: 78.4, screening length: 8.12261 Bohr) occupying 0.526216 of unit cell:	Completed after 2 iterations at t[s]:   2265.42
	FillingsUpdate:  mu: -0.244750000  nElectrons: 189.090715  magneticMoment: [ Abs: 0.00000  Tot: +0.00000 ]
	SubspaceRotationAdjust: set factor to 0.196
ElecMinimize: Iter:  20  G: -1429.620609005758070  |grad|_K:  1.055e-06  alpha:  3.022e-01  linmin: -2.296e-05  t[s]:   2283.50
	Linear fluid (dielectric constant: 78.4, screening length: 8.12261 Bohr) occupying 0.526301 of unit cell:	Completed after 11 iterations at t[s]:   2297.38
	Linear fluid (dielectric constant: 78.4, screening length: 8.12261 Bohr) occupying 0.526309 of unit cell:	Completed after 8 iterations at t[s]:   2308.61
	FillingsUpdate:  mu: -0.244750000  nElectrons: 189.083811  magneticMoment: [ Abs: 0.00000  Tot: +0.00000 ]
	SubspaceRotationAdjust: set factor to 0.221
ElecMinimize: Iter:  21  G: -1429.620648016928044  |grad|_K:  1.007e-06  alpha:  3.314e-01  linmin:  4.058e-05  t[s]:   2326.71
	Linear fluid (dielectric constant: 78.4, screening length: 8.12261 Bohr) occupying 0.526420 of unit cell:	Completed after 13 iterations at t[s]:   2341.05
	Linear fluid (dielectric constant: 78.4, screening length: 8.12261 Bohr) occupying 0.526411 of unit cell:	Completed after 4 iterations at t[s]:   2352.45
	FillingsUpdate:  mu: -0.244750000  nElectrons: 189.077852  magneticMoment: [ Abs: 0.00000  Tot: +0.00000 ]
	SubspaceRotationAdjust: set factor to 0.255
ElecMinimize: Iter:  22  G: -1429.620680690964491  |grad|_K:  8.300e-07  alpha:  3.055e-01  linmin:  4.095e-06  t[s]:   2370.59
	Linear fluid (dielectric constant: 78.4, screening length: 8.12261 Bohr) occupying 0.526512 of unit cell:	Completed after 12 iterations at t[s]:   2384.95
	Linear fluid (dielectric constant: 78.4, screening length: 8.12261 Bohr) occupying 0.526511 of unit cell:	Completed after 0 iterations at t[s]:   2395.62
	FillingsUpdate:  mu: -0.244750000  nElectrons: 189.074894  magneticMoment: [ Abs: 0.00000  Tot: +0.00000 ]
	SubspaceRotationAdjust: set factor to 0.251
ElecMinimize: Iter:  23  G: -1429.620702750445162  |grad|_K:  7.867e-07  alpha:  3.031e-01  linmin: -9.258e-06  t[s]:   2413.93
	Linear fluid (dielectric constant: 78.4, screening length: 8.12261 Bohr) occupying 0.526633 of unit cell:	Completed after 11 iterations at t[s]:   2427.93
	Linear fluid (dielectric constant: 78.4, screening length: 8.12261 Bohr) occupying 0.526620 of unit cell:	Completed after 8 iterations at t[s]:   2439.74
	FillingsUpdate:  mu: -0.244750000  nElectrons: 189.068415  magneticMoment: [ Abs: 0.00000  Tot: +0.00000 ]
	SubspaceRotationAdjust: set factor to 0.243
ElecMinimize: Iter:  24  G: -1429.620720592694624  |grad|_K:  5.849e-07  alpha:  2.724e-01  linmin:  1.548e-05  t[s]:   2458.04
	Linear fluid (dielectric constant: 78.4, screening length: 8.12261 Bohr) occupying 0.526701 of unit cell:	Completed after 6 iterations at t[s]:   2471.34
	Linear fluid (dielectric constant: 78.4, screening length: 8.12261 Bohr) occupying 0.526704 of unit cell:	Completed after 2 iterations at t[s]:   2482.12
	FillingsUpdate:  mu: -0.244750000  nElectrons: 189.065597  magneticMoment: [ Abs: 0.00000  Tot: +0.00000 ]
	SubspaceRotationAdjust: set factor to 0.249
ElecMinimize: Iter:  25  G: -1429.620730772667002  |grad|_K:  4.872e-07  alpha:  2.819e-01  linmin: -5.393e-06  t[s]:   2500.40
	Linear fluid (dielectric constant: 78.4, screening length: 8.12261 Bohr) occupying 0.526774 of unit cell:	Completed after 9 iterations at t[s]:   2514.26
	Linear fluid (dielectric constant: 78.4, screening length: 8.12261 Bohr) occupying 0.526776 of unit cell:	Completed after 0 iterations at t[s]:   2525.02
	FillingsUpdate:  mu: -0.244750000  nElectrons: 189.064736  magneticMoment: [ Abs: 0.00000  Tot: +0.00000 ]
	SubspaceRotationAdjust: set factor to 0.248
ElecMinimize: Iter:  26  G: -1429.620737999166749  |grad|_K:  3.901e-07  alpha:  2.879e-01  linmin: -1.829e-05  t[s]:   2543.37
	Linear fluid (dielectric constant: 78.4, screening length: 8.12261 Bohr) occupying 0.526829 of unit cell:	Completed after 10 iterations at t[s]:   2557.33
	Linear fluid (dielectric constant: 78.4, screening length: 8.12261 Bohr) occupying 0.526821 of unit cell:	Completed after 3 iterations at t[s]:   2568.60
	FillingsUpdate:  mu: -0.244750000  nElectrons: 189.062950  magneticMoment: [ Abs: 0.00000  Tot: +0.00000 ]
	SubspaceRotationAdjust: set factor to 0.255
ElecMinimize: Iter:  27  G: -1429.620742001325880  |grad|_K:  2.920e-07  alpha:  2.483e-01  linmin:  2.581e-05  t[s]:   2586.73
	Linear fluid (dielectric constant: 78.4, screening length: 8.12261 Bohr) occupying 0.526846 of unit cell:	Completed after 8 iterations at t[s]:   2600.59
	Linear fluid (dielectric constant: 78.4, screening length: 8.12261 Bohr) occupying 0.526851 of unit cell:	Completed after 2 iterations at t[s]:   2611.57
	FillingsUpdate:  mu: -0.244750000  nElectrons: 189.062687  magneticMoment: [ Abs: 0.00000  Tot: +0.00000 ]
	SubspaceRotationAdjust: set factor to 0.282
ElecMinimize: Iter:  28  G: -1429.620744649885410  |grad|_K:  2.359e-07  alpha:  2.944e-01  linmin: -2.230e-05  t[s]:   2629.56
	Linear fluid (dielectric constant: 78.4, screening length: 8.12261 Bohr) occupying 0.526865 of unit cell:	Completed after 9 iterations at t[s]:   2643.19
	Linear fluid (dielectric constant: 78.4, screening length: 8.12261 Bohr) occupying 0.526865 of unit cell:	Completed after 0 iterations at t[s]:   2654.05
	FillingsUpdate:  mu: -0.244750000  nElectrons: 189.063180  magneticMoment: [ Abs: 0.00000  Tot: +0.00000 ]
	SubspaceRotationAdjust: set factor to 0.293
ElecMinimize: Iter:  29  G: -1429.620746320582612  |grad|_K:  2.038e-07  alpha:  2.834e-01  linmin:  1.415e-05  t[s]:   2672.13
	Linear fluid (dielectric constant: 78.4, screening length: 8.12261 Bohr) occupying 0.526869 of unit cell:	Completed after 10 iterations at t[s]:   2685.97
	Linear fluid (dielectric constant: 78.4, screening length: 8.12261 Bohr) occupying 0.526868 of unit cell:	Completed after 2 iterations at t[s]:   2697.01
	FillingsUpdate:  mu: -0.244750000  nElectrons: 189.062623  magneticMoment: [ Abs: 0.00000  Tot: +0.00000 ]
	SubspaceRotationAdjust: set factor to 0.281
ElecMinimize: Iter:  30  G: -1429.620747448286465  |grad|_K:  1.682e-07  alpha:  2.574e-01  linmin:  1.847e-06  t[s]:   2715.09
	Linear fluid (dielectric constant: 78.4, screening length: 8.12261 Bohr) occupying 0.526864 of unit cell:	Completed after 9 iterations at t[s]:   2728.99
	Linear fluid (dielectric constant: 78.4, screening length: 8.12261 Bohr) occupying 0.526864 of unit cell:	Completed after 0 iterations at t[s]:   2739.71
	FillingsUpdate:  mu: -0.244750000  nElectrons: 189.063200  magneticMoment: [ Abs: 0.00000  Tot: +0.00000 ]
	SubspaceRotationAdjust: set factor to 0.288
ElecMinimize: Iter:  31  G: -1429.620748220947007  |grad|_K:  1.331e-07  alpha:  2.584e-01  linmin: -2.469e-05  t[s]:   2757.96
	Linear fluid (dielectric constant: 78.4, screening length: 8.12261 Bohr) occupying 0.526856 of unit cell:	Completed after 2 iterations at t[s]:   2771.35
	Linear fluid (dielectric constant: 78.4, screening length: 8.12261 Bohr) occupying 0.526854 of unit cell:	Completed after 1 iterations at t[s]:   2782.31
	FillingsUpdate:  mu: -0.244750000  nElectrons: 189.063507  magneticMoment: [ Abs: 0.00000  Tot: +0.00000 ]
	SubspaceRotationAdjust: set factor to 0.303
ElecMinimize: Iter:  32  G: -1429.620748792115137  |grad|_K:  1.124e-07  alpha:  3.035e-01  linmin: -1.250e-05  t[s]:   2799.84
	Linear fluid (dielectric constant: 78.4, screening length: 8.12261 Bohr) occupying 0.526841 of unit cell:	Completed after 7 iterations at t[s]:   2813.60
	Linear fluid (dielectric constant: 78.4, screening length: 8.12261 Bohr) occupying 0.526842 of unit cell:	Completed after 0 iterations at t[s]:   2824.44
	FillingsUpdate:  mu: -0.244750000  nElectrons: 189.063688  magneticMoment: [ Abs: 0.00000  Tot: +0.00000 ]
	SubspaceRotationAdjust: set factor to 0.305
ElecMinimize: Iter:  33  G: -1429.620749175176115  |grad|_K:  9.807e-08  alpha:  2.861e-01  linmin: -2.926e-06  t[s]:   2842.53
	Linear fluid (dielectric constant: 78.4, screening length: 8.12261 Bohr) occupying 0.526828 of unit cell:	Completed after 9 iterations at t[s]:   2856.49
	Linear fluid (dielectric constant: 78.4, screening length: 8.12261 Bohr) occupying 0.526831 of unit cell:	Completed after 2 iterations at t[s]:   2867.47
	FillingsUpdate:  mu: -0.244750000  nElectrons: 189.064331  magneticMoment: [ Abs: 0.00000  Tot: +0.00000 ]
	SubspaceRotationAdjust: set factor to 0.267
ElecMinimize: Iter:  34  G: -1429.620749404616163  |grad|_K:  8.456e-08  alpha:  2.256e-01  linmin:  4.626e-05  t[s]:   2885.41
	Linear fluid (dielectric constant: 78.4, screening length: 8.12261 Bohr) occupying 0.526820 of unit cell:	Completed after 7 iterations at t[s]:   2899.41
	Linear fluid (dielectric constant: 78.4, screening length: 8.12261 Bohr) occupying 0.526820 of unit cell:	Completed after 0 iterations at t[s]:   2910.19
	FillingsUpdate:  mu: -0.244750000  nElectrons: 189.064326  magneticMoment: [ Abs: 0.00000  Tot: -0.00000 ]
	SubspaceRotationAdjust: set factor to 0.252
ElecMinimize: Iter:  35  G: -1429.620749575543186  |grad|_K:  6.702e-08  alpha:  2.286e-01  linmin: -9.582e-05  t[s]:   2928.25
	Linear fluid (dielectric constant: 78.4, screening length: 8.12261 Bohr) occupying 0.526812 of unit cell:	Completed after 2 iterations at t[s]:   2941.70
	Linear fluid (dielectric constant: 78.4, screening length: 8.12261 Bohr) occupying 0.526810 of unit cell:	Completed after 0 iterations at t[s]:   2952.53
	FillingsUpdate:  mu: -0.244750000  nElectrons: 189.064566  magneticMoment: [ Abs: 0.00000  Tot: -0.00000 ]
	SubspaceRotationAdjust: set factor to 0.284
ElecMinimize: Iter:  36  G: -1429.620749716036016  |grad|_K:  5.396e-08  alpha:  2.874e-01  linmin: -3.494e-05  t[s]:   2970.52
	Linear fluid (dielectric constant: 78.4, screening length: 8.12261 Bohr) occupying 0.526802 of unit cell:	Completed after 5 iterations at t[s]:   2984.25
	Linear fluid (dielectric constant: 78.4, screening length: 8.12261 Bohr) occupying 0.526802 of unit cell:	Completed after 0 iterations at t[s]:   2994.84
	FillingsUpdate:  mu: -0.244750000  nElectrons: 189.064906  magneticMoment: [ Abs: 0.00000  Tot: -0.00000 ]
	SubspaceRotationAdjust: set factor to 0.288
ElecMinimize: Iter:  37  G: -1429.620749802026239  |grad|_K:  4.725e-08  alpha:  2.767e-01  linmin: -1.395e-05  t[s]:   3012.46
	Linear fluid (dielectric constant: 78.4, screening length: 8.12261 Bohr) occupying 0.526796 of unit cell:	Completed after 2 iterations at t[s]:   3026.05
	Linear fluid (dielectric constant: 78.4, screening length: 8.12261 Bohr) occupying 0.526796 of unit cell:	Completed after 0 iterations at t[s]:   3036.98
	FillingsUpdate:  mu: -0.244750000  nElectrons: 189.065021  magneticMoment: [ Abs: 0.00000  Tot: -0.00000 ]
	SubspaceRotationAdjust: set factor to 0.326
ElecMinimize: Iter:  38  G: -1429.620749867567156  |grad|_K:  3.806e-08  alpha:  2.765e-01  linmin: -2.058e-05  t[s]:   3054.79
ElecMinimize: Converged (|Delta G|<1.000000e-07 for 2 iters).
Setting wave functions to eigenvectors of Hamiltonian
Converging empty states (this may take a while): |deigs|: 2.374e-03
Single-point solvation energy estimate, DeltaG = -0.047174087938856

Computing DFT-D3 correction:
# coordination-number Ag 8.164 8.803 8.880 6.765 4.791 8.881 8.803 8.163 4.792 6.766
# diagonal-C6 Ag 268.61 268.61 268.61 268.61 268.61 268.61 268.61 268.61 268.61 268.61
EvdW_6 =   -0.054353
EvdW_8 =   -0.078019

# Ionic positions in cartesian coordinates:
ion Ag   3.837514000000001   1.716110000000000  13.037701999999998 1
ion Ag  -0.001005000000000   3.403183000000000   9.425451000000001 1
ion Ag   3.830185000000001   5.173321000000000   5.969989000000000 1
ion Ag  -0.003266000000000   6.911731000000001   2.408493000000000 1
ion Ag   0.007420000000000  -0.075523000000000  16.315035999999999 1
ion Ag   3.836379000000000   6.825246000000000  11.171514999999999 1
ion Ag   3.833401000000000   0.024340000000000   7.715487000000001 1
ion Ag  -0.006083000000000   1.711876000000000   4.102876000000000 1
ion Ag   3.825249000000000   3.504700000000001   0.826160000000000 1
ion Ag   0.004377000000000   5.086922000000001  14.732136999999998 1

# Forces in Cartesian coordinates:
force Ag  -0.000163055002988  -0.000039206990062  -0.001488685628550 1
force Ag   0.000188435639250   0.000072684269643   0.001950867277339 1
force Ag  -0.000115871573613  -0.000356658007863  -0.001857415287308 1
force Ag  -0.000005516122460   0.000742011633576   0.003316768668251 1
force Ag   0.000028881976446  -0.000233966452942   0.000390062419111 1
force Ag   0.000108912725511   0.000359042562312   0.001845444671924 1
force Ag  -0.000188124494199  -0.000072934404473  -0.001954918528457 1
force Ag   0.000176668300356   0.000039416025994   0.001496430973669 1
force Ag  -0.000027975576008   0.000233062456551  -0.000392126074257 1
force Ag  -0.000008858556076  -0.000734495447789  -0.003313744495441 1

# Energy components:
   A_diel =        0.1312388210579479
   Eewald =     5445.3037628160127497
       EH =     6755.8698580234595283
     Eloc =   -13909.3484433001576690
      Enl =       39.5896510249112765
     EvdW =       -0.1323720401601881
      Exc =     -144.6748662609817586
 Exc_core =        2.0817048462047798
       KE =      335.2331161490236013
  MuShift =        0.0521727647977374
-------------------------------------
     Etot =    -1475.8941771558329492
       TS =        0.0002365081540864
-------------------------------------
        F =    -1475.8944136639870521
      muN =      -46.2736637964199033
-------------------------------------
        G =    -1429.6207498675671559


Dumping 'jdft.fillings' ... done
Dumping 'jdft.wfns' ... done
Dumping 'jdft.fluidState' ... done
Dumping 'jdft.ionpos' ... done
Dumping 'jdft.lattice' ... done
Dumping 'jdft.eigenvals' ... done
Dumping 'jdft.eigStats' ... 
	eMin: -3.628115 at state 32 ( [ +0.000000 +0.000000 +0.000000 ] spin -1 )
	HOMO: -0.245083 at state 30 ( [ +0.444444 -0.285714 +0.000000 ] spin 1 )
	mu  : -0.244750
	LUMO: -0.244626 at state 42 ( [ +0.111111 -0.142857 +0.000000 ] spin -1 )
	eMax: +0.121486 at state 13 ( [ +0.222222 +0.285714 +0.000000 ] spin 1 )
	HOMO-LUMO gap: +0.000457
	Optical gap  : +0.014457 at state 30 ( [ +0.444444 -0.285714 +0.000000 ] spin 1 )
Dumping 'jdft.Ecomponents' ... done
IonicMinimize: Iter:   0  G: -1429.620749867567156  |grad|_K:  1.195e-03  t[s]:   3160.32

#--- Lowdin population analysis ---
# oxidation-state Ag -0.024 +0.004 -0.027 +0.120 +0.430 -0.027 +0.004 -0.024 +0.430 +0.120
# magnetic-moments Ag -0.000 -0.000 -0.000 -0.000 -0.000 -0.000 -0.000 -0.000 -0.000 -0.000


Computing DFT-D3 correction:
# coordination-number Ag 8.169 8.805 8.882 6.772 4.789 8.883 8.804 8.168 4.789 6.772
# diagonal-C6 Ag 268.61 268.61 268.61 268.61 268.61 268.61 268.61 268.61 268.61 268.61
EvdW_6 =   -0.054358
EvdW_8 =   -0.078023
Shifting auxilliary hamiltonian by -0.000020 to set nElectrons=189.065021

-------- Electronic minimization -----------
	Linear fluid (dielectric constant: 78.4, screening length: 8.12261 Bohr) occupying 0.526806 of unit cell:	Completed after 7 iterations at t[s]:   3175.32
	FillingsUpdate:  mu: -0.244750000  nElectrons: 189.065021  magneticMoment: [ Abs: 0.00000  Tot: -0.00000 ]
ElecMinimize: Iter:   0  G: -1429.620789195692623  |grad|_K:  1.602e-07  alpha:  1.000e+00
	Linear fluid (dielectric constant: 78.4, screening length: 8.12261 Bohr) occupying 0.526800 of unit cell:	Completed after 14 iterations at t[s]:   3209.61
	Linear fluid (dielectric constant: 78.4, screening length: 8.12261 Bohr) occupying 0.526805 of unit cell:	Completed after 12 iterations at t[s]:   3221.87
	FillingsUpdate:  mu: -0.244750000  nElectrons: 189.066004  magneticMoment: [ Abs: 0.00000  Tot: -0.00000 ]
	SubspaceRotationAdjust: set factor to 0.216
ElecMinimize: Iter:   1  G: -1429.620789823889027  |grad|_K:  1.457e-07  alpha:  2.304e-01  linmin:  3.757e-06  t[s]:   3240.06
	Linear fluid (dielectric constant: 78.4, screening length: 8.12261 Bohr) occupying 0.526805 of unit cell:	Completed after 10 iterations at t[s]:   3253.93
	Linear fluid (dielectric constant: 78.4, screening length: 8.12261 Bohr) occupying 0.526805 of unit cell:	Completed after 2 iterations at t[s]:   3265.27
	FillingsUpdate:  mu: -0.244750000  nElectrons: 189.065054  magneticMoment: [ Abs: 0.00000  Tot: -0.00000 ]
	SubspaceRotationAdjust: set factor to 0.154
ElecMinimize: Iter:   2  G: -1429.620790294600511  |grad|_K:  7.004e-08  alpha:  2.095e-01  linmin:  6.739e-05  t[s]:   3283.42
	Linear fluid (dielectric constant: 78.4, screening length: 8.12261 Bohr) occupying 0.526805 of unit cell:	Completed after 2 iterations at t[s]:   3296.63
	Linear fluid (dielectric constant: 78.4, screening length: 8.12261 Bohr) occupying 0.526805 of unit cell:	Completed after 2 iterations at t[s]:   3307.90
	FillingsUpdate:  mu: -0.244750000  nElectrons: 189.065028  magneticMoment: [ Abs: 0.00000  Tot: -0.00000 ]
	SubspaceRotationAdjust: set factor to 0.195
ElecMinimize: Iter:   3  G: -1429.620790522355719  |grad|_K:  5.275e-08  alpha:  4.464e-01  linmin: -1.238e-05  t[s]:   3325.87
	Linear fluid (dielectric constant: 78.4, screening length: 8.12261 Bohr) occupying 0.526805 of unit cell:	Completed after 6 iterations at t[s]:   3339.08
	Linear fluid (dielectric constant: 78.4, screening length: 8.12261 Bohr) occupying 0.526805 of unit cell:	Completed after 2 iterations at t[s]:   3350.24
	FillingsUpdate:  mu: -0.244750000  nElectrons: 189.065060  magneticMoment: [ Abs: 0.00000  Tot: -0.00000 ]
	SubspaceRotationAdjust: set factor to 0.224
ElecMinimize: Iter:   4  G: -1429.620790633497109  |grad|_K:  3.985e-08  alpha:  3.788e-01  linmin: -2.934e-05  t[s]:   3368.27
	Linear fluid (dielectric constant: 78.4, screening length: 8.12261 Bohr) occupying 0.526806 of unit cell:	Completed after 8 iterations at t[s]:   3382.00
	Linear fluid (dielectric constant: 78.4, screening length: 8.12261 Bohr) occupying 0.526807 of unit cell:	Completed after 0 iterations at t[s]:   3392.97
	FillingsUpdate:  mu: -0.244750000  nElectrons: 189.064713  magneticMoment: [ Abs: 0.00000  Tot: -0.00000 ]
	SubspaceRotationAdjust: set factor to 0.206
ElecMinimize: Iter:   5  G: -1429.620790702973636  |grad|_K:  3.735e-08  alpha:  4.048e-01  linmin: -4.247e-05  t[s]:   3411.19
	Linear fluid (dielectric constant: 78.4, screening length: 8.12261 Bohr) occupying 0.526809 of unit cell:	Completed after 8 iterations at t[s]:   3424.79
	Linear fluid (dielectric constant: 78.4, screening length: 8.12261 Bohr) occupying 0.526808 of unit cell:	Completed after 2 iterations at t[s]:   3435.99
	FillingsUpdate:  mu: -0.244750000  nElectrons: 189.064863  magneticMoment: [ Abs: 0.00000  Tot: -0.00000 ]
	SubspaceRotationAdjust: set factor to 0.188
ElecMinimize: Iter:   6  G: -1429.620790755524695  |grad|_K:  3.063e-08  alpha:  3.433e-01  linmin:  2.562e-05  t[s]:   3454.31
ElecMinimize: Converged (|Delta G|<1.000000e-07 for 2 iters).
Setting wave functions to eigenvectors of Hamiltonian
Converging empty states (this may take a while): |deigs|: 5.937e-08

Computing DFT-D3 correction:
# coordination-number Ag 8.169 8.805 8.882 6.772 4.789 8.883 8.804 8.168 4.789 6.772
# diagonal-C6 Ag 268.61 268.61 268.61 268.61 268.61 268.61 268.61 268.61 268.61 268.61
EvdW_6 =   -0.054358
EvdW_8 =   -0.078023
IonicMinimize: 	Wolfe criterion not satisfied: alpha: 1  (E-E0)/|gdotd0|: -0.954186  gdotd/gdotd0: 0.932841 (taking cubic step)

Computing DFT-D3 correction:
# coordination-number Ag 8.178 8.807 8.886 6.785 4.784 8.886 8.807 8.177 4.785 6.786
# diagonal-C6 Ag 268.61 268.61 268.61 268.61 268.61 268.61 268.61 268.61 268.61 268.61
EvdW_6 =   -0.054367
EvdW_8 =   -0.078031
Shifting auxilliary hamiltonian by -0.000036 to set nElectrons=189.064863

-------- Electronic minimization -----------
	Linear fluid (dielectric constant: 78.4, screening length: 8.12261 Bohr) occupying 0.526846 of unit cell:	Completed after 13 iterations at t[s]:   3510.47
	FillingsUpdate:  mu: -0.244750000  nElectrons: 189.064863  magneticMoment: [ Abs: 0.00000  Tot: -0.00000 ]
ElecMinimize: Iter:   0  G: -1429.620859614059555  |grad|_K:  2.687e-07  alpha:  1.000e+00
	Linear fluid (dielectric constant: 78.4, screening length: 8.12261 Bohr) occupying 0.526837 of unit cell:	Completed after 14 iterations at t[s]:   3544.60
	Linear fluid (dielectric constant: 78.4, screening length: 8.12261 Bohr) occupying 0.526843 of unit cell:	Completed after 12 iterations at t[s]:   3556.62
	FillingsUpdate:  mu: -0.244750000  nElectrons: 189.065960  magneticMoment: [ Abs: 0.00000  Tot: -0.00000 ]
	SubspaceRotationAdjust: set factor to 0.159
ElecMinimize: Iter:   1  G: -1429.620862388436535  |grad|_K:  1.910e-07  alpha:  3.641e-01  linmin:  1.061e-04  t[s]:   3574.87
	Linear fluid (dielectric constant: 78.4, screening length: 8.12261 Bohr) occupying 0.526841 of unit cell:	Completed after 11 iterations at t[s]:   3588.98
	Linear fluid (dielectric constant: 78.4, screening length: 8.12261 Bohr) occupying 0.526841 of unit cell:	Completed after 10 iterations at t[s]:   3600.73
	FillingsUpdate:  mu: -0.244750000  nElectrons: 189.064405  magneticMoment: [ Abs: 0.00000  Tot: -0.00000 ]
	SubspaceRotationAdjust: set factor to 0.122
ElecMinimize: Iter:   2  G: -1429.620863491041291  |grad|_K:  1.146e-07  alpha:  2.860e-01  linmin:  1.472e-04  t[s]:   3619.12
	Linear fluid (dielectric constant: 78.4, screening length: 8.12261 Bohr) occupying 0.526841 of unit cell:	Completed after 2 iterations at t[s]:   3632.56
	Linear fluid (dielectric constant: 78.4, screening length: 8.12261 Bohr) occupying 0.526841 of unit cell:	Completed after 8 iterations at t[s]:   3643.96
	FillingsUpdate:  mu: -0.244750000  nElectrons: 189.064392  magneticMoment: [ Abs: 0.00000  Tot: -0.00000 ]
	SubspaceRotationAdjust: set factor to 0.161
ElecMinimize: Iter:   3  G: -1429.620864261208908  |grad|_K:  8.810e-08  alpha:  5.624e-01  linmin:  5.578e-04  t[s]:   3661.53
	Linear fluid (dielectric constant: 78.4, screening length: 8.12261 Bohr) occupying 0.526844 of unit cell:	Completed after 7 iterations at t[s]:   3675.47
	Linear fluid (dielectric constant: 78.4, screening length: 8.12261 Bohr) occupying 0.526844 of unit cell:	Completed after 2 iterations at t[s]:   3686.35
	FillingsUpdate:  mu: -0.244750000  nElectrons: 189.064380  magneticMoment: [ Abs: 0.00000  Tot: -0.00000 ]
	SubspaceRotationAdjust: set factor to 0.189
ElecMinimize: Iter:   4  G: -1429.620864667319211  |grad|_K:  8.028e-08  alpha:  5.008e-01  linmin:  6.720e-05  t[s]:   3704.59
	Linear fluid (dielectric constant: 78.4, screening length: 8.12261 Bohr) occupying 0.526850 of unit cell:	Completed after 9 iterations at t[s]:   3718.56
	Linear fluid (dielectric constant: 78.4, screening length: 8.12261 Bohr) occupying 0.526850 of unit cell:	Completed after 0 iterations at t[s]:   3729.49
	FillingsUpdate:  mu: -0.244750000  nElectrons: 189.063816  magneticMoment: [ Abs: 0.00000  Tot: -0.00000 ]
	SubspaceRotationAdjust: set factor to 0.202
ElecMinimize: Iter:   5  G: -1429.620865020469410  |grad|_K:  7.121e-08  alpha:  5.192e-01  linmin: -2.885e-04  t[s]:   3747.33
	Linear fluid (dielectric constant: 78.4, screening length: 8.12261 Bohr) occupying 0.526857 of unit cell:	Completed after 9 iterations at t[s]:   3761.28
	Linear fluid (dielectric constant: 78.4, screening length: 8.12261 Bohr) occupying 0.526857 of unit cell:	Completed after 0 iterations at t[s]:   3772.21
	FillingsUpdate:  mu: -0.244750000  nElectrons: 189.064023  magneticMoment: [ Abs: 0.00000  Tot: -0.00000 ]
	SubspaceRotationAdjust: set factor to 0.185
ElecMinimize: Iter:   6  G: -1429.620865297688624  |grad|_K:  6.827e-08  alpha:  5.124e-01  linmin:  1.740e-04  t[s]:   3790.32
	Linear fluid (dielectric constant: 78.4, screening length: 8.12261 Bohr) occupying 0.526865 of unit cell:	Completed after 10 iterations at t[s]:   3804.44
	Linear fluid (dielectric constant: 78.4, screening length: 8.12261 Bohr) occupying 0.526863 of unit cell:	Completed after 5 iterations at t[s]:   3815.37
	FillingsUpdate:  mu: -0.244750000  nElectrons: 189.063518  magneticMoment: [ Abs: 0.00000  Tot: -0.00000 ]
	SubspaceRotationAdjust: set factor to 0.151
ElecMinimize: Iter:   7  G: -1429.620865475565097  |grad|_K:  4.958e-08  alpha:  3.639e-01  linmin:  2.047e-04  t[s]:   3833.20
	Linear fluid (dielectric constant: 78.4, screening length: 8.12261 Bohr) occupying 0.526867 of unit cell:	Completed after 7 iterations at t[s]:   3846.91
	Linear fluid (dielectric constant: 78.4, screening length: 8.12261 Bohr) occupying 0.526867 of unit cell:	Completed after 0 iterations at t[s]:   3857.91
	FillingsUpdate:  mu: -0.244750000  nElectrons: 189.063615  magneticMoment: [ Abs: 0.00000  Tot: -0.00000 ]
	SubspaceRotationAdjust: set factor to 0.139
ElecMinimize: Iter:   8  G: -1429.620865576765937  |grad|_K:  3.358e-08  alpha:  3.918e-01  linmin: -7.738e-04  t[s]:   3875.97
	Linear fluid (dielectric constant: 78.4, screening length: 8.12261 Bohr) occupying 0.526869 of unit cell:	Completed after 2 iterations at t[s]:   3889.43
	Linear fluid (dielectric constant: 78.4, screening length: 8.12261 Bohr) occupying 0.526869 of unit cell:	Completed after 0 iterations at t[s]:   3900.21
	FillingsUpdate:  mu: -0.244750000  nElectrons: 189.063540  magneticMoment: [ Abs: 0.00000  Tot: +0.00000 ]
	SubspaceRotationAdjust: set factor to 0.155
ElecMinimize: Iter:   9  G: -1429.620865625053966  |grad|_K:  2.124e-08  alpha:  3.923e-01  linmin:  2.265e-06  t[s]:   3918.47
	Linear fluid (dielectric constant: 78.4, screening length: 8.12261 Bohr) occupying 0.526869 of unit cell:	Completed after 2 iterations at t[s]:   3931.99
	Linear fluid (dielectric constant: 78.4, screening length: 8.12261 Bohr) occupying 0.526869 of unit cell:	Completed after 0 iterations at t[s]:   3942.88
	FillingsUpdate:  mu: -0.244750000  nElectrons: 189.063429  magneticMoment: [ Abs: 0.00001  Tot: +0.00000 ]
	SubspaceRotationAdjust: set factor to 0.152
ElecMinimize: Iter:  10  G: -1429.620865644907326  |grad|_K:  1.384e-08  alpha:  4.148e-01  linmin: -7.389e-04  t[s]:   3960.89
ElecMinimize: Converged (|Delta G|<1.000000e-07 for 2 iters).
Setting wave functions to eigenvectors of Hamiltonian
Converging empty states (this may take a while): |deigs|: 4.494e-08

Computing DFT-D3 correction:
# coordination-number Ag 8.178 8.807 8.886 6.785 4.784 8.886 8.807 8.177 4.785 6.786
# diagonal-C6 Ag 268.61 268.61 268.61 268.61 268.61 268.61 268.61 268.61 268.61 268.61
EvdW_6 =   -0.054367
EvdW_8 =   -0.078031

# Ionic positions in cartesian coordinates:
ion Ag   3.837026785796171   1.715989692336331  13.033238137915463 1
ion Ag  -0.000437742277116   3.403398366115445   9.431305796633133 1
ion Ag   3.829839336084294   5.172248339282924   5.964418948939191 1
ion Ag  -0.003280597562246   6.913954348207244   2.418445500805869 1
ion Ag   0.007508596734473  -0.076227586052310  16.316208382058445 1
ion Ag   3.836707688981668   6.826320440993451  11.177053528816888 1
ion Ag   3.832838577322536   0.024118510093097   7.709624439215746 1
ion Ag  -0.005551044293797   1.711991561384498   4.107367487722121 1
ion Ag   3.825167024077111   3.505396500676170   0.824985816578345 1
ion Ag   0.004352375136906   5.084715826963150  14.722197961314791 1

# Forces in Cartesian coordinates:
force Ag  -0.000121697065951  -0.000181123183901  -0.001221101767182 1
force Ag   0.000146515440413   0.000111423285758   0.001535043116654 1
force Ag  -0.000084952771361  -0.000396037434518  -0.001373805284508 1
force Ag  -0.000005775961770   0.000638808962758   0.002746579406871 1
force Ag   0.000012694259132  -0.000219725030885   0.000540362212436 1
force Ag   0.000080191580745   0.000397698170285   0.001364327660566 1
force Ag  -0.000146039727734  -0.000111059087146  -0.001538637624001 1
force Ag   0.000131489724989   0.000182539561745   0.001227840900939 1
force Ag  -0.000011131049917   0.000219495283843  -0.000542686302858 1
force Ag  -0.000007924599725  -0.000635413052697  -0.002746131888785 1

# Energy components:
   A_diel =        0.1313361577634801
   Eewald =     5448.0437940677211373
       EH =     6758.5600536718366129
     Eloc =   -13914.7793414531352028
      Enl =       39.5898589728218155
     EvdW =       -0.1323987291830987
      Exc =     -144.6753360419060073
 Exc_core =        2.0817047962331556
       KE =      335.2341582858350648
  MuShift =        0.0522615518397359
-------------------------------------
     Etot =    -1475.8939087201736129
       TS =        0.0002312901986372
-------------------------------------
        F =    -1475.8941400103722117
      muN =      -46.2732743654649425
-------------------------------------
        G =    -1429.6208656449073260


Dumping 'jdft.fillings' ... done
Dumping 'jdft.wfns' ... done
Dumping 'jdft.fluidState' ... done
Dumping 'jdft.ionpos' ... done
Dumping 'jdft.lattice' ... done
Dumping 'jdft.eigenvals' ... done
Dumping 'jdft.eigStats' ... 
	eMin: -3.628215 at state 32 ( [ +0.000000 +0.000000 +0.000000 ] spin -1 )
	HOMO: -0.245180 at state 62 ( [ +0.444444 -0.285714 +0.000000 ] spin -1 )
	mu  : -0.244750
	LUMO: -0.244609 at state 42 ( [ +0.111111 -0.142857 +0.000000 ] spin -1 )
	eMax: +0.121701 at state 45 ( [ +0.222222 +0.285714 +0.000000 ] spin -1 )
	HOMO-LUMO gap: +0.000571
	Optical gap  : +0.014395 at state 30 ( [ +0.444444 -0.285714 +0.000000 ] spin 1 )
Dumping 'jdft.Ecomponents' ... done
IonicMinimize: Iter:   1  G: -1429.620865644907326  |grad|_K:  9.755e-04  alpha:  3.000e+00  linmin: -9.960e-01  t[s]:   4002.22

#--- Lowdin population analysis ---
# oxidation-state Ag -0.024 +0.004 -0.028 +0.119 +0.432 -0.028 +0.004 -0.024 +0.432 +0.119
# magnetic-moments Ag +0.000 +0.000 +0.000 +0.000 +0.000 +0.000 +0.000 +0.000 +0.000 +0.000


Computing DFT-D3 correction:
# coordination-number Ag 8.231 8.840 8.915 6.864 4.714 8.915 8.839 8.231 4.714 6.864
# diagonal-C6 Ag 268.61 268.61 268.61 268.61 268.61 268.61 268.61 268.61 268.61 268.61
EvdW_6 =   -0.054426
EvdW_8 =   -0.078114
Shifting auxilliary hamiltonian by 0.000010 to set nElectrons=189.063429

-------- Electronic minimization -----------
	Linear fluid (dielectric constant: 78.4, screening length: 8.12261 Bohr) occupying 0.526831 of unit cell:	Completed after 20 iterations at t[s]:   4017.73
	FillingsUpdate:  mu: -0.244750000  nElectrons: 189.063429  magneticMoment: [ Abs: 0.00001  Tot: +0.00000 ]
ElecMinimize: Iter:   0  G: -1429.218052178860489  |grad|_K:  1.124e-04  alpha:  1.000e+00
	Linear fluid (dielectric constant: 78.4, screening length: 8.12261 Bohr) occupying 0.526538 of unit cell:	Completed after 22 iterations at t[s]:   4052.65
	Linear fluid (dielectric constant: 78.4, screening length: 8.12261 Bohr) occupying 0.526730 of unit cell:	Completed after 21 iterations at t[s]:   4065.57
	FillingsUpdate:  mu: -0.244750000  nElectrons: 189.218481  magneticMoment: [ Abs: 0.00001  Tot: +0.00001 ]
	SubspaceRotationAdjust: set factor to 0.131
ElecMinimize: Iter:   1  G: -1429.569835292722018  |grad|_K:  3.662e-05  alpha:  2.679e-01  linmin:  2.916e-03  t[s]:   4084.01
	Linear fluid (dielectric constant: 78.4, screening length: 8.12261 Bohr) occupying 0.526562 of unit cell:	Completed after 18 iterations at t[s]:   4098.97
	Linear fluid (dielectric constant: 78.4, screening length: 8.12261 Bohr) occupying 0.526564 of unit cell:	Completed after 14 iterations at t[s]:   4111.27
	FillingsUpdate:  mu: -0.244750000  nElectrons: 189.066904  magneticMoment: [ Abs: 0.00000  Tot: +0.00000 ]
	SubspaceRotationAdjust: set factor to 0.122
ElecMinimize: Iter:   2  G: -1429.606281984682255  |grad|_K:  1.044e-05  alpha:  2.606e-01  linmin: -1.349e-03  t[s]:   4129.31
	Linear fluid (dielectric constant: 78.4, screening length: 8.12261 Bohr) occupying 0.526542 of unit cell:	Completed after 14 iterations at t[s]:   4143.36
	Linear fluid (dielectric constant: 78.4, screening length: 8.12261 Bohr) occupying 0.526531 of unit cell:	Completed after 14 iterations at t[s]:   4155.26
	FillingsUpdate:  mu: -0.244750000  nElectrons: 189.069490  magneticMoment: [ Abs: 0.00000  Tot: +0.00000 ]
	SubspaceRotationAdjust: set factor to 0.161
ElecMinimize: Iter:   3  G: -1429.610772898606683  |grad|_K:  6.399e-06  alpha:  3.855e-01  linmin: -2.647e-05  t[s]:   4173.47
	Linear fluid (dielectric constant: 78.4, screening length: 8.12261 Bohr) occupying 0.526520 of unit cell:	Completed after 13 iterations at t[s]:   4187.69
	Linear fluid (dielectric constant: 78.4, screening length: 8.12261 Bohr) occupying 0.526518 of unit cell:	Completed after 9 iterations at t[s]:   4199.41
	FillingsUpdate:  mu: -0.244750000  nElectrons: 189.064998  magneticMoment: [ Abs: 0.00000  Tot: +0.00000 ]
	SubspaceRotationAdjust: set factor to 0.206
ElecMinimize: Iter:   4  G: -1429.612847089356592  |grad|_K:  6.178e-06  alpha:  4.790e-01  linmin:  3.233e-06  t[s]:   4217.71
	Linear fluid (dielectric constant: 78.4, screening length: 8.12261 Bohr) occupying 0.526540 of unit cell:	Completed after 14 iterations at t[s]:   4232.09
	Linear fluid (dielectric constant: 78.4, screening length: 8.12261 Bohr) occupying 0.526547 of unit cell:	Completed after 13 iterations at t[s]:   4244.36
	FillingsUpdate:  mu: -0.244750000  nElectrons: 189.049479  magneticMoment: [ Abs: 0.00000  Tot: +0.00000 ]
	SubspaceRotationAdjust: set factor to 0.26
ElecMinimize: Iter:   5  G: -1429.615417016669198  |grad|_K:  5.939e-06  alpha:  6.372e-01  linmin:  2.143e-06  t[s]:   4262.33
	Linear fluid (dielectric constant: 78.4, screening length: 8.12261 Bohr) occupying 0.526641 of unit cell:	Completed after 15 iterations at t[s]:   4277.03
	Linear fluid (dielectric constant: 78.4, screening length: 8.12261 Bohr) occupying 0.526641 of unit cell:	Completed after 0 iterations at t[s]:   4287.98
	FillingsUpdate:  mu: -0.244750000  nElectrons: 189.066933  magneticMoment: [ Abs: 0.00000  Tot: +0.00000 ]
	SubspaceRotationAdjust: set factor to 0.284
ElecMinimize: Iter:   6  G: -1429.617791421619359  |grad|_K:  6.244e-06  alpha:  6.371e-01  linmin: -2.190e-05  t[s]:   4305.80
	Linear fluid (dielectric constant: 78.4, screening length: 8.12261 Bohr) occupying 0.526857 of unit cell:	Completed after 16 iterations at t[s]:   4319.86
	Linear fluid (dielectric constant: 78.4, screening length: 8.12261 Bohr) occupying 0.526774 of unit cell:	Completed after 15 iterations at t[s]:   4332.05
	FillingsUpdate:  mu: -0.244750000  nElectrons: 189.034221  magneticMoment: [ Abs: 0.00000  Tot: +0.00000 ]
	SubspaceRotationAdjust: set factor to 0.247
ElecMinimize: Iter:   7  G: -1429.619475710531106  |grad|_K:  5.551e-06  alpha:  3.977e-01  linmin: -1.410e-05  t[s]:   4350.16
	Linear fluid (dielectric constant: 78.4, screening length: 8.12261 Bohr) occupying 0.526872 of unit cell:	Completed after 16 iterations at t[s]:   4364.86
	Linear fluid (dielectric constant: 78.4, screening length: 8.12261 Bohr) occupying 0.526838 of unit cell:	Completed after 14 iterations at t[s]:   4377.15
	FillingsUpdate:  mu: -0.244750000  nElectrons: 189.063883  magneticMoment: [ Abs: 0.00000  Tot: +0.00000 ]
	SubspaceRotationAdjust: set factor to 0.172
ElecMinimize: Iter:   8  G: -1429.620317649688786  |grad|_K:  3.716e-06  alpha:  2.620e-01  linmin:  1.232e-06  t[s]:   4395.33
	Linear fluid (dielectric constant: 78.4, screening length: 8.12261 Bohr) occupying 0.526879 of unit cell:	Completed after 14 iterations at t[s]:   4409.88
	Linear fluid (dielectric constant: 78.4, screening length: 8.12261 Bohr) occupying 0.526890 of unit cell:	Completed after 12 iterations at t[s]:   4421.92
	FillingsUpdate:  mu: -0.244750000  nElectrons: 189.050906  magneticMoment: [ Abs: 0.00000  Tot: +0.00000 ]
	SubspaceRotationAdjust: set factor to 0.154
ElecMinimize: Iter:   9  G: -1429.620797480796227  |grad|_K:  2.212e-06  alpha:  3.292e-01  linmin:  2.703e-05  t[s]:   4440.23
	Linear fluid (dielectric constant: 78.4, screening length: 8.12261 Bohr) occupying 0.526896 of unit cell:	Completed after 9 iterations at t[s]:   4454.26
	Linear fluid (dielectric constant: 78.4, screening length: 8.12261 Bohr) occupying 0.526897 of unit cell:	Completed after 9 iterations at t[s]:   4465.80
	FillingsUpdate:  mu: -0.244750000  nElectrons: 189.049309  magneticMoment: [ Abs: 0.00000  Tot: +0.00000 ]
	SubspaceRotationAdjust: set factor to 0.166
ElecMinimize: Iter:  10  G: -1429.621005494158680  |grad|_K:  1.503e-06  alpha:  4.038e-01  linmin:  6.175e-06  t[s]:   4483.32
	Linear fluid (dielectric constant: 78.4, screening length: 8.12261 Bohr) occupying 0.526883 of unit cell:	Completed after 14 iterations at t[s]:   4497.75
	Linear fluid (dielectric constant: 78.4, screening length: 8.12261 Bohr) occupying 0.526886 of unit cell:	Completed after 11 iterations at t[s]:   4509.82
	FillingsUpdate:  mu: -0.244750000  nElectrons: 189.054177  magneticMoment: [ Abs: 0.00000  Tot: +0.00000 ]
	SubspaceRotationAdjust: set factor to 0.163
ElecMinimize: Iter:  11  G: -1429.621080627505535  |grad|_K:  8.955e-07  alpha:  3.148e-01  linmin: -8.166e-06  t[s]:   4527.93
	Linear fluid (dielectric constant: 78.4, screening length: 8.12261 Bohr) occupying 0.526869 of unit cell:	Completed after 12 iterations at t[s]:   4542.12
	Linear fluid (dielectric constant: 78.4, screening length: 8.12261 Bohr) occupying 0.526864 of unit cell:	Completed after 9 iterations at t[s]:   4553.98
	FillingsUpdate:  mu: -0.244750000  nElectrons: 189.052422  magneticMoment: [ Abs: 0.00001  Tot: +0.00000 ]
	SubspaceRotationAdjust: set factor to 0.193
ElecMinimize: Iter:  12  G: -1429.621114730931595  |grad|_K:  6.309e-07  alpha:  4.023e-01  linmin:  2.817e-05  t[s]:   4572.17
	Linear fluid (dielectric constant: 78.4, screening length: 8.12261 Bohr) occupying 0.526840 of unit cell:	Completed after 10 iterations at t[s]:   4586.18
	Linear fluid (dielectric constant: 78.4, screening length: 8.12261 Bohr) occupying 0.526836 of unit cell:	Completed after 2 iterations at t[s]:   4597.34
	FillingsUpdate:  mu: -0.244750000  nElectrons: 189.053570  magneticMoment: [ Abs: 0.00000  Tot: +0.00000 ]
	SubspaceRotationAdjust: set factor to 0.258
ElecMinimize: Iter:  13  G: -1429.621133853186848  |grad|_K:  5.272e-07  alpha:  4.547e-01  linmin: -4.648e-06  t[s]:   4615.35
	Linear fluid (dielectric constant: 78.4, screening length: 8.12261 Bohr) occupying 0.526808 of unit cell:	Completed after 11 iterations at t[s]:   4629.34
	Linear fluid (dielectric constant: 78.4, screening length: 8.12261 Bohr) occupying 0.526809 of unit cell:	Completed after 2 iterations at t[s]:   4640.27
	FillingsUpdate:  mu: -0.244750000  nElectrons: 189.055642  magneticMoment: [ Abs: 0.00001  Tot: +0.00000 ]
	SubspaceRotationAdjust: set factor to 0.296
ElecMinimize: Iter:  14  G: -1429.621146581557696  |grad|_K:  5.232e-07  alpha:  4.332e-01  linmin:  6.742e-07  t[s]:   4658.35
	Linear fluid (dielectric constant: 78.4, screening length: 8.12261 Bohr) occupying 0.526781 of unit cell:	Completed after 12 iterations at t[s]:   4672.53
	Linear fluid (dielectric constant: 78.4, screening length: 8.12261 Bohr) occupying 0.526781 of unit cell:	Completed after 2 iterations at t[s]:   4683.52
	FillingsUpdate:  mu: -0.244750000  nElectrons: 189.053466  magneticMoment: [ Abs: 0.00001  Tot: -0.00000 ]
	SubspaceRotationAdjust: set factor to 0.299
ElecMinimize: Iter:  15  G: -1429.621158905239099  |grad|_K:  5.647e-07  alpha:  4.260e-01  linmin:  1.292e-06  t[s]:   4701.94
	Linear fluid (dielectric constant: 78.4, screening length: 8.12261 Bohr) occupying 0.526746 of unit cell:	Completed after 13 iterations at t[s]:   4716.43
	Linear fluid (dielectric constant: 78.4, screening length: 8.12261 Bohr) occupying 0.526757 of unit cell:	Completed after 11 iterations at t[s]:   4728.06
	FillingsUpdate:  mu: -0.244750000  nElectrons: 189.056959  magneticMoment: [ Abs: 0.00001  Tot: -0.00000 ]
	SubspaceRotationAdjust: set factor to 0.273
ElecMinimize: Iter:  16  G: -1429.621168820117873  |grad|_K:  4.347e-07  alpha:  2.949e-01  linmin: -2.894e-06  t[s]:   4746.20
	Linear fluid (dielectric constant: 78.4, screening length: 8.12261 Bohr) occupying 0.526747 of unit cell:	Completed after 10 iterations at t[s]:   4760.55
	Linear fluid (dielectric constant: 78.4, screening length: 8.12261 Bohr) occupying 0.526744 of unit cell:	Completed after 9 iterations at t[s]:   4772.44
	FillingsUpdate:  mu: -0.244750000  nElectrons: 189.056357  magneticMoment: [ Abs: 0.00001  Tot: -0.00000 ]
	SubspaceRotationAdjust: set factor to 0.269
ElecMinimize: Iter:  17  G: -1429.621176933672814  |grad|_K:  3.392e-07  alpha:  4.060e-01  linmin:  1.722e-06  t[s]:   4790.58
	Linear fluid (dielectric constant: 78.4, screening length: 8.12261 Bohr) occupying 0.526742 of unit cell:	Completed after 10 iterations at t[s]:   4804.26
	Linear fluid (dielectric constant: 78.4, screening length: 8.12261 Bohr) occupying 0.526743 of unit cell:	Completed after 0 iterations at t[s]:   4815.05
	FillingsUpdate:  mu: -0.244750000  nElectrons: 189.056921  magneticMoment: [ Abs: 0.00001  Tot: -0.00000 ]
	SubspaceRotationAdjust: set factor to 0.267
ElecMinimize: Iter:  18  G: -1429.621181638932512  |grad|_K:  2.489e-07  alpha:  3.871e-01  linmin:  8.841e-06  t[s]:   4833.22
	Linear fluid (dielectric constant: 78.4, screening length: 8.12261 Bohr) occupying 0.526749 of unit cell:	Completed after 7 iterations at t[s]:   4846.77
	Linear fluid (dielectric constant: 78.4, screening length: 8.12261 Bohr) occupying 0.526748 of unit cell:	Completed after 1 iterations at t[s]:   4857.68
	FillingsUpdate:  mu: -0.244750000  nElectrons: 189.056695  magneticMoment: [ Abs: 0.00001  Tot: -0.00000 ]
	SubspaceRotationAdjust: set factor to 0.279
ElecMinimize: Iter:  19  G: -1429.621184052459739  |grad|_K:  1.804e-07  alpha:  3.694e-01  linmin: -1.397e-05  t[s]:   4875.71
[...]
	Linear fluid (dielectric constant: 78.4, screening length: 8.12261 Bohr) occupying 0.578933 of unit cell:	Completed after 38 iterations at t[s]:   6336.68
	Linear fluid (dielectric constant: 78.4, screening length: 8.12261 Bohr) occupying 0.527284 of unit cell:	Completed after 28 iterations at t[s]:   6350.13
	FillingsUpdate:  mu: -0.244750000  nElectrons: 189.260366  magneticMoment: [ Abs: 0.00000  Tot: -0.00000 ]
	SubspaceRotationAdjust: set factor to 0.148
ElecMinimize: Iter:   1  G: -1429.598153246573474  |grad|_K:  2.498e-05  alpha:  1.594e-01  linmin: -1.035e-02  t[s]:   6367.99
	Linear fluid (dielectric constant: 78.4, screening length: 8.12261 Bohr) occupying 0.527211 of unit cell:	Completed after 16 iterations at t[s]:   6382.73
	Linear fluid (dielectric constant: 78.4, screening length: 8.12261 Bohr) occupying 0.527217 of unit cell:	Completed after 16 iterations at t[s]:   6395.14
	FillingsUpdate:  mu: -0.244750000  nElectrons: 189.101799  magneticMoment: [ Abs: 0.00000  Tot: -0.00000 ]
	SubspaceRotationAdjust: set factor to 0.208
ElecMinimize: Iter:   2  G: -1429.616595721604199  |grad|_K:  8.838e-06  alpha:  2.480e-01  linmin: -6.993e-04  t[s]:   6413.55
	Linear fluid (dielectric constant: 78.4, screening length: 8.12261 Bohr) occupying 0.527286 of unit cell:	Completed after 14 iterations at t[s]:   6427.91
	Linear fluid (dielectric constant: 78.4, screening length: 8.12261 Bohr) occupying 0.527292 of unit cell:	Completed after 9 iterations at t[s]:   6439.19
	FillingsUpdate:  mu: -0.244750000  nElectrons: 189.069093  magneticMoment: [ Abs: 0.00000  Tot: -0.00000 ]
	SubspaceRotationAdjust: set factor to 0.24
ElecMinimize: Iter:   3  G: -1429.618848490296159  |grad|_K:  3.939e-06  alpha:  2.695e-01  linmin: -3.697e-05  t[s]:   6457.01
	Linear fluid (dielectric constant: 78.4, screening length: 8.12261 Bohr) occupying 0.527392 of unit cell:	Completed after 14 iterations at t[s]:   6471.38
	Linear fluid (dielectric constant: 78.4, screening length: 8.12261 Bohr) occupying 0.527467 of unit cell:	Completed after 14 iterations at t[s]:   6483.42
	FillingsUpdate:  mu: -0.244750000  nElectrons: 189.071179  magneticMoment: [ Abs: 0.00000  Tot: -0.00000 ]
	SubspaceRotationAdjust: set factor to 0.252
ElecMinimize: Iter:   4  G: -1429.619624379068000  |grad|_K:  3.228e-06  alpha:  4.726e-01  linmin: -1.310e-05  t[s]:   6501.69
	Linear fluid (dielectric constant: 78.4, screening length: 8.12261 Bohr) occupying 0.527737 of unit cell:	Completed after 15 iterations at t[s]:   6516.35
	Linear fluid (dielectric constant: 78.4, screening length: 8.12261 Bohr) occupying 0.527746 of unit cell:	Completed after 10 iterations at t[s]:   6527.96
	FillingsUpdate:  mu: -0.244750000  nElectrons: 189.040416  magneticMoment: [ Abs: 0.00000  Tot: -0.00000 ]
	SubspaceRotationAdjust: set factor to 0.249
ElecMinimize: Iter:   5  G: -1429.620162283180434  |grad|_K:  3.464e-06  alpha:  4.881e-01  linmin:  5.912e-05  t[s]:   6546.07
	Linear fluid (dielectric constant: 78.4, screening length: 8.12261 Bohr) occupying 0.528126 of unit cell:	Completed after 14 iterations at t[s]:   6560.73
	Linear fluid (dielectric constant: 78.4, screening length: 8.12261 Bohr) occupying 0.528038 of unit cell:	Completed after 13 iterations at t[s]:   6572.80
	FillingsUpdate:  mu: -0.244750000  nElectrons: 189.050092  magneticMoment: [ Abs: 0.00000  Tot: -0.00000 ]
	SubspaceRotationAdjust: set factor to 0.253
ElecMinimize: Iter:   6  G: -1429.620632799430041  |grad|_K:  2.606e-06  alpha:  3.759e-01  linmin: -7.215e-06  t[s]:   6590.83
	Linear fluid (dielectric constant: 78.4, screening length: 8.12261 Bohr) occupying 0.528210 of unit cell:	Completed after 14 iterations at t[s]:   6605.02
	Linear fluid (dielectric constant: 78.4, screening length: 8.12261 Bohr) occupying 0.528244 of unit cell:	Completed after 12 iterations at t[s]:   6616.92
	FillingsUpdate:  mu: -0.244750000  nElectrons: 189.040150  magneticMoment: [ Abs: 0.00000  Tot: -0.00000 ]
	SubspaceRotationAdjust: set factor to 0.258
ElecMinimize: Iter:   7  G: -1429.620955313458353  |grad|_K:  2.188e-06  alpha:  4.491e-01  linmin:  1.567e-05  t[s]:   6634.82
	Linear fluid (dielectric constant: 78.4, screening length: 8.12261 Bohr) occupying 0.528317 of unit cell:	Completed after 13 iterations at t[s]:   6649.09
	Linear fluid (dielectric constant: 78.4, screening length: 8.12261 Bohr) occupying 0.528312 of unit cell:	Completed after 8 iterations at t[s]:   6660.76
	FillingsUpdate:  mu: -0.244750000  nElectrons: 189.045949  magneticMoment: [ Abs: 0.00000  Tot: -0.00000 ]
	SubspaceRotationAdjust: set factor to 0.262
ElecMinimize: Iter:   8  G: -1429.621168665485129  |grad|_K:  1.359e-06  alpha:  4.235e-01  linmin: -4.903e-06  t[s]:   6678.86
	Linear fluid (dielectric constant: 78.4, screening length: 8.12261 Bohr) occupying 0.528263 of unit cell:	Completed after 12 iterations at t[s]:   6693.01
	Linear fluid (dielectric constant: 78.4, screening length: 8.12261 Bohr) occupying 0.528266 of unit cell:	Completed after 7 iterations at t[s]:   6704.62
	FillingsUpdate:  mu: -0.244750000  nElectrons: 189.044428  magneticMoment: [ Abs: 0.00000  Tot: -0.00000 ]
	SubspaceRotationAdjust: set factor to 0.253
ElecMinimize: Iter:   9  G: -1429.621247113698473  |grad|_K:  8.618e-07  alpha:  4.013e-01  linmin:  3.386e-06  t[s]:   6722.58
	Linear fluid (dielectric constant: 78.4, screening length: 8.12261 Bohr) occupying 0.528191 of unit cell:	Completed after 14 iterations at t[s]:   6737.15
	Linear fluid (dielectric constant: 78.4, screening length: 8.12261 Bohr) occupying 0.528204 of unit cell:	Completed after 10 iterations at t[s]:   6749.02
	FillingsUpdate:  mu: -0.244750000  nElectrons: 189.049487  magneticMoment: [ Abs: 0.00000  Tot: -0.00000 ]
	SubspaceRotationAdjust: set factor to 0.191
ElecMinimize: Iter:  10  G: -1429.621273199604275  |grad|_K:  6.095e-07  alpha:  3.327e-01  linmin: -9.380e-06  t[s]:   6766.59
	Linear fluid (dielectric constant: 78.4, screening length: 8.12261 Bohr) occupying 0.528151 of unit cell:	Completed after 12 iterations at t[s]:   6780.68
	Linear fluid (dielectric constant: 78.4, screening length: 8.12261 Bohr) occupying 0.528157 of unit cell:	Completed after 9 iterations at t[s]:   6792.44
	FillingsUpdate:  mu: -0.244750000  nElectrons: 189.046570  magneticMoment: [ Abs: 0.00000  Tot: -0.00000 ]
	SubspaceRotationAdjust: set factor to 0.133
ElecMinimize: Iter:  11  G: -1429.621284746424180  |grad|_K:  3.705e-07  alpha:  2.938e-01  linmin:  2.188e-06  t[s]:   6810.46
	Linear fluid (dielectric constant: 78.4, screening length: 8.12261 Bohr) occupying 0.528130 of unit cell:	Completed after 10 iterations at t[s]:   6824.66
	Linear fluid (dielectric constant: 78.4, screening length: 8.12261 Bohr) occupying 0.528128 of unit cell:	Completed after 2 iterations at t[s]:   6835.75
	FillingsUpdate:  mu: -0.244750000  nElectrons: 189.047502  magneticMoment: [ Abs: 0.00000  Tot: -0.00000 ]
	SubspaceRotationAdjust: set factor to 0.157
ElecMinimize: Iter:  12  G: -1429.621289387186380  |grad|_K:  2.134e-07  alpha:  3.200e-01  linmin: -4.546e-05  t[s]:   6854.12
	Linear fluid (dielectric constant: 78.4, screening length: 8.12261 Bohr) occupying 0.528114 of unit cell:	Completed after 9 iterations at t[s]:   6868.22
	Linear fluid (dielectric constant: 78.4, screening length: 8.12261 Bohr) occupying 0.528111 of unit cell:	Completed after 2 iterations at t[s]:   6879.38
	FillingsUpdate:  mu: -0.244750000  nElectrons: 189.048353  magneticMoment: [ Abs: 0.00000  Tot: -0.00000 ]
	SubspaceRotationAdjust: set factor to 0.158
ElecMinimize: Iter:  13  G: -1429.621291247739236  |grad|_K:  1.383e-07  alpha:  3.854e-01  linmin: -6.113e-04  t[s]:   6897.64
	Linear fluid (dielectric constant: 78.4, screening length: 8.12261 Bohr) occupying 0.528103 of unit cell:	Completed after 10 iterations at t[s]:   6911.75
	Linear fluid (dielectric constant: 78.4, screening length: 8.12261 Bohr) occupying 0.528103 of unit cell:	Completed after 0 iterations at t[s]:   6922.66
	FillingsUpdate:  mu: -0.244750000  nElectrons: 189.048171  magneticMoment: [ Abs: 0.00000  Tot: -0.00000 ]
	SubspaceRotationAdjust: set factor to 0.171
ElecMinimize: Iter:  14  G: -1429.621292049876956  |grad|_K:  9.208e-08  alpha:  3.939e-01  linmin:  1.273e-04  t[s]:   6940.93
	Linear fluid (dielectric constant: 78.4, screening length: 8.12261 Bohr) occupying 0.528098 of unit cell:	Completed after 2 iterations at t[s]:   6954.23
	Linear fluid (dielectric constant: 78.4, screening length: 8.12261 Bohr) occupying 0.528098 of unit cell:	Completed after 0 iterations at t[s]:   6965.11
	FillingsUpdate:  mu: -0.244750000  nElectrons: 189.048420  magneticMoment: [ Abs: 0.00000  Tot: -0.00000 ]
	SubspaceRotationAdjust: set factor to 0.218
ElecMinimize: Iter:  15  G: -1429.621292412915182  |grad|_K:  7.194e-08  alpha:  4.068e-01  linmin: -2.377e-05  t[s]:   6983.14
	Linear fluid (dielectric constant: 78.4, screening length: 8.12261 Bohr) occupying 0.528094 of unit cell:	Completed after 9 iterations at t[s]:   6997.24
	Linear fluid (dielectric constant: 78.4, screening length: 8.12261 Bohr) occupying 0.528094 of unit cell:	Completed after 0 iterations at t[s]:   7008.13
	FillingsUpdate:  mu: -0.244750000  nElectrons: 189.048785  magneticMoment: [ Abs: 0.00000  Tot: -0.00000 ]
	SubspaceRotationAdjust: set factor to 0.224
ElecMinimize: Iter:  16  G: -1429.621292649407678  |grad|_K:  6.488e-08  alpha:  4.305e-01  linmin: -2.701e-04  t[s]:   7026.30
	Linear fluid (dielectric constant: 78.4, screening length: 8.12261 Bohr) occupying 0.528090 of unit cell:	Completed after 9 iterations at t[s]:   7040.39
	Linear fluid (dielectric constant: 78.4, screening length: 8.12261 Bohr) occupying 0.528091 of unit cell:	Completed after 2 iterations at t[s]:   7051.62
	FillingsUpdate:  mu: -0.244750000  nElectrons: 189.048485  magneticMoment: [ Abs: 0.00000  Tot: -0.00000 ]
	SubspaceRotationAdjust: set factor to 0.229
ElecMinimize: Iter:  17  G: -1429.621292819035261  |grad|_K:  6.078e-08  alpha:  3.686e-01  linmin:  1.235e-04  t[s]:   7069.94
	Linear fluid (dielectric constant: 78.4, screening length: 8.12261 Bohr) occupying 0.528089 of unit cell:	Completed after 6 iterations at t[s]:   7083.67
	Linear fluid (dielectric constant: 78.4, screening length: 8.12261 Bohr) occupying 0.528088 of unit cell:	Completed after 0 iterations at t[s]:   7094.37
	FillingsUpdate:  mu: -0.244750000  nElectrons: 189.048680  magneticMoment: [ Abs: 0.00000  Tot: -0.00000 ]
	SubspaceRotationAdjust: set factor to 0.276
ElecMinimize: Iter:  18  G: -1429.621292984712454  |grad|_K:  5.036e-08  alpha:  4.339e-01  linmin: -8.161e-05  t[s]:   7112.08
	Linear fluid (dielectric constant: 78.4, screening length: 8.12261 Bohr) occupying 0.528087 of unit cell:	Completed after 7 iterations at t[s]:   7125.33
	Linear fluid (dielectric constant: 78.4, screening length: 8.12261 Bohr) occupying 0.528087 of unit cell:	Completed after 0 iterations at t[s]:   7135.84
	FillingsUpdate:  mu: -0.244750000  nElectrons: 189.048899  magneticMoment: [ Abs: 0.00000  Tot: -0.00000 ]
	SubspaceRotationAdjust: set factor to 0.285
ElecMinimize: Iter:  19  G: -1429.621293092228825  |grad|_K:  4.796e-08  alpha:  3.936e-01  linmin: -7.513e-07  t[s]:   7153.54
	Linear fluid (dielectric constant: 78.4, screening length: 8.12261 Bohr) occupying 0.528087 of unit cell:	Completed after 9 iterations at t[s]:   7167.19
	Linear fluid (dielectric constant: 78.4, screening length: 8.12261 Bohr) occupying 0.528087 of unit cell:	Completed after 7 iterations at t[s]:   7178.47
	FillingsUpdate:  mu: -0.244750000  nElectrons: 189.048670  magneticMoment: [ Abs: 0.00000  Tot: -0.00000 ]
	SubspaceRotationAdjust: set factor to 0.217
ElecMinimize: Iter:  20  G: -1429.621293148971063  |grad|_K:  3.848e-08  alpha:  2.378e-01  linmin:  1.714e-05  t[s]:   7196.10
	Linear fluid (dielectric constant: 78.4, screening length: 8.12261 Bohr) occupying 0.528088 of unit cell:	Completed after 2 iterations at t[s]:   7209.04
	Linear fluid (dielectric constant: 78.4, screening length: 8.12261 Bohr) occupying 0.528088 of unit cell:	Completed after 0 iterations at t[s]:   7219.61
	FillingsUpdate:  mu: -0.244750000  nElectrons: 189.048782  magneticMoment: [ Abs: 0.00000  Tot: -0.00000 ]
	SubspaceRotationAdjust: set factor to 0.274
ElecMinimize: Iter:  21  G: -1429.621293197325940  |grad|_K:  2.644e-08  alpha:  3.082e-01  linmin: -1.328e-04  t[s]:   7237.12
ElecMinimize: Converged (|Delta G|<1.000000e-07 for 2 iters).
Setting wave functions to eigenvectors of Hamiltonian
Converging empty states (this may take a while): |deigs|: 3.827e-06

Computing DFT-D3 correction:
# coordination-number Ag 8.281 8.936 8.996 6.917 4.703 8.996 8.936 8.280 4.703 6.917
# diagonal-C6 Ag 268.61 268.61 268.61 268.61 268.61 268.61 268.61 268.61 268.61 268.61
EvdW_6 =   -0.054632
EvdW_8 =   -0.078466

# Ionic positions in cartesian coordinates:
ion Ag   3.834980546484362   1.692695085034656  12.989547422040035 1
ion Ag   0.001818324264376   3.407876709360782   9.442549945214786 1
ion Ag   3.829434263640523   5.158737680815937   5.962346952462237 1
ion Ag  -0.003095338709893   6.947077697180470   2.527276592711918 1
ion Ag   0.006410421309422  -0.099051935070935  16.315810612312820 1
ion Ag   3.836926076069611   6.839457859581902  11.178783875479963 1
ion Ag   3.830799080368109   0.019750535729759   7.698560304810442 1
ion Ag  -0.003257832099020   1.735506449394935   4.151115226856897 1
ion Ag   3.826731482967187   3.528329567708103   0.825193205713305 1
ion Ag   0.003423975705324   5.051526350264392  14.613661862397592 1

# Forces in Cartesian coordinates:
force Ag   0.000015925292754  -0.000376656932520   0.000047081853524 1
force Ag  -0.000031462317717  -0.000073228338902  -0.000120958484704 1
force Ag   0.000016383949729   0.000042844197083   0.000034375433019 1
force Ag   0.000005037828158  -0.000187080900402  -0.000312085350801 1
force Ag  -0.000011251239035  -0.000308006133090  -0.000440336464379 1
force Ag  -0.000013606950945  -0.000021408807101  -0.000029199266273 1
force Ag   0.000025114767805   0.000064222725265   0.000104200892412 1
force Ag  -0.000021017624555   0.000356915105371  -0.000036027441925 1
force Ag   0.000019317195485   0.000312633062349   0.000441263364358 1
force Ag  -0.000020122912115   0.000205507339332   0.000323076292380 1

# Energy components:
   A_diel =        0.1318474025892198
   Eewald =     5491.9765080836159541
       EH =     6802.0058454833169890
     Eloc =   -14002.1691567640827998
      Enl =       39.5896127344925972
     EvdW =       -0.1330984239734836
      Exc =     -144.6850776928133371
 Exc_core =        2.0817047026418400
       KE =      335.2579575679198456
  MuShift =        0.0530788819757125
-------------------------------------
     Etot =    -1475.8907780243180241
       TS =        0.0002046273392644
-------------------------------------
        F =    -1475.8909826516573958
      muN =      -46.2696894543314485
-------------------------------------
        G =    -1429.6212931973259401


Dumping 'jdft.fillings' ... done
Dumping 'jdft.wfns' ... done
Dumping 'jdft.fluidState' ... done
Dumping 'jdft.ionpos' ... done
Dumping 'jdft.lattice' ... done
Dumping 'jdft.eigenvals' ... done
Dumping 'jdft.eigStats' ... 
	eMin: -3.629123 at state 0 ( [ +0.000000 +0.000000 +0.000000 ] spin 1 )
	HOMO: -0.246067 at state 30 ( [ +0.444444 -0.285714 +0.000000 ] spin 1 )
	mu  : -0.244750
	LUMO: -0.244624 at state 36 ( [ +0.111111 +0.000000 +0.000000 ] spin -1 )
	eMax: +0.124140 at state 13 ( [ +0.222222 +0.285714 +0.000000 ] spin 1 )
	HOMO-LUMO gap: +0.001443
	Optical gap  : +0.014841 at state 30 ( [ +0.444444 -0.285714 +0.000000 ] spin 1 )
Dumping 'jdft.Ecomponents' ... done
IonicMinimize: Iter:   4  G: -1429.621293197325940  |grad|_K:  1.980e-04  alpha:  1.000e+00  linmin: -1.831e-01  t[s]:   7288.07
IonicMinimize: Converged (|Delta G|<1.000000e-04 for 2 iters).

#--- Lowdin population analysis ---
# oxidation-state Ag -0.023 +0.003 -0.029 +0.113 +0.448 -0.029 +0.003 -0.023 +0.448 +0.113
# magnetic-moments Ag +0.000 -0.000 -0.000 +0.000 +0.000 -0.000 -0.000 +0.000 +0.000 +0.000


Dumping 'jdft.n_up' ... done
Dumping 'jdft.n_dn' ... done
Dumping 'jdft.tau_up' ... done
Dumping 'jdft.tau_dn' ... done
Dumping 'jdft.eigenvals' ... done
Dumping 'jdft.eigStats' ... 
	eMin: -3.629123 at state 0 ( [ +0.000000 +0.000000 +0.000000 ] spin 1 )
	HOMO: -0.246067 at state 30 ( [ +0.444444 -0.285714 +0.000000 ] spin 1 )
	mu  : -0.244750
	LUMO: -0.244624 at state 36 ( [ +0.111111 +0.000000 +0.000000 ] spin -1 )
	eMax: +0.124140 at state 13 ( [ +0.222222 +0.285714 +0.000000 ] spin 1 )
	HOMO-LUMO gap: +0.001443
	Optical gap  : +0.014841 at state 30 ( [ +0.444444 -0.285714 +0.000000 ] spin 1 )
Dumping 'jdft.kPts' ... done
Dumping 'jdft.kMap' ... done
Dumping 'jdft.dosUp' ... done.
Dumping 'jdft.dosDn' ... done.
End date and time: Thu Sep  8 23:32:48 2022  (Duration: 0-2:01:56.43)
Done!

PROFILER:             augmentDensityGrid     1.809348 +/-     0.066623 s,  316 calls,    571.753957 s total
PROFILER:         augmentDensityGridGrad     0.151483 +/-     0.037998 s,  169 calls,     25.600549 s total
PROFILER:        augmentDensitySpherical     0.001005 +/-     0.000047 s,  948 calls,      0.952993 s total
PROFILER:    augmentDensitySphericalGrad     0.001080 +/-     0.000136 s,  603 calls,      0.650975 s total
PROFILER:                 augmentOverlap     0.430881 +/-     0.047069 s, 1962 calls,    845.388693 s total
PROFILER:        ColumnBundle::randomize     0.000931 +/-     0.000021 s,    3 calls,      0.002792 s total
PROFILER:                     diagouterI     1.659222 +/-     0.070131 s,  957 calls,   1587.875155 s total
PROFILER:              EdensityAndVscloc     1.406516 +/-     0.862569 s,  317 calls,    445.865472 s total
PROFILER:                     EnlAndGrad     0.002152 +/-     0.000392 s, 1002 calls,      2.156237 s total
PROFILER:            ExCorrCommunication     0.015926 +/-     0.045811 s, 1970 calls,     31.374405 s total
PROFILER:               ExCorrFunctional     0.005029 +/-     0.000751 s,  336 calls,      1.689895 s total
PROFILER:                    ExCorrTotal     0.133026 +/-     0.098040 s,  336 calls,     44.696828 s total
PROFILER:                   Idag_DiagV_I     3.037929 +/-     0.787074 s,  585 calls,   1777.188436 s total
PROFILER:                    initWeights     1.962111 +/-     0.000000 s,    1 calls,      1.962111 s total
PROFILER:                    inv(matrix)     0.001303 +/-     0.000067 s,  870 calls,      1.134037 s total
PROFILER:            matrix::diagonalize     0.005368 +/-     0.002357 s, 1530 calls,      8.212933 s total
PROFILER:                    matrix::set     0.000003 +/-     0.000005 s, 16674 calls,      0.057664 s total
PROFILER:            orthoMatrix(matrix)     0.000876 +/-     0.000562 s,  960 calls,      0.840743 s total
PROFILER:     RadialFunctionR::transform     0.052552 +/-     0.229292 s,   58 calls,      3.048043 s total
PROFILER:                    reduceKmesh     0.000487 +/-     0.000000 s,    1 calls,      0.000487 s total
PROFILER:   VanDerWaalsD3::energyAndGrad     0.004793 +/-     0.000306 s,   13 calls,      0.062306 s total
PROFILER:               WavefunctionDrag     5.542739 +/-     0.935495 s,    6 calls,     33.256434 s total
PROFILER:                            Y*M     0.123788 +/-     0.035092 s, 6500 calls,    804.622944 s total
PROFILER:                          Y1^Y2     0.138339 +/-     0.043577 s, 4212 calls,    582.683087 s total

MEMUSAGE:                   ColumnBundle     0.358374 GB
MEMUSAGE:        complexScalarFieldTilde     0.012016 GB
MEMUSAGE:                    IndexArrays     0.013761 GB
MEMUSAGE:                         matrix     0.013527 GB
MEMUSAGE:                           misc     0.008078 GB
MEMUSAGE:                    ScalarField     0.058079 GB
MEMUSAGE:               ScalarFieldTilde     0.042458 GB
MEMUSAGE:                          Total     0.420984 GB
