
*************** JDFTx 1.6.0  ***************

Start date and time: Thu Feb 17 02:28:17 2022
Executable /projects/musgravc/apps/jdftx-1.6.1/build/jdftx with command-line: -i in
Running on hosts (process indices):  shas0458.rc.int.colorado.edu (0-23)
Divided in process groups (process indices):  0 (0)  1 (1)  2 (2)  3 (3)  4 (4)  5 (5)  6 (6)  7 (7)  8 (8)  9 (9)  10 (10)  11 (11)  12 (12)  13 (13)  14 (14)  15 (15)  16 (16)  17 (17)  18 (18)  19 (19)  20 (20)  21 (21)  22 (22)  23 (23)
Resource initialization completed at t[s]:      0.00
Run totals: 24 processes, 24 threads, 0 GPUs


Input parsed successfully to the following command list (including defaults):

basis kpoint-dependent
converge-empty-states yes
coords-type Cartesian
core-overlap-check none
coulomb-interaction Periodic
davidson-band-ratio 1.1
density-of-states Etol 1.000000e-06 Esigma 1.000000e-03 \
		Complete \
	Total \
	OrthoOrbital Cu 1   s \
	OrthoOrbital Cu 1   p \
	OrthoOrbital Cu 1   px \
	OrthoOrbital Cu 1   py \
	OrthoOrbital Cu 1   pz \
	OrthoOrbital Cu 1   d \
	OrthoOrbital Cu 1   dxy \
	OrthoOrbital Cu 1   dyz \
	OrthoOrbital Cu 1   dz2 \
	OrthoOrbital Cu 1   dxz \
	OrthoOrbital Cu 1   dx2-y2 \
	OrthoOrbital Cu 2   s \
	OrthoOrbital Cu 2   p \
	OrthoOrbital Cu 2   px \
	OrthoOrbital Cu 2   py \
	OrthoOrbital Cu 2   pz \
	OrthoOrbital Cu 2   d \
	OrthoOrbital Cu 2   dxy \
	OrthoOrbital Cu 2   dyz \
	OrthoOrbital Cu 2   dz2 \
	OrthoOrbital Cu 2   dxz \
	OrthoOrbital Cu 2   dx2-y2 \
	OrthoOrbital Cu 3   s \
	OrthoOrbital Cu 3   p \
	OrthoOrbital Cu 3   px \
	OrthoOrbital Cu 3   py \
	OrthoOrbital Cu 3   pz \
	OrthoOrbital Cu 3   d \
	OrthoOrbital Cu 3   dxy \
	OrthoOrbital Cu 3   dyz \
	OrthoOrbital Cu 3   dz2 \
	OrthoOrbital Cu 3   dxz \
	OrthoOrbital Cu 3   dx2-y2 \
	OrthoOrbital Cu 4   s \
	OrthoOrbital Cu 4   p \
	OrthoOrbital Cu 4   px \
	OrthoOrbital Cu 4   py \
	OrthoOrbital Cu 4   pz \
	OrthoOrbital Cu 4   d \
	OrthoOrbital Cu 4   dxy \
	OrthoOrbital Cu 4   dyz \
	OrthoOrbital Cu 4   dz2 \
	OrthoOrbital Cu 4   dxz \
	OrthoOrbital Cu 4   dx2-y2 \
	OrthoOrbital Cu 5   s \
	OrthoOrbital Cu 5   p \
	OrthoOrbital Cu 5   px \
	OrthoOrbital Cu 5   py \
	OrthoOrbital Cu 5   pz \
	OrthoOrbital Cu 5   d \
	OrthoOrbital Cu 5   dxy \
	OrthoOrbital Cu 5   dyz \
	OrthoOrbital Cu 5   dz2 \
	OrthoOrbital Cu 5   dxz \
	OrthoOrbital Cu 5   dx2-y2 \
	OrthoOrbital Cu 6   s \
	OrthoOrbital Cu 6   p \
	OrthoOrbital Cu 6   px \
	OrthoOrbital Cu 6   py \
	OrthoOrbital Cu 6   pz \
	OrthoOrbital Cu 6   d \
	OrthoOrbital Cu 6   dxy \
	OrthoOrbital Cu 6   dyz \
	OrthoOrbital Cu 6   dz2 \
	OrthoOrbital Cu 6   dxz \
	OrthoOrbital Cu 6   dx2-y2 \
	OrthoOrbital Cu 7   s \
	OrthoOrbital Cu 7   p \
	OrthoOrbital Cu 7   px \
	OrthoOrbital Cu 7   py \
	OrthoOrbital Cu 7   pz \
	OrthoOrbital Cu 7   d \
	OrthoOrbital Cu 7   dxy \
	OrthoOrbital Cu 7   dyz \
	OrthoOrbital Cu 7   dz2 \
	OrthoOrbital Cu 7   dxz \
	OrthoOrbital Cu 7   dx2-y2 \
	OrthoOrbital Cu 8   s \
	OrthoOrbital Cu 8   p \
	OrthoOrbital Cu 8   px \
	OrthoOrbital Cu 8   py \
	OrthoOrbital Cu 8   pz \
	OrthoOrbital Cu 8   d \
	OrthoOrbital Cu 8   dxy \
	OrthoOrbital Cu 8   dyz \
	OrthoOrbital Cu 8   dz2 \
	OrthoOrbital Cu 8   dxz \
	OrthoOrbital Cu 8   dx2-y2 \
	OrthoOrbital Cu 9   s \
	OrthoOrbital Cu 9   p \
	OrthoOrbital Cu 9   px \
	OrthoOrbital Cu 9   py \
	OrthoOrbital Cu 9   pz \
	OrthoOrbital Cu 9   d \
	OrthoOrbital Cu 9   dxy \
	OrthoOrbital Cu 9   dyz \
	OrthoOrbital Cu 9   dz2 \
	OrthoOrbital Cu 9   dxz \
	OrthoOrbital Cu 9   dx2-y2 \
	OrthoOrbital Cu 10   s \
	OrthoOrbital Cu 10   p \
	OrthoOrbital Cu 10   px \
	OrthoOrbital Cu 10   py \
	OrthoOrbital Cu 10   pz \
	OrthoOrbital Cu 10   d \
	OrthoOrbital Cu 10   dxy \
	OrthoOrbital Cu 10   dyz \
	OrthoOrbital Cu 10   dz2 \
	OrthoOrbital Cu 10   dxz \
	OrthoOrbital Cu 10   dx2-y2 \
	OrthoOrbital Cu 11   s \
	OrthoOrbital Cu 11   p \
	OrthoOrbital Cu 11   px \
	OrthoOrbital Cu 11   py \
	OrthoOrbital Cu 11   pz \
	OrthoOrbital Cu 11   d \
	OrthoOrbital Cu 11   dxy \
	OrthoOrbital Cu 11   dyz \
	OrthoOrbital Cu 11   dz2 \
	OrthoOrbital Cu 11   dxz \
	OrthoOrbital Cu 11   dx2-y2 \
	OrthoOrbital Cu 12   s \
	OrthoOrbital Cu 12   p \
	OrthoOrbital Cu 12   px \
	OrthoOrbital Cu 12   py \
	OrthoOrbital Cu 12   pz \
	OrthoOrbital Cu 12   d \
	OrthoOrbital Cu 12   dxy \
	OrthoOrbital Cu 12   dyz \
	OrthoOrbital Cu 12   dz2 \
	OrthoOrbital Cu 12   dxz \
	OrthoOrbital Cu 12   dx2-y2 \
	OrthoOrbital Cu 13   s \
	OrthoOrbital Cu 13   p \
	OrthoOrbital Cu 13   px \
	OrthoOrbital Cu 13   py \
	OrthoOrbital Cu 13   pz \
	OrthoOrbital Cu 13   d \
	OrthoOrbital Cu 13   dxy \
	OrthoOrbital Cu 13   dyz \
	OrthoOrbital Cu 13   dz2 \
	OrthoOrbital Cu 13   dxz \
	OrthoOrbital Cu 13   dx2-y2 \
	OrthoOrbital Cu 14   s \
	OrthoOrbital Cu 14   p \
	OrthoOrbital Cu 14   px \
	OrthoOrbital Cu 14   py \
	OrthoOrbital Cu 14   pz \
	OrthoOrbital Cu 14   d \
	OrthoOrbital Cu 14   dxy \
	OrthoOrbital Cu 14   dyz \
	OrthoOrbital Cu 14   dz2 \
	OrthoOrbital Cu 14   dxz \
	OrthoOrbital Cu 14   dx2-y2 \
	OrthoOrbital Cu 15   s \
	OrthoOrbital Cu 15   p \
	OrthoOrbital Cu 15   px \
	OrthoOrbital Cu 15   py \
	OrthoOrbital Cu 15   pz \
	OrthoOrbital Cu 15   d \
	OrthoOrbital Cu 15   dxy \
	OrthoOrbital Cu 15   dyz \
	OrthoOrbital Cu 15   dz2 \
	OrthoOrbital Cu 15   dxz \
	OrthoOrbital Cu 15   dx2-y2 \
	OrthoOrbital Cu 16   s \
	OrthoOrbital Cu 16   p \
	OrthoOrbital Cu 16   px \
	OrthoOrbital Cu 16   py \
	OrthoOrbital Cu 16   pz \
	OrthoOrbital Cu 16   d \
	OrthoOrbital Cu 16   dxy \
	OrthoOrbital Cu 16   dyz \
	OrthoOrbital Cu 16   dz2 \
	OrthoOrbital Cu 16   dxz \
	OrthoOrbital Cu 16   dx2-y2 \
	OrthoOrbital Cu 17   s \
	OrthoOrbital Cu 17   p \
	OrthoOrbital Cu 17   px \
	OrthoOrbital Cu 17   py \
	OrthoOrbital Cu 17   pz \
	OrthoOrbital Cu 17   d \
	OrthoOrbital Cu 17   dxy \
	OrthoOrbital Cu 17   dyz \
	OrthoOrbital Cu 17   dz2 \
	OrthoOrbital Cu 17   dxz \
	OrthoOrbital Cu 17   dx2-y2 \
	OrthoOrbital Cu 18   s \
	OrthoOrbital Cu 18   p \
	OrthoOrbital Cu 18   px \
	OrthoOrbital Cu 18   py \
	OrthoOrbital Cu 18   pz \
	OrthoOrbital Cu 18   d \
	OrthoOrbital Cu 18   dxy \
	OrthoOrbital Cu 18   dyz \
	OrthoOrbital Cu 18   dz2 \
	OrthoOrbital Cu 18   dxz \
	OrthoOrbital Cu 18   dx2-y2 \
	OrthoOrbital Cu 19   s \
	OrthoOrbital Cu 19   p \
	OrthoOrbital Cu 19   px \
	OrthoOrbital Cu 19   py \
	OrthoOrbital Cu 19   pz \
	OrthoOrbital Cu 19   d \
	OrthoOrbital Cu 19   dxy \
	OrthoOrbital Cu 19   dyz \
	OrthoOrbital Cu 19   dz2 \
	OrthoOrbital Cu 19   dxz \
	OrthoOrbital Cu 19   dx2-y2 \
	OrthoOrbital Cu 20   s \
	OrthoOrbital Cu 20   p \
	OrthoOrbital Cu 20   px \
	OrthoOrbital Cu 20   py \
	OrthoOrbital Cu 20   pz \
	OrthoOrbital Cu 20   d \
	OrthoOrbital Cu 20   dxy \
	OrthoOrbital Cu 20   dyz \
	OrthoOrbital Cu 20   dz2 \
	OrthoOrbital Cu 20   dxz \
	OrthoOrbital Cu 20   dx2-y2 \
	OrthoOrbital Cu 21   s \
	OrthoOrbital Cu 21   p \
	OrthoOrbital Cu 21   px \
	OrthoOrbital Cu 21   py \
	OrthoOrbital Cu 21   pz \
	OrthoOrbital Cu 21   d \
	OrthoOrbital Cu 21   dxy \
	OrthoOrbital Cu 21   dyz \
	OrthoOrbital Cu 21   dz2 \
	OrthoOrbital Cu 21   dxz \
	OrthoOrbital Cu 21   dx2-y2 \
	OrthoOrbital Cu 22   s \
	OrthoOrbital Cu 22   p \
	OrthoOrbital Cu 22   px \
	OrthoOrbital Cu 22   py \
	OrthoOrbital Cu 22   pz \
	OrthoOrbital Cu 22   d \
	OrthoOrbital Cu 22   dxy \
	OrthoOrbital Cu 22   dyz \
	OrthoOrbital Cu 22   dz2 \
	OrthoOrbital Cu 22   dxz \
	OrthoOrbital Cu 22   dx2-y2 \
	OrthoOrbital Cu 23   s \
	OrthoOrbital Cu 23   p \
	OrthoOrbital Cu 23   px \
	OrthoOrbital Cu 23   py \
	OrthoOrbital Cu 23   pz \
	OrthoOrbital Cu 23   d \
	OrthoOrbital Cu 23   dxy \
	OrthoOrbital Cu 23   dyz \
	OrthoOrbital Cu 23   dz2 \
	OrthoOrbital Cu 23   dxz \
	OrthoOrbital Cu 23   dx2-y2 \
	OrthoOrbital Cu 24   s \
	OrthoOrbital Cu 24   p \
	OrthoOrbital Cu 24   px \
	OrthoOrbital Cu 24   py \
	OrthoOrbital Cu 24   pz \
	OrthoOrbital Cu 24   d \
	OrthoOrbital Cu 24   dxy \
	OrthoOrbital Cu 24   dyz \
	OrthoOrbital Cu 24   dz2 \
	OrthoOrbital Cu 24   dxz \
	OrthoOrbital Cu 24   dx2-y2 \
	OrthoOrbital Cu 25   s \
	OrthoOrbital Cu 25   p \
	OrthoOrbital Cu 25   px \
	OrthoOrbital Cu 25   py \
	OrthoOrbital Cu 25   pz \
	OrthoOrbital Cu 25   d \
	OrthoOrbital Cu 25   dxy \
	OrthoOrbital Cu 25   dyz \
	OrthoOrbital Cu 25   dz2 \
	OrthoOrbital Cu 25   dxz \
	OrthoOrbital Cu 25   dx2-y2 \
	OrthoOrbital Cu 26   s \
	OrthoOrbital Cu 26   p \
	OrthoOrbital Cu 26   px \
	OrthoOrbital Cu 26   py \
	OrthoOrbital Cu 26   pz \
	OrthoOrbital Cu 26   d \
	OrthoOrbital Cu 26   dxy \
	OrthoOrbital Cu 26   dyz \
	OrthoOrbital Cu 26   dz2 \
	OrthoOrbital Cu 26   dxz \
	OrthoOrbital Cu 26   dx2-y2 \
	OrthoOrbital Cu 27   s \
	OrthoOrbital Cu 27   p \
	OrthoOrbital Cu 27   px \
	OrthoOrbital Cu 27   py \
	OrthoOrbital Cu 27   pz \
	OrthoOrbital Cu 27   d \
	OrthoOrbital Cu 27   dxy \
	OrthoOrbital Cu 27   dyz \
	OrthoOrbital Cu 27   dz2 \
	OrthoOrbital Cu 27   dxz \
	OrthoOrbital Cu 27   dx2-y2 \
	OrthoOrbital Cu 28   s \
	OrthoOrbital Cu 28   p \
	OrthoOrbital Cu 28   px \
	OrthoOrbital Cu 28   py \
	OrthoOrbital Cu 28   pz \
	OrthoOrbital Cu 28   d \
	OrthoOrbital Cu 28   dxy \
	OrthoOrbital Cu 28   dyz \
	OrthoOrbital Cu 28   dz2 \
	OrthoOrbital Cu 28   dxz \
	OrthoOrbital Cu 28   dx2-y2 \
	OrthoOrbital Cu 29   s \
	OrthoOrbital Cu 29   p \
	OrthoOrbital Cu 29   px \
	OrthoOrbital Cu 29   py \
	OrthoOrbital Cu 29   pz \
	OrthoOrbital Cu 29   d \
	OrthoOrbital Cu 29   dxy \
	OrthoOrbital Cu 29   dyz \
	OrthoOrbital Cu 29   dz2 \
	OrthoOrbital Cu 29   dxz \
	OrthoOrbital Cu 29   dx2-y2 \
	OrthoOrbital Cu 30   s \
	OrthoOrbital Cu 30   p \
	OrthoOrbital Cu 30   px \
	OrthoOrbital Cu 30   py \
	OrthoOrbital Cu 30   pz \
	OrthoOrbital Cu 30   d \
	OrthoOrbital Cu 30   dxy \
	OrthoOrbital Cu 30   dyz \
	OrthoOrbital Cu 30   dz2 \
	OrthoOrbital Cu 30   dxz \
	OrthoOrbital Cu 30   dx2-y2 \
	OrthoOrbital Cu 31   s \
	OrthoOrbital Cu 31   p \
	OrthoOrbital Cu 31   px \
	OrthoOrbital Cu 31   py \
	OrthoOrbital Cu 31   pz \
	OrthoOrbital Cu 31   d \
	OrthoOrbital Cu 31   dxy \
	OrthoOrbital Cu 31   dyz \
	OrthoOrbital Cu 31   dz2 \
	OrthoOrbital Cu 31   dxz \
	OrthoOrbital Cu 31   dx2-y2 \
	OrthoOrbital Cu 32   s \
	OrthoOrbital Cu 32   p \
	OrthoOrbital Cu 32   px \
	OrthoOrbital Cu 32   py \
	OrthoOrbital Cu 32   pz \
	OrthoOrbital Cu 32   d \
	OrthoOrbital Cu 32   dxy \
	OrthoOrbital Cu 32   dyz \
	OrthoOrbital Cu 32   dz2 \
	OrthoOrbital Cu 32   dxz \
	OrthoOrbital Cu 32   dx2-y2 \
	OrthoOrbital Cu 33   s \
	OrthoOrbital Cu 33   p \
	OrthoOrbital Cu 33   px \
	OrthoOrbital Cu 33   py \
	OrthoOrbital Cu 33   pz \
	OrthoOrbital Cu 33   d \
	OrthoOrbital Cu 33   dxy \
	OrthoOrbital Cu 33   dyz \
	OrthoOrbital Cu 33   dz2 \
	OrthoOrbital Cu 33   dxz \
	OrthoOrbital Cu 33   dx2-y2 \
	OrthoOrbital Cu 34   s \
	OrthoOrbital Cu 34   p \
	OrthoOrbital Cu 34   px \
	OrthoOrbital Cu 34   py \
	OrthoOrbital Cu 34   pz \
	OrthoOrbital Cu 34   d \
	OrthoOrbital Cu 34   dxy \
	OrthoOrbital Cu 34   dyz \
	OrthoOrbital Cu 34   dz2 \
	OrthoOrbital Cu 34   dxz \
	OrthoOrbital Cu 34   dx2-y2 \
	OrthoOrbital Cu 35   s \
	OrthoOrbital Cu 35   p \
	OrthoOrbital Cu 35   px \
	OrthoOrbital Cu 35   py \
	OrthoOrbital Cu 35   pz \
	OrthoOrbital Cu 35   d \
	OrthoOrbital Cu 35   dxy \
	OrthoOrbital Cu 35   dyz \
	OrthoOrbital Cu 35   dz2 \
	OrthoOrbital Cu 35   dxz \
	OrthoOrbital Cu 35   dx2-y2 \
	OrthoOrbital Cu 36   s \
	OrthoOrbital Cu 36   p \
	OrthoOrbital Cu 36   px \
	OrthoOrbital Cu 36   py \
	OrthoOrbital Cu 36   pz \
	OrthoOrbital Cu 36   d \
	OrthoOrbital Cu 36   dxy \
	OrthoOrbital Cu 36   dyz \
	OrthoOrbital Cu 36   dz2 \
	OrthoOrbital Cu 36   dxz \
	OrthoOrbital Cu 36   dx2-y2 \
	OrthoOrbital Cu 37   s \
	OrthoOrbital Cu 37   p \
	OrthoOrbital Cu 37   px \
	OrthoOrbital Cu 37   py \
	OrthoOrbital Cu 37   pz \
	OrthoOrbital Cu 37   d \
	OrthoOrbital Cu 37   dxy \
	OrthoOrbital Cu 37   dyz \
	OrthoOrbital Cu 37   dz2 \
	OrthoOrbital Cu 37   dxz \
	OrthoOrbital Cu 37   dx2-y2 \
	OrthoOrbital Cu 38   s \
	OrthoOrbital Cu 38   p \
	OrthoOrbital Cu 38   px \
	OrthoOrbital Cu 38   py \
	OrthoOrbital Cu 38   pz \
	OrthoOrbital Cu 38   d \
	OrthoOrbital Cu 38   dxy \
	OrthoOrbital Cu 38   dyz \
	OrthoOrbital Cu 38   dz2 \
	OrthoOrbital Cu 38   dxz \
	OrthoOrbital Cu 38   dx2-y2 \
	OrthoOrbital Cu 39   s \
	OrthoOrbital Cu 39   p \
	OrthoOrbital Cu 39   px \
	OrthoOrbital Cu 39   py \
	OrthoOrbital Cu 39   pz \
	OrthoOrbital Cu 39   d \
	OrthoOrbital Cu 39   dxy \
	OrthoOrbital Cu 39   dyz \
	OrthoOrbital Cu 39   dz2 \
	OrthoOrbital Cu 39   dxz \
	OrthoOrbital Cu 39   dx2-y2 \
	OrthoOrbital Cu 40   s \
	OrthoOrbital Cu 40   p \
	OrthoOrbital Cu 40   px \
	OrthoOrbital Cu 40   py \
	OrthoOrbital Cu 40   pz \
	OrthoOrbital Cu 40   d \
	OrthoOrbital Cu 40   dxy \
	OrthoOrbital Cu 40   dyz \
	OrthoOrbital Cu 40   dz2 \
	OrthoOrbital Cu 40   dxz \
	OrthoOrbital Cu 40   dx2-y2 \
	OrthoOrbital Cu 41   s \
	OrthoOrbital Cu 41   p \
	OrthoOrbital Cu 41   px \
	OrthoOrbital Cu 41   py \
	OrthoOrbital Cu 41   pz \
	OrthoOrbital Cu 41   d \
	OrthoOrbital Cu 41   dxy \
	OrthoOrbital Cu 41   dyz \
	OrthoOrbital Cu 41   dz2 \
	OrthoOrbital Cu 41   dxz \
	OrthoOrbital Cu 41   dx2-y2 \
	OrthoOrbital Cu 42   s \
	OrthoOrbital Cu 42   p \
	OrthoOrbital Cu 42   px \
	OrthoOrbital Cu 42   py \
	OrthoOrbital Cu 42   pz \
	OrthoOrbital Cu 42   d \
	OrthoOrbital Cu 42   dxy \
	OrthoOrbital Cu 42   dyz \
	OrthoOrbital Cu 42   dz2 \
	OrthoOrbital Cu 42   dxz \
	OrthoOrbital Cu 42   dx2-y2 \
	OrthoOrbital Cu 43   s \
	OrthoOrbital Cu 43   p \
	OrthoOrbital Cu 43   px \
	OrthoOrbital Cu 43   py \
	OrthoOrbital Cu 43   pz \
	OrthoOrbital Cu 43   d \
	OrthoOrbital Cu 43   dxy \
	OrthoOrbital Cu 43   dyz \
	OrthoOrbital Cu 43   dz2 \
	OrthoOrbital Cu 43   dxz \
	OrthoOrbital Cu 43   dx2-y2 \
	OrthoOrbital Cu 44   s \
	OrthoOrbital Cu 44   p \
	OrthoOrbital Cu 44   px \
	OrthoOrbital Cu 44   py \
	OrthoOrbital Cu 44   pz \
	OrthoOrbital Cu 44   d \
	OrthoOrbital Cu 44   dxy \
	OrthoOrbital Cu 44   dyz \
	OrthoOrbital Cu 44   dz2 \
	OrthoOrbital Cu 44   dxz \
	OrthoOrbital Cu 44   dx2-y2 \
	OrthoOrbital C 1   s \
	OrthoOrbital C 1   p \
	OrthoOrbital C 1   px \
	OrthoOrbital C 1   py \
	OrthoOrbital C 1   pz \
	OrthoOrbital O 1   s \
	OrthoOrbital O 1   p \
	OrthoOrbital O 1   px \
	OrthoOrbital O 1   py \
	OrthoOrbital O 1   pz
dump End ElecDensity KEdensity BandEigs EigStats RhoAtom DOS Kpoints
dump Ionic State IonicPositions Lattice EigStats Ecomponents
dump 
dump 
dump 
dump 
dump 
dump 
dump 
dump 
dump-name jdft.$VAR
elec-cutoff 20
elec-eigen-algo Davidson
elec-ex-corr gga-PBE
elec-initial-magnetization 0.000000 no
elec-n-bands 508
elec-smearing Fermi 0.001
electronic-minimize  \
	dirUpdateScheme      FletcherReeves \
	linminMethod         DirUpdateRecommended \
	nIterations          100 \
	history              15 \
	knormThreshold       0 \
	energyDiffThreshold  1e-07 \
	nEnergyDiff          2 \
	alphaTstart          1 \
	alphaTmin            1e-10 \
	updateTestStepSize   yes \
	alphaTreduceFactor   0.1 \
	alphaTincreaseFactor 3 \
	nAlphaAdjustMax      3 \
	wolfeEnergy          0.0001 \
	wolfeGradient        0.9 \
	fdTest               no
exchange-regularization WignerSeitzTruncated
fluid LinearPCM 298.000000 1.013250
fluid-anion F- 0.5 MeanFieldLJ \
	epsBulk 1 \
	pMol 0 \
	epsInf 1 \
	Pvap 0 \
	sigmaBulk 0 \
	Rvdw 2.24877 \
	Res 0 \
	tauNuc 343133
fluid-cation Na+ 0.5 MeanFieldLJ \
	epsBulk 1 \
	pMol 0 \
	epsInf 1 \
	Pvap 0 \
	sigmaBulk 0 \
	Rvdw 2.19208 \
	Res 0 \
	tauNuc 343133
fluid-ex-corr lda-TF lda-PZ
fluid-gummel-loop 10 1.000000e-05
fluid-minimize  \
	dirUpdateScheme      PolakRibiere \
	linminMethod         DirUpdateRecommended \
	nIterations          400 \
	history              15 \
	knormThreshold       1e-11 \
	energyDiffThreshold  0 \
	nEnergyDiff          2 \
	alphaTstart          1 \
	alphaTmin            1e-10 \
	updateTestStepSize   yes \
	alphaTreduceFactor   0.1 \
	alphaTincreaseFactor 3 \
	nAlphaAdjustMax      6 \
	wolfeEnergy          0.0001 \
	wolfeGradient        0.9 \
	fdTest               no
fluid-solvent H2O 55.338 ScalarEOS \
	epsBulk 78.4 \
	pMol 0.92466 \
	epsInf 1.77 \
	Pvap 1.06736e-10 \
	sigmaBulk 4.62e-05 \
	Rvdw 2.61727 \
	Res 1.42 \
	tauNuc 343133 \
	poleEl 15 7 1
forces-output-coords Positions
ion Cu  -4.764959000000000  15.804627000000000  21.261259999999996 0
ion Cu  -2.381638000000000   7.900077000000000  21.261259999999996 0
ion Cu   0.001672999999999  15.804627000000000  21.261259999999996 0
ion Cu   2.384984000000000   7.900077000000000  21.261259999999996 0
ion Cu  -0.002340000000000   4.315647000000000   1.097505000000000 0
ion Cu  -2.385642000000001  12.220198000000000   1.097505000000000 0
ion Cu   4.764282000000000   4.315647000000000   1.097505000000000 0
ion Cu   2.380971000000000  12.220198000000000   1.097505000000000 0
ion Cu   2.381794999999999   0.713275000000000   2.921133999999999 0
ion Cu  -0.001516000000001   8.617826000000001   2.921133999999999 0
ion Cu   7.148417999999999   0.713275000000000   2.921133999999999 0
ion Cu   4.765107000000000   8.617826000000001   2.921133999999999 0
ion Cu   2.382486999999999   5.058106000000000   5.065168999999999 0
ion Cu  -0.000825000000000  12.962657000000000   5.065168999999999 0
ion Cu   7.149109000000000   5.058106000000000   5.065168999999999 0
ion Cu   4.765797999999998  12.962657000000000   5.065168999999999 0
ion Cu   0.002769000000000   1.431814000000000   7.100813999999999 0
ion Cu  -2.380532000000001   9.336365000000001   7.100813999999999 0
ion Cu   4.769392000000000   1.431814000000000   7.100813999999999 0
ion Cu   2.386080999999999   9.336365000000001   7.100813999999999 0
ion Cu   0.000024000000000   5.742261000000000   9.138538999999998 0
ion Cu  -2.383287000000001  13.646811000000000   9.138538999999998 0
ion Cu   4.766646000000000   5.742261000000000   9.138538999999998 0
ion Cu   2.383335000000000  13.646811000000000   9.138538999999998 0
ion Cu   2.383383000000000   2.155998000000000  11.179549999999999 0
ion Cu   0.000070999999999  10.060548000000001  11.179549999999999 0
ion Cu   7.150005000000000   2.155998000000000  11.179549999999999 0
ion Cu   4.766693999999999  10.060548000000001  11.179549999999999 0
ion Cu   2.382868000000000   6.473874000000000  13.215530999999999 0
ion Cu  -0.000443000000001  14.378425000000000  13.215530999999999 0
ion Cu   7.149489999999999   6.473874000000000  13.215530999999999 0
ion Cu   4.766178999999999  14.378425000000000  13.215530999999999 0
ion Cu  -0.002007000000000   2.879960000000000  15.258352999999996 0
ion Cu  -2.385318000000001  10.784509999999999  15.258352999999996 0
ion Cu   4.764615999999999   2.879960000000000  15.258352999999996 0
ion Cu   2.381304999999999  10.784509999999999  15.258352999999996 0
ion Cu   0.000862999999999   7.157744000000000  17.290979999999998 0
ion Cu  -2.382448000000000  15.062295000000001  17.290979999999998 0
ion Cu   4.767476000000000   7.157744000000000  17.290979999999998 0
ion Cu   2.384173999999999  15.062295000000001  17.290979999999998 0
ion Cu   2.385027000000000   3.598594000000000  19.437361999999997 0
ion Cu   0.001716000000000  11.503145000000000  19.437361999999997 0
ion Cu   7.151650000000000   3.598594000000000  19.437361999999997 0
ion Cu   4.768337999999999  11.503145000000000  19.437361999999997 0
ion C   2.384984000000000   7.900077000000000  25.040718999999996 1  Linear 0 0 1
ion O   2.445082000000001   7.900077000000000  27.196088999999997 1  Linear 0 0 1
ion-species /projects/musgravc/apps/jdftx-1.6.0/build/pseudopotentials/GBRV_v1.5/$ID_pbe_v1.uspp
ion-species /projects/musgravc/apps/jdftx-1.6.0/build/pseudopotentials/GBRV_v1.5/$ID_pbe_v1.2.uspp
ion-species /projects/musgravc/apps/jdftx-1.6.0/build/pseudopotentials/GBRV_v1.5/$ID_pbe_v1.4.uspp
ion-species /projects/musgravc/apps/jdftx-1.6.0/build/pseudopotentials/GBRV_v1.5/$ID_pbe_v1.5.uspp
ion-width Ecut
ionic-minimize  \
	dirUpdateScheme      L-BFGS \
	linminMethod         DirUpdateRecommended \
	nIterations          100 \
	history              15 \
	knormThreshold       0.0001 \
	energyDiffThreshold  1e-06 \
	nEnergyDiff          2 \
	alphaTstart          1 \
	alphaTmin            1e-10 \
	updateTestStepSize   yes \
	alphaTreduceFactor   0.1 \
	alphaTincreaseFactor 3 \
	nAlphaAdjustMax      3 \
	wolfeEnergy          0.0001 \
	wolfeGradient        0.9 \
	fdTest               no
kpoint   0.000000000000   0.000000000000   0.000000000000  1.00000000000000
kpoint-folding 6 3 1 
latt-move-scale 0 0 0
latt-scale 1 1 1 
lattice  \
	   9.533245000000001   -4.766623000000000    0.000000000000000  \
	   0.000000000000000   15.809101000000000    0.000000000000000  \
	   0.000000000000000    0.000000000000000   67.072337000000005 
lattice-minimize  \
	dirUpdateScheme      L-BFGS \
	linminMethod         DirUpdateRecommended \
	nIterations          0 \
	history              15 \
	knormThreshold       0 \
	energyDiffThreshold  1e-06 \
	nEnergyDiff          2 \
	alphaTstart          1 \
	alphaTmin            1e-10 \
	updateTestStepSize   yes \
	alphaTreduceFactor   0.1 \
	alphaTincreaseFactor 3 \
	nAlphaAdjustMax      3 \
	wolfeEnergy          0.0001 \
	wolfeGradient        0.9 \
	fdTest               no
lcao-params 30 1e-06 0.001
pcm-variant CANDLE
spintype z-spin
subspace-rotation-factor 1 yes
symmetries automatic
symmetry-threshold 0.0001
van-der-waals D3



---------- Setting up symmetries ----------

Found 8 point-group symmetries of the bravais lattice
Found 1 space-group symmetries with basis
Applied RMS atom displacement 0 bohrs to make symmetries exact.

---------- Initializing the Grid ----------
R = 
[      9.53325     -4.76662            0  ]
[            0      15.8091            0  ]
[            0            0      67.0723  ]
unit cell volume = 10108.6
G =
[   0.659081   0.198721         -0  ]
[          0   0.397441          0  ]
[          0         -0  0.0936777  ]
Minimum fftbox size, Smin = [  40  68  272  ]
Chosen fftbox size, S = [  40  70  280  ]

---------- Exchange Correlation functional ----------
Initalized PBE GGA exchange.
Initalized PBE GGA correlation.

---------- Setting up pseudopotentials ----------
Width of ionic core gaussian charges (only for fluid interactions / plotting) set to 0.397384

Reading pseudopotential file '/projects/musgravc/apps/jdftx-1.6.0/build/pseudopotentials/GBRV_v1.5/cu_pbe_v1.2.uspp':
  Title: Cu.  Created by USPP 7.3.6 on 3-2-2014
  Reference state energy: -201.059491.  19 valence electrons in orbitals:
    |300>  occupation: 2  eigenvalue: -5.020764
    |310>  occupation: 6  eigenvalue: -3.445588
    |320>  occupation: 8  eigenvalue: -0.925168
    |400>  occupation: 2  eigenvalue: -0.567638
    |410>  occupation: 0  eigenvalue: -0.326154
  lMax: 2  lLocal: 3  QijEcut: 6
  6 projectors sampled on a log grid with 613 points:
    l: 0  eig: -5.020767  rCut: 1.4
    l: 0  eig: -0.567640  rCut: 1.4
    l: 1  eig: -3.445589  rCut: 1.55
    l: 1  eig: -0.326157  rCut: 1.55
    l: 2  eig: -0.925170  rCut: 1.5
    l: 2  eig: 1.500000  rCut: 1.5
  Partial core density with radius 0.8
  Transforming core density to a uniform radial grid of dG=0.02 with 1295 points.
  Transforming local potential to a uniform radial grid of dG=0.02 with 1295 points.
  Transforming nonlocal projectors to a uniform radial grid of dG=0.02 with 432 points.
  Transforming density augmentations to a uniform radial grid of dG=0.02 with 1295 points.
  Transforming atomic orbitals to a uniform radial grid of dG=0.02 with 432 points.
  Core radius for overlap checks: 1.55 bohrs.

Reading pseudopotential file '/projects/musgravc/apps/jdftx-1.6.0/build/pseudopotentials/GBRV_v1.5/c_pbe_v1.2.uspp':
  Title: C.  Created by USPP 7.3.6 on 3-2-2014
  Reference state energy: -5.406344.  4 valence electrons in orbitals:
    |200>  occupation: 2  eigenvalue: -0.504890
    |210>  occupation: 2  eigenvalue: -0.194356
  lMax: 1  lLocal: 2  QijEcut: 5
  4 projectors sampled on a log grid with 503 points:
    l: 0  eig: -0.504890  rCut: 1.3
    l: 0  eig: 0.000000  rCut: 1.3
    l: 1  eig: -0.194357  rCut: 1.3
    l: 1  eig: 0.000000  rCut: 1.3
  Partial core density with radius 1.1
  Transforming core density to a uniform radial grid of dG=0.02 with 1295 points.
  Transforming local potential to a uniform radial grid of dG=0.02 with 1295 points.
  Transforming nonlocal projectors to a uniform radial grid of dG=0.02 with 432 points.
  Transforming density augmentations to a uniform radial grid of dG=0.02 with 1295 points.
  Transforming atomic orbitals to a uniform radial grid of dG=0.02 with 432 points.
  Core radius for overlap checks: 1.30 bohrs.

Reading pseudopotential file '/projects/musgravc/apps/jdftx-1.6.0/build/pseudopotentials/GBRV_v1.5/o_pbe_v1.2.uspp':
  Title: O.  Created by USPP 7.3.6 on 3-2-2014
  Reference state energy: -15.894388.  6 valence electrons in orbitals:
    |200>  occupation: 2  eigenvalue: -0.878823
    |210>  occupation: 4  eigenvalue: -0.332131
  lMax: 2  lLocal: 2  QijEcut: 6
  5 projectors sampled on a log grid with 511 points:
    l: 0  eig: -0.878823  rCut: 1.25
    l: 0  eig: 0.000000  rCut: 1.25
    l: 1  eig: -0.332132  rCut: 1.25
    l: 1  eig: 0.000000  rCut: 1.25
    l: 2  eig: 1.000000  rCut: 1.25
  Partial core density with radius 0.7
  Transforming core density to a uniform radial grid of dG=0.02 with 1295 points.
  Transforming local potential to a uniform radial grid of dG=0.02 with 1295 points.
  Transforming nonlocal projectors to a uniform radial grid of dG=0.02 with 432 points.
  Transforming density augmentations to a uniform radial grid of dG=0.02 with 1295 points.
  Transforming atomic orbitals to a uniform radial grid of dG=0.02 with 432 points.
  Core radius for overlap checks: 1.25 bohrs.

Initialized 3 species with 46 total atoms.

Folded 1 k-points by 6x3x1 to 18 k-points.

---------- Setting up k-points, bands, fillings ----------
Adding inversion symmetry to k-mesh for non-inversion-symmetric unit cell.
Reduced to 10 k-points under symmetry. 
Computing the number of bands and number of electrons
Calculating initial fillings.
nElectrons: 846.000000   nBands: 508   nStates: 20

----- Setting up reduced wavefunction bases (one per k-point) -----
average nbasis = 43189.722 , ideal nbasis = 43184.745

----- Initializing Supercell corresponding to k-point mesh -----
Lattice vector linear combinations in supercell:
[   6   0   0  ]
[   0   3   0  ]
[   0   0   1  ]
Supercell lattice vectors:
[  57.1995  -14.2999  0  ]
[  0  47.4273  0  ]
[  0  0  67.0723  ]

Initializing DFT-D3 calculator:
	Parameters set for gga-PBE functional
	s6:  1.000  s_r6:  1.217
	s8:  0.722  s_r8:  1.000
	Per-atom parameters loaded for:
	Cu:  sqrtQ[a0]:  5.226  Rcov[a0]:  1.909  CN: [ 0.00 0.96 ]
	 C:  sqrtQ[a0]:  3.105  Rcov[a0]:  1.417  CN: [ 0.00 0.99 2.00 3.00 3.98 ]
	 O:  sqrtQ[a0]:  2.594  Rcov[a0]:  1.191  CN: [ 0.00 0.99 1.99 ]

Initializing DFT-D2 calculator for fluid / solvation:
	Cu:  C6:  187.33 Eh-a0^6  R0: 2.952 a0
	 C:  C6:   30.35 Eh-a0^6  R0: 2.744 a0
	 O:  C6:   12.14 Eh-a0^6  R0: 2.536 a0

---------- Setting up ewald sum ----------
Optimum gaussian width for ewald sums = 4.557019 bohr.
Real space sum over 585 unit cells with max indices [  6  4  2  ]
Reciprocal space sum over 8085 terms with max indices [  5  7  24  ]

Computing DFT-D3 correction:
# coordination-number Cu 5.602 5.629 5.602 6.551 5.604 5.604 5.604 5.604 7.547 7.547 7.547 7.547 9.114 9.114 9.114 9.114 8.978 8.978 8.978 8.978 9.124 9.124 9.124 9.124 9.116 9.116 9.116 9.116 9.122 9.121 9.122 9.121 8.977 8.977 8.977 8.977 9.111 9.110 9.111 9.110 7.548 7.548 7.546 7.548
# coordination-number C 1.983
# coordination-number O 1.013
# diagonal-C6 Cu 175.00 175.00 175.00 175.00 175.00 175.00 175.00 175.00 175.00 175.00 175.00 175.00 175.00 175.00 175.00 175.00 175.00 175.00 175.00 175.00 175.00 175.00 175.00 175.00 175.00 175.00 175.00 175.00 175.00 175.00 175.00 175.00 175.00 175.00 175.00 175.00 175.00 175.00 175.00 175.00 175.00 175.00 175.00 175.00
# diagonal-C6 C 29.53
# diagonal-C6 O 12.80
EvdW_6 =   -0.270781
EvdW_8 =   -0.399508

---------- Allocating electronic variables ----------
Initializing wave functions:  linear combination of atomic orbitals
Cu pseudo-atom occupations:   s ( 2 1 )  p ( 6 0 )  d ( 10 )
C pseudo-atom occupations:   s ( 2 )  p ( 2 )
O pseudo-atom occupations:   s ( 2 )  p ( 4 )
	FillingsUpdate:  mu: -3.976171547  nElectrons: 846.000000  magneticMoment: [ Abs: 0.37313  Tot: -0.00573 ]
LCAOMinimize: Iter:   0  F: -8671.8042142864560446  |grad|_K:  4.628e-02  alpha:  1.000e+00
LCAOMinimize: 	Step increased F by 2.863943e+03, reducing alpha to 3.834539e-02.
LCAOMinimize: 	Step increased F by 3.660727e+02, reducing alpha to 3.834539e-03.
	FillingsUpdate:  mu: -3.273759414  nElectrons: 846.000000  magneticMoment: [ Abs: 0.37716  Tot: -0.00410 ]
LCAOMinimize: Iter:   1  F: -8709.9961118030787475  |grad|_K:  2.456e-02  alpha:  3.835e-03  linmin: -1.137e-01  cgtest:  5.936e-01  t[s]:    289.77
LCAOMinimize: Encountered beta<0, resetting CG.
	FillingsUpdate:  mu: -2.531876764  nElectrons: 846.000000  magneticMoment: [ Abs: 0.37919  Tot: -0.00801 ]
LCAOMinimize: Iter:   2  F: -8724.4259935936479451  |grad|_K:  2.059e-02  alpha:  7.089e-03  linmin: -9.377e-03  cgtest: -2.735e-02  t[s]:    359.81
	FillingsUpdate:  mu: -1.714612953  nElectrons: 846.000000  magneticMoment: [ Abs: 0.40240  Tot: -0.01170 ]
LCAOMinimize: Iter:   3  F: -8742.4849816244222893  |grad|_K:  2.102e-02  alpha:  1.082e-02  linmin: -1.667e-02  cgtest: -4.887e-02  t[s]:    429.82
LCAOMinimize: 	Predicted alpha/alphaT>3.000000, increasing alphaT to 3.245159e-02.
	FillingsUpdate:  mu: +1.591752318  nElectrons: 846.000000  magneticMoment: [ Abs: 0.01097  Tot: -0.00301 ]
LCAOMinimize: Iter:   4  F: -8823.2940953450688539  |grad|_K:  4.975e-02  alpha:  4.805e-02  linmin:  3.752e-02  cgtest:  4.231e-01  t[s]:    517.94
LCAOMinimize: 	Bad step direction: g.d > 0.
LCAOMinimize: 	Undoing step.
LCAOMinimize: 	Step failed: resetting search direction.
	FillingsUpdate:  mu: +1.591752318  nElectrons: 846.000000  magneticMoment: [ Abs: 0.01097  Tot: -0.00301 ]
LCAOMinimize: Iter:   5  F: -8823.2940953450688539  |grad|_K:  4.975e-02  alpha:  0.000e+00
LCAOMinimize: 	Step increased F by 7.067859e+01, reducing alpha to 1.081231e-03.
	FillingsUpdate:  mu: +1.387092680  nElectrons: 846.000000  magneticMoment: [ Abs: 0.01089  Tot: -0.00288 ]
LCAOMinimize: Iter:   6  F: -8838.3646299147148966  |grad|_K:  3.593e-02  alpha:  1.081e-03  linmin: -1.481e-01  cgtest:  9.972e-01  t[s]:    691.42
LCAOMinimize: Encountered beta<0, resetting CG.
LCAOMinimize: 	Predicted alpha/alphaT>3.000000, increasing alphaT to 3.243694e-03.
	FillingsUpdate:  mu: +0.814262602  nElectrons: 846.000000  magneticMoment: [ Abs: 0.01150  Tot: -0.00228 ]
LCAOMinimize: Iter:   7  F: -8854.0409068473563821  |grad|_K:  2.073e-02  alpha:  3.850e-03  linmin:  5.515e-02  cgtest: -2.214e-01  t[s]:    779.59
LCAOMinimize: 	Predicted alpha/alphaT>3.000000, increasing alphaT to 1.154966e-02.
	FillingsUpdate:  mu: -0.252278789  nElectrons: 846.000000  magneticMoment: [ Abs: 0.00952  Tot: -0.00103 ]
LCAOMinimize: Iter:   8  F: -8873.5425879315662314  |grad|_K:  1.026e-02  alpha:  1.782e-02  linmin: -9.771e-03  cgtest: -9.736e-02  t[s]:    867.71
	FillingsUpdate:  mu: +0.013909959  nElectrons: 846.000000  magneticMoment: [ Abs: 0.00929  Tot: -0.00082 ]
LCAOMinimize: Iter:   9  F: -8877.8944739888629556  |grad|_K:  6.972e-03  alpha:  1.198e-02  linmin: -2.913e-03  cgtest:  1.916e-01  t[s]:    938.79
	FillingsUpdate:  mu: +0.149843031  nElectrons: 846.000000  magneticMoment: [ Abs: 0.00916  Tot: -0.00088 ]
LCAOMinimize: Iter:  10  F: -8879.6994233331242867  |grad|_K:  9.570e-03  alpha:  1.098e-02  linmin: -3.028e-03  cgtest: -5.322e-02  t[s]:   1009.15
	FillingsUpdate:  mu: +0.237663128  nElectrons: 846.000000  magneticMoment: [ Abs: 0.00822  Tot: -0.00103 ]
LCAOMinimize: Iter:  11  F: -8884.7296318200787937  |grad|_K:  8.889e-03  alpha:  1.639e-02  linmin:  1.261e-02  cgtest: -1.914e-01  t[s]:   1078.96
	FillingsUpdate:  mu: +0.493710653  nElectrons: 846.000000  magneticMoment: [ Abs: 0.00666  Tot: -0.00090 ]
LCAOMinimize: Iter:  12  F: -8890.0296054373939114  |grad|_K:  6.656e-03  alpha:  2.612e-02  linmin: -9.728e-03  cgtest:  4.507e-01  t[s]:   1148.88
	FillingsUpdate:  mu: +0.468240421  nElectrons: 846.000000  magneticMoment: [ Abs: 0.00626  Tot: -0.00072 ]
LCAOMinimize: Iter:  13  F: -8893.5658337161894451  |grad|_K:  4.535e-03  alpha:  2.228e-02  linmin: -1.942e-03  cgtest: -9.056e-03  t[s]:   1218.66
	FillingsUpdate:  mu: +0.416754746  nElectrons: 846.000000  magneticMoment: [ Abs: 0.00615  Tot: -0.00072 ]
LCAOMinimize: Iter:  14  F: -8894.9451817080662295  |grad|_K:  2.291e-03  alpha:  1.999e-02  linmin: -1.435e-02  cgtest: -3.100e-01  t[s]:   1288.42
	FillingsUpdate:  mu: +0.331229536  nElectrons: 846.000000  magneticMoment: [ Abs: 0.00605  Tot: -0.00066 ]
LCAOMinimize: Iter:  15  F: -8895.5537377934324468  |grad|_K:  1.659e-03  alpha:  2.993e-02  linmin: -5.317e-03  cgtest: -2.380e-01  t[s]:   1358.14
	FillingsUpdate:  mu: +0.286977183  nElectrons: 846.000000  magneticMoment: [ Abs: 0.00602  Tot: -0.00061 ]
LCAOMinimize: Iter:  16  F: -8895.7770477531030338  |grad|_K:  1.326e-03  alpha:  2.262e-02  linmin: -3.124e-04  cgtest: -7.290e-02  t[s]:   1428.25
	FillingsUpdate:  mu: +0.250490176  nElectrons: 846.000000  magneticMoment: [ Abs: 0.00611  Tot: -0.00054 ]
LCAOMinimize: Iter:  17  F: -8896.0163360388614819  |grad|_K:  1.628e-03  alpha:  4.878e-02  linmin:  1.976e-02  cgtest: -1.442e-01  t[s]:   1498.24
	FillingsUpdate:  mu: +0.235779085  nElectrons: 846.000000  magneticMoment: [ Abs: 0.00614  Tot: -0.00054 ]
LCAOMinimize: Iter:  18  F: -8896.0544744928811269  |grad|_K:  1.506e-03  alpha:  4.771e-03  linmin: -1.549e-02  cgtest:  9.693e-01  t[s]:   1568.95
LCAOMinimize: Encountered beta<0, resetting CG.
LCAOMinimize: 	Predicted alpha/alphaT>3.000000, increasing alphaT to 1.431281e-02.
	FillingsUpdate:  mu: +0.231985323  nElectrons: 846.000000  magneticMoment: [ Abs: 0.00613  Tot: -0.00053 ]
LCAOMinimize: Iter:  19  F: -8896.1742366992075404  |grad|_K:  1.145e-03  alpha:  1.556e-02  linmin: -7.623e-03  cgtest:  3.855e-02  t[s]:   1656.99
	FillingsUpdate:  mu: +0.172779468  nElectrons: 846.000000  magneticMoment: [ Abs: 0.00615  Tot: -0.00048 ]
LCAOMinimize: Iter:  20  F: -8896.2954824659700535  |grad|_K:  3.974e-04  alpha:  2.632e-02  linmin: -3.519e-03  cgtest: -2.520e-01  t[s]:   1726.58
	FillingsUpdate:  mu: +0.172357362  nElectrons: 846.000000  magneticMoment: [ Abs: 0.00617  Tot: -0.00046 ]
LCAOMinimize: Iter:  21  F: -8896.3103241877288383  |grad|_K:  4.027e-04  alpha:  2.741e-02  linmin:  3.708e-04  cgtest:  1.012e-04  t[s]:   1796.17
	FillingsUpdate:  mu: +0.154530269  nElectrons: 846.000000  magneticMoment: [ Abs: 0.00621  Tot: -0.00043 ]
LCAOMinimize: Iter:  22  F: -8896.3234153571065690  |grad|_K:  2.369e-04  alpha:  2.395e-02  linmin:  9.543e-04  cgtest: -2.445e-03  t[s]:   1866.14
	FillingsUpdate:  mu: +0.152059601  nElectrons: 846.000000  magneticMoment: [ Abs: 0.00626  Tot: -0.00042 ]
LCAOMinimize: Iter:  23  F: -8896.3323673706454429  |grad|_K:  2.809e-04  alpha:  4.744e-02  linmin: -1.483e-04  cgtest:  2.327e-02  t[s]:   1936.20
	FillingsUpdate:  mu: +0.143266551  nElectrons: 846.000000  magneticMoment: [ Abs: 0.00630  Tot: -0.00039 ]
LCAOMinimize: Iter:  24  F: -8896.3385293689425453  |grad|_K:  2.473e-04  alpha:  2.304e-02  linmin: -1.141e-04  cgtest:  9.707e-03  t[s]:   2005.89
	FillingsUpdate:  mu: +0.129482052  nElectrons: 846.000000  magneticMoment: [ Abs: 0.00636  Tot: -0.00038 ]
LCAOMinimize: Iter:  25  F: -8896.3455617402396456  |grad|_K:  1.330e-04  alpha:  3.398e-02  linmin: -5.526e-04  cgtest:  3.314e-02  t[s]:   2075.62
	FillingsUpdate:  mu: +0.128801324  nElectrons: 846.000000  magneticMoment: [ Abs: 0.00637  Tot: -0.00036 ]
LCAOMinimize: Iter:  26  F: -8896.3467656114316924  |grad|_K:  1.044e-04  alpha:  2.011e-02  linmin:  3.512e-05  cgtest: -1.275e-02  t[s]:   2145.14
	FillingsUpdate:  mu: +0.128636181  nElectrons: 846.000000  magneticMoment: [ Abs: 0.00638  Tot: -0.00036 ]
LCAOMinimize: Iter:  27  F: -8896.3475913219954236  |grad|_K:  5.825e-05  alpha:  2.246e-02  linmin:  8.388e-05  cgtest: -6.065e-03  t[s]:   2214.78
	FillingsUpdate:  mu: +0.131481610  nElectrons: 846.000000  magneticMoment: [ Abs: 0.00639  Tot: -0.00035 ]
LCAOMinimize: Iter:  28  F: -8896.3481767251741985  |grad|_K:  7.093e-05  alpha:  5.092e-02  linmin: -6.042e-04  cgtest:  3.414e-03  t[s]:   2284.63
	FillingsUpdate:  mu: +0.133234208  nElectrons: 846.000000  magneticMoment: [ Abs: 0.00640  Tot: -0.00034 ]
LCAOMinimize: Iter:  29  F: -8896.3485099703520973  |grad|_K:  5.221e-05  alpha:  1.952e-02  linmin:  1.767e-04  cgtest: -1.852e-02  t[s]:   2354.20
	FillingsUpdate:  mu: +0.133950377  nElectrons: 846.000000  magneticMoment: [ Abs: 0.00641  Tot: -0.00032 ]
LCAOMinimize: Iter:  30  F: -8896.3489162897585629  |grad|_K:  4.202e-05  alpha:  4.391e-02  linmin: -1.373e-03  cgtest:  4.168e-02  t[s]:   2423.99
LCAOMinimize: None of the convergence criteria satisfied after 30 iterations.
----- createFluidSolver() ----- (Fluid-side solver setup)
   Initializing fluid molecule 'H2O'
     Initializing site 'O'
       Electron density: proportional to exp(-r/0.36935)*erfc((r-0.51523)/0.36823) with norm 6.826
       Charge density: gaussian nuclear width 0.478731 with net site charge 0.826
       Polarizability: cuspless exponential with width 0.32 and norm 3.73
       Hard sphere radius: 2.57003 bohrs
       Positions in reference frame:
         [ +0.000000 +0.000000 +0.000000 ]
     Initializing site 'H'
       Electron density: proportional to exp(-r/0.34641)*erfc((r-0)/0.390882) with norm 0.587
       Charge density: gaussian nuclear width 0.377945 with net site charge -0.413
       Polarizability: cuspless exponential with width 0.39 and norm 3.3
       Positions in reference frame:
         [ +0.000000 -1.441945 +1.122523 ]
         [ +0.000000 +1.441945 +1.122523 ]
     Net charge: 0   dipole magnitude: 0.927204
     Initializing spherical shell mfKernel with radius 2.61727 Bohr
     deltaS corrections:
       site 'O': -7.54299
       site 'H': -6.83917
   Initializing fluid molecule 'Na+'
     Initializing site 'Na'
       Electron density: proportional to exp(-r/0.19682)*erfc((r-0.71491)/0.41314) with norm 8.1383
       Charge density: gaussian nuclear width 0.365347 with net site charge -1
       Hard sphere radius: 1.86327 bohrs
       Positions in reference frame:
         [ +0.000000 +0.000000 +0.000000 ]
     Net charge: -1   dipole magnitude: 0
     Initializing gaussian mfKernel with width: 1.55004 Bohr
     deltaS corrections:
       site 'Na': -22.3555
   Initializing fluid molecule 'F-'
     Initializing site 'F'
       Electron density: proportional to exp(-r/0.38886)*erfc((r-0)/0.438782) with norm 8
       Charge density: gaussian nuclear width 0.374796 with net site charge 1
       Hard sphere radius: 2.39995 bohrs
       Positions in reference frame:
         [ +0.000000 +0.000000 +0.000000 ]
     Net charge: 1   dipole magnitude: 0
     Initializing gaussian mfKernel with width: 1.59012 Bohr
     deltaS corrections:
       site 'F': -9.04335

Correction to mu due to finite nuclear width = -0.0830383
   Cavity determined by nc: 0.00142 and sigma: 0.707107
   Nonlocal vdW cavity from gaussian model electron density with norm = 8 and sigma = 0.993594 bohr
   Charge asymmetry in cavity with sensitivity pCavity = 36.5 e-bohr/Eh
   Electrostatic cavity expanded by eta = 1.46 bohrs
   Weighted density cavitation model constrained by Nbulk: 0.0049383 bohr^-3, Pvap: 3.14029 kPa, Rvdw: 2.61727 bohr and sigmaBulk: 4.62e-05 Eh/bohr^2 at T: 298 K.
   Weighted density dispersion model using vdW pair potentials with single solvent site with sqrtC6eff: 0.77 SI.


---- Citations for features of the code used in this run ----

   Software package:
      R. Sundararaman, K. Letchworth-Weaver, K.A. Schwarz, D. Gunceler, Y. Ozhabes and T.A. Arias, 'JDFTx: software for joint density-functional theory', SoftwareX 6, 278 (2017)

   gga-PBE exchange-correlation functional:
      J.P. Perdew, K. Burke and M. Ernzerhof, Phys. Rev. Lett. 77, 3865 (1996)

   Pseudopotentials:
      KF Garrity, JW Bennett, KM Rabe and D Vanderbilt, Comput. Mater. Sci. 81, 446 (2014)

   DFT-D3 dispersion correction:
      S. Grimme, J. Antony, S. Ehrlich and H. Krieg, J. Chem. Phys. 132, 154104 (2010)

   DFT-D2 dispersion correction:
      S. Grimme, J. Comput. Chem. 27, 1787 (2006)

   Charge-asymmetric nonlocally-determined local-electric (CANDLE) solvation model:
      R. Sundararaman and W.A. Goddard III, J. Chem. Phys. 142, 064107 (2015)

   Total energy minimization with Auxiliary Hamiltonian:
      C. Freysoldt, S. Boeck, and J. Neugebauer, Phys. Rev. B 79, 241103(R) (2009)

   Linear-tetrahedron sampling for density of states:
      G. Lehmann and M. Taut, Phys. status solidi (b) 54, 469 (1972)

This list may not be complete. Please suggest additional citations or
report any other bugs at https://github.com/shankar1729/jdftx/issues

Initialization completed successfully at t[s]:   2449.23


Computing DFT-D3 correction:
# coordination-number Cu 5.602 5.629 5.602 6.551 5.604 5.604 5.604 5.604 7.547 7.547 7.547 7.547 9.114 9.114 9.114 9.114 8.978 8.978 8.978 8.978 9.124 9.124 9.124 9.124 9.116 9.116 9.116 9.116 9.122 9.121 9.122 9.121 8.977 8.977 8.977 8.977 9.111 9.110 9.111 9.110 7.548 7.548 7.546 7.548
# coordination-number C 1.983
# coordination-number O 1.013
# diagonal-C6 Cu 175.00 175.00 175.00 175.00 175.00 175.00 175.00 175.00 175.00 175.00 175.00 175.00 175.00 175.00 175.00 175.00 175.00 175.00 175.00 175.00 175.00 175.00 175.00 175.00 175.00 175.00 175.00 175.00 175.00 175.00 175.00 175.00 175.00 175.00 175.00 175.00 175.00 175.00 175.00 175.00 175.00 175.00 175.00 175.00
# diagonal-C6 C 29.53
# diagonal-C6 O 12.80
EvdW_6 =   -0.270781
EvdW_8 =   -0.399508
Fluid solver invoked on fresh (random / LCAO) wavefunctions
Running a vacuum solve first:

-------- Initial electronic minimization -----------
	FillingsUpdate:  mu: +0.133950956  nElectrons: 846.000000  magneticMoment: [ Abs: 0.00641  Tot: -0.00032 ]
ElecMinimize: Iter:   0  F: -8896.348916289731278  |grad|_K:  2.610e-04  alpha:  1.000e+00
	FillingsUpdate:  mu: +0.016622929  nElectrons: 846.000000  magneticMoment: [ Abs: 0.00609  Tot: -0.00031 ]
	SubspaceRotationAdjust: set factor to 0.97
ElecMinimize: Iter:   1  F: -8899.245788931524658  |grad|_K:  1.340e-04  alpha:  1.004e-01  linmin:  1.928e-04  t[s]:   2655.53
	FillingsUpdate:  mu: +0.450003819  nElectrons: 846.000000  magneticMoment: [ Abs: 0.00475  Tot: -0.00005 ]
	SubspaceRotationAdjust: set factor to 0.511
ElecMinimize: Iter:   2  F: -8900.740792461436286  |grad|_K:  3.261e-04  alpha:  1.777e-01  linmin: -2.124e-04  t[s]:   2791.62
	FillingsUpdate:  mu: +0.786586232  nElectrons: 846.000000  magneticMoment: [ Abs: 0.00326  Tot: -0.00003 ]
	SubspaceRotationAdjust: set factor to 0.247
ElecMinimize: Iter:   3  F: -8901.273503643757067  |grad|_K:  2.732e-04  alpha:  5.587e-02  linmin:  2.829e-04  t[s]:   2926.72
	FillingsUpdate:  mu: +0.517152891  nElectrons: 846.000000  magneticMoment: [ Abs: 0.00296  Tot: +0.00002 ]
	SubspaceRotationAdjust: set factor to 0.324
ElecMinimize: Iter:   4  F: -8901.809657629835783  |grad|_K:  1.328e-04  alpha:  3.564e-02  linmin:  2.407e-06  t[s]:   3062.70
	FillingsUpdate:  mu: +0.287270703  nElectrons: 846.000000  magneticMoment: [ Abs: 0.00258  Tot: +0.00005 ]
	SubspaceRotationAdjust: set factor to 0.349
ElecMinimize: Iter:   5  F: -8902.285130482059685  |grad|_K:  7.574e-05  alpha:  5.970e-02  linmin: -6.855e-05  t[s]:   3198.05
	FillingsUpdate:  mu: +0.292440691  nElectrons: 846.000000  magneticMoment: [ Abs: 0.00240  Tot: +0.00009 ]
	SubspaceRotationAdjust: set factor to 0.4
ElecMinimize: Iter:   6  F: -8902.588684373551587  |grad|_K:  7.608e-05  alpha:  1.138e-01  linmin:  8.341e-06  t[s]:   3333.11
	FillingsUpdate:  mu: +0.156082695  nElectrons: 846.000000  magneticMoment: [ Abs: 0.00251  Tot: +0.00009 ]
	SubspaceRotationAdjust: set factor to 0.504
ElecMinimize: Iter:   7  F: -8902.794331032117043  |grad|_K:  5.095e-05  alpha:  8.040e-02  linmin:  1.624e-06  t[s]:   3468.16
	FillingsUpdate:  mu: +0.187330628  nElectrons: 846.000000  magneticMoment: [ Abs: 0.00225  Tot: +0.00009 ]
	SubspaceRotationAdjust: set factor to 0.457
ElecMinimize: Iter:   8  F: -8902.880845832261912  |grad|_K:  4.610e-05  alpha:  7.551e-02  linmin:  2.255e-05  t[s]:   3603.30
	FillingsUpdate:  mu: +0.143829275  nElectrons: 846.000000  magneticMoment: [ Abs: 0.00181  Tot: +0.00009 ]
	SubspaceRotationAdjust: set factor to 0.556
ElecMinimize: Iter:   9  F: -8902.958417308725984  |grad|_K:  4.246e-05  alpha:  8.308e-02  linmin:  2.463e-05  t[s]:   3738.41
	FillingsUpdate:  mu: +0.152756391  nElectrons: 846.000000  magneticMoment: [ Abs: 0.00152  Tot: +0.00008 ]
	SubspaceRotationAdjust: set factor to 0.518
ElecMinimize: Iter:  10  F: -8903.035010450297705  |grad|_K:  4.540e-05  alpha:  9.721e-02  linmin:  4.498e-05  t[s]:   3873.54
	FillingsUpdate:  mu: +0.123850337  nElectrons: 846.000000  magneticMoment: [ Abs: 0.00151  Tot: +0.00006 ]
	SubspaceRotationAdjust: set factor to 0.657
ElecMinimize: Iter:  11  F: -8903.086408126466267  |grad|_K:  3.415e-05  alpha:  5.580e-02  linmin: -1.958e-05  t[s]:   4008.90
	FillingsUpdate:  mu: +0.091725621  nElectrons: 846.000000  magneticMoment: [ Abs: 0.00141  Tot: +0.00003 ]
	SubspaceRotationAdjust: set factor to 0.64
ElecMinimize: Iter:  12  F: -8903.129764192588482  |grad|_K:  3.983e-05  alpha:  8.428e-02  linmin:  3.534e-05  t[s]:   4144.21
	FillingsUpdate:  mu: +0.066131279  nElectrons: 846.000000  magneticMoment: [ Abs: 0.00127  Tot: +0.00001 ]
	SubspaceRotationAdjust: set factor to 0.69
ElecMinimize: Iter:  13  F: -8903.159368093316516  |grad|_K:  2.984e-05  alpha:  4.274e-02  linmin: -1.101e-05  t[s]:   4279.46
	FillingsUpdate:  mu: +0.089636474  nElectrons: 846.000000  magneticMoment: [ Abs: 0.00105  Tot: -0.00001 ]
	SubspaceRotationAdjust: set factor to 0.514
ElecMinimize: Iter:  14  F: -8903.186325101534749  |grad|_K:  3.435e-05  alpha:  6.791e-02  linmin:  2.150e-06  t[s]:   4414.55
	FillingsUpdate:  mu: +0.088378609  nElectrons: 846.000000  magneticMoment: [ Abs: 0.00096  Tot: -0.00003 ]
	SubspaceRotationAdjust: set factor to 0.683
ElecMinimize: Iter:  15  F: -8903.205738553588162  |grad|_K:  2.115e-05  alpha:  3.691e-02  linmin: -5.378e-06  t[s]:   4549.66
	FillingsUpdate:  mu: +0.100114965  nElectrons: 846.000000  magneticMoment: [ Abs: 0.00090  Tot: -0.00003 ]
	SubspaceRotationAdjust: set factor to 0.59
ElecMinimize: Iter:  16  F: -8903.217529248007850  |grad|_K:  2.397e-05  alpha:  5.965e-02  linmin:  1.021e-05  t[s]:   4684.91
	FillingsUpdate:  mu: +0.105887565  nElectrons: 846.000000  magneticMoment: [ Abs: 0.00080  Tot: -0.00003 ]
	SubspaceRotationAdjust: set factor to 0.815
ElecMinimize: Iter:  17  F: -8903.228923682860113  |grad|_K:  1.706e-05  alpha:  4.543e-02  linmin: -1.704e-06  t[s]:   4820.33
	FillingsUpdate:  mu: +0.104990250  nElectrons: 846.000000  magneticMoment: [ Abs: 0.00066  Tot: -0.00003 ]
	SubspaceRotationAdjust: set factor to 0.691
ElecMinimize: Iter:  18  F: -8903.236793080632197  |grad|_K:  2.087e-05  alpha:  6.114e-02  linmin: -5.706e-07  t[s]:   4955.61
	FillingsUpdate:  mu: +0.101267907  nElectrons: 846.000000  magneticMoment: [ Abs: 0.00051  Tot: -0.00003 ]
	SubspaceRotationAdjust: set factor to 0.984
ElecMinimize: Iter:  19  F: -8903.245203605107235  |grad|_K:  1.247e-05  alpha:  4.371e-02  linmin: -1.320e-09  t[s]:   5091.31
	FillingsUpdate:  mu: +0.102917271  nElectrons: 846.000000  magneticMoment: [ Abs: 0.00045  Tot: -0.00003 ]
	SubspaceRotationAdjust: set factor to 0.852
ElecMinimize: Iter:  20  F: -8903.249010952884419  |grad|_K:  1.390e-05  alpha:  5.547e-02  linmin: -2.354e-07  t[s]:   5227.00
	FillingsUpdate:  mu: +0.104904368  nElectrons: 846.000000  magneticMoment: [ Abs: 0.00042  Tot: -0.00002 ]
	SubspaceRotationAdjust: set factor to 0.795
ElecMinimize: Iter:  21  F: -8903.252146911669115  |grad|_K:  9.981e-06  alpha:  3.675e-02  linmin:  4.365e-09  t[s]:   5362.17
	FillingsUpdate:  mu: +0.105897615  nElectrons: 846.000000  magneticMoment: [ Abs: 0.00035  Tot: -0.00001 ]
	SubspaceRotationAdjust: set factor to 0.818
ElecMinimize: Iter:  22  F: -8903.256390860862666  |grad|_K:  1.219e-05  alpha:  9.645e-02  linmin: -1.009e-06  t[s]:   5497.50
	FillingsUpdate:  mu: +0.105030068  nElectrons: 846.000000  magneticMoment: [ Abs: 0.00031  Tot: -0.00001 ]
	SubspaceRotationAdjust: set factor to 0.669
ElecMinimize: Iter:  23  F: -8903.258712155598914  |grad|_K:  8.114e-06  alpha:  3.544e-02  linmin:  1.455e-06  t[s]:   5633.01
	FillingsUpdate:  mu: +0.104494522  nElectrons: 846.000000  magneticMoment: [ Abs: 0.00025  Tot: -0.00001 ]
	SubspaceRotationAdjust: set factor to 0.911
ElecMinimize: Iter:  24  F: -8903.260679543329388  |grad|_K:  6.641e-06  alpha:  6.780e-02  linmin: -1.741e-07  t[s]:   5768.67
	FillingsUpdate:  mu: +0.105873035  nElectrons: 846.000000  magneticMoment: [ Abs: 0.00021  Tot: -0.00001 ]
	SubspaceRotationAdjust: set factor to 0.81
ElecMinimize: Iter:  25  F: -8903.261712847643139  |grad|_K:  6.683e-06  alpha:  5.310e-02  linmin: -5.945e-07  t[s]:   5904.15
	FillingsUpdate:  mu: +0.109105107  nElectrons: 846.000000  magneticMoment: [ Abs: 0.00018  Tot: -0.00000 ]
	SubspaceRotationAdjust: set factor to 0.809
ElecMinimize: Iter:  26  F: -8903.262906389478303  |grad|_K:  5.015e-06  alpha:  6.050e-02  linmin: -1.307e-06  t[s]:   6039.55
	FillingsUpdate:  mu: +0.108496026  nElectrons: 846.000000  magneticMoment: [ Abs: 0.00017  Tot: -0.00000 ]
	SubspaceRotationAdjust: set factor to 0.878
ElecMinimize: Iter:  27  F: -8903.263837316400895  |grad|_K:  4.370e-06  alpha:  8.379e-02  linmin:  2.392e-07  t[s]:   6174.77
	FillingsUpdate:  mu: +0.106391122  nElectrons: 846.000000  magneticMoment: [ Abs: 0.00015  Tot: -0.00000 ]
	SubspaceRotationAdjust: set factor to 0.733
ElecMinimize: Iter:  28  F: -8903.264271832933446  |grad|_K:  4.037e-06  alpha:  5.154e-02  linmin: -5.410e-08  t[s]:   6310.38
	FillingsUpdate:  mu: +0.104575847  nElectrons: 846.000000  magneticMoment: [ Abs: 0.00014  Tot: -0.00000 ]
	SubspaceRotationAdjust: set factor to 0.725
ElecMinimize: Iter:  29  F: -8903.264686987795358  |grad|_K:  3.187e-06  alpha:  5.771e-02  linmin:  1.072e-06  t[s]:   6445.41
	FillingsUpdate:  mu: +0.105306083  nElectrons: 846.000000  magneticMoment: [ Abs: 0.00012  Tot: -0.00000 ]
	SubspaceRotationAdjust: set factor to 0.804
ElecMinimize: Iter:  30  F: -8903.265097684035936  |grad|_K:  2.744e-06  alpha:  9.161e-02  linmin: -1.207e-06  t[s]:   6580.74
	FillingsUpdate:  mu: +0.106183865  nElectrons: 846.000000  magneticMoment: [ Abs: 0.00011  Tot: -0.00000 ]
	SubspaceRotationAdjust: set factor to 0.702
ElecMinimize: Iter:  31  F: -8903.265321607887017  |grad|_K:  2.638e-06  alpha:  6.738e-02  linmin: -8.542e-08  t[s]:   6716.18
	FillingsUpdate:  mu: +0.106080674  nElectrons: 846.000000  magneticMoment: [ Abs: 0.00010  Tot: -0.00000 ]
	SubspaceRotationAdjust: set factor to 0.642
ElecMinimize: Iter:  32  F: -8903.265484552515773  |grad|_K:  2.105e-06  alpha:  5.303e-02  linmin:  2.751e-08  t[s]:   6851.60
	FillingsUpdate:  mu: +0.104557707  nElectrons: 846.000000  magneticMoment: [ Abs: 0.00009  Tot: -0.00000 ]
	SubspaceRotationAdjust: set factor to 0.686
ElecMinimize: Iter:  33  F: -8903.265659255541323  |grad|_K:  1.818e-06  alpha:  8.936e-02  linmin:  2.683e-07  t[s]:   6987.78
	FillingsUpdate:  mu: +0.104214298  nElectrons: 846.000000  magneticMoment: [ Abs: 0.00007  Tot: -0.00000 ]
	SubspaceRotationAdjust: set factor to 0.714
ElecMinimize: Iter:  34  F: -8903.265774298040924  |grad|_K:  1.582e-06  alpha:  7.888e-02  linmin:  7.791e-08  t[s]:   7123.39
	FillingsUpdate:  mu: +0.104934508  nElectrons: 846.000000  magneticMoment: [ Abs: 0.00007  Tot: -0.00000 ]
	SubspaceRotationAdjust: set factor to 0.664
ElecMinimize: Iter:  35  F: -8903.265831414984859  |grad|_K:  1.181e-06  alpha:  5.170e-02  linmin: -4.030e-09  t[s]:   7259.49
	FillingsUpdate:  mu: +0.106220228  nElectrons: 846.000000  magneticMoment: [ Abs: 0.00006  Tot: -0.00000 ]
	SubspaceRotationAdjust: set factor to 0.621
ElecMinimize: Iter:  36  F: -8903.265881463556070  |grad|_K:  1.050e-06  alpha:  8.131e-02  linmin: -2.201e-07  t[s]:   7394.80
	FillingsUpdate:  mu: +0.106577726  nElectrons: 846.000000  magneticMoment: [ Abs: 0.00005  Tot: -0.00000 ]
	SubspaceRotationAdjust: set factor to 0.718
ElecMinimize: Iter:  37  F: -8903.265929250672343  |grad|_K:  9.892e-07  alpha:  9.811e-02  linmin: -2.975e-08  t[s]:   7530.19
	FillingsUpdate:  mu: +0.106138477  nElectrons: 846.000000  magneticMoment: [ Abs: 0.00004  Tot: -0.00000 ]
	SubspaceRotationAdjust: set factor to 0.637
ElecMinimize: Iter:  38  F: -8903.265957645971866  |grad|_K:  8.471e-07  alpha:  6.574e-02  linmin:  1.516e-09  t[s]:   7666.79
	FillingsUpdate:  mu: +0.105549634  nElectrons: 846.000000  magneticMoment: [ Abs: 0.00004  Tot: -0.00000 ]
	SubspaceRotationAdjust: set factor to 0.621
ElecMinimize: Iter:  39  F: -8903.265979541762135  |grad|_K:  6.818e-07  alpha:  6.913e-02  linmin:  1.585e-07  t[s]:   7801.25
	FillingsUpdate:  mu: +0.105478275  nElectrons: 846.000000  magneticMoment: [ Abs: 0.00003  Tot: -0.00000 ]
	SubspaceRotationAdjust: set factor to 0.72
ElecMinimize: Iter:  40  F: -8903.265997983879060  |grad|_K:  5.633e-07  alpha:  8.991e-02  linmin: -5.679e-08  t[s]:   7936.94
	FillingsUpdate:  mu: +0.105720443  nElectrons: 846.000000  magneticMoment: [ Abs: 0.00003  Tot: -0.00000 ]
	SubspaceRotationAdjust: set factor to 0.686
ElecMinimize: Iter:  41  F: -8903.266009623619539  |grad|_K:  4.622e-07  alpha:  8.311e-02  linmin:  3.378e-08  t[s]:   8072.44
	FillingsUpdate:  mu: +0.105757689  nElectrons: 846.000000  magneticMoment: [ Abs: 0.00002  Tot: -0.00000 ]
	SubspaceRotationAdjust: set factor to 0.598
ElecMinimize: Iter:  42  F: -8903.266015823615817  |grad|_K:  4.193e-07  alpha:  6.573e-02  linmin:  6.286e-08  t[s]:   8208.31
	FillingsUpdate:  mu: +0.105663772  nElectrons: 846.000000  magneticMoment: [ Abs: 0.00002  Tot: -0.00000 ]
	SubspaceRotationAdjust: set factor to 0.55
ElecMinimize: Iter:  43  F: -8903.266021575527702  |grad|_K:  3.719e-07  alpha:  7.414e-02  linmin: -1.424e-07  t[s]:   8343.89
	FillingsUpdate:  mu: +0.105536738  nElectrons: 846.000000  magneticMoment: [ Abs: 0.00002  Tot: -0.00000 ]
	SubspaceRotationAdjust: set factor to 0.612
ElecMinimize: Iter:  44  F: -8903.266027223578931  |grad|_K:  2.985e-07  alpha:  9.247e-02  linmin:  1.109e-07  t[s]:   8479.46
	FillingsUpdate:  mu: +0.105544460  nElectrons: 846.000000  magneticMoment: [ Abs: 0.00001  Tot: -0.00000 ]
	SubspaceRotationAdjust: set factor to 0.58
ElecMinimize: Iter:  45  F: -8903.266030122244047  |grad|_K:  2.558e-07  alpha:  7.370e-02  linmin: -7.435e-08  t[s]:   8614.90
	FillingsUpdate:  mu: +0.105626286  nElectrons: 846.000000  magneticMoment: [ Abs: 0.00001  Tot: -0.00000 ]
	SubspaceRotationAdjust: set factor to 0.539
ElecMinimize: Iter:  46  F: -8903.266032300289226  |grad|_K:  2.299e-07  alpha:  7.544e-02  linmin:  1.552e-07  t[s]:   8750.37
	FillingsUpdate:  mu: +0.105720196  nElectrons: 846.000000  magneticMoment: [ Abs: 0.00001  Tot: -0.00000 ]
	SubspaceRotationAdjust: set factor to 0.562
ElecMinimize: Iter:  47  F: -8903.266034450247389  |grad|_K:  1.887e-07  alpha:  9.220e-02  linmin:  2.063e-07  t[s]:   8886.45
	FillingsUpdate:  mu: +0.105754511  nElectrons: 846.000000  magneticMoment: [ Abs: 0.00001  Tot: -0.00000 ]
	SubspaceRotationAdjust: set factor to 0.579
ElecMinimize: Iter:  48  F: -8903.266035682703659  |grad|_K:  1.521e-07  alpha:  7.855e-02  linmin:  8.046e-08  t[s]:   9022.27
	FillingsUpdate:  mu: +0.105750152  nElectrons: 846.000000  magneticMoment: [ Abs: 0.00001  Tot: -0.00000 ]
	SubspaceRotationAdjust: set factor to 0.547
ElecMinimize: Iter:  49  F: -8903.266036421911849  |grad|_K:  1.331e-07  alpha:  7.252e-02  linmin:  4.585e-07  t[s]:   9157.75
	FillingsUpdate:  mu: +0.105695254  nElectrons: 846.000000  magneticMoment: [ Abs: 0.00001  Tot: -0.00000 ]
	SubspaceRotationAdjust: set factor to 0.575
ElecMinimize: Iter:  50  F: -8903.266037168856201  |grad|_K:  1.201e-07  alpha:  9.569e-02  linmin:  1.801e-09  t[s]:   9293.22
	FillingsUpdate:  mu: +0.105635554  nElectrons: 846.000000  magneticMoment: [ Abs: 0.00001  Tot: -0.00000 ]
	SubspaceRotationAdjust: set factor to 0.574
ElecMinimize: Iter:  51  F: -8903.266037721241446  |grad|_K:  9.706e-08  alpha:  8.686e-02  linmin:  6.976e-07  t[s]:   9428.34
	FillingsUpdate:  mu: +0.105623911  nElectrons: 846.000000  magneticMoment: [ Abs: 0.00001  Tot: -0.00000 ]
	SubspaceRotationAdjust: set factor to 0.522
ElecMinimize: Iter:  52  F: -8903.266038020326960  |grad|_K:  8.424e-08  alpha:  7.229e-02  linmin:  2.199e-07  t[s]:   9564.01
	FillingsUpdate:  mu: +0.105641753  nElectrons: 846.000000  magneticMoment: [ Abs: 0.00001  Tot: -0.00000 ]
	SubspaceRotationAdjust: set factor to 0.526
ElecMinimize: Iter:  53  F: -8903.266038287823903  |grad|_K:  7.297e-08  alpha:  8.516e-02  linmin: -7.553e-07  t[s]:   9699.74
	FillingsUpdate:  mu: +0.105662457  nElectrons: 846.000000  magneticMoment: [ Abs: 0.00000  Tot: -0.00000 ]
	SubspaceRotationAdjust: set factor to 0.568
ElecMinimize: Iter:  54  F: -8903.266038503594245  |grad|_K:  6.058e-08  alpha:  9.121e-02  linmin: -2.594e-07  t[s]:   9835.03
	FillingsUpdate:  mu: +0.105657760  nElectrons: 846.000000  magneticMoment: [ Abs: 0.00000  Tot: -0.00000 ]
	SubspaceRotationAdjust: set factor to 0.565
ElecMinimize: Iter:  55  F: -8903.266038628780734  |grad|_K:  5.236e-08  alpha:  7.725e-02  linmin:  2.301e-08  t[s]:   9970.54
	FillingsUpdate:  mu: +0.105641086  nElectrons: 846.000000  magneticMoment: [ Abs: 0.00000  Tot: -0.00000 ]
	SubspaceRotationAdjust: set factor to 0.516
ElecMinimize: Iter:  56  F: -8903.266038721574660  |grad|_K:  4.362e-08  alpha:  7.719e-02  linmin: -9.795e-07  t[s]:  10105.98
	FillingsUpdate:  mu: +0.105641976  nElectrons: 846.000000  magneticMoment: [ Abs: 0.00000  Tot: -0.00000 ]
	SubspaceRotationAdjust: set factor to 0.572
ElecMinimize: Iter:  57  F: -8903.266038804442360  |grad|_K:  3.773e-08  alpha:  9.815e-02  linmin:  2.435e-06  t[s]:  10241.48
ElecMinimize: Converged (|Delta F|<1.000000e-07 for 2 iters).
Setting wave functions to eigenvectors of Hamiltonian
Converging empty states (this may take a while): |deigs|: 1.675e-02
Vacuum energy after initial minimize, F = -8903.266038804442360


-------- Electronic minimization -----------
	Linear fluid (dielectric constant: 78.4, screening length: 8.12261 Bohr) occupying 0.505815 of unit cell:	Completed after 26 iterations at t[s]:  11063.07
	FillingsUpdate:  mu: -0.153748401  nElectrons: 846.000000  magneticMoment: [ Abs: 0.00000  Tot: -0.00000 ]
ElecMinimize: Iter:   0  F: -8903.265102529558135  |grad|_K:  1.067e-06  alpha:  1.000e+00
	Linear fluid (dielectric constant: 78.4, screening length: 8.12261 Bohr) occupying 0.506996 of unit cell:	Completed after 23 iterations at t[s]:  11178.22
	Linear fluid (dielectric constant: 78.4, screening length: 8.12261 Bohr) occupying 0.505927 of unit cell:	Completed after 23 iterations at t[s]:  11218.79
	FillingsUpdate:  mu: -0.153805179  nElectrons: 846.000000  magneticMoment: [ Abs: 0.00000  Tot: -0.00000 ]
	SubspaceRotationAdjust: set factor to 0.386
ElecMinimize: Iter:   1  F: -8903.265154250824708  |grad|_K:  8.703e-07  alpha:  1.040e-01  linmin:  8.633e-07  t[s]:  11271.53
	Linear fluid (dielectric constant: 78.4, screening length: 8.12261 Bohr) occupying 0.506106 of unit cell:	Completed after 12 iterations at t[s]:  11325.11
	Linear fluid (dielectric constant: 78.4, screening length: 8.12261 Bohr) occupying 0.506418 of unit cell:	Completed after 12 iterations at t[s]:  11363.82
	FillingsUpdate:  mu: -0.151939956  nElectrons: 846.000000  magneticMoment: [ Abs: 0.00000  Tot: +0.00000 ]
	SubspaceRotationAdjust: set factor to 0.443
ElecMinimize: Iter:   2  F: -8903.265250631937306  |grad|_K:  8.953e-07  alpha:  2.890e-01  linmin: -1.760e-07  t[s]:  11416.36
	Linear fluid (dielectric constant: 78.4, screening length: 8.12261 Bohr) occupying 0.507021 of unit cell:	Completed after 15 iterations at t[s]:  11470.19
	Linear fluid (dielectric constant: 78.4, screening length: 8.12261 Bohr) occupying 0.506717 of unit cell:	Completed after 12 iterations at t[s]:  11509.01
	FillingsUpdate:  mu: -0.150891331  nElectrons: 846.000000  magneticMoment: [ Abs: 0.00000  Tot: +0.00000 ]
	SubspaceRotationAdjust: set factor to 0.578
ElecMinimize: Iter:   3  F: -8903.265300847639082  |grad|_K:  5.818e-07  alpha:  1.408e-01  linmin:  5.016e-08  t[s]:  11561.80
	Linear fluid (dielectric constant: 78.4, screening length: 8.12261 Bohr) occupying 0.506870 of unit cell:	Completed after 10 iterations at t[s]:  11614.95
	Linear fluid (dielectric constant: 78.4, screening length: 8.12261 Bohr) occupying 0.507039 of unit cell:	Completed after 10 iterations at t[s]:  11653.51
	FillingsUpdate:  mu: -0.150724623  nElectrons: 846.000000  magneticMoment: [ Abs: 0.00000  Tot: +0.00000 ]
	SubspaceRotationAdjust: set factor to 0.611
ElecMinimize: Iter:   4  F: -8903.265345712276030  |grad|_K:  5.240e-07  alpha:  2.992e-01  linmin: -1.769e-07  t[s]:  11705.59
	Linear fluid (dielectric constant: 78.4, screening length: 8.12261 Bohr) occupying 0.507322 of unit cell:	Completed after 12 iterations at t[s]:  11759.12
	Linear fluid (dielectric constant: 78.4, screening length: 8.12261 Bohr) occupying 0.507140 of unit cell:	Completed after 12 iterations at t[s]:  11797.61
	FillingsUpdate:  mu: -0.150862430  nElectrons: 846.000000  magneticMoment: [ Abs: 0.00000  Tot: +0.00000 ]
	SubspaceRotationAdjust: set factor to 0.446
ElecMinimize: Iter:   5  F: -8903.265358764419943  |grad|_K:  3.375e-07  alpha:  1.065e-01  linmin: -1.020e-08  t[s]:  11849.92
	Linear fluid (dielectric constant: 78.4, screening length: 8.12261 Bohr) occupying 0.507190 of unit cell:	Completed after 10 iterations at t[s]:  11902.84
	Linear fluid (dielectric constant: 78.4, screening length: 8.12261 Bohr) occupying 0.507224 of unit cell:	Completed after 8 iterations at t[s]:  11940.75
	FillingsUpdate:  mu: -0.151255113  nElectrons: 846.000000  magneticMoment: [ Abs: 0.00000  Tot: +0.00000 ]
	SubspaceRotationAdjust: set factor to 0.366
ElecMinimize: Iter:   6  F: -8903.265367936975963  |grad|_K:  2.399e-07  alpha:  1.819e-01  linmin: -1.133e-07  t[s]:  11993.08
	Linear fluid (dielectric constant: 78.4, screening length: 8.12261 Bohr) occupying 0.507277 of unit cell:	Completed after 10 iterations at t[s]:  12046.48
	Linear fluid (dielectric constant: 78.4, screening length: 8.12261 Bohr) occupying 0.507272 of unit cell:	Completed after 2 iterations at t[s]:  12083.14
	FillingsUpdate:  mu: -0.151003956  nElectrons: 846.000000  magneticMoment: [ Abs: 0.00000  Tot: +0.00000 ]
	SubspaceRotationAdjust: set factor to 0.373
ElecMinimize: Iter:   7  F: -8903.265372152882264  |grad|_K:  1.894e-07  alpha:  1.652e-01  linmin:  7.267e-08  t[s]:  12135.29
	Linear fluid (dielectric constant: 78.4, screening length: 8.12261 Bohr) occupying 0.507304 of unit cell:	Completed after 7 iterations at t[s]:  12187.52
	Linear fluid (dielectric constant: 78.4, screening length: 8.12261 Bohr) occupying 0.507308 of unit cell:	Completed after 2 iterations at t[s]:  12224.51
	FillingsUpdate:  mu: -0.150835938  nElectrons: 846.000000  magneticMoment: [ Abs: 0.00000  Tot: +0.00000 ]
	SubspaceRotationAdjust: set factor to 0.39
ElecMinimize: Iter:   8  F: -8903.265375104014311  |grad|_K:  1.246e-07  alpha:  1.873e-01  linmin:  2.661e-08  t[s]:  12276.28
	Linear fluid (dielectric constant: 78.4, screening length: 8.12261 Bohr) occupying 0.507322 of unit cell:	Completed after 7 iterations at t[s]:  12329.34
	Linear fluid (dielectric constant: 78.4, screening length: 8.12261 Bohr) occupying 0.507320 of unit cell:	Completed after 2 iterations at t[s]:  12366.01
	FillingsUpdate:  mu: -0.150993253  nElectrons: 846.000000  magneticMoment: [ Abs: 0.00000  Tot: +0.00000 ]
	SubspaceRotationAdjust: set factor to 0.399
ElecMinimize: Iter:   9  F: -8903.265376209586975  |grad|_K:  8.665e-08  alpha:  1.617e-01  linmin:  1.659e-07  t[s]:  12418.32
	Linear fluid (dielectric constant: 78.4, screening length: 8.12261 Bohr) occupying 0.507326 of unit cell:	Completed after 3 iterations at t[s]:  12469.91
	Linear fluid (dielectric constant: 78.4, screening length: 8.12261 Bohr) occupying 0.507329 of unit cell:	Completed after 2 iterations at t[s]:  12506.54
	FillingsUpdate:  mu: -0.151050051  nElectrons: 846.000000  magneticMoment: [ Abs: 0.00000  Tot: +0.00000 ]
	SubspaceRotationAdjust: set factor to 0.442
ElecMinimize: Iter:  10  F: -8903.265376983970782  |grad|_K:  8.218e-08  alpha:  2.354e-01  linmin:  2.378e-07  t[s]:  12558.99
	Linear fluid (dielectric constant: 78.4, screening length: 8.12261 Bohr) occupying 0.507339 of unit cell:	Completed after 3 iterations at t[s]:  12611.14
	Linear fluid (dielectric constant: 78.4, screening length: 8.12261 Bohr) occupying 0.507336 of unit cell:	Completed after 1 iterations at t[s]:  12647.72
	FillingsUpdate:  mu: -0.151012594  nElectrons: 846.000000  magneticMoment: [ Abs: 0.00000  Tot: +0.00000 ]
	SubspaceRotationAdjust: set factor to 0.538
ElecMinimize: Iter:  11  F: -8903.265377449790321  |grad|_K:  4.967e-08  alpha:  1.575e-01  linmin:  2.905e-07  t[s]:  12699.78
	Linear fluid (dielectric constant: 78.4, screening length: 8.12261 Bohr) occupying 0.507338 of unit cell:	Completed after 2 iterations at t[s]:  12751.20
	Linear fluid (dielectric constant: 78.4, screening length: 8.12261 Bohr) occupying 0.507338 of unit cell:	Completed after 0 iterations at t[s]:  12787.31
	FillingsUpdate:  mu: -0.150974359  nElectrons: 846.000000  magneticMoment: [ Abs: 0.00000  Tot: +0.00000 ]
	SubspaceRotationAdjust: set factor to 0.514
ElecMinimize: Iter:  12  F: -8903.265377610177893  |grad|_K:  4.052e-08  alpha:  1.473e-01  linmin:  1.631e-06  t[s]:  12839.38
	Linear fluid (dielectric constant: 78.4, screening length: 8.12261 Bohr) occupying 0.507339 of unit cell:	Completed after 2 iterations at t[s]:  12890.90
	Linear fluid (dielectric constant: 78.4, screening length: 8.12261 Bohr) occupying 0.507340 of unit cell:	Completed after 0 iterations at t[s]:  12927.61
	FillingsUpdate:  mu: -0.150966117  nElectrons: 846.000000  magneticMoment: [ Abs: 0.00000  Tot: +0.00000 ]
	SubspaceRotationAdjust: set factor to 0.602
ElecMinimize: Iter:  13  F: -8903.265377763262222  |grad|_K:  3.181e-08  alpha:  2.079e-01  linmin: -1.304e-05  t[s]:  12979.78
	Linear fluid (dielectric constant: 78.4, screening length: 8.12261 Bohr) occupying 0.507339 of unit cell:	Completed after 2 iterations at t[s]:  13031.20
	Linear fluid (dielectric constant: 78.4, screening length: 8.12261 Bohr) occupying 0.507339 of unit cell:	Completed after 0 iterations at t[s]:  13067.10
	FillingsUpdate:  mu: -0.151009513  nElectrons: 846.000000  magneticMoment: [ Abs: 0.00000  Tot: +0.00000 ]
	SubspaceRotationAdjust: set factor to 0.548
ElecMinimize: Iter:  14  F: -8903.265377838570203  |grad|_K:  2.714e-08  alpha:  1.469e-01  linmin:  6.480e-05  t[s]:  13119.28
	Linear fluid (dielectric constant: 78.4, screening length: 8.12261 Bohr) occupying 0.507339 of unit cell:	Completed after 2 iterations at t[s]:  13170.79
	Linear fluid (dielectric constant: 78.4, screening length: 8.12261 Bohr) occupying 0.507339 of unit cell:	Completed after 0 iterations at t[s]:  13208.17
	FillingsUpdate:  mu: -0.150999672  nElectrons: 846.000000  magneticMoment: [ Abs: 0.00000  Tot: +0.00000 ]
	SubspaceRotationAdjust: set factor to 0.451
ElecMinimize: Iter:  15  F: -8903.265377871284727  |grad|_K:  2.331e-08  alpha:  1.157e-01  linmin: -4.200e-07  t[s]:  13260.40
ElecMinimize: Converged (|Delta F|<1.000000e-07 for 2 iters).
Setting wave functions to eigenvectors of Hamiltonian
Converging empty states (this may take a while): |deigs|: 1.026e-04
Single-point solvation energy estimate, DeltaF = +0.000660933157633

Computing DFT-D3 correction:
# coordination-number Cu 5.602 5.629 5.602 6.551 5.604 5.604 5.604 5.604 7.547 7.547 7.547 7.547 9.114 9.114 9.114 9.114 8.978 8.978 8.978 8.978 9.124 9.124 9.124 9.124 9.116 9.116 9.116 9.116 9.122 9.121 9.122 9.121 8.977 8.977 8.977 8.977 9.111 9.110 9.111 9.110 7.548 7.548 7.546 7.548
# coordination-number C 1.983
# coordination-number O 1.013
# diagonal-C6 Cu 175.00 175.00 175.00 175.00 175.00 175.00 175.00 175.00 175.00 175.00 175.00 175.00 175.00 175.00 175.00 175.00 175.00 175.00 175.00 175.00 175.00 175.00 175.00 175.00 175.00 175.00 175.00 175.00 175.00 175.00 175.00 175.00 175.00 175.00 175.00 175.00 175.00 175.00 175.00 175.00 175.00 175.00 175.00 175.00
# diagonal-C6 C 29.53
# diagonal-C6 O 12.80
EvdW_6 =   -0.270781
EvdW_8 =   -0.399508

# Ionic positions in cartesian coordinates:
ion Cu  -4.764959000000000  15.804627000000000  21.261259999999996 0
ion Cu  -2.381638000000000   7.900077000000000  21.261259999999996 0
ion Cu   0.001672999999999  15.804627000000000  21.261259999999996 0
ion Cu   2.384984000000000   7.900077000000000  21.261259999999996 0
ion Cu  -0.002340000000000   4.315647000000000   1.097505000000000 0
ion Cu  -2.385642000000001  12.220198000000000   1.097505000000000 0
ion Cu   4.764282000000000   4.315647000000000   1.097505000000000 0
ion Cu   2.380971000000000  12.220198000000000   1.097505000000000 0
ion Cu   2.381794999999999   0.713275000000000   2.921133999999999 0
ion Cu  -0.001516000000001   8.617826000000001   2.921133999999999 0
ion Cu   7.148417999999999   0.713275000000000   2.921133999999999 0
ion Cu   4.765107000000000   8.617826000000001   2.921133999999999 0
ion Cu   2.382486999999999   5.058106000000000   5.065168999999999 0
ion Cu  -0.000825000000000  12.962657000000000   5.065168999999999 0
ion Cu   7.149109000000000   5.058106000000000   5.065168999999999 0
ion Cu   4.765797999999998  12.962657000000000   5.065168999999999 0
ion Cu   0.002769000000000   1.431814000000000   7.100813999999999 0
ion Cu  -2.380532000000001   9.336365000000001   7.100813999999999 0
ion Cu   4.769392000000000   1.431814000000000   7.100813999999999 0
ion Cu   2.386080999999999   9.336365000000001   7.100813999999999 0
ion Cu   0.000024000000000   5.742261000000000   9.138538999999998 0
ion Cu  -2.383287000000001  13.646811000000000   9.138538999999998 0
ion Cu   4.766646000000000   5.742261000000000   9.138538999999998 0
ion Cu   2.383335000000000  13.646811000000000   9.138538999999998 0
ion Cu   2.383383000000000   2.155998000000000  11.179549999999999 0
ion Cu   0.000070999999999  10.060548000000001  11.179549999999999 0
ion Cu   7.150005000000000   2.155998000000000  11.179549999999999 0
ion Cu   4.766693999999999  10.060548000000001  11.179549999999999 0
ion Cu   2.382868000000000   6.473874000000000  13.215530999999999 0
ion Cu  -0.000443000000001  14.378425000000000  13.215530999999999 0
ion Cu   7.149489999999999   6.473874000000000  13.215530999999999 0
ion Cu   4.766178999999999  14.378425000000000  13.215530999999999 0
ion Cu  -0.002007000000000   2.879960000000000  15.258352999999996 0
ion Cu  -2.385318000000001  10.784509999999999  15.258352999999996 0
ion Cu   4.764615999999999   2.879960000000000  15.258352999999996 0
ion Cu   2.381304999999999  10.784509999999999  15.258352999999996 0
ion Cu   0.000862999999999   7.157744000000000  17.290979999999998 0
ion Cu  -2.382448000000000  15.062295000000001  17.290979999999998 0
ion Cu   4.767476000000000   7.157744000000000  17.290979999999998 0
ion Cu   2.384173999999999  15.062295000000001  17.290979999999998 0
ion Cu   2.385027000000000   3.598594000000000  19.437361999999997 0
ion Cu   0.001716000000000  11.503145000000000  19.437361999999997 0
ion Cu   7.151650000000000   3.598594000000000  19.437361999999997 0
ion Cu   4.768337999999999  11.503145000000000  19.437361999999997 0
ion C   2.384984000000000   7.900077000000000  25.040718999999996 1  Linear 0 0 1
ion O   2.445082000000001   7.900077000000000  27.196088999999997 1  Linear 0 0 1

# Forces in Cartesian coordinates:
force Cu   0.000083622089940   0.000364581204501   0.000011413187351 0
force Cu  -0.000144788828587  -0.000403957763151  -0.000381345714413 0
force Cu  -0.000106843219678   0.000331710503313   0.000010287634866 0
force Cu  -0.000089539946499  -0.001229382155344   0.028720212648212 0
force Cu  -0.000690071769444  -0.000312467474646  -0.000108453549362 0
force Cu   0.000084649787825  -0.000188180393217   0.000217175017965 0
force Cu   0.000749336630773  -0.000404107527798  -0.000141075884041 0
force Cu  -0.000028117405284  -0.000023345681045   0.000047330110281 0
force Cu   0.000169830123356   0.000138571689240  -0.000144131769496 0
force Cu  -0.000247638853738   0.000354785576014   0.000208438615253 0
force Cu  -0.000126528543108   0.000638168051245   0.000025492839814 0
force Cu   0.000409024319563   0.000365630232915   0.000214183518055 0
force Cu   0.000109126696049   0.000208811670647   0.000575570511112 0
force Cu  -0.000130800178261   0.000233625789424   0.000094521263800 0
force Cu   0.000029848089353   0.000078778505875  -0.000341736676027 0
force Cu   0.000046828898212   0.000194495579440   0.000147322820065 0
force Cu  -0.000099045662185   0.000500129409519   0.000086544746851 0
force Cu  -0.000189786584617   0.000176994304778   0.001263589433439 0
force Cu  -0.000299577097892   0.000507581901696   0.000144290904022 0
force Cu  -0.000232461810232   0.000439390461826  -0.000225326660206 0
force Cu  -0.000481865724173  -0.000338088599199  -0.000422932884783 0
force Cu   0.000026785039408  -0.000519098524062  -0.000166683828220 0
force Cu   0.000268388615085  -0.000382240071391  -0.000579384435235 0
force Cu  -0.000118572485178  -0.000277235851607  -0.000024564549222 0
force Cu  -0.000032148074309   0.000069652329375   0.000391576797915 0
force Cu   0.000462456703618  -0.000316469378531   0.000334628791979 0
force Cu   0.000010936106853  -0.000282287555687  -0.000326811918891 0
force Cu  -0.000366406758714  -0.000296052836616   0.000425129513081 0
force Cu   0.000079048761963   0.000295921742920  -0.001202084240002 0
force Cu  -0.000050610220414   0.000265341172730   0.000289493919834 0
force Cu   0.000006533926189   0.000712072635276   0.000936138238529 0
force Cu   0.000188441371501   0.000325764620325   0.000231858852280 0
force Cu  -0.000120255003538  -0.000143339597784  -0.000289959199910 0
force Cu   0.000222723816717  -0.000438635118517  -0.001107931069076 0
force Cu   0.000523168723921  -0.000050355574694  -0.000413119517177 0
force Cu   0.000138253488574  -0.000753145696845   0.001006035463947 0
force Cu   0.001442978701747   0.000176003992556   0.000040289231153 0
force Cu  -0.000015478666904   0.000045963667702  -0.000638444245029 0
force Cu  -0.001398577446652   0.000127594663854   0.000204100170756 0
force Cu  -0.000025891143687  -0.000096221958114  -0.000151224448178 0
force Cu  -0.000043722098080  -0.002286959855121  -0.001416537229820 0
force Cu  -0.001224927707653   0.001182707858703  -0.002331887768800 0
force Cu  -0.000050866901371   0.000006945227511  -0.000619350024810 0
force Cu   0.000979676445086   0.001073539113968  -0.002223222781970 0
force C   0.000074553794802  -0.000111679597626  -0.043924595580691 1  Linear 0 0 1
force O   0.000208335334932   0.000066788168347   0.020843647573235 1  Linear 0 0 1

# Energy components:
   A_diel =        0.0003408472437421
   Eewald =    67271.9760200836026343
       EH =    75423.6997227385145379
     Eloc =  -153274.2426393608911894
      Enl =     1614.5455013307282570
     EvdW =       -0.6702891121940139
      Exc =     -859.1988818184938737
 Exc_core =        2.1654612082508442
       KE =      918.4606419119072598
-------------------------------------
     Etot =    -8903.2641221713347477
       TS =        0.0012556999499960
-------------------------------------
        F =    -8903.2653778712847270


Dumping 'jdft.fillings' ... done
Dumping 'jdft.wfns' ... done
Dumping 'jdft.fluidState' ... done
Dumping 'jdft.ionpos' ... done
Dumping 'jdft.lattice' ... done
Dumping 'jdft.eigenvals' ... done
Dumping 'jdft.eigStats' ... 
	eMin: -4.301059 at state 10 ( [ +0.000000 +0.000000 +0.000000 ] spin -1 )
	HOMO: -0.151556 at state 8 ( [ +0.500000 +0.000000 +0.000000 ] spin 1 )
	mu  : -0.151000
	LUMO: -0.150863 at state 1 ( [ +0.000000 +0.333333 +0.000000 ] spin 1 )
	eMax: +0.186455 at state 11 ( [ +0.000000 +0.333333 +0.000000 ] spin -1 )
	HOMO-LUMO gap: +0.000693
	Optical gap  : +0.002139 at state 8 ( [ +0.500000 +0.000000 +0.000000 ] spin 1 )
Dumping 'jdft.Ecomponents' ... done
IonicMinimize: Iter:   0  F: -8903.265377871284727  |grad|_K:  3.438e-02  t[s]:  13854.09

#--- Lowdin population analysis ---
# oxidation-state Cu +0.176 +0.188 +0.176 -0.066 +0.180 +0.180 +0.179 +0.182 +0.050 +0.049 +0.046 +0.049 +0.043 +0.043 +0.043 +0.043 +0.076 +0.075 +0.076 +0.076 +0.075 +0.074 +0.075 +0.076 +0.075 +0.077 +0.078 +0.077 +0.075 +0.075 +0.070 +0.075 +0.076 +0.077 +0.076 +0.077 +0.048 +0.042 +0.048 +0.043 +0.063 +0.063 +0.048 +0.063
# magnetic-moments Cu +0.000 -0.000 -0.000 +0.000 +0.000 +0.000 +0.000 +0.000 +0.000 -0.000 -0.000 +0.000 +0.000 +0.000 +0.000 +0.000 -0.000 -0.000 +0.000 +0.000 +0.000 +0.000 -0.000 -0.000 +0.000 +0.000 -0.000 +0.000 +0.000 +0.000 -0.000 +0.000 +0.000 +0.000 +0.000 -0.000 +0.000 +0.000 +0.000 +0.000 -0.000 +0.000 -0.000 +0.000
# oxidation-state C +0.418
# magnetic-moments C +0.000
# oxidation-state O -0.090
# magnetic-moments O -0.000


Computing DFT-D3 correction:
# coordination-number Cu 5.602 5.630 5.602 6.561 5.604 5.604 5.604 5.604 7.547 7.547 7.547 7.547 9.114 9.114 9.114 9.114 8.978 8.978 8.978 8.978 9.124 9.124 9.124 9.124 9.116 9.116 9.116 9.116 9.122 9.121 9.122 9.121 8.977 8.977 8.977 8.977 9.111 9.110 9.111 9.110 7.548 7.548 7.546 7.548
# coordination-number C 1.996
# coordination-number O 1.013
# diagonal-C6 Cu 175.00 175.00 175.00 175.00 175.00 175.00 175.00 175.00 175.00 175.00 175.00 175.00 175.00 175.00 175.00 175.00 175.00 175.00 175.00 175.00 175.00 175.00 175.00 175.00 175.00 175.00 175.00 175.00 175.00 175.00 175.00 175.00 175.00 175.00 175.00 175.00 175.00 175.00 175.00 175.00 175.00 175.00 175.00 175.00
# diagonal-C6 C 29.50
# diagonal-C6 O 12.80
EvdW_6 =   -0.270790
EvdW_8 =   -0.399538

-------- Electronic minimization -----------
	Linear fluid (dielectric constant: 78.4, screening length: 8.12261 Bohr) occupying 0.507338 of unit cell:	Completed after 17 iterations at t[s]:  13908.56
	FillingsUpdate:  mu: -0.153579104  nElectrons: 846.000000  magneticMoment: [ Abs: 0.00000  Tot: +0.00000 ]
ElecMinimize: Iter:   0  F: -8903.254920172015773  |grad|_K:  6.343e-06  alpha:  1.000e+00
	Linear fluid (dielectric constant: 78.4, screening length: 8.12261 Bohr) occupying 0.507312 of unit cell:	Completed after 22 iterations at t[s]:  14024.58
	Linear fluid (dielectric constant: 78.4, screening length: 8.12261 Bohr) occupying 0.507316 of unit cell:	Completed after 20 iterations at t[s]:  14064.48
	FillingsUpdate:  mu: -0.149409561  nElectrons: 846.000000  magneticMoment: [ Abs: 0.00000  Tot: +0.00000 ]
	SubspaceRotationAdjust: set factor to 0.435
ElecMinimize: Iter:   1  F: -8903.264030232217920  |grad|_K:  3.484e-06  alpha:  5.134e-01  linmin:  1.370e-05  t[s]:  14117.33
	Linear fluid (dielectric constant: 78.4, screening length: 8.12261 Bohr) occupying 0.507204 of unit cell:	Completed after 23 iterations at t[s]:  14173.37
	Linear fluid (dielectric constant: 78.4, screening length: 8.12261 Bohr) occupying 0.507272 of unit cell:	Completed after 22 iterations at t[s]:  14214.19
	FillingsUpdate:  mu: -0.153300965  nElectrons: 846.000000  magneticMoment: [ Abs: 0.00000  Tot: +0.00000 ]
	SubspaceRotationAdjust: set factor to 0.31
ElecMinimize: Iter:   2  F: -8903.264738387057150  |grad|_K:  2.124e-06  alpha:  1.324e-01  linmin:  1.303e-05  t[s]:  14267.10
[...]
force Cu   0.000781574427672  -0.000382151765133  -0.000188160417150 0
force Cu  -0.000017400417783  -0.000035200455704   0.000009030800223 0
force Cu   0.000155638386418   0.000136251979090  -0.000075656637413 0
force Cu  -0.000261595842194   0.000350241476254   0.000229344772015 0
force Cu  -0.000120106433486   0.000662461776078   0.000105345229889 0
force Cu   0.000429663405722   0.000354992658003   0.000235215156838 0
force Cu   0.000124594886658   0.000184886922352   0.000506789414970 0
force Cu  -0.000123982170815   0.000252884475612   0.000020228689444 0
force Cu   0.000050601365853   0.000066002984821  -0.000434744617292 0
force Cu   0.000043808848888   0.000219601309787   0.000057970355237 0
force Cu  -0.000106372708900   0.000511300527511   0.000222114396591 0
force Cu  -0.000193337654991   0.000119852265553   0.001438913087541 0
force Cu  -0.000294143781876   0.000509064801356   0.000272263785257 0
force Cu  -0.000221593360766   0.000430282494139  -0.000169888021525 0
force Cu  -0.000482578762061  -0.000304643888451  -0.000473535892985 0
force Cu   0.000020805408799  -0.000446631188180  -0.000199720486371 0
force Cu   0.000257315400120  -0.000353681756267  -0.000638346461999 0
force Cu  -0.000104163612466  -0.000181040736581  -0.000063834382386 0
force Cu  -0.000046078075212   0.000078500902450   0.000426954902599 0
force Cu   0.000487580050319  -0.000387061636766   0.000411876007730 0
force Cu   0.000002387461443  -0.000294181183906  -0.000307730278243 0
force Cu  -0.000379346920215  -0.000347765276195   0.000507365298545 0
force Cu   0.000068977353118   0.000246700519472  -0.001287959417451 0
force Cu  -0.000063668341187   0.000214348274543   0.000266802202861 0
force Cu   0.000014554970541   0.000690204419535   0.000746514733094 0
force Cu   0.000207527292925   0.000277182529836   0.000244262365173 0
force Cu  -0.000139196242266  -0.000030933783230  -0.000215762127032 0
force Cu   0.000214259282837  -0.000555819228409  -0.000933571914334 0
force Cu   0.000546530014009   0.000060825825355  -0.000315057538556 0
force Cu   0.000139615991689  -0.000962506839538   0.001434973325569 0
force Cu   0.001372416293626   0.000210400267358  -0.000353190891051 0
force Cu  -0.000026072553719   0.000100483303857  -0.000472320362777 0
force Cu  -0.001343715630566   0.000165180976139  -0.000154069396888 0
force Cu  -0.000031074726677  -0.000030733472895   0.000095081802778 0
force Cu  -0.000041632801525  -0.002584658361685  -0.001672552079266 0
force Cu  -0.001451437029373   0.001568300857989  -0.002843682455055 0
force Cu  -0.000039608147316  -0.000032034865358  -0.000924883223492 0
force Cu   0.001189773008709   0.001440903891350  -0.002741426409593 0
force C   0.000948522810871  -0.000062201783210  -0.001436478198008 1  Linear 0 0 1
force O  -0.000531504375696   0.000058206807489   0.001466141013109 1  Linear 0 0 1

# Energy components:
   A_diel =       -0.0000634122143656
   Eewald =    67332.3690293199906591
       EH =    75481.2034738139773253
     Eloc =  -153392.1211980075167958
      Enl =     1614.5276927747747777
     EvdW =       -0.6708079653445386
      Exc =     -859.2132553641090453
 Exc_core =        2.1654580743800604
       KE =      918.4706396367898833
-------------------------------------
     Etot =    -8903.2690311292717524
       TS =        0.0012613815778830
-------------------------------------
        F =    -8903.2702925108496856


Dumping 'jdft.fillings' ... done
Dumping 'jdft.wfns' ... done
Dumping 'jdft.fluidState' ... done
Dumping 'jdft.ionpos' ... done
Dumping 'jdft.lattice' ... done
Dumping 'jdft.eigenvals' ... done
Dumping 'jdft.eigStats' ... 
	eMin: -4.316811 at state 10 ( [ +0.000000 +0.000000 +0.000000 ] spin -1 )
	HOMO: -0.153614 at state 8 ( [ +0.500000 +0.000000 +0.000000 ] spin 1 )
	mu  : -0.152974
	LUMO: -0.152632 at state 11 ( [ +0.000000 +0.333333 +0.000000 ] spin -1 )
	eMax: +0.186059 at state 1 ( [ +0.000000 +0.333333 +0.000000 ] spin 1 )
	HOMO-LUMO gap: +0.000982
	Optical gap  : +0.003064 at state 2 ( [ +0.166667 +0.000000 +0.000000 ] spin 1 )
Dumping 'jdft.Ecomponents' ... done
IonicMinimize: Iter:   8  F: -8903.270292510849686  |grad|_K:  1.451e-03  alpha:  1.000e+00  linmin: -3.097e-02  t[s]:  38958.39

#--- Lowdin population analysis ---
# oxidation-state Cu +0.182 +0.199 +0.182 -0.125 +0.184 +0.184 +0.183 +0.187 +0.051 +0.049 +0.046 +0.049 +0.043 +0.043 +0.043 +0.043 +0.076 +0.075 +0.076 +0.076 +0.075 +0.074 +0.074 +0.076 +0.075 +0.076 +0.078 +0.076 +0.075 +0.075 +0.069 +0.075 +0.076 +0.078 +0.076 +0.077 +0.048 +0.042 +0.048 +0.043 +0.067 +0.067 +0.050 +0.067
# magnetic-moments Cu -0.000 +0.000 +0.000 -0.000 -0.000 +0.000 +0.000 +0.000 -0.000 -0.000 -0.000 -0.000 +0.000 -0.000 +0.000 -0.000 -0.000 +0.000 +0.000 -0.000 +0.000 -0.000 +0.000 -0.000 -0.000 -0.000 -0.000 +0.000 +0.000 +0.000 -0.000 +0.000 +0.000 -0.000 -0.000 +0.000 -0.000 +0.000 +0.000 +0.000 +0.000 +0.000 +0.000 +0.000
# oxidation-state C +0.434
# magnetic-moments C +0.000
# oxidation-state O -0.119
# magnetic-moments O +0.000


Computing DFT-D3 correction:
# coordination-number Cu 5.602 5.641 5.602 6.605 5.604 5.604 5.604 5.604 7.547 7.547 7.547 7.547 9.114 9.114 9.114 9.114 8.978 8.978 8.978 8.978 9.124 9.124 9.124 9.124 9.116 9.116 9.116 9.116 9.122 9.122 9.122 9.122 8.977 8.977 8.977 8.977 9.111 9.110 9.111 9.110 7.549 7.549 7.547 7.549
# coordination-number C 2.048
# coordination-number O 1.020
# diagonal-C6 Cu 175.00 175.00 175.00 175.00 175.00 175.00 175.00 175.00 175.00 175.00 175.00 175.00 175.00 175.00 175.00 175.00 175.00 175.00 175.00 175.00 175.00 175.00 175.00 175.00 175.00 175.00 175.00 175.00 175.00 175.00 175.00 175.00 175.00 175.00 175.00 175.00 175.00 175.00 175.00 175.00 175.00 175.00 175.00 175.00
# diagonal-C6 C 29.39
# diagonal-C6 O 12.79
EvdW_6 =   -0.270993
EvdW_8 =   -0.399814

-------- Electronic minimization -----------
	Linear fluid (dielectric constant: 78.4, screening length: 8.12261 Bohr) occupying 0.510056 of unit cell:	Completed after 8 iterations at t[s]:  39018.88
	FillingsUpdate:  mu: -0.152710973  nElectrons: 846.000000  magneticMoment: [ Abs: 0.00000  Tot: +0.00000 ]
ElecMinimize: Iter:   0  F: -8903.270292174760471  |grad|_K:  1.525e-07  alpha:  1.000e+00
	Linear fluid (dielectric constant: 78.4, screening length: 8.12261 Bohr) occupying 0.510010 of unit cell:	Completed after 18 iterations at t[s]:  39132.89
	Linear fluid (dielectric constant: 78.4, screening length: 8.12261 Bohr) occupying 0.510054 of unit cell:	Completed after 19 iterations at t[s]:  39173.42
	FillingsUpdate:  mu: -0.152974685  nElectrons: 846.000000  magneticMoment: [ Abs: 0.00000  Tot: +0.00000 ]
	SubspaceRotationAdjust: set factor to 0.558
ElecMinimize: Iter:   1  F: -8903.270292772687753  |grad|_K:  5.237e-08  alpha:  5.913e-02  linmin:  3.602e-05  t[s]:  39226.18
	Linear fluid (dielectric constant: 78.4, screening length: 8.12261 Bohr) occupying 0.510054 of unit cell:	Completed after 2 iterations at t[s]:  39277.99
ElecMinimize: 	Predicted alpha/alphaT>3.000000, increasing alphaT to 1.773981e-01.
	Linear fluid (dielectric constant: 78.4, screening length: 8.12261 Bohr) occupying 0.510053 of unit cell:	Completed after 2 iterations at t[s]:  39315.16
	Linear fluid (dielectric constant: 78.4, screening length: 8.12261 Bohr) occupying 0.510053 of unit cell:	Completed after 0 iterations at t[s]:  39351.37
	FillingsUpdate:  mu: -0.153025357  nElectrons: 846.000000  magneticMoment: [ Abs: 0.00000  Tot: +0.00000 ]
	SubspaceRotationAdjust: set factor to 0.578
ElecMinimize: Iter:   2  F: -8903.270292992476243  |grad|_K:  5.123e-08  alpha:  1.810e-01  linmin: -1.384e-04  t[s]:  39403.59
	Linear fluid (dielectric constant: 78.4, screening length: 8.12261 Bohr) occupying 0.510053 of unit cell:	Completed after 2 iterations at t[s]:  39455.37
	Linear fluid (dielectric constant: 78.4, screening length: 8.12261 Bohr) occupying 0.510053 of unit cell:	Completed after 0 iterations at t[s]:  39491.90
	FillingsUpdate:  mu: -0.153039635  nElectrons: 846.000000  magneticMoment: [ Abs: 0.00000  Tot: +0.00000 ]
	SubspaceRotationAdjust: set factor to 0.709
ElecMinimize: Iter:   3  F: -8903.270293221195971  |grad|_K:  3.436e-08  alpha:  1.944e-01  linmin: -4.718e-04  t[s]:  39544.33
	Linear fluid (dielectric constant: 78.4, screening length: 8.12261 Bohr) occupying 0.510055 of unit cell:	Completed after 3 iterations at t[s]:  39596.26
	Linear fluid (dielectric constant: 78.4, screening length: 8.12261 Bohr) occupying 0.510054 of unit cell:	Completed after 1 iterations at t[s]:  39633.00
	FillingsUpdate:  mu: -0.152982775  nElectrons: 846.000000  magneticMoment: [ Abs: 0.00000  Tot: +0.00000 ]
	SubspaceRotationAdjust: set factor to 0.531
ElecMinimize: Iter:   4  F: -8903.270293298248362  |grad|_K:  2.726e-08  alpha:  1.414e-01  linmin:  1.949e-04  t[s]:  39685.06
	Linear fluid (dielectric constant: 78.4, screening length: 8.12261 Bohr) occupying 0.510055 of unit cell:	Completed after 2 iterations at t[s]:  39736.64
	Linear fluid (dielectric constant: 78.4, screening length: 8.12261 Bohr) occupying 0.510055 of unit cell:	Completed after 0 iterations at t[s]:  39772.95
	FillingsUpdate:  mu: -0.153004362  nElectrons: 846.000000  magneticMoment: [ Abs: 0.00000  Tot: +0.00000 ]
	SubspaceRotationAdjust: set factor to 0.647
ElecMinimize: Iter:   5  F: -8903.270293350664360  |grad|_K:  1.689e-08  alpha:  1.669e-01  linmin: -3.949e-04  t[s]:  39825.06
ElecMinimize: Converged (|Delta F|<1.000000e-07 for 2 iters).
Setting wave functions to eigenvectors of Hamiltonian
Converging empty states (this may take a while): |deigs|: 3.335e-09

Computing DFT-D3 correction:
# coordination-number Cu 5.602 5.641 5.602 6.605 5.604 5.604 5.604 5.604 7.547 7.547 7.547 7.547 9.114 9.114 9.114 9.114 8.978 8.978 8.978 8.978 9.124 9.124 9.124 9.124 9.116 9.116 9.116 9.116 9.122 9.122 9.122 9.122 8.977 8.977 8.977 8.977 9.111 9.110 9.111 9.110 7.549 7.549 7.547 7.549
# coordination-number C 2.048
# coordination-number O 1.020
# diagonal-C6 Cu 175.00 175.00 175.00 175.00 175.00 175.00 175.00 175.00 175.00 175.00 175.00 175.00 175.00 175.00 175.00 175.00 175.00 175.00 175.00 175.00 175.00 175.00 175.00 175.00 175.00 175.00 175.00 175.00 175.00 175.00 175.00 175.00 175.00 175.00 175.00 175.00 175.00 175.00 175.00 175.00 175.00 175.00 175.00 175.00
# diagonal-C6 C 29.39
# diagonal-C6 O 12.79
EvdW_6 =   -0.270993
EvdW_8 =   -0.399814

# Ionic positions in cartesian coordinates:
ion Cu  -4.764959000000000  15.804627000000000  21.261259999999996 0
ion Cu  -2.381638000000000   7.900077000000000  21.261259999999996 0
ion Cu   0.001672999999999  15.804627000000000  21.261259999999996 0
ion Cu   2.384984000000000   7.900077000000000  21.261259999999996 0
ion Cu  -0.002340000000000   4.315647000000000   1.097505000000000 0
ion Cu  -2.385642000000001  12.220198000000000   1.097505000000000 0
ion Cu   4.764282000000000   4.315647000000000   1.097505000000000 0
ion Cu   2.380971000000000  12.220198000000000   1.097505000000000 0
ion Cu   2.381794999999999   0.713275000000000   2.921133999999999 0
ion Cu  -0.001516000000001   8.617826000000001   2.921133999999999 0
ion Cu   7.148417999999999   0.713275000000000   2.921133999999999 0
ion Cu   4.765107000000000   8.617826000000001   2.921133999999999 0
ion Cu   2.382486999999999   5.058106000000000   5.065168999999999 0
ion Cu  -0.000825000000000  12.962657000000000   5.065168999999999 0
ion Cu   7.149109000000000   5.058106000000000   5.065168999999999 0
ion Cu   4.765797999999998  12.962657000000000   5.065168999999999 0
ion Cu   0.002769000000000   1.431814000000000   7.100813999999999 0
ion Cu  -2.380532000000001   9.336365000000001   7.100813999999999 0
ion Cu   4.769392000000000   1.431814000000000   7.100813999999999 0
ion Cu   2.386080999999999   9.336365000000001   7.100813999999999 0
ion Cu   0.000024000000000   5.742261000000000   9.138538999999998 0
ion Cu  -2.383287000000001  13.646811000000000   9.138538999999998 0
ion Cu   4.766646000000000   5.742261000000000   9.138538999999998 0
ion Cu   2.383335000000000  13.646811000000000   9.138538999999998 0
ion Cu   2.383383000000000   2.155998000000000  11.179549999999999 0
ion Cu   0.000070999999999  10.060548000000001  11.179549999999999 0
ion Cu   7.150005000000000   2.155998000000000  11.179549999999999 0
ion Cu   4.766693999999999  10.060548000000001  11.179549999999999 0
ion Cu   2.382868000000000   6.473874000000000  13.215530999999999 0
ion Cu  -0.000443000000001  14.378425000000000  13.215530999999999 0
ion Cu   7.149489999999999   6.473874000000000  13.215530999999999 0
ion Cu   4.766178999999999  14.378425000000000  13.215530999999999 0
ion Cu  -0.002007000000000   2.879960000000000  15.258352999999996 0
ion Cu  -2.385318000000001  10.784509999999999  15.258352999999996 0
ion Cu   4.764615999999999   2.879960000000000  15.258352999999996 0
ion Cu   2.381304999999999  10.784509999999999  15.258352999999996 0
ion Cu   0.000862999999999   7.157744000000000  17.290979999999998 0
ion Cu  -2.382448000000000  15.062295000000001  17.290979999999998 0
ion Cu   4.767476000000000   7.157744000000000  17.290979999999998 0
ion Cu   2.384173999999999  15.062295000000001  17.290979999999998 0
ion Cu   2.385027000000000   3.598594000000000  19.437361999999997 0
ion Cu   0.001716000000000  11.503145000000000  19.437361999999997 0
ion Cu   7.151650000000000   3.598594000000000  19.437361999999997 0
ion Cu   4.768337999999999  11.503145000000000  19.437361999999997 0
ion C   2.384984000000000   7.900077000000000  24.714506605801823 1  Linear 0 0 1
ion O   2.445082000000001   7.900077000000000  26.897791705134171 1  Linear 0 0 1

# Forces in Cartesian coordinates:
force Cu   0.000101364232187   0.000349536059428  -0.000156347741082 0
force Cu  -0.000149614746230  -0.000573588704195   0.000001775190974 0
force Cu  -0.000129722245068   0.000317524436266  -0.000155320498315 0
force Cu  -0.000209269233952  -0.001506780738412   0.007134492850763 0
force Cu  -0.000716162110151  -0.000252593185348  -0.000086178069015 0
force Cu   0.000071658991210  -0.000235893033029   0.000292304456165 0
force Cu   0.000782178909837  -0.000338738409353  -0.000115317707297 0
force Cu  -0.000017787900499  -0.000072003920236   0.000073245378448 0
force Cu   0.000155537757764   0.000150378662482  -0.000029105656385 0
force Cu  -0.000260672623215   0.000339161732436   0.000319112645743 0
force Cu  -0.000120039792024   0.000676641123503   0.000154018384892 0
force Cu   0.000428610771574   0.000343731349469   0.000324952848875 0
force Cu   0.000124457845813   0.000252033211275   0.000535741006674 0
force Cu  -0.000123902505348   0.000182671489149   0.000036727476938 0
force Cu   0.000050428162103   0.000133421115735  -0.000399591778002 0
force Cu   0.000043787583540   0.000149186820058   0.000074122494534 0
force Cu  -0.000106760229197   0.000553800550000   0.000229322199870 0
force Cu  -0.000193475997455   0.000071579311620   0.001461580929094 0
force Cu  -0.000293400834699   0.000551748429361   0.000279990440103 0
force Cu  -0.000221200537071   0.000382092699696  -0.000142264484557 0
force Cu  -0.000481493020004  -0.000232039196495  -0.000451605000635 0
force Cu   0.000021352868878  -0.000515831893939  -0.000185228304953 0
force Cu   0.000255804758971  -0.000281478214122  -0.000616848029604 0
force Cu  -0.000104290805153  -0.000249935181146  -0.000049481883179 0
force Cu  -0.000045802608672   0.000144911858183   0.000452468669447 0
force Cu   0.000486286747835  -0.000457788128851   0.000421417490123 0
force Cu   0.000001985918522  -0.000226943391594  -0.000281080984321 0
force Cu  -0.000377576708349  -0.000418153026934   0.000517733244867 0
force Cu   0.000068611682938   0.000288083665320  -0.001308342319943 0
force Cu  -0.000062924152482   0.000179627454982   0.000270850101132 0
force Cu   0.000014084840049   0.000730072089382   0.000722872176977 0
force Cu   0.000207069751927   0.000242605086522   0.000248207548952 0
force Cu  -0.000139520129386   0.000030020020063  -0.000261039905718 0
force Cu   0.000214406595140  -0.000612345209587  -0.000990532632435 0
force Cu   0.000546227752084   0.000122270670045  -0.000359668115487 0
force Cu   0.000139143015500  -0.001017273655652   0.001377445017517 0
force Cu   0.001372884133755   0.000219857395468  -0.000437972234996 0
force Cu  -0.000026238021429   0.000092791854864  -0.000532537541780 0
force Cu  -0.001343670032894   0.000174718335616  -0.000239050946971 0
force Cu  -0.000031220015138  -0.000038194086251   0.000035464328939 0
force Cu  -0.000041678259961  -0.002528592002605  -0.001735094869968 0
force Cu  -0.001446307054600   0.001512376346145  -0.002906102967532 0
force Cu  -0.000039002807969   0.000017552950807  -0.000994927095877 0
force Cu   0.001185117090637   0.001384771555585  -0.002803659827179 0
force C   0.000980086414207  -0.000059905799706  -0.000122327846395 1  Linear 0 0 1
force O  -0.000567320390233   0.000060882068892  -0.000070751213090 1  Linear 0 0 1

# Energy components:
   A_diel =       -0.0000732005907261
   Eewald =    67332.2458451001875801
       EH =    75481.0193809525953839
     Eloc =  -153391.8118500302080065
      Enl =     1614.5266844051425323
     EvdW =       -0.6708075110138418
      Exc =     -859.2125040972931629
 Exc_core =        2.1654582531435995
       KE =      918.4688342115844080
-------------------------------------
     Etot =    -8903.2690319164503308
       TS =        0.0012614342140594
-------------------------------------
        F =    -8903.2702933506643603


Dumping 'jdft.fillings' ... done
Dumping 'jdft.wfns' ... done
Dumping 'jdft.fluidState' ... done
Dumping 'jdft.ionpos' ... done
Dumping 'jdft.lattice' ... done
Dumping 'jdft.eigenvals' ... done
Dumping 'jdft.eigStats' ... 
	eMin: -4.316866 at state 0 ( [ +0.000000 +0.000000 +0.000000 ] spin 1 )
	HOMO: -0.153643 at state 18 ( [ +0.500000 +0.000000 +0.000000 ] spin -1 )
	mu  : -0.153004
	LUMO: -0.152661 at state 1 ( [ +0.000000 +0.333333 +0.000000 ] spin 1 )
	eMax: +0.186048 at state 1 ( [ +0.000000 +0.333333 +0.000000 ] spin 1 )
	HOMO-LUMO gap: +0.000982
	Optical gap  : +0.003060 at state 2 ( [ +0.166667 +0.000000 +0.000000 ] spin 1 )
Dumping 'jdft.Ecomponents' ... done
IonicMinimize: Iter:   9  F: -8903.270293350664360  |grad|_K:  9.992e-05  alpha:  1.000e+00  linmin:  4.666e-03  t[s]:  39974.14
IonicMinimize: Converged (|grad|_K<1.000000e-04).

#--- Lowdin population analysis ---
# oxidation-state Cu +0.182 +0.199 +0.182 -0.125 +0.184 +0.184 +0.183 +0.187 +0.051 +0.049 +0.046 +0.049 +0.043 +0.043 +0.043 +0.043 +0.075 +0.075 +0.075 +0.077 +0.075 +0.074 +0.075 +0.076 +0.075 +0.076 +0.078 +0.077 +0.076 +0.075 +0.069 +0.075 +0.076 +0.078 +0.076 +0.078 +0.049 +0.042 +0.049 +0.043 +0.066 +0.067 +0.050 +0.067
# magnetic-moments Cu +0.000 +0.000 -0.000 -0.000 -0.000 -0.000 +0.000 -0.000 +0.000 +0.000 +0.000 +0.000 -0.000 -0.000 -0.000 -0.000 -0.000 -0.000 -0.000 -0.000 +0.000 -0.000 +0.000 +0.000 +0.000 +0.000 +0.000 +0.000 -0.000 +0.000 -0.000 -0.000 -0.000 -0.000 -0.000 +0.000 +0.000 -0.000 +0.000 -0.000 +0.000 +0.000 -0.000 +0.000
# oxidation-state C +0.434
# magnetic-moments C +0.000
# oxidation-state O -0.119
# magnetic-moments O -0.000


Dumping 'jdft.n_up' ... done
Dumping 'jdft.n_dn' ... done
Dumping 'jdft.tau_up' ... done
Dumping 'jdft.tau_dn' ... done
Dumping 'jdft.eigenvals' ... done
Dumping 'jdft.eigStats' ... 
	eMin: -4.316866 at state 0 ( [ +0.000000 +0.000000 +0.000000 ] spin 1 )
	HOMO: -0.153643 at state 18 ( [ +0.500000 +0.000000 +0.000000 ] spin -1 )
	mu  : -0.153004
	LUMO: -0.152661 at state 1 ( [ +0.000000 +0.333333 +0.000000 ] spin 1 )
	eMax: +0.186048 at state 1 ( [ +0.000000 +0.333333 +0.000000 ] spin 1 )
	HOMO-LUMO gap: +0.000982
	Optical gap  : +0.003060 at state 2 ( [ +0.166667 +0.000000 +0.000000 ] spin 1 )
Dumping 'jdft.kPts' ... done
Dumping 'jdft.kMap' ... done
Dumping 'jdft.dosUp' ... done.
Dumping 'jdft.dosDn' ... done.
End date and time: Thu Feb 17 13:35:53 2022  (Duration: 0-11:07:36.44)
Done!
