
*************** JDFTx 1.6.0  ***************

Start date and time: Thu Feb 17 03:44:01 2022
Executable /projects/musgravc/apps/jdftx-1.6.1/build/jdftx with command-line: -i in
Running on hosts (process indices):  shas0849.rc.int.colorado.edu (0-23)
Divided in process groups (process indices):  0 (0)  1 (1)  2 (2)  3 (3)  4 (4)  5 (5)  6 (6)  7 (7)  8 (8)  9 (9)  10 (10)  11 (11)  12 (12)  13 (13)  14 (14)  15 (15)  16 (16)  17 (17)  18 (18)  19 (19)  20 (20)  21 (21)  22 (22)  23 (23)
Resource initialization completed at t[s]:      0.00
Run totals: 24 processes, 24 threads, 0 GPUs


Input parsed successfully to the following command list (including defaults):

basis kpoint-dependent
converge-empty-states yes
coords-type Cartesian
core-overlap-check none
coulomb-interaction Periodic
davidson-band-ratio 1.1
density-of-states Etol 1.000000e-06 Esigma 1.000000e-03 \
		Complete \
	Total \
	OrthoOrbital Pt 1   s \
	OrthoOrbital Pt 1   p \
	OrthoOrbital Pt 1   px \
	OrthoOrbital Pt 1   py \
	OrthoOrbital Pt 1   pz \
	OrthoOrbital Pt 1   d \
	OrthoOrbital Pt 1   dxy \
	OrthoOrbital Pt 1   dyz \
	OrthoOrbital Pt 1   dz2 \
	OrthoOrbital Pt 1   dxz \
	OrthoOrbital Pt 1   dx2-y2 \
	OrthoOrbital Pt 2   s \
	OrthoOrbital Pt 2   p \
	OrthoOrbital Pt 2   px \
	OrthoOrbital Pt 2   py \
	OrthoOrbital Pt 2   pz \
	OrthoOrbital Pt 2   d \
	OrthoOrbital Pt 2   dxy \
	OrthoOrbital Pt 2   dyz \
	OrthoOrbital Pt 2   dz2 \
	OrthoOrbital Pt 2   dxz \
	OrthoOrbital Pt 2   dx2-y2 \
	OrthoOrbital Pt 3   s \
	OrthoOrbital Pt 3   p \
	OrthoOrbital Pt 3   px \
	OrthoOrbital Pt 3   py \
	OrthoOrbital Pt 3   pz \
	OrthoOrbital Pt 3   d \
	OrthoOrbital Pt 3   dxy \
	OrthoOrbital Pt 3   dyz \
	OrthoOrbital Pt 3   dz2 \
	OrthoOrbital Pt 3   dxz \
	OrthoOrbital Pt 3   dx2-y2 \
	OrthoOrbital Pt 4   s \
	OrthoOrbital Pt 4   p \
	OrthoOrbital Pt 4   px \
	OrthoOrbital Pt 4   py \
	OrthoOrbital Pt 4   pz \
	OrthoOrbital Pt 4   d \
	OrthoOrbital Pt 4   dxy \
	OrthoOrbital Pt 4   dyz \
	OrthoOrbital Pt 4   dz2 \
	OrthoOrbital Pt 4   dxz \
	OrthoOrbital Pt 4   dx2-y2 \
	OrthoOrbital Pt 5   s \
	OrthoOrbital Pt 5   p \
	OrthoOrbital Pt 5   px \
	OrthoOrbital Pt 5   py \
	OrthoOrbital Pt 5   pz \
	OrthoOrbital Pt 5   d \
	OrthoOrbital Pt 5   dxy \
	OrthoOrbital Pt 5   dyz \
	OrthoOrbital Pt 5   dz2 \
	OrthoOrbital Pt 5   dxz \
	OrthoOrbital Pt 5   dx2-y2 \
	OrthoOrbital Pt 6   s \
	OrthoOrbital Pt 6   p \
	OrthoOrbital Pt 6   px \
	OrthoOrbital Pt 6   py \
	OrthoOrbital Pt 6   pz \
	OrthoOrbital Pt 6   d \
	OrthoOrbital Pt 6   dxy \
	OrthoOrbital Pt 6   dyz \
	OrthoOrbital Pt 6   dz2 \
	OrthoOrbital Pt 6   dxz \
	OrthoOrbital Pt 6   dx2-y2 \
	OrthoOrbital Pt 7   s \
	OrthoOrbital Pt 7   p \
	OrthoOrbital Pt 7   px \
	OrthoOrbital Pt 7   py \
	OrthoOrbital Pt 7   pz \
	OrthoOrbital Pt 7   d \
	OrthoOrbital Pt 7   dxy \
	OrthoOrbital Pt 7   dyz \
	OrthoOrbital Pt 7   dz2 \
	OrthoOrbital Pt 7   dxz \
	OrthoOrbital Pt 7   dx2-y2 \
	OrthoOrbital Pt 8   s \
	OrthoOrbital Pt 8   p \
	OrthoOrbital Pt 8   px \
	OrthoOrbital Pt 8   py \
	OrthoOrbital Pt 8   pz \
	OrthoOrbital Pt 8   d \
	OrthoOrbital Pt 8   dxy \
	OrthoOrbital Pt 8   dyz \
	OrthoOrbital Pt 8   dz2 \
	OrthoOrbital Pt 8   dxz \
	OrthoOrbital Pt 8   dx2-y2 \
	OrthoOrbital Pt 9   s \
	OrthoOrbital Pt 9   p \
	OrthoOrbital Pt 9   px \
	OrthoOrbital Pt 9   py \
	OrthoOrbital Pt 9   pz \
	OrthoOrbital Pt 9   d \
	OrthoOrbital Pt 9   dxy \
	OrthoOrbital Pt 9   dyz \
	OrthoOrbital Pt 9   dz2 \
	OrthoOrbital Pt 9   dxz \
	OrthoOrbital Pt 9   dx2-y2 \
	OrthoOrbital Pt 10   s \
	OrthoOrbital Pt 10   p \
	OrthoOrbital Pt 10   px \
	OrthoOrbital Pt 10   py \
	OrthoOrbital Pt 10   pz \
	OrthoOrbital Pt 10   d \
	OrthoOrbital Pt 10   dxy \
	OrthoOrbital Pt 10   dyz \
	OrthoOrbital Pt 10   dz2 \
	OrthoOrbital Pt 10   dxz \
	OrthoOrbital Pt 10   dx2-y2 \
	OrthoOrbital Pt 11   s \
	OrthoOrbital Pt 11   p \
	OrthoOrbital Pt 11   px \
	OrthoOrbital Pt 11   py \
	OrthoOrbital Pt 11   pz \
	OrthoOrbital Pt 11   d \
	OrthoOrbital Pt 11   dxy \
	OrthoOrbital Pt 11   dyz \
	OrthoOrbital Pt 11   dz2 \
	OrthoOrbital Pt 11   dxz \
	OrthoOrbital Pt 11   dx2-y2 \
	OrthoOrbital Pt 12   s \
	OrthoOrbital Pt 12   p \
	OrthoOrbital Pt 12   px \
	OrthoOrbital Pt 12   py \
	OrthoOrbital Pt 12   pz \
	OrthoOrbital Pt 12   d \
	OrthoOrbital Pt 12   dxy \
	OrthoOrbital Pt 12   dyz \
	OrthoOrbital Pt 12   dz2 \
	OrthoOrbital Pt 12   dxz \
	OrthoOrbital Pt 12   dx2-y2 \
	OrthoOrbital Pt 13   s \
	OrthoOrbital Pt 13   p \
	OrthoOrbital Pt 13   px \
	OrthoOrbital Pt 13   py \
	OrthoOrbital Pt 13   pz \
	OrthoOrbital Pt 13   d \
	OrthoOrbital Pt 13   dxy \
	OrthoOrbital Pt 13   dyz \
	OrthoOrbital Pt 13   dz2 \
	OrthoOrbital Pt 13   dxz \
	OrthoOrbital Pt 13   dx2-y2 \
	OrthoOrbital Pt 14   s \
	OrthoOrbital Pt 14   p \
	OrthoOrbital Pt 14   px \
	OrthoOrbital Pt 14   py \
	OrthoOrbital Pt 14   pz \
	OrthoOrbital Pt 14   d \
	OrthoOrbital Pt 14   dxy \
	OrthoOrbital Pt 14   dyz \
	OrthoOrbital Pt 14   dz2 \
	OrthoOrbital Pt 14   dxz \
	OrthoOrbital Pt 14   dx2-y2 \
	OrthoOrbital Pt 15   s \
	OrthoOrbital Pt 15   p \
	OrthoOrbital Pt 15   px \
	OrthoOrbital Pt 15   py \
	OrthoOrbital Pt 15   pz \
	OrthoOrbital Pt 15   d \
	OrthoOrbital Pt 15   dxy \
	OrthoOrbital Pt 15   dyz \
	OrthoOrbital Pt 15   dz2 \
	OrthoOrbital Pt 15   dxz \
	OrthoOrbital Pt 15   dx2-y2 \
	OrthoOrbital Pt 16   s \
	OrthoOrbital Pt 16   p \
	OrthoOrbital Pt 16   px \
	OrthoOrbital Pt 16   py \
	OrthoOrbital Pt 16   pz \
	OrthoOrbital Pt 16   d \
	OrthoOrbital Pt 16   dxy \
	OrthoOrbital Pt 16   dyz \
	OrthoOrbital Pt 16   dz2 \
	OrthoOrbital Pt 16   dxz \
	OrthoOrbital Pt 16   dx2-y2 \
	OrthoOrbital Pt 17   s \
	OrthoOrbital Pt 17   p \
	OrthoOrbital Pt 17   px \
	OrthoOrbital Pt 17   py \
	OrthoOrbital Pt 17   pz \
	OrthoOrbital Pt 17   d \
	OrthoOrbital Pt 17   dxy \
	OrthoOrbital Pt 17   dyz \
	OrthoOrbital Pt 17   dz2 \
	OrthoOrbital Pt 17   dxz \
	OrthoOrbital Pt 17   dx2-y2 \
	OrthoOrbital Pt 18   s \
	OrthoOrbital Pt 18   p \
	OrthoOrbital Pt 18   px \
	OrthoOrbital Pt 18   py \
	OrthoOrbital Pt 18   pz \
	OrthoOrbital Pt 18   d \
	OrthoOrbital Pt 18   dxy \
	OrthoOrbital Pt 18   dyz \
	OrthoOrbital Pt 18   dz2 \
	OrthoOrbital Pt 18   dxz \
	OrthoOrbital Pt 18   dx2-y2 \
	OrthoOrbital Pt 19   s \
	OrthoOrbital Pt 19   p \
	OrthoOrbital Pt 19   px \
	OrthoOrbital Pt 19   py \
	OrthoOrbital Pt 19   pz \
	OrthoOrbital Pt 19   d \
	OrthoOrbital Pt 19   dxy \
	OrthoOrbital Pt 19   dyz \
	OrthoOrbital Pt 19   dz2 \
	OrthoOrbital Pt 19   dxz \
	OrthoOrbital Pt 19   dx2-y2 \
	OrthoOrbital Pt 20   s \
	OrthoOrbital Pt 20   p \
	OrthoOrbital Pt 20   px \
	OrthoOrbital Pt 20   py \
	OrthoOrbital Pt 20   pz \
	OrthoOrbital Pt 20   d \
	OrthoOrbital Pt 20   dxy \
	OrthoOrbital Pt 20   dyz \
	OrthoOrbital Pt 20   dz2 \
	OrthoOrbital Pt 20   dxz \
	OrthoOrbital Pt 20   dx2-y2 \
	OrthoOrbital Pt 21   s \
	OrthoOrbital Pt 21   p \
	OrthoOrbital Pt 21   px \
	OrthoOrbital Pt 21   py \
	OrthoOrbital Pt 21   pz \
	OrthoOrbital Pt 21   d \
	OrthoOrbital Pt 21   dxy \
	OrthoOrbital Pt 21   dyz \
	OrthoOrbital Pt 21   dz2 \
	OrthoOrbital Pt 21   dxz \
	OrthoOrbital Pt 21   dx2-y2 \
	OrthoOrbital Pt 22   s \
	OrthoOrbital Pt 22   p \
	OrthoOrbital Pt 22   px \
	OrthoOrbital Pt 22   py \
	OrthoOrbital Pt 22   pz \
	OrthoOrbital Pt 22   d \
	OrthoOrbital Pt 22   dxy \
	OrthoOrbital Pt 22   dyz \
	OrthoOrbital Pt 22   dz2 \
	OrthoOrbital Pt 22   dxz \
	OrthoOrbital Pt 22   dx2-y2 \
	OrthoOrbital Pt 23   s \
	OrthoOrbital Pt 23   p \
	OrthoOrbital Pt 23   px \
	OrthoOrbital Pt 23   py \
	OrthoOrbital Pt 23   pz \
	OrthoOrbital Pt 23   d \
	OrthoOrbital Pt 23   dxy \
	OrthoOrbital Pt 23   dyz \
	OrthoOrbital Pt 23   dz2 \
	OrthoOrbital Pt 23   dxz \
	OrthoOrbital Pt 23   dx2-y2 \
	OrthoOrbital Pt 24   s \
	OrthoOrbital Pt 24   p \
	OrthoOrbital Pt 24   px \
	OrthoOrbital Pt 24   py \
	OrthoOrbital Pt 24   pz \
	OrthoOrbital Pt 24   d \
	OrthoOrbital Pt 24   dxy \
	OrthoOrbital Pt 24   dyz \
	OrthoOrbital Pt 24   dz2 \
	OrthoOrbital Pt 24   dxz \
	OrthoOrbital Pt 24   dx2-y2 \
	OrthoOrbital C 1   s \
	OrthoOrbital C 1   p \
	OrthoOrbital C 1   px \
	OrthoOrbital C 1   py \
	OrthoOrbital C 1   pz \
	OrthoOrbital O 1   s \
	OrthoOrbital O 1   p \
	OrthoOrbital O 1   px \
	OrthoOrbital O 1   py \
	OrthoOrbital O 1   pz
dump End ElecDensity KEdensity BandEigs EigStats RhoAtom DOS Kpoints
dump Ionic State IonicPositions Lattice EigStats Ecomponents
dump 
dump 
dump 
dump 
dump 
dump 
dump 
dump 
dump-name jdft.$VAR
elec-cutoff 20
elec-eigen-algo Davidson
elec-ex-corr gga-PBE
elec-initial-magnetization 0.000000 no
elec-n-bands 237
elec-smearing Fermi 0.001
electronic-minimize  \
	dirUpdateScheme      FletcherReeves \
	linminMethod         DirUpdateRecommended \
	nIterations          100 \
	history              15 \
	knormThreshold       0 \
	energyDiffThreshold  1e-07 \
	nEnergyDiff          2 \
	alphaTstart          1 \
	alphaTmin            1e-10 \
	updateTestStepSize   yes \
	alphaTreduceFactor   0.1 \
	alphaTincreaseFactor 3 \
	nAlphaAdjustMax      3 \
	wolfeEnergy          0.0001 \
	wolfeGradient        0.9 \
	fdTest               no
exchange-regularization WignerSeitzTruncated
fluid LinearPCM 298.000000 1.013250
fluid-anion F- 0.5 MeanFieldLJ \
	epsBulk 1 \
	pMol 0 \
	epsInf 1 \
	Pvap 0 \
	sigmaBulk 0 \
	Rvdw 2.24877 \
	Res 0 \
	tauNuc 343133
fluid-cation Na+ 0.5 MeanFieldLJ \
	epsBulk 1 \
	pMol 0 \
	epsInf 1 \
	Pvap 0 \
	sigmaBulk 0 \
	Rvdw 2.19208 \
	Res 0 \
	tauNuc 343133
fluid-ex-corr lda-TF lda-PZ
fluid-gummel-loop 10 1.000000e-05
fluid-minimize  \
	dirUpdateScheme      PolakRibiere \
	linminMethod         DirUpdateRecommended \
	nIterations          400 \
	history              15 \
	knormThreshold       1e-11 \
	energyDiffThreshold  0 \
	nEnergyDiff          2 \
	alphaTstart          1 \
	alphaTmin            1e-10 \
	updateTestStepSize   yes \
	alphaTreduceFactor   0.1 \
	alphaTincreaseFactor 3 \
	nAlphaAdjustMax      6 \
	wolfeEnergy          0.0001 \
	wolfeGradient        0.9 \
	fdTest               no
fluid-solvent H2O 55.338 ScalarEOS \
	epsBulk 78.4 \
	pMol 0.92466 \
	epsInf 1.77 \
	Pvap 1.06736e-10 \
	sigmaBulk 4.62e-05 \
	Rvdw 2.61727 \
	Res 1.42 \
	tauNuc 343133 \
	poleEl 15 7 1
forces-output-coords Positions
ion Pt  -0.000046000000000   3.020563000000000   2.055063999999999 0
ion Pt  -2.616042999999999   7.551602999999998   2.055063999999999 0
ion Pt   5.231948999999999   3.020563000000000   2.055063999999999 0
ion Pt   2.615952000000000   7.551602999999998   2.055063999999999 0
ion Pt   0.000042000000000   0.000091000000000  10.683439000000000 0
ion Pt  -2.615955000000000   4.531130000000000  10.683439000000000 0
ion Pt   5.232038000000000   0.000091000000000  10.683439000000000 0
ion Pt   2.616040999999999   4.531130000000000  10.683439000000000 0
ion Pt   2.616092000000000   1.510449000000000   6.419136999999999 0
ion Pt   0.000095000000000   6.041488999999999   6.419136999999999 0
ion Pt   7.848087999999998   1.510449000000000   6.419136999999999 0
ion Pt   5.232081000000001   6.041488999999999   6.419136999999999 0
ion Pt  -0.000057000000000   3.020600000000000  14.945561999999999 0
ion Pt  -2.616048999999999   7.551629999999999  14.945561999999999 0
ion Pt   5.231938999999999   3.020600000000000  14.945561999999999 0
ion Pt   2.615947000000000   7.551629999999999  14.945561999999999 0
ion Pt   0.000052000000000   0.000127000000000  23.577845999999997 0
ion Pt  -2.615945000000000   4.531166999999999  23.577845999999997 0
ion Pt   5.232048000000000   0.000127000000000  23.577845999999997 0
ion Pt   2.616051000000000   4.531166999999999  23.577845999999997 0
ion Pt   2.615915000000000   1.510250000000000  19.213260999999996 0
ion Pt  -0.000082000000000   6.041289999999999  19.213260999999996 0
ion Pt   7.847910000000000   1.510250000000000  19.213260999999996 0
ion Pt   5.231912999999999   6.041289999999999  19.213260999999996 0
ion C   1.308052000000000   2.265647000000000  26.075756999999996 1  Linear 0 0 1
ion O   1.368146000000000   2.265647000000000  28.231040999999998 1  Linear 0 0 1
ion-species /projects/musgravc/apps/jdftx-1.6.0/build/pseudopotentials/GBRV_v1.5/$ID_pbe_v1.uspp
ion-species /projects/musgravc/apps/jdftx-1.6.0/build/pseudopotentials/GBRV_v1.5/$ID_pbe_v1.2.uspp
ion-species /projects/musgravc/apps/jdftx-1.6.0/build/pseudopotentials/GBRV_v1.5/$ID_pbe_v1.4.uspp
ion-species /projects/musgravc/apps/jdftx-1.6.0/build/pseudopotentials/GBRV_v1.5/$ID_pbe_v1.5.uspp
ion-width Ecut
ionic-minimize  \
	dirUpdateScheme      L-BFGS \
	linminMethod         DirUpdateRecommended \
	nIterations          100 \
	history              15 \
	knormThreshold       0.0001 \
	energyDiffThreshold  1e-06 \
	nEnergyDiff          2 \
	alphaTstart          1 \
	alphaTmin            1e-10 \
	updateTestStepSize   yes \
	alphaTreduceFactor   0.1 \
	alphaTincreaseFactor 3 \
	nAlphaAdjustMax      3 \
	wolfeEnergy          0.0001 \
	wolfeGradient        0.9 \
	fdTest               no
kpoint   0.000000000000   0.000000000000   0.000000000000  1.00000000000000
kpoint-folding 6 6 1 
latt-move-scale 0 0 0
latt-scale 1 1 1 
lattice  \
	  10.463991999999999   -5.231994000000000    0.000000000000000  \
	   0.000000000000000    9.062080000000000    0.000000000000000  \
	   0.000000000000000    0.000000000000000   64.078591000000003 
lattice-minimize  \
	dirUpdateScheme      L-BFGS \
	linminMethod         DirUpdateRecommended \
	nIterations          0 \
	history              15 \
	knormThreshold       0 \
	energyDiffThreshold  1e-06 \
	nEnergyDiff          2 \
	alphaTstart          1 \
	alphaTmin            1e-10 \
	updateTestStepSize   yes \
	alphaTreduceFactor   0.1 \
	alphaTincreaseFactor 3 \
	nAlphaAdjustMax      3 \
	wolfeEnergy          0.0001 \
	wolfeGradient        0.9 \
	fdTest               no
lcao-params 30 1e-06 0.001
pcm-variant CANDLE
spintype z-spin
subspace-rotation-factor 1 yes
symmetries automatic
symmetry-threshold 0.0001
van-der-waals D3



---------- Setting up symmetries ----------

Found 24 point-group symmetries of the bravais lattice
Found 1 space-group symmetries with basis
Applied RMS atom displacement 0 bohrs to make symmetries exact.

---------- Initializing the Grid ----------
R = 
[       10.464     -5.23199            0  ]
[            0      9.06208            0  ]
[            0            0      64.0786  ]
unit cell volume = 6076.29
G =
[   0.600458   0.346674         -0  ]
[          0   0.693349          0  ]
[          0         -0  0.0980544  ]
Minimum fftbox size, Smin = [  44  44  260  ]
Chosen fftbox size, S = [  48  48  270  ]

---------- Exchange Correlation functional ----------
Initalized PBE GGA exchange.
Initalized PBE GGA correlation.

---------- Setting up pseudopotentials ----------
Width of ionic core gaussian charges (only for fluid interactions / plotting) set to 0.397384

Reading pseudopotential file '/projects/musgravc/apps/jdftx-1.6.0/build/pseudopotentials/GBRV_v1.5/pt_pbe_v1.4.uspp':
  Title: Pt.  Created by USPP 7.3.6 on 31-3-15
  Reference state energy: -105.002503.  16 valence electrons in orbitals:
    |510>  occupation: 6  eigenvalue: -2.158104
    |520>  occupation: 9.5  eigenvalue: -0.335376
    |600>  occupation: 0  eigenvalue: -0.319640
    |610>  occupation: 0  eigenvalue: -0.122947
  lMax: 2  lLocal: 3  QijEcut: 5.5
  6 projectors sampled on a log grid with 745 points:
    l: 0  eig: -0.319640  rCut: 2.45
    l: 0  eig: 1.500000  rCut: 2.45
    l: 1  eig: -2.158104  rCut: 1.6
    l: 1  eig: -0.122947  rCut: 1.6
    l: 2  eig: -0.500000  rCut: 1.6
    l: 2  eig: -0.335375  rCut: 1.6
  Partial core density with radius 1.1
  Transforming core density to a uniform radial grid of dG=0.02 with 1591 points.
  Transforming local potential to a uniform radial grid of dG=0.02 with 1591 points.
  Transforming nonlocal projectors to a uniform radial grid of dG=0.02 with 432 points.
  Transforming density augmentations to a uniform radial grid of dG=0.02 with 1591 points.
  Transforming atomic orbitals to a uniform radial grid of dG=0.02 with 432 points.
  Core radius for overlap checks: 2.45 bohrs.

Reading pseudopotential file '/projects/musgravc/apps/jdftx-1.6.0/build/pseudopotentials/GBRV_v1.5/c_pbe_v1.2.uspp':
  Title: C.  Created by USPP 7.3.6 on 3-2-2014
  Reference state energy: -5.406344.  4 valence electrons in orbitals:
    |200>  occupation: 2  eigenvalue: -0.504890
    |210>  occupation: 2  eigenvalue: -0.194356
  lMax: 1  lLocal: 2  QijEcut: 5
  4 projectors sampled on a log grid with 503 points:
    l: 0  eig: -0.504890  rCut: 1.3
    l: 0  eig: 0.000000  rCut: 1.3
    l: 1  eig: -0.194357  rCut: 1.3
    l: 1  eig: 0.000000  rCut: 1.3
  Partial core density with radius 1.1
  Transforming core density to a uniform radial grid of dG=0.02 with 1591 points.
  Transforming local potential to a uniform radial grid of dG=0.02 with 1591 points.
  Transforming nonlocal projectors to a uniform radial grid of dG=0.02 with 432 points.
  Transforming density augmentations to a uniform radial grid of dG=0.02 with 1591 points.
  Transforming atomic orbitals to a uniform radial grid of dG=0.02 with 432 points.
  Core radius for overlap checks: 1.30 bohrs.

Reading pseudopotential file '/projects/musgravc/apps/jdftx-1.6.0/build/pseudopotentials/GBRV_v1.5/o_pbe_v1.2.uspp':
  Title: O.  Created by USPP 7.3.6 on 3-2-2014
  Reference state energy: -15.894388.  6 valence electrons in orbitals:
    |200>  occupation: 2  eigenvalue: -0.878823
    |210>  occupation: 4  eigenvalue: -0.332131
  lMax: 2  lLocal: 2  QijEcut: 6
  5 projectors sampled on a log grid with 511 points:
    l: 0  eig: -0.878823  rCut: 1.25
    l: 0  eig: 0.000000  rCut: 1.25
    l: 1  eig: -0.332132  rCut: 1.25
    l: 1  eig: 0.000000  rCut: 1.25
    l: 2  eig: 1.000000  rCut: 1.25
  Partial core density with radius 0.7
  Transforming core density to a uniform radial grid of dG=0.02 with 1591 points.
  Transforming local potential to a uniform radial grid of dG=0.02 with 1591 points.
  Transforming nonlocal projectors to a uniform radial grid of dG=0.02 with 432 points.
  Transforming density augmentations to a uniform radial grid of dG=0.02 with 1591 points.
  Transforming atomic orbitals to a uniform radial grid of dG=0.02 with 432 points.
  Core radius for overlap checks: 1.25 bohrs.

Initialized 3 species with 26 total atoms.

Folded 1 k-points by 6x6x1 to 36 k-points.

---------- Setting up k-points, bands, fillings ----------
Adding inversion symmetry to k-mesh for non-inversion-symmetric unit cell.
Reduced to 20 k-points under symmetry. 
Computing the number of bands and number of electrons
Calculating initial fillings.
nElectrons: 394.000000   nBands: 237   nStates: 40

----- Setting up reduced wavefunction bases (one per k-point) -----
average nbasis = 25958.417 , ideal nbasis = 25958.359

----- Initializing Supercell corresponding to k-point mesh -----
Lattice vector linear combinations in supercell:
[   6   0   0  ]
[   0   6   0  ]
[   0   0   1  ]
Supercell lattice vectors:
[  62.784  -31.392  0  ]
[  0  54.3725  0  ]
[  0  0  64.0786  ]

Initializing DFT-D3 calculator:
	Parameters set for gga-PBE functional
	s6:  1.000  s_r6:  1.217
	s8:  0.722  s_r8:  1.000
	Per-atom parameters loaded for:
	Pt:  sqrtQ[a0]:  5.888  Rcov[a0]:  2.116  CN: [ 0.00 1.92 6.67 ]
	 C:  sqrtQ[a0]:  3.105  Rcov[a0]:  1.417  CN: [ 0.00 0.99 2.00 3.00 3.98 ]
	 O:  sqrtQ[a0]:  2.594  Rcov[a0]:  1.191  CN: [ 0.00 0.99 1.99 ]

Initializing DFT-D2 calculator for fluid / solvation:
	Pt:  C6:  815.23 Eh-a0^6  R0: 3.326 a0 (WARNING: beyond Grimme's data set)
	 C:  C6:   30.35 Eh-a0^6  R0: 2.744 a0
	 O:  C6:   12.14 Eh-a0^6  R0: 2.536 a0

---------- Setting up ewald sum ----------
Optimum gaussian width for ewald sums = 4.229548 bohr.
Real space sum over 845 unit cells with max indices [  6  6  2  ]
Reciprocal space sum over 5929 terms with max indices [  5  5  24  ]

Computing DFT-D3 correction:
# coordination-number Pt 6.988 6.988 6.988 6.988 9.586 9.586 9.586 9.586 9.420 9.420 9.420 9.420 9.582 9.582 9.582 9.582 8.038 7.193 7.194 8.042 9.420 9.416 9.416 9.416
# coordination-number C 3.402
# coordination-number O 1.135
# diagonal-C6 Pt 336.87 336.87 336.87 336.87 336.87 336.87 336.87 336.87 336.87 336.87 336.87 336.87 336.87 336.87 336.87 336.87 336.87 336.87 336.87 336.87 336.87 336.87 336.87 336.87
# diagonal-C6 C 23.08
# diagonal-C6 O 12.69
EvdW_6 =   -0.220479
EvdW_8 =   -0.347957

---------- Allocating electronic variables ----------
Initializing wave functions:  linear combination of atomic orbitals
Pt pseudo-atom occupations:   s ( 0 )  p ( 6 0 )  d ( 10 )
C pseudo-atom occupations:   s ( 2 )  p ( 2 )
O pseudo-atom occupations:   s ( 2 )  p ( 4 )
	FillingsUpdate:  mu: -1.378939251  nElectrons: 394.000000  magneticMoment: [ Abs: 0.00335  Tot: -0.00005 ]
LCAOMinimize: Iter:   0  F: -2142.3998216581826455  |grad|_K:  1.986e-02  alpha:  1.000e+00
LCAOMinimize: 	Step increased F by 7.772432e+02, reducing alpha to 2.221447e-02.
	FillingsUpdate:  mu: +1.329178282  nElectrons: 394.000000  magneticMoment: [ Abs: 0.00296  Tot: -0.00027 ]
LCAOMinimize: Iter:   1  F: -2145.4093173230403409  |grad|_K:  2.883e-02  alpha:  2.221e-02  linmin:  5.497e-02  cgtest: -5.715e-01  t[s]:    144.60
LCAOMinimize: 	Bad step direction: g.d > 0.
LCAOMinimize: 	Undoing step.
LCAOMinimize: 	Step failed: resetting search direction.
	FillingsUpdate:  mu: +1.329178282  nElectrons: 394.000000  magneticMoment: [ Abs: 0.00296  Tot: -0.00027 ]
LCAOMinimize: Iter:   2  F: -2145.4093173230403409  |grad|_K:  2.883e-02  alpha:  0.000e+00
	FillingsUpdate:  mu: +0.747670902  nElectrons: 394.000000  magneticMoment: [ Abs: 0.00292  Tot: -0.00010 ]
LCAOMinimize: Iter:   3  F: -2150.2562037703901296  |grad|_K:  1.917e-02  alpha:  6.582e-03  linmin:  8.442e-02  cgtest: -7.590e-01  t[s]:    222.78
	FillingsUpdate:  mu: +0.611448136  nElectrons: 394.000000  magneticMoment: [ Abs: 0.00289  Tot: -0.00002 ]
LCAOMinimize: Iter:   4  F: -2150.4387807809125661  |grad|_K:  2.110e-02  alpha:  2.965e-03  linmin:  1.020e-03  cgtest:  9.682e-01  t[s]:    267.81
	FillingsUpdate:  mu: -0.238789410  nElectrons: 394.000000  magneticMoment: [ Abs: 0.00287  Tot: -0.00009 ]
LCAOMinimize: Iter:   5  F: -2153.7186033452280753  |grad|_K:  3.190e-03  alpha:  4.071e-03  linmin: -1.319e-01  cgtest:  4.667e-01  t[s]:    312.79
LCAOMinimize: Encountered beta<0, resetting CG.
LCAOMinimize: 	Predicted alpha/alphaT>3.000000, increasing alphaT to 1.221285e-02.
	FillingsUpdate:  mu: -0.004975093  nElectrons: 394.000000  magneticMoment: [ Abs: 0.00275  Tot: -0.00004 ]
LCAOMinimize: Iter:   6  F: -2154.1598518771261297  |grad|_K:  6.525e-03  alpha:  2.569e-02  linmin:  3.785e-03  cgtest: -1.863e-02  t[s]:    369.48
	FillingsUpdate:  mu: +0.239344553  nElectrons: 394.000000  magneticMoment: [ Abs: 0.00241  Tot: +0.00005 ]
LCAOMinimize: Iter:   7  F: -2155.5427972394504650  |grad|_K:  3.147e-03  alpha:  2.003e-02  linmin: -6.379e-04  cgtest:  7.501e-01  t[s]:    414.46
LCAOMinimize: Encountered beta<0, resetting CG.
	FillingsUpdate:  mu: +0.229233679  nElectrons: 394.000000  magneticMoment: [ Abs: 0.00240  Tot: +0.00006 ]
LCAOMinimize: Iter:   8  F: -2155.6720311762187521  |grad|_K:  2.411e-03  alpha:  6.943e-03  linmin: -7.803e-03  cgtest:  3.588e-02  t[s]:    459.45
LCAOMinimize: 	Predicted alpha/alphaT>3.000000, increasing alphaT to 2.082992e-02.
	FillingsUpdate:  mu: +0.167171630  nElectrons: 394.000000  magneticMoment: [ Abs: 0.00232  Tot: -0.00002 ]
LCAOMinimize: Iter:   9  F: -2156.0832059644922083  |grad|_K:  1.811e-03  alpha:  3.613e-02  linmin: -1.565e-02  cgtest:  6.905e-01  t[s]:    516.38
	FillingsUpdate:  mu: +0.123761169  nElectrons: 394.000000  magneticMoment: [ Abs: 0.00231  Tot: -0.00002 ]
LCAOMinimize: Iter:  10  F: -2156.1187619374195492  |grad|_K:  1.148e-03  alpha:  6.911e-03  linmin:  2.734e-02  cgtest: -1.912e-01  t[s]:    562.17
LCAOMinimize: 	Predicted alpha/alphaT>3.000000, increasing alphaT to 2.073387e-02.
	FillingsUpdate:  mu: +0.087975066  nElectrons: 394.000000  magneticMoment: [ Abs: 0.00225  Tot: -0.00002 ]
LCAOMinimize: Iter:  11  F: -2156.1864282309234113  |grad|_K:  1.440e-03  alpha:  3.424e-02  linmin:  2.496e-03  cgtest:  2.595e-01  t[s]:    619.00
	FillingsUpdate:  mu: +0.220427312  nElectrons: 394.000000  magneticMoment: [ Abs: 0.00214  Tot: +0.00001 ]
LCAOMinimize: Iter:  12  F: -2156.2836711293375629  |grad|_K:  2.554e-03  alpha:  2.709e-02  linmin:  1.107e-04  cgtest:  1.338e-02  t[s]:    663.95
	FillingsUpdate:  mu: +0.271571759  nElectrons: 394.000000  magneticMoment: [ Abs: 0.00196  Tot: +0.00004 ]
LCAOMinimize: Iter:  13  F: -2156.4221104873336117  |grad|_K:  1.108e-03  alpha:  1.188e-02  linmin: -2.076e-03  cgtest: -3.116e-02  t[s]:    708.82
	FillingsUpdate:  mu: +0.241510629  nElectrons: 394.000000  magneticMoment: [ Abs: 0.00189  Tot: +0.00002 ]
LCAOMinimize: Iter:  14  F: -2156.4736728469410991  |grad|_K:  1.320e-03  alpha:  2.274e-02  linmin: -2.016e-03  cgtest:  8.031e-03  t[s]:    753.91
	FillingsUpdate:  mu: +0.192639619  nElectrons: 394.000000  magneticMoment: [ Abs: 0.00186  Tot: +0.00003 ]
LCAOMinimize: Iter:  15  F: -2156.4975210534562393  |grad|_K:  7.320e-04  alpha:  7.843e-03  linmin:  3.656e-03  cgtest: -1.781e-01  t[s]:    798.88
LCAOMinimize: 	Predicted alpha/alphaT>3.000000, increasing alphaT to 2.352857e-02.
	FillingsUpdate:  mu: +0.267254862  nElectrons: 394.000000  magneticMoment: [ Abs: 0.00175  Tot: -0.00001 ]
LCAOMinimize: Iter:  16  F: -2156.5513806211133669  |grad|_K:  1.293e-03  alpha:  6.204e-02  linmin:  1.015e-03  cgtest:  2.235e-01  t[s]:    855.59
	FillingsUpdate:  mu: +0.244275728  nElectrons: 394.000000  magneticMoment: [ Abs: 0.00173  Tot: -0.00006 ]
LCAOMinimize: Iter:  17  F: -2156.5692905136361333  |grad|_K:  6.332e-04  alpha:  5.591e-03  linmin: -8.150e-03  cgtest:  2.836e-01  t[s]:    900.68
LCAOMinimize: 	Predicted alpha/alphaT>3.000000, increasing alphaT to 1.677244e-02.
	FillingsUpdate:  mu: +0.200420616  nElectrons: 394.000000  magneticMoment: [ Abs: 0.00173  Tot: -0.00007 ]
LCAOMinimize: Iter:  18  F: -2156.5876900275811749  |grad|_K:  4.039e-04  alpha:  2.472e-02  linmin: -8.372e-04  cgtest: -1.138e-01  t[s]:    957.52
	FillingsUpdate:  mu: +0.209663162  nElectrons: 394.000000  magneticMoment: [ Abs: 0.00173  Tot: -0.00008 ]
LCAOMinimize: Iter:  19  F: -2156.5952657059683588  |grad|_K:  5.359e-04  alpha:  2.618e-02  linmin:  5.253e-04  cgtest:  9.336e-03  t[s]:   1002.53
	FillingsUpdate:  mu: +0.206517369  nElectrons: 394.000000  magneticMoment: [ Abs: 0.00173  Tot: -0.00008 ]
LCAOMinimize: Iter:  20  F: -2156.5989905263754736  |grad|_K:  2.278e-04  alpha:  7.354e-03  linmin: -1.203e-03  cgtest:  5.670e-02  t[s]:   1047.49
LCAOMinimize: 	Predicted alpha/alphaT>3.000000, increasing alphaT to 2.206075e-02.
LCAOMinimize: 	Predicted alpha/alphaT>3.000000, increasing alphaT to 6.618226e-02.
	FillingsUpdate:  mu: +0.195436275  nElectrons: 394.000000  magneticMoment: [ Abs: 0.00173  Tot: -0.00010 ]
LCAOMinimize: Iter:  21  F: -2156.6075423465354106  |grad|_K:  2.241e-04  alpha:  9.297e-02  linmin:  3.061e-04  cgtest: -2.137e-02  t[s]:   1116.20
	FillingsUpdate:  mu: +0.189692013  nElectrons: 394.000000  magneticMoment: [ Abs: 0.00173  Tot: -0.00010 ]
LCAOMinimize: Iter:  22  F: -2156.6081252457415758  |grad|_K:  1.509e-04  alpha:  6.544e-03  linmin: -8.958e-04  cgtest:  2.223e-02  t[s]:   1161.87
LCAOMinimize: 	Predicted alpha/alphaT>3.000000, increasing alphaT to 1.963176e-02.
	FillingsUpdate:  mu: +0.177323897  nElectrons: 394.000000  magneticMoment: [ Abs: 0.00174  Tot: -0.00010 ]
LCAOMinimize: Iter:  23  F: -2156.6100819441539898  |grad|_K:  1.310e-04  alpha:  4.833e-02  linmin:  1.577e-04  cgtest: -5.870e-02  t[s]:   1219.12
	FillingsUpdate:  mu: +0.185315279  nElectrons: 394.000000  magneticMoment: [ Abs: 0.00174  Tot: -0.00011 ]
LCAOMinimize: Iter:  24  F: -2156.6108358041283282  |grad|_K:  1.063e-04  alpha:  2.484e-02  linmin: -1.725e-04  cgtest:  1.437e-02  t[s]:   1264.12
	FillingsUpdate:  mu: +0.186469523  nElectrons: 394.000000  magneticMoment: [ Abs: 0.00175  Tot: -0.00011 ]
LCAOMinimize: Iter:  25  F: -2156.6111272828061374  |grad|_K:  1.482e-04  alpha:  1.457e-02  linmin: -2.754e-05  cgtest:  1.578e-03  t[s]:   1309.16
	FillingsUpdate:  mu: +0.184434980  nElectrons: 394.000000  magneticMoment: [ Abs: 0.00175  Tot: -0.00013 ]
LCAOMinimize: Iter:  26  F: -2156.6122274868826025  |grad|_K:  4.853e-05  alpha:  2.835e-02  linmin: -2.743e-04  cgtest:  4.752e-02  t[s]:   1354.19
	FillingsUpdate:  mu: +0.183295258  nElectrons: 394.000000  magneticMoment: [ Abs: 0.00176  Tot: -0.00013 ]
LCAOMinimize: Iter:  27  F: -2156.6123778780265638  |grad|_K:  6.868e-05  alpha:  3.613e-02  linmin: -9.792e-06  cgtest: -1.767e-03  t[s]:   1399.22
	FillingsUpdate:  mu: +0.182816925  nElectrons: 394.000000  magneticMoment: [ Abs: 0.00176  Tot: -0.00014 ]
LCAOMinimize: Iter:  28  F: -2156.6124410980073662  |grad|_K:  3.909e-05  alpha:  7.524e-03  linmin: -7.574e-04  cgtest:  1.519e-02  t[s]:   1444.20
	FillingsUpdate:  mu: +0.186076128  nElectrons: 394.000000  magneticMoment: [ Abs: 0.00176  Tot: -0.00014 ]
LCAOMinimize: Iter:  29  F: -2156.6124934174858936  |grad|_K:  2.254e-05  alpha:  1.926e-02  linmin:  1.742e-04  cgtest: -1.828e-02  t[s]:   1489.44
LCAOMinimize: 	Predicted alpha/alphaT>3.000000, increasing alphaT to 5.779092e-02.
	FillingsUpdate:  mu: +0.187492296  nElectrons: 394.000000  magneticMoment: [ Abs: 0.00176  Tot: -0.00015 ]
LCAOMinimize: Iter:  30  F: -2156.6125981586501439  |grad|_K:  5.119e-05  alpha:  1.170e-01  linmin:  1.428e-05  cgtest:  7.320e-03  t[s]:   1546.26
LCAOMinimize: None of the convergence criteria satisfied after 30 iterations.
----- createFluidSolver() ----- (Fluid-side solver setup)
   Initializing fluid molecule 'H2O'
     Initializing site 'O'
       Electron density: proportional to exp(-r/0.36935)*erfc((r-0.51523)/0.36823) with norm 6.826
       Charge density: gaussian nuclear width 0.478731 with net site charge 0.826
       Polarizability: cuspless exponential with width 0.32 and norm 3.73
       Hard sphere radius: 2.57003 bohrs
       Positions in reference frame:
         [ +0.000000 +0.000000 +0.000000 ]
     Initializing site 'H'
       Electron density: proportional to exp(-r/0.34641)*erfc((r-0)/0.390882) with norm 0.587
       Charge density: gaussian nuclear width 0.377945 with net site charge -0.413
       Polarizability: cuspless exponential with width 0.39 and norm 3.3
       Positions in reference frame:
         [ +0.000000 -1.441945 +1.122523 ]
         [ +0.000000 +1.441945 +1.122523 ]
     Net charge: 0   dipole magnitude: 0.927204
     Initializing spherical shell mfKernel with radius 2.61727 Bohr
     deltaS corrections:
       site 'O': -7.54299
       site 'H': -6.83917
   Initializing fluid molecule 'Na+'
     Initializing site 'Na'
       Electron density: proportional to exp(-r/0.19682)*erfc((r-0.71491)/0.41314) with norm 8.1383
       Charge density: gaussian nuclear width 0.365347 with net site charge -1
       Hard sphere radius: 1.86327 bohrs
       Positions in reference frame:
         [ +0.000000 +0.000000 +0.000000 ]
     Net charge: -1   dipole magnitude: 0
     Initializing gaussian mfKernel with width: 1.55004 Bohr
     deltaS corrections:
       site 'Na': -22.3555
   Initializing fluid molecule 'F-'
     Initializing site 'F'
       Electron density: proportional to exp(-r/0.38886)*erfc((r-0)/0.438782) with norm 8
       Charge density: gaussian nuclear width 0.374796 with net site charge 1
       Hard sphere radius: 2.39995 bohrs
       Positions in reference frame:
         [ +0.000000 +0.000000 +0.000000 ]
     Net charge: 1   dipole magnitude: 0
     Initializing gaussian mfKernel with width: 1.59012 Bohr
     deltaS corrections:
       site 'F': -9.04335

Correction to mu due to finite nuclear width = -0.0643365
   Cavity determined by nc: 0.00142 and sigma: 0.707107
   Nonlocal vdW cavity from gaussian model electron density with norm = 8 and sigma = 0.993594 bohr
   Charge asymmetry in cavity with sensitivity pCavity = 36.5 e-bohr/Eh
   Electrostatic cavity expanded by eta = 1.46 bohrs
   Weighted density cavitation model constrained by Nbulk: 0.0049383 bohr^-3, Pvap: 3.14029 kPa, Rvdw: 2.61727 bohr and sigmaBulk: 4.62e-05 Eh/bohr^2 at T: 298 K.
   Weighted density dispersion model using vdW pair potentials with single solvent site with sqrtC6eff: 0.77 SI.


---- Citations for features of the code used in this run ----

   Software package:
      R. Sundararaman, K. Letchworth-Weaver, K.A. Schwarz, D. Gunceler, Y. Ozhabes and T.A. Arias, 'JDFTx: software for joint density-functional theory', SoftwareX 6, 278 (2017)

   gga-PBE exchange-correlation functional:
      J.P. Perdew, K. Burke and M. Ernzerhof, Phys. Rev. Lett. 77, 3865 (1996)

   Pseudopotentials:
      KF Garrity, JW Bennett, KM Rabe and D Vanderbilt, Comput. Mater. Sci. 81, 446 (2014)

   DFT-D3 dispersion correction:
      S. Grimme, J. Antony, S. Ehrlich and H. Krieg, J. Chem. Phys. 132, 154104 (2010)

   DFT-D2 dispersion correction:
      S. Grimme, J. Comput. Chem. 27, 1787 (2006)

   Charge-asymmetric nonlocally-determined local-electric (CANDLE) solvation model:
      R. Sundararaman and W.A. Goddard III, J. Chem. Phys. 142, 064107 (2015)

   Total energy minimization with Auxiliary Hamiltonian:
      C. Freysoldt, S. Boeck, and J. Neugebauer, Phys. Rev. B 79, 241103(R) (2009)

   Linear-tetrahedron sampling for density of states:
      G. Lehmann and M. Taut, Phys. status solidi (b) 54, 469 (1972)

This list may not be complete. Please suggest additional citations or
report any other bugs at https://github.com/shankar1729/jdftx/issues

Initialization completed successfully at t[s]:   1556.57


Computing DFT-D3 correction:
# coordination-number Pt 6.988 6.988 6.988 6.988 9.586 9.586 9.586 9.586 9.420 9.420 9.420 9.420 9.582 9.582 9.582 9.582 8.038 7.193 7.194 8.042 9.420 9.416 9.416 9.416
# coordination-number C 3.402
# coordination-number O 1.135
# diagonal-C6 Pt 336.87 336.87 336.87 336.87 336.87 336.87 336.87 336.87 336.87 336.87 336.87 336.87 336.87 336.87 336.87 336.87 336.87 336.87 336.87 336.87 336.87 336.87 336.87 336.87
# diagonal-C6 C 23.08
# diagonal-C6 O 12.69
EvdW_6 =   -0.220479
EvdW_8 =   -0.347957
Fluid solver invoked on fresh (random / LCAO) wavefunctions
Running a vacuum solve first:

-------- Initial electronic minimization -----------
	FillingsUpdate:  mu: +0.187492499  nElectrons: 394.000000  magneticMoment: [ Abs: 0.00176  Tot: -0.00015 ]
ElecMinimize: Iter:   0  F: -2156.612598158657420  |grad|_K:  6.178e-05  alpha:  1.000e+00
	FillingsUpdate:  mu: +0.338282345  nElectrons: 394.000000  magneticMoment: [ Abs: 0.00143  Tot: -0.00015 ]
	SubspaceRotationAdjust: set factor to 0.506
ElecMinimize: Iter:   1  F: -2156.888716642533836  |grad|_K:  2.901e-04  alpha:  3.004e-01  linmin:  1.175e-04  t[s]:   1654.26
ElecMinimize: 	Step increased F by 5.281594e-02, reducing alpha to 1.334438e-03.
	FillingsUpdate:  mu: +0.302226135  nElectrons: 394.000000  magneticMoment: [ Abs: 0.00140  Tot: -0.00016 ]
	SubspaceRotationAdjust: set factor to 0.262
ElecMinimize: Iter:   2  F: -2156.936796326539479  |grad|_K:  1.635e-04  alpha:  1.334e-03  linmin: -4.016e-03  t[s]:   1755.18
ElecMinimize: 	Predicted alpha/alphaT>3.000000, increasing alphaT to 4.003313e-03.
	FillingsUpdate:  mu: +0.213650324  nElectrons: 394.000000  magneticMoment: [ Abs: 0.00136  Tot: -0.00017 ]
	SubspaceRotationAdjust: set factor to 0.102
	SubspaceRotationAdjust: resetting CG because factor has changed by 0.102131
ElecMinimize: 	State modified externally: resetting search direction.
ElecMinimize: Iter:   3  F: -2157.005868688720966  |grad|_K:  2.673e-05  alpha:  5.933e-03
ElecMinimize: 	Predicted alpha/alphaT>3.000000, increasing alphaT to 1.779751e-02.
ElecMinimize: 	Predicted alpha/alphaT>3.000000, increasing alphaT to 5.339254e-02.
ElecMinimize: 	Predicted alpha/alphaT>3.000000, increasing alphaT to 1.601776e-01.
	FillingsUpdate:  mu: +0.264370035  nElectrons: 394.000000  magneticMoment: [ Abs: 0.00119  Tot: -0.00016 ]
	SubspaceRotationAdjust: set factor to 0.0619
ElecMinimize: Iter:   4  F: -2157.048920143653049  |grad|_K:  4.111e-05  alpha:  2.451e-01  linmin:  2.785e-04  t[s]:   1958.45
	FillingsUpdate:  mu: +0.233733758  nElectrons: 394.000000  magneticMoment: [ Abs: 0.00101  Tot: -0.00016 ]
	SubspaceRotationAdjust: set factor to 0.041
ElecMinimize: Iter:   5  F: -2157.083318809626689  |grad|_K:  1.834e-05  alpha:  8.449e-02  linmin:  3.494e-04  t[s]:   2019.81
ElecMinimize: 	Predicted alpha/alphaT>3.000000, increasing alphaT to 2.534747e-01.
	FillingsUpdate:  mu: +0.219679746  nElectrons: 394.000000  magneticMoment: [ Abs: 0.00075  Tot: -0.00014 ]
	SubspaceRotationAdjust: set factor to 0.0384
ElecMinimize: Iter:   6  F: -2157.112376457946539  |grad|_K:  1.166e-05  alpha:  3.541e-01  linmin: -7.446e-05  t[s]:   2096.72
	FillingsUpdate:  mu: +0.213431858  nElectrons: 394.000000  magneticMoment: [ Abs: 0.00068  Tot: -0.00014 ]
	SubspaceRotationAdjust: set factor to 0.0267
ElecMinimize: Iter:   7  F: -2157.117674019474180  |grad|_K:  7.430e-06  alpha:  1.569e-01  linmin: -4.568e-05  t[s]:   2157.93
	FillingsUpdate:  mu: +0.225255653  nElectrons: 394.000000  magneticMoment: [ Abs: 0.00059  Tot: -0.00014 ]
	SubspaceRotationAdjust: set factor to 0.0283
ElecMinimize: Iter:   8  F: -2157.121521650678005  |grad|_K:  4.596e-06  alpha:  2.814e-01  linmin: -9.091e-06  t[s]:   2219.25
	FillingsUpdate:  mu: +0.222913106  nElectrons: 394.000000  magneticMoment: [ Abs: 0.00051  Tot: -0.00013 ]
	SubspaceRotationAdjust: set factor to 0.0268
ElecMinimize: Iter:   9  F: -2157.123579483650701  |grad|_K:  4.161e-06  alpha:  3.941e-01  linmin:  2.238e-06  t[s]:   2280.51
	FillingsUpdate:  mu: +0.215267451  nElectrons: 394.000000  magneticMoment: [ Abs: 0.00048  Tot: -0.00012 ]
	SubspaceRotationAdjust: set factor to 0.0235
ElecMinimize: Iter:  10  F: -2157.124568676379567  |grad|_K:  2.476e-06  alpha:  2.313e-01  linmin:  1.090e-06  t[s]:   2341.82
	FillingsUpdate:  mu: +0.215294406  nElectrons: 394.000000  magneticMoment: [ Abs: 0.00046  Tot: -0.00012 ]
	SubspaceRotationAdjust: set factor to 0.0304
ElecMinimize: Iter:  11  F: -2157.125219863156417  |grad|_K:  2.247e-06  alpha:  4.297e-01  linmin:  4.345e-07  t[s]:   2403.58
	FillingsUpdate:  mu: +0.217864566  nElectrons: 394.000000  magneticMoment: [ Abs: 0.00044  Tot: -0.00011 ]
	SubspaceRotationAdjust: set factor to 0.0287
ElecMinimize: Iter:  12  F: -2157.125732271259039  |grad|_K:  2.359e-06  alpha:  4.108e-01  linmin: -2.913e-06  t[s]:   2464.84
	FillingsUpdate:  mu: +0.216860128  nElectrons: 394.000000  magneticMoment: [ Abs: 0.00043  Tot: -0.00010 ]
	SubspaceRotationAdjust: set factor to 0.0304
ElecMinimize: Iter:  13  F: -2157.126206209320117  |grad|_K:  2.017e-06  alpha:  3.444e-01  linmin:  2.101e-07  t[s]:   2526.01
	FillingsUpdate:  mu: +0.212705376  nElectrons: 394.000000  magneticMoment: [ Abs: 0.00042  Tot: -0.00008 ]
	SubspaceRotationAdjust: set factor to 0.0352
ElecMinimize: Iter:  14  F: -2157.126945642143710  |grad|_K:  2.455e-06  alpha:  7.371e-01  linmin:  9.679e-06  t[s]:   2587.24
	FillingsUpdate:  mu: +0.214555631  nElectrons: 394.000000  magneticMoment: [ Abs: 0.00040  Tot: -0.00005 ]
	SubspaceRotationAdjust: set factor to 0.0316
ElecMinimize: Iter:  15  F: -2157.127568552813045  |grad|_K:  2.846e-06  alpha:  4.215e-01  linmin:  2.962e-06  t[s]:   2648.46
	FillingsUpdate:  mu: +0.214084567  nElectrons: 394.000000  magneticMoment: [ Abs: 0.00038  Tot: -0.00003 ]
	SubspaceRotationAdjust: set factor to 0.0261
ElecMinimize: Iter:  16  F: -2157.128219568218356  |grad|_K:  2.518e-06  alpha:  3.257e-01  linmin:  7.734e-07  t[s]:   2710.50
	FillingsUpdate:  mu: +0.209517572  nElectrons: 394.000000  magneticMoment: [ Abs: 0.00035  Tot: -0.00002 ]
	SubspaceRotationAdjust: set factor to 0.0284
ElecMinimize: Iter:  17  F: -2157.129093306844879  |grad|_K:  2.361e-06  alpha:  5.597e-01  linmin:  1.003e-05  t[s]:   2771.67
	FillingsUpdate:  mu: +0.208588356  nElectrons: 394.000000  magneticMoment: [ Abs: 0.00032  Tot: -0.00002 ]
	SubspaceRotationAdjust: set factor to 0.0266
ElecMinimize: Iter:  18  F: -2157.129682517440415  |grad|_K:  2.067e-06  alpha:  4.306e-01  linmin: -8.279e-08  t[s]:   2832.90
	FillingsUpdate:  mu: +0.208825588  nElectrons: 394.000000  magneticMoment: [ Abs: 0.00029  Tot: -0.00003 ]
	SubspaceRotationAdjust: set factor to 0.0211
ElecMinimize: Iter:  19  F: -2157.130025056252180  |grad|_K:  1.698e-06  alpha:  3.245e-01  linmin: -9.111e-07  t[s]:   2894.07
	FillingsUpdate:  mu: +0.209749924  nElectrons: 394.000000  magneticMoment: [ Abs: 0.00026  Tot: -0.00004 ]
	SubspaceRotationAdjust: set factor to 0.0226
ElecMinimize: Iter:  20  F: -2157.130309022775691  |grad|_K:  1.158e-06  alpha:  3.984e-01  linmin:  3.466e-07  t[s]:   2955.29
	FillingsUpdate:  mu: +0.208511263  nElectrons: 394.000000  magneticMoment: [ Abs: 0.00024  Tot: -0.00004 ]
	SubspaceRotationAdjust: set factor to 0.023
ElecMinimize: Iter:  21  F: -2157.130449725555081  |grad|_K:  9.144e-07  alpha:  4.249e-01  linmin: -3.840e-07  t[s]:   3017.30
	FillingsUpdate:  mu: +0.207864585  nElectrons: 394.000000  magneticMoment: [ Abs: 0.00023  Tot: -0.00004 ]
	SubspaceRotationAdjust: set factor to 0.0204
ElecMinimize: Iter:  22  F: -2157.130523749771783  |grad|_K:  7.200e-07  alpha:  3.582e-01  linmin: -2.508e-07  t[s]:   3078.41
	FillingsUpdate:  mu: +0.208309166  nElectrons: 394.000000  magneticMoment: [ Abs: 0.00022  Tot: -0.00004 ]
	SubspaceRotationAdjust: set factor to 0.0233
ElecMinimize: Iter:  23  F: -2157.130576664343153  |grad|_K:  5.259e-07  alpha:  4.130e-01  linmin:  7.237e-07  t[s]:   3139.57
	FillingsUpdate:  mu: +0.208454576  nElectrons: 394.000000  magneticMoment: [ Abs: 0.00022  Tot: -0.00004 ]
	SubspaceRotationAdjust: set factor to 0.027
ElecMinimize: Iter:  24  F: -2157.130608500000108  |grad|_K:  4.686e-07  alpha:  4.658e-01  linmin:  3.748e-07  t[s]:   3200.81
	FillingsUpdate:  mu: +0.208403681  nElectrons: 394.000000  magneticMoment: [ Abs: 0.00021  Tot: -0.00004 ]
	SubspaceRotationAdjust: set factor to 0.0272
ElecMinimize: Iter:  25  F: -2157.130631616967548  |grad|_K:  4.465e-07  alpha:  4.259e-01  linmin:  4.592e-08  t[s]:   3262.77
	FillingsUpdate:  mu: +0.208593811  nElectrons: 394.000000  magneticMoment: [ Abs: 0.00021  Tot: -0.00004 ]
	SubspaceRotationAdjust: set factor to 0.0296
ElecMinimize: Iter:  26  F: -2157.130652978913531  |grad|_K:  4.199e-07  alpha:  4.336e-01  linmin:  2.970e-07  t[s]:   3324.17
	FillingsUpdate:  mu: +0.208641338  nElectrons: 394.000000  magneticMoment: [ Abs: 0.00020  Tot: -0.00004 ]
	SubspaceRotationAdjust: set factor to 0.0344
ElecMinimize: Iter:  27  F: -2157.130679954568677  |grad|_K:  4.401e-07  alpha:  6.191e-01  linmin:  3.948e-07  t[s]:   3385.53
	FillingsUpdate:  mu: +0.208654724  nElectrons: 394.000000  magneticMoment: [ Abs: 0.00019  Tot: -0.00004 ]
	SubspaceRotationAdjust: set factor to 0.0358
ElecMinimize: Iter:  28  F: -2157.130707106917725  |grad|_K:  4.905e-07  alpha:  5.674e-01  linmin:  1.903e-07  t[s]:   3446.77
	FillingsUpdate:  mu: +0.209086375  nElectrons: 394.000000  magneticMoment: [ Abs: 0.00018  Tot: -0.00004 ]
	SubspaceRotationAdjust: set factor to 0.0298
ElecMinimize: Iter:  29  F: -2157.130727769391797  |grad|_K:  5.002e-07  alpha:  3.472e-01  linmin: -1.157e-07  t[s]:   3507.99
	FillingsUpdate:  mu: +0.209365086  nElectrons: 394.000000  magneticMoment: [ Abs: 0.00016  Tot: -0.00004 ]
	SubspaceRotationAdjust: set factor to 0.0264
ElecMinimize: Iter:  30  F: -2157.130750587566581  |grad|_K:  4.174e-07  alpha:  3.689e-01  linmin: -2.778e-08  t[s]:   3569.87
	FillingsUpdate:  mu: +0.209365279  nElectrons: 394.000000  magneticMoment: [ Abs: 0.00015  Tot: -0.00004 ]
	SubspaceRotationAdjust: set factor to 0.0289
ElecMinimize: Iter:  31  F: -2157.130770778343503  |grad|_K:  3.403e-07  alpha:  4.690e-01  linmin:  2.541e-07  t[s]:   3631.07
	FillingsUpdate:  mu: +0.209480006  nElectrons: 394.000000  magneticMoment: [ Abs: 0.00014  Tot: -0.00004 ]
	SubspaceRotationAdjust: set factor to 0.0283
ElecMinimize: Iter:  32  F: -2157.130783869931747  |grad|_K:  3.033e-07  alpha:  4.575e-01  linmin:  1.163e-07  t[s]:   3692.34
	FillingsUpdate:  mu: +0.209566940  nElectrons: 394.000000  magneticMoment: [ Abs: 0.00013  Tot: -0.00004 ]
	SubspaceRotationAdjust: set factor to 0.0244
ElecMinimize: Iter:  33  F: -2157.130791556119220  |grad|_K:  2.554e-07  alpha:  3.381e-01  linmin: -1.434e-07  t[s]:   3753.59
	FillingsUpdate:  mu: +0.209695784  nElectrons: 394.000000  magneticMoment: [ Abs: 0.00012  Tot: -0.00004 ]
	SubspaceRotationAdjust: set factor to 0.026
ElecMinimize: Iter:  34  F: -2157.130797893881663  |grad|_K:  1.940e-07  alpha:  3.931e-01  linmin:  4.215e-08  t[s]:   3814.81
	FillingsUpdate:  mu: +0.209654726  nElectrons: 394.000000  magneticMoment: [ Abs: 0.00012  Tot: -0.00004 ]
	SubspaceRotationAdjust: set factor to 0.0311
ElecMinimize: Iter:  35  F: -2157.130802232216865  |grad|_K:  1.666e-07  alpha:  4.662e-01  linmin: -1.678e-07  t[s]:   3876.14
	FillingsUpdate:  mu: +0.209682078  nElectrons: 394.000000  magneticMoment: [ Abs: 0.00011  Tot: -0.00004 ]
	SubspaceRotationAdjust: set factor to 0.0331
ElecMinimize: Iter:  36  F: -2157.130805264515402  |grad|_K:  1.632e-07  alpha:  4.418e-01  linmin: -1.276e-07  t[s]:   3937.44
	FillingsUpdate:  mu: +0.209770511  nElectrons: 394.000000  magneticMoment: [ Abs: 0.00011  Tot: -0.00004 ]
	SubspaceRotationAdjust: set factor to 0.0327
ElecMinimize: Iter:  37  F: -2157.130807669065689  |grad|_K:  1.596e-07  alpha:  3.654e-01  linmin:  5.522e-08  t[s]:   3998.73
	FillingsUpdate:  mu: +0.209689001  nElectrons: 394.000000  magneticMoment: [ Abs: 0.00011  Tot: -0.00004 ]
	SubspaceRotationAdjust: set factor to 0.0363
ElecMinimize: Iter:  38  F: -2157.130810700763504  |grad|_K:  1.497e-07  alpha:  4.819e-01  linmin:  1.094e-07  t[s]:   4060.12
	FillingsUpdate:  mu: +0.209630906  nElectrons: 394.000000  magneticMoment: [ Abs: 0.00010  Tot: -0.00004 ]
	SubspaceRotationAdjust: set factor to 0.0409
ElecMinimize: Iter:  39  F: -2157.130813807540562  |grad|_K:  1.524e-07  alpha:  5.610e-01  linmin:  2.648e-07  t[s]:   4121.41
	FillingsUpdate:  mu: +0.209740581  nElectrons: 394.000000  magneticMoment: [ Abs: 0.00009  Tot: -0.00004 ]
	SubspaceRotationAdjust: set factor to 0.0437
ElecMinimize: Iter:  40  F: -2157.130816928423428  |grad|_K:  1.494e-07  alpha:  5.439e-01  linmin:  2.473e-07  t[s]:   4182.54
	FillingsUpdate:  mu: +0.209648841  nElectrons: 394.000000  magneticMoment: [ Abs: 0.00009  Tot: -0.00004 ]
	SubspaceRotationAdjust: set factor to 0.0399
ElecMinimize: Iter:  41  F: -2157.130819289314786  |grad|_K:  1.633e-07  alpha:  4.281e-01  linmin: -2.898e-08  t[s]:   4243.79
	FillingsUpdate:  mu: +0.209602565  nElectrons: 394.000000  magneticMoment: [ Abs: 0.00008  Tot: -0.00004 ]
	SubspaceRotationAdjust: set factor to 0.029
ElecMinimize: Iter:  42  F: -2157.130820817105814  |grad|_K:  1.331e-07  alpha:  2.319e-01  linmin: -1.202e-07  t[s]:   4305.11
	FillingsUpdate:  mu: +0.209546131  nElectrons: 394.000000  magneticMoment: [ Abs: 0.00007  Tot: -0.00003 ]
	SubspaceRotationAdjust: set factor to 0.0297
ElecMinimize: Iter:  43  F: -2157.130822438736686  |grad|_K:  1.002e-07  alpha:  3.701e-01  linmin: -3.828e-07  t[s]:   4366.42
	FillingsUpdate:  mu: +0.209592275  nElectrons: 394.000000  magneticMoment: [ Abs: 0.00007  Tot: -0.00003 ]
	SubspaceRotationAdjust: set factor to 0.0308
ElecMinimize: Iter:  44  F: -2157.130823510336540  |grad|_K:  8.308e-08  alpha:  4.319e-01  linmin: -1.132e-06  t[s]:   4427.67
	FillingsUpdate:  mu: +0.209595052  nElectrons: 394.000000  magneticMoment: [ Abs: 0.00007  Tot: -0.00003 ]
	SubspaceRotationAdjust: set factor to 0.0266
ElecMinimize: Iter:  45  F: -2157.130824102567203  |grad|_K:  7.291e-08  alpha:  3.467e-01  linmin: -2.198e-07  t[s]:   4488.87
	FillingsUpdate:  mu: +0.209545793  nElectrons: 394.000000  magneticMoment: [ Abs: 0.00006  Tot: -0.00003 ]
	SubspaceRotationAdjust: set factor to 0.0249
ElecMinimize: Iter:  46  F: -2157.130824506567478  |grad|_K:  5.119e-08  alpha:  3.075e-01  linmin: -3.004e-07  t[s]:   4550.19
	FillingsUpdate:  mu: +0.209548126  nElectrons: 394.000000  magneticMoment: [ Abs: 0.00006  Tot: -0.00003 ]
	SubspaceRotationAdjust: set factor to 0.0301
ElecMinimize: Iter:  47  F: -2157.130824792238855  |grad|_K:  4.116e-08  alpha:  4.407e-01  linmin: -3.909e-07  t[s]:   4611.65
	FillingsUpdate:  mu: +0.209563927  nElectrons: 394.000000  magneticMoment: [ Abs: 0.00006  Tot: -0.00003 ]
	SubspaceRotationAdjust: set factor to 0.0312
ElecMinimize: Iter:  48  F: -2157.130824954756918  |grad|_K:  3.710e-08  alpha:  3.883e-01  linmin:  8.648e-07  t[s]:   4673.00
	FillingsUpdate:  mu: +0.209544468  nElectrons: 394.000000  magneticMoment: [ Abs: 0.00006  Tot: -0.00003 ]
	SubspaceRotationAdjust: set factor to 0.0316
ElecMinimize: Iter:  49  F: -2157.130825071520121  |grad|_K:  3.241e-08  alpha:  3.434e-01  linmin: -2.386e-06  t[s]:   4734.36
	FillingsUpdate:  mu: +0.209527796  nElectrons: 394.000000  magneticMoment: [ Abs: 0.00006  Tot: -0.00003 ]
	SubspaceRotationAdjust: set factor to 0.0384
ElecMinimize: Iter:  50  F: -2157.130825187130540  |grad|_K:  2.887e-08  alpha:  4.463e-01  linmin:  9.187e-06  t[s]:   4795.52
	FillingsUpdate:  mu: +0.209543564  nElectrons: 394.000000  magneticMoment: [ Abs: 0.00006  Tot: -0.00003 ]
	SubspaceRotationAdjust: set factor to 0.0457
ElecMinimize: Iter:  51  F: -2157.130825298315813  |grad|_K:  2.981e-08  alpha:  5.439e-01  linmin:  2.773e-06  t[s]:   4856.75
	FillingsUpdate:  mu: +0.209537323  nElectrons: 394.000000  magneticMoment: [ Abs: 0.00005  Tot: -0.00003 ]
	SubspaceRotationAdjust: set factor to 0.0443
ElecMinimize: Iter:  52  F: -2157.130825386499964  |grad|_K:  3.530e-08  alpha:  4.017e-01  linmin: -1.058e-06  t[s]:   4918.09
	FillingsUpdate:  mu: +0.209532342  nElectrons: 394.000000  magneticMoment: [ Abs: 0.00005  Tot: -0.00003 ]
	SubspaceRotationAdjust: set factor to 0.0372
ElecMinimize: Iter:  53  F: -2157.130825464999361  |grad|_K:  3.141e-08  alpha:  2.542e-01  linmin: -8.329e-07  t[s]:   4979.30
ElecMinimize: Converged (|Delta F|<1.000000e-07 for 2 iters).
Setting wave functions to eigenvectors of Hamiltonian
Converging empty states (this may take a while): |deigs|: 2.142e-03
Vacuum energy after initial minimize, F = -2157.130825464999361


-------- Electronic minimization -----------
	Linear fluid (dielectric constant: 78.4, screening length: 8.12261 Bohr) occupying 0.449187 of unit cell:	Completed after 28 iterations at t[s]:   5267.96
	FillingsUpdate:  mu: -0.208419507  nElectrons: 394.000000  magneticMoment: [ Abs: 0.00003  Tot: -0.00002 ]
ElecMinimize: Iter:   0  F: -2157.134631126521072  |grad|_K:  1.378e-06  alpha:  1.000e+00
	Linear fluid (dielectric constant: 78.4, screening length: 8.12261 Bohr) occupying 0.449497 of unit cell:	Completed after 17 iterations at t[s]:   5320.67
	Linear fluid (dielectric constant: 78.4, screening length: 8.12261 Bohr) occupying 0.449250 of unit cell:	Completed after 17 iterations at t[s]:   5340.64
	FillingsUpdate:  mu: -0.209003368  nElectrons: 394.000000  magneticMoment: [ Abs: 0.00003  Tot: -0.00002 ]
	SubspaceRotationAdjust: set factor to 0.0253
ElecMinimize: Iter:   1  F: -2157.134729021191106  |grad|_K:  6.498e-07  alpha:  2.089e-01  linmin:  1.777e-06  t[s]:   5366.03
	Linear fluid (dielectric constant: 78.4, screening length: 8.12261 Bohr) occupying 0.449335 of unit cell:	Completed after 9 iterations at t[s]:   5389.07
ElecMinimize: 	Predicted alpha/alphaT>3.000000, increasing alphaT to 6.265596e-01.
	Linear fluid (dielectric constant: 78.4, screening length: 8.12261 Bohr) occupying 0.449505 of unit cell:	Completed after 11 iterations at t[s]:   5407.94
	Linear fluid (dielectric constant: 78.4, screening length: 8.12261 Bohr) occupying 0.449653 of unit cell:	Completed after 10 iterations at t[s]:   5426.61
	FillingsUpdate:  mu: -0.208967543  nElectrons: 394.000000  magneticMoment: [ Abs: 0.00003  Tot: -0.00002 ]
	SubspaceRotationAdjust: set factor to 0.0317
ElecMinimize: Iter:   2  F: -2157.134831684370511  |grad|_K:  5.301e-07  alpha:  9.842e-01  linmin: -3.784e-07  t[s]:   5451.99
	Linear fluid (dielectric constant: 78.4, screening length: 8.12261 Bohr) occupying 0.449973 of unit cell:	Completed after 14 iterations at t[s]:   5475.79
	Linear fluid (dielectric constant: 78.4, screening length: 8.12261 Bohr) occupying 0.449839 of unit cell:	Completed after 12 iterations at t[s]:   5494.82
	FillingsUpdate:  mu: -0.208880379  nElectrons: 394.000000  magneticMoment: [ Abs: 0.00003  Tot: -0.00002 ]
	SubspaceRotationAdjust: set factor to 0.0366
ElecMinimize: Iter:   3  F: -2157.134871512887003  |grad|_K:  4.397e-07  alpha:  5.730e-01  linmin:  3.861e-08  t[s]:   5520.34
	Linear fluid (dielectric constant: 78.4, screening length: 8.12261 Bohr) occupying 0.449962 of unit cell:	Completed after 11 iterations at t[s]:   5543.73
	Linear fluid (dielectric constant: 78.4, screening length: 8.12261 Bohr) occupying 0.449989 of unit cell:	Completed after 8 iterations at t[s]:   5562.16
	FillingsUpdate:  mu: -0.208266200  nElectrons: 394.000000  magneticMoment: [ Abs: 0.00003  Tot: -0.00002 ]
	SubspaceRotationAdjust: set factor to 0.0445
ElecMinimize: Iter:   4  F: -2157.134904729726259  |grad|_K:  4.106e-07  alpha:  6.951e-01  linmin: -2.525e-08  t[s]:   5587.63
	Linear fluid (dielectric constant: 78.4, screening length: 8.12261 Bohr) occupying 0.450096 of unit cell:	Completed after 11 iterations at t[s]:   5611.14
	Linear fluid (dielectric constant: 78.4, screening length: 8.12261 Bohr) occupying 0.450106 of unit cell:	Completed after 2 iterations at t[s]:   5628.52
	FillingsUpdate:  mu: -0.208251068  nElectrons: 394.000000  magneticMoment: [ Abs: 0.00003  Tot: -0.00002 ]
	SubspaceRotationAdjust: set factor to 0.0489
ElecMinimize: Iter:   5  F: -2157.134936429911704  |grad|_K:  4.345e-07  alpha:  7.607e-01  linmin: -2.321e-07  t[s]:   5654.00
	Linear fluid (dielectric constant: 78.4, screening length: 8.12261 Bohr) occupying 0.450241 of unit cell:	Completed after 12 iterations at t[s]:   5677.81
	Linear fluid (dielectric constant: 78.4, screening length: 8.12261 Bohr) occupying 0.450218 of unit cell:	Completed after 9 iterations at t[s]:   5696.37
	FillingsUpdate:  mu: -0.207956003  nElectrons: 394.000000  magneticMoment: [ Abs: 0.00003  Tot: -0.00002 ]
	SubspaceRotationAdjust: set factor to 0.0455
ElecMinimize: Iter:   6  F: -2157.134965961313810  |grad|_K:  5.140e-07  alpha:  6.317e-01  linmin:  7.669e-08  t[s]:   5721.77
	Linear fluid (dielectric constant: 78.4, screening length: 8.12261 Bohr) occupying 0.450321 of unit cell:	Completed after 13 iterations at t[s]:   5745.38
	Linear fluid (dielectric constant: 78.4, screening length: 8.12261 Bohr) occupying 0.450287 of unit cell:	Completed after 11 iterations at t[s]:   5764.36
	FillingsUpdate:  mu: -0.208178457  nElectrons: 394.000000  magneticMoment: [ Abs: 0.00003  Tot: -0.00002 ]
	SubspaceRotationAdjust: set factor to 0.0367
ElecMinimize: Iter:   7  F: -2157.134993149872116  |grad|_K:  4.463e-07  alpha:  4.169e-01  linmin:  2.124e-08  t[s]:   5789.82
	Linear fluid (dielectric constant: 78.4, screening length: 8.12261 Bohr) occupying 0.450336 of unit cell:	Completed after 10 iterations at t[s]:   5813.08
	Linear fluid (dielectric constant: 78.4, screening length: 8.12261 Bohr) occupying 0.450356 of unit cell:	Completed after 10 iterations at t[s]:   5831.81
	FillingsUpdate:  mu: -0.208252296  nElectrons: 394.000000  magneticMoment: [ Abs: 0.00002  Tot: -0.00002 ]
	SubspaceRotationAdjust: set factor to 0.0353
ElecMinimize: Iter:   8  F: -2157.135022407840552  |grad|_K:  3.720e-07  alpha:  5.944e-01  linmin: -4.808e-08  t[s]:   5857.19
	Linear fluid (dielectric constant: 78.4, screening length: 8.12261 Bohr) occupying 0.450378 of unit cell:	Completed after 11 iterations at t[s]:   5880.76
	Linear fluid (dielectric constant: 78.4, screening length: 8.12261 Bohr) occupying 0.450377 of unit cell:	Completed after 0 iterations at t[s]:   5897.83
	FillingsUpdate:  mu: -0.208547521  nElectrons: 394.000000  magneticMoment: [ Abs: 0.00002  Tot: -0.00002 ]
	SubspaceRotationAdjust: set factor to 0.0378
ElecMinimize: Iter:   9  F: -2157.135042304042599  |grad|_K:  3.079e-07  alpha:  5.814e-01  linmin:  1.031e-07  t[s]:   5923.40
	Linear fluid (dielectric constant: 78.4, screening length: 8.12261 Bohr) occupying 0.450382 of unit cell:	Completed after 8 iterations at t[s]:   5946.34
	Linear fluid (dielectric constant: 78.4, screening length: 8.12261 Bohr) occupying 0.450381 of unit cell:	Completed after 2 iterations at t[s]:   5964.79
	FillingsUpdate:  mu: -0.208540845  nElectrons: 394.000000  magneticMoment: [ Abs: 0.00002  Tot: -0.00002 ]
	SubspaceRotationAdjust: set factor to 0.0421
ElecMinimize: Iter:  10  F: -2157.135053951909413  |grad|_K:  2.410e-07  alpha:  4.978e-01  linmin:  5.532e-08  t[s]:   5990.01
	Linear fluid (dielectric constant: 78.4, screening length: 8.12261 Bohr) occupying 0.450383 of unit cell:	Completed after 4 iterations at t[s]:   6012.31
	Linear fluid (dielectric constant: 78.4, screening length: 8.12261 Bohr) occupying 0.450383 of unit cell:	Completed after 0 iterations at t[s]:   6029.48
	FillingsUpdate:  mu: -0.208537927  nElectrons: 394.000000  magneticMoment: [ Abs: 0.00002  Tot: -0.00002 ]
	SubspaceRotationAdjust: set factor to 0.0493
ElecMinimize: Iter:  11  F: -2157.135061455432606  |grad|_K:  1.867e-07  alpha:  5.232e-01  linmin: -1.217e-07  t[s]:   6054.96
	Linear fluid (dielectric constant: 78.4, screening length: 8.12261 Bohr) occupying 0.450390 of unit cell:	Completed after 6 iterations at t[s]:   6077.60
	Linear fluid (dielectric constant: 78.4, screening length: 8.12261 Bohr) occupying 0.450391 of unit cell:	Completed after 1 iterations at t[s]:   6094.96
	FillingsUpdate:  mu: -0.208519069  nElectrons: 394.000000  magneticMoment: [ Abs: 0.00002  Tot: -0.00002 ]
	SubspaceRotationAdjust: set factor to 0.0597
ElecMinimize: Iter:  12  F: -2157.135066514751088  |grad|_K:  1.543e-07  alpha:  5.865e-01  linmin: -1.525e-07  t[s]:   6120.33
	Linear fluid (dielectric constant: 78.4, screening length: 8.12261 Bohr) occupying 0.450406 of unit cell:	Completed after 9 iterations at t[s]:   6143.39
	Linear fluid (dielectric constant: 78.4, screening length: 8.12261 Bohr) occupying 0.450407 of unit cell:	Completed after 2 iterations at t[s]:   6160.90
	FillingsUpdate:  mu: -0.208360792  nElectrons: 394.000000  magneticMoment: [ Abs: 0.00002  Tot: -0.00002 ]
	SubspaceRotationAdjust: set factor to 0.0672
ElecMinimize: Iter:  13  F: -2157.135070204785734  |grad|_K:  1.507e-07  alpha:  6.261e-01  linmin: -1.124e-07  t[s]:   6186.25
	Linear fluid (dielectric constant: 78.4, screening length: 8.12261 Bohr) occupying 0.450422 of unit cell:	Completed after 10 iterations at t[s]:   6209.66
	Linear fluid (dielectric constant: 78.4, screening length: 8.12261 Bohr) occupying 0.450417 of unit cell:	Completed after 10 iterations at t[s]:   6228.33
	FillingsUpdate:  mu: -0.208302815  nElectrons: 394.000000  magneticMoment: [ Abs: 0.00002  Tot: -0.00002 ]
	SubspaceRotationAdjust: set factor to 0.0546
ElecMinimize: Iter:  14  F: -2157.135072517085973  |grad|_K:  1.676e-07  alpha:  4.113e-01  linmin:  9.831e-08  t[s]:   6253.72
	Linear fluid (dielectric constant: 78.4, screening length: 8.12261 Bohr) occupying 0.450447 of unit cell:	Completed after 10 iterations at t[s]:   6277.36
	Linear fluid (dielectric constant: 78.4, screening length: 8.12261 Bohr) occupying 0.450441 of unit cell:	Completed after 7 iterations at t[s]:   6295.72
	FillingsUpdate:  mu: -0.208135872  nElectrons: 394.000000  magneticMoment: [ Abs: 0.00002  Tot: -0.00002 ]
	SubspaceRotationAdjust: set factor to 0.0449
ElecMinimize: Iter:  15  F: -2157.135074804436044  |grad|_K:  1.320e-07  alpha:  3.299e-01  linmin:  1.115e-07  t[s]:   6321.17
	Linear fluid (dielectric constant: 78.4, screening length: 8.12261 Bohr) occupying 0.450456 of unit cell:	Completed after 7 iterations at t[s]:   6343.92
	Linear fluid (dielectric constant: 78.4, screening length: 8.12261 Bohr) occupying 0.450467 of unit cell:	Completed after 6 iterations at t[s]:   6362.13
	FillingsUpdate:  mu: -0.208018944  nElectrons: 394.000000  magneticMoment: [ Abs: 0.00002  Tot: -0.00002 ]
	SubspaceRotationAdjust: set factor to 0.0487
ElecMinimize: Iter:  16  F: -2157.135077272649596  |grad|_K:  1.093e-07  alpha:  5.732e-01  linmin: -2.137e-07  t[s]:   6387.55
	Linear fluid (dielectric constant: 78.4, screening length: 8.12261 Bohr) occupying 0.450491 of unit cell:	Completed after 9 iterations at t[s]:   6410.56
	Linear fluid (dielectric constant: 78.4, screening length: 8.12261 Bohr) occupying 0.450495 of unit cell:	Completed after 0 iterations at t[s]:   6427.62
	FillingsUpdate:  mu: -0.207891172  nElectrons: 394.000000  magneticMoment: [ Abs: 0.00002  Tot: -0.00001 ]
	SubspaceRotationAdjust: set factor to 0.0534
ElecMinimize: Iter:  17  F: -2157.135079222603053  |grad|_K:  9.587e-08  alpha:  6.569e-01  linmin: -6.756e-07  t[s]:   6453.10
	Linear fluid (dielectric constant: 78.4, screening length: 8.12261 Bohr) occupying 0.450519 of unit cell:	Completed after 9 iterations at t[s]:   6476.11
	Linear fluid (dielectric constant: 78.4, screening length: 8.12261 Bohr) occupying 0.450515 of unit cell:	Completed after 0 iterations at t[s]:   6493.22
	FillingsUpdate:  mu: -0.207773116  nElectrons: 394.000000  magneticMoment: [ Abs: 0.00002  Tot: -0.00001 ]
	SubspaceRotationAdjust: set factor to 0.0588
ElecMinimize: Iter:  18  F: -2157.135080508990541  |grad|_K:  8.310e-08  alpha:  5.595e-01  linmin:  2.639e-07  t[s]:   6518.71
	Linear fluid (dielectric constant: 78.4, screening length: 8.12261 Bohr) occupying 0.450534 of unit cell:	Completed after 8 iterations at t[s]:   6541.72
	Linear fluid (dielectric constant: 78.4, screening length: 8.12261 Bohr) occupying 0.450532 of unit cell:	Completed after 0 iterations at t[s]:   6559.86
	FillingsUpdate:  mu: -0.207665202  nElectrons: 394.000000  magneticMoment: [ Abs: 0.00002  Tot: -0.00001 ]
	SubspaceRotationAdjust: set factor to 0.0591
ElecMinimize: Iter:  19  F: -2157.135081374391120  |grad|_K:  7.637e-08  alpha:  5.098e-01  linmin:  2.649e-07  t[s]:   6585.80
	Linear fluid (dielectric constant: 78.4, screening length: 8.12261 Bohr) occupying 0.450543 of unit cell:	Completed after 9 iterations at t[s]:   6608.87
	Linear fluid (dielectric constant: 78.4, screening length: 8.12261 Bohr) occupying 0.450538 of unit cell:	Completed after 7 iterations at t[s]:   6627.19
	FillingsUpdate:  mu: -0.207683134  nElectrons: 394.000000  magneticMoment: [ Abs: 0.00002  Tot: -0.00001 ]
	SubspaceRotationAdjust: set factor to 0.0454
ElecMinimize: Iter:  20  F: -2157.135081779239499  |grad|_K:  6.771e-08  alpha:  2.884e-01  linmin: -3.598e-09  t[s]:   6652.76
	Linear fluid (dielectric constant: 78.4, screening length: 8.12261 Bohr) occupying 0.450545 of unit cell:	Completed after 7 iterations at t[s]:   6675.51
	Linear fluid (dielectric constant: 78.4, screening length: 8.12261 Bohr) occupying 0.450547 of unit cell:	Completed after 2 iterations at t[s]:   6693.05
	FillingsUpdate:  mu: -0.207659128  nElectrons: 394.000000  magneticMoment: [ Abs: 0.00002  Tot: -0.00001 ]
	SubspaceRotationAdjust: set factor to 0.0463
ElecMinimize: Iter:  21  F: -2157.135082170099849  |grad|_K:  4.579e-08  alpha:  3.438e-01  linmin: -1.619e-06  t[s]:   6718.53
	Linear fluid (dielectric constant: 78.4, screening length: 8.12261 Bohr) occupying 0.450550 of unit cell:	Completed after 2 iterations at t[s]:   6740.51
	Linear fluid (dielectric constant: 78.4, screening length: 8.12261 Bohr) occupying 0.450552 of unit cell:	Completed after 3 iterations at t[s]:   6758.19
	FillingsUpdate:  mu: -0.207581214  nElectrons: 394.000000  magneticMoment: [ Abs: 0.00001  Tot: -0.00001 ]
	SubspaceRotationAdjust: set factor to 0.054
ElecMinimize: Iter:  22  F: -2157.135082415015404  |grad|_K:  4.044e-08  alpha:  4.674e-01  linmin: -1.657e-08  t[s]:   6783.69
	Linear fluid (dielectric constant: 78.4, screening length: 8.12261 Bohr) occupying 0.450553 of unit cell:	Completed after 7 iterations at t[s]:   6806.44
	Linear fluid (dielectric constant: 78.4, screening length: 8.12261 Bohr) occupying 0.450553 of unit cell:	Completed after 2 iterations at t[s]:   6824.01
	FillingsUpdate:  mu: -0.207609579  nElectrons: 394.000000  magneticMoment: [ Abs: 0.00001  Tot: -0.00001 ]
	SubspaceRotationAdjust: set factor to 0.0449
ElecMinimize: Iter:  23  F: -2157.135082546059039  |grad|_K:  3.678e-08  alpha:  3.238e-01  linmin:  3.271e-06  t[s]:   6849.44
	Linear fluid (dielectric constant: 78.4, screening length: 8.12261 Bohr) occupying 0.450554 of unit cell:	Completed after 2 iterations at t[s]:   6871.57
	Linear fluid (dielectric constant: 78.4, screening length: 8.12261 Bohr) occupying 0.450554 of unit cell:	Completed after 0 iterations at t[s]:   6888.64
	FillingsUpdate:  mu: -0.207609409  nElectrons: 394.000000  magneticMoment: [ Abs: 0.00001  Tot: -0.00001 ]
	SubspaceRotationAdjust: set factor to 0.0586
ElecMinimize: Iter:  24  F: -2157.135082664668516  |grad|_K:  2.720e-08  alpha:  3.635e-01  linmin: -4.111e-06  t[s]:   6914.14
	Linear fluid (dielectric constant: 78.4, screening length: 8.12261 Bohr) occupying 0.450555 of unit cell:	Completed after 6 iterations at t[s]:   6936.73
	Linear fluid (dielectric constant: 78.4, screening length: 8.12261 Bohr) occupying 0.450555 of unit cell:	Completed after 0 iterations at t[s]:   6953.79
	FillingsUpdate:  mu: -0.207584983  nElectrons: 394.000000  magneticMoment: [ Abs: 0.00001  Tot: -0.00001 ]
	SubspaceRotationAdjust: set factor to 0.0457
ElecMinimize: Iter:  25  F: -2157.135082729937949  |grad|_K:  3.175e-08  alpha:  3.480e-01  linmin: -1.519e-05  t[s]:   6979.21
	Linear fluid (dielectric constant: 78.4, screening length: 8.12261 Bohr) occupying 0.450554 of unit cell:	Completed after 6 iterations at t[s]:   7001.90
	Linear fluid (dielectric constant: 78.4, screening length: 8.12261 Bohr) occupying 0.450554 of unit cell:	Completed after 2 iterations at t[s]:   7019.57
	FillingsUpdate:  mu: -0.207612150  nElectrons: 394.000000  magneticMoment: [ Abs: 0.00001  Tot: -0.00001 ]
	SubspaceRotationAdjust: set factor to 0.0417
ElecMinimize: Iter:  26  F: -2157.135082793540278  |grad|_K:  2.604e-08  alpha:  2.320e-01  linmin:  3.685e-06  t[s]:   7044.91
ElecMinimize: Converged (|Delta F|<1.000000e-07 for 2 iters).
Setting wave functions to eigenvectors of Hamiltonian
Converging empty states (this may take a while): |deigs|: 7.306e-05
Single-point solvation energy estimate, DeltaF = -0.004257328540916

Computing DFT-D3 correction:
# coordination-number Pt 6.988 6.988 6.988 6.988 9.586 9.586 9.586 9.586 9.420 9.420 9.420 9.420 9.582 9.582 9.582 9.582 8.038 7.193 7.194 8.042 9.420 9.416 9.416 9.416
# coordination-number C 3.402
# coordination-number O 1.135
# diagonal-C6 Pt 336.87 336.87 336.87 336.87 336.87 336.87 336.87 336.87 336.87 336.87 336.87 336.87 336.87 336.87 336.87 336.87 336.87 336.87 336.87 336.87 336.87 336.87 336.87 336.87
# diagonal-C6 C 23.08
# diagonal-C6 O 12.69
EvdW_6 =   -0.220479
EvdW_8 =   -0.347957

# Ionic positions in cartesian coordinates:
ion Pt  -0.000046000000000   3.020563000000000   2.055063999999999 0
ion Pt  -2.616042999999999   7.551602999999998   2.055063999999999 0
ion Pt   5.231948999999999   3.020563000000000   2.055063999999999 0
ion Pt   2.615952000000000   7.551602999999998   2.055063999999999 0
ion Pt   0.000042000000000   0.000091000000000  10.683439000000000 0
ion Pt  -2.615955000000000   4.531130000000000  10.683439000000000 0
ion Pt   5.232038000000000   0.000091000000000  10.683439000000000 0
ion Pt   2.616040999999999   4.531130000000000  10.683439000000000 0
ion Pt   2.616092000000000   1.510449000000000   6.419136999999999 0
ion Pt   0.000095000000000   6.041488999999999   6.419136999999999 0
ion Pt   7.848087999999998   1.510449000000000   6.419136999999999 0
ion Pt   5.232081000000001   6.041488999999999   6.419136999999999 0
ion Pt  -0.000057000000000   3.020600000000000  14.945561999999999 0
ion Pt  -2.616048999999999   7.551629999999999  14.945561999999999 0
ion Pt   5.231938999999999   3.020600000000000  14.945561999999999 0
ion Pt   2.615947000000000   7.551629999999999  14.945561999999999 0
ion Pt   0.000052000000000   0.000127000000000  23.577845999999997 0
ion Pt  -2.615945000000000   4.531166999999999  23.577845999999997 0
ion Pt   5.232048000000000   0.000127000000000  23.577845999999997 0
ion Pt   2.616051000000000   4.531166999999999  23.577845999999997 0
ion Pt   2.615915000000000   1.510250000000000  19.213260999999996 0
ion Pt  -0.000082000000000   6.041289999999999  19.213260999999996 0
ion Pt   7.847910000000000   1.510250000000000  19.213260999999996 0
ion Pt   5.231912999999999   6.041289999999999  19.213260999999996 0
ion C   1.308052000000000   2.265647000000000  26.075756999999996 1  Linear 0 0 1
ion O   1.368146000000000   2.265647000000000  28.231040999999998 1  Linear 0 0 1

# Forces in Cartesian coordinates:
force Pt  -0.000356385300469   0.000210857147526   0.000806945760439 0
force Pt   0.000208138037302  -0.000152519653653   0.000873314476760 0
force Pt   0.000233212956244  -0.000098247164060   0.000877509238735 0
force Pt  -0.000057100930577   0.000032331996278   0.000702891092139 0
force Pt  -0.000550466430330  -0.000127333410953  -0.000233183809990 0
force Pt  -0.000085275660992   0.000050060388304   0.000986249770412 0
force Pt   0.001232586885244  -0.000734227692278  -0.001241000403872 0
force Pt  -0.000173623172218   0.000551626771940  -0.000229188931383 0
force Pt  -0.000014342507696  -0.000000246054051  -0.000772837405259 0
force Pt  -0.000067008661632   0.000289013806073  -0.000061561299896 0
force Pt  -0.000291384896995  -0.000087270979113  -0.000073690316609 0
force Pt   0.000228344394139  -0.000136926732606  -0.000276335723584 0
force Pt  -0.000001015557015   0.000000072987247  -0.000600725080388 0
force Pt   0.000379129729361   0.001028135525818  -0.004917669433008 0
force Pt  -0.000700991370360  -0.000849690661862  -0.005008973359829 0
force Pt   0.000588910857779  -0.000328489189862   0.000744059302674 0
force Pt  -0.014310201137583  -0.026478497880064  -0.015314097248024 0
force Pt  -0.010937329270781   0.006293782896603  -0.006139831574715 0
force Pt   0.009231216589307  -0.005316371957728  -0.005100035614793 0
force Pt   0.015959376574772   0.026134162415149  -0.016643335003866 0
force Pt   0.002030722427803  -0.001143766424571  -0.008938174412139 0
force Pt  -0.000622120258426   0.001148985722808  -0.003021877672551 0
force Pt  -0.001322307598506  -0.000047717867202  -0.002998686566151 0
force Pt   0.000030279176633   0.000068408845314   0.003024686221697 0
force C  -0.002257837714917   0.000241244270777  -0.040133815102792 1  Linear 0 0 1
force O   0.001703814294860  -0.000567376682664   0.103442130853444 1  Linear 0 0 1

# Energy components:
   A_diel =       -0.0057429707889969
   Eewald =    17206.5809405049221823
       EH =    19187.6124932953207463
     Eloc =   -38930.1310471571268863
      Enl =      -22.2515597013458191
     EvdW =       -0.5684361638163201
      Exc =     -688.3405421148213463
 Exc_core =      393.4918539381592950
       KE =      696.4802459933811178
-------------------------------------
     Etot =    -2157.1317943761191600
       TS =        0.0032884174211184
-------------------------------------
        F =    -2157.1350827935402776


Dumping 'jdft.fillings' ... done
Dumping 'jdft.wfns' ... done
Dumping 'jdft.fluidState' ... done
Dumping 'jdft.ionpos' ... done
Dumping 'jdft.lattice' ... done
Dumping 'jdft.eigenvals' ... done
Dumping 'jdft.eigStats' ... 
	eMin: -2.168171 at state 0 ( [ +0.000000 +0.000000 +0.000000 ] spin 1 )
	HOMO: -0.207632 at state 1 ( [ +0.000000 +0.166667 +0.000000 ] spin 1 )
	mu  : -0.207612
	LUMO: -0.206746 at state 29 ( [ +0.166667 -0.166667 +0.000000 ] spin -1 )
	eMax: +0.091426 at state 17 ( [ +0.500000 +0.166667 +0.000000 ] spin 1 )
	HOMO-LUMO gap: +0.000885
	Optical gap  : +0.000891 at state 1 ( [ +0.000000 +0.166667 +0.000000 ] spin 1 )
Dumping 'jdft.Ecomponents' ... done
IonicMinimize: Iter:   0  F: -2157.135082793540278  |grad|_K:  7.846e-02  t[s]:   7280.07

#--- Lowdin population analysis ---
# oxidation-state Pt +0.014 +0.014 +0.014 +0.012 +0.016 +0.016 +0.016 +0.016 +0.014 +0.017 +0.017 +0.016 +0.012 +0.007 +0.007 +0.013 -0.045 -0.010 -0.016 -0.045 +0.005 -0.002 -0.002 -0.033
# magnetic-moments Pt -0.000 -0.000 -0.000 -0.000 -0.000 -0.000 -0.000 -0.000 -0.000 -0.000 -0.000 -0.000 -0.000 -0.000 -0.000 -0.000 -0.000 -0.000 -0.000 -0.000 -0.000 -0.000 -0.000 -0.000
# oxidation-state C +0.409
# magnetic-moments C -0.000
# oxidation-state O -0.136
# magnetic-moments O +0.000


Computing DFT-D3 correction:
# coordination-number Pt 6.988 6.988 6.988 6.988 9.586 9.586 9.586 9.586 9.420 9.420 9.420 9.420 9.582 9.582 9.582 9.582 8.028 7.201 7.202 8.032 9.420 9.417 9.417 9.416
# coordination-number C 3.421
# coordination-number O 1.112
# diagonal-C6 Pt 336.87 336.87 336.87 336.87 336.87 336.87 336.87 336.87 336.87 336.87 336.87 336.87 336.87 336.87 336.87 336.87 336.87 336.87 336.87 336.87 336.87 336.87 336.87 336.87
# diagonal-C6 C 22.81
# diagonal-C6 O 12.71
EvdW_6 =   -0.220423
EvdW_8 =   -0.347964

-------- Electronic minimization -----------
	Linear fluid (dielectric constant: 78.4, screening length: 8.12261 Bohr) occupying 0.450332 of unit cell:	Completed after 21 iterations at t[s]:   7305.97
	FillingsUpdate:  mu: -0.196937195  nElectrons: 394.000000  magneticMoment: [ Abs: 0.00001  Tot: -0.00001 ]
ElecMinimize: Iter:   0  F: -2157.040327061120479  |grad|_K:  3.078e-05  alpha:  1.000e+00
	Linear fluid (dielectric constant: 78.4, screening length: 8.12261 Bohr) occupying 0.450197 of unit cell:	Completed after 24 iterations at t[s]:   7359.78
	Linear fluid (dielectric constant: 78.4, screening length: 8.12261 Bohr) occupying 0.450182 of unit cell:	Completed after 23 iterations at t[s]:   7380.79
	FillingsUpdate:  mu: -0.202494457  nElectrons: 394.000000  magneticMoment: [ Abs: 0.00001  Tot: -0.00001 ]
	SubspaceRotationAdjust: set factor to 0.0386
ElecMinimize: Iter:   1  F: -2157.126538245533993  |grad|_K:  9.436e-06  alpha:  3.760e-01  linmin:  1.667e-02  t[s]:   7406.02
	Linear fluid (dielectric constant: 78.4, screening length: 8.12261 Bohr) occupying 0.450142 of unit cell:	Completed after 23 iterations at t[s]:   7431.28
	Linear fluid (dielectric constant: 78.4, screening length: 8.12261 Bohr) occupying 0.450130 of unit cell:	Completed after 19 iterations at t[s]:   7451.40
	FillingsUpdate:  mu: -0.204590079  nElectrons: 394.000000  magneticMoment: [ Abs: 0.00001  Tot: -0.00001 ]
	SubspaceRotationAdjust: set factor to 0.028
ElecMinimize: Iter:   2  F: -2157.132569177280402  |grad|_K:  4.294e-06  alpha:  2.795e-01  linmin: -3.216e-04  t[s]:   7476.81
	Linear fluid (dielectric constant: 78.4, screening length: 8.12261 Bohr) occupying 0.449996 of unit cell:	Completed after 20 iterations at t[s]:   7501.78
	Linear fluid (dielectric constant: 78.4, screening length: 8.12261 Bohr) occupying 0.449966 of unit cell:	Completed after 14 iterations at t[s]:   7521.09
	FillingsUpdate:  mu: -0.208239713  nElectrons: 394.000000  magneticMoment: [ Abs: 0.00001  Tot: -0.00001 ]
	SubspaceRotationAdjust: set factor to 0.0213
ElecMinimize: Iter:   3  F: -2157.134131451933172  |grad|_K:  2.517e-06  alpha:  3.426e-01  linmin: -1.704e-05  t[s]:   7546.51
	Linear fluid (dielectric constant: 78.4, screening length: 8.12261 Bohr) occupying 0.449862 of unit cell:	Completed after 18 iterations at t[s]:   7571.06
	Linear fluid (dielectric constant: 78.4, screening length: 8.12261 Bohr) occupying 0.449843 of unit cell:	Completed after 12 iterations at t[s]:   7590.31
	FillingsUpdate:  mu: -0.208875557  nElectrons: 394.000000  magneticMoment: [ Abs: 0.00001  Tot: -0.00001 ]
	SubspaceRotationAdjust: set factor to 0.0262
ElecMinimize: Iter:   4  F: -2157.134772066383903  |grad|_K:  1.499e-06  alpha:  4.090e-01  linmin: -5.045e-05  t[s]:   7615.52
	Linear fluid (dielectric constant: 78.4, screening length: 8.12261 Bohr) occupying 0.449723 of unit cell:	Completed after 17 iterations at t[s]:   7639.84
	Linear fluid (dielectric constant: 78.4, screening length: 8.12261 Bohr) occupying 0.449703 of unit cell:	Completed after 9 iterations at t[s]:   7658.44
	FillingsUpdate:  mu: -0.209617041  nElectrons: 394.000000  magneticMoment: [ Abs: 0.00001  Tot: -0.00001 ]
	SubspaceRotationAdjust: set factor to 0.0301
ElecMinimize: Iter:   5  F: -2157.135037663093499  |grad|_K:  1.121e-06  alpha:  4.778e-01  linmin:  3.622e-05  t[s]:   7683.84
	Linear fluid (dielectric constant: 78.4, screening length: 8.12261 Bohr) occupying 0.449581 of unit cell:	Completed after 15 iterations at t[s]:   7707.73
	Linear fluid (dielectric constant: 78.4, screening length: 8.12261 Bohr) occupying 0.449556 of unit cell:	Completed after 11 iterations at t[s]:   7726.78
	FillingsUpdate:  mu: -0.210777217  nElectrons: 394.000000  magneticMoment: [ Abs: 0.00001  Tot: -0.00001 ]
	SubspaceRotationAdjust: set factor to 0.0346
ElecMinimize: Iter:   6  F: -2157.135215798668469  |grad|_K:  1.032e-06  alpha:  5.733e-01  linmin: -3.930e-05  t[s]:   7752.18
	Linear fluid (dielectric constant: 78.4, screening length: 8.12261 Bohr) occupying 0.449498 of unit cell:	Completed after 14 iterations at t[s]:   7776.28
	Linear fluid (dielectric constant: 78.4, screening length: 8.12261 Bohr) occupying 0.449496 of unit cell:	Completed after 2 iterations at t[s]:   7793.74
	FillingsUpdate:  mu: -0.210630375  nElectrons: 394.000000  magneticMoment: [ Abs: 0.00001  Tot: -0.00001 ]
	SubspaceRotationAdjust: set factor to 0.0387
ElecMinimize: Iter:   7  F: -2157.135370286435318  |grad|_K:  1.110e-06  alpha:  5.866e-01  linmin: -1.721e-05  t[s]:   7819.18
	Linear fluid (dielectric constant: 78.4, screening length: 8.12261 Bohr) occupying 0.449460 of unit cell:	Completed after 14 iterations at t[s]:   7843.08
	Linear fluid (dielectric constant: 78.4, screening length: 8.12261 Bohr) occupying 0.449441 of unit cell:	Completed after 12 iterations at t[s]:   7862.29
	FillingsUpdate:  mu: -0.211763412  nElectrons: 394.000000  magneticMoment: [ Abs: 0.00001  Tot: -0.00001 ]
	SubspaceRotationAdjust: set factor to 0.0456
ElecMinimize: Iter:   8  F: -2157.135631570362875  |grad|_K:  1.240e-06  alpha:  8.579e-01  linmin:  2.681e-05  t[s]:   7887.69
	Linear fluid (dielectric constant: 78.4, screening length: 8.12261 Bohr) occupying 0.449490 of unit cell:	Completed after 17 iterations at t[s]:   7912.02
	Linear fluid (dielectric constant: 78.4, screening length: 8.12261 Bohr) occupying 0.449488 of unit cell:	Completed after 4 iterations at t[s]:   7929.82
	FillingsUpdate:  mu: -0.213539411  nElectrons: 394.000000  magneticMoment: [ Abs: 0.00001  Tot: -0.00001 ]
	SubspaceRotationAdjust: set factor to 0.0469
ElecMinimize: Iter:   9  F: -2157.135945756691854  |grad|_K:  1.581e-06  alpha:  8.287e-01  linmin:  3.420e-05  t[s]:   7955.30
	Linear fluid (dielectric constant: 78.4, screening length: 8.12261 Bohr) occupying 0.449824 of unit cell:	Completed after 20 iterations at t[s]:   7980.31
	Linear fluid (dielectric constant: 78.4, screening length: 8.12261 Bohr) occupying 0.449648 of unit cell:	Completed after 17 iterations at t[s]:   8000.02
	FillingsUpdate:  mu: -0.213452343  nElectrons: 394.000000  magneticMoment: [ Abs: 0.00001  Tot: -0.00001 ]
	SubspaceRotationAdjust: set factor to 0.0383
ElecMinimize: Iter:  10  F: -2157.136203237781046  |grad|_K:  1.496e-06  alpha:  4.180e-01  linmin: -1.100e-05  t[s]:   8025.41
	Linear fluid (dielectric constant: 78.4, screening length: 8.12261 Bohr) occupying 0.449675 of unit cell:	Completed after 14 iterations at t[s]:   8049.27
[...]
	FillingsUpdate:  mu: -0.208174905  nElectrons: 394.000000  magneticMoment: [ Abs: 0.00000  Tot: -0.00000 ]
	SubspaceRotationAdjust: set factor to 0.0554
ElecMinimize: Iter:   2  F: -2157.147441452667408  |grad|_K:  7.641e-08  alpha:  2.772e-01  linmin:  3.295e-03  t[s]:  27401.41
	Linear fluid (dielectric constant: 78.4, screening length: 8.12261 Bohr) occupying 0.446039 of unit cell:	Completed after 9 iterations at t[s]:  27424.59
	Linear fluid (dielectric constant: 78.4, screening length: 8.12261 Bohr) occupying 0.446040 of unit cell:	Completed after 4 iterations at t[s]:  27442.40
	FillingsUpdate:  mu: -0.208275162  nElectrons: 394.000000  magneticMoment: [ Abs: 0.00000  Tot: -0.00000 ]
	SubspaceRotationAdjust: set factor to 0.0365
ElecMinimize: Iter:   3  F: -2157.147441733220603  |grad|_K:  3.563e-08  alpha:  1.971e-01  linmin:  3.478e-03  t[s]:  27467.76
	Linear fluid (dielectric constant: 78.4, screening length: 8.12261 Bohr) occupying 0.446040 of unit cell:	Completed after 3 iterations at t[s]:  27489.95
	Linear fluid (dielectric constant: 78.4, screening length: 8.12261 Bohr) occupying 0.446040 of unit cell:	Completed after 2 iterations at t[s]:  27507.48
	FillingsUpdate:  mu: -0.208248927  nElectrons: 394.000000  magneticMoment: [ Abs: 0.00000  Tot: -0.00000 ]
	SubspaceRotationAdjust: set factor to 0.0513
ElecMinimize: Iter:   4  F: -2157.147441887679634  |grad|_K:  2.380e-08  alpha:  4.745e-01  linmin: -5.222e-03  t[s]:  27532.89
	Linear fluid (dielectric constant: 78.4, screening length: 8.12261 Bohr) occupying 0.446041 of unit cell:	Completed after 2 iterations at t[s]:  27554.88
	Linear fluid (dielectric constant: 78.4, screening length: 8.12261 Bohr) occupying 0.446041 of unit cell:	Completed after 0 iterations at t[s]:  27572.08
	FillingsUpdate:  mu: -0.208220971  nElectrons: 394.000000  magneticMoment: [ Abs: 0.00000  Tot: -0.00000 ]
	SubspaceRotationAdjust: set factor to 0.0634
ElecMinimize: Iter:   5  F: -2157.147441978931056  |grad|_K:  2.156e-08  alpha:  5.962e-01  linmin: -2.063e-03  t[s]:  27597.48
	Linear fluid (dielectric constant: 78.4, screening length: 8.12261 Bohr) occupying 0.446041 of unit cell:	Completed after 2 iterations at t[s]:  27619.53
	Linear fluid (dielectric constant: 78.4, screening length: 8.12261 Bohr) occupying 0.446041 of unit cell:	Completed after 3 iterations at t[s]:  27637.21
	FillingsUpdate:  mu: -0.208178106  nElectrons: 394.000000  magneticMoment: [ Abs: 0.00000  Tot: -0.00000 ]
	SubspaceRotationAdjust: set factor to 0.0669
ElecMinimize: Iter:   6  F: -2157.147442077636697  |grad|_K:  2.991e-08  alpha:  8.439e-01  linmin:  9.564e-04  t[s]:  27662.65
ElecMinimize: Converged (|Delta F|<1.000000e-07 for 2 iters).
Setting wave functions to eigenvectors of Hamiltonian
Converging empty states (this may take a while): |deigs|: 3.690e-09

Computing DFT-D3 correction:
# coordination-number Pt 6.988 6.988 6.988 6.988 9.586 9.586 9.586 9.586 9.420 9.420 9.420 9.420 9.582 9.582 9.582 9.582 7.992 7.134 7.135 7.994 9.418 9.416 9.416 9.416
# coordination-number C 3.252
# coordination-number O 1.070
# diagonal-C6 Pt 336.87 336.87 336.87 336.87 336.87 336.87 336.87 336.87 336.87 336.87 336.87 336.87 336.87 336.87 336.87 336.87 336.87 336.87 336.87 336.87 336.87 336.87 336.87 336.87
# diagonal-C6 C 24.69
# diagonal-C6 O 12.75
EvdW_6 =   -0.220444
EvdW_8 =   -0.347749
IonicMinimize: 	Wolfe criterion not satisfied: alpha: 1  (E-E0)/|gdotd0|: 2.47555  gdotd/gdotd0: -2.80596 (taking cubic step)

Computing DFT-D3 correction:
# coordination-number Pt 6.988 6.988 6.988 6.988 9.586 9.586 9.586 9.586 9.420 9.420 9.420 9.420 9.582 9.582 9.582 9.582 7.992 7.135 7.135 7.994 9.418 9.416 9.416 9.416
# coordination-number C 3.253
# coordination-number O 1.070
# diagonal-C6 Pt 336.87 336.87 336.87 336.87 336.87 336.87 336.87 336.87 336.87 336.87 336.87 336.87 336.87 336.87 336.87 336.87 336.87 336.87 336.87 336.87 336.87 336.87 336.87 336.87
# diagonal-C6 C 24.68
# diagonal-C6 O 12.75
EvdW_6 =   -0.220444
EvdW_8 =   -0.347751

-------- Electronic minimization -----------
	Linear fluid (dielectric constant: 78.4, screening length: 8.12261 Bohr) occupying 0.446127 of unit cell:	Completed after 18 iterations at t[s]:  27755.01
	FillingsUpdate:  mu: -0.208723325  nElectrons: 394.000000  magneticMoment: [ Abs: 0.00000  Tot: -0.00000 ]
ElecMinimize: Iter:   0  F: -2157.147309257501547  |grad|_K:  2.202e-06  alpha:  1.000e+00
	Linear fluid (dielectric constant: 78.4, screening length: 8.12261 Bohr) occupying 0.445895 of unit cell:	Completed after 23 iterations at t[s]:  27808.86
	Linear fluid (dielectric constant: 78.4, screening length: 8.12261 Bohr) occupying 0.446070 of unit cell:	Completed after 23 iterations at t[s]:  27829.60
	FillingsUpdate:  mu: -0.208804633  nElectrons: 394.000000  magneticMoment: [ Abs: 0.00000  Tot: -0.00000 ]
	SubspaceRotationAdjust: set factor to 0.0855
ElecMinimize: Iter:   1  F: -2157.147438570206759  |grad|_K:  2.085e-07  alpha:  1.078e-01  linmin: -9.515e-04  t[s]:  27854.97
	Linear fluid (dielectric constant: 78.4, screening length: 8.12261 Bohr) occupying 0.446069 of unit cell:	Completed after 11 iterations at t[s]:  27878.65
	Linear fluid (dielectric constant: 78.4, screening length: 8.12261 Bohr) occupying 0.446067 of unit cell:	Completed after 11 iterations at t[s]:  27897.57
	FillingsUpdate:  mu: -0.207998061  nElectrons: 394.000000  magneticMoment: [ Abs: 0.00000  Tot: -0.00000 ]
	SubspaceRotationAdjust: set factor to 0.0588
ElecMinimize: Iter:   2  F: -2157.147441093280122  |grad|_K:  1.035e-07  alpha:  2.323e-01  linmin: -1.912e-03  t[s]:  27923.04
	Linear fluid (dielectric constant: 78.4, screening length: 8.12261 Bohr) occupying 0.446065 of unit cell:	Completed after 7 iterations at t[s]:  27945.83
	Linear fluid (dielectric constant: 78.4, screening length: 8.12261 Bohr) occupying 0.446065 of unit cell:	Completed after 2 iterations at t[s]:  27963.41
	FillingsUpdate:  mu: -0.208257991  nElectrons: 394.000000  magneticMoment: [ Abs: 0.00000  Tot: -0.00000 ]
	SubspaceRotationAdjust: set factor to 0.0447
ElecMinimize: Iter:   3  F: -2157.147441909571626  |grad|_K:  5.065e-08  alpha:  3.033e-01  linmin: -2.083e-03  t[s]:  27988.89
	Linear fluid (dielectric constant: 78.4, screening length: 8.12261 Bohr) occupying 0.446064 of unit cell:	Completed after 2 iterations at t[s]:  28011.03
	Linear fluid (dielectric constant: 78.4, screening length: 8.12261 Bohr) occupying 0.446064 of unit cell:	Completed after 2 iterations at t[s]:  28028.59
	FillingsUpdate:  mu: -0.208253198  nElectrons: 394.000000  magneticMoment: [ Abs: 0.00000  Tot: -0.00000 ]
	SubspaceRotationAdjust: set factor to 0.052
ElecMinimize: Iter:   4  F: -2157.147442223905273  |grad|_K:  3.823e-08  alpha:  4.937e-01  linmin:  1.174e-03  t[s]:  28053.94
	Linear fluid (dielectric constant: 78.4, screening length: 8.12261 Bohr) occupying 0.446062 of unit cell:	Completed after 4 iterations at t[s]:  28076.20
	Linear fluid (dielectric constant: 78.4, screening length: 8.12261 Bohr) occupying 0.446063 of unit cell:	Completed after 1 iterations at t[s]:  28093.60
	FillingsUpdate:  mu: -0.208199280  nElectrons: 394.000000  magneticMoment: [ Abs: 0.00000  Tot: -0.00000 ]
	SubspaceRotationAdjust: set factor to 0.0465
ElecMinimize: Iter:   5  F: -2157.147442379569839  |grad|_K:  2.969e-08  alpha:  4.365e-01  linmin:  2.083e-03  t[s]:  28119.02
	Linear fluid (dielectric constant: 78.4, screening length: 8.12261 Bohr) occupying 0.446063 of unit cell:	Completed after 4 iterations at t[s]:  28141.43
	Linear fluid (dielectric constant: 78.4, screening length: 8.12261 Bohr) occupying 0.446063 of unit cell:	Completed after 0 iterations at t[s]:  28158.44
	FillingsUpdate:  mu: -0.208215178  nElectrons: 394.000000  magneticMoment: [ Abs: 0.00000  Tot: -0.00000 ]
	SubspaceRotationAdjust: set factor to 0.0443
ElecMinimize: Iter:   6  F: -2157.147442464781307  |grad|_K:  2.503e-08  alpha:  4.008e-01  linmin:  8.315e-04  t[s]:  28185.22
	Linear fluid (dielectric constant: 78.4, screening length: 8.12261 Bohr) occupying 0.446062 of unit cell:	Completed after 2 iterations at t[s]:  28207.19
	Linear fluid (dielectric constant: 78.4, screening length: 8.12261 Bohr) occupying 0.446062 of unit cell:	Completed after 0 iterations at t[s]:  28224.29
	FillingsUpdate:  mu: -0.208222742  nElectrons: 394.000000  magneticMoment: [ Abs: 0.00000  Tot: -0.00000 ]
	SubspaceRotationAdjust: set factor to 0.0529
ElecMinimize: Iter:   7  F: -2157.147442537959250  |grad|_K:  1.788e-08  alpha:  4.707e-01  linmin: -4.715e-03  t[s]:  28249.69
ElecMinimize: Converged (|Delta F|<1.000000e-07 for 2 iters).
Setting wave functions to eigenvectors of Hamiltonian
Converging empty states (this may take a while): |deigs|: 1.266e-09

Computing DFT-D3 correction:
# coordination-number Pt 6.988 6.988 6.988 6.988 9.586 9.586 9.586 9.586 9.420 9.420 9.420 9.420 9.582 9.582 9.582 9.582 7.992 7.135 7.135 7.994 9.418 9.416 9.416 9.416
# coordination-number C 3.253
# coordination-number O 1.070
# diagonal-C6 Pt 336.87 336.87 336.87 336.87 336.87 336.87 336.87 336.87 336.87 336.87 336.87 336.87 336.87 336.87 336.87 336.87 336.87 336.87 336.87 336.87 336.87 336.87 336.87 336.87
# diagonal-C6 C 24.68
# diagonal-C6 O 12.75
EvdW_6 =   -0.220444
EvdW_8 =   -0.347751
IonicMinimize: 	Wolfe criterion not satisfied: alpha: 0.0800916  (E-E0)/|gdotd0|: 0.759683  gdotd/gdotd0: 0.69422 (taking cubic step)

Computing DFT-D3 correction:
# coordination-number Pt 6.988 6.988 6.988 6.988 9.586 9.586 9.586 9.586 9.420 9.420 9.420 9.420 9.582 9.582 9.582 9.582 7.992 7.135 7.135 7.994 9.418 9.416 9.416 9.416
# coordination-number C 3.253
# coordination-number O 1.070
# diagonal-C6 Pt 336.87 336.87 336.87 336.87 336.87 336.87 336.87 336.87 336.87 336.87 336.87 336.87 336.87 336.87 336.87 336.87 336.87 336.87 336.87 336.87 336.87 336.87 336.87 336.87
# diagonal-C6 C 24.68
# diagonal-C6 O 12.75
EvdW_6 =   -0.220444
EvdW_8 =   -0.347751

-------- Electronic minimization -----------
	Linear fluid (dielectric constant: 78.4, screening length: 8.12261 Bohr) occupying 0.446080 of unit cell:	Completed after 12 iterations at t[s]:  28340.83
	FillingsUpdate:  mu: -0.207284373  nElectrons: 394.000000  magneticMoment: [ Abs: 0.00000  Tot: -0.00000 ]
ElecMinimize: Iter:   0  F: -2157.147436268110596  |grad|_K:  4.299e-07  alpha:  1.000e+00
	Linear fluid (dielectric constant: 78.4, screening length: 8.12261 Bohr) occupying 0.446008 of unit cell:	Completed after 20 iterations at t[s]:  28394.30
	Linear fluid (dielectric constant: 78.4, screening length: 8.12261 Bohr) occupying 0.446069 of unit cell:	Completed after 20 iterations at t[s]:  28414.65
	FillingsUpdate:  mu: -0.208018610  nElectrons: 394.000000  magneticMoment: [ Abs: 0.00000  Tot: -0.00000 ]
	SubspaceRotationAdjust: set factor to 0.0586
ElecMinimize: Iter:   1  F: -2157.147442479279562  |grad|_K:  6.845e-08  alpha:  1.361e-01  linmin:  6.578e-04  t[s]:  28440.09
	Linear fluid (dielectric constant: 78.4, screening length: 8.12261 Bohr) occupying 0.446069 of unit cell:	Completed after 2 iterations at t[s]:  28462.90
	Linear fluid (dielectric constant: 78.4, screening length: 8.12261 Bohr) occupying 0.446069 of unit cell:	Completed after 6 iterations at t[s]:  28481.02
	FillingsUpdate:  mu: -0.208278194  nElectrons: 394.000000  magneticMoment: [ Abs: 0.00000  Tot: -0.00000 ]
	SubspaceRotationAdjust: set factor to 0.0413
ElecMinimize: Iter:   2  F: -2157.147442780896654  |grad|_K:  3.519e-08  alpha:  2.828e-01  linmin:  1.284e-02  t[s]:  28506.48
	Linear fluid (dielectric constant: 78.4, screening length: 8.12261 Bohr) occupying 0.446068 of unit cell:	Completed after 4 iterations at t[s]:  28528.98
	Linear fluid (dielectric constant: 78.4, screening length: 8.12261 Bohr) occupying 0.446067 of unit cell:	Completed after 3 iterations at t[s]:  28546.62
	FillingsUpdate:  mu: -0.208216293  nElectrons: 394.000000  magneticMoment: [ Abs: 0.00000  Tot: -0.00000 ]
	SubspaceRotationAdjust: set factor to 0.0307
ElecMinimize: Iter:   3  F: -2157.147442869251336  |grad|_K:  1.570e-08  alpha:  3.278e-01  linmin:  5.989e-04  t[s]:  28572.04
	Linear fluid (dielectric constant: 78.4, screening length: 8.12261 Bohr) occupying 0.446067 of unit cell:	Completed after 2 iterations at t[s]:  28594.09
	Linear fluid (dielectric constant: 78.4, screening length: 8.12261 Bohr) occupying 0.446067 of unit cell:	Completed after 0 iterations at t[s]:  28611.19
	FillingsUpdate:  mu: -0.208215929  nElectrons: 394.000000  magneticMoment: [ Abs: 0.00000  Tot: -0.00000 ]
	SubspaceRotationAdjust: set factor to 0.0398
ElecMinimize: Iter:   4  F: -2157.147442901848081  |grad|_K:  1.024e-08  alpha:  5.339e-01  linmin: -7.999e-03  t[s]:  28636.53
ElecMinimize: Converged (|Delta F|<1.000000e-07 for 2 iters).
Setting wave functions to eigenvectors of Hamiltonian
Converging empty states (this may take a while): |deigs|: 1.081e-09

Computing DFT-D3 correction:
# coordination-number Pt 6.988 6.988 6.988 6.988 9.586 9.586 9.586 9.586 9.420 9.420 9.420 9.420 9.582 9.582 9.582 9.582 7.992 7.135 7.135 7.994 9.418 9.416 9.416 9.416
# coordination-number C 3.253
# coordination-number O 1.070
# diagonal-C6 Pt 336.87 336.87 336.87 336.87 336.87 336.87 336.87 336.87 336.87 336.87 336.87 336.87 336.87 336.87 336.87 336.87 336.87 336.87 336.87 336.87 336.87 336.87 336.87 336.87
# diagonal-C6 C 24.68
# diagonal-C6 O 12.75
EvdW_6 =   -0.220444
EvdW_8 =   -0.347751

# Ionic positions in cartesian coordinates:
ion Pt  -0.000046000000000   3.020563000000000   2.055063999999999 0
ion Pt  -2.616042999999999   7.551602999999998   2.055063999999999 0
ion Pt   5.231948999999999   3.020563000000000   2.055063999999999 0
ion Pt   2.615952000000000   7.551602999999998   2.055063999999999 0
ion Pt   0.000042000000000   0.000091000000000  10.683439000000000 0
ion Pt  -2.615955000000000   4.531130000000000  10.683439000000000 0
ion Pt   5.232038000000000   0.000091000000000  10.683439000000000 0
ion Pt   2.616040999999999   4.531130000000000  10.683439000000000 0
ion Pt   2.616092000000000   1.510449000000000   6.419136999999999 0
ion Pt   0.000095000000000   6.041488999999999   6.419136999999999 0
ion Pt   7.848087999999998   1.510449000000000   6.419136999999999 0
ion Pt   5.232081000000001   6.041488999999999   6.419136999999999 0
ion Pt  -0.000057000000000   3.020600000000000  14.945561999999999 0
ion Pt  -2.616048999999999   7.551629999999999  14.945561999999999 0
ion Pt   5.231938999999999   3.020600000000000  14.945561999999999 0
ion Pt   2.615947000000000   7.551629999999999  14.945561999999999 0
ion Pt   0.000052000000000   0.000127000000000  23.577845999999997 0
ion Pt  -2.615945000000000   4.531166999999999  23.577845999999997 0
ion Pt   5.232048000000000   0.000127000000000  23.577845999999997 0
ion Pt   2.616051000000000   4.531166999999999  23.577845999999997 0
ion Pt   2.615915000000000   1.510250000000000  19.213260999999996 0
ion Pt  -0.000082000000000   6.041289999999999  19.213260999999996 0
ion Pt   7.847910000000000   1.510250000000000  19.213260999999996 0
ion Pt   5.231912999999999   6.041289999999999  19.213260999999996 0
ion C   1.308052000000000   2.265647000000000  26.369447233989536 1  Linear 0 0 1
ion O   1.368146000000000   2.265647000000000  28.600424098938870 1  Linear 0 0 1

# Forces in Cartesian coordinates:
force Pt  -0.000353882524307   0.000205442273932   0.000563017107611 0
force Pt   0.000172761956907  -0.000145254784635   0.000575350663024 0
force Pt   0.000212415563679  -0.000072662413850   0.000577253736152 0
force Pt  -0.000025903286160   0.000016022043673   0.000319873879930 0
force Pt  -0.000658571464542  -0.000084712273284  -0.000097250202517 0
force Pt  -0.000116969342331   0.000068612417812   0.001372278954678 0
force Pt   0.001248298818859  -0.000739921435056  -0.001165069284666 0
force Pt  -0.000264513605415   0.000621105024029  -0.000097306780945 0
force Pt   0.000064105681310  -0.000041596809130  -0.000726841385321 0
force Pt   0.000016115793688   0.000354320092288  -0.000130732827543 0
force Pt  -0.000306800262845  -0.000192930960753  -0.000137554518311 0
force Pt   0.000198708320086  -0.000119793646351  -0.000330420765805 0
force Pt   0.000039332575699  -0.000021409988571  -0.000293851773288 0
force Pt   0.000416136688393   0.000874858176787  -0.004798242771387 0
force Pt  -0.000544207159645  -0.000788363793103  -0.004851739953982 0
force Pt   0.000526317517028  -0.000294828115268   0.000962939566041 0
force Pt  -0.001808471808869  -0.005623510508257   0.011780458612064 0
force Pt  -0.008481830048338   0.004883844274182  -0.004333895424791 0
force Pt   0.006939224722149  -0.003996178392598  -0.003669571878177 0
force Pt   0.004043874526328   0.004666272980906   0.010794429688756 0
force Pt   0.001954199205947  -0.001099745440946  -0.008712136365867 0
force Pt  -0.000484409240088   0.001091167909923  -0.002179859140352 0
force Pt  -0.001197049997127  -0.000146418576953  -0.002156710290807 0
force Pt  -0.001022346087593   0.000679841519428   0.005924756410814 0
force C   0.000402402621955   0.000302281182780  -0.000052905806904 1  Linear 0 0 1
force O  -0.000912264863299  -0.000417425062918  -0.000057201124420 1  Linear 0 0 1

# Energy components:
   A_diel =       -0.0056528115866194
   Eewald =    17160.1359233870753087
       EH =    19141.0574027811344422
     Eloc =   -38836.8794762319375877
      Enl =      -22.3188416517179249
     EvdW =       -0.5681950454699543
      Exc =     -688.2210301544571394
 Exc_core =      393.4918586209098521
       KE =      696.1639739882110689
-------------------------------------
     Etot =    -2157.1440371178377973
       TS =        0.0034057840102168
-------------------------------------
        F =    -2157.1474429018480805


Dumping 'jdft.fillings' ... done
Dumping 'jdft.wfns' ... done
Dumping 'jdft.fluidState' ... done
Dumping 'jdft.ionpos' ... done
Dumping 'jdft.lattice' ... done
Dumping 'jdft.eigenvals' ... done
Dumping 'jdft.eigStats' ... 
	eMin: -2.164277 at state 20 ( [ +0.000000 +0.000000 +0.000000 ] spin -1 )
	HOMO: -0.208260 at state 16 ( [ +0.500000 +0.000000 +0.000000 ] spin 1 )
	mu  : -0.208216
	LUMO: -0.208196 at state 23 ( [ +0.000000 +0.500000 +0.000000 ] spin -1 )
	eMax: +0.090096 at state 17 ( [ +0.500000 +0.166667 +0.000000 ] spin 1 )
	HOMO-LUMO gap: +0.000064
	Optical gap  : +0.000441 at state 24 ( [ +0.166667 +0.000000 +0.000000 ] spin -1 )
Dumping 'jdft.Ecomponents' ... done
IonicMinimize: Iter:  10  F: -2157.147442901848081  |grad|_K:  5.510e-05  alpha:  1.307e-03  linmin:  2.897e-03  t[s]:  28701.47
IonicMinimize: Converged (|grad|_K<1.000000e-04).

#--- Lowdin population analysis ---
# oxidation-state Pt +0.014 +0.014 +0.014 +0.012 +0.016 +0.016 +0.015 +0.016 +0.012 +0.016 +0.016 +0.015 +0.014 +0.008 +0.007 +0.015 -0.059 -0.008 -0.012 -0.059 +0.007 +0.001 +0.001 -0.024
# magnetic-moments Pt -0.000 -0.000 -0.000 -0.000 -0.000 -0.000 -0.000 -0.000 -0.000 -0.000 -0.000 -0.000 -0.000 -0.000 -0.000 -0.000 -0.000 -0.000 -0.000 -0.000 -0.000 -0.000 -0.000 -0.000
# oxidation-state C +0.421
# magnetic-moments C -0.000
# oxidation-state O -0.146
# magnetic-moments O -0.000


Dumping 'jdft.n_up' ... done
Dumping 'jdft.n_dn' ... done
Dumping 'jdft.tau_up' ... done
Dumping 'jdft.tau_dn' ... done
Dumping 'jdft.eigenvals' ... done
Dumping 'jdft.eigStats' ... 
	eMin: -2.164277 at state 20 ( [ +0.000000 +0.000000 +0.000000 ] spin -1 )
	HOMO: -0.208260 at state 16 ( [ +0.500000 +0.000000 +0.000000 ] spin 1 )
	mu  : -0.208216
	LUMO: -0.208196 at state 23 ( [ +0.000000 +0.500000 +0.000000 ] spin -1 )
	eMax: +0.090096 at state 17 ( [ +0.500000 +0.166667 +0.000000 ] spin 1 )
	HOMO-LUMO gap: +0.000064
	Optical gap  : +0.000441 at state 24 ( [ +0.166667 +0.000000 +0.000000 ] spin -1 )
Dumping 'jdft.kPts' ... done
Dumping 'jdft.kMap' ... done
Dumping 'jdft.dosUp' ... done.
Dumping 'jdft.dosDn' ... done.
End date and time: Thu Feb 17 11:43:04 2022  (Duration: 0-7:59:03.00)
Done!
