
*************** JDFTx 1.6.0  ***************

Start date and time: Thu Feb 17 02:28:17 2022
Executable /projects/musgravc/apps/jdftx-1.6.1/build/jdftx with command-line: -i in
Running on hosts (process indices):  shas0230.rc.int.colorado.edu (0-23)
Divided in process groups (process indices):  0 (0)  1 (1)  2 (2)  3 (3)  4 (4)  5 (5)  6 (6)  7 (7)  8 (8)  9 (9)  10 (10)  11 (11)  12 (12)  13 (13)  14 (14)  15 (15)  16 (16)  17 (17)  18 (18)  19 (19)  20 (20)  21 (21)  22 (22)  23 (23)
Resource initialization completed at t[s]:      0.00
Run totals: 24 processes, 24 threads, 0 GPUs


Input parsed successfully to the following command list (including defaults):

basis kpoint-dependent
converge-empty-states yes
coords-type Cartesian
core-overlap-check none
coulomb-interaction Periodic
davidson-band-ratio 1.1
density-of-states Etol 1.000000e-06 Esigma 1.000000e-03 \
		Complete \
	Total \
	OrthoOrbital Cu 1   s \
	OrthoOrbital Cu 1   p \
	OrthoOrbital Cu 1   px \
	OrthoOrbital Cu 1   py \
	OrthoOrbital Cu 1   pz \
	OrthoOrbital Cu 1   d \
	OrthoOrbital Cu 1   dxy \
	OrthoOrbital Cu 1   dyz \
	OrthoOrbital Cu 1   dz2 \
	OrthoOrbital Cu 1   dxz \
	OrthoOrbital Cu 1   dx2-y2 \
	OrthoOrbital Cu 2   s \
	OrthoOrbital Cu 2   p \
	OrthoOrbital Cu 2   px \
	OrthoOrbital Cu 2   py \
	OrthoOrbital Cu 2   pz \
	OrthoOrbital Cu 2   d \
	OrthoOrbital Cu 2   dxy \
	OrthoOrbital Cu 2   dyz \
	OrthoOrbital Cu 2   dz2 \
	OrthoOrbital Cu 2   dxz \
	OrthoOrbital Cu 2   dx2-y2 \
	OrthoOrbital Cu 3   s \
	OrthoOrbital Cu 3   p \
	OrthoOrbital Cu 3   px \
	OrthoOrbital Cu 3   py \
	OrthoOrbital Cu 3   pz \
	OrthoOrbital Cu 3   d \
	OrthoOrbital Cu 3   dxy \
	OrthoOrbital Cu 3   dyz \
	OrthoOrbital Cu 3   dz2 \
	OrthoOrbital Cu 3   dxz \
	OrthoOrbital Cu 3   dx2-y2 \
	OrthoOrbital Cu 4   s \
	OrthoOrbital Cu 4   p \
	OrthoOrbital Cu 4   px \
	OrthoOrbital Cu 4   py \
	OrthoOrbital Cu 4   pz \
	OrthoOrbital Cu 4   d \
	OrthoOrbital Cu 4   dxy \
	OrthoOrbital Cu 4   dyz \
	OrthoOrbital Cu 4   dz2 \
	OrthoOrbital Cu 4   dxz \
	OrthoOrbital Cu 4   dx2-y2 \
	OrthoOrbital Cu 5   s \
	OrthoOrbital Cu 5   p \
	OrthoOrbital Cu 5   px \
	OrthoOrbital Cu 5   py \
	OrthoOrbital Cu 5   pz \
	OrthoOrbital Cu 5   d \
	OrthoOrbital Cu 5   dxy \
	OrthoOrbital Cu 5   dyz \
	OrthoOrbital Cu 5   dz2 \
	OrthoOrbital Cu 5   dxz \
	OrthoOrbital Cu 5   dx2-y2 \
	OrthoOrbital Cu 6   s \
	OrthoOrbital Cu 6   p \
	OrthoOrbital Cu 6   px \
	OrthoOrbital Cu 6   py \
	OrthoOrbital Cu 6   pz \
	OrthoOrbital Cu 6   d \
	OrthoOrbital Cu 6   dxy \
	OrthoOrbital Cu 6   dyz \
	OrthoOrbital Cu 6   dz2 \
	OrthoOrbital Cu 6   dxz \
	OrthoOrbital Cu 6   dx2-y2 \
	OrthoOrbital Cu 7   s \
	OrthoOrbital Cu 7   p \
	OrthoOrbital Cu 7   px \
	OrthoOrbital Cu 7   py \
	OrthoOrbital Cu 7   pz \
	OrthoOrbital Cu 7   d \
	OrthoOrbital Cu 7   dxy \
	OrthoOrbital Cu 7   dyz \
	OrthoOrbital Cu 7   dz2 \
	OrthoOrbital Cu 7   dxz \
	OrthoOrbital Cu 7   dx2-y2 \
	OrthoOrbital Cu 8   s \
	OrthoOrbital Cu 8   p \
	OrthoOrbital Cu 8   px \
	OrthoOrbital Cu 8   py \
	OrthoOrbital Cu 8   pz \
	OrthoOrbital Cu 8   d \
	OrthoOrbital Cu 8   dxy \
	OrthoOrbital Cu 8   dyz \
	OrthoOrbital Cu 8   dz2 \
	OrthoOrbital Cu 8   dxz \
	OrthoOrbital Cu 8   dx2-y2 \
	OrthoOrbital Cu 9   s \
	OrthoOrbital Cu 9   p \
	OrthoOrbital Cu 9   px \
	OrthoOrbital Cu 9   py \
	OrthoOrbital Cu 9   pz \
	OrthoOrbital Cu 9   d \
	OrthoOrbital Cu 9   dxy \
	OrthoOrbital Cu 9   dyz \
	OrthoOrbital Cu 9   dz2 \
	OrthoOrbital Cu 9   dxz \
	OrthoOrbital Cu 9   dx2-y2 \
	OrthoOrbital Cu 10   s \
	OrthoOrbital Cu 10   p \
	OrthoOrbital Cu 10   px \
	OrthoOrbital Cu 10   py \
	OrthoOrbital Cu 10   pz \
	OrthoOrbital Cu 10   d \
	OrthoOrbital Cu 10   dxy \
	OrthoOrbital Cu 10   dyz \
	OrthoOrbital Cu 10   dz2 \
	OrthoOrbital Cu 10   dxz \
	OrthoOrbital Cu 10   dx2-y2 \
	OrthoOrbital Cu 11   s \
	OrthoOrbital Cu 11   p \
	OrthoOrbital Cu 11   px \
	OrthoOrbital Cu 11   py \
	OrthoOrbital Cu 11   pz \
	OrthoOrbital Cu 11   d \
	OrthoOrbital Cu 11   dxy \
	OrthoOrbital Cu 11   dyz \
	OrthoOrbital Cu 11   dz2 \
	OrthoOrbital Cu 11   dxz \
	OrthoOrbital Cu 11   dx2-y2 \
	OrthoOrbital Cu 12   s \
	OrthoOrbital Cu 12   p \
	OrthoOrbital Cu 12   px \
	OrthoOrbital Cu 12   py \
	OrthoOrbital Cu 12   pz \
	OrthoOrbital Cu 12   d \
	OrthoOrbital Cu 12   dxy \
	OrthoOrbital Cu 12   dyz \
	OrthoOrbital Cu 12   dz2 \
	OrthoOrbital Cu 12   dxz \
	OrthoOrbital Cu 12   dx2-y2 \
	OrthoOrbital Cu 13   s \
	OrthoOrbital Cu 13   p \
	OrthoOrbital Cu 13   px \
	OrthoOrbital Cu 13   py \
	OrthoOrbital Cu 13   pz \
	OrthoOrbital Cu 13   d \
	OrthoOrbital Cu 13   dxy \
	OrthoOrbital Cu 13   dyz \
	OrthoOrbital Cu 13   dz2 \
	OrthoOrbital Cu 13   dxz \
	OrthoOrbital Cu 13   dx2-y2 \
	OrthoOrbital Cu 14   s \
	OrthoOrbital Cu 14   p \
	OrthoOrbital Cu 14   px \
	OrthoOrbital Cu 14   py \
	OrthoOrbital Cu 14   pz \
	OrthoOrbital Cu 14   d \
	OrthoOrbital Cu 14   dxy \
	OrthoOrbital Cu 14   dyz \
	OrthoOrbital Cu 14   dz2 \
	OrthoOrbital Cu 14   dxz \
	OrthoOrbital Cu 14   dx2-y2 \
	OrthoOrbital Cu 15   s \
	OrthoOrbital Cu 15   p \
	OrthoOrbital Cu 15   px \
	OrthoOrbital Cu 15   py \
	OrthoOrbital Cu 15   pz \
	OrthoOrbital Cu 15   d \
	OrthoOrbital Cu 15   dxy \
	OrthoOrbital Cu 15   dyz \
	OrthoOrbital Cu 15   dz2 \
	OrthoOrbital Cu 15   dxz \
	OrthoOrbital Cu 15   dx2-y2 \
	OrthoOrbital Cu 16   s \
	OrthoOrbital Cu 16   p \
	OrthoOrbital Cu 16   px \
	OrthoOrbital Cu 16   py \
	OrthoOrbital Cu 16   pz \
	OrthoOrbital Cu 16   d \
	OrthoOrbital Cu 16   dxy \
	OrthoOrbital Cu 16   dyz \
	OrthoOrbital Cu 16   dz2 \
	OrthoOrbital Cu 16   dxz \
	OrthoOrbital Cu 16   dx2-y2 \
	OrthoOrbital Cu 17   s \
	OrthoOrbital Cu 17   p \
	OrthoOrbital Cu 17   px \
	OrthoOrbital Cu 17   py \
	OrthoOrbital Cu 17   pz \
	OrthoOrbital Cu 17   d \
	OrthoOrbital Cu 17   dxy \
	OrthoOrbital Cu 17   dyz \
	OrthoOrbital Cu 17   dz2 \
	OrthoOrbital Cu 17   dxz \
	OrthoOrbital Cu 17   dx2-y2 \
	OrthoOrbital Cu 18   s \
	OrthoOrbital Cu 18   p \
	OrthoOrbital Cu 18   px \
	OrthoOrbital Cu 18   py \
	OrthoOrbital Cu 18   pz \
	OrthoOrbital Cu 18   d \
	OrthoOrbital Cu 18   dxy \
	OrthoOrbital Cu 18   dyz \
	OrthoOrbital Cu 18   dz2 \
	OrthoOrbital Cu 18   dxz \
	OrthoOrbital Cu 18   dx2-y2 \
	OrthoOrbital Cu 19   s \
	OrthoOrbital Cu 19   p \
	OrthoOrbital Cu 19   px \
	OrthoOrbital Cu 19   py \
	OrthoOrbital Cu 19   pz \
	OrthoOrbital Cu 19   d \
	OrthoOrbital Cu 19   dxy \
	OrthoOrbital Cu 19   dyz \
	OrthoOrbital Cu 19   dz2 \
	OrthoOrbital Cu 19   dxz \
	OrthoOrbital Cu 19   dx2-y2 \
	OrthoOrbital Cu 20   s \
	OrthoOrbital Cu 20   p \
	OrthoOrbital Cu 20   px \
	OrthoOrbital Cu 20   py \
	OrthoOrbital Cu 20   pz \
	OrthoOrbital Cu 20   d \
	OrthoOrbital Cu 20   dxy \
	OrthoOrbital Cu 20   dyz \
	OrthoOrbital Cu 20   dz2 \
	OrthoOrbital Cu 20   dxz \
	OrthoOrbital Cu 20   dx2-y2 \
	OrthoOrbital Cu 21   s \
	OrthoOrbital Cu 21   p \
	OrthoOrbital Cu 21   px \
	OrthoOrbital Cu 21   py \
	OrthoOrbital Cu 21   pz \
	OrthoOrbital Cu 21   d \
	OrthoOrbital Cu 21   dxy \
	OrthoOrbital Cu 21   dyz \
	OrthoOrbital Cu 21   dz2 \
	OrthoOrbital Cu 21   dxz \
	OrthoOrbital Cu 21   dx2-y2 \
	OrthoOrbital Cu 22   s \
	OrthoOrbital Cu 22   p \
	OrthoOrbital Cu 22   px \
	OrthoOrbital Cu 22   py \
	OrthoOrbital Cu 22   pz \
	OrthoOrbital Cu 22   d \
	OrthoOrbital Cu 22   dxy \
	OrthoOrbital Cu 22   dyz \
	OrthoOrbital Cu 22   dz2 \
	OrthoOrbital Cu 22   dxz \
	OrthoOrbital Cu 22   dx2-y2 \
	OrthoOrbital Cu 23   s \
	OrthoOrbital Cu 23   p \
	OrthoOrbital Cu 23   px \
	OrthoOrbital Cu 23   py \
	OrthoOrbital Cu 23   pz \
	OrthoOrbital Cu 23   d \
	OrthoOrbital Cu 23   dxy \
	OrthoOrbital Cu 23   dyz \
	OrthoOrbital Cu 23   dz2 \
	OrthoOrbital Cu 23   dxz \
	OrthoOrbital Cu 23   dx2-y2 \
	OrthoOrbital Cu 24   s \
	OrthoOrbital Cu 24   p \
	OrthoOrbital Cu 24   px \
	OrthoOrbital Cu 24   py \
	OrthoOrbital Cu 24   pz \
	OrthoOrbital Cu 24   d \
	OrthoOrbital Cu 24   dxy \
	OrthoOrbital Cu 24   dyz \
	OrthoOrbital Cu 24   dz2 \
	OrthoOrbital Cu 24   dxz \
	OrthoOrbital Cu 24   dx2-y2 \
	OrthoOrbital Cu 25   s \
	OrthoOrbital Cu 25   p \
	OrthoOrbital Cu 25   px \
	OrthoOrbital Cu 25   py \
	OrthoOrbital Cu 25   pz \
	OrthoOrbital Cu 25   d \
	OrthoOrbital Cu 25   dxy \
	OrthoOrbital Cu 25   dyz \
	OrthoOrbital Cu 25   dz2 \
	OrthoOrbital Cu 25   dxz \
	OrthoOrbital Cu 25   dx2-y2 \
	OrthoOrbital Cu 26   s \
	OrthoOrbital Cu 26   p \
	OrthoOrbital Cu 26   px \
	OrthoOrbital Cu 26   py \
	OrthoOrbital Cu 26   pz \
	OrthoOrbital Cu 26   d \
	OrthoOrbital Cu 26   dxy \
	OrthoOrbital Cu 26   dyz \
	OrthoOrbital Cu 26   dz2 \
	OrthoOrbital Cu 26   dxz \
	OrthoOrbital Cu 26   dx2-y2 \
	OrthoOrbital Cu 27   s \
	OrthoOrbital Cu 27   p \
	OrthoOrbital Cu 27   px \
	OrthoOrbital Cu 27   py \
	OrthoOrbital Cu 27   pz \
	OrthoOrbital Cu 27   d \
	OrthoOrbital Cu 27   dxy \
	OrthoOrbital Cu 27   dyz \
	OrthoOrbital Cu 27   dz2 \
	OrthoOrbital Cu 27   dxz \
	OrthoOrbital Cu 27   dx2-y2 \
	OrthoOrbital Cu 28   s \
	OrthoOrbital Cu 28   p \
	OrthoOrbital Cu 28   px \
	OrthoOrbital Cu 28   py \
	OrthoOrbital Cu 28   pz \
	OrthoOrbital Cu 28   d \
	OrthoOrbital Cu 28   dxy \
	OrthoOrbital Cu 28   dyz \
	OrthoOrbital Cu 28   dz2 \
	OrthoOrbital Cu 28   dxz \
	OrthoOrbital Cu 28   dx2-y2 \
	OrthoOrbital Cu 29   s \
	OrthoOrbital Cu 29   p \
	OrthoOrbital Cu 29   px \
	OrthoOrbital Cu 29   py \
	OrthoOrbital Cu 29   pz \
	OrthoOrbital Cu 29   d \
	OrthoOrbital Cu 29   dxy \
	OrthoOrbital Cu 29   dyz \
	OrthoOrbital Cu 29   dz2 \
	OrthoOrbital Cu 29   dxz \
	OrthoOrbital Cu 29   dx2-y2 \
	OrthoOrbital Cu 30   s \
	OrthoOrbital Cu 30   p \
	OrthoOrbital Cu 30   px \
	OrthoOrbital Cu 30   py \
	OrthoOrbital Cu 30   pz \
	OrthoOrbital Cu 30   d \
	OrthoOrbital Cu 30   dxy \
	OrthoOrbital Cu 30   dyz \
	OrthoOrbital Cu 30   dz2 \
	OrthoOrbital Cu 30   dxz \
	OrthoOrbital Cu 30   dx2-y2 \
	OrthoOrbital Cu 31   s \
	OrthoOrbital Cu 31   p \
	OrthoOrbital Cu 31   px \
	OrthoOrbital Cu 31   py \
	OrthoOrbital Cu 31   pz \
	OrthoOrbital Cu 31   d \
	OrthoOrbital Cu 31   dxy \
	OrthoOrbital Cu 31   dyz \
	OrthoOrbital Cu 31   dz2 \
	OrthoOrbital Cu 31   dxz \
	OrthoOrbital Cu 31   dx2-y2 \
	OrthoOrbital Cu 32   s \
	OrthoOrbital Cu 32   p \
	OrthoOrbital Cu 32   px \
	OrthoOrbital Cu 32   py \
	OrthoOrbital Cu 32   pz \
	OrthoOrbital Cu 32   d \
	OrthoOrbital Cu 32   dxy \
	OrthoOrbital Cu 32   dyz \
	OrthoOrbital Cu 32   dz2 \
	OrthoOrbital Cu 32   dxz \
	OrthoOrbital Cu 32   dx2-y2 \
	OrthoOrbital Cu 33   s \
	OrthoOrbital Cu 33   p \
	OrthoOrbital Cu 33   px \
	OrthoOrbital Cu 33   py \
	OrthoOrbital Cu 33   pz \
	OrthoOrbital Cu 33   d \
	OrthoOrbital Cu 33   dxy \
	OrthoOrbital Cu 33   dyz \
	OrthoOrbital Cu 33   dz2 \
	OrthoOrbital Cu 33   dxz \
	OrthoOrbital Cu 33   dx2-y2 \
	OrthoOrbital Cu 34   s \
	OrthoOrbital Cu 34   p \
	OrthoOrbital Cu 34   px \
	OrthoOrbital Cu 34   py \
	OrthoOrbital Cu 34   pz \
	OrthoOrbital Cu 34   d \
	OrthoOrbital Cu 34   dxy \
	OrthoOrbital Cu 34   dyz \
	OrthoOrbital Cu 34   dz2 \
	OrthoOrbital Cu 34   dxz \
	OrthoOrbital Cu 34   dx2-y2 \
	OrthoOrbital Cu 35   s \
	OrthoOrbital Cu 35   p \
	OrthoOrbital Cu 35   px \
	OrthoOrbital Cu 35   py \
	OrthoOrbital Cu 35   pz \
	OrthoOrbital Cu 35   d \
	OrthoOrbital Cu 35   dxy \
	OrthoOrbital Cu 35   dyz \
	OrthoOrbital Cu 35   dz2 \
	OrthoOrbital Cu 35   dxz \
	OrthoOrbital Cu 35   dx2-y2 \
	OrthoOrbital Cu 36   s \
	OrthoOrbital Cu 36   p \
	OrthoOrbital Cu 36   px \
	OrthoOrbital Cu 36   py \
	OrthoOrbital Cu 36   pz \
	OrthoOrbital Cu 36   d \
	OrthoOrbital Cu 36   dxy \
	OrthoOrbital Cu 36   dyz \
	OrthoOrbital Cu 36   dz2 \
	OrthoOrbital Cu 36   dxz \
	OrthoOrbital Cu 36   dx2-y2 \
	OrthoOrbital Cu 37   s \
	OrthoOrbital Cu 37   p \
	OrthoOrbital Cu 37   px \
	OrthoOrbital Cu 37   py \
	OrthoOrbital Cu 37   pz \
	OrthoOrbital Cu 37   d \
	OrthoOrbital Cu 37   dxy \
	OrthoOrbital Cu 37   dyz \
	OrthoOrbital Cu 37   dz2 \
	OrthoOrbital Cu 37   dxz \
	OrthoOrbital Cu 37   dx2-y2 \
	OrthoOrbital Cu 38   s \
	OrthoOrbital Cu 38   p \
	OrthoOrbital Cu 38   px \
	OrthoOrbital Cu 38   py \
	OrthoOrbital Cu 38   pz \
	OrthoOrbital Cu 38   d \
	OrthoOrbital Cu 38   dxy \
	OrthoOrbital Cu 38   dyz \
	OrthoOrbital Cu 38   dz2 \
	OrthoOrbital Cu 38   dxz \
	OrthoOrbital Cu 38   dx2-y2 \
	OrthoOrbital Cu 39   s \
	OrthoOrbital Cu 39   p \
	OrthoOrbital Cu 39   px \
	OrthoOrbital Cu 39   py \
	OrthoOrbital Cu 39   pz \
	OrthoOrbital Cu 39   d \
	OrthoOrbital Cu 39   dxy \
	OrthoOrbital Cu 39   dyz \
	OrthoOrbital Cu 39   dz2 \
	OrthoOrbital Cu 39   dxz \
	OrthoOrbital Cu 39   dx2-y2 \
	OrthoOrbital Cu 40   s \
	OrthoOrbital Cu 40   p \
	OrthoOrbital Cu 40   px \
	OrthoOrbital Cu 40   py \
	OrthoOrbital Cu 40   pz \
	OrthoOrbital Cu 40   d \
	OrthoOrbital Cu 40   dxy \
	OrthoOrbital Cu 40   dyz \
	OrthoOrbital Cu 40   dz2 \
	OrthoOrbital Cu 40   dxz \
	OrthoOrbital Cu 40   dx2-y2 \
	OrthoOrbital C 1   s \
	OrthoOrbital C 1   p \
	OrthoOrbital C 1   px \
	OrthoOrbital C 1   py \
	OrthoOrbital C 1   pz \
	OrthoOrbital O 1   s \
	OrthoOrbital O 1   p \
	OrthoOrbital O 1   px \
	OrthoOrbital O 1   py \
	OrthoOrbital O 1   pz
dump End ElecDensity KEdensity BandEigs EigStats RhoAtom DOS Kpoints
dump Ionic State IonicPositions Lattice EigStats Ecomponents
dump 
dump 
dump 
dump 
dump 
dump 
dump 
dump 
dump-name jdft.$VAR
elec-cutoff 20
elec-eigen-algo Davidson
elec-ex-corr gga-PBE
elec-initial-magnetization 0.000000 no
elec-n-bands 462
elec-smearing Fermi 0.001
electronic-minimize  \
	dirUpdateScheme      FletcherReeves \
	linminMethod         DirUpdateRecommended \
	nIterations          100 \
	history              15 \
	knormThreshold       0 \
	energyDiffThreshold  1e-07 \
	nEnergyDiff          2 \
	alphaTstart          1 \
	alphaTmin            1e-10 \
	updateTestStepSize   yes \
	alphaTreduceFactor   0.1 \
	alphaTincreaseFactor 3 \
	nAlphaAdjustMax      3 \
	wolfeEnergy          0.0001 \
	wolfeGradient        0.9 \
	fdTest               no
exchange-regularization WignerSeitzTruncated
fluid LinearPCM 298.000000 1.013250
fluid-anion F- 0.5 MeanFieldLJ \
	epsBulk 1 \
	pMol 0 \
	epsInf 1 \
	Pvap 0 \
	sigmaBulk 0 \
	Rvdw 2.24877 \
	Res 0 \
	tauNuc 343133
fluid-cation Na+ 0.5 MeanFieldLJ \
	epsBulk 1 \
	pMol 0 \
	epsInf 1 \
	Pvap 0 \
	sigmaBulk 0 \
	Rvdw 2.19208 \
	Res 0 \
	tauNuc 343133
fluid-ex-corr lda-TF lda-PZ
fluid-gummel-loop 10 1.000000e-05
fluid-minimize  \
	dirUpdateScheme      PolakRibiere \
	linminMethod         DirUpdateRecommended \
	nIterations          400 \
	history              15 \
	knormThreshold       1e-11 \
	energyDiffThreshold  0 \
	nEnergyDiff          2 \
	alphaTstart          1 \
	alphaTmin            1e-10 \
	updateTestStepSize   yes \
	alphaTreduceFactor   0.1 \
	alphaTincreaseFactor 3 \
	nAlphaAdjustMax      6 \
	wolfeEnergy          0.0001 \
	wolfeGradient        0.9 \
	fdTest               no
fluid-solvent H2O 55.338 ScalarEOS \
	epsBulk 78.4 \
	pMol 0.92466 \
	epsInf 1.77 \
	Pvap 1.06736e-10 \
	sigmaBulk 4.62e-05 \
	Rvdw 2.61727 \
	Res 1.42 \
	tauNuc 343133 \
	poleEl 15 7 1
forces-output-coords Positions
ion Cu   3.374454999999999   1.518659000000000  11.420712999999997 0
ion Cu   0.003943000000000   9.055351000000002  11.420712999999997 0
ion Cu  10.115479000000001   1.518659000000000  11.420712999999997 0
ion Cu   6.744966999999997   9.055351000000002  11.420712999999997 0
ion Cu   0.000344000000000   2.995850000000000   8.272439999999998 0
ion Cu  -3.370168000000001  10.532543000000000   8.272439999999998 0
ion Cu   6.741367000000000   2.995850000000000   8.272439999999998 0
ion Cu   3.370855999999998  10.532543000000000   8.272439999999998 0
ion Cu   3.367713999999999   4.556338000000000   5.270771000000000 0
ion Cu  -0.002791000000002  12.093015000000001   5.270771000000000 0
ion Cu  10.108750999999998   4.556338000000000   5.270771000000000 0
ion Cu   6.738232999999997  12.093015000000001   5.270771000000000 0
ion Cu  -0.002959000000001   6.045498000000001   2.187299000000000 0
ion Cu  -3.373471000000001  13.582190000000002   2.187299000000000 0
ion Cu   6.738077999999999   6.045498000000001   2.187299000000000 0
ion Cu   3.367565999999998  13.582190000000002   2.187299000000000 0
ion Cu   6.744669999999997  15.039877000000001  14.212244000000000 0
ion Cu  10.115181999999999   7.503185000000001  14.212244000000000 0
ion Cu   0.003646999999998  15.039877000000001  14.212244000000000 0
ion Cu   3.374158999999998   7.503185000000001  14.212244000000000 0
ion Cu   3.373288999999999   5.995801000000001   9.801515000000000 0
ion Cu   0.002770999999998  13.532508999999999   9.801515000000000 0
ion Cu  10.114312999999997   5.995801000000001   9.801515000000000 0
ion Cu   6.743807999999997  13.532508999999999   9.801515000000000 0
ion Cu   3.370235000000000   0.020545000000000   6.798760999999999 0
ion Cu  -0.000276000000001   7.557238000000001   6.798760999999999 0
ion Cu  10.111258999999999   0.020545000000000   6.798760999999999 0
ion Cu   6.740746999999999   7.557238000000001   6.798760999999999 0
ion Cu  -0.004564000000000   1.496471000000000   3.652749000000000 0
ion Cu  -3.375075000000001   9.033163000000002   3.652749000000000 0
ion Cu   6.736459999999999   1.496471000000000   3.652749000000000 0
ion Cu   3.365947999999998   9.033163000000002   3.652749000000000 0
ion Cu   3.366999999999999   3.046346000000001   0.863298000000000 0
ion Cu  -0.003519000000002  10.583054000000001   0.863298000000000 0
ion Cu  10.108022999999998   3.046346000000001   0.863298000000000 0
ion Cu   6.737504999999997  10.583054000000001   0.863298000000000 0
ion Cu   0.003383999999999   4.504741000000000  12.887157999999999 0
ion Cu  -3.367128000000000  12.041434000000001  12.887157999999999 0
ion Cu   6.744406999999997   4.504741000000000  12.887157999999999 0
ion Cu   3.373895999999998  12.041434000000001  12.887157999999999 0
ion C   3.373895999999998   4.504741000000000  16.214411999999999 1  Linear 0 0 1
ion O   3.433984999999999   4.504741000000000  18.369739999999997 1  Linear 0 0 1
ion-species /projects/musgravc/apps/jdftx-1.6.0/build/pseudopotentials/GBRV_v1.5/$ID_pbe_v1.uspp
ion-species /projects/musgravc/apps/jdftx-1.6.0/build/pseudopotentials/GBRV_v1.5/$ID_pbe_v1.2.uspp
ion-species /projects/musgravc/apps/jdftx-1.6.0/build/pseudopotentials/GBRV_v1.5/$ID_pbe_v1.4.uspp
ion-species /projects/musgravc/apps/jdftx-1.6.0/build/pseudopotentials/GBRV_v1.5/$ID_pbe_v1.5.uspp
ion-width Ecut
ionic-minimize  \
	dirUpdateScheme      L-BFGS \
	linminMethod         DirUpdateRecommended \
	nIterations          100 \
	history              15 \
	knormThreshold       0.0001 \
	energyDiffThreshold  1e-06 \
	nEnergyDiff          2 \
	alphaTstart          1 \
	alphaTmin            1e-10 \
	updateTestStepSize   yes \
	alphaTreduceFactor   0.1 \
	alphaTincreaseFactor 3 \
	nAlphaAdjustMax      3 \
	wolfeEnergy          0.0001 \
	wolfeGradient        0.9 \
	fdTest               no
kpoint   0.000000000000   0.000000000000   0.000000000000  1.00000000000000
kpoint-folding 4 3 1 
latt-move-scale 0 0 0
latt-scale 1 1 1 
lattice  \
	  13.482047000000000   -6.741023000000000    0.000000000000000  \
	   0.000000000000000   15.073385000000000    0.000000000000000  \
	   0.000000000000000    0.000000000000000   45.220160000000000 
lattice-minimize  \
	dirUpdateScheme      L-BFGS \
	linminMethod         DirUpdateRecommended \
	nIterations          0 \
	history              15 \
	knormThreshold       0 \
	energyDiffThreshold  1e-06 \
	nEnergyDiff          2 \
	alphaTstart          1 \
	alphaTmin            1e-10 \
	updateTestStepSize   yes \
	alphaTreduceFactor   0.1 \
	alphaTincreaseFactor 3 \
	nAlphaAdjustMax      3 \
	wolfeEnergy          0.0001 \
	wolfeGradient        0.9 \
	fdTest               no
lcao-params 30 1e-06 0.001
pcm-variant CANDLE
spintype z-spin
subspace-rotation-factor 1 yes
symmetries automatic
symmetry-threshold 0.0001
van-der-waals D3



---------- Setting up symmetries ----------

Found 8 point-group symmetries of the bravais lattice
Found 1 space-group symmetries with basis
Applied RMS atom displacement 0 bohrs to make symmetries exact.

---------- Initializing the Grid ----------
R = 
[       13.482     -6.74102            0  ]
[            0      15.0734            0  ]
[            0            0      45.2202  ]
unit cell volume = 9189.64
G =
[   0.466041    0.20842         -0  ]
[          0    0.41684          0  ]
[          0         -0   0.138947  ]
Minimum fftbox size, Smin = [  56  68  184  ]
Chosen fftbox size, S = [  56  70  192  ]

---------- Exchange Correlation functional ----------
Initalized PBE GGA exchange.
Initalized PBE GGA correlation.

---------- Setting up pseudopotentials ----------
Width of ionic core gaussian charges (only for fluid interactions / plotting) set to 0.397384

Reading pseudopotential file '/projects/musgravc/apps/jdftx-1.6.0/build/pseudopotentials/GBRV_v1.5/cu_pbe_v1.2.uspp':
  Title: Cu.  Created by USPP 7.3.6 on 3-2-2014
  Reference state energy: -201.059491.  19 valence electrons in orbitals:
    |300>  occupation: 2  eigenvalue: -5.020764
    |310>  occupation: 6  eigenvalue: -3.445588
    |320>  occupation: 8  eigenvalue: -0.925168
    |400>  occupation: 2  eigenvalue: -0.567638
    |410>  occupation: 0  eigenvalue: -0.326154
  lMax: 2  lLocal: 3  QijEcut: 6
  6 projectors sampled on a log grid with 613 points:
    l: 0  eig: -5.020767  rCut: 1.4
    l: 0  eig: -0.567640  rCut: 1.4
    l: 1  eig: -3.445589  rCut: 1.55
    l: 1  eig: -0.326157  rCut: 1.55
    l: 2  eig: -0.925170  rCut: 1.5
    l: 2  eig: 1.500000  rCut: 1.5
  Partial core density with radius 0.8
  Transforming core density to a uniform radial grid of dG=0.02 with 1389 points.
  Transforming local potential to a uniform radial grid of dG=0.02 with 1389 points.
  Transforming nonlocal projectors to a uniform radial grid of dG=0.02 with 432 points.
  Transforming density augmentations to a uniform radial grid of dG=0.02 with 1389 points.
  Transforming atomic orbitals to a uniform radial grid of dG=0.02 with 432 points.
  Core radius for overlap checks: 1.55 bohrs.

Reading pseudopotential file '/projects/musgravc/apps/jdftx-1.6.0/build/pseudopotentials/GBRV_v1.5/c_pbe_v1.2.uspp':
  Title: C.  Created by USPP 7.3.6 on 3-2-2014
  Reference state energy: -5.406344.  4 valence electrons in orbitals:
    |200>  occupation: 2  eigenvalue: -0.504890
    |210>  occupation: 2  eigenvalue: -0.194356
  lMax: 1  lLocal: 2  QijEcut: 5
  4 projectors sampled on a log grid with 503 points:
    l: 0  eig: -0.504890  rCut: 1.3
    l: 0  eig: 0.000000  rCut: 1.3
    l: 1  eig: -0.194357  rCut: 1.3
    l: 1  eig: 0.000000  rCut: 1.3
  Partial core density with radius 1.1
  Transforming core density to a uniform radial grid of dG=0.02 with 1389 points.
  Transforming local potential to a uniform radial grid of dG=0.02 with 1389 points.
  Transforming nonlocal projectors to a uniform radial grid of dG=0.02 with 432 points.
  Transforming density augmentations to a uniform radial grid of dG=0.02 with 1389 points.
  Transforming atomic orbitals to a uniform radial grid of dG=0.02 with 432 points.
  Core radius for overlap checks: 1.30 bohrs.

Reading pseudopotential file '/projects/musgravc/apps/jdftx-1.6.0/build/pseudopotentials/GBRV_v1.5/o_pbe_v1.2.uspp':
  Title: O.  Created by USPP 7.3.6 on 3-2-2014
  Reference state energy: -15.894388.  6 valence electrons in orbitals:
    |200>  occupation: 2  eigenvalue: -0.878823
    |210>  occupation: 4  eigenvalue: -0.332131
  lMax: 2  lLocal: 2  QijEcut: 6
  5 projectors sampled on a log grid with 511 points:
    l: 0  eig: -0.878823  rCut: 1.25
    l: 0  eig: 0.000000  rCut: 1.25
    l: 1  eig: -0.332132  rCut: 1.25
    l: 1  eig: 0.000000  rCut: 1.25
    l: 2  eig: 1.000000  rCut: 1.25
  Partial core density with radius 0.7
  Transforming core density to a uniform radial grid of dG=0.02 with 1389 points.
  Transforming local potential to a uniform radial grid of dG=0.02 with 1389 points.
  Transforming nonlocal projectors to a uniform radial grid of dG=0.02 with 432 points.
  Transforming density augmentations to a uniform radial grid of dG=0.02 with 1389 points.
  Transforming atomic orbitals to a uniform radial grid of dG=0.02 with 432 points.
  Core radius for overlap checks: 1.25 bohrs.

Initialized 3 species with 42 total atoms.

Folded 1 k-points by 4x3x1 to 12 k-points.

---------- Setting up k-points, bands, fillings ----------
Adding inversion symmetry to k-mesh for non-inversion-symmetric unit cell.
Reduced to 7 k-points under symmetry. 
Computing the number of bands and number of electrons
Calculating initial fillings.
nElectrons: 770.000000   nBands: 462   nStates: 14

----- Setting up reduced wavefunction bases (one per k-point) -----
average nbasis = 39264.583 , ideal nbasis = 39258.863

----- Initializing Supercell corresponding to k-point mesh -----
Lattice vector linear combinations in supercell:
[   4   0   0  ]
[   0   3   0  ]
[   0   0   1  ]
Supercell lattice vectors:
[  53.9282  -20.2231  0  ]
[  0  45.2202  0  ]
[  0  0  45.2202  ]

Initializing DFT-D3 calculator:
	Parameters set for gga-PBE functional
	s6:  1.000  s_r6:  1.217
	s8:  0.722  s_r8:  1.000
	Per-atom parameters loaded for:
	Cu:  sqrtQ[a0]:  5.226  Rcov[a0]:  1.909  CN: [ 0.00 0.96 ]
	 C:  sqrtQ[a0]:  3.105  Rcov[a0]:  1.417  CN: [ 0.00 0.99 2.00 3.00 3.98 ]
	 O:  sqrtQ[a0]:  2.594  Rcov[a0]:  1.191  CN: [ 0.00 0.99 1.99 ]

Initializing DFT-D2 calculator for fluid / solvation:
	Cu:  C6:  187.33 Eh-a0^6  R0: 2.952 a0
	 C:  C6:   30.35 Eh-a0^6  R0: 2.744 a0
	 O:  C6:   12.14 Eh-a0^6  R0: 2.536 a0

---------- Setting up ewald sum ----------
Optimum gaussian width for ewald sums = 4.481961 bohr.
Real space sum over 495 unit cells with max indices [  5  4  2  ]
Reciprocal space sum over 6825 terms with max indices [  6  7  17  ]

Computing DFT-D3 correction:
# coordination-number Cu 8.319 8.288 8.288 8.288 8.918 8.918 8.918 8.918 9.035 9.035 9.035 9.035 6.874 6.874 6.874 6.874 4.959 4.945 4.959 5.961 9.034 9.028 9.028 9.028 8.920 8.920 8.920 8.920 8.294 8.294 8.294 8.294 4.947 4.947 4.947 4.947 7.137 6.870 7.138 6.870
# coordination-number C 2.587
# coordination-number O 1.058
# diagonal-C6 Cu 175.00 175.00 175.00 175.00 175.00 175.00 175.00 175.00 175.00 175.00 175.00 175.00 175.00 175.00 175.00 175.00 175.00 175.00 175.00 175.00 175.00 175.00 175.00 175.00 175.00 175.00 175.00 175.00 175.00 175.00 175.00 175.00 175.00 175.00 175.00 175.00 175.00 175.00 175.00 175.00
# diagonal-C6 C 26.93
# diagonal-C6 O 12.76
EvdW_6 =   -0.208476
EvdW_8 =   -0.326551

---------- Allocating electronic variables ----------
Initializing wave functions:  linear combination of atomic orbitals
Cu pseudo-atom occupations:   s ( 2 1 )  p ( 6 0 )  d ( 10 )
C pseudo-atom occupations:   s ( 2 )  p ( 2 )
O pseudo-atom occupations:   s ( 2 )  p ( 4 )
	FillingsUpdate:  mu: -2.630960747  nElectrons: 770.000000  magneticMoment: [ Abs: 0.46415  Tot: -0.00238 ]
LCAOMinimize: Iter:   0  F: -7882.3618296884078518  |grad|_K:  3.789e-02  alpha:  1.000e+00
LCAOMinimize: 	Step increased F by 1.033223e+03, reducing alpha to 4.200847e-02.
LCAOMinimize: 	Step increased F by 4.631251e+01, reducing alpha to 4.200847e-03.
	FillingsUpdate:  mu: -2.456310938  nElectrons: 770.000000  magneticMoment: [ Abs: 0.46654  Tot: -0.00415 ]
LCAOMinimize: Iter:   1  F: -7901.8214008740378631  |grad|_K:  2.651e-02  alpha:  4.201e-03  linmin: -1.681e-01  cgtest:  9.712e-01  t[s]:    206.07
LCAOMinimize: Encountered beta<0, resetting CG.
LCAOMinimize: 	Predicted alpha/alphaT>3.000000, increasing alphaT to 1.260254e-02.
	FillingsUpdate:  mu: -1.391730811  nElectrons: 770.000000  magneticMoment: [ Abs: 0.52447  Tot: +0.02165 ]
LCAOMinimize: Iter:   2  F: -7931.1451351989553586  |grad|_K:  2.079e-02  alpha:  2.091e-02  linmin: -9.263e-03  cgtest: -6.833e-02  t[s]:    269.28
LCAOMinimize: 	Wrong curvature in test step, increasing alphaT to 6.272979e-02.
	FillingsUpdate:  mu: -0.774458228  nElectrons: 770.000000  magneticMoment: [ Abs: 0.36073  Tot: +0.06683 ]
LCAOMinimize: Iter:   3  F: -7970.2441929704591530  |grad|_K:  2.475e-02  alpha: -1.882e-01  linmin: -5.797e-02  cgtest:  8.239e-01  t[s]:    316.29
	FillingsUpdate:  mu: +2.616020419  nElectrons: 770.000000  magneticMoment: [ Abs: 0.00539  Tot: -0.00041 ]
LCAOMinimize: Iter:   4  F: -8000.6805090852640205  |grad|_K:  7.574e-03  alpha:  5.007e-01  linmin:  1.026e-02  cgtest: -1.326e+00  t[s]:    366.28
	FillingsUpdate:  mu: +2.363679525  nElectrons: 770.000000  magneticMoment: [ Abs: 0.00568  Tot: +0.00143 ]
LCAOMinimize: Iter:   5  F: -8006.8005568750222665  |grad|_K:  4.805e-03  alpha:  4.238e-02  linmin: -4.455e-02  cgtest:  9.061e-01  t[s]:    416.13
LCAOMinimize: Encountered beta<0, resetting CG.
LCAOMinimize: 	Predicted alpha/alphaT>3.000000, increasing alphaT to 1.271489e-01.
	FillingsUpdate:  mu: +1.711389020  nElectrons: 770.000000  magneticMoment: [ Abs: 0.00554  Tot: +0.00140 ]
LCAOMinimize: Iter:   6  F: -8016.2576653244896079  |grad|_K:  1.685e-02  alpha:  2.802e-01  linmin:  2.960e-02  cgtest: -5.525e-01  t[s]:    479.29
LCAOMinimize: 	Bad step direction: g.d > 0.
LCAOMinimize: 	Undoing step.
LCAOMinimize: 	Step failed: resetting search direction.
	FillingsUpdate:  mu: +1.711389020  nElectrons: 770.000000  magneticMoment: [ Abs: 0.00554  Tot: +0.00140 ]
LCAOMinimize: Iter:   7  F: -8016.2576653244896079  |grad|_K:  1.685e-02  alpha:  0.000e+00
	FillingsUpdate:  mu: +1.270872980  nElectrons: 770.000000  magneticMoment: [ Abs: 0.00565  Tot: +0.00218 ]
LCAOMinimize: Iter:   8  F: -8036.4787686964345994  |grad|_K:  1.433e-02  alpha:  1.727e-02  linmin: -5.521e-02  cgtest:  8.697e-01  t[s]:    565.62
LCAOMinimize: Encountered beta<0, resetting CG.
	FillingsUpdate:  mu: +0.817480515  nElectrons: 770.000000  magneticMoment: [ Abs: 0.00458  Tot: +0.00147 ]
LCAOMinimize: Iter:   9  F: -8056.2907786772948384  |grad|_K:  6.997e-03  alpha:  3.617e-02  linmin: -7.469e-02  cgtest:  9.756e-01  t[s]:    615.94
LCAOMinimize: Encountered beta<0, resetting CG.
	FillingsUpdate:  mu: +0.951224695  nElectrons: 770.000000  magneticMoment: [ Abs: 0.00405  Tot: +0.00061 ]
LCAOMinimize: Iter:  10  F: -8064.7320957546680802  |grad|_K:  3.972e-03  alpha:  8.319e-02  linmin: -1.714e-02  cgtest:  4.254e-02  t[s]:    665.75
LCAOMinimize: 	Wrong curvature in test step, increasing alphaT to 2.495842e-01.
	FillingsUpdate:  mu: +0.881034512  nElectrons: 770.000000  magneticMoment: [ Abs: 0.00422  Tot: +0.00060 ]
LCAOMinimize: Iter:  11  F: -8070.5395803177098060  |grad|_K:  3.667e-03  alpha: -1.083e+00  linmin: -8.651e-02  cgtest:  8.854e-01  t[s]:    712.78
	FillingsUpdate:  mu: +0.880565867  nElectrons: 770.000000  magneticMoment: [ Abs: 0.00427  Tot: +0.00050 ]
LCAOMinimize: Iter:  12  F: -8071.7750156625816089  |grad|_K:  3.403e-03  alpha:  2.294e-02  linmin: -1.242e-01  cgtest:  9.558e-01  t[s]:    762.54
LCAOMinimize: Encountered beta<0, resetting CG.
LCAOMinimize: 	Predicted alpha/alphaT>3.000000, increasing alphaT to 6.880594e-02.
LCAOMinimize: 	Predicted alpha/alphaT>3.000000, increasing alphaT to 2.064178e-01.
LCAOMinimize: 	Step increased F by 1.020266e+01, reducing alpha to 2.855845e-02.
	FillingsUpdate:  mu: +0.875250772  nElectrons: 770.000000  magneticMoment: [ Abs: 0.00438  Tot: +0.00066 ]
LCAOMinimize: Iter:  13  F: -8073.0613321710152377  |grad|_K:  3.229e-03  alpha:  2.856e-02  linmin: -1.156e-01  cgtest:  9.438e-01  t[s]:    875.59
LCAOMinimize: 	Wrong curvature in test step, increasing alphaT to 8.567534e-02.
	FillingsUpdate:  mu: +0.847454159  nElectrons: 770.000000  magneticMoment: [ Abs: 0.00452  Tot: +0.00090 ]
LCAOMinimize: Iter:  14  F: -8074.2380725229304517  |grad|_K:  3.115e-03  alpha: -3.914e+00  linmin: -1.191e-01  cgtest:  9.543e-01  t[s]:    922.72
	FillingsUpdate:  mu: +0.811538154  nElectrons: 770.000000  magneticMoment: [ Abs: 0.00465  Tot: +0.00094 ]
LCAOMinimize: Iter:  15  F: -8075.3670593556716994  |grad|_K:  3.010e-03  alpha:  2.938e-02  linmin: -1.438e-01  cgtest:  9.605e-01  t[s]:    972.55
LCAOMinimize: 	Wrong curvature in test step, increasing alphaT to 8.812508e-02.
	FillingsUpdate:  mu: +0.780817389  nElectrons: 770.000000  magneticMoment: [ Abs: 0.00482  Tot: +0.00095 ]
LCAOMinimize: Iter:  16  F: -8076.4241574336392659  |grad|_K:  2.930e-03  alpha: -1.983e+00  linmin: -1.543e-01  cgtest:  9.568e-01  t[s]:   1019.59
	FillingsUpdate:  mu: +0.755934585  nElectrons: 770.000000  magneticMoment: [ Abs: 0.00502  Tot: +0.00104 ]
LCAOMinimize: Iter:  17  F: -8077.3910012011610888  |grad|_K:  2.859e-03  alpha:  2.800e-02  linmin: -1.555e-01  cgtest:  9.569e-01  t[s]:   1069.64
LCAOMinimize: 	Wrong curvature in test step, increasing alphaT to 8.400732e-02.
	FillingsUpdate:  mu: +0.734859772  nElectrons: 770.000000  magneticMoment: [ Abs: 0.00525  Tot: +0.00115 ]
LCAOMinimize: Iter:  18  F: -8078.3144591243171817  |grad|_K:  2.789e-03  alpha: -1.412e+00  linmin: -1.540e-01  cgtest:  9.555e-01  t[s]:   1116.91
	FillingsUpdate:  mu: +0.718302179  nElectrons: 770.000000  magneticMoment: [ Abs: 0.00547  Tot: +0.00118 ]
LCAOMinimize: Iter:  19  F: -8079.1135558642145043  |grad|_K:  2.727e-03  alpha:  2.543e-02  linmin: -1.532e-01  cgtest:  9.587e-01  t[s]:   1166.76
LCAOMinimize: 	Wrong curvature in test step, increasing alphaT to 7.629087e-02.
	FillingsUpdate:  mu: +0.702881848  nElectrons: 770.000000  magneticMoment: [ Abs: 0.00567  Tot: +0.00111 ]
LCAOMinimize: Iter:  20  F: -8079.8765952007142914  |grad|_K:  2.665e-03  alpha: -1.325e+00  linmin: -1.559e-01  cgtest:  9.579e-01  t[s]:   1213.78
	FillingsUpdate:  mu: +0.689428487  nElectrons: 770.000000  magneticMoment: [ Abs: 0.00586  Tot: +0.00100 ]
LCAOMinimize: Iter:  21  F: -8080.5524268033923363  |grad|_K:  2.610e-03  alpha:  2.357e-02  linmin: -1.618e-01  cgtest:  9.601e-01  t[s]:   1263.64
LCAOMinimize: 	Wrong curvature in test step, increasing alphaT to 7.069809e-02.
	FillingsUpdate:  mu: +0.675805502  nElectrons: 770.000000  magneticMoment: [ Abs: 0.00606  Tot: +0.00087 ]
LCAOMinimize: Iter:  22  F: -8081.2008358041348401  |grad|_K:  2.558e-03  alpha: -1.160e+00  linmin: -1.697e-01  cgtest:  9.590e-01  t[s]:   1310.74
	FillingsUpdate:  mu: +0.661772324  nElectrons: 770.000000  magneticMoment: [ Abs: 0.00626  Tot: +0.00076 ]
LCAOMinimize: Iter:  23  F: -8081.7985468215056244  |grad|_K:  2.510e-03  alpha:  2.257e-02  linmin: -1.771e-01  cgtest:  9.593e-01  t[s]:   1360.58
LCAOMinimize: 	Wrong curvature in test step, increasing alphaT to 6.770223e-02.
	FillingsUpdate:  mu: +0.646088956  nElectrons: 770.000000  magneticMoment: [ Abs: 0.00648  Tot: +0.00070 ]
LCAOMinimize: Iter:  24  F: -8082.3757550753989563  |grad|_K:  2.465e-03  alpha: -9.423e-01  linmin: -1.832e-01  cgtest:  9.577e-01  t[s]:   1407.53
	FillingsUpdate:  mu: +0.627886062  nElectrons: 770.000000  magneticMoment: [ Abs: 0.00671  Tot: +0.00066 ]
LCAOMinimize: Iter:  25  F: -8082.9361965690313809  |grad|_K:  2.421e-03  alpha:  2.265e-02  linmin: -1.880e-01  cgtest:  9.561e-01  t[s]:   1457.50
LCAOMinimize: 	Wrong curvature in test step, increasing alphaT to 6.795159e-02.
	FillingsUpdate:  mu: +0.606246675  nElectrons: 770.000000  magneticMoment: [ Abs: 0.00695  Tot: +0.00064 ]
LCAOMinimize: Iter:  26  F: -8083.4777198641149880  |grad|_K:  2.375e-03  alpha: -8.502e-01  linmin: -1.919e-01  cgtest:  9.548e-01  t[s]:   1504.78
	FillingsUpdate:  mu: +0.584795368  nElectrons: 770.000000  magneticMoment: [ Abs: 0.00722  Tot: +0.00063 ]
LCAOMinimize: Iter:  27  F: -8084.0359926566770810  |grad|_K:  2.322e-03  alpha:  2.423e-02  linmin: -1.958e-01  cgtest:  9.506e-01  t[s]:   1554.80
LCAOMinimize: 	Wrong curvature in test step, increasing alphaT to 7.269068e-02.
	FillingsUpdate:  mu: +0.562497594  nElectrons: 770.000000  magneticMoment: [ Abs: 0.00750  Tot: +0.00061 ]
LCAOMinimize: Iter:  28  F: -8084.5697615606986801  |grad|_K:  2.264e-03  alpha: -9.448e-01  linmin: -1.999e-01  cgtest:  9.500e-01  t[s]:   1601.77
	FillingsUpdate:  mu: +0.539588065  nElectrons: 770.000000  magneticMoment: [ Abs: 0.00781  Tot: +0.00059 ]
LCAOMinimize: Iter:  29  F: -8085.1099531316722278  |grad|_K:  2.194e-03  alpha:  2.589e-02  linmin: -2.048e-01  cgtest:  9.466e-01  t[s]:   1651.64
LCAOMinimize: 	Wrong curvature in test step, increasing alphaT to 7.768371e-02.
	FillingsUpdate:  mu: +0.514891051  nElectrons: 770.000000  magneticMoment: [ Abs: 0.00814  Tot: +0.00057 ]
LCAOMinimize: Iter:  30  F: -8085.6149237624285888  |grad|_K:  2.117e-03  alpha: -1.408e+00  linmin: -2.103e-01  cgtest:  9.470e-01  t[s]:   1698.86
LCAOMinimize: None of the convergence criteria satisfied after 30 iterations.
----- createFluidSolver() ----- (Fluid-side solver setup)
   Initializing fluid molecule 'H2O'
     Initializing site 'O'
       Electron density: proportional to exp(-r/0.36935)*erfc((r-0.51523)/0.36823) with norm 6.826
       Charge density: gaussian nuclear width 0.478731 with net site charge 0.826
       Polarizability: cuspless exponential with width 0.32 and norm 3.73
       Hard sphere radius: 2.57003 bohrs
       Positions in reference frame:
         [ +0.000000 +0.000000 +0.000000 ]
     Initializing site 'H'
       Electron density: proportional to exp(-r/0.34641)*erfc((r-0)/0.390882) with norm 0.587
       Charge density: gaussian nuclear width 0.377945 with net site charge -0.413
       Polarizability: cuspless exponential with width 0.39 and norm 3.3
       Positions in reference frame:
         [ +0.000000 -1.441945 +1.122523 ]
         [ +0.000000 +1.441945 +1.122523 ]
     Net charge: 0   dipole magnitude: 0.927204
     Initializing spherical shell mfKernel with radius 2.61727 Bohr
     deltaS corrections:
       site 'O': -7.54299
       site 'H': -6.83917
   Initializing fluid molecule 'Na+'
     Initializing site 'Na'
       Electron density: proportional to exp(-r/0.19682)*erfc((r-0.71491)/0.41314) with norm 8.1383
       Charge density: gaussian nuclear width 0.365347 with net site charge -1
       Hard sphere radius: 1.86327 bohrs
       Positions in reference frame:
         [ +0.000000 +0.000000 +0.000000 ]
     Net charge: -1   dipole magnitude: 0
     Initializing gaussian mfKernel with width: 1.55004 Bohr
     deltaS corrections:
       site 'Na': -22.3555
   Initializing fluid molecule 'F-'
     Initializing site 'F'
       Electron density: proportional to exp(-r/0.38886)*erfc((r-0)/0.438782) with norm 8
       Charge density: gaussian nuclear width 0.374796 with net site charge 1
       Hard sphere radius: 2.39995 bohrs
       Positions in reference frame:
         [ +0.000000 +0.000000 +0.000000 ]
     Net charge: 1   dipole magnitude: 0
     Initializing gaussian mfKernel with width: 1.59012 Bohr
     deltaS corrections:
       site 'F': -9.04335

Correction to mu due to finite nuclear width = -0.0831365
   Cavity determined by nc: 0.00142 and sigma: 0.707107
   Nonlocal vdW cavity from gaussian model electron density with norm = 8 and sigma = 0.993594 bohr
   Charge asymmetry in cavity with sensitivity pCavity = 36.5 e-bohr/Eh
   Electrostatic cavity expanded by eta = 1.46 bohrs
   Weighted density cavitation model constrained by Nbulk: 0.0049383 bohr^-3, Pvap: 3.14029 kPa, Rvdw: 2.61727 bohr and sigmaBulk: 4.62e-05 Eh/bohr^2 at T: 298 K.
   Weighted density dispersion model using vdW pair potentials with single solvent site with sqrtC6eff: 0.77 SI.


---- Citations for features of the code used in this run ----

   Software package:
      R. Sundararaman, K. Letchworth-Weaver, K.A. Schwarz, D. Gunceler, Y. Ozhabes and T.A. Arias, 'JDFTx: software for joint density-functional theory', SoftwareX 6, 278 (2017)

   gga-PBE exchange-correlation functional:
      J.P. Perdew, K. Burke and M. Ernzerhof, Phys. Rev. Lett. 77, 3865 (1996)

   Pseudopotentials:
      KF Garrity, JW Bennett, KM Rabe and D Vanderbilt, Comput. Mater. Sci. 81, 446 (2014)

   DFT-D3 dispersion correction:
      S. Grimme, J. Antony, S. Ehrlich and H. Krieg, J. Chem. Phys. 132, 154104 (2010)

   DFT-D2 dispersion correction:
      S. Grimme, J. Comput. Chem. 27, 1787 (2006)

   Charge-asymmetric nonlocally-determined local-electric (CANDLE) solvation model:
      R. Sundararaman and W.A. Goddard III, J. Chem. Phys. 142, 064107 (2015)

   Total energy minimization with Auxiliary Hamiltonian:
      C. Freysoldt, S. Boeck, and J. Neugebauer, Phys. Rev. B 79, 241103(R) (2009)

   Linear-tetrahedron sampling for density of states:
      G. Lehmann and M. Taut, Phys. status solidi (b) 54, 469 (1972)

This list may not be complete. Please suggest additional citations or
report any other bugs at https://github.com/shankar1729/jdftx/issues

Initialization completed successfully at t[s]:   1716.94


Computing DFT-D3 correction:
# coordination-number Cu 8.319 8.288 8.288 8.288 8.918 8.918 8.918 8.918 9.035 9.035 9.035 9.035 6.874 6.874 6.874 6.874 4.959 4.945 4.959 5.961 9.034 9.028 9.028 9.028 8.920 8.920 8.920 8.920 8.294 8.294 8.294 8.294 4.947 4.947 4.947 4.947 7.137 6.870 7.138 6.870
# coordination-number C 2.587
# coordination-number O 1.058
# diagonal-C6 Cu 175.00 175.00 175.00 175.00 175.00 175.00 175.00 175.00 175.00 175.00 175.00 175.00 175.00 175.00 175.00 175.00 175.00 175.00 175.00 175.00 175.00 175.00 175.00 175.00 175.00 175.00 175.00 175.00 175.00 175.00 175.00 175.00 175.00 175.00 175.00 175.00 175.00 175.00 175.00 175.00
# diagonal-C6 C 26.93
# diagonal-C6 O 12.76
EvdW_6 =   -0.208476
EvdW_8 =   -0.326551
Fluid solver invoked on fresh (random / LCAO) wavefunctions
Running a vacuum solve first:

-------- Initial electronic minimization -----------
	FillingsUpdate:  mu: +0.518501053  nElectrons: 770.000000  magneticMoment: [ Abs: 0.00814  Tot: +0.00057 ]
ElecMinimize: Iter:   0  F: -8085.614923762427679  |grad|_K:  5.814e-04  alpha:  1.000e+00
	FillingsUpdate:  mu: +0.126468256  nElectrons: 770.000000  magneticMoment: [ Abs: 0.00920  Tot: +0.00042 ]
	SubspaceRotationAdjust: set factor to 0.838
ElecMinimize: Iter:   1  F: -8092.219801207732417  |grad|_K:  2.426e-04  alpha:  9.965e-02  linmin:  8.332e-04  t[s]:   1866.37
	FillingsUpdate:  mu: +0.254224302  nElectrons: 770.000000  magneticMoment: [ Abs: 0.00773  Tot: +0.00019 ]
	SubspaceRotationAdjust: set factor to 0.794
ElecMinimize: Iter:   2  F: -8093.848206989122446  |grad|_K:  1.439e-04  alpha:  1.455e-01  linmin: -1.880e-05  t[s]:   1964.45
	FillingsUpdate:  mu: +0.251630537  nElectrons: 770.000000  magneticMoment: [ Abs: 0.00728  Tot: +0.00011 ]
	SubspaceRotationAdjust: set factor to 0.553
ElecMinimize: Iter:   3  F: -8094.414219286353728  |grad|_K:  1.438e-04  alpha:  1.013e-01  linmin:  1.238e-07  t[s]:   2062.26
	FillingsUpdate:  mu: +0.127538829  nElectrons: 770.000000  magneticMoment: [ Abs: 0.00631  Tot: +0.00018 ]
	SubspaceRotationAdjust: set factor to 0.382
ElecMinimize: Iter:   4  F: -8094.911670388868515  |grad|_K:  1.080e-04  alpha:  9.396e-02  linmin:  3.574e-06  t[s]:   2160.52
	FillingsUpdate:  mu: +0.085346858  nElectrons: 770.000000  magneticMoment: [ Abs: 0.00505  Tot: +0.00014 ]
	SubspaceRotationAdjust: set factor to 0.452
ElecMinimize: Iter:   5  F: -8095.283001096270709  |grad|_K:  5.928e-05  alpha:  1.261e-01  linmin: -1.142e-06  t[s]:   2258.57
	FillingsUpdate:  mu: +0.093430161  nElectrons: 770.000000  magneticMoment: [ Abs: 0.00437  Tot: +0.00012 ]
	SubspaceRotationAdjust: set factor to 0.434
ElecMinimize: Iter:   6  F: -8095.405506365823385  |grad|_K:  4.597e-05  alpha:  1.359e-01  linmin: -3.982e-06  t[s]:   2356.17
	FillingsUpdate:  mu: +0.106754733  nElectrons: 770.000000  magneticMoment: [ Abs: 0.00355  Tot: +0.00009 ]
	SubspaceRotationAdjust: set factor to 0.398
ElecMinimize: Iter:   7  F: -8095.494621562529574  |grad|_K:  4.011e-05  alpha:  1.624e-01  linmin: -6.778e-06  t[s]:   2454.39
	FillingsUpdate:  mu: +0.107266625  nElectrons: 770.000000  magneticMoment: [ Abs: 0.00282  Tot: +0.00008 ]
	SubspaceRotationAdjust: set factor to 0.513
ElecMinimize: Iter:   8  F: -8095.553974763848601  |grad|_K:  2.568e-05  alpha:  1.409e-01  linmin: -1.016e-06  t[s]:   2552.39
	FillingsUpdate:  mu: +0.111563318  nElectrons: 770.000000  magneticMoment: [ Abs: 0.00232  Tot: +0.00007 ]
	SubspaceRotationAdjust: set factor to 0.579
ElecMinimize: Iter:   9  F: -8095.582255909422202  |grad|_K:  2.015e-05  alpha:  1.671e-01  linmin: -1.531e-06  t[s]:   2650.40
	FillingsUpdate:  mu: +0.103951641  nElectrons: 770.000000  magneticMoment: [ Abs: 0.00192  Tot: +0.00007 ]
	SubspaceRotationAdjust: set factor to 0.545
ElecMinimize: Iter:  10  F: -8095.597791853014314  |grad|_K:  1.553e-05  alpha:  1.493e-01  linmin: -1.924e-06  t[s]:   2748.15
	FillingsUpdate:  mu: +0.103065932  nElectrons: 770.000000  magneticMoment: [ Abs: 0.00160  Tot: +0.00006 ]
	SubspaceRotationAdjust: set factor to 0.507
ElecMinimize: Iter:  11  F: -8095.606323525104017  |grad|_K:  1.191e-05  alpha:  1.376e-01  linmin: -1.138e-06  t[s]:   2845.73
	FillingsUpdate:  mu: +0.110047438  nElectrons: 770.000000  magneticMoment: [ Abs: 0.00130  Tot: +0.00005 ]
	SubspaceRotationAdjust: set factor to 0.463
ElecMinimize: Iter:  12  F: -8095.612059006693926  |grad|_K:  8.049e-06  alpha:  1.573e-01  linmin: -1.281e-06  t[s]:   2943.57
	FillingsUpdate:  mu: +0.109147356  nElectrons: 770.000000  magneticMoment: [ Abs: 0.00107  Tot: +0.00005 ]
	SubspaceRotationAdjust: set factor to 0.552
ElecMinimize: Iter:  13  F: -8095.614857074464453  |grad|_K:  6.623e-06  alpha:  1.681e-01  linmin:  1.811e-07  t[s]:   3041.88
	FillingsUpdate:  mu: +0.106789456  nElectrons: 770.000000  magneticMoment: [ Abs: 0.00086  Tot: +0.00004 ]
	SubspaceRotationAdjust: set factor to 0.51
ElecMinimize: Iter:  14  F: -8095.616770528150482  |grad|_K:  5.334e-06  alpha:  1.709e-01  linmin: -2.669e-07  t[s]:   3139.89
	FillingsUpdate:  mu: +0.106010514  nElectrons: 770.000000  magneticMoment: [ Abs: 0.00071  Tot: +0.00004 ]
	SubspaceRotationAdjust: set factor to 0.397
ElecMinimize: Iter:  15  F: -8095.617768803178478  |grad|_K:  3.644e-06  alpha:  1.373e-01  linmin: -2.128e-07  t[s]:   3237.60
	FillingsUpdate:  mu: +0.105327740  nElectrons: 770.000000  magneticMoment: [ Abs: 0.00056  Tot: +0.00003 ]
	SubspaceRotationAdjust: set factor to 0.437
ElecMinimize: Iter:  16  F: -8095.618418277114870  |grad|_K:  3.020e-06  alpha:  1.913e-01  linmin:  2.401e-07  t[s]:   3335.84
	FillingsUpdate:  mu: +0.105511752  nElectrons: 770.000000  magneticMoment: [ Abs: 0.00046  Tot: +0.00003 ]
	SubspaceRotationAdjust: set factor to 0.481
ElecMinimize: Iter:  17  F: -8095.618767992426910  |grad|_K:  2.099e-06  alpha:  1.502e-01  linmin:  2.582e-08  t[s]:   3433.41
	FillingsUpdate:  mu: +0.105777929  nElectrons: 770.000000  magneticMoment: [ Abs: 0.00037  Tot: +0.00002 ]
	SubspaceRotationAdjust: set factor to 0.445
ElecMinimize: Iter:  18  F: -8095.618975090986169  |grad|_K:  1.814e-06  alpha:  1.839e-01  linmin:  5.749e-08  t[s]:   3531.58
	FillingsUpdate:  mu: +0.105519301  nElectrons: 770.000000  magneticMoment: [ Abs: 0.00029  Tot: +0.00002 ]
	SubspaceRotationAdjust: set factor to 0.475
ElecMinimize: Iter:  19  F: -8095.619108028959090  |grad|_K:  1.225e-06  alpha:  1.582e-01  linmin:  1.756e-07  t[s]:   3629.01
	FillingsUpdate:  mu: +0.105503056  nElectrons: 770.000000  magneticMoment: [ Abs: 0.00024  Tot: +0.00002 ]
	SubspaceRotationAdjust: set factor to 0.503
ElecMinimize: Iter:  20  F: -8095.619171682636079  |grad|_K:  9.761e-07  alpha:  1.662e-01  linmin:  1.528e-07  t[s]:   3727.20
	FillingsUpdate:  mu: +0.105459966  nElectrons: 770.000000  magneticMoment: [ Abs: 0.00019  Tot: +0.00002 ]
	SubspaceRotationAdjust: set factor to 0.53
ElecMinimize: Iter:  21  F: -8095.619218662661297  |grad|_K:  7.816e-07  alpha:  1.931e-01  linmin:  7.704e-07  t[s]:   3825.14
	FillingsUpdate:  mu: +0.105289973  nElectrons: 770.000000  magneticMoment: [ Abs: 0.00015  Tot: +0.00001 ]
	SubspaceRotationAdjust: set factor to 0.564
ElecMinimize: Iter:  22  F: -8095.619242532163298  |grad|_K:  5.973e-07  alpha:  1.530e-01  linmin:  2.023e-07  t[s]:   3923.96
	FillingsUpdate:  mu: +0.105210886  nElectrons: 770.000000  magneticMoment: [ Abs: 0.00011  Tot: +0.00001 ]
	SubspaceRotationAdjust: set factor to 0.594
ElecMinimize: Iter:  23  F: -8095.619260922923786  |grad|_K:  5.170e-07  alpha:  2.019e-01  linmin:  6.087e-07  t[s]:   4022.02
	FillingsUpdate:  mu: +0.105188719  nElectrons: 770.000000  magneticMoment: [ Abs: 0.00009  Tot: +0.00001 ]
	SubspaceRotationAdjust: set factor to 0.609
ElecMinimize: Iter:  24  F: -8095.619271404551000  |grad|_K:  3.839e-07  alpha:  1.535e-01  linmin:  8.067e-08  t[s]:   4119.88
	FillingsUpdate:  mu: +0.105174207  nElectrons: 770.000000  magneticMoment: [ Abs: 0.00006  Tot: +0.00001 ]
	SubspaceRotationAdjust: set factor to 0.57
ElecMinimize: Iter:  25  F: -8095.619278331307214  |grad|_K:  3.485e-07  alpha:  1.840e-01  linmin:  3.444e-07  t[s]:   4218.06
	FillingsUpdate:  mu: +0.105183587  nElectrons: 770.000000  magneticMoment: [ Abs: 0.00004  Tot: +0.00000 ]
	SubspaceRotationAdjust: set factor to 0.509
ElecMinimize: Iter:  26  F: -8095.619283706514580  |grad|_K:  2.582e-07  alpha:  1.734e-01  linmin:  2.249e-07  t[s]:   4316.14
	FillingsUpdate:  mu: +0.105125400  nElectrons: 770.000000  magneticMoment: [ Abs: 0.00003  Tot: +0.00000 ]
	SubspaceRotationAdjust: set factor to 0.519
ElecMinimize: Iter:  27  F: -8095.619286461830598  |grad|_K:  2.192e-07  alpha:  1.619e-01  linmin:  1.024e-07  t[s]:   4414.83
	FillingsUpdate:  mu: +0.105086908  nElectrons: 770.000000  magneticMoment: [ Abs: 0.00003  Tot: +0.00000 ]
	SubspaceRotationAdjust: set factor to 0.562
ElecMinimize: Iter:  28  F: -8095.619288875064740  |grad|_K:  1.893e-07  alpha:  1.969e-01  linmin:  4.099e-07  t[s]:   4512.86
	FillingsUpdate:  mu: +0.105127625  nElectrons: 770.000000  magneticMoment: [ Abs: 0.00002  Tot: +0.00000 ]
	SubspaceRotationAdjust: set factor to 0.59
ElecMinimize: Iter:  29  F: -8095.619290437063682  |grad|_K:  1.461e-07  alpha:  1.708e-01  linmin:  2.658e-07  t[s]:   4610.65
	FillingsUpdate:  mu: +0.105143546  nElectrons: 770.000000  magneticMoment: [ Abs: 0.00002  Tot: +0.00000 ]
	SubspaceRotationAdjust: set factor to 0.617
ElecMinimize: Iter:  30  F: -8095.619291391140905  |grad|_K:  1.220e-07  alpha:  1.752e-01  linmin:  1.601e-07  t[s]:   4708.89
	FillingsUpdate:  mu: +0.105126995  nElectrons: 770.000000  magneticMoment: [ Abs: 0.00002  Tot: -0.00000 ]
	SubspaceRotationAdjust: set factor to 0.651
ElecMinimize: Iter:  31  F: -8095.619292053695972  |grad|_K:  1.008e-07  alpha:  1.743e-01  linmin:  2.378e-07  t[s]:   4807.15
	FillingsUpdate:  mu: +0.105093907  nElectrons: 770.000000  magneticMoment: [ Abs: 0.00002  Tot: -0.00000 ]
	SubspaceRotationAdjust: set factor to 0.672
ElecMinimize: Iter:  32  F: -8095.619292518903421  |grad|_K:  8.236e-08  alpha:  1.792e-01  linmin: -8.122e-08  t[s]:   4905.20
	FillingsUpdate:  mu: +0.105077296  nElectrons: 770.000000  magneticMoment: [ Abs: 0.00002  Tot: -0.00000 ]
	SubspaceRotationAdjust: set factor to 0.669
ElecMinimize: Iter:  33  F: -8095.619292788986968  |grad|_K:  6.702e-08  alpha:  1.561e-01  linmin:  2.984e-07  t[s]:   5003.01
	FillingsUpdate:  mu: +0.105095307  nElectrons: 770.000000  magneticMoment: [ Abs: 0.00001  Tot: -0.00000 ]
	SubspaceRotationAdjust: set factor to 0.544
ElecMinimize: Iter:  34  F: -8095.619292978385602  |grad|_K:  5.788e-08  alpha:  1.654e-01  linmin:  2.565e-07  t[s]:   5101.26
	FillingsUpdate:  mu: +0.105112018  nElectrons: 770.000000  magneticMoment: [ Abs: 0.00001  Tot: -0.00000 ]
	SubspaceRotationAdjust: set factor to 0.442
ElecMinimize: Iter:  35  F: -8095.619293104801727  |grad|_K:  4.481e-08  alpha:  1.483e-01  linmin:  1.863e-07  t[s]:   5199.65
	FillingsUpdate:  mu: +0.105101936  nElectrons: 770.000000  magneticMoment: [ Abs: 0.00001  Tot: -0.00000 ]
	SubspaceRotationAdjust: set factor to 0.49
ElecMinimize: Iter:  36  F: -8095.619293185991410  |grad|_K:  3.641e-08  alpha:  1.580e-01  linmin:  1.350e-07  t[s]:   5297.93
	FillingsUpdate:  mu: +0.105091727  nElectrons: 770.000000  magneticMoment: [ Abs: 0.00001  Tot: -0.00000 ]
	SubspaceRotationAdjust: set factor to 0.498
ElecMinimize: Iter:  37  F: -8095.619293243384163  |grad|_K:  2.854e-08  alpha:  1.693e-01  linmin: -1.192e-06  t[s]:   5395.85
ElecMinimize: Converged (|Delta F|<1.000000e-07 for 2 iters).
Setting wave functions to eigenvectors of Hamiltonian
Converging empty states (this may take a while): |deigs|: 1.348e-02
Vacuum energy after initial minimize, F = -8095.619293243384163


-------- Electronic minimization -----------
	Linear fluid (dielectric constant: 78.4, screening length: 8.12261 Bohr) occupying 0.449966 of unit cell:	Completed after 24 iterations at t[s]:   5933.19
	FillingsUpdate:  mu: -0.155102244  nElectrons: 770.000000  magneticMoment: [ Abs: 0.00000  Tot: -0.00000 ]
ElecMinimize: Iter:   0  F: -8095.619270109247736  |grad|_K:  1.290e-06  alpha:  1.000e+00
	Linear fluid (dielectric constant: 78.4, screening length: 8.12261 Bohr) occupying 0.451740 of unit cell:	Completed after 19 iterations at t[s]:   6017.83
	Linear fluid (dielectric constant: 78.4, screening length: 8.12261 Bohr) occupying 0.451344 of unit cell:	Completed after 15 iterations at t[s]:   6047.85
	FillingsUpdate:  mu: -0.151229765  nElectrons: 770.000000  magneticMoment: [ Abs: 0.00000  Tot: -0.00000 ]
	SubspaceRotationAdjust: set factor to 0.502
ElecMinimize: Iter:   1  F: -8095.619596753685073  |grad|_K:  1.518e-06  alpha:  7.720e-01  linmin: -1.319e-07  t[s]:   6085.19
	Linear fluid (dielectric constant: 78.4, screening length: 8.12261 Bohr) occupying 0.453406 of unit cell:	Completed after 18 iterations at t[s]:   6126.27
	Linear fluid (dielectric constant: 78.4, screening length: 8.12261 Bohr) occupying 0.451829 of unit cell:	Completed after 16 iterations at t[s]:   6156.92
	FillingsUpdate:  mu: -0.151589289  nElectrons: 770.000000  magneticMoment: [ Abs: 0.00000  Tot: -0.00000 ]
	SubspaceRotationAdjust: set factor to 0.58
ElecMinimize: Iter:   2  F: -8095.619699038992621  |grad|_K:  1.324e-06  alpha:  1.736e-01  linmin:  7.623e-08  t[s]:   6194.65
	Linear fluid (dielectric constant: 78.4, screening length: 8.12261 Bohr) occupying 0.452241 of unit cell:	Completed after 11 iterations at t[s]:   6234.56
	Linear fluid (dielectric constant: 78.4, screening length: 8.12261 Bohr) occupying 0.452198 of unit cell:	Completed after 6 iterations at t[s]:   6263.01
	FillingsUpdate:  mu: -0.152214282  nElectrons: 770.000000  magneticMoment: [ Abs: 0.00000  Tot: -0.00000 ]
	SubspaceRotationAdjust: set factor to 0.635
ElecMinimize: Iter:   3  F: -8095.619768441319138  |grad|_K:  8.242e-07  alpha:  1.554e-01  linmin:  3.261e-09  t[s]:   6300.47
	Linear fluid (dielectric constant: 78.4, screening length: 8.12261 Bohr) occupying 0.452390 of unit cell:	Completed after 11 iterations at t[s]:   6340.76
	Linear fluid (dielectric constant: 78.4, screening length: 8.12261 Bohr) occupying 0.452512 of unit cell:	Completed after 10 iterations at t[s]:   6370.12
	FillingsUpdate:  mu: -0.151598328  nElectrons: 770.000000  magneticMoment: [ Abs: 0.00000  Tot: -0.00000 ]
	SubspaceRotationAdjust: set factor to 0.665
ElecMinimize: Iter:   4  F: -8095.619812777635161  |grad|_K:  6.114e-07  alpha:  2.552e-01  linmin: -6.377e-08  t[s]:   6407.80
	Linear fluid (dielectric constant: 78.4, screening length: 8.12261 Bohr) occupying 0.452707 of unit cell:	Completed after 10 iterations at t[s]:   6447.74
	Linear fluid (dielectric constant: 78.4, screening length: 8.12261 Bohr) occupying 0.452621 of unit cell:	Completed after 8 iterations at t[s]:   6476.35
	FillingsUpdate:  mu: -0.151402467  nElectrons: 770.000000  magneticMoment: [ Abs: 0.00000  Tot: -0.00000 ]
	SubspaceRotationAdjust: set factor to 0.757
ElecMinimize: Iter:   5  F: -8095.619826362509230  |grad|_K:  4.007e-07  alpha:  1.421e-01  linmin:  1.837e-08  t[s]:   6514.14
	Linear fluid (dielectric constant: 78.4, screening length: 8.12261 Bohr) occupying 0.452672 of unit cell:	Completed after 6 iterations at t[s]:   6553.21
	Linear fluid (dielectric constant: 78.4, screening length: 8.12261 Bohr) occupying 0.452704 of unit cell:	Completed after 6 iterations at t[s]:   6581.58
	FillingsUpdate:  mu: -0.151500400  nElectrons: 770.000000  magneticMoment: [ Abs: 0.00000  Tot: -0.00000 ]
	SubspaceRotationAdjust: set factor to 0.789
ElecMinimize: Iter:   6  F: -8095.619835790200341  |grad|_K:  3.452e-07  alpha:  2.300e-01  linmin:  1.539e-08  t[s]:   6619.29
	Linear fluid (dielectric constant: 78.4, screening length: 8.12261 Bohr) occupying 0.452773 of unit cell:	Completed after 5 iterations at t[s]:   6657.74
	Linear fluid (dielectric constant: 78.4, screening length: 8.12261 Bohr) occupying 0.452745 of unit cell:	Completed after 3 iterations at t[s]:   6685.53
	FillingsUpdate:  mu: -0.151562626  nElectrons: 770.000000  magneticMoment: [ Abs: 0.00000  Tot: -0.00000 ]
	SubspaceRotationAdjust: set factor to 0.887
ElecMinimize: Iter:   7  F: -8095.619839932664036  |grad|_K:  2.246e-07  alpha:  1.361e-01  linmin:  2.482e-08  t[s]:   6723.14
	Linear fluid (dielectric constant: 78.4, screening length: 8.12261 Bohr) occupying 0.452766 of unit cell:	Completed after 7 iterations at t[s]:   6762.05
	Linear fluid (dielectric constant: 78.4, screening length: 8.12261 Bohr) occupying 0.452769 of unit cell:	Completed after 2 iterations at t[s]:   6789.61
	FillingsUpdate:  mu: -0.151522416  nElectrons: 770.000000  magneticMoment: [ Abs: 0.00000  Tot: -0.00000 ]
	SubspaceRotationAdjust: set factor to 0.829
ElecMinimize: Iter:   8  F: -8095.619841967230059  |grad|_K:  1.522e-07  alpha:  1.578e-01  linmin: -2.775e-07  t[s]:   6827.05
	Linear fluid (dielectric constant: 78.4, screening length: 8.12261 Bohr) occupying 0.452778 of unit cell:	Completed after 5 iterations at t[s]:   6865.81
	Linear fluid (dielectric constant: 78.4, screening length: 8.12261 Bohr) occupying 0.452781 of unit cell:	Completed after 2 iterations at t[s]:   6893.41
	FillingsUpdate:  mu: -0.151487799  nElectrons: 770.000000  magneticMoment: [ Abs: 0.00000  Tot: -0.00000 ]
	SubspaceRotationAdjust: set factor to 0.812
ElecMinimize: Iter:   9  F: -8095.619843122347447  |grad|_K:  1.263e-07  alpha:  1.946e-01  linmin: -1.538e-07  t[s]:   6931.15
	Linear fluid (dielectric constant: 78.4, screening length: 8.12261 Bohr) occupying 0.452786 of unit cell:	Completed after 2 iterations at t[s]:   6969.45
	Linear fluid (dielectric constant: 78.4, screening length: 8.12261 Bohr) occupying 0.452785 of unit cell:	Completed after 1 iterations at t[s]:   6996.71
	FillingsUpdate:  mu: -0.151512752  nElectrons: 770.000000  magneticMoment: [ Abs: 0.00000  Tot: -0.00000 ]
	SubspaceRotationAdjust: set factor to 0.885
ElecMinimize: Iter:  10  F: -8095.619843807391590  |grad|_K:  8.922e-08  alpha:  1.686e-01  linmin:  3.269e-08  t[s]:   7034.44
	Linear fluid (dielectric constant: 78.4, screening length: 8.12261 Bohr) occupying 0.452787 of unit cell:	Completed after 3 iterations at t[s]:   7072.56
	Linear fluid (dielectric constant: 78.4, screening length: 8.12261 Bohr) occupying 0.452787 of unit cell:	Completed after 0 iterations at t[s]:   7099.52
	FillingsUpdate:  mu: -0.151517475  nElectrons: 770.000000  magneticMoment: [ Abs: 0.00000  Tot: -0.00000 ]
	SubspaceRotationAdjust: set factor to 1
ElecMinimize: Iter:  11  F: -8095.619844100716364  |grad|_K:  6.212e-08  alpha:  1.432e-01  linmin:  1.660e-05  t[s]:   7136.88
	Linear fluid (dielectric constant: 78.4, screening length: 8.12261 Bohr) occupying 0.452787 of unit cell:	Completed after 2 iterations at t[s]:   7175.11
	Linear fluid (dielectric constant: 78.4, screening length: 8.12261 Bohr) occupying 0.452787 of unit cell:	Completed after 0 iterations at t[s]:   7202.11
	FillingsUpdate:  mu: -0.151510658  nElectrons: 770.000000  magneticMoment: [ Abs: 0.00000  Tot: -0.00000 ]
	SubspaceRotationAdjust: set factor to 1
ElecMinimize: Iter:  12  F: -8095.619844266149812  |grad|_K:  4.841e-08  alpha:  1.715e-01  linmin: -7.549e-06  t[s]:   7241.08
	Linear fluid (dielectric constant: 78.4, screening length: 8.12261 Bohr) occupying 0.452784 of unit cell:	Completed after 2 iterations at t[s]:   7279.27
	Linear fluid (dielectric constant: 78.4, screening length: 8.12261 Bohr) occupying 0.452784 of unit cell:	Completed after 0 iterations at t[s]:   7306.21
	FillingsUpdate:  mu: -0.151512172  nElectrons: 770.000000  magneticMoment: [ Abs: 0.00000  Tot: -0.00000 ]
	SubspaceRotationAdjust: set factor to 1.01
ElecMinimize: Iter:  13  F: -8095.619844379882124  |grad|_K:  3.925e-08  alpha:  1.753e-01  linmin: -5.695e-07  t[s]:   7343.81
	Linear fluid (dielectric constant: 78.4, screening length: 8.12261 Bohr) occupying 0.452780 of unit cell:	Completed after 1 iterations at t[s]:   7381.90
	Linear fluid (dielectric constant: 78.4, screening length: 8.12261 Bohr) occupying 0.452780 of unit cell:	Completed after 0 iterations at t[s]:   7408.87
	FillingsUpdate:  mu: -0.151529119  nElectrons: 770.000000  magneticMoment: [ Abs: 0.00000  Tot: -0.00000 ]
	SubspaceRotationAdjust: set factor to 1.14
ElecMinimize: Iter:  14  F: -8095.619844445261151  |grad|_K:  3.056e-08  alpha:  1.630e-01  linmin:  3.850e-07  t[s]:   7446.45
	Linear fluid (dielectric constant: 78.4, screening length: 8.12261 Bohr) occupying 0.452778 of unit cell:	Completed after 2 iterations at t[s]:   7484.88
	Linear fluid (dielectric constant: 78.4, screening length: 8.12261 Bohr) occupying 0.452778 of unit cell:	Completed after 0 iterations at t[s]:   7511.90
	FillingsUpdate:  mu: -0.151537174  nElectrons: 770.000000  magneticMoment: [ Abs: 0.00000  Tot: -0.00000 ]
	SubspaceRotationAdjust: set factor to 1.31
ElecMinimize: Iter:  15  F: -8095.619844489784555  |grad|_K:  2.332e-08  alpha:  1.862e-01  linmin: -2.840e-06  t[s]:   7549.67
ElecMinimize: Converged (|Delta F|<1.000000e-07 for 2 iters).
Setting wave functions to eigenvectors of Hamiltonian
Converging empty states (this may take a while): |deigs|: 1.450e-04
Single-point solvation energy estimate, DeltaF = -0.000551246400391

Computing DFT-D3 correction:
# coordination-number Cu 8.319 8.288 8.288 8.288 8.918 8.918 8.918 8.918 9.035 9.035 9.035 9.035 6.874 6.874 6.874 6.874 4.959 4.945 4.959 5.961 9.034 9.028 9.028 9.028 8.920 8.920 8.920 8.920 8.294 8.294 8.294 8.294 4.947 4.947 4.947 4.947 7.137 6.870 7.138 6.870
# coordination-number C 2.587
# coordination-number O 1.058
# diagonal-C6 Cu 175.00 175.00 175.00 175.00 175.00 175.00 175.00 175.00 175.00 175.00 175.00 175.00 175.00 175.00 175.00 175.00 175.00 175.00 175.00 175.00 175.00 175.00 175.00 175.00 175.00 175.00 175.00 175.00 175.00 175.00 175.00 175.00 175.00 175.00 175.00 175.00 175.00 175.00 175.00 175.00
# diagonal-C6 C 26.93
# diagonal-C6 O 12.76
EvdW_6 =   -0.208476
EvdW_8 =   -0.326551

# Ionic positions in cartesian coordinates:
ion Cu   3.374454999999999   1.518659000000000  11.420712999999997 0
ion Cu   0.003943000000000   9.055351000000002  11.420712999999997 0
ion Cu  10.115479000000001   1.518659000000000  11.420712999999997 0
ion Cu   6.744966999999997   9.055351000000002  11.420712999999997 0
ion Cu   0.000344000000000   2.995850000000000   8.272439999999998 0
ion Cu  -3.370168000000001  10.532543000000000   8.272439999999998 0
ion Cu   6.741367000000000   2.995850000000000   8.272439999999998 0
ion Cu   3.370855999999998  10.532543000000000   8.272439999999998 0
ion Cu   3.367713999999999   4.556338000000000   5.270771000000000 0
ion Cu  -0.002791000000002  12.093015000000001   5.270771000000000 0
ion Cu  10.108750999999998   4.556338000000000   5.270771000000000 0
ion Cu   6.738232999999997  12.093015000000001   5.270771000000000 0
ion Cu  -0.002959000000001   6.045498000000001   2.187299000000000 0
ion Cu  -3.373471000000001  13.582190000000002   2.187299000000000 0
ion Cu   6.738077999999999   6.045498000000001   2.187299000000000 0
ion Cu   3.367565999999998  13.582190000000002   2.187299000000000 0
ion Cu   6.744669999999997  15.039877000000001  14.212244000000000 0
ion Cu  10.115181999999999   7.503185000000001  14.212244000000000 0
ion Cu   0.003646999999998  15.039877000000001  14.212244000000000 0
ion Cu   3.374158999999998   7.503185000000001  14.212244000000000 0
ion Cu   3.373288999999999   5.995801000000001   9.801515000000000 0
ion Cu   0.002770999999998  13.532508999999999   9.801515000000000 0
ion Cu  10.114312999999997   5.995801000000001   9.801515000000000 0
ion Cu   6.743807999999997  13.532508999999999   9.801515000000000 0
ion Cu   3.370235000000000   0.020545000000000   6.798760999999999 0
ion Cu  -0.000276000000001   7.557238000000001   6.798760999999999 0
ion Cu  10.111258999999999   0.020545000000000   6.798760999999999 0
ion Cu   6.740746999999999   7.557238000000001   6.798760999999999 0
ion Cu  -0.004564000000000   1.496471000000000   3.652749000000000 0
ion Cu  -3.375075000000001   9.033163000000002   3.652749000000000 0
ion Cu   6.736459999999999   1.496471000000000   3.652749000000000 0
ion Cu   3.365947999999998   9.033163000000002   3.652749000000000 0
ion Cu   3.366999999999999   3.046346000000001   0.863298000000000 0
ion Cu  -0.003519000000002  10.583054000000001   0.863298000000000 0
ion Cu  10.108022999999998   3.046346000000001   0.863298000000000 0
ion Cu   6.737504999999997  10.583054000000001   0.863298000000000 0
ion Cu   0.003383999999999   4.504741000000000  12.887157999999999 0
ion Cu  -3.367128000000000  12.041434000000001  12.887157999999999 0
ion Cu   6.744406999999997   4.504741000000000  12.887157999999999 0
ion Cu   3.373895999999998  12.041434000000001  12.887157999999999 0
ion C   3.373895999999998   4.504741000000000  16.214411999999999 1  Linear 0 0 1
ion O   3.433984999999999   4.504741000000000  18.369739999999997 1  Linear 0 0 1

# Forces in Cartesian coordinates:
force Cu  -0.000020687391625  -0.004238213105284  -0.004151328160732 0
force Cu  -0.000705759330295   0.001453314766102  -0.000122874283484 0
force Cu  -0.000117199936581   0.000813861750496   0.000197397965252 0
force Cu   0.000410346458532   0.001861333970369  -0.000286265924592 0
force Cu   0.000682913729063   0.000442993641712   0.001408271094299 0
force Cu  -0.000189742374627  -0.000178390058950   0.000500269096062 0
force Cu  -0.000575800743257   0.000657835828118   0.001387255624417 0
force Cu   0.000066434693248   0.000513895822953   0.000964179153233 0
force Cu   0.000327051536976   0.000360916195427  -0.001726323015163 0
force Cu   0.000105769086722   0.000105260741067  -0.000438289714988 0
force Cu   0.000105133952880   0.000573079783924  -0.000049645294518 0
force Cu   0.000299193161006   0.000134939447362  -0.000120493947473 0
force Cu  -0.000243897271073  -0.000131901406762   0.000731403937127 0
force Cu  -0.000034437990023  -0.000727124116913   0.000036854787944 0
force Cu   0.000056443129465   0.000160478068362   0.000841739871132 0
force Cu  -0.000072058882836   0.000189685189569   0.000493978830292 0
force Cu  -0.000482858254840  -0.001564952062952   0.000043003099997 0
force Cu  -0.000001052105947  -0.000187941503518  -0.000971252554021 0
force Cu   0.000319312454258  -0.001437539363552  -0.000526563750784 0
force Cu  -0.000345563731224   0.007634386477403  -0.006776910089815 0
force Cu  -0.000167872358914   0.000408327875253  -0.008283897681869 0
force Cu   0.000103253864484   0.000064815480559   0.000562616035174 0
force Cu   0.000158710205517  -0.000699658625529   0.001599228278504 0
force Cu  -0.000118186900749   0.000072503894125   0.000604901770568 0
force Cu  -0.000139337316564  -0.000395828680179  -0.000640297263248 0
force Cu  -0.000699053393504   0.000274673721694  -0.000708142129637 0
force Cu  -0.000066965817847  -0.000089722276759  -0.000086111738492 0
force Cu   0.000494190820935   0.000073638111164  -0.000145770632121 0
force Cu  -0.000185670014897  -0.000325693239880   0.000280604721323 0
force Cu   0.000332243936687  -0.000131057337893  -0.000827371698881 0
force Cu   0.000084159561803  -0.000488028896350   0.000787486664335 0
force Cu  -0.000211453374835  -0.000806582065603   0.000779656092594 0
force Cu  -0.000225067568438   0.000686755054892  -0.000172763420648 0
force Cu  -0.000655269099073   0.000475581329873  -0.000201242257112 0
force Cu   0.000239951472743   0.000648973853150  -0.000268396806635 0
force Cu   0.000848469506439   0.000483282515000  -0.000305243970446 0
force Cu  -0.001876223942592  -0.001038333425811   0.004041017099138 0
force Cu   0.000138421203898  -0.000033225471615  -0.000534195155387 0
force Cu   0.002400124013952  -0.001709826985893   0.003550523152376 0
force Cu   0.000277484897421  -0.001809813678358  -0.000167344413792 0
force C  -0.001738937932413   0.010579892962151  -0.064853258552635 1  Linear 0 0 1
force O   0.001385398374291  -0.012706732562594   0.073661443375767 1  Linear 0 0 1

# Energy components:
   A_diel =       -0.0013734942836725
   Eewald =    25272.8409620677630301
       EH =    32686.6900786173137021
     Eloc =   -67579.4204497378523229
      Enl =     1468.1003583778888242
     EvdW =       -0.5350274773698294
      Exc =     -781.4170881402118312
 Exc_core =        1.9776323486283478
       KE =      836.1461340322412070
-------------------------------------
     Etot =    -8095.6187734058830756
       TS =        0.0010710839011246
-------------------------------------
        F =    -8095.6198444897845548


Dumping 'jdft.fillings' ... done
Dumping 'jdft.wfns' ... done
Dumping 'jdft.fluidState' ... done
Dumping 'jdft.ionpos' ... done
Dumping 'jdft.lattice' ... done
Dumping 'jdft.eigenvals' ... done
Dumping 'jdft.eigStats' ... 
	eMin: -4.299688 at state 0 ( [ +0.000000 +0.000000 +0.000000 ] spin 1 )
	HOMO: -0.151897 at state 6 ( [ +0.500000 +0.333333 +0.000000 ] spin 1 )
	mu  : -0.151537
	LUMO: -0.149409 at state 13 ( [ +0.500000 +0.333333 +0.000000 ] spin -1 )
	eMax: +0.177756 at state 2 ( [ +0.250000 +0.000000 +0.000000 ] spin 1 )
	HOMO-LUMO gap: +0.002488
	Optical gap  : +0.002488 at state 6 ( [ +0.500000 +0.333333 +0.000000 ] spin 1 )
Dumping 'jdft.Ecomponents' ... done
IonicMinimize: Iter:   0  F: -8095.619844489784555  |grad|_K:  6.940e-02  t[s]:   8050.86

#--- Lowdin population analysis ---
# oxidation-state Cu +0.041 +0.026 +0.025 +0.027 +0.073 +0.070 +0.072 +0.077 +0.045 +0.045 +0.046 +0.046 +0.056 +0.055 +0.058 +0.058 +0.232 +0.244 +0.232 +0.072 +0.054 +0.046 +0.051 +0.046 +0.075 +0.075 +0.074 +0.076 +0.026 +0.025 +0.027 +0.030 +0.248 +0.239 +0.244 +0.239 +0.050 +0.057 +0.049 +0.060
# magnetic-moments Cu +0.000 -0.000 -0.000 -0.000 -0.000 -0.000 -0.000 -0.000 -0.000 +0.000 +0.000 +0.000 -0.000 -0.000 -0.000 -0.000 +0.000 +0.000 +0.000 +0.000 -0.000 -0.000 -0.000 -0.000 -0.000 -0.000 -0.000 -0.000 +0.000 +0.000 +0.000 +0.000 +0.000 +0.000 +0.000 +0.000 +0.000 -0.000 -0.000 +0.000
# oxidation-state C +0.340
# magnetic-moments C -0.000
# oxidation-state O -0.126
# magnetic-moments O +0.000


Computing DFT-D3 correction:
# coordination-number Cu 8.322 8.289 8.288 8.289 8.918 8.918 8.918 8.918 9.035 9.035 9.035 9.035 6.874 6.874 6.874 6.874 4.960 4.945 4.960 5.959 9.034 9.028 9.028 9.028 8.920 8.920 8.920 8.920 8.294 8.294 8.294 8.294 4.947 4.947 4.947 4.947 7.166 6.870 7.167 6.870
# coordination-number C 2.656
# coordination-number O 1.051
# diagonal-C6 Cu 175.00 175.00 175.00 175.00 175.00 175.00 175.00 175.00 175.00 175.00 175.00 175.00 175.00 175.00 175.00 175.00 175.00 175.00 175.00 175.00 175.00 175.00 175.00 175.00 175.00 175.00 175.00 175.00 175.00 175.00 175.00 175.00 175.00 175.00 175.00 175.00 175.00 175.00 175.00 175.00
# diagonal-C6 C 26.54
# diagonal-C6 O 12.77
EvdW_6 =   -0.208435
EvdW_8 =   -0.326492

-------- Electronic minimization -----------
	Linear fluid (dielectric constant: 78.4, screening length: 8.12261 Bohr) occupying 0.452691 of unit cell:	Completed after 21 iterations at t[s]:   8091.74
	FillingsUpdate:  mu: -0.151101165  nElectrons: 770.000000  magneticMoment: [ Abs: 0.00000  Tot: -0.00000 ]
ElecMinimize: Iter:   0  F: -8095.553060743622154  |grad|_K:  2.186e-05  alpha:  1.000e+00
	Linear fluid (dielectric constant: 78.4, screening length: 8.12261 Bohr) occupying 0.450982 of unit cell:	Completed after 22 iterations at t[s]:   8177.45
	Linear fluid (dielectric constant: 78.4, screening length: 8.12261 Bohr) occupying 0.452048 of unit cell:	Completed after 22 iterations at t[s]:   8209.11
	FillingsUpdate:  mu: -0.146349530  nElectrons: 770.000000  magneticMoment: [ Abs: 0.00000  Tot: +0.00000 ]
	SubspaceRotationAdjust: set factor to 0.919
ElecMinimize: Iter:   1  F: -8095.610006797466667  |grad|_K:  1.371e-05  alpha:  4.583e-01  linmin: -1.990e-04  t[s]:   8246.27
	Linear fluid (dielectric constant: 78.4, screening length: 8.12261 Bohr) occupying 0.455264 of unit cell:	Completed after 25 iterations at t[s]:   8288.59
	Linear fluid (dielectric constant: 78.4, screening length: 8.12261 Bohr) occupying 0.451922 of unit cell:	Completed after 24 iterations at t[s]:   8320.78
	FillingsUpdate:  mu: -0.158539948  nElectrons: 770.000000  magneticMoment: [ Abs: 0.00000  Tot: +0.00000 ]
	SubspaceRotationAdjust: set factor to 0.84
ElecMinimize: Iter:   2  F: -8095.615099935965191  |grad|_K:  8.172e-06  alpha:  9.195e-02  linmin: -1.125e-03  t[s]:   8358.85
	Linear fluid (dielectric constant: 78.4, screening length: 8.12261 Bohr) occupying 0.452067 of unit cell:	Completed after 13 iterations at t[s]:   8399.21
	Linear fluid (dielectric constant: 78.4, screening length: 8.12261 Bohr) occupying 0.452171 of unit cell:	Completed after 13 iterations at t[s]:   8428.66
	FillingsUpdate:  mu: -0.158949536  nElectrons: 770.000000  magneticMoment: [ Abs: 0.00000  Tot: +0.00000 ]
	SubspaceRotationAdjust: set factor to 0.95
ElecMinimize: Iter:   3  F: -8095.617968167035542  |grad|_K:  5.853e-06  alpha:  1.501e-01  linmin:  1.410e-04  t[s]:   8466.73
	Linear fluid (dielectric constant: 78.4, screening length: 8.12261 Bohr) occupying 0.452510 of unit cell:	Completed after 18 iterations at t[s]:   8507.70
	Linear fluid (dielectric constant: 78.4, screening length: 8.12261 Bohr) occupying 0.452479 of unit cell:	Completed after 10 iterations at t[s]:   8537.02
	FillingsUpdate:  mu: -0.154510470  nElectrons: 770.000000  magneticMoment: [ Abs: 0.00000  Tot: +0.00000 ]
	SubspaceRotationAdjust: set factor to 1.05
ElecMinimize: Iter:   4  F: -8095.619135926935087  |grad|_K:  3.646e-06  alpha:  1.364e-01  linmin:  1.654e-06  t[s]:   8575.02
	Linear fluid (dielectric constant: 78.4, screening length: 8.12261 Bohr) occupying 0.452603 of unit cell:	Completed after 16 iterations at t[s]:   8615.71
	Linear fluid (dielectric constant: 78.4, screening length: 8.12261 Bohr) occupying 0.452656 of unit cell:	Completed after 12 iterations at t[s]:   8645.25
	FillingsUpdate:  mu: -0.152577797  nElectrons: 770.000000  magneticMoment: [ Abs: 0.00000  Tot: +0.00000 ]
	SubspaceRotationAdjust: set factor to 1.22
ElecMinimize: Iter:   5  F: -8095.619795082873679  |grad|_K:  2.800e-06  alpha:  1.942e-01  linmin: -1.865e-07  t[s]:   8683.24
	Linear fluid (dielectric constant: 78.4, screening length: 8.12261 Bohr) occupying 0.452732 of unit cell:	Completed after 18 iterations at t[s]:   8724.35
	Linear fluid (dielectric constant: 78.4, screening length: 8.12261 Bohr) occupying 0.452707 of unit cell:	Completed after 15 iterations at t[s]:   8754.59
	FillingsUpdate:  mu: -0.154192091  nElectrons: 770.000000  magneticMoment: [ Abs: 0.00000  Tot: +0.00000 ]
	SubspaceRotationAdjust: set factor to 1.24
ElecMinimize: Iter:   6  F: -8095.620056168272640  |grad|_K:  1.847e-06  alpha:  1.304e-01  linmin: -4.338e-07  t[s]:   8792.56
	Linear fluid (dielectric constant: 78.4, screening length: 8.12261 Bohr) occupying 0.452730 of unit cell:	Completed after 16 iterations at t[s]:   8833.23
	Linear fluid (dielectric constant: 78.4, screening length: 8.12261 Bohr) occupying 0.452737 of unit cell:	Completed after 10 iterations at t[s]:   8862.33
	FillingsUpdate:  mu: -0.155683881  nElectrons: 770.000000  magneticMoment: [ Abs: 0.00000  Tot: +0.00000 ]
	SubspaceRotationAdjust: set factor to 1.13
ElecMinimize: Iter:   7  F: -8095.620206870812581  |grad|_K:  1.536e-06  alpha:  1.730e-01  linmin:  2.820e-06  t[s]:   8900.38
	Linear fluid (dielectric constant: 78.4, screening length: 8.12261 Bohr) occupying 0.452888 of unit cell:	Completed after 15 iterations at t[s]:   8940.86
	Linear fluid (dielectric constant: 78.4, screening length: 8.12261 Bohr) occupying 0.452836 of unit cell:	Completed after 11 iterations at t[s]:   8970.20
	FillingsUpdate:  mu: -0.153992935  nElectrons: 770.000000  magneticMoment: [ Abs: 0.00000  Tot: +0.00000 ]
	SubspaceRotationAdjust: set factor to 0.992
ElecMinimize: Iter:   8  F: -8095.620275052805482  |grad|_K:  9.774e-07  alpha:  1.131e-01  linmin:  4.154e-07  t[s]:   9008.28
	Linear fluid (dielectric constant: 78.4, screening length: 8.12261 Bohr) occupying 0.452875 of unit cell:	Completed after 9 iterations at t[s]:   9047.69
	Linear fluid (dielectric constant: 78.4, screening length: 8.12261 Bohr) occupying 0.452892 of unit cell:	Completed after 7 iterations at t[s]:   9076.30
	FillingsUpdate:  mu: -0.153734330  nElectrons: 770.000000  magneticMoment: [ Abs: 0.00000  Tot: +0.00000 ]
	SubspaceRotationAdjust: set factor to 1.15
ElecMinimize: Iter:   9  F: -8095.620315046157884  |grad|_K:  8.353e-07  alpha:  1.639e-01  linmin:  5.034e-07  t[s]:   9114.04
	Linear fluid (dielectric constant: 78.4, screening length: 8.12261 Bohr) occupying 0.452912 of unit cell:	Completed after 11 iterations at t[s]:   9153.45
	Linear fluid (dielectric constant: 78.4, screening length: 8.12261 Bohr) occupying 0.452909 of unit cell:	Completed after 6 iterations at t[s]:   9181.79
	FillingsUpdate:  mu: -0.154237399  nElectrons: 770.000000  magneticMoment: [ Abs: 0.00000  Tot: +0.00000 ]
	SubspaceRotationAdjust: set factor to 1.16
ElecMinimize: Iter:  10  F: -8095.620339965031235  |grad|_K:  4.764e-07  alpha:  1.398e-01  linmin:  9.098e-06  t[s]:   9219.63
	Linear fluid (dielectric constant: 78.4, screening length: 8.12261 Bohr) occupying 0.452898 of unit cell:	Completed after 10 iterations at t[s]:   9259.29
	Linear fluid (dielectric constant: 78.4, screening length: 8.12261 Bohr) occupying 0.452897 of unit cell:	Completed after 2 iterations at t[s]:   9286.81
	FillingsUpdate:  mu: -0.154481709  nElectrons: 770.000000  magneticMoment: [ Abs: 0.00000  Tot: +0.00000 ]
	SubspaceRotationAdjust: set factor to 1.09
ElecMinimize: Iter:  11  F: -8095.620348562285471  |grad|_K:  3.673e-07  alpha:  1.484e-01  linmin: -3.040e-05  t[s]:   9324.77
	Linear fluid (dielectric constant: 78.4, screening length: 8.12261 Bohr) occupying 0.452905 of unit cell:	Completed after 8 iterations at t[s]:   9364.14
	Linear fluid (dielectric constant: 78.4, screening length: 8.12261 Bohr) occupying 0.452906 of unit cell:	Completed after 2 iterations at t[s]:   9391.65
	FillingsUpdate:  mu: -0.154264845  nElectrons: 770.000000  magneticMoment: [ Abs: 0.00000  Tot: +0.00000 ]
	SubspaceRotationAdjust: set factor to 1.07
ElecMinimize: Iter:  12  F: -8095.620354004253386  |grad|_K:  2.625e-07  alpha:  1.571e-01  linmin:  1.282e-05  t[s]:   9429.44
	Linear fluid (dielectric constant: 78.4, screening length: 8.12261 Bohr) occupying 0.452912 of unit cell:	Completed after 6 iterations at t[s]:   9468.53
	Linear fluid (dielectric constant: 78.4, screening length: 8.12261 Bohr) occupying 0.452913 of unit cell:	Completed after 2 iterations at t[s]:   9496.05
	FillingsUpdate:  mu: -0.154126906  nElectrons: 770.000000  magneticMoment: [ Abs: 0.00000  Tot: +0.00000 ]
	SubspaceRotationAdjust: set factor to 1.17
ElecMinimize: Iter:  13  F: -8095.620357074388266  |grad|_K:  2.388e-07  alpha:  1.748e-01  linmin: -2.246e-05  t[s]:   9533.79
	Linear fluid (dielectric constant: 78.4, screening length: 8.12261 Bohr) occupying 0.452915 of unit cell:	Completed after 8 iterations at t[s]:   9573.28
	Linear fluid (dielectric constant: 78.4, screening length: 8.12261 Bohr) occupying 0.452914 of unit cell:	Completed after 2 iterations at t[s]:   9600.66
	FillingsUpdate:  mu: -0.154298465  nElectrons: 770.000000  magneticMoment: [ Abs: 0.00000  Tot: +0.00000 ]
	SubspaceRotationAdjust: set factor to 1.15
[...]
ion Cu   6.738077999999999   6.045498000000001   2.187299000000000 0
ion Cu   3.367565999999998  13.582190000000002   2.187299000000000 0
ion Cu   6.744669999999997  15.039877000000001  14.212244000000000 0
ion Cu  10.115181999999999   7.503185000000001  14.212244000000000 0
ion Cu   0.003646999999998  15.039877000000001  14.212244000000000 0
ion Cu   3.374158999999998   7.503185000000001  14.212244000000000 0
ion Cu   3.373288999999999   5.995801000000001   9.801515000000000 0
ion Cu   0.002770999999998  13.532508999999999   9.801515000000000 0
ion Cu  10.114312999999997   5.995801000000001   9.801515000000000 0
ion Cu   6.743807999999997  13.532508999999999   9.801515000000000 0
ion Cu   3.370235000000000   0.020545000000000   6.798760999999999 0
ion Cu  -0.000276000000001   7.557238000000001   6.798760999999999 0
ion Cu  10.111258999999999   0.020545000000000   6.798760999999999 0
ion Cu   6.740746999999999   7.557238000000001   6.798760999999999 0
ion Cu  -0.004564000000000   1.496471000000000   3.652749000000000 0
ion Cu  -3.375075000000001   9.033163000000002   3.652749000000000 0
ion Cu   6.736459999999999   1.496471000000000   3.652749000000000 0
ion Cu   3.365947999999998   9.033163000000002   3.652749000000000 0
ion Cu   3.366999999999999   3.046346000000001   0.863298000000000 0
ion Cu  -0.003519000000002  10.583054000000001   0.863298000000000 0
ion Cu  10.108022999999998   3.046346000000001   0.863298000000000 0
ion Cu   6.737504999999997  10.583054000000001   0.863298000000000 0
ion Cu   0.003383999999999   4.504741000000000  12.887157999999999 0
ion Cu  -3.367128000000000  12.041434000000001  12.887157999999999 0
ion Cu   6.744406999999997   4.504741000000000  12.887157999999999 0
ion Cu   3.373895999999998  12.041434000000001  12.887157999999999 0
ion C   3.373895999999998   4.504741000000000  16.381271812373509 1  Linear 0 0 1
ion O   3.433984999999999   4.504741000000000  18.600109454648777 1  Linear 0 0 1

# Forces in Cartesian coordinates:
force Cu  -0.000026392956605  -0.003895461881071  -0.004226836411447 0
force Cu  -0.000587079058294   0.001255508186094  -0.000043539805394 0
force Cu  -0.000103904031994   0.000709597292747   0.000225705756378 0
force Cu   0.000317326818278   0.001691177120685  -0.000216926295281 0
force Cu   0.000668528560640   0.000434232666675   0.001410542937422 0
force Cu  -0.000190335094165  -0.000258523939690   0.000506999699470 0
force Cu  -0.000573619426226   0.000641466716993   0.001411653953069 0
force Cu   0.000062556019760   0.000484293597225   0.000788196442022 0
force Cu   0.000312872285103   0.000447092654299  -0.001739711253402 0
force Cu   0.000108859210141   0.000134599199563  -0.000535496534647 0
force Cu   0.000088762771650   0.000602263881533  -0.000041196428892 0
force Cu   0.000275788442427   0.000161727404064  -0.000188581603637 0
force Cu  -0.000281173076014  -0.000132939671988   0.000711029463029 0
force Cu  -0.000027222258163  -0.000825024697091   0.000014613492126 0
force Cu   0.000101767564127   0.000172340303807   0.000846115588169 0
force Cu  -0.000065460401043   0.000153623556376   0.000559056239590 0
force Cu  -0.000188991493066  -0.001240864616366   0.000346922369956 0
force Cu  -0.000005453420449  -0.000296997200712  -0.000831040662421 0
force Cu   0.000028265422373  -0.001112306330895  -0.000211105410039 0
force Cu  -0.000294309394284  -0.000185491987425   0.000361207127418 0
force Cu  -0.000159475750937   0.000155362737637  -0.007456548506307 0
force Cu   0.000140673336143  -0.000036000041521   0.000475220878523 0
force Cu   0.000169069733922  -0.000663233296154   0.001445375600203 0
force Cu  -0.000136808519426  -0.000019455505104   0.000564557709470 0
force Cu  -0.000126372079643  -0.000419822023213  -0.000755019691760 0
force Cu  -0.000709061683622   0.000298760929490  -0.000817434073922 0
force Cu  -0.000055998200472  -0.000055761694952  -0.000088209557919 0
force Cu   0.000505539850412   0.000096011310087  -0.000279525325244 0
force Cu  -0.000191784734693  -0.000310947427352   0.000265869283106 0
force Cu   0.000323301735278  -0.000067921984122  -0.000857696381643 0
force Cu   0.000085537272478  -0.000473986487422   0.000799463849031 0
force Cu  -0.000211898622867  -0.000746973595672   0.000770703875335 0
force Cu  -0.000247115644079   0.000722117158852  -0.000079544266267 0
force Cu  -0.000727208789912   0.000513958677263  -0.000211028145236 0
force Cu   0.000251966435050   0.000657519894970  -0.000268501567879 0
force Cu   0.000904284712363   0.000509143765824  -0.000301333303749 0
force Cu  -0.001933640767852  -0.000932557911438   0.004109077782472 0
force Cu   0.000105169101508   0.000013026533394  -0.000618472319182 0
force Cu   0.002383885324781  -0.001569548394710   0.003749163273216 0
force Cu   0.000278108178200  -0.001765726108417  -0.000213359345043 0
force C   0.000218431265240   0.015176070100086   0.000444960452107 1  Linear 0 0 1
force O  -0.000542271193836  -0.010210475779478  -0.000505334528388 1  Linear 0 0 1

# Energy components:
   A_diel =       -0.0018718381252606
   Eewald =    25246.6211141558997042
       EH =    32659.6438183995196596
     Eloc =   -67526.0684331611992093
      Enl =     1468.0793419167753200
     EvdW =       -0.5350015057646471
      Exc =     -781.3755454496240418
 Exc_core =        1.9776311412608591
       KE =      836.0372881820167095
-------------------------------------
     Etot =    -8095.6216581592452712
       TS =        0.0011192081769600
-------------------------------------
        F =    -8095.6227773674218042


Dumping 'jdft.fillings' ... done
Dumping 'jdft.wfns' ... done
Dumping 'jdft.fluidState' ... done
Dumping 'jdft.ionpos' ... done
Dumping 'jdft.lattice' ... done
Dumping 'jdft.eigenvals' ... done
Dumping 'jdft.eigStats' ... 
	eMin: -4.297582 at state 7 ( [ +0.000000 +0.000000 +0.000000 ] spin -1 )
	HOMO: -0.152778 at state 13 ( [ +0.500000 +0.333333 +0.000000 ] spin -1 )
	mu  : -0.152608
	LUMO: -0.151069 at state 0 ( [ +0.000000 +0.000000 +0.000000 ] spin 1 )
	eMax: +0.177406 at state 9 ( [ +0.250000 +0.000000 +0.000000 ] spin -1 )
	HOMO-LUMO gap: +0.001709
	Optical gap  : +0.002328 at state 6 ( [ +0.500000 +0.333333 +0.000000 ] spin 1 )
Dumping 'jdft.Ecomponents' ... done
IonicMinimize: Iter:   8  F: -8095.622777367421804  |grad|_K:  4.761e-04  alpha:  3.384e-01  linmin: -1.032e-04  t[s]:  25912.15

#--- Lowdin population analysis ---
# oxidation-state Cu +0.041 +0.027 +0.025 +0.027 +0.073 +0.071 +0.073 +0.077 +0.045 +0.046 +0.046 +0.046 +0.058 +0.056 +0.059 +0.059 +0.233 +0.247 +0.234 +0.076 +0.052 +0.046 +0.051 +0.046 +0.075 +0.075 +0.074 +0.076 +0.027 +0.024 +0.027 +0.030 +0.251 +0.241 +0.246 +0.241 +0.054 +0.058 +0.053 +0.061
# magnetic-moments Cu -0.000 -0.000 -0.000 -0.000 +0.000 +0.000 -0.000 -0.000 +0.000 +0.000 -0.000 -0.000 -0.000 +0.000 +0.000 -0.000 +0.000 +0.000 -0.000 +0.000 -0.000 +0.000 +0.000 +0.000 -0.000 -0.000 +0.000 -0.000 +0.000 -0.000 +0.000 +0.000 -0.000 +0.000 -0.000 +0.000 -0.000 +0.000 -0.000 +0.000
# oxidation-state C +0.322
# magnetic-moments C -0.000
# oxidation-state O -0.151
# magnetic-moments O +0.000


Computing DFT-D3 correction:
# coordination-number Cu 8.310 8.288 8.287 8.288 8.918 8.917 8.918 8.918 9.035 9.035 9.035 9.035 6.874 6.874 6.874 6.874 4.957 4.945 4.957 5.930 9.032 9.028 9.028 9.028 8.920 8.920 8.920 8.920 8.294 8.294 8.294 8.294 4.947 4.947 4.947 4.947 7.072 6.870 7.072 6.870
# coordination-number C 2.428
# coordination-number O 1.040
# diagonal-C6 Cu 175.00 175.00 175.00 175.00 175.00 175.00 175.00 175.00 175.00 175.00 175.00 175.00 175.00 175.00 175.00 175.00 175.00 175.00 175.00 175.00 175.00 175.00 175.00 175.00 175.00 175.00 175.00 175.00 175.00 175.00 175.00 175.00 175.00 175.00 175.00 175.00 175.00 175.00 175.00 175.00
# diagonal-C6 C 28.04
# diagonal-C6 O 12.78
EvdW_6 =   -0.208493
EvdW_8 =   -0.326509

-------- Electronic minimization -----------
	Linear fluid (dielectric constant: 78.4, screening length: 8.12261 Bohr) occupying 0.451110 of unit cell:	Completed after 7 iterations at t[s]:  25955.67
	FillingsUpdate:  mu: -0.152529330  nElectrons: 770.000000  magneticMoment: [ Abs: 0.00000  Tot: +0.00000 ]
ElecMinimize: Iter:   0  F: -8095.622776991528553  |grad|_K:  1.680e-07  alpha:  1.000e+00
	Linear fluid (dielectric constant: 78.4, screening length: 8.12261 Bohr) occupying 0.451053 of unit cell:	Completed after 14 iterations at t[s]:  26039.09
	Linear fluid (dielectric constant: 78.4, screening length: 8.12261 Bohr) occupying 0.451106 of unit cell:	Completed after 15 iterations at t[s]:  26069.58
	FillingsUpdate:  mu: -0.152602245  nElectrons: 770.000000  magneticMoment: [ Abs: 0.00000  Tot: +0.00000 ]
	SubspaceRotationAdjust: set factor to 1.26
ElecMinimize: Iter:   1  F: -8095.622777427056462  |grad|_K:  4.373e-08  alpha:  6.002e-02  linmin: -4.989e-06  t[s]:  26108.07
	Linear fluid (dielectric constant: 78.4, screening length: 8.12261 Bohr) occupying 0.451106 of unit cell:	Completed after 2 iterations at t[s]:  26146.59
	Linear fluid (dielectric constant: 78.4, screening length: 8.12261 Bohr) occupying 0.451106 of unit cell:	Completed after 1 iterations at t[s]:  26174.25
	FillingsUpdate:  mu: -0.152593167  nElectrons: 770.000000  magneticMoment: [ Abs: 0.00000  Tot: +0.00000 ]
	SubspaceRotationAdjust: set factor to 1.67
ElecMinimize: Iter:   2  F: -8095.622777475244220  |grad|_K:  2.474e-08  alpha:  9.361e-02  linmin: -1.227e-03  t[s]:  26211.46
	Linear fluid (dielectric constant: 78.4, screening length: 8.12261 Bohr) occupying 0.451105 of unit cell:	Completed after 2 iterations at t[s]:  26249.49
	Linear fluid (dielectric constant: 78.4, screening length: 8.12261 Bohr) occupying 0.451105 of unit cell:	Completed after 0 iterations at t[s]:  26276.51
	FillingsUpdate:  mu: -0.152596117  nElectrons: 770.000000  magneticMoment: [ Abs: 0.00000  Tot: +0.00000 ]
	SubspaceRotationAdjust: set factor to 2.08
ElecMinimize: Iter:   3  F: -8095.622777508342551  |grad|_K:  1.800e-08  alpha:  1.670e-01  linmin: -1.665e-03  t[s]:  26313.98
ElecMinimize: Converged (|Delta F|<1.000000e-07 for 2 iters).
Setting wave functions to eigenvectors of Hamiltonian
Converging empty states (this may take a while): |deigs|: 8.056e-10

Computing DFT-D3 correction:
# coordination-number Cu 8.310 8.288 8.287 8.288 8.918 8.917 8.918 8.918 9.035 9.035 9.035 9.035 6.874 6.874 6.874 6.874 4.957 4.945 4.957 5.930 9.032 9.028 9.028 9.028 8.920 8.920 8.920 8.920 8.294 8.294 8.294 8.294 4.947 4.947 4.947 4.947 7.072 6.870 7.072 6.870
# coordination-number C 2.428
# coordination-number O 1.040
# diagonal-C6 Cu 175.00 175.00 175.00 175.00 175.00 175.00 175.00 175.00 175.00 175.00 175.00 175.00 175.00 175.00 175.00 175.00 175.00 175.00 175.00 175.00 175.00 175.00 175.00 175.00 175.00 175.00 175.00 175.00 175.00 175.00 175.00 175.00 175.00 175.00 175.00 175.00 175.00 175.00 175.00 175.00
# diagonal-C6 C 28.04
# diagonal-C6 O 12.78
EvdW_6 =   -0.208493
EvdW_8 =   -0.326509

# Ionic positions in cartesian coordinates:
ion Cu   3.374454999999999   1.518659000000000  11.420712999999997 0
ion Cu   0.003943000000000   9.055351000000002  11.420712999999997 0
ion Cu  10.115479000000001   1.518659000000000  11.420712999999997 0
ion Cu   6.744966999999997   9.055351000000002  11.420712999999997 0
ion Cu   0.000344000000000   2.995850000000000   8.272439999999998 0
ion Cu  -3.370168000000001  10.532543000000000   8.272439999999998 0
ion Cu   6.741367000000000   2.995850000000000   8.272439999999998 0
ion Cu   3.370855999999998  10.532543000000000   8.272439999999998 0
ion Cu   3.367713999999999   4.556338000000000   5.270771000000000 0
ion Cu  -0.002791000000002  12.093015000000001   5.270771000000000 0
ion Cu  10.108750999999998   4.556338000000000   5.270771000000000 0
ion Cu   6.738232999999997  12.093015000000001   5.270771000000000 0
ion Cu  -0.002959000000001   6.045498000000001   2.187299000000000 0
ion Cu  -3.373471000000001  13.582190000000002   2.187299000000000 0
ion Cu   6.738077999999999   6.045498000000001   2.187299000000000 0
ion Cu   3.367565999999998  13.582190000000002   2.187299000000000 0
ion Cu   6.744669999999997  15.039877000000001  14.212244000000000 0
ion Cu  10.115181999999999   7.503185000000001  14.212244000000000 0
ion Cu   0.003646999999998  15.039877000000001  14.212244000000000 0
ion Cu   3.374158999999998   7.503185000000001  14.212244000000000 0
ion Cu   3.373288999999999   5.995801000000001   9.801515000000000 0
ion Cu   0.002770999999998  13.532508999999999   9.801515000000000 0
ion Cu  10.114312999999997   5.995801000000001   9.801515000000000 0
ion Cu   6.743807999999997  13.532508999999999   9.801515000000000 0
ion Cu   3.370235000000000   0.020545000000000   6.798760999999999 0
ion Cu  -0.000276000000001   7.557238000000001   6.798760999999999 0
ion Cu  10.111258999999999   0.020545000000000   6.798760999999999 0
ion Cu   6.740746999999999   7.557238000000001   6.798760999999999 0
ion Cu  -0.004564000000000   1.496471000000000   3.652749000000000 0
ion Cu  -3.375075000000001   9.033163000000002   3.652749000000000 0
ion Cu   6.736459999999999   1.496471000000000   3.652749000000000 0
ion Cu   3.365947999999998   9.033163000000002   3.652749000000000 0
ion Cu   3.366999999999999   3.046346000000001   0.863298000000000 0
ion Cu  -0.003519000000002  10.583054000000001   0.863298000000000 0
ion Cu  10.108022999999998   3.046346000000001   0.863298000000000 0
ion Cu   6.737504999999997  10.583054000000001   0.863298000000000 0
ion Cu   0.003383999999999   4.504741000000000  12.887157999999999 0
ion Cu  -3.367128000000000  12.041434000000001  12.887157999999999 0
ion Cu   6.744406999999997   4.504741000000000  12.887157999999999 0
ion Cu   3.373895999999998  12.041434000000001  12.887157999999999 0
ion C   3.373895999999998   4.504741000000000  16.381126217274215 1  Linear 0 0 1
ion O   3.433984999999999   4.504741000000000  18.599521774695958 1  Linear 0 0 1

# Forces in Cartesian coordinates:
force Cu  -0.000025445135563  -0.003896711859549  -0.004198553071360 0
force Cu  -0.000560645874517   0.001255369543376  -0.000005384917984 0
force Cu  -0.000104222664936   0.000708875251969   0.000240852570235 0
force Cu   0.000290950640657   0.001690462665045  -0.000179054393325 0
force Cu   0.000667419713260   0.000423611985741   0.001451925967119 0
force Cu  -0.000189934477977  -0.000246924538336   0.000544705000251 0
force Cu  -0.000572871957472   0.000630596626352   0.001453252493441 0
force Cu   0.000062689664773   0.000484600827063   0.000844204810475 0
force Cu   0.000313166595554   0.000444744891562  -0.001711446721251 0
force Cu   0.000106689620054   0.000137480186214  -0.000488255329961 0
force Cu   0.000088582638649   0.000601849586295  -0.000019082691377 0
force Cu   0.000278545594730   0.000164420520652  -0.000142212593707 0
force Cu  -0.000285477366730  -0.000138327114540   0.000735885513908 0
force Cu  -0.000027553483197  -0.000816316382024   0.000048262888310 0
force Cu   0.000105330230609   0.000167580089959   0.000870797473452 0
force Cu  -0.000065896139777   0.000164235755582   0.000596464860223 0
force Cu  -0.000180631103635  -0.001248630281170   0.000261881066292 0
force Cu  -0.000004971118221  -0.000292665146768  -0.000889311025391 0
force Cu   0.000020533977867  -0.001121085641723  -0.000297393339545 0
force Cu  -0.000293597451086  -0.000121208973602   0.000274736257994 0
force Cu  -0.000158697541429   0.000165096114838  -0.007361332215913 0
force Cu   0.000127240985832  -0.000036536888032   0.000516567360811 0
force Cu   0.000167875868341  -0.000661654662448   0.001490185924297 0
force Cu  -0.000123654571161  -0.000021657909453   0.000605970891171 0
force Cu  -0.000125746932235  -0.000428310595293  -0.000697198688290 0
force Cu  -0.000714499345304   0.000301980147294  -0.000773070400120 0
force Cu  -0.000055553374981  -0.000060764486854  -0.000054078871688 0
force Cu   0.000511060961901   0.000098994940730  -0.000232809513238 0
force Cu  -0.000197371022131  -0.000306473671141   0.000300739836811 0
force Cu   0.000323528257135  -0.000076713928802  -0.000813886751229 0
force Cu   0.000091634157684  -0.000469463874835   0.000834410041606 0
force Cu  -0.000212486552752  -0.000750118117340   0.000807577594281 0
force Cu  -0.000247309352301   0.000729558433907  -0.000075889683879 0
force Cu  -0.000728221146971   0.000505167692549  -0.000200678279657 0
force Cu   0.000252039740447   0.000666673065587  -0.000256140188747 0
force Cu   0.000904945797305   0.000500974737493  -0.000291538360603 0
force Cu  -0.001917137435980  -0.000909416943492   0.004071852793613 0
force Cu   0.000106122790990   0.000028640471583  -0.000650886565142 0
force Cu   0.002369590365156  -0.001547180300128   0.003710701136930 0
force Cu   0.000277164650223  -0.001802520769528  -0.000229643254432 0
force C   0.000215631153910   0.015240065163404  -0.000109176441857 1  Linear 0 0 1
force O  -0.000524715074315  -0.010179302275689   0.000088519059718 1  Linear 0 0 1

# Energy components:
   A_diel =       -0.0018707335206364
   Eewald =    25246.6734345513941662
       EH =    32659.7030124721168249
     Eloc =   -67526.1802396315906662
      Enl =     1468.0790665654349141
     EvdW =       -0.5350018503520801
      Exc =     -781.3756921875784656
 Exc_core =        1.9776311570463287
       KE =      836.0380014666498028
-------------------------------------
     Etot =    -8095.6216581903991028
       TS =        0.0011193179436533
-------------------------------------
        F =    -8095.6227775083425513


Dumping 'jdft.fillings' ... done
Dumping 'jdft.wfns' ... done
Dumping 'jdft.fluidState' ... done
Dumping 'jdft.ionpos' ... done
Dumping 'jdft.lattice' ... done
Dumping 'jdft.eigenvals' ... done
Dumping 'jdft.eigStats' ... 
	eMin: -4.297606 at state 7 ( [ +0.000000 +0.000000 +0.000000 ] spin -1 )
	HOMO: -0.152766 at state 13 ( [ +0.500000 +0.333333 +0.000000 ] spin -1 )
	mu  : -0.152596
	LUMO: -0.151057 at state 0 ( [ +0.000000 +0.000000 +0.000000 ] spin 1 )
	eMax: +0.177408 at state 9 ( [ +0.250000 +0.000000 +0.000000 ] spin -1 )
	HOMO-LUMO gap: +0.001709
	Optical gap  : +0.002328 at state 13 ( [ +0.500000 +0.333333 +0.000000 ] spin -1 )
Dumping 'jdft.Ecomponents' ... done
IonicMinimize: Iter:   9  F: -8095.622777508342551  |grad|_K:  9.939e-05  alpha:  1.000e+00  linmin:  2.656e-03  t[s]:  26421.90
IonicMinimize: Converged (|grad|_K<1.000000e-04).

#--- Lowdin population analysis ---
# oxidation-state Cu +0.042 +0.027 +0.025 +0.028 +0.073 +0.071 +0.073 +0.077 +0.045 +0.046 +0.046 +0.046 +0.057 +0.056 +0.059 +0.059 +0.233 +0.247 +0.234 +0.076 +0.053 +0.046 +0.051 +0.046 +0.075 +0.075 +0.074 +0.076 +0.027 +0.024 +0.027 +0.030 +0.251 +0.241 +0.246 +0.241 +0.055 +0.058 +0.054 +0.062
# magnetic-moments Cu +0.000 -0.000 -0.000 +0.000 -0.000 +0.000 -0.000 -0.000 -0.000 +0.000 +0.000 -0.000 -0.000 +0.000 -0.000 +0.000 +0.000 +0.000 -0.000 +0.000 -0.000 +0.000 +0.000 -0.000 -0.000 +0.000 +0.000 -0.000 -0.000 -0.000 -0.000 +0.000 +0.000 +0.000 +0.000 +0.000 +0.000 +0.000 +0.000 +0.000
# oxidation-state C +0.322
# magnetic-moments C +0.000
# oxidation-state O -0.150
# magnetic-moments O -0.000


Dumping 'jdft.n_up' ... done
Dumping 'jdft.n_dn' ... done
Dumping 'jdft.tau_up' ... done
Dumping 'jdft.tau_dn' ... done
Dumping 'jdft.eigenvals' ... done
Dumping 'jdft.eigStats' ... 
	eMin: -4.297606 at state 7 ( [ +0.000000 +0.000000 +0.000000 ] spin -1 )
	HOMO: -0.152766 at state 13 ( [ +0.500000 +0.333333 +0.000000 ] spin -1 )
	mu  : -0.152596
	LUMO: -0.151057 at state 0 ( [ +0.000000 +0.000000 +0.000000 ] spin 1 )
	eMax: +0.177408 at state 9 ( [ +0.250000 +0.000000 +0.000000 ] spin -1 )
	HOMO-LUMO gap: +0.001709
	Optical gap  : +0.002328 at state 13 ( [ +0.500000 +0.333333 +0.000000 ] spin -1 )
Dumping 'jdft.kPts' ... done
Dumping 'jdft.kMap' ... done
Dumping 'jdft.dosUp' ... done.
Dumping 'jdft.dosDn' ... done.
End date and time: Thu Feb 17 09:49:38 2022  (Duration: 0-7:21:21.30)
Done!
