
*************** JDFTx 1.6.0  ***************

Start date and time: Mon Dec  6 17:24:57 2021
Executable /projects/musgravc/apps/jdftx-1.6.1/build/jdftx with command-line: -i in
Running on hosts (process indices):  shas0306.rc.int.colorado.edu (0-23)
Divided in process groups (process indices):  0 (0)  1 (1)  2 (2)  3 (3)  4 (4)  5 (5)  6 (6)  7 (7)  8 (8)  9 (9)  10 (10)  11 (11)  12 (12)  13 (13)  14 (14)  15 (15)  16 (16)  17 (17)  18 (18)  19 (19)  20 (20)  21 (21)  22 (22)  23 (23)
Resource initialization completed at t[s]:      0.00
Run totals: 24 processes, 24 threads, 0 GPUs


Input parsed successfully to the following command list (including defaults):

basis kpoint-dependent
converge-empty-states yes
coords-type Cartesian
core-overlap-check none
coulomb-interaction Periodic
davidson-band-ratio 1.1
density-of-states Etol 1.000000e-06 Esigma 1.000000e-03 \
		Complete \
	Total \
	OrthoOrbital Ag 1   s \
	OrthoOrbital Ag 1   p \
	OrthoOrbital Ag 1   px \
	OrthoOrbital Ag 1   py \
	OrthoOrbital Ag 1   pz \
	OrthoOrbital Ag 1   d \
	OrthoOrbital Ag 1   dxy \
	OrthoOrbital Ag 1   dyz \
	OrthoOrbital Ag 1   dz2 \
	OrthoOrbital Ag 1   dxz \
	OrthoOrbital Ag 1   dx2-y2 \
	OrthoOrbital Ag 2   s \
	OrthoOrbital Ag 2   p \
	OrthoOrbital Ag 2   px \
	OrthoOrbital Ag 2   py \
	OrthoOrbital Ag 2   pz \
	OrthoOrbital Ag 2   d \
	OrthoOrbital Ag 2   dxy \
	OrthoOrbital Ag 2   dyz \
	OrthoOrbital Ag 2   dz2 \
	OrthoOrbital Ag 2   dxz \
	OrthoOrbital Ag 2   dx2-y2 \
	OrthoOrbital Ag 3   s \
	OrthoOrbital Ag 3   p \
	OrthoOrbital Ag 3   px \
	OrthoOrbital Ag 3   py \
	OrthoOrbital Ag 3   pz \
	OrthoOrbital Ag 3   d \
	OrthoOrbital Ag 3   dxy \
	OrthoOrbital Ag 3   dyz \
	OrthoOrbital Ag 3   dz2 \
	OrthoOrbital Ag 3   dxz \
	OrthoOrbital Ag 3   dx2-y2 \
	OrthoOrbital Ag 4   s \
	OrthoOrbital Ag 4   p \
	OrthoOrbital Ag 4   px \
	OrthoOrbital Ag 4   py \
	OrthoOrbital Ag 4   pz \
	OrthoOrbital Ag 4   d \
	OrthoOrbital Ag 4   dxy \
	OrthoOrbital Ag 4   dyz \
	OrthoOrbital Ag 4   dz2 \
	OrthoOrbital Ag 4   dxz \
	OrthoOrbital Ag 4   dx2-y2
dump End ElecDensity KEdensity BandEigs EigStats RhoAtom DOS Kpoints
dump Ionic State IonicPositions Lattice EigStats Ecomponents
dump 
dump 
dump 
dump 
dump 
dump 
dump 
dump 
dump-name jdft.$VAR
elec-cutoff 20
elec-eigen-algo Davidson
elec-ex-corr gga-PBE
elec-initial-magnetization 0.000000 no
elec-n-bands 48
elec-smearing Fermi 0.001
electronic-minimize  \
	dirUpdateScheme      FletcherReeves \
	linminMethod         DirUpdateRecommended \
	nIterations          100 \
	history              15 \
	knormThreshold       0 \
	energyDiffThreshold  1e-07 \
	nEnergyDiff          2 \
	alphaTstart          1 \
	alphaTmin            1e-10 \
	updateTestStepSize   yes \
	alphaTreduceFactor   0.1 \
	alphaTincreaseFactor 3 \
	nAlphaAdjustMax      3 \
	wolfeEnergy          0.0001 \
	wolfeGradient        0.9 \
	fdTest               no
exchange-regularization WignerSeitzTruncated
fluid LinearPCM 298.000000 1.013250
fluid-anion F- 0.5 MeanFieldLJ \
	epsBulk 1 \
	pMol 0 \
	epsInf 1 \
	Pvap 0 \
	sigmaBulk 0 \
	Rvdw 2.24877 \
	Res 0 \
	tauNuc 343133
fluid-cation Na+ 0.5 MeanFieldLJ \
	epsBulk 1 \
	pMol 0 \
	epsInf 1 \
	Pvap 0 \
	sigmaBulk 0 \
	Rvdw 2.19208 \
	Res 0 \
	tauNuc 343133
fluid-ex-corr lda-TF lda-PZ
fluid-gummel-loop 10 1.000000e-05
fluid-minimize  \
	dirUpdateScheme      PolakRibiere \
	linminMethod         DirUpdateRecommended \
	nIterations          400 \
	history              15 \
	knormThreshold       1e-11 \
	energyDiffThreshold  0 \
	nEnergyDiff          2 \
	alphaTstart          1 \
	alphaTmin            1e-10 \
	updateTestStepSize   yes \
	alphaTreduceFactor   0.1 \
	alphaTincreaseFactor 3 \
	nAlphaAdjustMax      6 \
	wolfeEnergy          0.0001 \
	wolfeGradient        0.9 \
	fdTest               no
fluid-solvent H2O 55.338 ScalarEOS \
	epsBulk 78.4 \
	pMol 0.92466 \
	epsInf 1.77 \
	Pvap 1.06736e-10 \
	sigmaBulk 4.62e-05 \
	Rvdw 2.61727 \
	Res 1.42 \
	tauNuc 343133 \
	poleEl 15 7 1
forces-output-coords Positions
ion Ag   0.000000000000000   0.000000000000000  40.244759000000002 1
ion Ag   2.710223000000000   2.710223000000000  44.077578000000003 1
ion Ag   0.000000000000000   5.420446999999999  32.579075000000003 1
ion Ag   2.710223000000000   2.710223000000000  36.411940000000001 1
ion-species /projects/musgravc/apps/jdftx-1.6.0/build/pseudopotentials/GBRV_v1.5/$ID_pbe_v1.uspp
ion-species /projects/musgravc/apps/jdftx-1.6.0/build/pseudopotentials/GBRV_v1.5/$ID_pbe_v1.2.uspp
ion-species /projects/musgravc/apps/jdftx-1.6.0/build/pseudopotentials/GBRV_v1.5/$ID_pbe_v1.4.uspp
ion-species /projects/musgravc/apps/jdftx-1.6.0/build/pseudopotentials/GBRV_v1.5/$ID_pbe_v1.5.uspp
ion-width Ecut
ionic-minimize  \
	dirUpdateScheme      L-BFGS \
	linminMethod         DirUpdateRecommended \
	nIterations          100 \
	history              15 \
	knormThreshold       0.0001 \
	energyDiffThreshold  1e-06 \
	nEnergyDiff          2 \
	alphaTstart          1 \
	alphaTmin            1e-10 \
	updateTestStepSize   yes \
	alphaTreduceFactor   0.1 \
	alphaTincreaseFactor 3 \
	nAlphaAdjustMax      3 \
	wolfeEnergy          0.0001 \
	wolfeGradient        0.9 \
	fdTest               no
kpoint   0.000000000000   0.000000000000   0.000000000000  1.00000000000000
kpoint-folding 12 12 1 
latt-move-scale 0 0 0
latt-scale 1 1 1 
lattice  \
	   5.420447000000000    0.000000000000000    0.000000000000000  \
	   0.000000000000000    5.420447000000000    0.000000000000000  \
	   0.000000000000000    0.000000000000000   45.994010000000003 
lattice-minimize  \
	dirUpdateScheme      L-BFGS \
	linminMethod         DirUpdateRecommended \
	nIterations          0 \
	history              15 \
	knormThreshold       0 \
	energyDiffThreshold  1e-06 \
	nEnergyDiff          2 \
	alphaTstart          1 \
	alphaTmin            1e-10 \
	updateTestStepSize   yes \
	alphaTreduceFactor   0.1 \
	alphaTincreaseFactor 3 \
	nAlphaAdjustMax      3 \
	wolfeEnergy          0.0001 \
	wolfeGradient        0.9 \
	fdTest               no
lcao-params 30 1e-06 0.001
pcm-variant CANDLE
spintype z-spin
subspace-rotation-factor 1 yes
symmetries none
symmetry-threshold 0.0001
target-mu -0.1713 no

van-der-waals D3


Applied RMS atom displacement 0 bohrs to make symmetries exact.

---------- Initializing the Grid ----------
R = 
[      5.42045            0            0  ]
[            0      5.42045            0  ]
[            0            0       45.994  ]
unit cell volume = 1351.36
G =
[    1.15916          0          0  ]
[          0    1.15916          0  ]
[          0          0   0.136609  ]
Minimum fftbox size, Smin = [  24  24  188  ]
Chosen fftbox size, S = [  24  24  192  ]

---------- Exchange Correlation functional ----------
Initalized PBE GGA exchange.
Initalized PBE GGA correlation.

---------- Setting up pseudopotentials ----------
Width of ionic core gaussian charges (only for fluid interactions / plotting) set to 0.397384

Reading pseudopotential file '/projects/musgravc/apps/jdftx-1.6.0/build/pseudopotentials/GBRV_v1.5/ag_pbe_v1.4.uspp':
  Title: Ag.  Created by USPP 7.3.6 on 1-4-15
  Reference state energy: -147.606242.  19 valence electrons in orbitals:
    |400>  occupation: 2  eigenvalue: -3.637437
    |410>  occupation: 6  eigenvalue: -2.297267
    |420>  occupation: 10  eigenvalue: -0.417763
    |500>  occupation: 0.5  eigenvalue: -0.283525
    |510>  occupation: 0  eigenvalue: -0.122889
  lMax: 2  lLocal: 0  QijEcut: 5.5
  6 projectors sampled on a log grid with 717 points:
    l: 0  eig: -0.283528  rCut: 1.5
    l: 0  eig: -3.637440  rCut: 1.5
    l: 1  eig: -0.122892  rCut: 1.5
    l: 1  eig: -2.297267  rCut: 1.5
    l: 2  eig: -0.417762  rCut: 1.7
    l: 2  eig: -1.000000  rCut: 1.7
  Partial core density with radius 1.2
  Transforming core density to a uniform radial grid of dG=0.02 with 1188 points.
  Transforming local potential to a uniform radial grid of dG=0.02 with 1188 points.
  Transforming nonlocal projectors to a uniform radial grid of dG=0.02 with 432 points.
  Transforming density augmentations to a uniform radial grid of dG=0.02 with 1188 points.
  Transforming atomic orbitals to a uniform radial grid of dG=0.02 with 432 points.
  Core radius for overlap checks: 1.70 bohrs.

Initialized 1 species with 4 total atoms.

Folded 1 k-points by 12x12x1 to 144 k-points.

---------- Setting up k-points, bands, fillings ----------
No reducable k-points. 
Computing the number of bands and number of electrons
Calculating initial fillings.
nElectrons:  76.000000   nBands: 48   nStates: 288

----- Setting up reduced wavefunction bases (one per k-point) -----
average nbasis = 5774.063 , ideal nbasis = 5773.118

----- Initializing Supercell corresponding to k-point mesh -----
Lattice vector linear combinations in supercell:
[  12   0   0  ]
[   0  12   0  ]
[   0   0   1  ]
Supercell lattice vectors:
[  65.0454  0  0  ]
[  0  65.0454  0  ]
[  0  0  45.994  ]

Initializing DFT-D3 calculator:
	Parameters set for gga-PBE functional
	s6:  1.000  s_r6:  1.217
	s8:  0.722  s_r8:  1.000
	Per-atom parameters loaded for:
	Ag:  sqrtQ[a0]:  5.443  Rcov[a0]:  2.173  CN: [ 0.00 0.97 ]

Initializing DFT-D2 calculator for fluid / solvation:
	Ag:  C6:  427.91 Eh-a0^6  R0: 3.097 a0

---------- Setting up ewald sum ----------
Optimum gaussian width for ewald sums = 3.500719 bohr.
Real space sum over 1445 unit cells with max indices [  8  8  2  ]
Reciprocal space sum over 3483 terms with max indices [  4  4  21  ]

Computing DFT-D3 correction:
# coordination-number Ag 9.174 6.151 6.151 9.174
# diagonal-C6 Ag 268.61 268.61 268.61 268.61
EvdW_6 =   -0.020757
EvdW_8 =   -0.031120

---------- Allocating electronic variables ----------
Initializing wave functions:  linear combination of atomic orbitals
Ag pseudo-atom occupations:   s ( 2 1 )  p ( 6 0 )  d ( 10 )
	FillingsUpdate:  mu: -0.171300000  nElectrons: 76.000000  magneticMoment: [ Abs: 0.00076  Tot: -0.00000 ]
LCAOMinimize: Iter:   0  G: -577.3324645512998359  |grad|_K:  7.582e-04  alpha:  1.000e+00
	FillingsUpdate:  mu: -0.171300000  nElectrons: 76.000000  magneticMoment: [ Abs: 0.00053  Tot: +0.00002 ]
LCAOMinimize: Iter:   1  G: -577.3456612910295007  |grad|_K:  8.010e-04  alpha:  3.229e-01  linmin:  7.193e-02  cgtest: -7.958e-01  t[s]:     11.75
	FillingsUpdate:  mu: -0.171300000  nElectrons: 76.000000  magneticMoment: [ Abs: 0.00043  Tot: +0.00003 ]
LCAOMinimize: Iter:   2  G: -577.3484031574746496  |grad|_K:  7.724e-04  alpha:  8.887e-02  linmin:  2.710e-03  cgtest:  1.033e+00  t[s]:     16.44
LCAOMinimize: Encountered beta<0, resetting CG.
	FillingsUpdate:  mu: -0.171300000  nElectrons: 76.000000  magneticMoment: [ Abs: 0.00049  Tot: +0.00006 ]
LCAOMinimize: Iter:   3  G: -577.3824283906691335  |grad|_K:  1.920e-04  alpha:  1.641e-01  linmin:  1.602e-01  cgtest: -9.409e-01  t[s]:     21.11
LCAOMinimize: 	Bad step direction: g.d > 0.
LCAOMinimize: 	Undoing step.
LCAOMinimize: 	Step failed: resetting search direction.
	FillingsUpdate:  mu: -0.171300000  nElectrons: 76.000000  magneticMoment: [ Abs: 0.00049  Tot: +0.00006 ]
LCAOMinimize: Iter:   4  G: -577.3824283906691335  |grad|_K:  1.920e-04  alpha:  0.000e+00
	FillingsUpdate:  mu: -0.171300000  nElectrons: 76.000000  magneticMoment: [ Abs: 0.00048  Tot: +0.00007 ]
LCAOMinimize: Iter:   5  G: -577.3844625153343486  |grad|_K:  2.734e-05  alpha:  1.343e-01  linmin:  2.556e-03  cgtest: -4.600e-03  t[s]:     29.26
LCAOMinimize: 	Predicted alpha/alphaT>3.000000, increasing alphaT to 4.028833e-01.
	FillingsUpdate:  mu: -0.171300000  nElectrons: 76.000000  magneticMoment: [ Abs: 0.00048  Tot: +0.00009 ]
LCAOMinimize: Iter:   6  G: -577.3845902841687803  |grad|_K:  9.384e-06  alpha:  4.251e-01  linmin:  2.786e-02  cgtest: -2.483e-01  t[s]:     35.36
	FillingsUpdate:  mu: -0.171300000  nElectrons: 76.000000  magneticMoment: [ Abs: 0.00048  Tot: +0.00009 ]
LCAOMinimize: Iter:   7  G: -577.3845921578217713  |grad|_K:  4.721e-06  alpha:  6.337e-02  linmin:  3.113e-03  cgtest:  2.485e-01  t[s]:     40.04
	FillingsUpdate:  mu: -0.171300000  nElectrons: 76.000000  magneticMoment: [ Abs: 0.00048  Tot: +0.00010 ]
LCAOMinimize: Iter:   8  G: -577.3845927169418246  |grad|_K:  3.901e-06  alpha:  6.289e-02  linmin: -9.956e-02  cgtest:  9.895e-01  t[s]:     44.72
LCAOMinimize: Encountered beta<0, resetting CG.
	FillingsUpdate:  mu: -0.171300000  nElectrons: 76.000000  magneticMoment: [ Abs: 0.00048  Tot: +0.00010 ]
LCAOMinimize: Iter:   9  G: -577.3845930936521427  |grad|_K:  3.267e-06  alpha:  6.195e-02  linmin: -1.098e-01  cgtest:  9.557e-01  t[s]:     49.41
LCAOMinimize: Encountered beta<0, resetting CG.
LCAOMinimize: Converged (|Delta G|<1.000000e-06 for 2 iters).
----- createFluidSolver() ----- (Fluid-side solver setup)
   Initializing fluid molecule 'H2O'
     Initializing site 'O'
       Electron density: proportional to exp(-r/0.36935)*erfc((r-0.51523)/0.36823) with norm 6.826
       Charge density: gaussian nuclear width 0.478731 with net site charge 0.826
       Polarizability: cuspless exponential with width 0.32 and norm 3.73
       Hard sphere radius: 2.57003 bohrs
       Positions in reference frame:
         [ +0.000000 +0.000000 +0.000000 ]
     Initializing site 'H'
       Electron density: proportional to exp(-r/0.34641)*erfc((r-0)/0.390882) with norm 0.587
       Charge density: gaussian nuclear width 0.377945 with net site charge -0.413
       Polarizability: cuspless exponential with width 0.39 and norm 3.3
       Positions in reference frame:
         [ +0.000000 -1.441945 +1.122523 ]
         [ +0.000000 +1.441945 +1.122523 ]
     Net charge: 0   dipole magnitude: 0.927204
     Initializing spherical shell mfKernel with radius 2.61727 Bohr
     deltaS corrections:
       site 'O': -7.54299
       site 'H': -6.83917
   Initializing fluid molecule 'Na+'
     Initializing site 'Na'
       Electron density: proportional to exp(-r/0.19682)*erfc((r-0.71491)/0.41314) with norm 8.1383
       Charge density: gaussian nuclear width 0.365347 with net site charge -1
       Hard sphere radius: 1.86327 bohrs
       Positions in reference frame:
         [ +0.000000 +0.000000 +0.000000 ]
     Net charge: -1   dipole magnitude: 0
     Initializing gaussian mfKernel with width: 1.55004 Bohr
     deltaS corrections:
       site 'Na': -22.3555
   Initializing fluid molecule 'F-'
     Initializing site 'F'
       Electron density: proportional to exp(-r/0.38886)*erfc((r-0)/0.438782) with norm 8
       Charge density: gaussian nuclear width 0.374796 with net site charge 1
       Hard sphere radius: 2.39995 bohrs
       Positions in reference frame:
         [ +0.000000 +0.000000 +0.000000 ]
     Net charge: 1   dipole magnitude: 0
     Initializing gaussian mfKernel with width: 1.59012 Bohr
     deltaS corrections:
       site 'F': -9.04335

Correction to mu due to finite nuclear width = -0.055801
   Cavity determined by nc: 0.00142 and sigma: 0.707107
   Nonlocal vdW cavity from gaussian model electron density with norm = 8 and sigma = 0.993594 bohr
   Charge asymmetry in cavity with sensitivity pCavity = 36.5 e-bohr/Eh
   Electrostatic cavity expanded by eta = 1.46 bohrs
   Weighted density cavitation model constrained by Nbulk: 0.0049383 bohr^-3, Pvap: 3.14029 kPa, Rvdw: 2.61727 bohr and sigmaBulk: 4.62e-05 Eh/bohr^2 at T: 298 K.
   Weighted density dispersion model using vdW pair potentials with single solvent site with sqrtC6eff: 0.77 SI.


---- Citations for features of the code used in this run ----

   Software package:
      R. Sundararaman, K. Letchworth-Weaver, K.A. Schwarz, D. Gunceler, Y. Ozhabes and T.A. Arias, 'JDFTx: software for joint density-functional theory', SoftwareX 6, 278 (2017)

   gga-PBE exchange-correlation functional:
      J.P. Perdew, K. Burke and M. Ernzerhof, Phys. Rev. Lett. 77, 3865 (1996)

   Pseudopotentials:
      KF Garrity, JW Bennett, KM Rabe and D Vanderbilt, Comput. Mater. Sci. 81, 446 (2014)

   DFT-D3 dispersion correction:
      S. Grimme, J. Antony, S. Ehrlich and H. Krieg, J. Chem. Phys. 132, 154104 (2010)

   DFT-D2 dispersion correction:
      S. Grimme, J. Comput. Chem. 27, 1787 (2006)

   Charge-asymmetric nonlocally-determined local-electric (CANDLE) solvation model:
      R. Sundararaman and W.A. Goddard III, J. Chem. Phys. 142, 064107 (2015)

   Total energy minimization with Auxiliary Hamiltonian:
      C. Freysoldt, S. Boeck, and J. Neugebauer, Phys. Rev. B 79, 241103(R) (2009)

   Grand-canonical (fixed-potential) DFT:
      R. Sundararaman, W. A. Goddard III and T. A. Arias, J. Chem. Phys. 146, 114104 (2017)

   Linear-tetrahedron sampling for density of states:
      G. Lehmann and M. Taut, Phys. status solidi (b) 54, 469 (1972)

This list may not be complete. Please suggest additional citations or
report any other bugs at https://github.com/shankar1729/jdftx/issues

Initialization completed successfully at t[s]:     52.59


Computing DFT-D3 correction:
# coordination-number Ag 9.174 6.151 6.151 9.174
# diagonal-C6 Ag 268.61 268.61 268.61 268.61
EvdW_6 =   -0.020757
EvdW_8 =   -0.031120
Fluid solver invoked on fresh (random / LCAO) wavefunctions
Running a vacuum solve first:

-------- Initial electronic minimization -----------
	FillingsUpdate:  mu: +0.111210311  nElectrons: 76.000000  magneticMoment: [ Abs: 0.00048  Tot: +0.00010 ]
ElecMinimize: Iter:   0  G: -577.384714083816107  |grad|_K:  2.163e-05  alpha:  1.000e+00
	FillingsUpdate:  mu: +0.116918408  nElectrons: 76.000000  magneticMoment: [ Abs: 0.00037  Tot: +0.00011 ]
	SubspaceRotationAdjust: set factor to 0.997
ElecMinimize: Iter:   1  G: -577.401385482293790  |grad|_K:  1.529e-05  alpha:  4.454e-01  linmin:  3.149e-05  t[s]:     63.81
	FillingsUpdate:  mu: +0.109031300  nElectrons: 76.000000  magneticMoment: [ Abs: 0.00029  Tot: +0.00008 ]
	SubspaceRotationAdjust: set factor to 0.909
ElecMinimize: Iter:   2  G: -577.406641445725654  |grad|_K:  7.478e-06  alpha:  2.807e-01  linmin: -1.463e-05  t[s]:     70.67
	FillingsUpdate:  mu: +0.117142852  nElectrons: 76.000000  magneticMoment: [ Abs: 0.00021  Tot: +0.00007 ]
	SubspaceRotationAdjust: set factor to 0.719
ElecMinimize: Iter:   3  G: -577.408170622815533  |grad|_K:  5.877e-06  alpha:  3.416e-01  linmin:  1.061e-04  t[s]:     77.40
	FillingsUpdate:  mu: +0.111640137  nElectrons: 76.000000  magneticMoment: [ Abs: 0.00018  Tot: +0.00002 ]
	SubspaceRotationAdjust: set factor to 0.567
ElecMinimize: Iter:   4  G: -577.408704991821423  |grad|_K:  4.630e-06  alpha:  2.005e-01  linmin:  9.040e-05  t[s]:     84.07
	FillingsUpdate:  mu: +0.111283299  nElectrons: 76.000000  magneticMoment: [ Abs: 0.00014  Tot: +0.00001 ]
	SubspaceRotationAdjust: set factor to 0.38
ElecMinimize: Iter:   5  G: -577.408980026235213  |grad|_K:  3.154e-06  alpha:  1.621e-01  linmin: -9.801e-05  t[s]:     90.79
	FillingsUpdate:  mu: +0.114594478  nElectrons: 76.000000  magneticMoment: [ Abs: 0.00011  Tot: -0.00002 ]
	SubspaceRotationAdjust: set factor to 0.533
ElecMinimize: Iter:   6  G: -577.409237486015741  |grad|_K:  1.927e-06  alpha:  3.213e-01  linmin:  4.415e-05  t[s]:     97.77
	FillingsUpdate:  mu: +0.115814303  nElectrons: 76.000000  magneticMoment: [ Abs: 0.00010  Tot: -0.00003 ]
	SubspaceRotationAdjust: set factor to 0.475
ElecMinimize: Iter:   7  G: -577.409335083899578  |grad|_K:  1.420e-06  alpha:  3.293e-01  linmin:  2.351e-06  t[s]:    104.46
	FillingsUpdate:  mu: +0.116062192  nElectrons: 76.000000  magneticMoment: [ Abs: 0.00009  Tot: -0.00003 ]
	SubspaceRotationAdjust: set factor to 0.331
ElecMinimize: Iter:   8  G: -577.409369893954704  |grad|_K:  1.016e-06  alpha:  2.156e-01  linmin: -2.268e-06  t[s]:    111.23
	FillingsUpdate:  mu: +0.115848499  nElectrons: 76.000000  magneticMoment: [ Abs: 0.00008  Tot: -0.00003 ]
	SubspaceRotationAdjust: set factor to 0.349
ElecMinimize: Iter:   9  G: -577.409396628968125  |grad|_K:  6.674e-07  alpha:  3.237e-01  linmin:  3.790e-05  t[s]:    117.99
	FillingsUpdate:  mu: +0.116230523  nElectrons: 76.000000  magneticMoment: [ Abs: 0.00007  Tot: -0.00003 ]
	SubspaceRotationAdjust: set factor to 0.386
ElecMinimize: Iter:  10  G: -577.409410454803265  |grad|_K:  4.805e-07  alpha:  3.899e-01  linmin:  1.900e-05  t[s]:    126.37
	FillingsUpdate:  mu: +0.116563141  nElectrons: 76.000000  magneticMoment: [ Abs: 0.00007  Tot: -0.00003 ]
	SubspaceRotationAdjust: set factor to 0.304
ElecMinimize: Iter:  11  G: -577.409416066299855  |grad|_K:  3.562e-07  alpha:  3.039e-01  linmin:  1.699e-06  t[s]:    133.04
	FillingsUpdate:  mu: +0.116605663  nElectrons: 76.000000  magneticMoment: [ Abs: 0.00006  Tot: -0.00002 ]
	SubspaceRotationAdjust: set factor to 0.344
ElecMinimize: Iter:  12  G: -577.409419598173486  |grad|_K:  2.338e-07  alpha:  3.477e-01  linmin:  9.825e-06  t[s]:    139.72
	FillingsUpdate:  mu: +0.116538683  nElectrons: 76.000000  magneticMoment: [ Abs: 0.00005  Tot: -0.00002 ]
	SubspaceRotationAdjust: set factor to 0.372
ElecMinimize: Iter:  13  G: -577.409421440854999  |grad|_K:  1.761e-07  alpha:  4.221e-01  linmin:  7.448e-06  t[s]:    146.43
	FillingsUpdate:  mu: +0.116566790  nElectrons: 76.000000  magneticMoment: [ Abs: 0.00004  Tot: -0.00001 ]
	SubspaceRotationAdjust: set factor to 0.318
ElecMinimize: Iter:  14  G: -577.409422275699853  |grad|_K:  1.365e-07  alpha:  3.368e-01  linmin:  1.140e-06  t[s]:    153.25
	FillingsUpdate:  mu: +0.116627893  nElectrons: 76.000000  magneticMoment: [ Abs: 0.00003  Tot: -0.00001 ]
	SubspaceRotationAdjust: set factor to 0.311
ElecMinimize: Iter:  15  G: -577.409422818302005  |grad|_K:  9.688e-08  alpha:  3.635e-01  linmin:  2.275e-06  t[s]:    160.19
	FillingsUpdate:  mu: +0.116626087  nElectrons: 76.000000  magneticMoment: [ Abs: 0.00002  Tot: -0.00000 ]
	SubspaceRotationAdjust: set factor to 0.373
ElecMinimize: Iter:  16  G: -577.409423112166564  |grad|_K:  7.001e-08  alpha:  3.915e-01  linmin:  2.242e-06  t[s]:    166.93
	FillingsUpdate:  mu: +0.116593829  nElectrons: 76.000000  magneticMoment: [ Abs: 0.00002  Tot: -0.00000 ]
	SubspaceRotationAdjust: set factor to 0.353
ElecMinimize: Iter:  17  G: -577.409423259074060  |grad|_K:  5.339e-08  alpha:  3.748e-01  linmin:  1.292e-06  t[s]:    173.66
	FillingsUpdate:  mu: +0.116593759  nElectrons: 76.000000  magneticMoment: [ Abs: 0.00001  Tot: -0.00000 ]
	SubspaceRotationAdjust: set factor to 0.34
ElecMinimize: Iter:  18  G: -577.409423342611603  |grad|_K:  4.125e-08  alpha:  3.662e-01  linmin:  8.491e-07  t[s]:    180.40
	FillingsUpdate:  mu: +0.116608209  nElectrons: 76.000000  magneticMoment: [ Abs: 0.00001  Tot: +0.00000 ]
	SubspaceRotationAdjust: set factor to 0.381
ElecMinimize: Iter:  19  G: -577.409423392259555  |grad|_K:  2.997e-08  alpha:  3.646e-01  linmin:  8.754e-07  t[s]:    187.32
ElecMinimize: Converged (|Delta G|<1.000000e-07 for 2 iters).
Setting wave functions to eigenvectors of Hamiltonian
Converging empty states (this may take a while): |deigs|: 1.986e-02
Vacuum energy after initial minimize, F = -577.409423392259555

Shifting auxilliary hamiltonian by -0.287908 to set nElectrons=76.000000

-------- Electronic minimization -----------
	Linear fluid (dielectric constant: 78.4, screening length: 8.12261 Bohr) occupying 0.493222 of unit cell:	Completed after 18 iterations at t[s]:    207.33
	FillingsUpdate:  mu: -0.171300000  nElectrons: 76.000000  magneticMoment: [ Abs: 0.00000  Tot: +0.00000 ]
ElecMinimize: Iter:   0  G: -577.409630441705303  |grad|_K:  3.757e-06  alpha:  1.000e+00
	Linear fluid (dielectric constant: 78.4, screening length: 8.12261 Bohr) occupying 0.499631 of unit cell:	Completed after 15 iterations at t[s]:    213.49
	Linear fluid (dielectric constant: 78.4, screening length: 8.12261 Bohr) occupying 0.493842 of unit cell:	Completed after 15 iterations at t[s]:    215.87
	FillingsUpdate:  mu: -0.171300000  nElectrons: 75.990018  magneticMoment: [ Abs: 0.00000  Tot: +0.00000 ]
	SubspaceRotationAdjust: set factor to 0.194
ElecMinimize: Iter:   1  G: -577.409850516553092  |grad|_K:  3.374e-06  alpha:  1.011e-01  linmin: -3.012e-02  t[s]:    218.87
	Linear fluid (dielectric constant: 78.4, screening length: 8.12261 Bohr) occupying 0.495466 of unit cell:	Completed after 12 iterations at t[s]:    221.33
ElecMinimize: 	Predicted alpha/alphaT>3.000000, increasing alphaT to 3.032079e-01.
	Linear fluid (dielectric constant: 78.4, screening length: 8.12261 Bohr) occupying 0.497639 of unit cell:	Completed after 13 iterations at t[s]:    223.54
	Linear fluid (dielectric constant: 78.4, screening length: 8.12261 Bohr) occupying 0.497613 of unit cell:	Completed after 9 iterations at t[s]:    225.63
	FillingsUpdate:  mu: -0.171300000  nElectrons: 75.939275  magneticMoment: [ Abs: 0.00000  Tot: -0.00000 ]
	SubspaceRotationAdjust: set factor to 0.14
ElecMinimize: Iter:   2  G: -577.410390719050611  |grad|_K:  2.694e-06  alpha:  2.990e-01  linmin:  5.111e-03  t[s]:    228.63
	Linear fluid (dielectric constant: 78.4, screening length: 8.12261 Bohr) occupying 0.499499 of unit cell:	Completed after 13 iterations at t[s]:    231.16
	Linear fluid (dielectric constant: 78.4, screening length: 8.12261 Bohr) occupying 0.498112 of unit cell:	Completed after 12 iterations at t[s]:    233.35
	FillingsUpdate:  mu: -0.171300000  nElectrons: 75.933238  magneticMoment: [ Abs: 0.00000  Tot: -0.00000 ]
	SubspaceRotationAdjust: set factor to 0.098
ElecMinimize: Iter:   3  G: -577.410442510467647  |grad|_K:  2.453e-06  alpha:  8.535e-02  linmin: -6.934e-03  t[s]:    236.37
	Linear fluid (dielectric constant: 78.4, screening length: 8.12261 Bohr) occupying 0.498646 of unit cell:	Completed after 10 iterations at t[s]:    238.82
	Linear fluid (dielectric constant: 78.4, screening length: 8.12261 Bohr) occupying 0.499649 of unit cell:	Completed after 12 iterations at t[s]:    240.99
	FillingsUpdate:  mu: -0.171300000  nElectrons: 75.917911  magneticMoment: [ Abs: 0.00000  Tot: -0.00000 ]
	SubspaceRotationAdjust: set factor to 0.0687
ElecMinimize: Iter:   4  G: -577.410590611264183  |grad|_K:  1.953e-06  alpha:  2.392e-01  linmin:  5.990e-04  t[s]:    244.21
	Linear fluid (dielectric constant: 78.4, screening length: 8.12261 Bohr) occupying 0.500909 of unit cell:	Completed after 13 iterations at t[s]:    246.84
	Linear fluid (dielectric constant: 78.4, screening length: 8.12261 Bohr) occupying 0.501311 of unit cell:	Completed after 10 iterations at t[s]:    248.97
	FillingsUpdate:  mu: -0.171300000  nElectrons: 75.906301  magneticMoment: [ Abs: 0.00000  Tot: -0.00000 ]
	SubspaceRotationAdjust: set factor to 0.102
ElecMinimize: Iter:   5  G: -577.410685279550307  |grad|_K:  1.759e-06  alpha:  3.130e-01  linmin: -9.083e-04  t[s]:    251.98
	Linear fluid (dielectric constant: 78.4, screening length: 8.12261 Bohr) occupying 0.502836 of unit cell:	Completed after 13 iterations at t[s]:    254.56
	Linear fluid (dielectric constant: 78.4, screening length: 8.12261 Bohr) occupying 0.503412 of unit cell:	Completed after 12 iterations at t[s]:    256.73
	FillingsUpdate:  mu: -0.171300000  nElectrons: 75.896989  magneticMoment: [ Abs: 0.00000  Tot: -0.00000 ]
	SubspaceRotationAdjust: set factor to 0.131
ElecMinimize: Iter:   6  G: -577.410800313580580  |grad|_K:  1.563e-06  alpha:  4.360e-01  linmin: -6.468e-04  t[s]:    259.73
	Linear fluid (dielectric constant: 78.4, screening length: 8.12261 Bohr) occupying 0.505086 of unit cell:	Completed after 12 iterations at t[s]:    262.22
	Linear fluid (dielectric constant: 78.4, screening length: 8.12261 Bohr) occupying 0.504908 of unit cell:	Completed after 10 iterations at t[s]:    264.35
	FillingsUpdate:  mu: -0.171300000  nElectrons: 75.896086  magneticMoment: [ Abs: 0.00000  Tot: -0.00000 ]
	SubspaceRotationAdjust: set factor to 0.159
ElecMinimize: Iter:   7  G: -577.410878746053868  |grad|_K:  1.364e-06  alpha:  3.873e-01  linmin:  1.472e-05  t[s]:    267.34
	Linear fluid (dielectric constant: 78.4, screening length: 8.12261 Bohr) occupying 0.506060 of unit cell:	Completed after 13 iterations at t[s]:    269.87
	Linear fluid (dielectric constant: 78.4, screening length: 8.12261 Bohr) occupying 0.506072 of unit cell:	Completed after 2 iterations at t[s]:    271.80
	FillingsUpdate:  mu: -0.171300000  nElectrons: 75.897472  magneticMoment: [ Abs: 0.00000  Tot: -0.00000 ]
	SubspaceRotationAdjust: set factor to 0.188
ElecMinimize: Iter:   8  G: -577.410937081094403  |grad|_K:  1.208e-06  alpha:  3.917e-01  linmin: -3.136e-05  t[s]:    274.98
	Linear fluid (dielectric constant: 78.4, screening length: 8.12261 Bohr) occupying 0.506951 of unit cell:	Completed after 12 iterations at t[s]:    277.58
	Linear fluid (dielectric constant: 78.4, screening length: 8.12261 Bohr) occupying 0.506888 of unit cell:	Completed after 8 iterations at t[s]:    279.67
	FillingsUpdate:  mu: -0.171300000  nElectrons: 75.897400  magneticMoment: [ Abs: 0.00000  Tot: -0.00000 ]
	SubspaceRotationAdjust: set factor to 0.224
ElecMinimize: Iter:   9  G: -577.410979485604571  |grad|_K:  1.063e-06  alpha:  3.623e-01  linmin: -3.673e-05  t[s]:    282.66
	Linear fluid (dielectric constant: 78.4, screening length: 8.12261 Bohr) occupying 0.507445 of unit cell:	Completed after 12 iterations at t[s]:    285.13
	Linear fluid (dielectric constant: 78.4, screening length: 8.12261 Bohr) occupying 0.507444 of unit cell:	Completed after 0 iterations at t[s]:    286.99
	FillingsUpdate:  mu: -0.171300000  nElectrons: 75.896108  magneticMoment: [ Abs: 0.00000  Tot: -0.00000 ]
	SubspaceRotationAdjust: set factor to 0.245
ElecMinimize: Iter:  10  G: -577.411012323962950  |grad|_K:  9.255e-07  alpha:  3.617e-01  linmin: -3.856e-05  t[s]:    289.99
	Linear fluid (dielectric constant: 78.4, screening length: 8.12261 Bohr) occupying 0.507763 of unit cell:	Completed after 10 iterations at t[s]:    292.43
	Linear fluid (dielectric constant: 78.4, screening length: 8.12261 Bohr) occupying 0.507771 of unit cell:	Completed after 2 iterations at t[s]:    294.38
	FillingsUpdate:  mu: -0.171300000  nElectrons: 75.895711  magneticMoment: [ Abs: 0.00000  Tot: -0.00000 ]
	SubspaceRotationAdjust: set factor to 0.26
ElecMinimize: Iter:  11  G: -577.411037810076891  |grad|_K:  8.276e-07  alpha:  3.705e-01  linmin: -2.023e-05  t[s]:    297.38
	Linear fluid (dielectric constant: 78.4, screening length: 8.12261 Bohr) occupying 0.507928 of unit cell:	Completed after 10 iterations at t[s]:    299.84
	Linear fluid (dielectric constant: 78.4, screening length: 8.12261 Bohr) occupying 0.507918 of unit cell:	Completed after 2 iterations at t[s]:    301.78
	FillingsUpdate:  mu: -0.171300000  nElectrons: 75.896435  magneticMoment: [ Abs: 0.00000  Tot: -0.00000 ]
	SubspaceRotationAdjust: set factor to 0.274
ElecMinimize: Iter:  12  G: -577.411056762243334  |grad|_K:  6.848e-07  alpha:  3.449e-01  linmin: -4.377e-06  t[s]:    304.95
	Linear fluid (dielectric constant: 78.4, screening length: 8.12261 Bohr) occupying 0.507951 of unit cell:	Completed after 6 iterations at t[s]:    307.33
	Linear fluid (dielectric constant: 78.4, screening length: 8.12261 Bohr) occupying 0.507951 of unit cell:	Completed after 0 iterations at t[s]:    309.22
	FillingsUpdate:  mu: -0.171300000  nElectrons: 75.896828  magneticMoment: [ Abs: 0.00000  Tot: -0.00000 ]
	SubspaceRotationAdjust: set factor to 0.294
ElecMinimize: Iter:  13  G: -577.411069748429782  |grad|_K:  5.645e-07  alpha:  3.454e-01  linmin: -1.856e-06  t[s]:    312.21
	Linear fluid (dielectric constant: 78.4, screening length: 8.12261 Bohr) occupying 0.507928 of unit cell:	Completed after 10 iterations at t[s]:    314.62
	Linear fluid (dielectric constant: 78.4, screening length: 8.12261 Bohr) occupying 0.507929 of unit cell:	Completed after 2 iterations at t[s]:    316.58
	FillingsUpdate:  mu: -0.171300000  nElectrons: 75.897085  magneticMoment: [ Abs: 0.00000  Tot: -0.00000 ]
	SubspaceRotationAdjust: set factor to 0.32
ElecMinimize: Iter:  14  G: -577.411078257172790  |grad|_K:  4.653e-07  alpha:  3.331e-01  linmin:  6.611e-06  t[s]:    319.57
	Linear fluid (dielectric constant: 78.4, screening length: 8.12261 Bohr) occupying 0.507879 of unit cell:	Completed after 9 iterations at t[s]:    321.96
	Linear fluid (dielectric constant: 78.4, screening length: 8.12261 Bohr) occupying 0.507877 of unit cell:	Completed after 0 iterations at t[s]:    323.87
	FillingsUpdate:  mu: -0.171300000  nElectrons: 75.897601  magneticMoment: [ Abs: 0.00000  Tot: -0.00000 ]
	SubspaceRotationAdjust: set factor to 0.37
ElecMinimize: Iter:  15  G: -577.411084187465804  |grad|_K:  3.818e-07  alpha:  3.417e-01  linmin: -9.705e-06  t[s]:    326.86
	Linear fluid (dielectric constant: 78.4, screening length: 8.12261 Bohr) occupying 0.507806 of unit cell:	Completed after 3 iterations at t[s]:    329.16
	Linear fluid (dielectric constant: 78.4, screening length: 8.12261 Bohr) occupying 0.507808 of unit cell:	Completed after 1 iterations at t[s]:    331.07
	FillingsUpdate:  mu: -0.171300000  nElectrons: 75.897947  magneticMoment: [ Abs: 0.00000  Tot: -0.00000 ]
	SubspaceRotationAdjust: set factor to 0.45
ElecMinimize: Iter:  16  G: -577.411088076935584  |grad|_K:  3.269e-07  alpha:  3.329e-01  linmin:  1.901e-06  t[s]:    334.24
	Linear fluid (dielectric constant: 78.4, screening length: 8.12261 Bohr) occupying 0.507712 of unit cell:	Completed after 8 iterations at t[s]:    336.76
	Linear fluid (dielectric constant: 78.4, screening length: 8.12261 Bohr) occupying 0.507710 of unit cell:	Completed after 0 iterations at t[s]:    338.62
	FillingsUpdate:  mu: -0.171300000  nElectrons: 75.898242  magneticMoment: [ Abs: 0.00000  Tot: -0.00000 ]
	SubspaceRotationAdjust: set factor to 0.553
ElecMinimize: Iter:  17  G: -577.411091001342811  |grad|_K:  2.867e-07  alpha:  3.415e-01  linmin: -7.799e-06  t[s]:    341.62
	Linear fluid (dielectric constant: 78.4, screening length: 8.12261 Bohr) occupying 0.507579 of unit cell:	Completed after 4 iterations at t[s]:    343.98
	Linear fluid (dielectric constant: 78.4, screening length: 8.12261 Bohr) occupying 0.507581 of unit cell:	Completed after 0 iterations at t[s]:    345.90
	FillingsUpdate:  mu: -0.171300000  nElectrons: 75.898813  magneticMoment: [ Abs: 0.00000  Tot: -0.00000 ]
	SubspaceRotationAdjust: set factor to 0.648
ElecMinimize: Iter:  18  G: -577.411093207946465  |grad|_K:  2.593e-07  alpha:  3.349e-01  linmin:  4.310e-06  t[s]:    348.91
	Linear fluid (dielectric constant: 78.4, screening length: 8.12261 Bohr) occupying 0.507422 of unit cell:	Completed after 7 iterations at t[s]:    351.34
	Linear fluid (dielectric constant: 78.4, screening length: 8.12261 Bohr) occupying 0.507435 of unit cell:	Completed after 2 iterations at t[s]:    353.28
	FillingsUpdate:  mu: -0.171300000  nElectrons: 75.899288  magneticMoment: [ Abs: 0.00000  Tot: -0.00000 ]
	SubspaceRotationAdjust: set factor to 0.712
ElecMinimize: Iter:  19  G: -577.411094872927720  |grad|_K:  2.180e-07  alpha:  3.090e-01  linmin:  1.464e-05  t[s]:    356.27
	Linear fluid (dielectric constant: 78.4, screening length: 8.12261 Bohr) occupying 0.507296 of unit cell:	Completed after 9 iterations at t[s]:    358.74
	Linear fluid (dielectric constant: 78.4, screening length: 8.12261 Bohr) occupying 0.507298 of unit cell:	Completed after 0 iterations at t[s]:    360.61
	FillingsUpdate:  mu: -0.171300000  nElectrons: 75.900027  magneticMoment: [ Abs: 0.00000  Tot: -0.00000 ]
	SubspaceRotationAdjust: set factor to 0.74
ElecMinimize: Iter:  20  G: -577.411096033703188  |grad|_K:  1.892e-07  alpha:  3.049e-01  linmin:  7.640e-06  t[s]:    363.74
	Linear fluid (dielectric constant: 78.4, screening length: 8.12261 Bohr) occupying 0.507184 of unit cell:	Completed after 9 iterations at t[s]:    366.33
	Linear fluid (dielectric constant: 78.4, screening length: 8.12261 Bohr) occupying 0.507196 of unit cell:	Completed after 3 iterations at t[s]:    368.28
	FillingsUpdate:  mu: -0.171300000  nElectrons: 75.900193  magneticMoment: [ Abs: 0.00000  Tot: -0.00000 ]
	SubspaceRotationAdjust: set factor to 0.735
ElecMinimize: Iter:  21  G: -577.411096815952646  |grad|_K:  1.701e-07  alpha:  2.727e-01  linmin:  2.221e-05  t[s]:    371.27
	Linear fluid (dielectric constant: 78.4, screening length: 8.12261 Bohr) occupying 0.507121 of unit cell:	Completed after 10 iterations at t[s]:    373.69
	Linear fluid (dielectric constant: 78.4, screening length: 8.12261 Bohr) occupying 0.507142 of unit cell:	Completed after 8 iterations at t[s]:    375.78
	FillingsUpdate:  mu: -0.171300000  nElectrons: 75.900876  magneticMoment: [ Abs: 0.00000  Tot: -0.00000 ]
	SubspaceRotationAdjust: set factor to 0.628
ElecMinimize: Iter:  22  G: -577.411097265626609  |grad|_K:  1.611e-07  alpha:  1.953e-01  linmin: -4.168e-05  t[s]:    378.78
	Linear fluid (dielectric constant: 78.4, screening length: 8.12261 Bohr) occupying 0.507109 of unit cell:	Completed after 8 iterations at t[s]:    381.17
	Linear fluid (dielectric constant: 78.4, screening length: 8.12261 Bohr) occupying 0.507110 of unit cell:	Completed after 0 iterations at t[s]:    383.04
	FillingsUpdate:  mu: -0.171300000  nElectrons: 75.900647  magneticMoment: [ Abs: 0.00000  Tot: -0.00000 ]
	SubspaceRotationAdjust: set factor to 0.584
ElecMinimize: Iter:  23  G: -577.411097665484590  |grad|_K:  1.199e-07  alpha:  1.917e-01  linmin:  8.928e-05  t[s]:    386.03
	Linear fluid (dielectric constant: 78.4, screening length: 8.12261 Bohr) occupying 0.507106 of unit cell:	Completed after 8 iterations at t[s]:    388.47
	Linear fluid (dielectric constant: 78.4, screening length: 8.12261 Bohr) occupying 0.507104 of unit cell:	Completed after 2 iterations at t[s]:    390.41
	FillingsUpdate:  mu: -0.171300000  nElectrons: 75.900708  magneticMoment: [ Abs: 0.00000  Tot: -0.00000 ]
	SubspaceRotationAdjust: set factor to 0.696
ElecMinimize: Iter:  24  G: -577.411097983082072  |grad|_K:  9.884e-08  alpha:  2.760e-01  linmin: -1.290e-04  t[s]:    393.52
	Linear fluid (dielectric constant: 78.4, screening length: 8.12261 Bohr) occupying 0.507120 of unit cell:	Completed after 7 iterations at t[s]:    396.08
	Linear fluid (dielectric constant: 78.4, screening length: 8.12261 Bohr) occupying 0.507122 of unit cell:	Completed after 0 iterations at t[s]:    397.98
	FillingsUpdate:  mu: -0.171300000  nElectrons: 75.900749  magneticMoment: [ Abs: 0.00000  Tot: -0.00000 ]
	SubspaceRotationAdjust: set factor to 0.783
ElecMinimize: Iter:  25  G: -577.411098220331041  |grad|_K:  9.356e-08  alpha:  3.013e-01  linmin: -1.965e-04  t[s]:    400.97
	Linear fluid (dielectric constant: 78.4, screening length: 8.12261 Bohr) occupying 0.507163 of unit cell:	Completed after 9 iterations at t[s]:    403.45
	Linear fluid (dielectric constant: 78.4, screening length: 8.12261 Bohr) occupying 0.507149 of unit cell:	Completed after 8 iterations at t[s]:    405.53
	FillingsUpdate:  mu: -0.171300000  nElectrons: 75.900393  magneticMoment: [ Abs: 0.00000  Tot: -0.00000 ]
	SubspaceRotationAdjust: set factor to 0.739
ElecMinimize: Iter:  26  G: -577.411098361036011  |grad|_K:  8.681e-08  alpha:  1.974e-01  linmin:  6.644e-05  t[s]:    408.53
	Linear fluid (dielectric constant: 78.4, screening length: 8.12261 Bohr) occupying 0.507184 of unit cell:	Completed after 8 iterations at t[s]:    410.96
	Linear fluid (dielectric constant: 78.4, screening length: 8.12261 Bohr) occupying 0.507184 of unit cell:	Completed after 0 iterations at t[s]:    412.82
	FillingsUpdate:  mu: -0.171300000  nElectrons: 75.900463  magneticMoment: [ Abs: 0.00000  Tot: +0.00000 ]
	SubspaceRotationAdjust: set factor to 0.711
ElecMinimize: Iter:  27  G: -577.411098478855479  |grad|_K:  6.868e-08  alpha:  1.957e-01  linmin:  1.253e-05  t[s]:    415.83
	Linear fluid (dielectric constant: 78.4, screening length: 8.12261 Bohr) occupying 0.507216 of unit cell:	Completed after 7 iterations at t[s]:    418.21
	Linear fluid (dielectric constant: 78.4, screening length: 8.12261 Bohr) occupying 0.507226 of unit cell:	Completed after 2 iterations at t[s]:    421.05
	FillingsUpdate:  mu: -0.171300000  nElectrons: 75.900240  magneticMoment: [ Abs: 0.00000  Tot: +0.00000 ]
	SubspaceRotationAdjust: set factor to 0.758
ElecMinimize: Iter:  28  G: -577.411098577503594  |grad|_K:  5.560e-08  alpha:  2.608e-01  linmin: -6.422e-05  t[s]:    424.57
	Linear fluid (dielectric constant: 78.4, screening length: 8.12261 Bohr) occupying 0.507259 of unit cell:	Completed after 2 iterations at t[s]:    426.86
	Linear fluid (dielectric constant: 78.4, screening length: 8.12261 Bohr) occupying 0.507263 of unit cell:	Completed after 0 iterations at t[s]:    428.75
	FillingsUpdate:  mu: -0.171300000  nElectrons: 75.900111  magneticMoment: [ Abs: 0.00000  Tot: +0.00000 ]
	SubspaceRotationAdjust: set factor to 0.785
ElecMinimize: Iter:  29  G: -577.411098651924021  |grad|_K:  4.699e-08  alpha:  2.989e-01  linmin: -2.405e-05  t[s]:    431.75
ElecMinimize: Converged (|Delta G|<1.000000e-07 for 2 iters).
Setting wave functions to eigenvectors of Hamiltonian
Converging empty states (this may take a while): |deigs|: 4.649e-04
Single-point solvation energy estimate, DeltaG = -0.001675259664466

Computing DFT-D3 correction:
# coordination-number Ag 9.174 6.151 6.151 9.174
# diagonal-C6 Ag 268.61 268.61 268.61 268.61
EvdW_6 =   -0.020757
EvdW_8 =   -0.031120

# Ionic positions in cartesian coordinates:
ion Ag   0.000000000000000   0.000000000000000  40.244759000000002 1
ion Ag   2.710223000000000   2.710223000000000  44.077578000000003 1
ion Ag   0.000000000000000   5.420446999999999  32.579075000000003 1
ion Ag   2.710223000000000   2.710223000000000  36.411940000000001 1

# Forces in Cartesian coordinates:
force Ag  -0.000001537320803  -0.000001534944023   0.000607691223649 1
force Ag   0.000002537172539   0.000002548539859   0.002492194878047 1
force Ag  -0.000002544355123  -0.000002546574840  -0.002489825479231 1
force Ag   0.000001542123345   0.000001534895182  -0.000611114410064 1

# Energy components:
   A_diel =        0.0188894812316829
   Eewald =     1740.7638028353221671
       EH =     2271.9545116909634999
     Eloc =    -4695.9586984165698595
      Enl =       15.7925010196475757
     EvdW =       -0.0518779201202508
      Exc =      -57.9352868440507294
 Exc_core =        0.8326852544852748
       KE =      134.1651827637845713
  MuShift =        0.0055739243916982
-------------------------------------
     Etot =     -590.4127162109143683
       TS =        0.0000713883585873
-------------------------------------
        F =     -590.4127875992729741
      muN =      -13.0016889473489723
-------------------------------------
        G =     -577.4110986519240214


Dumping 'jdft.fillings' ... done
Dumping 'jdft.wfns' ... done
Dumping 'jdft.fluidState' ... done
Dumping 'jdft.ionpos' ... done
Dumping 'jdft.lattice' ... done
Dumping 'jdft.eigenvals' ... done
Dumping 'jdft.eigStats' ... 
	eMin: -3.553237 at state 144 ( [ +0.000000 +0.000000 +0.000000 ] spin -1 )
	HOMO: -0.172305 at state 241 ( [ -0.333333 +0.083333 +0.000000 ] spin -1 )
	mu  : -0.171300
	LUMO: -0.167271 at state 144 ( [ +0.000000 +0.000000 +0.000000 ] spin -1 )
	eMax: +0.226594 at state 0 ( [ +0.000000 +0.000000 +0.000000 ] spin 1 )
	HOMO-LUMO gap: +0.005034
	Optical gap  : +0.022203 at state 150 ( [ +0.000000 +0.500000 +0.000000 ] spin -1 )
Dumping 'jdft.Ecomponents' ... done
IonicMinimize: Iter:   0  G: -577.411098651924021  |grad|_K:  1.047e-03  t[s]:    447.80

#--- Lowdin population analysis ---
# oxidation-state Ag -0.042 +0.104 +0.104 -0.042
# magnetic-moments Ag +0.000 -0.000 +0.000 -0.000


Computing DFT-D3 correction:
# coordination-number Ag 9.169 6.148 6.147 9.169
# diagonal-C6 Ag 268.61 268.61 268.61 268.61
EvdW_6 =   -0.020752
EvdW_8 =   -0.031112
Shifting auxilliary hamiltonian by 0.000010 to set nElectrons=75.900111

-------- Electronic minimization -----------
	Linear fluid (dielectric constant: 78.4, screening length: 8.12261 Bohr) occupying 0.507093 of unit cell:	Completed after 12 iterations at t[s]:    450.41
	FillingsUpdate:  mu: -0.171300000  nElectrons: 75.900111  magneticMoment: [ Abs: 0.00000  Tot: +0.00000 ]
ElecMinimize: Iter:   0  G: -577.411109312148483  |grad|_K:  1.450e-07  alpha:  1.000e+00
	Linear fluid (dielectric constant: 78.4, screening length: 8.12261 Bohr) occupying 0.507131 of unit cell:	Completed after 12 iterations at t[s]:    456.68
	Linear fluid (dielectric constant: 78.4, screening length: 8.12261 Bohr) occupying 0.507107 of unit cell:	Completed after 11 iterations at t[s]:    458.82
	FillingsUpdate:  mu: -0.171300000  nElectrons: 75.899614  magneticMoment: [ Abs: 0.00000  Tot: +0.00000 ]
	SubspaceRotationAdjust: set factor to 0.42
ElecMinimize: Iter:   1  G: -577.411109922210130  |grad|_K:  2.422e-07  alpha:  3.594e-01  linmin: -1.362e-04  t[s]:    461.80
	Linear fluid (dielectric constant: 78.4, screening length: 8.12261 Bohr) occupying 0.507149 of unit cell:	Completed after 11 iterations at t[s]:    464.23
	Linear fluid (dielectric constant: 78.4, screening length: 8.12261 Bohr) occupying 0.507125 of unit cell:	Completed after 9 iterations at t[s]:    466.33
	FillingsUpdate:  mu: -0.171300000  nElectrons: 75.900628  magneticMoment: [ Abs: 0.00000  Tot: +0.00000 ]
	SubspaceRotationAdjust: set factor to 0.293
ElecMinimize: Iter:   2  G: -577.411110655006382  |grad|_K:  8.587e-08  alpha:  1.568e-01  linmin:  1.727e-04  t[s]:    469.33
	Linear fluid (dielectric constant: 78.4, screening length: 8.12261 Bohr) occupying 0.507130 of unit cell:	Completed after 2 iterations at t[s]:    471.55
	Linear fluid (dielectric constant: 78.4, screening length: 8.12261 Bohr) occupying 0.507137 of unit cell:	Completed after 3 iterations at t[s]:    473.52
	FillingsUpdate:  mu: -0.171300000  nElectrons: 75.900500  magneticMoment: [ Abs: 0.00000  Tot: +0.00000 ]
	SubspaceRotationAdjust: set factor to 0.425
ElecMinimize: Iter:   3  G: -577.411110878417617  |grad|_K:  5.151e-08  alpha:  3.791e-01  linmin: -1.753e-04  t[s]:    476.54
	Linear fluid (dielectric constant: 78.4, screening length: 8.12261 Bohr) occupying 0.507144 of unit cell:	Completed after 9 iterations at t[s]:    479.05
	Linear fluid (dielectric constant: 78.4, screening length: 8.12261 Bohr) occupying 0.507141 of unit cell:	Completed after 8 iterations at t[s]:    481.13
	FillingsUpdate:  mu: -0.171300000  nElectrons: 75.900242  magneticMoment: [ Abs: 0.00000  Tot: +0.00000 ]
	SubspaceRotationAdjust: set factor to 0.295
ElecMinimize: Iter:   4  G: -577.411110930402515  |grad|_K:  2.547e-08  alpha:  2.433e-01  linmin: -3.034e-05  t[s]:    484.31
	Linear fluid (dielectric constant: 78.4, screening length: 8.12261 Bohr) occupying 0.507143 of unit cell:	Completed after 8 iterations at t[s]:    486.84
	Linear fluid (dielectric constant: 78.4, screening length: 8.12261 Bohr) occupying 0.507143 of unit cell:	Completed after 0 iterations at t[s]:    488.70
	FillingsUpdate:  mu: -0.171300000  nElectrons: 75.900294  magneticMoment: [ Abs: 0.00000  Tot: +0.00000 ]
	SubspaceRotationAdjust: set factor to 0.205
ElecMinimize: Iter:   5  G: -577.411110943799258  |grad|_K:  1.403e-08  alpha:  2.569e-01  linmin: -1.185e-03  t[s]:    491.69
ElecMinimize: Converged (|Delta G|<1.000000e-07 for 2 iters).
Setting wave functions to eigenvectors of Hamiltonian
Converging empty states (this may take a while): |deigs|: 3.709e-07

Computing DFT-D3 correction:
# coordination-number Ag 9.169 6.148 6.147 9.169
# diagonal-C6 Ag 268.61 268.61 268.61 268.61
EvdW_6 =   -0.020752
EvdW_8 =   -0.031112

# Ionic positions in cartesian coordinates:
ion Ag  -0.000001536725793  -0.000001535423068  40.245366954670551 1
ion Ag   2.710225537767549   2.710225548060814  44.080070458324947 1
ion Ag  -0.000002543760113   5.420444452946115  32.576585437967672 1
ion Ag   2.710224542718355   2.710224534416137  36.411329149036831 1

# Forces in Cartesian coordinates:
force Ag  -0.000001403569349  -0.000001402722827   0.000471490601172 1
force Ag   0.000002529909178   0.000002530509592   0.002158905138429 1
force Ag  -0.000002528513223  -0.000002529554707  -0.002156462508073 1
force Ag   0.000001405363126   0.000001406179362  -0.000474463899323 1

# Energy components:
   A_diel =        0.0188557026448434
   Eewald =     1739.9468110623404300
       EH =     2271.1472903651224442
     Eloc =    -4694.3344286699857548
      Enl =       15.7928286596312990
     EvdW =       -0.0518639502676513
      Exc =      -57.9350544038092821
 Exc_core =        0.8326852537625070
       KE =      134.1645524904945717
  MuShift =        0.0055636915846138
-------------------------------------
     Etot =     -590.4127597984817157
       TS =        0.0000715057407773
-------------------------------------
        F =     -590.4128313042224363
      muN =      -13.0017203604232225
-------------------------------------
        G =     -577.4111109437992582


Dumping 'jdft.fillings' ... done
Dumping 'jdft.wfns' ... done
Dumping 'jdft.fluidState' ... done
Dumping 'jdft.ionpos' ... done
Dumping 'jdft.lattice' ... done
Dumping 'jdft.eigenvals' ... done
Dumping 'jdft.eigStats' ... 
	eMin: -3.553094 at state 0 ( [ +0.000000 +0.000000 +0.000000 ] spin 1 )
	HOMO: -0.172271 at state 59 ( [ +0.333333 -0.083333 +0.000000 ] spin 1 )
	mu  : -0.171300
	LUMO: -0.167279 at state 144 ( [ +0.000000 +0.000000 +0.000000 ] spin -1 )
	eMax: +0.226587 at state 0 ( [ +0.000000 +0.000000 +0.000000 ] spin 1 )
	HOMO-LUMO gap: +0.004992
	Optical gap  : +0.022174 at state 150 ( [ +0.000000 +0.500000 +0.000000 ] spin -1 )
Dumping 'jdft.Ecomponents' ... done
IonicMinimize: Iter:   1  G: -577.411110943799258  |grad|_K:  9.018e-04  alpha:  1.000e+00  linmin: -9.997e-01  t[s]:    499.08

#--- Lowdin population analysis ---
# oxidation-state Ag -0.042 +0.104 +0.104 -0.042
# magnetic-moments Ag -0.000 +0.000 +0.000 +0.000


Computing DFT-D3 correction:
# coordination-number Ag 9.138 6.121 6.121 9.138
# diagonal-C6 Ag 268.61 268.61 268.61 268.61
EvdW_6 =   -0.020718
EvdW_8 =   -0.031066
Shifting auxilliary hamiltonian by -0.000034 to set nElectrons=75.900294

-------- Electronic minimization -----------
	Linear fluid (dielectric constant: 78.4, screening length: 8.12261 Bohr) occupying 0.505852 of unit cell:	Completed after 15 iterations at t[s]:    501.83
	FillingsUpdate:  mu: -0.171300000  nElectrons: 75.900294  magneticMoment: [ Abs: 0.00000  Tot: -0.00000 ]
ElecMinimize: Iter:   0  G: -577.411087863041075  |grad|_K:  6.244e-07  alpha:  1.000e+00
	Linear fluid (dielectric constant: 78.4, screening length: 8.12261 Bohr) occupying 0.505981 of unit cell:	Completed after 12 iterations at t[s]:    507.79
	Linear fluid (dielectric constant: 78.4, screening length: 8.12261 Bohr) occupying 0.505958 of unit cell:	Completed after 11 iterations at t[s]:    509.93
	FillingsUpdate:  mu: -0.171300000  nElectrons: 75.900410  magneticMoment: [ Abs: 0.00000  Tot: +0.00000 ]
	SubspaceRotationAdjust: set factor to 0.266
ElecMinimize: Iter:   1  G: -577.411113457924330  |grad|_K:  7.258e-07  alpha:  8.187e-01  linmin:  1.444e-05  t[s]:    512.99
	Linear fluid (dielectric constant: 78.4, screening length: 8.12261 Bohr) occupying 0.506162 of unit cell:	Completed after 12 iterations at t[s]:    515.67
	Linear fluid (dielectric constant: 78.4, screening length: 8.12261 Bohr) occupying 0.506122 of unit cell:	Completed after 10 iterations at t[s]:    517.82
	FillingsUpdate:  mu: -0.171300000  nElectrons: 75.904170  magneticMoment: [ Abs: 0.00000  Tot: +0.00000 ]
	SubspaceRotationAdjust: set factor to 0.275
ElecMinimize: Iter:   2  G: -577.411140996380709  |grad|_K:  7.849e-07  alpha:  6.552e-01  linmin: -9.148e-05  t[s]:    520.81
	Linear fluid (dielectric constant: 78.4, screening length: 8.12261 Bohr) occupying 0.506346 of unit cell:	Completed after 13 iterations at t[s]:    523.29
	Linear fluid (dielectric constant: 78.4, screening length: 8.12261 Bohr) occupying 0.506291 of unit cell:	Completed after 11 iterations at t[s]:    525.43
	FillingsUpdate:  mu: -0.171300000  nElectrons: 75.902162  magneticMoment: [ Abs: 0.00000  Tot: +0.00000 ]
	SubspaceRotationAdjust: set factor to 0.258
ElecMinimize: Iter:   3  G: -577.411165552255625  |grad|_K:  5.122e-07  alpha:  4.934e-01  linmin:  3.839e-05  t[s]:    528.41
	Linear fluid (dielectric constant: 78.4, screening length: 8.12261 Bohr) occupying 0.506356 of unit cell:	Completed after 12 iterations at t[s]:    530.94
	Linear fluid (dielectric constant: 78.4, screening length: 8.12261 Bohr) occupying 0.506348 of unit cell:	Completed after 9 iterations at t[s]:    533.03
	FillingsUpdate:  mu: -0.171300000  nElectrons: 75.902611  magneticMoment: [ Abs: 0.00000  Tot: +0.00000 ]
	SubspaceRotationAdjust: set factor to 0.258
ElecMinimize: Iter:   4  G: -577.411174669195816  |grad|_K:  3.156e-07  alpha:  4.344e-01  linmin: -4.057e-06  t[s]:    536.02
	Linear fluid (dielectric constant: 78.4, screening length: 8.12261 Bohr) occupying 0.506362 of unit cell:	Completed after 9 iterations at t[s]:    538.49
	Linear fluid (dielectric constant: 78.4, screening length: 8.12261 Bohr) occupying 0.506359 of unit cell:	Completed after 8 iterations at t[s]:    540.57
	FillingsUpdate:  mu: -0.171300000  nElectrons: 75.901937  magneticMoment: [ Abs: 0.00000  Tot: +0.00000 ]
	SubspaceRotationAdjust: set factor to 0.278
ElecMinimize: Iter:   5  G: -577.411177448202238  |grad|_K:  1.763e-07  alpha:  3.479e-01  linmin:  1.966e-06  t[s]:    543.73
	Linear fluid (dielectric constant: 78.4, screening length: 8.12261 Bohr) occupying 0.506359 of unit cell:	Completed after 10 iterations at t[s]:    546.32
	Linear fluid (dielectric constant: 78.4, screening length: 8.12261 Bohr) occupying 0.506359 of unit cell:	Completed after 2 iterations at t[s]:    548.27
	FillingsUpdate:  mu: -0.171300000  nElectrons: 75.901499  magneticMoment: [ Abs: 0.00000  Tot: +0.00000 ]
	SubspaceRotationAdjust: set factor to 0.298
ElecMinimize: Iter:   6  G: -577.411178457507617  |grad|_K:  9.260e-08  alpha:  4.051e-01  linmin: -6.604e-05  t[s]:    551.27
	Linear fluid (dielectric constant: 78.4, screening length: 8.12261 Bohr) occupying 0.506361 of unit cell:	Completed after 8 iterations at t[s]:    553.63
	Linear fluid (dielectric constant: 78.4, screening length: 8.12261 Bohr) occupying 0.506361 of unit cell:	Completed after 0 iterations at t[s]:    555.54
	FillingsUpdate:  mu: -0.171300000  nElectrons: 75.901232  magneticMoment: [ Abs: 0.00000  Tot: +0.00000 ]
	SubspaceRotationAdjust: set factor to 0.315
ElecMinimize: Iter:   7  G: -577.411178748318321  |grad|_K:  5.883e-08  alpha:  4.226e-01  linmin: -3.843e-04  t[s]:    558.52
	Linear fluid (dielectric constant: 78.4, screening length: 8.12261 Bohr) occupying 0.506367 of unit cell:	Completed after 2 iterations at t[s]:    560.76
	Linear fluid (dielectric constant: 78.4, screening length: 8.12261 Bohr) occupying 0.506367 of unit cell:	Completed after 0 iterations at t[s]:    562.62
	FillingsUpdate:  mu: -0.171300000  nElectrons: 75.901114  magneticMoment: [ Abs: 0.00000  Tot: +0.00000 ]
	SubspaceRotationAdjust: set factor to 0.331
ElecMinimize: Iter:   8  G: -577.411178861715598  |grad|_K:  3.683e-08  alpha:  4.059e-01  linmin:  7.308e-04  t[s]:    565.61
	Linear fluid (dielectric constant: 78.4, screening length: 8.12261 Bohr) occupying 0.506375 of unit cell:	Completed after 2 iterations at t[s]:    567.93
	Linear fluid (dielectric constant: 78.4, screening length: 8.12261 Bohr) occupying 0.506375 of unit cell:	Completed after 0 iterations at t[s]:    569.79
	FillingsUpdate:  mu: -0.171300000  nElectrons: 75.900982  magneticMoment: [ Abs: 0.00000  Tot: +0.00000 ]
	SubspaceRotationAdjust: set factor to 0.364
ElecMinimize: Iter:   9  G: -577.411178906895429  |grad|_K:  2.397e-08  alpha:  4.208e-01  linmin: -6.987e-04  t[s]:    572.87
	Linear fluid (dielectric constant: 78.4, screening length: 8.12261 Bohr) occupying 0.506384 of unit cell:	Completed after 2 iterations at t[s]:    575.29
	Linear fluid (dielectric constant: 78.4, screening length: 8.12261 Bohr) occupying 0.506385 of unit cell:	Completed after 0 iterations at t[s]:    577.20
	FillingsUpdate:  mu: -0.171300000  nElectrons: 75.900935  magneticMoment: [ Abs: 0.00000  Tot: +0.00000 ]
	SubspaceRotationAdjust: set factor to 0.44
ElecMinimize: Iter:  10  G: -577.411178929226253  |grad|_K:  1.663e-08  alpha:  4.768e-01  linmin: -2.297e-04  t[s]:    580.19
ElecMinimize: Converged (|Delta G|<1.000000e-07 for 2 iters).
Setting wave functions to eigenvectors of Hamiltonian
Converging empty states (this may take a while): |deigs|: 2.356e-07

Computing DFT-D3 correction:
# coordination-number Ag 9.138 6.121 6.121 9.138
# diagonal-C6 Ag 268.61 268.61 268.61 268.61
EvdW_6 =   -0.020718
EvdW_8 =   -0.031066

# Ionic positions in cartesian coordinates:
ion Ag  -0.000015417195738  -0.000015437050806  40.246601257662142 1
ion Ag   2.710259102939539   2.710258744257106  44.096563453321771 1
ion Ag  -0.000035895498323   5.420411155777175  32.560121702963528 1
ion Ag   2.710238209754522   2.710238537016525  36.410065586052561 1

# Forces in Cartesian coordinates:
force Ag  -0.000000350980769  -0.000000349190883   0.000911976644736 1
force Ag   0.000001689929415   0.000001694516214   0.001766444589236 1
force Ag  -0.000001694986114  -0.000001691469666  -0.001767128855355 1
force Ag   0.000000354761481   0.000000345118175  -0.000911315195027 1

# Energy components:
   A_diel =        0.0187424367480482
   Eewald =     1734.8323051497366123
       EH =     2266.0755294368213981
     Eloc =    -4684.1465355823274876
      Enl =       15.7940891074650995
     EvdW =       -0.0517841553231615
      Exc =      -57.9331053877210067
 Exc_core =        0.8326851851298125
       KE =      134.1596100098841191
  MuShift =        0.0055279483354488
-------------------------------------
     Etot =     -590.4129358512511772
       TS =        0.0000731644324637
-------------------------------------
        F =     -590.4130090156836559
      muN =      -13.0018300864574137
-------------------------------------
        G =     -577.4111789292262529


Dumping 'jdft.fillings' ... done
Dumping 'jdft.wfns' ... done
Dumping 'jdft.fluidState' ... done
Dumping 'jdft.ionpos' ... done
Dumping 'jdft.lattice' ... done
Dumping 'jdft.eigenvals' ... done
Dumping 'jdft.eigStats' ... 
	eMin: -3.552637 at state 0 ( [ +0.000000 +0.000000 +0.000000 ] spin 1 )
	HOMO: -0.172357 at state 280 ( [ -0.083333 +0.333333 +0.000000 ] spin -1 )
	mu  : -0.171300
	LUMO: -0.167539 at state 0 ( [ +0.000000 +0.000000 +0.000000 ] spin 1 )
	eMax: +0.226533 at state 0 ( [ +0.000000 +0.000000 +0.000000 ] spin 1 )
	HOMO-LUMO gap: +0.004818
	Optical gap  : +0.022126 at state 150 ( [ +0.000000 +0.500000 +0.000000 ] spin -1 )
Dumping 'jdft.Ecomponents' ... done
IonicMinimize: Iter:   2  G: -577.411178929226253  |grad|_K:  8.116e-04  alpha:  1.000e+00  linmin: -9.208e-01  t[s]:    587.38

#--- Lowdin population analysis ---
# oxidation-state Ag -0.041 +0.103 +0.103 -0.041
# magnetic-moments Ag +0.000 -0.000 -0.000 +0.000


Computing DFT-D3 correction:
# coordination-number Ag 8.884 6.015 6.015 8.884
# diagonal-C6 Ag 268.61 268.61 268.61 268.61
EvdW_6 =   -0.020478
EvdW_8 =   -0.030694
Shifting auxilliary hamiltonian by -0.000001 to set nElectrons=75.900935

-------- Electronic minimization -----------
	Linear fluid (dielectric constant: 78.4, screening length: 8.12261 Bohr) occupying 0.506490 of unit cell:	Completed after 18 iterations at t[s]:    589.93
	FillingsUpdate:  mu: -0.171300000  nElectrons: 75.900935  magneticMoment: [ Abs: 0.00000  Tot: +0.00000 ]
ElecMinimize: Iter:   0  G: -576.403599397723042  |grad|_K:  2.461e-04  alpha:  1.000e+00
	Linear fluid (dielectric constant: 78.4, screening length: 8.12261 Bohr) occupying 0.484039 of unit cell:	Completed after 125 iterations at t[s]:    598.49
	Linear fluid (dielectric constant: 78.4, screening length: 8.12261 Bohr) occupying 0.506586 of unit cell:	Completed after 31 iterations at t[s]:    601.08
	FillingsUpdate:  mu: -0.171300000  nElectrons: 75.855013  magneticMoment: [ Abs: 0.00000  Tot: +0.00000 ]
	SubspaceRotationAdjust: set factor to 0.631
ElecMinimize: Iter:   1  G: -576.487611921807570  |grad|_K:  2.466e-04  alpha:  8.328e-03  linmin: -3.505e-02  t[s]:    604.26
	Linear fluid (dielectric constant: 78.4, screening length: 8.12261 Bohr) occupying 0.506468 of unit cell:	Completed after 18 iterations at t[s]:    606.99
ElecMinimize: 	Wrong curvature in test step, increasing alphaT to 2.498433e-02.
	Linear fluid (dielectric constant: 78.4, screening length: 8.12261 Bohr) occupying 0.506468 of unit cell:	Completed after 0 iterations at t[s]:    608.29
	FillingsUpdate:  mu: -0.171300000  nElectrons: 75.685533  magneticMoment: [ Abs: 0.00000  Tot: +0.00000 ]
	SubspaceRotationAdjust: set factor to 0.79
ElecMinimize: Iter:   2  G: -576.667173528271292  |grad|_K:  2.288e-04  alpha: -6.499e-02  linmin: -3.910e-02  t[s]:    611.28
	Linear fluid (dielectric constant: 78.4, screening length: 8.12261 Bohr) occupying 0.514158 of unit cell:	Completed after 400 iterations at t[s]:    622.55
	Linear fluid (dielectric constant: 78.4, screening length: 8.12261 Bohr) occupying 0.505566 of unit cell:	Completed after 60 iterations at t[s]:    625.80
	FillingsUpdate:  mu: -0.171300000  nElectrons: 75.459211  magneticMoment: [ Abs: 0.00000  Tot: +0.00000 ]
	SubspaceRotationAdjust: set factor to 0.718
ElecMinimize: Iter:   3  G: -576.901791515895638  |grad|_K:  1.461e-04  alpha:  1.475e-02  linmin: -2.025e-02  t[s]:    628.78
	Linear fluid (dielectric constant: 78.4, screening length: 8.12261 Bohr) occupying 0.505729 of unit cell:	Completed after 16 iterations at t[s]:    631.41
ElecMinimize: 	Predicted alpha/alphaT>3.000000, increasing alphaT to 4.425489e-02.
	Linear fluid (dielectric constant: 78.4, screening length: 8.12261 Bohr) occupying 0.505888 of unit cell:	Completed after 18 iterations at t[s]:    633.96
	Linear fluid (dielectric constant: 78.4, screening length: 8.12261 Bohr) occupying 0.505517 of unit cell:	Completed after 15 iterations at t[s]:    636.34
	FillingsUpdate:  mu: -0.171300000  nElectrons: 75.268425  magneticMoment: [ Abs: 0.00000  Tot: +0.00000 ]
	SubspaceRotationAdjust: set factor to 0.495
ElecMinimize: Iter:   4  G: -577.145246856131052  |grad|_K:  1.002e-04  alpha:  5.995e-02  linmin: -1.522e-02  t[s]:    639.36
	Linear fluid (dielectric constant: 78.4, screening length: 8.12261 Bohr) occupying 0.505461 of unit cell:	Completed after 17 iterations at t[s]:    641.95
ElecMinimize: 	Wrong curvature in test step, increasing alphaT to 1.798442e-01.
	Linear fluid (dielectric constant: 78.4, screening length: 8.12261 Bohr) occupying 0.505461 of unit cell:	Completed after 0 iterations at t[s]:    643.24
	FillingsUpdate:  mu: -0.171300000  nElectrons: 75.649578  magneticMoment: [ Abs: 0.00000  Tot: +0.00000 ]
	SubspaceRotationAdjust: set factor to 0.307
ElecMinimize: Iter:   5  G: -577.328169098116746  |grad|_K:  7.600e-05  alpha: -1.006e-01  linmin: -2.624e-02  t[s]:    646.22
	Linear fluid (dielectric constant: 78.4, screening length: 8.12261 Bohr) occupying 0.571924 of unit cell:	Completed after 114 iterations at t[s]:    651.00
	Linear fluid (dielectric constant: 78.4, screening length: 8.12261 Bohr) occupying 0.520226 of unit cell:	Completed after 28 iterations at t[s]:    653.52
	FillingsUpdate:  mu: -0.171300000  nElectrons: 76.130480  magneticMoment: [ Abs: 0.00000  Tot: +0.00000 ]
	SubspaceRotationAdjust: set factor to 0.181
ElecMinimize: Iter:   6  G: -577.337017530660887  |grad|_K:  5.857e-05  alpha:  6.370e-02  linmin:  8.681e-03  t[s]:    656.52
	Linear fluid (dielectric constant: 78.4, screening length: 8.12261 Bohr) occupying 0.565385 of unit cell:	Completed after 28 iterations at t[s]:    659.36
	Linear fluid (dielectric constant: 78.4, screening length: 8.12261 Bohr) occupying 0.522761 of unit cell:	Completed after 23 iterations at t[s]:    661.81
	FillingsUpdate:  mu: -0.171300000  nElectrons: 76.141181  magneticMoment: [ Abs: 0.00000  Tot: +0.00000 ]
	SubspaceRotationAdjust: set factor to 0.22
ElecMinimize: Iter:   7  G: -577.337802577876687  |grad|_K:  5.290e-05  alpha:  7.238e-03  linmin: -1.835e-03  t[s]:    665.02
	Linear fluid (dielectric constant: 78.4, screening length: 8.12261 Bohr) occupying 0.523667 of unit cell:	Completed after 13 iterations at t[s]:    667.56
ElecMinimize: 	Predicted alpha/alphaT>3.000000, increasing alphaT to 2.171375e-02.
	Linear fluid (dielectric constant: 78.4, screening length: 8.12261 Bohr) occupying 0.525576 of unit cell:	Completed after 15 iterations at t[s]:    669.80
ElecMinimize: 	Predicted alpha/alphaT>3.000000, increasing alphaT to 6.514126e-02.
	Linear fluid (dielectric constant: 78.4, screening length: 8.12261 Bohr) occupying 0.532036 of unit cell:	Completed after 18 iterations at t[s]:    672.10
	Linear fluid (dielectric constant: 78.4, screening length: 8.12261 Bohr) occupying 0.535463 of unit cell:	Completed after 16 iterations at t[s]:    674.36
	FillingsUpdate:  mu: -0.171300000  nElectrons: 76.193104  magneticMoment: [ Abs: 0.00000  Tot: +0.00000 ]
	SubspaceRotationAdjust: set factor to 0.153
ElecMinimize: Iter:   8  G: -577.359001187429044  |grad|_K:  4.609e-05  alpha:  8.430e-02  linmin:  7.151e-04  t[s]:    677.35
	Linear fluid (dielectric constant: 78.4, screening length: 8.12261 Bohr) occupying 0.524685 of unit cell:	Completed after 21 iterations at t[s]:    680.04
	Linear fluid (dielectric constant: 78.4, screening length: 8.12261 Bohr) occupying 0.527832 of unit cell:	Completed after 17 iterations at t[s]:    682.32
	FillingsUpdate:  mu: -0.171300000  nElectrons: 76.164295  magneticMoment: [ Abs: 0.00000  Tot: +0.00000 ]
	SubspaceRotationAdjust: set factor to 0.213
ElecMinimize: Iter:   9  G: -577.367230373153575  |grad|_K:  3.006e-05  alpha:  5.265e-02  linmin:  3.322e-05  t[s]:    685.31
	Linear fluid (dielectric constant: 78.4, screening length: 8.12261 Bohr) occupying 0.521047 of unit cell:	Completed after 16 iterations at t[s]:    687.87
	Linear fluid (dielectric constant: 78.4, screening length: 8.12261 Bohr) occupying 0.516453 of unit cell:	Completed after 15 iterations at t[s]:    690.15
	FillingsUpdate:  mu: -0.171300000  nElectrons: 76.116652  magneticMoment: [ Abs: 0.00000  Tot: +0.00000 ]
	SubspaceRotationAdjust: set factor to 0.256
ElecMinimize: Iter:  10  G: -577.374844878007139  |grad|_K:  2.811e-05  alpha:  9.892e-02  linmin: -1.790e-03  t[s]:    693.26
	Linear fluid (dielectric constant: 78.4, screening length: 8.12261 Bohr) occupying 0.505651 of unit cell:	Completed after 15 iterations at t[s]:    696.04
	Linear fluid (dielectric constant: 78.4, screening length: 8.12261 Bohr) occupying 0.505375 of unit cell:	Completed after 15 iterations at t[s]:    698.32
	FillingsUpdate:  mu: -0.171300000  nElectrons: 75.904553  magneticMoment: [ Abs: 0.00000  Tot: +0.00000 ]
	SubspaceRotationAdjust: set factor to 0.211
ElecMinimize: Iter:  11  G: -577.377369763610432  |grad|_K:  4.847e-05  alpha:  1.836e-01  linmin:  1.873e-02  t[s]:    701.31
ElecMinimize: 	Bad step direction: g.d > 0.
ElecMinimize: 	Undoing step.
	Linear fluid (dielectric constant: 78.4, screening length: 8.12261 Bohr) occupying 0.505375 of unit cell:	Completed after 0 iterations at t[s]:    703.43
ElecMinimize: 	Step failed: resetting search direction.
	FillingsUpdate:  mu: -0.171300000  nElectrons: 75.904553  magneticMoment: [ Abs: 0.00000  Tot: +0.00000 ]
	SubspaceRotationAdjust: set factor to 0.188
ElecMinimize: Iter:  12  G: -577.377369763610432  |grad|_K:  4.580e-05  alpha:  0.000e+00
	Linear fluid (dielectric constant: 78.4, screening length: 8.12261 Bohr) occupying 0.505320 of unit cell:	Completed after 17 iterations at t[s]:    709.03
	Linear fluid (dielectric constant: 78.4, screening length: 8.12261 Bohr) occupying 0.505387 of unit cell:	Completed after 15 iterations at t[s]:    711.27
	FillingsUpdate:  mu: -0.171300000  nElectrons: 75.988091  magneticMoment: [ Abs: 0.00000  Tot: +0.00000 ]
	SubspaceRotationAdjust: set factor to 0.17
ElecMinimize: Iter:  13  G: -577.399572934042226  |grad|_K:  1.330e-05  alpha:  1.467e-01  linmin: -2.403e-02  t[s]:    714.26
	Linear fluid (dielectric constant: 78.4, screening length: 8.12261 Bohr) occupying 0.505240 of unit cell:	Completed after 12 iterations at t[s]:    716.76
	Linear fluid (dielectric constant: 78.4, screening length: 8.12261 Bohr) occupying 0.505028 of unit cell:	Completed after 14 iterations at t[s]:    718.99
	FillingsUpdate:  mu: -0.171300000  nElectrons: 75.968000  magneticMoment: [ Abs: 0.00000  Tot: +0.00000 ]
	SubspaceRotationAdjust: set factor to 0.143
ElecMinimize: Iter:  14  G: -577.404800194759900  |grad|_K:  7.987e-06  alpha:  3.233e-01  linmin:  8.379e-04  t[s]:    723.10
	Linear fluid (dielectric constant: 78.4, screening length: 8.12261 Bohr) occupying 0.504347 of unit cell:	Completed after 13 iterations at t[s]:    726.29
	Linear fluid (dielectric constant: 78.4, screening length: 8.12261 Bohr) occupying 0.504354 of unit cell:	Completed after 5 iterations at t[s]:    728.30
	FillingsUpdate:  mu: -0.171300000  nElectrons: 75.944036  magneticMoment: [ Abs: 0.00000  Tot: +0.00000 ]
	SubspaceRotationAdjust: set factor to 0.16
ElecMinimize: Iter:  15  G: -577.406414680905527  |grad|_K:  4.888e-06  alpha:  3.201e-01  linmin: -5.004e-03  t[s]:    731.29
	Linear fluid (dielectric constant: 78.4, screening length: 8.12261 Bohr) occupying 0.503777 of unit cell:	Completed after 13 iterations at t[s]:    733.76
	Linear fluid (dielectric constant: 78.4, screening length: 8.12261 Bohr) occupying 0.503232 of unit cell:	Completed after 15 iterations at t[s]:    736.01
ElecMinimize: 	Step increased G by 9.654768e-04, reducing alpha to 7.025996e-02.
	Linear fluid (dielectric constant: 78.4, screening length: 8.12261 Bohr) occupying 0.504223 of unit cell:	Completed after 15 iterations at t[s]:    740.94
	FillingsUpdate:  mu: -0.171300000  nElectrons: 75.941399  magneticMoment: [ Abs: 0.00000  Tot: +0.00000 ]
	SubspaceRotationAdjust: set factor to 0.151
ElecMinimize: Iter:  16  G: -577.406704997770476  |grad|_K:  4.519e-06  alpha:  7.026e-02  linmin: -1.716e-02  t[s]:    743.97
	Linear fluid (dielectric constant: 78.4, screening length: 8.12261 Bohr) occupying 0.504049 of unit cell:	Completed after 13 iterations at t[s]:    746.45
ElecMinimize: 	Predicted alpha/alphaT>3.000000, increasing alphaT to 2.107799e-01.
	Linear fluid (dielectric constant: 78.4, screening length: 8.12261 Bohr) occupying 0.503727 of unit cell:	Completed after 13 iterations at t[s]:    748.63
	Linear fluid (dielectric constant: 78.4, screening length: 8.12261 Bohr) occupying 0.503484 of unit cell:	Completed after 14 iterations at t[s]:    750.85
	FillingsUpdate:  mu: -0.171300000  nElectrons: 75.894805  magneticMoment: [ Abs: 0.00000  Tot: +0.00000 ]
	SubspaceRotationAdjust: set factor to 0.0979
ElecMinimize: Iter:  17  G: -577.407231883557301  |grad|_K:  9.057e-06  alpha:  3.351e-01  linmin:  1.705e-02  t[s]:    754.07
ElecMinimize: 	Bad step direction: g.d > 0.
ElecMinimize: 	Undoing step.
	Linear fluid (dielectric constant: 78.4, screening length: 8.12261 Bohr) occupying 0.503484 of unit cell:	Completed after 0 iterations at t[s]:    756.33
ElecMinimize: 	Step failed: resetting search direction.
	FillingsUpdate:  mu: -0.171300000  nElectrons: 75.894805  magneticMoment: [ Abs: 0.00000  Tot: +0.00000 ]
	SubspaceRotationAdjust: set factor to 0.0714
ElecMinimize: Iter:  18  G: -577.407231883555937  |grad|_K:  7.732e-06  alpha:  0.000e+00
	Linear fluid (dielectric constant: 78.4, screening length: 8.12261 Bohr) occupying 0.503581 of unit cell:	Completed after 15 iterations at t[s]:    761.82
	Linear fluid (dielectric constant: 78.4, screening length: 8.12261 Bohr) occupying 0.503551 of unit cell:	Completed after 13 iterations at t[s]:    764.00
	FillingsUpdate:  mu: -0.171300000  nElectrons: 75.919163  magneticMoment: [ Abs: 0.00000  Tot: +0.00000 ]
	SubspaceRotationAdjust: set factor to 0.0481
	SubspaceRotationAdjust: resetting CG because factor has changed by 0.109383
	Linear fluid (dielectric constant: 78.4, screening length: 8.12261 Bohr) occupying 0.503551 of unit cell:	Completed after 0 iterations at t[s]:    768.00
ElecMinimize: 	State modified externally: resetting search direction.
ElecMinimize: Iter:  19  G: -577.408273424357617  |grad|_K:  1.677e-06  alpha:  2.412e-01
	Linear fluid (dielectric constant: 78.4, screening length: 8.12261 Bohr) occupying 0.503550 of unit cell:	Completed after 12 iterations at t[s]:    773.42
ElecMinimize: 	Predicted alpha/alphaT>3.000000, increasing alphaT to 7.236160e-01.
	Linear fluid (dielectric constant: 78.4, screening length: 8.12261 Bohr) occupying 0.503547 of unit cell:	Completed after 12 iterations at t[s]:    775.57
	Linear fluid (dielectric constant: 78.4, screening length: 8.12261 Bohr) occupying 0.503544 of unit cell:	Completed after 13 iterations at t[s]:    777.76
	FillingsUpdate:  mu: -0.171300000  nElectrons: 75.916947  magneticMoment: [ Abs: 0.00000  Tot: +0.00000 ]
	SubspaceRotationAdjust: set factor to 0.0773
ElecMinimize: Iter:  20  G: -577.408490847461849  |grad|_K:  2.570e-06  alpha:  9.655e-01  linmin:  2.922e-05  t[s]:    780.78
	Linear fluid (dielectric constant: 78.4, screening length: 8.12261 Bohr) occupying 0.503410 of unit cell:	Completed after 12 iterations at t[s]:    783.38
	Linear fluid (dielectric constant: 78.4, screening length: 8.12261 Bohr) occupying 0.503130 of unit cell:	Completed after 12 iterations at t[s]:    785.71
	FillingsUpdate:  mu: -0.171300000  nElectrons: 75.912289  magneticMoment: [ Abs: 0.00000  Tot: +0.00000 ]
	SubspaceRotationAdjust: set factor to 0.0818
ElecMinimize: Iter:  21  G: -577.409610618701890  |grad|_K:  4.297e-06  alpha:  2.096e+00  linmin: -1.613e-04  t[s]:    788.75
	Linear fluid (dielectric constant: 78.4, screening length: 8.12261 Bohr) occupying 0.500707 of unit cell:	Completed after 15 iterations at t[s]:    791.30
	Linear fluid (dielectric constant: 78.4, screening length: 8.12261 Bohr) occupying 0.502725 of unit cell:	Completed after 15 iterations at t[s]:    793.55
	FillingsUpdate:  mu: -0.171300000  nElectrons: 75.903304  magneticMoment: [ Abs: 0.00000  Tot: +0.00000 ]
	SubspaceRotationAdjust: set factor to 0.0878
ElecMinimize: Iter:  22  G: -577.410310283143872  |grad|_K:  3.615e-06  alpha:  4.263e-01  linmin: -7.984e-04  t[s]:    796.54
	Linear fluid (dielectric constant: 78.4, screening length: 8.12261 Bohr) occupying 0.502511 of unit cell:	Completed after 13 iterations at t[s]:    799.02
	Linear fluid (dielectric constant: 78.4, screening length: 8.12261 Bohr) occupying 0.502469 of unit cell:	Completed after 12 iterations at t[s]:    801.19
	FillingsUpdate:  mu: -0.171300000  nElectrons: 75.879458  magneticMoment: [ Abs: 0.00000  Tot: +0.00000 ]
	SubspaceRotationAdjust: set factor to 0.0795
ElecMinimize: Iter:  23  G: -577.410895028669302  |grad|_K:  2.235e-06  alpha:  5.240e-01  linmin:  1.370e-03  t[s]:    804.21
	Linear fluid (dielectric constant: 78.4, screening length: 8.12261 Bohr) occupying 0.502528 of unit cell:	Completed after 13 iterations at t[s]:    806.73
	Linear fluid (dielectric constant: 78.4, screening length: 8.12261 Bohr) occupying 0.502517 of unit cell:	Completed after 10 iterations at t[s]:    808.88
	FillingsUpdate:  mu: -0.171300000  nElectrons: 75.879213  magneticMoment: [ Abs: 0.00000  Tot: +0.00000 ]
	SubspaceRotationAdjust: set factor to 0.109
ElecMinimize: Iter:  24  G: -577.411037431861928  |grad|_K:  1.482e-06  alpha:  3.990e-01  linmin: -1.929e-05  t[s]:    811.89
	Linear fluid (dielectric constant: 78.4, screening length: 8.12261 Bohr) occupying 0.502634 of unit cell:	Completed after 11 iterations at t[s]:    814.49
	Linear fluid (dielectric constant: 78.4, screening length: 8.12261 Bohr) occupying 0.502704 of unit cell:	Completed after 10 iterations at t[s]:    816.80
	FillingsUpdate:  mu: -0.171300000  nElectrons: 75.886371  magneticMoment: [ Abs: 0.00000  Tot: +0.00000 ]
	SubspaceRotationAdjust: set factor to 0.126
ElecMinimize: Iter:  25  G: -577.411153940825443  |grad|_K:  1.384e-06  alpha:  6.555e-01  linmin: -3.038e-04  t[s]:    819.79
	Linear fluid (dielectric constant: 78.4, screening length: 8.12261 Bohr) occupying 0.502891 of unit cell:	Completed after 12 iterations at t[s]:    822.24
	Linear fluid (dielectric constant: 78.4, screening length: 8.12261 Bohr) occupying 0.502824 of unit cell:	Completed after 11 iterations at t[s]:    824.38
	FillingsUpdate:  mu: -0.171300000  nElectrons: 75.889851  magneticMoment: [ Abs: 0.00000  Tot: +0.00000 ]
	SubspaceRotationAdjust: set factor to 0.17
ElecMinimize: Iter:  26  G: -577.411218494566242  |grad|_K:  9.969e-07  alpha:  4.123e-01  linmin:  2.100e-06  t[s]:    827.36
	Linear fluid (dielectric constant: 78.4, screening length: 8.12261 Bohr) occupying 0.502846 of unit cell:	Completed after 13 iterations at t[s]:    829.84
	Linear fluid (dielectric constant: 78.4, screening length: 8.12261 Bohr) occupying 0.502855 of unit cell:	Completed after 11 iterations at t[s]:    831.98
	FillingsUpdate:  mu: -0.171300000  nElectrons: 75.895471  magneticMoment: [ Abs: 0.00000  Tot: +0.00000 ]
	SubspaceRotationAdjust: set factor to 0.216
ElecMinimize: Iter:  27  G: -577.411264529993787  |grad|_K:  8.325e-07  alpha:  5.767e-01  linmin: -1.232e-04  t[s]:    834.98
	Linear fluid (dielectric constant: 78.4, screening length: 8.12261 Bohr) occupying 0.502757 of unit cell:	Completed after 12 iterations at t[s]:    837.48
	Linear fluid (dielectric constant: 78.4, screening length: 8.12261 Bohr) occupying 0.502776 of unit cell:	Completed after 10 iterations at t[s]:    839.60
	FillingsUpdate:  mu: -0.171300000  nElectrons: 75.899185  magneticMoment: [ Abs: 0.00000  Tot: +0.00000 ]
	SubspaceRotationAdjust: set factor to 0.253
ElecMinimize: Iter:  28  G: -577.411290594726438  |grad|_K:  6.718e-07  alpha:  4.668e-01  linmin: -2.377e-05  t[s]:    842.66
	Linear fluid (dielectric constant: 78.4, screening length: 8.12261 Bohr) occupying 0.502619 of unit cell:	Completed after 13 iterations at t[s]:    845.35
	Linear fluid (dielectric constant: 78.4, screening length: 8.12261 Bohr) occupying 0.502629 of unit cell:	Completed after 7 iterations at t[s]:    847.46
	FillingsUpdate:  mu: -0.171300000  nElectrons: 75.899325  magneticMoment: [ Abs: 0.00000  Tot: +0.00000 ]
	SubspaceRotationAdjust: set factor to 0.222
ElecMinimize: Iter:  29  G: -577.411306370029934  |grad|_K:  5.499e-07  alpha:  4.354e-01  linmin:  7.217e-05  t[s]:    850.45
	Linear fluid (dielectric constant: 78.4, screening length: 8.12261 Bohr) occupying 0.502455 of unit cell:	Completed after 13 iterations at t[s]:    852.93
	Linear fluid (dielectric constant: 78.4, screening length: 8.12261 Bohr) occupying 0.502491 of unit cell:	Completed after 10 iterations at t[s]:    855.04
	FillingsUpdate:  mu: -0.171300000  nElectrons: 75.901858  magneticMoment: [ Abs: 0.00000  Tot: +0.00000 ]
	SubspaceRotationAdjust: set factor to 0.171
ElecMinimize: Iter:  30  G: -577.411314664446650  |grad|_K:  3.892e-07  alpha:  3.449e-01  linmin: -1.004e-04  t[s]:    858.03
	Linear fluid (dielectric constant: 78.4, screening length: 8.12261 Bohr) occupying 0.502382 of unit cell:	Completed after 11 iterations at t[s]:    860.47
	Linear fluid (dielectric constant: 78.4, screening length: 8.12261 Bohr) occupying 0.502381 of unit cell:	Completed after 0 iterations at t[s]:    862.37
	FillingsUpdate:  mu: -0.171300000  nElectrons: 75.901159  magneticMoment: [ Abs: 0.00000  Tot: +0.00000 ]
	SubspaceRotationAdjust: set factor to 0.16
ElecMinimize: Iter:  31  G: -577.411318908178600  |grad|_K:  2.514e-07  alpha:  3.483e-01  linmin: -1.742e-04  t[s]:    865.36
	Linear fluid (dielectric constant: 78.4, screening length: 8.12261 Bohr) occupying 0.502313 of unit cell:	Completed after 8 iterations at t[s]:    867.73
	Linear fluid (dielectric constant: 78.4, screening length: 8.12261 Bohr) occupying 0.502302 of unit cell:	Completed after 2 iterations at t[s]:    869.65
	FillingsUpdate:  mu: -0.171300000  nElectrons: 75.901123  magneticMoment: [ Abs: 0.00000  Tot: +0.00000 ]
	SubspaceRotationAdjust: set factor to 0.194
[...]
ElecMinimize: Iter:   9  G: -577.411320014285025  |grad|_K:  9.064e-08  alpha:  3.274e-01  linmin: -2.831e-03  t[s]:   1706.34
	Linear fluid (dielectric constant: 78.4, screening length: 8.12261 Bohr) occupying 0.502153 of unit cell:	Completed after 8 iterations at t[s]:   1708.73
	Linear fluid (dielectric constant: 78.4, screening length: 8.12261 Bohr) occupying 0.502153 of unit cell:	Completed after 1 iterations at t[s]:   1710.63
	FillingsUpdate:  mu: -0.171300000  nElectrons: 75.901451  magneticMoment: [ Abs: 0.00000  Tot: -0.00000 ]
	SubspaceRotationAdjust: set factor to 0.2
ElecMinimize: Iter:  10  G: -577.411320256026215  |grad|_K:  5.567e-08  alpha:  3.522e-01  linmin: -1.061e-03  t[s]:   1713.82
	Linear fluid (dielectric constant: 78.4, screening length: 8.12261 Bohr) occupying 0.502150 of unit cell:	Completed after 8 iterations at t[s]:   1716.38
	Linear fluid (dielectric constant: 78.4, screening length: 8.12261 Bohr) occupying 0.502149 of unit cell:	Completed after 2 iterations at t[s]:   1718.32
	FillingsUpdate:  mu: -0.171300000  nElectrons: 75.901594  magneticMoment: [ Abs: 0.00000  Tot: -0.00000 ]
	SubspaceRotationAdjust: set factor to 0.234
ElecMinimize: Iter:  11  G: -577.411320370726116  |grad|_K:  4.781e-08  alpha:  4.586e-01  linmin:  1.228e-03  t[s]:   1721.33
	Linear fluid (dielectric constant: 78.4, screening length: 8.12261 Bohr) occupying 0.502144 of unit cell:	Completed after 2 iterations at t[s]:   1723.60
	Linear fluid (dielectric constant: 78.4, screening length: 8.12261 Bohr) occupying 0.502145 of unit cell:	Completed after 2 iterations at t[s]:   1725.52
	FillingsUpdate:  mu: -0.171300000  nElectrons: 75.901630  magneticMoment: [ Abs: 0.00000  Tot: -0.00000 ]
	SubspaceRotationAdjust: set factor to 0.302
ElecMinimize: Iter:  12  G: -577.411320433174751  |grad|_K:  3.744e-08  alpha:  3.648e-01  linmin: -1.809e-03  t[s]:   1728.52
	Linear fluid (dielectric constant: 78.4, screening length: 8.12261 Bohr) occupying 0.502141 of unit cell:	Completed after 4 iterations at t[s]:   1730.79
	Linear fluid (dielectric constant: 78.4, screening length: 8.12261 Bohr) occupying 0.502140 of unit cell:	Completed after 2 iterations at t[s]:   1732.74
	FillingsUpdate:  mu: -0.171300000  nElectrons: 75.901627  magneticMoment: [ Abs: 0.00000  Tot: -0.00000 ]
	SubspaceRotationAdjust: set factor to 0.356
ElecMinimize: Iter:  13  G: -577.411320486460795  |grad|_K:  3.369e-08  alpha:  4.379e-01  linmin: -2.794e-04  t[s]:   1735.74
ElecMinimize: Converged (|Delta G|<1.000000e-07 for 2 iters).
Setting wave functions to eigenvectors of Hamiltonian
Converging empty states (this may take a while): |deigs|: 1.471e-05

Computing DFT-D3 correction:
# coordination-number Ag 8.888 6.011 6.011 8.888
# diagonal-C6 Ag 268.61 268.61 268.61 268.61
EvdW_6 =   -0.020479
EvdW_8 =   -0.030701
IonicMinimize: 	Wolfe criterion not satisfied: alpha: 0.00852368  (E-E0)/|gdotd0|: 0.000371122  gdotd/gdotd0: 1.03171 (taking cubic step)

Computing DFT-D3 correction:
# coordination-number Ag 8.885 6.014 6.014 8.885
# diagonal-C6 Ag 268.61 268.61 268.61 268.61
EvdW_6 =   -0.020478
EvdW_8 =   -0.030695
Shifting auxilliary hamiltonian by 0.000048 to set nElectrons=75.901627

-------- Electronic minimization -----------
	Linear fluid (dielectric constant: 78.4, screening length: 8.12261 Bohr) occupying 0.502205 of unit cell:	Completed after 9 iterations at t[s]:   1749.10
	FillingsUpdate:  mu: -0.171300000  nElectrons: 75.901627  magneticMoment: [ Abs: 0.00000  Tot: -0.00000 ]
ElecMinimize: Iter:   0  G: -577.411280063350091  |grad|_K:  5.575e-07  alpha:  1.000e+00
	Linear fluid (dielectric constant: 78.4, screening length: 8.12261 Bohr) occupying 0.502185 of unit cell:	Completed after 10 iterations at t[s]:   1754.98
	Linear fluid (dielectric constant: 78.4, screening length: 8.12261 Bohr) occupying 0.502190 of unit cell:	Completed after 7 iterations at t[s]:   1757.04
	FillingsUpdate:  mu: -0.171300000  nElectrons: 75.901361  magneticMoment: [ Abs: 0.00000  Tot: -0.00000 ]
	SubspaceRotationAdjust: set factor to 0.532
ElecMinimize: Iter:   1  G: -577.411299641338360  |grad|_K:  5.247e-07  alpha:  7.863e-01  linmin: -6.471e-05  t[s]:   1760.03
	Linear fluid (dielectric constant: 78.4, screening length: 8.12261 Bohr) occupying 0.502162 of unit cell:	Completed after 13 iterations at t[s]:   1762.50
	Linear fluid (dielectric constant: 78.4, screening length: 8.12261 Bohr) occupying 0.502167 of unit cell:	Completed after 9 iterations at t[s]:   1764.61
	FillingsUpdate:  mu: -0.171300000  nElectrons: 75.902396  magneticMoment: [ Abs: 0.00000  Tot: -0.00000 ]
	SubspaceRotationAdjust: set factor to 0.582
ElecMinimize: Iter:   2  G: -577.411314151317697  |grad|_K:  5.628e-07  alpha:  6.566e-01  linmin: -3.404e-06  t[s]:   1767.61
	Linear fluid (dielectric constant: 78.4, screening length: 8.12261 Bohr) occupying 0.502129 of unit cell:	Completed after 13 iterations at t[s]:   1770.09
	Linear fluid (dielectric constant: 78.4, screening length: 8.12261 Bohr) occupying 0.502157 of unit cell:	Completed after 12 iterations at t[s]:   1772.25
	FillingsUpdate:  mu: -0.171300000  nElectrons: 75.900522  magneticMoment: [ Abs: 0.00000  Tot: -0.00000 ]
	SubspaceRotationAdjust: set factor to 0.411
ElecMinimize: Iter:   3  G: -577.411318348556847  |grad|_K:  5.003e-07  alpha:  1.512e-01  linmin: -1.582e-03  t[s]:   1775.38
	Linear fluid (dielectric constant: 78.4, screening length: 8.12261 Bohr) occupying 0.502148 of unit cell:	Completed after 11 iterations at t[s]:   1777.85
	Linear fluid (dielectric constant: 78.4, screening length: 8.12261 Bohr) occupying 0.502146 of unit cell:	Completed after 9 iterations at t[s]:   1779.93
	FillingsUpdate:  mu: -0.171300000  nElectrons: 75.901819  magneticMoment: [ Abs: 0.00000  Tot: -0.00000 ]
	SubspaceRotationAdjust: set factor to 0.24
ElecMinimize: Iter:   4  G: -577.411322336013995  |grad|_K:  2.127e-07  alpha:  1.839e-01  linmin:  5.261e-05  t[s]:   1782.94
	Linear fluid (dielectric constant: 78.4, screening length: 8.12261 Bohr) occupying 0.502143 of unit cell:	Completed after 10 iterations at t[s]:   1785.37
	Linear fluid (dielectric constant: 78.4, screening length: 8.12261 Bohr) occupying 0.502141 of unit cell:	Completed after 9 iterations at t[s]:   1787.47
	FillingsUpdate:  mu: -0.171300000  nElectrons: 75.901302  magneticMoment: [ Abs: 0.00000  Tot: -0.00000 ]
	SubspaceRotationAdjust: set factor to 0.152
ElecMinimize: Iter:   5  G: -577.411323452163856  |grad|_K:  1.248e-07  alpha:  3.055e-01  linmin: -1.202e-03  t[s]:   1790.47
	Linear fluid (dielectric constant: 78.4, screening length: 8.12261 Bohr) occupying 0.502138 of unit cell:	Completed after 10 iterations at t[s]:   1792.89
	Linear fluid (dielectric constant: 78.4, screening length: 8.12261 Bohr) occupying 0.502139 of unit cell:	Completed after 8 iterations at t[s]:   1794.98
	FillingsUpdate:  mu: -0.171300000  nElectrons: 75.901733  magneticMoment: [ Abs: 0.00000  Tot: -0.00000 ]
	SubspaceRotationAdjust: set factor to 0.0945
ElecMinimize: Iter:   6  G: -577.411323754945442  |grad|_K:  6.323e-08  alpha:  2.373e-01  linmin:  9.855e-05  t[s]:   1797.98
	Linear fluid (dielectric constant: 78.4, screening length: 8.12261 Bohr) occupying 0.502138 of unit cell:	Completed after 2 iterations at t[s]:   1800.25
	Linear fluid (dielectric constant: 78.4, screening length: 8.12261 Bohr) occupying 0.502138 of unit cell:	Completed after 2 iterations at t[s]:   1802.19
	FillingsUpdate:  mu: -0.171300000  nElectrons: 75.901719  magneticMoment: [ Abs: 0.00000  Tot: -0.00000 ]
	SubspaceRotationAdjust: set factor to 0.118
ElecMinimize: Iter:   7  G: -577.411323876908341  |grad|_K:  3.858e-08  alpha:  3.855e-01  linmin:  2.974e-03  t[s]:   1805.36
	Linear fluid (dielectric constant: 78.4, screening length: 8.12261 Bohr) occupying 0.502136 of unit cell:	Completed after 8 iterations at t[s]:   1807.76
	Linear fluid (dielectric constant: 78.4, screening length: 8.12261 Bohr) occupying 0.502137 of unit cell:	Completed after 4 iterations at t[s]:   1809.74
	FillingsUpdate:  mu: -0.171300000  nElectrons: 75.901655  magneticMoment: [ Abs: 0.00000  Tot: -0.00000 ]
	SubspaceRotationAdjust: set factor to 0.109
ElecMinimize: Iter:   8  G: -577.411323907202814  |grad|_K:  2.018e-08  alpha:  2.698e-01  linmin: -5.906e-03  t[s]:   1812.72
	Linear fluid (dielectric constant: 78.4, screening length: 8.12261 Bohr) occupying 0.502136 of unit cell:	Completed after 2 iterations at t[s]:   1814.97
	Linear fluid (dielectric constant: 78.4, screening length: 8.12261 Bohr) occupying 0.502136 of unit cell:	Completed after 0 iterations at t[s]:   1816.83
	FillingsUpdate:  mu: -0.171300000  nElectrons: 75.901657  magneticMoment: [ Abs: 0.00000  Tot: -0.00000 ]
	SubspaceRotationAdjust: set factor to 0.117
ElecMinimize: Iter:   9  G: -577.411323918498624  |grad|_K:  1.160e-08  alpha:  3.224e-01  linmin: -2.863e-02  t[s]:   1819.86
ElecMinimize: Converged (|Delta G|<1.000000e-07 for 2 iters).
Setting wave functions to eigenvectors of Hamiltonian
Converging empty states (this may take a while): |deigs|: 6.194e-07

Computing DFT-D3 correction:
# coordination-number Ag 8.885 6.014 6.014 8.885
# diagonal-C6 Ag 268.61 268.61 268.61 268.61
EvdW_6 =   -0.020478
EvdW_8 =   -0.030695
IonicMinimize: 	Wolfe criterion not satisfied: alpha: 0.00168079  (E-E0)/|gdotd0|: -4.09465e-06  gdotd/gdotd0: 0.977239 (taking cubic step)

Computing DFT-D3 correction:
# coordination-number Ag 8.885 6.015 6.015 8.885
# diagonal-C6 Ag 268.61 268.61 268.61 268.61
EvdW_6 =   -0.020478
EvdW_8 =   -0.030694
Shifting auxilliary hamiltonian by 0.000016 to set nElectrons=75.901657

-------- Electronic minimization -----------
	Linear fluid (dielectric constant: 78.4, screening length: 8.12261 Bohr) occupying 0.502149 of unit cell:	Completed after 6 iterations at t[s]:   1829.62
	FillingsUpdate:  mu: -0.171300000  nElectrons: 75.901657  magneticMoment: [ Abs: 0.00000  Tot: +0.00000 ]
ElecMinimize: Iter:   0  G: -577.411322294533647  |grad|_K:  8.584e-08  alpha:  1.000e+00
	Linear fluid (dielectric constant: 78.4, screening length: 8.12261 Bohr) occupying 0.502147 of unit cell:	Completed after 2 iterations at t[s]:   1835.61
	Linear fluid (dielectric constant: 78.4, screening length: 8.12261 Bohr) occupying 0.502148 of unit cell:	Completed after 1 iterations at t[s]:   1837.54
	FillingsUpdate:  mu: -0.171300000  nElectrons: 75.901644  magneticMoment: [ Abs: 0.00000  Tot: +0.00000 ]
	SubspaceRotationAdjust: set factor to 0.134
ElecMinimize: Iter:   1  G: -577.411322629318647  |grad|_K:  6.414e-08  alpha:  5.704e-01  linmin: -9.380e-04  t[s]:   1840.54
	Linear fluid (dielectric constant: 78.4, screening length: 8.12261 Bohr) occupying 0.502146 of unit cell:	Completed after 2 iterations at t[s]:   1842.77
	Linear fluid (dielectric constant: 78.4, screening length: 8.12261 Bohr) occupying 0.502146 of unit cell:	Completed after 2 iterations at t[s]:   1844.70
	FillingsUpdate:  mu: -0.171300000  nElectrons: 75.901642  magneticMoment: [ Abs: 0.00000  Tot: +0.00000 ]
	SubspaceRotationAdjust: set factor to 0.165
ElecMinimize: Iter:   2  G: -577.411322906422129  |grad|_K:  8.427e-08  alpha:  8.308e-01  linmin: -3.445e-04  t[s]:   1847.70
	Linear fluid (dielectric constant: 78.4, screening length: 8.12261 Bohr) occupying 0.502141 of unit cell:	Completed after 2 iterations at t[s]:   1849.93
	Linear fluid (dielectric constant: 78.4, screening length: 8.12261 Bohr) occupying 0.502141 of unit cell:	Completed after 2 iterations at t[s]:   1851.86
	FillingsUpdate:  mu: -0.171300000  nElectrons: 75.901640  magneticMoment: [ Abs: 0.00000  Tot: +0.00000 ]
	SubspaceRotationAdjust: set factor to 0.184
ElecMinimize: Iter:   3  G: -577.411323348676660  |grad|_K:  9.040e-08  alpha:  7.668e-01  linmin:  4.633e-04  t[s]:   1854.86
	Linear fluid (dielectric constant: 78.4, screening length: 8.12261 Bohr) occupying 0.502135 of unit cell:	Completed after 6 iterations at t[s]:   1857.20
	Linear fluid (dielectric constant: 78.4, screening length: 8.12261 Bohr) occupying 0.502137 of unit cell:	Completed after 2 iterations at t[s]:   1859.13
	FillingsUpdate:  mu: -0.171300000  nElectrons: 75.901620  magneticMoment: [ Abs: 0.00000  Tot: +0.00000 ]
	SubspaceRotationAdjust: set factor to 0.194
ElecMinimize: Iter:   4  G: -577.411323692356291  |grad|_K:  6.478e-08  alpha:  5.426e-01  linmin: -4.799e-04  t[s]:   1862.12
	Linear fluid (dielectric constant: 78.4, screening length: 8.12261 Bohr) occupying 0.502134 of unit cell:	Completed after 8 iterations at t[s]:   1864.68
	Linear fluid (dielectric constant: 78.4, screening length: 8.12261 Bohr) occupying 0.502135 of unit cell:	Completed after 2 iterations at t[s]:   1866.73
	FillingsUpdate:  mu: -0.171300000  nElectrons: 75.901695  magneticMoment: [ Abs: 0.00000  Tot: +0.00000 ]
	SubspaceRotationAdjust: set factor to 0.189
ElecMinimize: Iter:   5  G: -577.411323831496361  |grad|_K:  4.661e-08  alpha:  4.031e-01  linmin:  5.748e-04  t[s]:   1869.72
	Linear fluid (dielectric constant: 78.4, screening length: 8.12261 Bohr) occupying 0.502134 of unit cell:	Completed after 7 iterations at t[s]:   1872.07
	Linear fluid (dielectric constant: 78.4, screening length: 8.12261 Bohr) occupying 0.502134 of unit cell:	Completed after 2 iterations at t[s]:   1874.00
	FillingsUpdate:  mu: -0.171300000  nElectrons: 75.901617  magneticMoment: [ Abs: 0.00000  Tot: +0.00000 ]
	SubspaceRotationAdjust: set factor to 0.155
ElecMinimize: Iter:   6  G: -577.411323889695041  |grad|_K:  2.595e-08  alpha:  3.436e-01  linmin: -1.435e-03  t[s]:   1877.00
	Linear fluid (dielectric constant: 78.4, screening length: 8.12261 Bohr) occupying 0.502133 of unit cell:	Completed after 8 iterations at t[s]:   1879.36
	Linear fluid (dielectric constant: 78.4, screening length: 8.12261 Bohr) occupying 0.502133 of unit cell:	Completed after 0 iterations at t[s]:   1881.23
	FillingsUpdate:  mu: -0.171300000  nElectrons: 75.901693  magneticMoment: [ Abs: 0.00000  Tot: +0.00000 ]
	SubspaceRotationAdjust: set factor to 0.117
ElecMinimize: Iter:   7  G: -577.411323908136410  |grad|_K:  1.664e-08  alpha:  3.337e-01  linmin: -4.966e-03  t[s]:   1884.22
ElecMinimize: Converged (|Delta G|<1.000000e-07 for 2 iters).
Setting wave functions to eigenvectors of Hamiltonian
Converging empty states (this may take a while): |deigs|: 3.576e-08

Computing DFT-D3 correction:
# coordination-number Ag 8.885 6.015 6.015 8.885
# diagonal-C6 Ag 268.61 268.61 268.61 268.61
EvdW_6 =   -0.020478
EvdW_8 =   -0.030694
IonicMinimize: 	Wolfe criterion not satisfied: alpha: 0.000359614  (E-E0)/|gdotd0|: -2.96177e-06  gdotd/gdotd0: 0.980931 (taking cubic step)

Computing DFT-D3 correction:
# coordination-number Ag 8.885 6.015 6.015 8.885
# diagonal-C6 Ag 268.61 268.61 268.61 268.61
EvdW_6 =   -0.020478
EvdW_8 =   -0.030695
Shifting auxilliary hamiltonian by -0.000036 to set nElectrons=75.901693

-------- Electronic minimization -----------
	Linear fluid (dielectric constant: 78.4, screening length: 8.12261 Bohr) occupying 0.502118 of unit cell:	Completed after 9 iterations at t[s]:   1894.06
	FillingsUpdate:  mu: -0.171300000  nElectrons: 75.901693  magneticMoment: [ Abs: 0.00000  Tot: +0.00000 ]
ElecMinimize: Iter:   0  G: -577.411323824653209  |grad|_K:  4.507e-08  alpha:  1.000e+00
	Linear fluid (dielectric constant: 78.4, screening length: 8.12261 Bohr) occupying 0.502119 of unit cell:	Completed after 11 iterations at t[s]:   1900.22
	Linear fluid (dielectric constant: 78.4, screening length: 8.12261 Bohr) occupying 0.502119 of unit cell:	Completed after 10 iterations at t[s]:   1902.35
	FillingsUpdate:  mu: -0.171300000  nElectrons: 75.901852  magneticMoment: [ Abs: 0.00000  Tot: +0.00000 ]
	SubspaceRotationAdjust: set factor to 0.111
ElecMinimize: Iter:   1  G: -577.411323868737782  |grad|_K:  1.646e-08  alpha:  2.622e-01  linmin:  4.361e-03  t[s]:   1905.35
	Linear fluid (dielectric constant: 78.4, screening length: 8.12261 Bohr) occupying 0.502119 of unit cell:	Completed after 2 iterations at t[s]:   1907.66
	Linear fluid (dielectric constant: 78.4, screening length: 8.12261 Bohr) occupying 0.502119 of unit cell:	Completed after 2 iterations at t[s]:   1909.60
	FillingsUpdate:  mu: -0.171300000  nElectrons: 75.901825  magneticMoment: [ Abs: 0.00000  Tot: +0.00000 ]
	SubspaceRotationAdjust: set factor to 0.113
ElecMinimize: Iter:   2  G: -577.411323881370436  |grad|_K:  1.387e-08  alpha:  5.295e-01  linmin: -1.791e-02  t[s]:   1912.61
ElecMinimize: Converged (|Delta G|<1.000000e-07 for 2 iters).
Setting wave functions to eigenvectors of Hamiltonian
Converging empty states (this may take a while): |deigs|: 1.906e-08

Computing DFT-D3 correction:
# coordination-number Ag 8.885 6.015 6.015 8.885
# diagonal-C6 Ag 268.61 268.61 268.61 268.61
EvdW_6 =   -0.020478
EvdW_8 =   -0.030695

# Ionic positions in cartesian coordinates:
ion Ag   0.000596176834891   0.000596079424222  40.288653699309499 1
ion Ag   2.711354152589172   2.711351443888279  44.196560832829917 1
ion Ag  -0.001132449267749   5.419315340896828  32.460103997784856 1
ion Ag   2.709628119843685   2.709630135790669  36.368033470075737 1

# Forces in Cartesian coordinates:
force Ag   0.000788424287670   0.000788422135536  -0.000737183782906 1
force Ag   0.001081215057066   0.001081240349879  -0.000509671985913 1
force Ag  -0.001082584688677  -0.001082564484664   0.000510095403592 1
force Ag  -0.000783257664060  -0.000783244367468   0.000737747567824 1

# Energy components:
   A_diel =        0.0185879775457298
   Eewald =     1700.4018397329289201
       EH =     2231.8368935304902152
     Eloc =    -4615.4676501683416063
      Enl =       15.8010500104211786
     EvdW =       -0.0511723024726278
      Exc =      -57.9207087281873712
 Exc_core =        0.8326838886319060
       KE =      134.1297883323671272
  MuShift =        0.0054782777020645
-------------------------------------
     Etot =     -590.4132094489146994
       TS =        0.0000969997799977
-------------------------------------
        F =     -590.4133064486946978
      muN =      -13.0019825673242728
-------------------------------------
        G =     -577.4113238813704356


Dumping 'jdft.fillings' ... done
Dumping 'jdft.wfns' ... done
Dumping 'jdft.fluidState' ... done
Dumping 'jdft.ionpos' ... done
Dumping 'jdft.lattice' ... done
Dumping 'jdft.eigenvals' ... done
Dumping 'jdft.eigStats' ... 
	eMin: -3.550393 at state 0 ( [ +0.000000 +0.000000 +0.000000 ] spin 1 )
	HOMO: -0.173034 at state 140 ( [ -0.083333 -0.333333 +0.000000 ] spin 1 )
	mu  : -0.171300
	LUMO: -0.169158 at state 144 ( [ +0.000000 +0.000000 +0.000000 ] spin -1 )
	eMax: +0.222869 at state 157 ( [ +0.083333 +0.083333 +0.000000 ] spin -1 )
	HOMO-LUMO gap: +0.003876
	Optical gap  : +0.021324 at state 216 ( [ +0.500000 +0.000000 +0.000000 ] spin -1 )
Dumping 'jdft.Ecomponents' ... done
IonicMinimize: Iter:   5  G: -577.411323881370436  |grad|_K:  8.544e-04  alpha:  6.396e-04  linmin: -9.321e-01  t[s]:   1920.85
IonicMinimize: Converged (|Delta G|<1.000000e-06 for 2 iters).

#--- Lowdin population analysis ---
# oxidation-state Ag -0.040 +0.101 +0.101 -0.040
# magnetic-moments Ag +0.000 -0.000 -0.000 +0.000


Dumping 'jdft.n_up' ... done
Dumping 'jdft.n_dn' ... done
Dumping 'jdft.tau_up' ... done
Dumping 'jdft.tau_dn' ... done
Dumping 'jdft.eigenvals' ... done
Dumping 'jdft.eigStats' ... 
	eMin: -3.550393 at state 0 ( [ +0.000000 +0.000000 +0.000000 ] spin 1 )
	HOMO: -0.173034 at state 140 ( [ -0.083333 -0.333333 +0.000000 ] spin 1 )
	mu  : -0.171300
	LUMO: -0.169158 at state 144 ( [ +0.000000 +0.000000 +0.000000 ] spin -1 )
	eMax: +0.222869 at state 157 ( [ +0.083333 +0.083333 +0.000000 ] spin -1 )
	HOMO-LUMO gap: +0.003876
	Optical gap  : +0.021324 at state 216 ( [ +0.500000 +0.000000 +0.000000 ] spin -1 )
Dumping 'jdft.kPts' ... done
Dumping 'jdft.dosUp' ... done.
Dumping 'jdft.dosDn' ... done.
End date and time: Mon Dec  6 17:57:03 2021  (Duration: 0-0:32:06.43)
Done!
