
*************** JDFTx 1.6.0  ***************

Start date and time: Thu Feb 17 03:49:17 2022
Executable /projects/musgravc/apps/jdftx-1.6.1/build/jdftx with command-line: -i in
Running on hosts (process indices):  shas0656.rc.int.colorado.edu (0-23)
Divided in process groups (process indices):  0 (0)  1 (1)  2 (2)  3 (3)  4 (4)  5 (5)  6 (6)  7 (7)  8 (8)  9 (9)  10 (10)  11 (11)  12 (12)  13 (13)  14 (14)  15 (15)  16 (16)  17 (17)  18 (18)  19 (19)  20 (20)  21 (21)  22 (22)  23 (23)
Resource initialization completed at t[s]:      0.01
Run totals: 24 processes, 24 threads, 0 GPUs


Input parsed successfully to the following command list (including defaults):

basis kpoint-dependent
converge-empty-states yes
coords-type Cartesian
core-overlap-check none
coulomb-interaction Periodic
davidson-band-ratio 1.1
density-of-states Etol 1.000000e-06 Esigma 1.000000e-03 \
		Complete \
	Total \
	OrthoOrbital Pt 1   s \
	OrthoOrbital Pt 1   p \
	OrthoOrbital Pt 1   px \
	OrthoOrbital Pt 1   py \
	OrthoOrbital Pt 1   pz \
	OrthoOrbital Pt 1   d \
	OrthoOrbital Pt 1   dxy \
	OrthoOrbital Pt 1   dyz \
	OrthoOrbital Pt 1   dz2 \
	OrthoOrbital Pt 1   dxz \
	OrthoOrbital Pt 1   dx2-y2 \
	OrthoOrbital Pt 2   s \
	OrthoOrbital Pt 2   p \
	OrthoOrbital Pt 2   px \
	OrthoOrbital Pt 2   py \
	OrthoOrbital Pt 2   pz \
	OrthoOrbital Pt 2   d \
	OrthoOrbital Pt 2   dxy \
	OrthoOrbital Pt 2   dyz \
	OrthoOrbital Pt 2   dz2 \
	OrthoOrbital Pt 2   dxz \
	OrthoOrbital Pt 2   dx2-y2 \
	OrthoOrbital Pt 3   s \
	OrthoOrbital Pt 3   p \
	OrthoOrbital Pt 3   px \
	OrthoOrbital Pt 3   py \
	OrthoOrbital Pt 3   pz \
	OrthoOrbital Pt 3   d \
	OrthoOrbital Pt 3   dxy \
	OrthoOrbital Pt 3   dyz \
	OrthoOrbital Pt 3   dz2 \
	OrthoOrbital Pt 3   dxz \
	OrthoOrbital Pt 3   dx2-y2 \
	OrthoOrbital Pt 4   s \
	OrthoOrbital Pt 4   p \
	OrthoOrbital Pt 4   px \
	OrthoOrbital Pt 4   py \
	OrthoOrbital Pt 4   pz \
	OrthoOrbital Pt 4   d \
	OrthoOrbital Pt 4   dxy \
	OrthoOrbital Pt 4   dyz \
	OrthoOrbital Pt 4   dz2 \
	OrthoOrbital Pt 4   dxz \
	OrthoOrbital Pt 4   dx2-y2 \
	OrthoOrbital Pt 5   s \
	OrthoOrbital Pt 5   p \
	OrthoOrbital Pt 5   px \
	OrthoOrbital Pt 5   py \
	OrthoOrbital Pt 5   pz \
	OrthoOrbital Pt 5   d \
	OrthoOrbital Pt 5   dxy \
	OrthoOrbital Pt 5   dyz \
	OrthoOrbital Pt 5   dz2 \
	OrthoOrbital Pt 5   dxz \
	OrthoOrbital Pt 5   dx2-y2 \
	OrthoOrbital Pt 6   s \
	OrthoOrbital Pt 6   p \
	OrthoOrbital Pt 6   px \
	OrthoOrbital Pt 6   py \
	OrthoOrbital Pt 6   pz \
	OrthoOrbital Pt 6   d \
	OrthoOrbital Pt 6   dxy \
	OrthoOrbital Pt 6   dyz \
	OrthoOrbital Pt 6   dz2 \
	OrthoOrbital Pt 6   dxz \
	OrthoOrbital Pt 6   dx2-y2 \
	OrthoOrbital Pt 7   s \
	OrthoOrbital Pt 7   p \
	OrthoOrbital Pt 7   px \
	OrthoOrbital Pt 7   py \
	OrthoOrbital Pt 7   pz \
	OrthoOrbital Pt 7   d \
	OrthoOrbital Pt 7   dxy \
	OrthoOrbital Pt 7   dyz \
	OrthoOrbital Pt 7   dz2 \
	OrthoOrbital Pt 7   dxz \
	OrthoOrbital Pt 7   dx2-y2 \
	OrthoOrbital Pt 8   s \
	OrthoOrbital Pt 8   p \
	OrthoOrbital Pt 8   px \
	OrthoOrbital Pt 8   py \
	OrthoOrbital Pt 8   pz \
	OrthoOrbital Pt 8   d \
	OrthoOrbital Pt 8   dxy \
	OrthoOrbital Pt 8   dyz \
	OrthoOrbital Pt 8   dz2 \
	OrthoOrbital Pt 8   dxz \
	OrthoOrbital Pt 8   dx2-y2 \
	OrthoOrbital Pt 9   s \
	OrthoOrbital Pt 9   p \
	OrthoOrbital Pt 9   px \
	OrthoOrbital Pt 9   py \
	OrthoOrbital Pt 9   pz \
	OrthoOrbital Pt 9   d \
	OrthoOrbital Pt 9   dxy \
	OrthoOrbital Pt 9   dyz \
	OrthoOrbital Pt 9   dz2 \
	OrthoOrbital Pt 9   dxz \
	OrthoOrbital Pt 9   dx2-y2 \
	OrthoOrbital Pt 10   s \
	OrthoOrbital Pt 10   p \
	OrthoOrbital Pt 10   px \
	OrthoOrbital Pt 10   py \
	OrthoOrbital Pt 10   pz \
	OrthoOrbital Pt 10   d \
	OrthoOrbital Pt 10   dxy \
	OrthoOrbital Pt 10   dyz \
	OrthoOrbital Pt 10   dz2 \
	OrthoOrbital Pt 10   dxz \
	OrthoOrbital Pt 10   dx2-y2 \
	OrthoOrbital Pt 11   s \
	OrthoOrbital Pt 11   p \
	OrthoOrbital Pt 11   px \
	OrthoOrbital Pt 11   py \
	OrthoOrbital Pt 11   pz \
	OrthoOrbital Pt 11   d \
	OrthoOrbital Pt 11   dxy \
	OrthoOrbital Pt 11   dyz \
	OrthoOrbital Pt 11   dz2 \
	OrthoOrbital Pt 11   dxz \
	OrthoOrbital Pt 11   dx2-y2 \
	OrthoOrbital Pt 12   s \
	OrthoOrbital Pt 12   p \
	OrthoOrbital Pt 12   px \
	OrthoOrbital Pt 12   py \
	OrthoOrbital Pt 12   pz \
	OrthoOrbital Pt 12   d \
	OrthoOrbital Pt 12   dxy \
	OrthoOrbital Pt 12   dyz \
	OrthoOrbital Pt 12   dz2 \
	OrthoOrbital Pt 12   dxz \
	OrthoOrbital Pt 12   dx2-y2 \
	OrthoOrbital Pt 13   s \
	OrthoOrbital Pt 13   p \
	OrthoOrbital Pt 13   px \
	OrthoOrbital Pt 13   py \
	OrthoOrbital Pt 13   pz \
	OrthoOrbital Pt 13   d \
	OrthoOrbital Pt 13   dxy \
	OrthoOrbital Pt 13   dyz \
	OrthoOrbital Pt 13   dz2 \
	OrthoOrbital Pt 13   dxz \
	OrthoOrbital Pt 13   dx2-y2 \
	OrthoOrbital Pt 14   s \
	OrthoOrbital Pt 14   p \
	OrthoOrbital Pt 14   px \
	OrthoOrbital Pt 14   py \
	OrthoOrbital Pt 14   pz \
	OrthoOrbital Pt 14   d \
	OrthoOrbital Pt 14   dxy \
	OrthoOrbital Pt 14   dyz \
	OrthoOrbital Pt 14   dz2 \
	OrthoOrbital Pt 14   dxz \
	OrthoOrbital Pt 14   dx2-y2 \
	OrthoOrbital Pt 15   s \
	OrthoOrbital Pt 15   p \
	OrthoOrbital Pt 15   px \
	OrthoOrbital Pt 15   py \
	OrthoOrbital Pt 15   pz \
	OrthoOrbital Pt 15   d \
	OrthoOrbital Pt 15   dxy \
	OrthoOrbital Pt 15   dyz \
	OrthoOrbital Pt 15   dz2 \
	OrthoOrbital Pt 15   dxz \
	OrthoOrbital Pt 15   dx2-y2 \
	OrthoOrbital Pt 16   s \
	OrthoOrbital Pt 16   p \
	OrthoOrbital Pt 16   px \
	OrthoOrbital Pt 16   py \
	OrthoOrbital Pt 16   pz \
	OrthoOrbital Pt 16   d \
	OrthoOrbital Pt 16   dxy \
	OrthoOrbital Pt 16   dyz \
	OrthoOrbital Pt 16   dz2 \
	OrthoOrbital Pt 16   dxz \
	OrthoOrbital Pt 16   dx2-y2 \
	OrthoOrbital Pt 17   s \
	OrthoOrbital Pt 17   p \
	OrthoOrbital Pt 17   px \
	OrthoOrbital Pt 17   py \
	OrthoOrbital Pt 17   pz \
	OrthoOrbital Pt 17   d \
	OrthoOrbital Pt 17   dxy \
	OrthoOrbital Pt 17   dyz \
	OrthoOrbital Pt 17   dz2 \
	OrthoOrbital Pt 17   dxz \
	OrthoOrbital Pt 17   dx2-y2 \
	OrthoOrbital Pt 18   s \
	OrthoOrbital Pt 18   p \
	OrthoOrbital Pt 18   px \
	OrthoOrbital Pt 18   py \
	OrthoOrbital Pt 18   pz \
	OrthoOrbital Pt 18   d \
	OrthoOrbital Pt 18   dxy \
	OrthoOrbital Pt 18   dyz \
	OrthoOrbital Pt 18   dz2 \
	OrthoOrbital Pt 18   dxz \
	OrthoOrbital Pt 18   dx2-y2 \
	OrthoOrbital Pt 19   s \
	OrthoOrbital Pt 19   p \
	OrthoOrbital Pt 19   px \
	OrthoOrbital Pt 19   py \
	OrthoOrbital Pt 19   pz \
	OrthoOrbital Pt 19   d \
	OrthoOrbital Pt 19   dxy \
	OrthoOrbital Pt 19   dyz \
	OrthoOrbital Pt 19   dz2 \
	OrthoOrbital Pt 19   dxz \
	OrthoOrbital Pt 19   dx2-y2 \
	OrthoOrbital Pt 20   s \
	OrthoOrbital Pt 20   p \
	OrthoOrbital Pt 20   px \
	OrthoOrbital Pt 20   py \
	OrthoOrbital Pt 20   pz \
	OrthoOrbital Pt 20   d \
	OrthoOrbital Pt 20   dxy \
	OrthoOrbital Pt 20   dyz \
	OrthoOrbital Pt 20   dz2 \
	OrthoOrbital Pt 20   dxz \
	OrthoOrbital Pt 20   dx2-y2 \
	OrthoOrbital Pt 21   s \
	OrthoOrbital Pt 21   p \
	OrthoOrbital Pt 21   px \
	OrthoOrbital Pt 21   py \
	OrthoOrbital Pt 21   pz \
	OrthoOrbital Pt 21   d \
	OrthoOrbital Pt 21   dxy \
	OrthoOrbital Pt 21   dyz \
	OrthoOrbital Pt 21   dz2 \
	OrthoOrbital Pt 21   dxz \
	OrthoOrbital Pt 21   dx2-y2 \
	OrthoOrbital Pt 22   s \
	OrthoOrbital Pt 22   p \
	OrthoOrbital Pt 22   px \
	OrthoOrbital Pt 22   py \
	OrthoOrbital Pt 22   pz \
	OrthoOrbital Pt 22   d \
	OrthoOrbital Pt 22   dxy \
	OrthoOrbital Pt 22   dyz \
	OrthoOrbital Pt 22   dz2 \
	OrthoOrbital Pt 22   dxz \
	OrthoOrbital Pt 22   dx2-y2 \
	OrthoOrbital Pt 23   s \
	OrthoOrbital Pt 23   p \
	OrthoOrbital Pt 23   px \
	OrthoOrbital Pt 23   py \
	OrthoOrbital Pt 23   pz \
	OrthoOrbital Pt 23   d \
	OrthoOrbital Pt 23   dxy \
	OrthoOrbital Pt 23   dyz \
	OrthoOrbital Pt 23   dz2 \
	OrthoOrbital Pt 23   dxz \
	OrthoOrbital Pt 23   dx2-y2 \
	OrthoOrbital Pt 24   s \
	OrthoOrbital Pt 24   p \
	OrthoOrbital Pt 24   px \
	OrthoOrbital Pt 24   py \
	OrthoOrbital Pt 24   pz \
	OrthoOrbital Pt 24   d \
	OrthoOrbital Pt 24   dxy \
	OrthoOrbital Pt 24   dyz \
	OrthoOrbital Pt 24   dz2 \
	OrthoOrbital Pt 24   dxz \
	OrthoOrbital Pt 24   dx2-y2 \
	OrthoOrbital Pt 25   s \
	OrthoOrbital Pt 25   p \
	OrthoOrbital Pt 25   px \
	OrthoOrbital Pt 25   py \
	OrthoOrbital Pt 25   pz \
	OrthoOrbital Pt 25   d \
	OrthoOrbital Pt 25   dxy \
	OrthoOrbital Pt 25   dyz \
	OrthoOrbital Pt 25   dz2 \
	OrthoOrbital Pt 25   dxz \
	OrthoOrbital Pt 25   dx2-y2 \
	OrthoOrbital Pt 26   s \
	OrthoOrbital Pt 26   p \
	OrthoOrbital Pt 26   px \
	OrthoOrbital Pt 26   py \
	OrthoOrbital Pt 26   pz \
	OrthoOrbital Pt 26   d \
	OrthoOrbital Pt 26   dxy \
	OrthoOrbital Pt 26   dyz \
	OrthoOrbital Pt 26   dz2 \
	OrthoOrbital Pt 26   dxz \
	OrthoOrbital Pt 26   dx2-y2 \
	OrthoOrbital Pt 27   s \
	OrthoOrbital Pt 27   p \
	OrthoOrbital Pt 27   px \
	OrthoOrbital Pt 27   py \
	OrthoOrbital Pt 27   pz \
	OrthoOrbital Pt 27   d \
	OrthoOrbital Pt 27   dxy \
	OrthoOrbital Pt 27   dyz \
	OrthoOrbital Pt 27   dz2 \
	OrthoOrbital Pt 27   dxz \
	OrthoOrbital Pt 27   dx2-y2 \
	OrthoOrbital Pt 28   s \
	OrthoOrbital Pt 28   p \
	OrthoOrbital Pt 28   px \
	OrthoOrbital Pt 28   py \
	OrthoOrbital Pt 28   pz \
	OrthoOrbital Pt 28   d \
	OrthoOrbital Pt 28   dxy \
	OrthoOrbital Pt 28   dyz \
	OrthoOrbital Pt 28   dz2 \
	OrthoOrbital Pt 28   dxz \
	OrthoOrbital Pt 28   dx2-y2 \
	OrthoOrbital Pt 29   s \
	OrthoOrbital Pt 29   p \
	OrthoOrbital Pt 29   px \
	OrthoOrbital Pt 29   py \
	OrthoOrbital Pt 29   pz \
	OrthoOrbital Pt 29   d \
	OrthoOrbital Pt 29   dxy \
	OrthoOrbital Pt 29   dyz \
	OrthoOrbital Pt 29   dz2 \
	OrthoOrbital Pt 29   dxz \
	OrthoOrbital Pt 29   dx2-y2 \
	OrthoOrbital Pt 30   s \
	OrthoOrbital Pt 30   p \
	OrthoOrbital Pt 30   px \
	OrthoOrbital Pt 30   py \
	OrthoOrbital Pt 30   pz \
	OrthoOrbital Pt 30   d \
	OrthoOrbital Pt 30   dxy \
	OrthoOrbital Pt 30   dyz \
	OrthoOrbital Pt 30   dz2 \
	OrthoOrbital Pt 30   dxz \
	OrthoOrbital Pt 30   dx2-y2 \
	OrthoOrbital Pt 31   s \
	OrthoOrbital Pt 31   p \
	OrthoOrbital Pt 31   px \
	OrthoOrbital Pt 31   py \
	OrthoOrbital Pt 31   pz \
	OrthoOrbital Pt 31   d \
	OrthoOrbital Pt 31   dxy \
	OrthoOrbital Pt 31   dyz \
	OrthoOrbital Pt 31   dz2 \
	OrthoOrbital Pt 31   dxz \
	OrthoOrbital Pt 31   dx2-y2 \
	OrthoOrbital Pt 32   s \
	OrthoOrbital Pt 32   p \
	OrthoOrbital Pt 32   px \
	OrthoOrbital Pt 32   py \
	OrthoOrbital Pt 32   pz \
	OrthoOrbital Pt 32   d \
	OrthoOrbital Pt 32   dxy \
	OrthoOrbital Pt 32   dyz \
	OrthoOrbital Pt 32   dz2 \
	OrthoOrbital Pt 32   dxz \
	OrthoOrbital Pt 32   dx2-y2 \
	OrthoOrbital Pt 33   s \
	OrthoOrbital Pt 33   p \
	OrthoOrbital Pt 33   px \
	OrthoOrbital Pt 33   py \
	OrthoOrbital Pt 33   pz \
	OrthoOrbital Pt 33   d \
	OrthoOrbital Pt 33   dxy \
	OrthoOrbital Pt 33   dyz \
	OrthoOrbital Pt 33   dz2 \
	OrthoOrbital Pt 33   dxz \
	OrthoOrbital Pt 33   dx2-y2 \
	OrthoOrbital Pt 34   s \
	OrthoOrbital Pt 34   p \
	OrthoOrbital Pt 34   px \
	OrthoOrbital Pt 34   py \
	OrthoOrbital Pt 34   pz \
	OrthoOrbital Pt 34   d \
	OrthoOrbital Pt 34   dxy \
	OrthoOrbital Pt 34   dyz \
	OrthoOrbital Pt 34   dz2 \
	OrthoOrbital Pt 34   dxz \
	OrthoOrbital Pt 34   dx2-y2 \
	OrthoOrbital Pt 35   s \
	OrthoOrbital Pt 35   p \
	OrthoOrbital Pt 35   px \
	OrthoOrbital Pt 35   py \
	OrthoOrbital Pt 35   pz \
	OrthoOrbital Pt 35   d \
	OrthoOrbital Pt 35   dxy \
	OrthoOrbital Pt 35   dyz \
	OrthoOrbital Pt 35   dz2 \
	OrthoOrbital Pt 35   dxz \
	OrthoOrbital Pt 35   dx2-y2 \
	OrthoOrbital Pt 36   s \
	OrthoOrbital Pt 36   p \
	OrthoOrbital Pt 36   px \
	OrthoOrbital Pt 36   py \
	OrthoOrbital Pt 36   pz \
	OrthoOrbital Pt 36   d \
	OrthoOrbital Pt 36   dxy \
	OrthoOrbital Pt 36   dyz \
	OrthoOrbital Pt 36   dz2 \
	OrthoOrbital Pt 36   dxz \
	OrthoOrbital Pt 36   dx2-y2 \
	OrthoOrbital Pt 37   s \
	OrthoOrbital Pt 37   p \
	OrthoOrbital Pt 37   px \
	OrthoOrbital Pt 37   py \
	OrthoOrbital Pt 37   pz \
	OrthoOrbital Pt 37   d \
	OrthoOrbital Pt 37   dxy \
	OrthoOrbital Pt 37   dyz \
	OrthoOrbital Pt 37   dz2 \
	OrthoOrbital Pt 37   dxz \
	OrthoOrbital Pt 37   dx2-y2 \
	OrthoOrbital Pt 38   s \
	OrthoOrbital Pt 38   p \
	OrthoOrbital Pt 38   px \
	OrthoOrbital Pt 38   py \
	OrthoOrbital Pt 38   pz \
	OrthoOrbital Pt 38   d \
	OrthoOrbital Pt 38   dxy \
	OrthoOrbital Pt 38   dyz \
	OrthoOrbital Pt 38   dz2 \
	OrthoOrbital Pt 38   dxz \
	OrthoOrbital Pt 38   dx2-y2 \
	OrthoOrbital Pt 39   s \
	OrthoOrbital Pt 39   p \
	OrthoOrbital Pt 39   px \
	OrthoOrbital Pt 39   py \
	OrthoOrbital Pt 39   pz \
	OrthoOrbital Pt 39   d \
	OrthoOrbital Pt 39   dxy \
	OrthoOrbital Pt 39   dyz \
	OrthoOrbital Pt 39   dz2 \
	OrthoOrbital Pt 39   dxz \
	OrthoOrbital Pt 39   dx2-y2 \
	OrthoOrbital Pt 40   s \
	OrthoOrbital Pt 40   p \
	OrthoOrbital Pt 40   px \
	OrthoOrbital Pt 40   py \
	OrthoOrbital Pt 40   pz \
	OrthoOrbital Pt 40   d \
	OrthoOrbital Pt 40   dxy \
	OrthoOrbital Pt 40   dyz \
	OrthoOrbital Pt 40   dz2 \
	OrthoOrbital Pt 40   dxz \
	OrthoOrbital Pt 40   dx2-y2 \
	OrthoOrbital C 1   s \
	OrthoOrbital C 1   p \
	OrthoOrbital C 1   px \
	OrthoOrbital C 1   py \
	OrthoOrbital C 1   pz \
	OrthoOrbital O 1   s \
	OrthoOrbital O 1   p \
	OrthoOrbital O 1   px \
	OrthoOrbital O 1   py \
	OrthoOrbital O 1   pz
dump End ElecDensity KEdensity BandEigs EigStats RhoAtom DOS Kpoints
dump Ionic State IonicPositions Lattice EigStats Ecomponents
dump 
dump 
dump 
dump 
dump 
dump 
dump 
dump 
dump-name jdft.$VAR
elec-cutoff 20
elec-eigen-algo Davidson
elec-ex-corr gga-PBE
elec-initial-magnetization 0.000000 no
elec-n-bands 390
elec-smearing Fermi 0.001
electronic-minimize  \
	dirUpdateScheme      FletcherReeves \
	linminMethod         DirUpdateRecommended \
	nIterations          100 \
	history              15 \
	knormThreshold       0 \
	energyDiffThreshold  1e-07 \
	nEnergyDiff          2 \
	alphaTstart          1 \
	alphaTmin            1e-10 \
	updateTestStepSize   yes \
	alphaTreduceFactor   0.1 \
	alphaTincreaseFactor 3 \
	nAlphaAdjustMax      3 \
	wolfeEnergy          0.0001 \
	wolfeGradient        0.9 \
	fdTest               no
exchange-regularization WignerSeitzTruncated
fluid LinearPCM 298.000000 1.013250
fluid-anion F- 0.5 MeanFieldLJ \
	epsBulk 1 \
	pMol 0 \
	epsInf 1 \
	Pvap 0 \
	sigmaBulk 0 \
	Rvdw 2.24877 \
	Res 0 \
	tauNuc 343133
fluid-cation Na+ 0.5 MeanFieldLJ \
	epsBulk 1 \
	pMol 0 \
	epsInf 1 \
	Pvap 0 \
	sigmaBulk 0 \
	Rvdw 2.19208 \
	Res 0 \
	tauNuc 343133
fluid-ex-corr lda-TF lda-PZ
fluid-gummel-loop 10 1.000000e-05
fluid-minimize  \
	dirUpdateScheme      PolakRibiere \
	linminMethod         DirUpdateRecommended \
	nIterations          400 \
	history              15 \
	knormThreshold       1e-11 \
	energyDiffThreshold  0 \
	nEnergyDiff          2 \
	alphaTstart          1 \
	alphaTmin            1e-10 \
	updateTestStepSize   yes \
	alphaTreduceFactor   0.1 \
	alphaTincreaseFactor 3 \
	nAlphaAdjustMax      6 \
	wolfeEnergy          0.0001 \
	wolfeGradient        0.9 \
	fdTest               no
fluid-solvent H2O 55.338 ScalarEOS \
	epsBulk 78.4 \
	pMol 0.92466 \
	epsInf 1.77 \
	Pvap 1.06736e-10 \
	sigmaBulk 4.62e-05 \
	Rvdw 2.61727 \
	Res 1.42 \
	tauNuc 343133 \
	poleEl 15 7 1
forces-output-coords Positions
ion Pt   3.704685000000000   1.822566000000000  12.573157000000000 0
ion Pt   0.005105000000001  10.095076999999998  12.573157000000000 0
ion Pt  11.103842999999998   1.822566000000000  12.573157000000000 0
ion Pt   7.404264000000001  10.095076999999998  12.573157000000000 0
ion Pt  -0.001050999999999   3.273664000000000   9.137368000000000 0
ion Pt  -3.700629999999999  11.546173999999999   9.137368000000000 0
ion Pt   7.398107999999999   3.273664000000000   9.137368000000000 0
ion Pt   3.698529000000002  11.546173999999999   9.137368000000000 0
ion Pt   3.697034000000000   4.963307999999999   5.876891000000000 0
ion Pt  -0.002545000000000  13.235818000000000   5.876891000000000 0
ion Pt  11.096191999999999   4.963307999999999   5.876891000000000 0
ion Pt   7.396613000000001  13.235818000000000   5.876891000000000 0
ion Pt  -0.005535000000000   6.538525999999999   2.275817000000000 0
ion Pt  -3.705113999999998  14.811036999999999   2.275817000000000 0
ion Pt   7.393623999999998   6.538525999999999   2.275817000000000 0
ion Pt   3.694045000000000  14.811036999999999   2.275817000000000 0
ion Pt  -3.696790000000000   8.273420000000000  15.437099999999996 0
ion Pt   0.002789000000000   0.000910000000000  15.437099999999996 0
ion Pt   3.702368999999999   8.273420000000000  15.437099999999996 0
ion Pt   7.401947999999999   0.000910000000000  15.437099999999996 0
ion Pt   3.702198000000001   6.619000999999999  10.667418999999999 0
ion Pt   0.002612000000002  14.891494999999999  10.667418999999999 0
ion Pt  11.101342000000001   6.619000999999999  10.667418999999999 0
ion Pt   7.401770000000000  14.891494999999999  10.667418999999999 0
ion Pt   3.700711000000000   0.034761000000000   7.409074999999999 0
ion Pt   0.001132000000001   8.307271999999999   7.409074999999999 0
ion Pt  11.099869999999996   0.034761000000000   7.409074999999999 0
ion Pt   7.400290000000000   8.307271999999999   7.409074999999999 0
ion Pt  -0.004987000000000   1.486173000000000   3.972789999999999 0
ion Pt  -3.704565999999998   9.758682999999998   3.972789999999999 0
ion Pt   7.394171000000000   1.486173000000000   3.972789999999999 0
ion Pt   3.694592000000002   9.758682999999998   3.972789999999999 0
ion Pt   3.696723000000000   3.307713999999999   1.109493000000000 0
ion Pt  -0.002870999999999  11.580223999999999   1.109493000000000 0
ion Pt  11.095866999999998   3.307713999999999   1.109493000000000 0
ion Pt   7.396302000000000  11.580223999999999   1.109493000000000 0
ion Pt   0.005350000000000   5.043435000000000  14.266009999999996 0
ion Pt  -3.694243999999999  13.315945999999999  14.266009999999996 0
ion Pt   7.404493000000000   5.043435000000000  14.266009999999996 0
ion Pt   3.704914000000001  13.315945999999999  14.266009999999996 0
ion C   4.937258999999999   3.362593000000000  16.450399999999998 1  Linear 0 0 1
ion O   4.997355000000000   3.362593000000000  18.605753000000000 1  Linear 0 0 1
ion-species /projects/musgravc/apps/jdftx-1.6.0/build/pseudopotentials/GBRV_v1.5/$ID_pbe_v1.uspp
ion-species /projects/musgravc/apps/jdftx-1.6.0/build/pseudopotentials/GBRV_v1.5/$ID_pbe_v1.2.uspp
ion-species /projects/musgravc/apps/jdftx-1.6.0/build/pseudopotentials/GBRV_v1.5/$ID_pbe_v1.4.uspp
ion-species /projects/musgravc/apps/jdftx-1.6.0/build/pseudopotentials/GBRV_v1.5/$ID_pbe_v1.5.uspp
ion-width Ecut
ionic-minimize  \
	dirUpdateScheme      L-BFGS \
	linminMethod         DirUpdateRecommended \
	nIterations          100 \
	history              15 \
	knormThreshold       0.0001 \
	energyDiffThreshold  1e-06 \
	nEnergyDiff          2 \
	alphaTstart          1 \
	alphaTmin            1e-10 \
	updateTestStepSize   yes \
	alphaTreduceFactor   0.1 \
	alphaTincreaseFactor 3 \
	nAlphaAdjustMax      3 \
	wolfeEnergy          0.0001 \
	wolfeGradient        0.9 \
	fdTest               no
kpoint   0.000000000000   0.000000000000   0.000000000000  1.00000000000000
kpoint-folding 4 3 1 
latt-move-scale 0 0 0
latt-scale 1 1 1 
lattice  \
	  14.798317000000001   -7.399158000000000    0.000000000000000  \
	   0.000000000000000   16.545020999999998    0.000000000000000  \
	   0.000000000000000    0.000000000000000   49.635063000000002 
lattice-minimize  \
	dirUpdateScheme      L-BFGS \
	linminMethod         DirUpdateRecommended \
	nIterations          0 \
	history              15 \
	knormThreshold       0 \
	energyDiffThreshold  1e-06 \
	nEnergyDiff          2 \
	alphaTstart          1 \
	alphaTmin            1e-10 \
	updateTestStepSize   yes \
	alphaTreduceFactor   0.1 \
	alphaTincreaseFactor 3 \
	nAlphaAdjustMax      3 \
	wolfeEnergy          0.0001 \
	wolfeGradient        0.9 \
	fdTest               no
lcao-params 30 1e-06 0.001
pcm-variant CANDLE
spintype z-spin
subspace-rotation-factor 1 yes
symmetries automatic
symmetry-threshold 0.0001
van-der-waals D3



---------- Setting up symmetries ----------

Found 8 point-group symmetries of the bravais lattice
Found 1 space-group symmetries with basis
Applied RMS atom displacement 0 bohrs to make symmetries exact.

---------- Initializing the Grid ----------
R = 
[      14.7983     -7.39916            0  ]
[            0       16.545            0  ]
[            0            0      49.6351  ]
unit cell volume = 12152.6
G =
[   0.424588   0.189881         -0  ]
[          0   0.379763          0  ]
[          0         -0   0.126588  ]
Minimum fftbox size, Smin = [  60  76  200  ]
Chosen fftbox size, S = [  60  80  200  ]

---------- Exchange Correlation functional ----------
Initalized PBE GGA exchange.
Initalized PBE GGA correlation.

---------- Setting up pseudopotentials ----------
Width of ionic core gaussian charges (only for fluid interactions / plotting) set to 0.397384

Reading pseudopotential file '/projects/musgravc/apps/jdftx-1.6.0/build/pseudopotentials/GBRV_v1.5/pt_pbe_v1.4.uspp':
  Title: Pt.  Created by USPP 7.3.6 on 31-3-15
  Reference state energy: -105.002503.  16 valence electrons in orbitals:
    |510>  occupation: 6  eigenvalue: -2.158104
    |520>  occupation: 9.5  eigenvalue: -0.335376
    |600>  occupation: 0  eigenvalue: -0.319640
    |610>  occupation: 0  eigenvalue: -0.122947
  lMax: 2  lLocal: 3  QijEcut: 5.5
  6 projectors sampled on a log grid with 745 points:
    l: 0  eig: -0.319640  rCut: 2.45
    l: 0  eig: 1.500000  rCut: 2.45
    l: 1  eig: -2.158104  rCut: 1.6
    l: 1  eig: -0.122947  rCut: 1.6
    l: 2  eig: -0.500000  rCut: 1.6
    l: 2  eig: -0.335375  rCut: 1.6
  Partial core density with radius 1.1
  Transforming core density to a uniform radial grid of dG=0.02 with 1383 points.
  Transforming local potential to a uniform radial grid of dG=0.02 with 1383 points.
  Transforming nonlocal projectors to a uniform radial grid of dG=0.02 with 432 points.
  Transforming density augmentations to a uniform radial grid of dG=0.02 with 1383 points.
  Transforming atomic orbitals to a uniform radial grid of dG=0.02 with 432 points.
  Core radius for overlap checks: 2.45 bohrs.

Reading pseudopotential file '/projects/musgravc/apps/jdftx-1.6.0/build/pseudopotentials/GBRV_v1.5/c_pbe_v1.2.uspp':
  Title: C.  Created by USPP 7.3.6 on 3-2-2014
  Reference state energy: -5.406344.  4 valence electrons in orbitals:
    |200>  occupation: 2  eigenvalue: -0.504890
    |210>  occupation: 2  eigenvalue: -0.194356
  lMax: 1  lLocal: 2  QijEcut: 5
  4 projectors sampled on a log grid with 503 points:
    l: 0  eig: -0.504890  rCut: 1.3
    l: 0  eig: 0.000000  rCut: 1.3
    l: 1  eig: -0.194357  rCut: 1.3
    l: 1  eig: 0.000000  rCut: 1.3
  Partial core density with radius 1.1
  Transforming core density to a uniform radial grid of dG=0.02 with 1383 points.
  Transforming local potential to a uniform radial grid of dG=0.02 with 1383 points.
  Transforming nonlocal projectors to a uniform radial grid of dG=0.02 with 432 points.
  Transforming density augmentations to a uniform radial grid of dG=0.02 with 1383 points.
  Transforming atomic orbitals to a uniform radial grid of dG=0.02 with 432 points.
  Core radius for overlap checks: 1.30 bohrs.

Reading pseudopotential file '/projects/musgravc/apps/jdftx-1.6.0/build/pseudopotentials/GBRV_v1.5/o_pbe_v1.2.uspp':
  Title: O.  Created by USPP 7.3.6 on 3-2-2014
  Reference state energy: -15.894388.  6 valence electrons in orbitals:
    |200>  occupation: 2  eigenvalue: -0.878823
    |210>  occupation: 4  eigenvalue: -0.332131
  lMax: 2  lLocal: 2  QijEcut: 6
  5 projectors sampled on a log grid with 511 points:
    l: 0  eig: -0.878823  rCut: 1.25
    l: 0  eig: 0.000000  rCut: 1.25
    l: 1  eig: -0.332132  rCut: 1.25
    l: 1  eig: 0.000000  rCut: 1.25
    l: 2  eig: 1.000000  rCut: 1.25
  Partial core density with radius 0.7
  Transforming core density to a uniform radial grid of dG=0.02 with 1383 points.
  Transforming local potential to a uniform radial grid of dG=0.02 with 1383 points.
  Transforming nonlocal projectors to a uniform radial grid of dG=0.02 with 432 points.
  Transforming density augmentations to a uniform radial grid of dG=0.02 with 1383 points.
  Transforming atomic orbitals to a uniform radial grid of dG=0.02 with 432 points.
  Core radius for overlap checks: 1.25 bohrs.

Initialized 3 species with 42 total atoms.

Folded 1 k-points by 4x3x1 to 12 k-points.

---------- Setting up k-points, bands, fillings ----------
Adding inversion symmetry to k-mesh for non-inversion-symmetric unit cell.
Reduced to 7 k-points under symmetry. 
Computing the number of bands and number of electrons
Calculating initial fillings.
nElectrons: 650.000000   nBands: 390   nStates: 14

----- Setting up reduced wavefunction bases (one per k-point) -----
average nbasis = 51909.083 , ideal nbasis = 51916.717

----- Initializing Supercell corresponding to k-point mesh -----
Lattice vector linear combinations in supercell:
[   4   0   0  ]
[   0   3   0  ]
[   0   0   1  ]
Supercell lattice vectors:
[  59.1933  -22.1975  0  ]
[  0  49.6351  0  ]
[  0  0  49.6351  ]

Initializing DFT-D3 calculator:
	Parameters set for gga-PBE functional
	s6:  1.000  s_r6:  1.217
	s8:  0.722  s_r8:  1.000
	Per-atom parameters loaded for:
	Pt:  sqrtQ[a0]:  5.888  Rcov[a0]:  2.116  CN: [ 0.00 1.92 6.67 ]
	 C:  sqrtQ[a0]:  3.105  Rcov[a0]:  1.417  CN: [ 0.00 0.99 2.00 3.00 3.98 ]
	 O:  sqrtQ[a0]:  2.594  Rcov[a0]:  1.191  CN: [ 0.00 0.99 1.99 ]

Initializing DFT-D2 calculator for fluid / solvation:
	Pt:  C6:  815.23 Eh-a0^6  R0: 3.326 a0 (WARNING: beyond Grimme's data set)
	 C:  C6:   30.35 Eh-a0^6  R0: 2.744 a0
	 O:  C6:   12.14 Eh-a0^6  R0: 2.536 a0

---------- Setting up ewald sum ----------
Optimum gaussian width for ewald sums = 4.919541 bohr.
Real space sum over 495 unit cells with max indices [  5  4  2  ]
Reciprocal space sum over 6825 terms with max indices [  6  7  17  ]

Computing DFT-D3 correction:
# coordination-number Pt 9.350 8.553 8.556 8.554 9.301 9.301 9.303 9.301 9.357 9.357 9.357 9.357 7.000 7.000 7.000 7.000 5.347 5.376 5.557 6.252 9.369 9.362 9.361 9.361 9.299 9.299 9.299 9.299 8.550 8.550 8.550 8.550 5.347 5.347 5.347 5.347 7.075 7.011 8.067 7.006
# coordination-number C 3.927
# coordination-number O 1.188
# diagonal-C6 Pt 336.87 336.87 336.87 336.87 336.87 336.87 336.87 336.87 336.87 336.87 336.87 336.87 336.87 336.87 336.87 336.87 336.87 336.87 336.87 336.87 336.87 336.87 336.87 336.87 336.87 336.87 336.87 336.87 336.87 336.87 336.87 336.87 336.87 336.87 336.87 336.87 336.87 336.87 336.87 336.87
# diagonal-C6 C 18.42
# diagonal-C6 O 12.61
EvdW_6 =   -0.305001
EvdW_8 =   -0.520609

---------- Allocating electronic variables ----------
Initializing wave functions:  linear combination of atomic orbitals
Pt pseudo-atom occupations:   s ( 0 )  p ( 6 0 )  d ( 10 )
C pseudo-atom occupations:   s ( 2 )  p ( 2 )
O pseudo-atom occupations:   s ( 2 )  p ( 4 )
	FillingsUpdate:  mu: -0.818379586  nElectrons: 650.000000  magneticMoment: [ Abs: 0.00547  Tot: +0.00005 ]
LCAOMinimize: Iter:   0  F: -3559.0964671920110050  |grad|_K:  1.525e-02  alpha:  1.000e+00
LCAOMinimize: 	Step increased F by 1.575795e+02, reducing alpha to 2.188481e-02.
	FillingsUpdate:  mu: -0.391276750  nElectrons: 650.000000  magneticMoment: [ Abs: 0.00443  Tot: +0.00018 ]
LCAOMinimize: Iter:   1  F: -3572.0569597489716216  |grad|_K:  7.252e-03  alpha:  2.188e-02  linmin: -1.729e-01  cgtest:  7.276e-01  t[s]:    203.65
LCAOMinimize: Encountered beta<0, resetting CG.
	FillingsUpdate:  mu: +0.008870901  nElectrons: 650.000000  magneticMoment: [ Abs: 0.00389  Tot: -0.00001 ]
LCAOMinimize: Iter:   2  F: -3574.6263369263174354  |grad|_K:  7.500e-03  alpha:  3.191e-02  linmin:  3.133e-02  cgtest: -9.814e-02  t[s]:    263.75
	FillingsUpdate:  mu: +0.198569334  nElectrons: 650.000000  magneticMoment: [ Abs: 0.00357  Tot: +0.00010 ]
LCAOMinimize: Iter:   3  F: -3575.8261352197964698  |grad|_K:  4.917e-03  alpha:  1.659e-02  linmin: -2.626e-04  cgtest:  4.586e-01  t[s]:    323.86
	FillingsUpdate:  mu: +0.016256300  nElectrons: 650.000000  magneticMoment: [ Abs: 0.00337  Tot: +0.00003 ]
LCAOMinimize: Iter:   4  F: -3577.4924783879787356  |grad|_K:  3.906e-03  alpha:  4.330e-02  linmin:  8.522e-03  cgtest: -1.406e-01  t[s]:    383.74
	FillingsUpdate:  mu: -0.006979969  nElectrons: 650.000000  magneticMoment: [ Abs: 0.00325  Tot: -0.00002 ]
LCAOMinimize: Iter:   5  F: -3577.8981224813587687  |grad|_K:  3.027e-03  alpha:  1.834e-02  linmin:  7.366e-03  cgtest:  1.121e-02  t[s]:    443.66
LCAOMinimize: 	Predicted alpha/alphaT>3.000000, increasing alphaT to 5.502552e-02.
	FillingsUpdate:  mu: +0.149707406  nElectrons: 650.000000  magneticMoment: [ Abs: 0.00286  Tot: +0.00004 ]
LCAOMinimize: Iter:   6  F: -3578.8987789186526243  |grad|_K:  1.372e-03  alpha:  6.692e-02  linmin: -1.902e-02  cgtest:  1.518e-01  t[s]:    519.39
	FillingsUpdate:  mu: +0.145624405  nElectrons: 650.000000  magneticMoment: [ Abs: 0.00283  Tot: +0.00004 ]
LCAOMinimize: Iter:   7  F: -3578.9726304712808087  |grad|_K:  1.461e-03  alpha:  2.420e-02  linmin:  6.889e-03  cgtest: -1.289e-01  t[s]:    579.24
	FillingsUpdate:  mu: +0.102833848  nElectrons: 650.000000  magneticMoment: [ Abs: 0.00269  Tot: +0.00001 ]
LCAOMinimize: Iter:   8  F: -3579.1330231527877004  |grad|_K:  1.333e-03  alpha:  4.661e-02  linmin: -5.198e-03  cgtest:  3.863e-01  t[s]:    639.08
	FillingsUpdate:  mu: +0.152894625  nElectrons: 650.000000  magneticMoment: [ Abs: 0.00262  Tot: +0.00004 ]
LCAOMinimize: Iter:   9  F: -3579.2375347628267264  |grad|_K:  1.517e-03  alpha:  3.339e-02  linmin:  3.596e-04  cgtest: -4.681e-02  t[s]:    698.84
	FillingsUpdate:  mu: +0.161920171  nElectrons: 650.000000  magneticMoment: [ Abs: 0.00254  Tot: +0.00010 ]
LCAOMinimize: Iter:  10  F: -3579.3289094867704989  |grad|_K:  7.290e-04  alpha:  2.339e-02  linmin:  3.585e-04  cgtest:  9.367e-02  t[s]:    758.72
	FillingsUpdate:  mu: +0.150981664  nElectrons: 650.000000  magneticMoment: [ Abs: 0.00249  Tot: +0.00009 ]
LCAOMinimize: Iter:  11  F: -3579.3734829040167824  |grad|_K:  1.010e-03  alpha:  4.947e-02  linmin: -1.751e-03  cgtest:  1.225e-02  t[s]:    818.51
	FillingsUpdate:  mu: +0.117835026  nElectrons: 650.000000  magneticMoment: [ Abs: 0.00245  Tot: +0.00009 ]
LCAOMinimize: Iter:  12  F: -3579.4084791027712527  |grad|_K:  5.322e-04  alpha:  2.017e-02  linmin:  9.173e-04  cgtest: -9.125e-02  t[s]:    878.22
LCAOMinimize: 	Predicted alpha/alphaT>3.000000, increasing alphaT to 6.051933e-02.
	FillingsUpdate:  mu: +0.153773748  nElectrons: 650.000000  magneticMoment: [ Abs: 0.00238  Tot: +0.00014 ]
LCAOMinimize: Iter:  13  F: -3579.4490815375188504  |grad|_K:  7.156e-04  alpha:  8.704e-02  linmin:  8.428e-04  cgtest:  5.178e-02  t[s]:    953.89
	FillingsUpdate:  mu: +0.148411439  nElectrons: 650.000000  magneticMoment: [ Abs: 0.00236  Tot: +0.00014 ]
LCAOMinimize: Iter:  14  F: -3579.4601957867484998  |grad|_K:  2.983e-04  alpha:  1.218e-02  linmin: -1.023e-02  cgtest:  2.468e-01  t[s]:   1013.63
LCAOMinimize: 	Predicted alpha/alphaT>3.000000, increasing alphaT to 3.654896e-02.
	FillingsUpdate:  mu: +0.132516311  nElectrons: 650.000000  magneticMoment: [ Abs: 0.00236  Tot: +0.00014 ]
LCAOMinimize: Iter:  15  F: -3579.4664386310205373  |grad|_K:  1.561e-04  alpha:  4.066e-02  linmin: -5.088e-04  cgtest: -8.132e-02  t[s]:   1089.53
	FillingsUpdate:  mu: +0.132078241  nElectrons: 650.000000  magneticMoment: [ Abs: 0.00235  Tot: +0.00014 ]
LCAOMinimize: Iter:  16  F: -3579.4675950845557963  |grad|_K:  1.953e-04  alpha:  2.830e-02  linmin: -5.829e-07  cgtest:  1.541e-03  t[s]:   1149.46
	FillingsUpdate:  mu: +0.136440002  nElectrons: 650.000000  magneticMoment: [ Abs: 0.00234  Tot: +0.00016 ]
LCAOMinimize: Iter:  17  F: -3579.4722029904614828  |grad|_K:  1.164e-04  alpha:  7.221e-02  linmin:  9.889e-05  cgtest:  1.867e-02  t[s]:   1209.29
	FillingsUpdate:  mu: +0.132887263  nElectrons: 650.000000  magneticMoment: [ Abs: 0.00234  Tot: +0.00017 ]
LCAOMinimize: Iter:  18  F: -3579.4731710328842382  |grad|_K:  1.346e-04  alpha:  4.282e-02  linmin:  4.212e-05  cgtest:  1.341e-03  t[s]:   1269.22
	FillingsUpdate:  mu: +0.130352613  nElectrons: 650.000000  magneticMoment: [ Abs: 0.00234  Tot: +0.00017 ]
LCAOMinimize: Iter:  19  F: -3579.4737180176357469  |grad|_K:  6.348e-05  alpha:  1.803e-02  linmin: -1.095e-04  cgtest:  6.862e-03  t[s]:   1329.09
LCAOMinimize: 	Predicted alpha/alphaT>3.000000, increasing alphaT to 5.409074e-02.
	FillingsUpdate:  mu: +0.133121518  nElectrons: 650.000000  magneticMoment: [ Abs: 0.00234  Tot: +0.00018 ]
LCAOMinimize: Iter:  20  F: -3579.4742239330535085  |grad|_K:  4.913e-05  alpha:  7.497e-02  linmin:  7.885e-05  cgtest: -3.993e-03  t[s]:   1404.76
	FillingsUpdate:  mu: +0.132872351  nElectrons: 650.000000  magneticMoment: [ Abs: 0.00234  Tot: +0.00018 ]
LCAOMinimize: Iter:  21  F: -3579.4743157561979388  |grad|_K:  4.836e-05  alpha:  2.273e-02  linmin: -4.364e-05  cgtest:  3.515e-03  t[s]:   1464.50
	FillingsUpdate:  mu: +0.131151309  nElectrons: 650.000000  magneticMoment: [ Abs: 0.00234  Tot: +0.00019 ]
LCAOMinimize: Iter:  22  F: -3579.4744765256141363  |grad|_K:  2.526e-05  alpha:  4.105e-02  linmin:  5.166e-05  cgtest: -7.673e-03  t[s]:   1524.34
	FillingsUpdate:  mu: +0.132026255  nElectrons: 650.000000  magneticMoment: [ Abs: 0.00234  Tot: +0.00019 ]
LCAOMinimize: Iter:  23  F: -3579.4745434466271945  |grad|_K:  2.797e-05  alpha:  6.270e-02  linmin:  6.618e-05  cgtest:  3.714e-04  t[s]:   1584.16
	FillingsUpdate:  mu: +0.132222223  nElectrons: 650.000000  magneticMoment: [ Abs: 0.00234  Tot: +0.00019 ]
LCAOMinimize: Iter:  24  F: -3579.4745631387067988  |grad|_K:  1.422e-05  alpha:  1.503e-02  linmin: -2.407e-04  cgtest:  5.054e-03  t[s]:   1644.00
LCAOMinimize: 	Predicted alpha/alphaT>3.000000, increasing alphaT to 4.508357e-02.
	FillingsUpdate:  mu: +0.131529294  nElectrons: 650.000000  magneticMoment: [ Abs: 0.00235  Tot: +0.00020 ]
LCAOMinimize: Iter:  25  F: -3579.4745922446800250  |grad|_K:  1.161e-05  alpha:  8.580e-02  linmin: -5.290e-05  cgtest: -6.815e-03  t[s]:   1719.99
	FillingsUpdate:  mu: +0.131745339  nElectrons: 650.000000  magneticMoment: [ Abs: 0.00235  Tot: +0.00020 ]
LCAOMinimize: Iter:  26  F: -3579.4745992869638940  |grad|_K:  1.345e-05  alpha:  3.118e-02  linmin: -3.506e-05  cgtest:  6.202e-04  t[s]:   1779.81
	FillingsUpdate:  mu: +0.132200896  nElectrons: 650.000000  magneticMoment: [ Abs: 0.00235  Tot: +0.00021 ]
LCAOMinimize: Iter:  27  F: -3579.4746076396522767  |grad|_K:  6.845e-06  alpha:  2.757e-02  linmin:  2.603e-05  cgtest: -2.152e-03  t[s]:   1839.81
	FillingsUpdate:  mu: +0.132102167  nElectrons: 650.000000  magneticMoment: [ Abs: 0.00235  Tot: +0.00021 ]
LCAOMinimize: Iter:  28  F: -3579.4746140026800276  |grad|_K:  6.521e-06  alpha:  8.123e-02  linmin:  7.761e-05  cgtest: -5.674e-04  t[s]:   1899.72
	FillingsUpdate:  mu: +0.132121309  nElectrons: 650.000000  magneticMoment: [ Abs: 0.00235  Tot: +0.00022 ]
LCAOMinimize: Iter:  29  F: -3579.4746150812366068  |grad|_K:  4.076e-06  alpha:  1.517e-02  linmin: -5.913e-05  cgtest:  2.671e-03  t[s]:   1959.70
LCAOMinimize: 	Predicted alpha/alphaT>3.000000, increasing alphaT to 4.550874e-02.
	FillingsUpdate:  mu: +0.132386670  nElectrons: 650.000000  magneticMoment: [ Abs: 0.00236  Tot: +0.00022 ]
LCAOMinimize: Iter:  30  F: -3579.4746170926018749  |grad|_K:  2.756e-06  alpha:  7.233e-02  linmin:  1.321e-04  cgtest: -5.302e-03  t[s]:   2035.61
LCAOMinimize: None of the convergence criteria satisfied after 30 iterations.
----- createFluidSolver() ----- (Fluid-side solver setup)
   Initializing fluid molecule 'H2O'
     Initializing site 'O'
       Electron density: proportional to exp(-r/0.36935)*erfc((r-0.51523)/0.36823) with norm 6.826
       Charge density: gaussian nuclear width 0.478731 with net site charge 0.826
       Polarizability: cuspless exponential with width 0.32 and norm 3.73
       Hard sphere radius: 2.57003 bohrs
       Positions in reference frame:
         [ +0.000000 +0.000000 +0.000000 ]
     Initializing site 'H'
       Electron density: proportional to exp(-r/0.34641)*erfc((r-0)/0.390882) with norm 0.587
       Charge density: gaussian nuclear width 0.377945 with net site charge -0.413
       Polarizability: cuspless exponential with width 0.39 and norm 3.3
       Positions in reference frame:
         [ +0.000000 -1.441945 +1.122523 ]
         [ +0.000000 +1.441945 +1.122523 ]
     Net charge: 0   dipole magnitude: 0.927204
     Initializing spherical shell mfKernel with radius 2.61727 Bohr
     deltaS corrections:
       site 'O': -7.54299
       site 'H': -6.83917
   Initializing fluid molecule 'Na+'
     Initializing site 'Na'
       Electron density: proportional to exp(-r/0.19682)*erfc((r-0.71491)/0.41314) with norm 8.1383
       Charge density: gaussian nuclear width 0.365347 with net site charge -1
       Hard sphere radius: 1.86327 bohrs
       Positions in reference frame:
         [ +0.000000 +0.000000 +0.000000 ]
     Net charge: -1   dipole magnitude: 0
     Initializing gaussian mfKernel with width: 1.55004 Bohr
     deltaS corrections:
       site 'Na': -22.3555
   Initializing fluid molecule 'F-'
     Initializing site 'F'
       Electron density: proportional to exp(-r/0.38886)*erfc((r-0)/0.438782) with norm 8
       Charge density: gaussian nuclear width 0.374796 with net site charge 1
       Hard sphere radius: 2.39995 bohrs
       Positions in reference frame:
         [ +0.000000 +0.000000 +0.000000 ]
     Net charge: 1   dipole magnitude: 0
     Initializing gaussian mfKernel with width: 1.59012 Bohr
     deltaS corrections:
       site 'F': -9.04335

Correction to mu due to finite nuclear width = -0.0530695
   Cavity determined by nc: 0.00142 and sigma: 0.707107
   Nonlocal vdW cavity from gaussian model electron density with norm = 8 and sigma = 0.993594 bohr
   Charge asymmetry in cavity with sensitivity pCavity = 36.5 e-bohr/Eh
   Electrostatic cavity expanded by eta = 1.46 bohrs
   Weighted density cavitation model constrained by Nbulk: 0.0049383 bohr^-3, Pvap: 3.14029 kPa, Rvdw: 2.61727 bohr and sigmaBulk: 4.62e-05 Eh/bohr^2 at T: 298 K.
   Weighted density dispersion model using vdW pair potentials with single solvent site with sqrtC6eff: 0.77 SI.


---- Citations for features of the code used in this run ----

   Software package:
      R. Sundararaman, K. Letchworth-Weaver, K.A. Schwarz, D. Gunceler, Y. Ozhabes and T.A. Arias, 'JDFTx: software for joint density-functional theory', SoftwareX 6, 278 (2017)

   gga-PBE exchange-correlation functional:
      J.P. Perdew, K. Burke and M. Ernzerhof, Phys. Rev. Lett. 77, 3865 (1996)

   Pseudopotentials:
      KF Garrity, JW Bennett, KM Rabe and D Vanderbilt, Comput. Mater. Sci. 81, 446 (2014)

   DFT-D3 dispersion correction:
      S. Grimme, J. Antony, S. Ehrlich and H. Krieg, J. Chem. Phys. 132, 154104 (2010)

   DFT-D2 dispersion correction:
      S. Grimme, J. Comput. Chem. 27, 1787 (2006)

   Charge-asymmetric nonlocally-determined local-electric (CANDLE) solvation model:
      R. Sundararaman and W.A. Goddard III, J. Chem. Phys. 142, 064107 (2015)

   Total energy minimization with Auxiliary Hamiltonian:
      C. Freysoldt, S. Boeck, and J. Neugebauer, Phys. Rev. B 79, 241103(R) (2009)

   Linear-tetrahedron sampling for density of states:
      G. Lehmann and M. Taut, Phys. status solidi (b) 54, 469 (1972)

This list may not be complete. Please suggest additional citations or
report any other bugs at https://github.com/shankar1729/jdftx/issues

Initialization completed successfully at t[s]:   2055.62


Computing DFT-D3 correction:
# coordination-number Pt 9.350 8.553 8.556 8.554 9.301 9.301 9.303 9.301 9.357 9.357 9.357 9.357 7.000 7.000 7.000 7.000 5.347 5.376 5.557 6.252 9.369 9.362 9.361 9.361 9.299 9.299 9.299 9.299 8.550 8.550 8.550 8.550 5.347 5.347 5.347 5.347 7.075 7.011 8.067 7.006
# coordination-number C 3.927
# coordination-number O 1.188
# diagonal-C6 Pt 336.87 336.87 336.87 336.87 336.87 336.87 336.87 336.87 336.87 336.87 336.87 336.87 336.87 336.87 336.87 336.87 336.87 336.87 336.87 336.87 336.87 336.87 336.87 336.87 336.87 336.87 336.87 336.87 336.87 336.87 336.87 336.87 336.87 336.87 336.87 336.87 336.87 336.87 336.87 336.87
# diagonal-C6 C 18.42
# diagonal-C6 O 12.61
EvdW_6 =   -0.305001
EvdW_8 =   -0.520609
Fluid solver invoked on fresh (random / LCAO) wavefunctions
Running a vacuum solve first:

-------- Initial electronic minimization -----------
	FillingsUpdate:  mu: +0.132386673  nElectrons: 650.000000  magneticMoment: [ Abs: 0.00236  Tot: +0.00022 ]
ElecMinimize: Iter:   0  F: -3579.474617092602784  |grad|_K:  6.798e-05  alpha:  1.000e+00
	FillingsUpdate:  mu: +0.165625569  nElectrons: 650.000000  magneticMoment: [ Abs: 0.00182  Tot: +0.00024 ]
	SubspaceRotationAdjust: set factor to 1
ElecMinimize: Iter:   1  F: -3580.044914196065292  |grad|_K:  3.538e-05  alpha:  4.378e-01  linmin:  3.502e-05  t[s]:   2215.66
	FillingsUpdate:  mu: +0.131519995  nElectrons: 650.000000  magneticMoment: [ Abs: 0.00149  Tot: +0.00022 ]
	SubspaceRotationAdjust: set factor to 0.576
ElecMinimize: Iter:   2  F: -3580.144496064972373  |grad|_K:  5.435e-05  alpha:  2.820e-01  linmin:  7.657e-07  t[s]:   2319.66
	FillingsUpdate:  mu: +0.144732640  nElectrons: 650.000000  magneticMoment: [ Abs: 0.00134  Tot: +0.00022 ]
	SubspaceRotationAdjust: set factor to 0.32
ElecMinimize: Iter:   3  F: -3580.183596167535143  |grad|_K:  1.827e-05  alpha:  4.714e-02  linmin:  4.267e-05  t[s]:   2423.76
ElecMinimize: 	Predicted alpha/alphaT>3.000000, increasing alphaT to 1.414075e-01.
	FillingsUpdate:  mu: +0.151389459  nElectrons: 650.000000  magneticMoment: [ Abs: 0.00106  Tot: +0.00020 ]
	SubspaceRotationAdjust: set factor to 0.292
ElecMinimize: Iter:   4  F: -3580.210312496275947  |grad|_K:  1.374e-05  alpha:  2.849e-01  linmin: -1.226e-05  t[s]:   2554.59
	FillingsUpdate:  mu: +0.146855533  nElectrons: 650.000000  magneticMoment: [ Abs: 0.00094  Tot: +0.00019 ]
	SubspaceRotationAdjust: set factor to 0.191
ElecMinimize: Iter:   5  F: -3580.217046934521022  |grad|_K:  1.526e-05  alpha:  1.260e-01  linmin:  1.871e-05  t[s]:   2658.82
	FillingsUpdate:  mu: +0.142663284  nElectrons: 650.000000  magneticMoment: [ Abs: 0.00083  Tot: +0.00018 ]
	SubspaceRotationAdjust: set factor to 0.145
ElecMinimize: Iter:   6  F: -3580.221932188211213  |grad|_K:  8.595e-06  alpha:  7.425e-02  linmin:  1.342e-06  t[s]:   2762.86
ElecMinimize: 	Predicted alpha/alphaT>3.000000, increasing alphaT to 2.227517e-01.
	FillingsUpdate:  mu: +0.149397334  nElectrons: 650.000000  magneticMoment: [ Abs: 0.00068  Tot: +0.00017 ]
	SubspaceRotationAdjust: set factor to 0.176
ElecMinimize: Iter:   7  F: -3580.226856186634450  |grad|_K:  6.000e-06  alpha:  2.344e-01  linmin:  5.295e-06  t[s]:   2893.48
	FillingsUpdate:  mu: +0.149949577  nElectrons: 650.000000  magneticMoment: [ Abs: 0.00060  Tot: +0.00016 ]
	SubspaceRotationAdjust: set factor to 0.143
ElecMinimize: Iter:   8  F: -3580.228504391305250  |grad|_K:  6.196e-06  alpha:  1.611e-01  linmin:  7.860e-08  t[s]:   2997.61
	FillingsUpdate:  mu: +0.147721573  nElectrons: 650.000000  magneticMoment: [ Abs: 0.00052  Tot: +0.00016 ]
	SubspaceRotationAdjust: set factor to 0.133
	SubspaceRotationAdjust: resetting CG because factor has changed by 0.132976
ElecMinimize: 	State modified externally: resetting search direction.
ElecMinimize: Iter:   9  F: -3580.230146358682305  |grad|_K:  3.344e-06  alpha:  1.503e-01
	FillingsUpdate:  mu: +0.147148290  nElectrons: 650.000000  magneticMoment: [ Abs: 0.00049  Tot: +0.00015 ]
	SubspaceRotationAdjust: set factor to 0.143
ElecMinimize: Iter:  10  F: -3580.231085127460574  |grad|_K:  2.141e-06  alpha:  2.951e-01  linmin: -6.876e-07  t[s]:   3255.23
	FillingsUpdate:  mu: +0.147699545  nElectrons: 650.000000  magneticMoment: [ Abs: 0.00047  Tot: +0.00015 ]
	SubspaceRotationAdjust: set factor to 0.108
ElecMinimize: Iter:  11  F: -3580.231333381332206  |grad|_K:  2.360e-06  alpha:  1.904e-01  linmin: -8.501e-07  t[s]:   3359.25
	FillingsUpdate:  mu: +0.148488869  nElectrons: 650.000000  magneticMoment: [ Abs: 0.00041  Tot: +0.00014 ]
	SubspaceRotationAdjust: set factor to 0.0859
ElecMinimize: Iter:  12  F: -3580.231772749221363  |grad|_K:  1.432e-06  alpha:  2.773e-01  linmin:  6.844e-06  t[s]:   3463.35
	FillingsUpdate:  mu: +0.147269125  nElectrons: 650.000000  magneticMoment: [ Abs: 0.00035  Tot: +0.00013 ]
	SubspaceRotationAdjust: set factor to 0.0828
ElecMinimize: Iter:  13  F: -3580.232108809381771  |grad|_K:  1.174e-06  alpha:  5.768e-01  linmin:  6.154e-05  t[s]:   3567.53
	FillingsUpdate:  mu: +0.148259184  nElectrons: 650.000000  magneticMoment: [ Abs: 0.00032  Tot: +0.00013 ]
	SubspaceRotationAdjust: set factor to 0.0709
ElecMinimize: Iter:  14  F: -3580.232268619632123  |grad|_K:  1.039e-06  alpha:  4.088e-01  linmin: -8.040e-08  t[s]:   3671.73
	FillingsUpdate:  mu: +0.148650044  nElectrons: 650.000000  magneticMoment: [ Abs: 0.00030  Tot: +0.00012 ]
	SubspaceRotationAdjust: set factor to 0.0497
ElecMinimize: Iter:  15  F: -3580.232342623895420  |grad|_K:  7.658e-07  alpha:  2.409e-01  linmin: -1.342e-06  t[s]:   3775.98
	FillingsUpdate:  mu: +0.148255407  nElectrons: 650.000000  magneticMoment: [ Abs: 0.00028  Tot: +0.00011 ]
	SubspaceRotationAdjust: set factor to 0.0564
ElecMinimize: Iter:  16  F: -3580.232413953432115  |grad|_K:  5.471e-07  alpha:  4.277e-01  linmin:  2.026e-05  t[s]:   3880.17
	FillingsUpdate:  mu: +0.148319174  nElectrons: 650.000000  magneticMoment: [ Abs: 0.00026  Tot: +0.00011 ]
	SubspaceRotationAdjust: set factor to 0.064
ElecMinimize: Iter:  17  F: -3580.232459446302528  |grad|_K:  4.511e-07  alpha:  5.350e-01  linmin:  6.499e-06  t[s]:   3984.27
	FillingsUpdate:  mu: +0.148522416  nElectrons: 650.000000  magneticMoment: [ Abs: 0.00025  Tot: +0.00011 ]
	SubspaceRotationAdjust: set factor to 0.054
ElecMinimize: Iter:  18  F: -3580.232481728774928  |grad|_K:  4.619e-07  alpha:  3.851e-01  linmin:  1.904e-07  t[s]:   4088.38
	FillingsUpdate:  mu: +0.148545101  nElectrons: 650.000000  magneticMoment: [ Abs: 0.00023  Tot: +0.00010 ]
	SubspaceRotationAdjust: set factor to 0.0511
ElecMinimize: Iter:  19  F: -3580.232513317021130  |grad|_K:  4.369e-07  alpha:  5.205e-01  linmin: -1.625e-06  t[s]:   4192.82
	FillingsUpdate:  mu: +0.148258139  nElectrons: 650.000000  magneticMoment: [ Abs: 0.00020  Tot: +0.00009 ]
	SubspaceRotationAdjust: set factor to 0.0575
ElecMinimize: Iter:  20  F: -3580.232545415596633  |grad|_K:  3.487e-07  alpha:  5.908e-01  linmin: -3.497e-06  t[s]:   4296.95
	FillingsUpdate:  mu: +0.148375351  nElectrons: 650.000000  magneticMoment: [ Abs: 0.00018  Tot: +0.00008 ]
	SubspaceRotationAdjust: set factor to 0.0546
ElecMinimize: Iter:  21  F: -3580.232563716073855  |grad|_K:  3.164e-07  alpha:  5.288e-01  linmin: -3.268e-06  t[s]:   4401.39
	FillingsUpdate:  mu: +0.148454530  nElectrons: 650.000000  magneticMoment: [ Abs: 0.00016  Tot: +0.00008 ]
	SubspaceRotationAdjust: set factor to 0.0416
ElecMinimize: Iter:  22  F: -3580.232573858731939  |grad|_K:  2.648e-07  alpha:  3.559e-01  linmin: -3.582e-07  t[s]:   4505.62
	FillingsUpdate:  mu: +0.148500343  nElectrons: 650.000000  magneticMoment: [ Abs: 0.00014  Tot: +0.00007 ]
	SubspaceRotationAdjust: set factor to 0.0415
ElecMinimize: Iter:  23  F: -3580.232584048359058  |grad|_K:  2.144e-07  alpha:  5.107e-01  linmin: -1.915e-06  t[s]:   4609.89
	FillingsUpdate:  mu: +0.148534605  nElectrons: 650.000000  magneticMoment: [ Abs: 0.00013  Tot: +0.00007 ]
	SubspaceRotationAdjust: set factor to 0.045
ElecMinimize: Iter:  24  F: -3580.232591048372342  |grad|_K:  1.737e-07  alpha:  5.351e-01  linmin: -1.562e-06  t[s]:   4714.01
	FillingsUpdate:  mu: +0.148538442  nElectrons: 650.000000  magneticMoment: [ Abs: 0.00012  Tot: +0.00007 ]
	SubspaceRotationAdjust: set factor to 0.0402
ElecMinimize: Iter:  25  F: -3580.232594742438778  |grad|_K:  1.325e-07  alpha:  4.301e-01  linmin: -4.776e-07  t[s]:   4818.35
	FillingsUpdate:  mu: +0.148550975  nElectrons: 650.000000  magneticMoment: [ Abs: 0.00011  Tot: +0.00006 ]
	SubspaceRotationAdjust: set factor to 0.0371
ElecMinimize: Iter:  26  F: -3580.232596964676304  |grad|_K:  9.901e-08  alpha:  4.451e-01  linmin:  5.648e-07  t[s]:   4922.49
	FillingsUpdate:  mu: +0.148552968  nElectrons: 650.000000  magneticMoment: [ Abs: 0.00011  Tot: +0.00006 ]
	SubspaceRotationAdjust: set factor to 0.0418
ElecMinimize: Iter:  27  F: -3580.232598291373506  |grad|_K:  7.223e-08  alpha:  4.758e-01  linmin: -2.584e-06  t[s]:   5026.64
	FillingsUpdate:  mu: +0.148538829  nElectrons: 650.000000  magneticMoment: [ Abs: 0.00010  Tot: +0.00006 ]
	SubspaceRotationAdjust: set factor to 0.0454
ElecMinimize: Iter:  28  F: -3580.232599048696102  |grad|_K:  6.391e-08  alpha:  5.100e-01  linmin:  3.179e-06  t[s]:   5130.90
	FillingsUpdate:  mu: +0.148546659  nElectrons: 650.000000  magneticMoment: [ Abs: 0.00010  Tot: +0.00006 ]
	SubspaceRotationAdjust: set factor to 0.0459
ElecMinimize: Iter:  29  F: -3580.232599619248958  |grad|_K:  5.729e-08  alpha:  4.918e-01  linmin: -1.539e-06  t[s]:   5235.08
	FillingsUpdate:  mu: +0.148563877  nElectrons: 650.000000  magneticMoment: [ Abs: 0.00009  Tot: +0.00006 ]
	SubspaceRotationAdjust: set factor to 0.0482
ElecMinimize: Iter:  30  F: -3580.232600154986812  |grad|_K:  5.112e-08  alpha:  5.732e-01  linmin:  2.342e-06  t[s]:   5339.22
	FillingsUpdate:  mu: +0.148552208  nElectrons: 650.000000  magneticMoment: [ Abs: 0.00009  Tot: +0.00005 ]
	SubspaceRotationAdjust: set factor to 0.0532
ElecMinimize: Iter:  31  F: -3580.232600561680101  |grad|_K:  4.638e-08  alpha:  5.478e-01  linmin: -3.785e-07  t[s]:   5443.49
	FillingsUpdate:  mu: +0.148545964  nElectrons: 650.000000  magneticMoment: [ Abs: 0.00008  Tot: +0.00005 ]
	SubspaceRotationAdjust: set factor to 0.0586
ElecMinimize: Iter:  32  F: -3580.232600872876901  |grad|_K:  4.273e-08  alpha:  5.094e-01  linmin:  7.034e-07  t[s]:   5547.57
	FillingsUpdate:  mu: +0.148558392  nElectrons: 650.000000  magneticMoment: [ Abs: 0.00008  Tot: +0.00005 ]
	SubspaceRotationAdjust: set factor to 0.0596
ElecMinimize: Iter:  33  F: -3580.232601174445335  |grad|_K:  4.129e-08  alpha:  5.813e-01  linmin:  6.094e-07  t[s]:   5651.79
	FillingsUpdate:  mu: +0.148559004  nElectrons: 650.000000  magneticMoment: [ Abs: 0.00007  Tot: +0.00004 ]
	SubspaceRotationAdjust: set factor to 0.0521
ElecMinimize: Iter:  34  F: -3580.232601408361461  |grad|_K:  3.985e-08  alpha:  4.838e-01  linmin:  9.763e-07  t[s]:   5756.01
	FillingsUpdate:  mu: +0.148552108  nElectrons: 650.000000  magneticMoment: [ Abs: 0.00006  Tot: +0.00004 ]
	SubspaceRotationAdjust: set factor to 0.044
ElecMinimize: Iter:  35  F: -3580.232601579113634  |grad|_K:  3.046e-08  alpha:  3.788e-01  linmin:  1.817e-06  t[s]:   5860.26
	FillingsUpdate:  mu: +0.148557578  nElectrons: 650.000000  magneticMoment: [ Abs: 0.00006  Tot: +0.00004 ]
	SubspaceRotationAdjust: set factor to 0.0478
ElecMinimize: Iter:  36  F: -3580.232601710388735  |grad|_K:  2.232e-08  alpha:  4.981e-01  linmin:  1.958e-06  t[s]:   5965.24
	FillingsUpdate:  mu: +0.148558066  nElectrons: 650.000000  magneticMoment: [ Abs: 0.00006  Tot: +0.00004 ]
	SubspaceRotationAdjust: set factor to 0.0503
ElecMinimize: Iter:  37  F: -3580.232601778292064  |grad|_K:  1.817e-08  alpha:  4.808e-01  linmin: -1.276e-06  t[s]:   6069.32
	FillingsUpdate:  mu: +0.148553960  nElectrons: 650.000000  magneticMoment: [ Abs: 0.00005  Tot: +0.00004 ]
	SubspaceRotationAdjust: set factor to 0.0485
ElecMinimize: Iter:  38  F: -3580.232601817324849  |grad|_K:  1.446e-08  alpha:  4.210e-01  linmin:  5.772e-06  t[s]:   6173.50
ElecMinimize: Converged (|Delta F|<1.000000e-07 for 2 iters).
Setting wave functions to eigenvectors of Hamiltonian
Converging empty states (this may take a while): |deigs|: 2.408e-03
Vacuum energy after initial minimize, F = -3580.232601817324849


-------- Electronic minimization -----------
	Linear fluid (dielectric constant: 78.4, screening length: 8.12261 Bohr) occupying 0.484033 of unit cell:	Completed after 27 iterations at t[s]:   6732.07
	FillingsUpdate:  mu: -0.193280028  nElectrons: 650.000000  magneticMoment: [ Abs: 0.00003  Tot: +0.00002 ]
ElecMinimize: Iter:   0  F: -3580.244092069358885  |grad|_K:  1.068e-06  alpha:  1.000e+00
	Linear fluid (dielectric constant: 78.4, screening length: 8.12261 Bohr) occupying 0.484799 of unit cell:	Completed after 18 iterations at t[s]:   6822.39
	Linear fluid (dielectric constant: 78.4, screening length: 8.12261 Bohr) occupying 0.484671 of unit cell:	Completed after 11 iterations at t[s]:   6854.36
	FillingsUpdate:  mu: -0.191088939  nElectrons: 650.000000  magneticMoment: [ Abs: 0.00002  Tot: +0.00002 ]
	SubspaceRotationAdjust: set factor to 0.0448
ElecMinimize: Iter:   1  F: -3580.244361851414851  |grad|_K:  1.107e-06  alpha:  8.321e-01  linmin: -2.922e-08  t[s]:   6894.38
	Linear fluid (dielectric constant: 78.4, screening length: 8.12261 Bohr) occupying 0.485669 of unit cell:	Completed after 17 iterations at t[s]:   6938.18
	Linear fluid (dielectric constant: 78.4, screening length: 8.12261 Bohr) occupying 0.485306 of unit cell:	Completed after 13 iterations at t[s]:   6970.38
	FillingsUpdate:  mu: -0.190807568  nElectrons: 650.000000  magneticMoment: [ Abs: 0.00002  Tot: +0.00002 ]
	SubspaceRotationAdjust: set factor to 0.0499
ElecMinimize: Iter:   2  F: -3580.244545792695135  |grad|_K:  6.787e-07  alpha:  5.274e-01  linmin:  1.554e-07  t[s]:   7010.78
	Linear fluid (dielectric constant: 78.4, screening length: 8.12261 Bohr) occupying 0.485591 of unit cell:	Completed after 11 iterations at t[s]:   7053.18
	Linear fluid (dielectric constant: 78.4, screening length: 8.12261 Bohr) occupying 0.485630 of unit cell:	Completed after 2 iterations at t[s]:   7082.69
	FillingsUpdate:  mu: -0.190622108  nElectrons: 650.000000  magneticMoment: [ Abs: 0.00002  Tot: +0.00002 ]
	SubspaceRotationAdjust: set factor to 0.0607
ElecMinimize: Iter:   3  F: -3580.244624331204250  |grad|_K:  5.407e-07  alpha:  5.994e-01  linmin: -2.552e-07  t[s]:   7122.93
	Linear fluid (dielectric constant: 78.4, screening length: 8.12261 Bohr) occupying 0.485833 of unit cell:	Completed after 10 iterations at t[s]:   7165.12
	Linear fluid (dielectric constant: 78.4, screening length: 8.12261 Bohr) occupying 0.485860 of unit cell:	Completed after 2 iterations at t[s]:   7194.58
	FillingsUpdate:  mu: -0.190095530  nElectrons: 650.000000  magneticMoment: [ Abs: 0.00002  Tot: +0.00002 ]
	SubspaceRotationAdjust: set factor to 0.0745
ElecMinimize: Iter:   4  F: -3580.244681135055998  |grad|_K:  5.080e-07  alpha:  6.815e-01  linmin: -5.632e-07  t[s]:   7234.90
	Linear fluid (dielectric constant: 78.4, screening length: 8.12261 Bohr) occupying 0.486042 of unit cell:	Completed after 10 iterations at t[s]:   7277.13
	Linear fluid (dielectric constant: 78.4, screening length: 8.12261 Bohr) occupying 0.486070 of unit cell:	Completed after 3 iterations at t[s]:   7307.05
	FillingsUpdate:  mu: -0.189649957  nElectrons: 650.000000  magneticMoment: [ Abs: 0.00002  Tot: +0.00002 ]
	SubspaceRotationAdjust: set factor to 0.089
ElecMinimize: Iter:   5  F: -3580.244739526965077  |grad|_K:  5.033e-07  alpha:  7.911e-01  linmin: -4.120e-07  t[s]:   7347.33
	Linear fluid (dielectric constant: 78.4, screening length: 8.12261 Bohr) occupying 0.486250 of unit cell:	Completed after 12 iterations at t[s]:   7389.84
	Linear fluid (dielectric constant: 78.4, screening length: 8.12261 Bohr) occupying 0.486259 of unit cell:	Completed after 2 iterations at t[s]:   7419.51
	FillingsUpdate:  mu: -0.189209211  nElectrons: 650.000000  magneticMoment: [ Abs: 0.00002  Tot: +0.00002 ]
	SubspaceRotationAdjust: set factor to 0.1
ElecMinimize: Iter:   6  F: -3580.244799616800265  |grad|_K:  4.969e-07  alpha:  8.293e-01  linmin: -2.414e-07  t[s]:   7459.73
	Linear fluid (dielectric constant: 78.4, screening length: 8.12261 Bohr) occupying 0.486413 of unit cell:	Completed after 11 iterations at t[s]:   7501.80
	Linear fluid (dielectric constant: 78.4, screening length: 8.12261 Bohr) occupying 0.486382 of unit cell:	Completed after 6 iterations at t[s]:   7532.57
	FillingsUpdate:  mu: -0.189017624  nElectrons: 650.000000  magneticMoment: [ Abs: 0.00002  Tot: +0.00001 ]
	SubspaceRotationAdjust: set factor to 0.104
ElecMinimize: Iter:   7  F: -3580.244845823302512  |grad|_K:  4.684e-07  alpha:  6.554e-01  linmin: -2.423e-08  t[s]:   7572.80
	Linear fluid (dielectric constant: 78.4, screening length: 8.12261 Bohr) occupying 0.486483 of unit cell:	Completed after 10 iterations at t[s]:   7614.95
	Linear fluid (dielectric constant: 78.4, screening length: 8.12261 Bohr) occupying 0.486457 of unit cell:	Completed after 8 iterations at t[s]:   7645.90
	FillingsUpdate:  mu: -0.188823514  nElectrons: 650.000000  magneticMoment: [ Abs: 0.00002  Tot: +0.00001 ]
	SubspaceRotationAdjust: set factor to 0.0983
ElecMinimize: Iter:   8  F: -3580.244876045888304  |grad|_K:  3.943e-07  alpha:  4.848e-01  linmin: -4.102e-08  t[s]:   7686.38
	Linear fluid (dielectric constant: 78.4, screening length: 8.12261 Bohr) occupying 0.486498 of unit cell:	Completed after 9 iterations at t[s]:   7728.21
	Linear fluid (dielectric constant: 78.4, screening length: 8.12261 Bohr) occupying 0.486496 of unit cell:	Completed after 2 iterations at t[s]:   7757.92
	FillingsUpdate:  mu: -0.188790728  nElectrons: 650.000000  magneticMoment: [ Abs: 0.00001  Tot: +0.00001 ]
	SubspaceRotationAdjust: set factor to 0.0854
ElecMinimize: Iter:   9  F: -3580.244896197465550  |grad|_K:  3.028e-07  alpha:  4.551e-01  linmin:  1.362e-07  t[s]:   7798.22
	Linear fluid (dielectric constant: 78.4, screening length: 8.12261 Bohr) occupying 0.486517 of unit cell:	Completed after 8 iterations at t[s]:   7839.81
	Linear fluid (dielectric constant: 78.4, screening length: 8.12261 Bohr) occupying 0.486518 of unit cell:	Completed after 2 iterations at t[s]:   7869.45
	FillingsUpdate:  mu: -0.188723854  nElectrons: 650.000000  magneticMoment: [ Abs: 0.00001  Tot: +0.00001 ]
	SubspaceRotationAdjust: set factor to 0.0773
ElecMinimize: Iter:  10  F: -3580.244908748499256  |grad|_K:  2.306e-07  alpha:  4.822e-01  linmin: -4.441e-07  t[s]:   7909.69
	Linear fluid (dielectric constant: 78.4, screening length: 8.12261 Bohr) occupying 0.486524 of unit cell:	Completed after 8 iterations at t[s]:   7951.36
	Linear fluid (dielectric constant: 78.4, screening length: 8.12261 Bohr) occupying 0.486524 of unit cell:	Completed after 0 iterations at t[s]:   7980.26
	FillingsUpdate:  mu: -0.188689705  nElectrons: 650.000000  magneticMoment: [ Abs: 0.00001  Tot: +0.00001 ]
	SubspaceRotationAdjust: set factor to 0.085
ElecMinimize: Iter:  11  F: -3580.244915989696892  |grad|_K:  1.763e-07  alpha:  4.750e-01  linmin:  1.988e-07  t[s]:   8020.55
	Linear fluid (dielectric constant: 78.4, screening length: 8.12261 Bohr) occupying 0.486526 of unit cell:	Completed after 2 iterations at t[s]:   8060.83
	Linear fluid (dielectric constant: 78.4, screening length: 8.12261 Bohr) occupying 0.486526 of unit cell:	Completed after 0 iterations at t[s]:   8089.58
	FillingsUpdate:  mu: -0.188677727  nElectrons: 650.000000  magneticMoment: [ Abs: 0.00001  Tot: +0.00001 ]
	SubspaceRotationAdjust: set factor to 0.101
ElecMinimize: Iter:  12  F: -3580.244920342176101  |grad|_K:  1.328e-07  alpha:  4.940e-01  linmin: -8.685e-08  t[s]:   8129.88
	Linear fluid (dielectric constant: 78.4, screening length: 8.12261 Bohr) occupying 0.486527 of unit cell:	Completed after 3 iterations at t[s]:   8170.33
	Linear fluid (dielectric constant: 78.4, screening length: 8.12261 Bohr) occupying 0.486527 of unit cell:	Completed after 0 iterations at t[s]:   8199.06
	FillingsUpdate:  mu: -0.188685766  nElectrons: 650.000000  magneticMoment: [ Abs: 0.00001  Tot: +0.00001 ]
	SubspaceRotationAdjust: set factor to 0.118
ElecMinimize: Iter:  13  F: -3580.244923087454936  |grad|_K:  1.044e-07  alpha:  5.459e-01  linmin: -8.702e-07  t[s]:   8239.43
	Linear fluid (dielectric constant: 78.4, screening length: 8.12261 Bohr) occupying 0.486527 of unit cell:	Completed after 3 iterations at t[s]:   8279.89
	Linear fluid (dielectric constant: 78.4, screening length: 8.12261 Bohr) occupying 0.486527 of unit cell:	Completed after 0 iterations at t[s]:   8308.69
	FillingsUpdate:  mu: -0.188702684  nElectrons: 650.000000  magneticMoment: [ Abs: 0.00001  Tot: +0.00001 ]
	SubspaceRotationAdjust: set factor to 0.141
ElecMinimize: Iter:  14  F: -3580.244924945171988  |grad|_K:  8.512e-08  alpha:  5.929e-01  linmin: -6.666e-07  t[s]:   8349.13
	Linear fluid (dielectric constant: 78.4, screening length: 8.12261 Bohr) occupying 0.486527 of unit cell:	Completed after 3 iterations at t[s]:   8389.57
	Linear fluid (dielectric constant: 78.4, screening length: 8.12261 Bohr) occupying 0.486527 of unit cell:	Completed after 0 iterations at t[s]:   8418.37
	FillingsUpdate:  mu: -0.188719943  nElectrons: 650.000000  magneticMoment: [ Abs: 0.00001  Tot: +0.00001 ]
	SubspaceRotationAdjust: set factor to 0.168
ElecMinimize: Iter:  15  F: -3580.244926162555203  |grad|_K:  6.839e-08  alpha:  5.866e-01  linmin: -5.487e-07  t[s]:   8458.63
	Linear fluid (dielectric constant: 78.4, screening length: 8.12261 Bohr) occupying 0.486528 of unit cell:	Completed after 3 iterations at t[s]:   8499.01
	Linear fluid (dielectric constant: 78.4, screening length: 8.12261 Bohr) occupying 0.486528 of unit cell:	Completed after 0 iterations at t[s]:   8527.88
	FillingsUpdate:  mu: -0.188736857  nElectrons: 650.000000  magneticMoment: [ Abs: 0.00001  Tot: +0.00001 ]
	SubspaceRotationAdjust: set factor to 0.193
ElecMinimize: Iter:  16  F: -3580.244926920556736  |grad|_K:  5.639e-08  alpha:  5.667e-01  linmin:  9.428e-08  t[s]:   8568.17
	Linear fluid (dielectric constant: 78.4, screening length: 8.12261 Bohr) occupying 0.486527 of unit cell:	Completed after 5 iterations at t[s]:   8609.12
	Linear fluid (dielectric constant: 78.4, screening length: 8.12261 Bohr) occupying 0.486527 of unit cell:	Completed after 2 iterations at t[s]:   8638.64
	FillingsUpdate:  mu: -0.188764869  nElectrons: 650.000000  magneticMoment: [ Abs: 0.00001  Tot: +0.00001 ]
	SubspaceRotationAdjust: set factor to 0.165
ElecMinimize: Iter:  17  F: -3580.244927299611390  |grad|_K:  6.076e-08  alpha:  4.217e-01  linmin:  1.743e-06  t[s]:   8678.97
	Linear fluid (dielectric constant: 78.4, screening length: 8.12261 Bohr) occupying 0.486528 of unit cell:	Completed after 7 iterations at t[s]:   8720.38
	Linear fluid (dielectric constant: 78.4, screening length: 8.12261 Bohr) occupying 0.486528 of unit cell:	Completed after 6 iterations at t[s]:   8750.83
	FillingsUpdate:  mu: -0.188769452  nElectrons: 650.000000  magneticMoment: [ Abs: 0.00001  Tot: +0.00001 ]
	SubspaceRotationAdjust: set factor to 0.112
ElecMinimize: Iter:  18  F: -3580.244927486387951  |grad|_K:  4.383e-08  alpha:  1.869e-01  linmin:  3.656e-06  t[s]:   8791.10
	Linear fluid (dielectric constant: 78.4, screening length: 8.12261 Bohr) occupying 0.486528 of unit cell:	Completed after 1 iterations at t[s]:   8831.03
	Linear fluid (dielectric constant: 78.4, screening length: 8.12261 Bohr) occupying 0.486528 of unit cell:	Completed after 1 iterations at t[s]:   8860.22
	FillingsUpdate:  mu: -0.188771564  nElectrons: 650.000000  magneticMoment: [ Abs: 0.00001  Tot: +0.00001 ]
	SubspaceRotationAdjust: set factor to 0.153
ElecMinimize: Iter:  19  F: -3580.244927696651303  |grad|_K:  3.088e-08  alpha:  3.902e-01  linmin: -9.607e-06  t[s]:   8900.65
	Linear fluid (dielectric constant: 78.4, screening length: 8.12261 Bohr) occupying 0.486528 of unit cell:	Completed after 3 iterations at t[s]:   8940.97
	Linear fluid (dielectric constant: 78.4, screening length: 8.12261 Bohr) occupying 0.486528 of unit cell:	Completed after 0 iterations at t[s]:   8970.03
	FillingsUpdate:  mu: -0.188783029  nElectrons: 650.000000  magneticMoment: [ Abs: 0.00001  Tot: +0.00001 ]
	SubspaceRotationAdjust: set factor to 0.136
ElecMinimize: Iter:  20  F: -3580.244927791807640  |grad|_K:  3.224e-08  alpha:  3.494e-01  linmin: -2.680e-05  t[s]:   9010.28
	Linear fluid (dielectric constant: 78.4, screening length: 8.12261 Bohr) occupying 0.486528 of unit cell:	Completed after 2 iterations at t[s]:   9050.46
	Linear fluid (dielectric constant: 78.4, screening length: 8.12261 Bohr) occupying 0.486528 of unit cell:	Completed after 1 iterations at t[s]:   9079.81
	FillingsUpdate:  mu: -0.188782736  nElectrons: 650.000000  magneticMoment: [ Abs: 0.00001  Tot: +0.00001 ]
	SubspaceRotationAdjust: set factor to 0.113
ElecMinimize: Iter:  21  F: -3580.244927857322182  |grad|_K:  2.285e-08  alpha:  2.261e-01  linmin:  8.707e-05  t[s]:   9120.11
ElecMinimize: Converged (|Delta F|<1.000000e-07 for 2 iters).
Setting wave functions to eigenvectors of Hamiltonian
Converging empty states (this may take a while): |deigs|: 1.317e-04
Single-point solvation energy estimate, DeltaF = -0.012326039997333

Computing DFT-D3 correction:
# coordination-number Pt 9.350 8.553 8.556 8.554 9.301 9.301 9.303 9.301 9.357 9.357 9.357 9.357 7.000 7.000 7.000 7.000 5.347 5.376 5.557 6.252 9.369 9.362 9.361 9.361 9.299 9.299 9.299 9.299 8.550 8.550 8.550 8.550 5.347 5.347 5.347 5.347 7.075 7.011 8.067 7.006
# coordination-number C 3.927
# coordination-number O 1.188
# diagonal-C6 Pt 336.87 336.87 336.87 336.87 336.87 336.87 336.87 336.87 336.87 336.87 336.87 336.87 336.87 336.87 336.87 336.87 336.87 336.87 336.87 336.87 336.87 336.87 336.87 336.87 336.87 336.87 336.87 336.87 336.87 336.87 336.87 336.87 336.87 336.87 336.87 336.87 336.87 336.87 336.87 336.87
# diagonal-C6 C 18.42
# diagonal-C6 O 12.61
EvdW_6 =   -0.305001
EvdW_8 =   -0.520609

# Ionic positions in cartesian coordinates:
ion Pt   3.704685000000000   1.822566000000000  12.573157000000000 0
ion Pt   0.005105000000001  10.095076999999998  12.573157000000000 0
ion Pt  11.103842999999998   1.822566000000000  12.573157000000000 0
ion Pt   7.404264000000001  10.095076999999998  12.573157000000000 0
ion Pt  -0.001050999999999   3.273664000000000   9.137368000000000 0
ion Pt  -3.700629999999999  11.546173999999999   9.137368000000000 0
ion Pt   7.398107999999999   3.273664000000000   9.137368000000000 0
ion Pt   3.698529000000002  11.546173999999999   9.137368000000000 0
ion Pt   3.697034000000000   4.963307999999999   5.876891000000000 0
ion Pt  -0.002545000000000  13.235818000000000   5.876891000000000 0
ion Pt  11.096191999999999   4.963307999999999   5.876891000000000 0
ion Pt   7.396613000000001  13.235818000000000   5.876891000000000 0
ion Pt  -0.005535000000000   6.538525999999999   2.275817000000000 0
ion Pt  -3.705113999999998  14.811036999999999   2.275817000000000 0
ion Pt   7.393623999999998   6.538525999999999   2.275817000000000 0
ion Pt   3.694045000000000  14.811036999999999   2.275817000000000 0
ion Pt  -3.696790000000000   8.273420000000000  15.437099999999996 0
ion Pt   0.002789000000000   0.000910000000000  15.437099999999996 0
ion Pt   3.702368999999999   8.273420000000000  15.437099999999996 0
ion Pt   7.401947999999999   0.000910000000000  15.437099999999996 0
ion Pt   3.702198000000001   6.619000999999999  10.667418999999999 0
ion Pt   0.002612000000002  14.891494999999999  10.667418999999999 0
ion Pt  11.101342000000001   6.619000999999999  10.667418999999999 0
ion Pt   7.401770000000000  14.891494999999999  10.667418999999999 0
ion Pt   3.700711000000000   0.034761000000000   7.409074999999999 0
ion Pt   0.001132000000001   8.307271999999999   7.409074999999999 0
ion Pt  11.099869999999996   0.034761000000000   7.409074999999999 0
ion Pt   7.400290000000000   8.307271999999999   7.409074999999999 0
ion Pt  -0.004987000000000   1.486173000000000   3.972789999999999 0
ion Pt  -3.704565999999998   9.758682999999998   3.972789999999999 0
ion Pt   7.394171000000000   1.486173000000000   3.972789999999999 0
ion Pt   3.694592000000002   9.758682999999998   3.972789999999999 0
ion Pt   3.696723000000000   3.307713999999999   1.109493000000000 0
ion Pt  -0.002870999999999  11.580223999999999   1.109493000000000 0
ion Pt  11.095866999999998   3.307713999999999   1.109493000000000 0
ion Pt   7.396302000000000  11.580223999999999   1.109493000000000 0
ion Pt   0.005350000000000   5.043435000000000  14.266009999999996 0
ion Pt  -3.694243999999999  13.315945999999999  14.266009999999996 0
ion Pt   7.404493000000000   5.043435000000000  14.266009999999996 0
ion Pt   3.704914000000001  13.315945999999999  14.266009999999996 0
ion C   4.937258999999999   3.362593000000000  16.450399999999998 1  Linear 0 0 1
ion O   4.997355000000000   3.362593000000000  18.605753000000000 1  Linear 0 0 1

# Forces in Cartesian coordinates:
force Pt  -0.012102136423866  -0.002375066105210   0.004162881935714 0
force Pt  -0.000711803041267   0.000649456941681   0.000930578245616 0
force Pt   0.003982368748591  -0.001024460298550  -0.002913193282575 0
force Pt   0.001191608501292   0.002188690458352  -0.001419453560072 0
force Pt   0.000661458409896   0.001094668151753  -0.001515238079293 0
force Pt   0.001106383815046  -0.000541345307922  -0.000088571631851 0
force Pt   0.003221426970850   0.000867698060074  -0.005248208573483 0
force Pt   0.000976661102393   0.000565082047963  -0.000622108783187 0
force Pt   0.000728756179087  -0.000320119587252   0.000387096595075 0
force Pt   0.000375231787868  -0.000998406952655  -0.000886559568411 0
force Pt   0.000574309549988  -0.000443748644451   0.000870127915975 0
force Pt   0.000191356511745  -0.000887766390406  -0.000467773399904 0
force Pt   0.000406449858146   0.000177980807726   0.000826095680890 0
force Pt   0.000174790371807  -0.000038991242584   0.000380884511783 0
force Pt  -0.000308848924050  -0.000134171101324   0.000439972286351 0
force Pt   0.000234482943094  -0.000049248965104   0.000594075987061 0
force Pt   0.001820407512247   0.001138507906429  -0.000828378578890 0
force Pt  -0.005994868564645  -0.004364216310586   0.001132715584341 0
force Pt  -0.005959486708247   0.010760993887954  -0.001978702609028 0
force Pt   0.008155106893179  -0.017443481359375  -0.002238530157299 0
force Pt  -0.002100830362147   0.003807244083607  -0.005025208900776 0
force Pt   0.001593201239168  -0.001342874715356  -0.000636777010844 0
force Pt  -0.001407847465087  -0.001187638315318   0.000773325822174 0
force Pt  -0.000348737618632   0.000196721165602  -0.001117492985427 0
force Pt  -0.000724138421933   0.000259979128567   0.004648014746155 0
force Pt  -0.000415643928721   0.001471790614186  -0.000768990646963 0
force Pt  -0.001636924997479  -0.000101560812289   0.001200123576543 0
force Pt  -0.001521512307568  -0.000026848032046   0.000381344115605 0
force Pt   0.000121832943649   0.000040229450429   0.000193509386053 0
force Pt   0.000483424741225   0.000051354089782  -0.000072432558314 0
force Pt   0.000289426080489   0.000260005481748  -0.000884047134219 0
force Pt   0.000710714310574  -0.000030874432899  -0.000943648351280 0
force Pt  -0.000154588685572   0.000223168328832  -0.000722257252334 0
force Pt  -0.000148944734386   0.000048344946045  -0.000212243358156 0
force Pt   0.000074078406568   0.000368103304197  -0.000708750776709 0
force Pt   0.000175692247422   0.000341130916248  -0.000006222749604 0
force Pt  -0.006311135661490   0.002034372793110   0.000361613069646 0
force Pt  -0.002140732362228  -0.004693039004351  -0.000926346929847 0
force Pt   0.016985003158434   0.018015971070798  -0.011356361277442 0
force Pt   0.000225211171482   0.000500782041951   0.000499823499925 0
force C   0.023525791251766  -0.003920719847965  -0.091046748194763 1  Linear 0 0 1
force O  -0.025929710004731  -0.005028337187234   0.115853767419466 1  Linear 0 0 1

# Energy components:
   A_diel =       -0.0133008340640180
   Eewald =    16539.3232314871966082
       EH =    19791.4935128748766147
     Eloc =   -40537.0762494723749114
      Enl =      -38.9055459262769219
     EvdW =       -0.8256097889233636
      Exc =    -1143.0977045681640902
 Exc_core =      655.7540204883956676
       KE =     1153.1080374964940347
-------------------------------------
     Etot =    -3580.2396082428367663
       TS =        0.0053196144855510
-------------------------------------
        F =    -3580.2449278573221818


Dumping 'jdft.fillings' ... done
Dumping 'jdft.wfns' ... done
Dumping 'jdft.fluidState' ... done
Dumping 'jdft.ionpos' ... done
Dumping 'jdft.lattice' ... done
Dumping 'jdft.eigenvals' ... done
Dumping 'jdft.eigStats' ... 
	eMin: -2.143649 at state 0 ( [ +0.000000 +0.000000 +0.000000 ] spin 1 )
	HOMO: -0.188922 at state 12 ( [ +0.500000 +0.000000 +0.000000 ] spin -1 )
	mu  : -0.188783
	LUMO: -0.188784 at state 4 ( [ +0.250000 -0.333333 +0.000000 ] spin 1 )
	eMax: +0.090515 at state 8 ( [ +0.000000 +0.333333 +0.000000 ] spin -1 )
	HOMO-LUMO gap: +0.000138
	Optical gap  : +0.000512 at state 7 ( [ +0.000000 +0.000000 +0.000000 ] spin -1 )
Dumping 'jdft.Ecomponents' ... done
IonicMinimize: Iter:   0  F: -3580.244927857322182  |grad|_K:  1.042e-01  t[s]:   9751.78

#--- Lowdin population analysis ---
# oxidation-state Pt -0.059 -0.039 -0.043 -0.043 +0.006 +0.009 +0.001 +0.009 -0.004 -0.004 -0.003 -0.003 -0.020 -0.020 -0.021 -0.021 +0.111 +0.094 +0.076 +0.042 -0.000 -0.004 -0.019 -0.005 +0.005 +0.006 +0.009 +0.009 -0.040 -0.039 -0.041 -0.039 +0.115 +0.114 +0.114 +0.115 -0.041 -0.014 -0.054 -0.029
# magnetic-moments Pt +0.000 +0.000 +0.000 +0.000 +0.000 +0.000 +0.000 +0.000 +0.000 +0.000 +0.000 +0.000 +0.000 +0.000 +0.000 +0.000 +0.000 +0.000 +0.000 +0.000 +0.000 +0.000 +0.000 +0.000 +0.000 +0.000 +0.000 +0.000 +0.000 +0.000 +0.000 +0.000 +0.000 +0.000 +0.000 +0.000 +0.000 +0.000 +0.000 +0.000
# oxidation-state C +0.424
# magnetic-moments C -0.000
# oxidation-state O -0.113
# magnetic-moments O +0.000


Computing DFT-D3 correction:
# coordination-number Pt 9.392 8.553 8.556 8.554 9.301 9.301 9.303 9.301 9.357 9.357 9.357 9.357 7.000 7.000 7.000 7.000 5.347 5.377 5.562 6.252 9.369 9.362 9.361 9.361 9.299 9.299 9.299 9.299 8.550 8.550 8.550 8.550 5.347 5.347 5.347 5.347 7.079 7.012 8.056 7.006
# coordination-number C 3.997
# coordination-number O 1.160
# diagonal-C6 Pt 336.87 336.87 336.87 336.87 336.87 336.87 336.87 336.87 336.87 336.87 336.87 336.87 336.87 336.87 336.87 336.87 336.87 336.87 336.87 336.87 336.87 336.87 336.87 336.87 336.87 336.87 336.87 336.87 336.87 336.87 336.87 336.87 336.87 336.87 336.87 336.87 336.87 336.87 336.87 336.87
# diagonal-C6 C 18.33
# diagonal-C6 O 12.65
EvdW_6 =   -0.304993
EvdW_8 =   -0.520627

-------- Electronic minimization -----------
	Linear fluid (dielectric constant: 78.4, screening length: 8.12261 Bohr) occupying 0.486444 of unit cell:	Completed after 21 iterations at t[s]:   9798.49
	FillingsUpdate:  mu: -0.186683502  nElectrons: 650.000000  magneticMoment: [ Abs: 0.00000  Tot: +0.00000 ]
ElecMinimize: Iter:   0  F: -3580.130721923836973  |grad|_K:  3.165e-05  alpha:  1.000e+00
	Linear fluid (dielectric constant: 78.4, screening length: 8.12261 Bohr) occupying 0.486457 of unit cell:	Completed after 23 iterations at t[s]:   9890.15
	Linear fluid (dielectric constant: 78.4, screening length: 8.12261 Bohr) occupying 0.486362 of unit cell:	Completed after 22 iterations at t[s]:   9924.35
	FillingsUpdate:  mu: -0.187360607  nElectrons: 650.000000  magneticMoment: [ Abs: 0.00000  Tot: +0.00000 ]
	SubspaceRotationAdjust: set factor to 0.115
ElecMinimize: Iter:   1  F: -3580.235205011526887  |grad|_K:  9.315e-06  alpha:  3.768e-01  linmin:  7.074e-03  t[s]:   9964.75
	Linear fluid (dielectric constant: 78.4, screening length: 8.12261 Bohr) occupying 0.486291 of unit cell:	Completed after 18 iterations at t[s]:  10008.79
	Linear fluid (dielectric constant: 78.4, screening length: 8.12261 Bohr) occupying 0.486299 of unit cell:	Completed after 10 iterations at t[s]:  10040.26
	FillingsUpdate:  mu: -0.189515996  nElectrons: 650.000000  magneticMoment: [ Abs: 0.00000  Tot: +0.00000 ]
	SubspaceRotationAdjust: set factor to 0.118
ElecMinimize: Iter:   2  F: -3580.242869292083924  |grad|_K:  4.019e-06  alpha:  3.182e-01  linmin: -2.007e-04  t[s]:  10080.65
	Linear fluid (dielectric constant: 78.4, screening length: 8.12261 Bohr) occupying 0.486248 of unit cell:	Completed after 13 iterations at t[s]:  10123.84
	Linear fluid (dielectric constant: 78.4, screening length: 8.12261 Bohr) occupying 0.486230 of unit cell:	Completed after 12 iterations at t[s]:  10155.82
	FillingsUpdate:  mu: -0.189633958  nElectrons: 650.000000  magneticMoment: [ Abs: 0.00000  Tot: +0.00000 ]
	SubspaceRotationAdjust: set factor to 0.12
ElecMinimize: Iter:   3  F: -3580.244925936914569  |grad|_K:  2.886e-06  alpha:  4.469e-01  linmin: -5.224e-06  t[s]:  10195.94
	Linear fluid (dielectric constant: 78.4, screening length: 8.12261 Bohr) occupying 0.486212 of unit cell:	Completed after 16 iterations at t[s]:  10239.32
	Linear fluid (dielectric constant: 78.4, screening length: 8.12261 Bohr) occupying 0.486211 of unit cell:	Completed after 10 iterations at t[s]:  10270.93
	FillingsUpdate:  mu: -0.190305930  nElectrons: 650.000000  magneticMoment: [ Abs: 0.00000  Tot: +0.00000 ]
	SubspaceRotationAdjust: set factor to 0.102
ElecMinimize: Iter:   4  F: -3580.245742687412985  |grad|_K:  2.410e-06  alpha:  3.446e-01  linmin:  2.128e-07  t[s]:  10311.52
	Linear fluid (dielectric constant: 78.4, screening length: 8.12261 Bohr) occupying 0.486145 of unit cell:	Completed after 16 iterations at t[s]:  10355.15
	Linear fluid (dielectric constant: 78.4, screening length: 8.12261 Bohr) occupying 0.486123 of unit cell:	Completed after 12 iterations at t[s]:  10386.96
	FillingsUpdate:  mu: -0.191533511  nElectrons: 650.000000  magneticMoment: [ Abs: 0.00000  Tot: +0.00000 ]
	SubspaceRotationAdjust: set factor to 0.111
ElecMinimize: Iter:   5  F: -3580.246509561918174  |grad|_K:  1.912e-06  alpha:  4.645e-01  linmin:  2.768e-05  t[s]:  10427.45
	Linear fluid (dielectric constant: 78.4, screening length: 8.12261 Bohr) occupying 0.486110 of unit cell:	Completed after 12 iterations at t[s]:  10470.08
	Linear fluid (dielectric constant: 78.4, screening length: 8.12261 Bohr) occupying 0.486103 of unit cell:	Completed after 12 iterations at t[s]:  10501.96
	FillingsUpdate:  mu: -0.190745449  nElectrons: 650.000000  magneticMoment: [ Abs: 0.00000  Tot: +0.00000 ]
	SubspaceRotationAdjust: set factor to 0.129
ElecMinimize: Iter:   6  F: -3580.247271022125915  |grad|_K:  1.677e-06  alpha:  7.352e-01  linmin:  5.172e-05  t[s]:  10542.44
	Linear fluid (dielectric constant: 78.4, screening length: 8.12261 Bohr) occupying 0.486149 of unit cell:	Completed after 16 iterations at t[s]:  10586.06
	Linear fluid (dielectric constant: 78.4, screening length: 8.12261 Bohr) occupying 0.486146 of unit cell:	Completed after 6 iterations at t[s]:  10616.46
	FillingsUpdate:  mu: -0.192942153  nElectrons: 650.000000  magneticMoment: [ Abs: 0.00000  Tot: +0.00000 ]
	SubspaceRotationAdjust: set factor to 0.137
ElecMinimize: Iter:   7  F: -3580.247813718379348  |grad|_K:  1.631e-06  alpha:  6.814e-01  linmin:  2.200e-05  t[s]:  10656.86
	Linear fluid (dielectric constant: 78.4, screening length: 8.12261 Bohr) occupying 0.486263 of unit cell:	Completed after 17 iterations at t[s]:  10700.87
	Linear fluid (dielectric constant: 78.4, screening length: 8.12261 Bohr) occupying 0.486230 of unit cell:	Completed after 12 iterations at t[s]:  10732.72
	FillingsUpdate:  mu: -0.190166242  nElectrons: 650.000000  magneticMoment: [ Abs: 0.00000  Tot: +0.00000 ]
	SubspaceRotationAdjust: set factor to 0.125
ElecMinimize: Iter:   8  F: -3580.248178709005060  |grad|_K:  1.344e-06  alpha:  4.826e-01  linmin:  2.271e-06  t[s]:  10773.09
	Linear fluid (dielectric constant: 78.4, screening length: 8.12261 Bohr) occupying 0.486329 of unit cell:	Completed after 17 iterations at t[s]:  10817.20
	Linear fluid (dielectric constant: 78.4, screening length: 8.12261 Bohr) occupying 0.486320 of unit cell:	Completed after 8 iterations at t[s]:  10848.03
	FillingsUpdate:  mu: -0.191939601  nElectrons: 650.000000  magneticMoment: [ Abs: 0.00000  Tot: +0.00000 ]
[...]
force Pt  -0.002642036643722  -0.001302145678467   0.001823059411311 0
force Pt  -0.000332210537090   0.000266059511615  -0.001002510848549 0
force Pt  -0.000722148746756   0.000106393777209   0.003174401901949 0
force Pt  -0.001014568842386   0.000905351252014  -0.000471491979310 0
force Pt  -0.001695664062571   0.000113589005275   0.001136974724025 0
force Pt  -0.001420528313617  -0.000018642856626   0.000231825728819 0
force Pt  -0.000005132391736  -0.000139195545321   0.000193803267827 0
force Pt   0.000358136400815   0.000046507753075  -0.000063230210070 0
force Pt   0.000244104203221   0.000158958271689  -0.000696953188139 0
force Pt   0.000703391605819  -0.000129992636808  -0.000868317126308 0
force Pt  -0.000191463255686   0.000226378310033  -0.000628233279329 0
force Pt  -0.000326555657444   0.000120456936402  -0.000316540130592 0
force Pt   0.000112088762271   0.000402990208984  -0.000799512511064 0
force Pt   0.000464639238282   0.000497496555314   0.000106241024498 0
force Pt  -0.004854971288076   0.000668240869456   0.000355659747437 0
force Pt  -0.002085087902556  -0.004231481599987  -0.001079499641257 0
force Pt  -0.001152723593017   0.002964968176655   0.010235207974357 0
force Pt  -0.000391814234308   0.000987607841502   0.001143517785912 0
force C   0.040484848105921   0.002652990599170   0.000258892538982 1  Linear 0 0 1
force O  -0.018905418230504  -0.000947256628332  -0.000080056575322 1  Linear 0 0 1

# Energy components:
   A_diel =       -0.0132356936968925
   Eewald =    16496.3106606871770055
       EH =    19748.0781730982162117
     Eloc =   -40450.4104250529999263
      Enl =      -38.9609519192382692
     EvdW =       -0.8259215163402214
      Exc =    -1142.9790816757044922
 Exc_core =      655.7540176139586947
       KE =     1152.7980011990675848
-------------------------------------
     Etot =    -3580.2487632595584728
       TS =        0.0053148715715823
-------------------------------------
        F =    -3580.2540781311299725


Dumping 'jdft.fillings' ... done
Dumping 'jdft.wfns' ... done
Dumping 'jdft.fluidState' ... done
Dumping 'jdft.ionpos' ... done
Dumping 'jdft.lattice' ... done
Dumping 'jdft.eigenvals' ... done
Dumping 'jdft.eigStats' ... 
	eMin: -2.139594 at state 0 ( [ +0.000000 +0.000000 +0.000000 ] spin 1 )
	HOMO: -0.189667 at state 4 ( [ +0.250000 -0.333333 +0.000000 ] spin 1 )
	mu  : -0.189530
	LUMO: -0.189445 at state 5 ( [ +0.500000 +0.000000 +0.000000 ] spin 1 )
	eMax: +0.090404 at state 8 ( [ +0.000000 +0.333333 +0.000000 ] spin -1 )
	HOMO-LUMO gap: +0.000222
	Optical gap  : +0.000441 at state 0 ( [ +0.000000 +0.000000 +0.000000 ] spin 1 )
Dumping 'jdft.Ecomponents' ... done
IonicMinimize: Iter:  10  F: -3580.254078131129972  |grad|_K:  1.916e-04  alpha:  1.000e+00  linmin:  1.737e-03  t[s]:  37292.55

#--- Lowdin population analysis ---
# oxidation-state Pt -0.057 -0.038 -0.041 -0.042 +0.007 +0.008 +0.002 +0.009 -0.003 -0.004 -0.003 -0.003 -0.019 -0.018 -0.020 -0.019 +0.116 +0.093 +0.077 +0.037 +0.001 -0.006 -0.015 -0.006 +0.009 +0.005 +0.010 +0.008 -0.038 -0.039 -0.040 -0.039 +0.117 +0.117 +0.116 +0.116 -0.038 -0.014 -0.070 -0.025
# magnetic-moments Pt +0.000 +0.000 +0.000 +0.000 +0.000 +0.000 +0.000 +0.000 -0.000 +0.000 -0.000 +0.000 -0.000 +0.000 -0.000 +0.000 -0.000 +0.000 -0.000 +0.000 -0.000 +0.000 +0.000 +0.000 +0.000 +0.000 +0.000 +0.000 -0.000 +0.000 -0.000 +0.000 -0.000 -0.000 +0.000 +0.000 -0.000 +0.000 -0.000 -0.000
# oxidation-state C +0.420
# magnetic-moments C -0.000
# oxidation-state O -0.137
# magnetic-moments O -0.000


Computing DFT-D3 correction:
# coordination-number Pt 9.056 8.553 8.555 8.553 9.301 9.301 9.302 9.301 9.357 9.357 9.357 9.357 7.000 7.000 7.000 7.000 5.347 5.371 5.513 6.138 9.365 9.361 9.361 9.361 9.299 9.299 9.299 9.299 8.550 8.550 8.550 8.550 5.347 5.347 5.347 5.347 7.054 7.010 7.991 7.006
# coordination-number C 3.464
# coordination-number O 1.089
# diagonal-C6 Pt 336.87 336.87 336.87 336.87 336.87 336.87 336.87 336.87 336.87 336.87 336.87 336.87 336.87 336.87 336.87 336.87 336.87 336.87 336.87 336.87 336.87 336.87 336.87 336.87 336.87 336.87 336.87 336.87 336.87 336.87 336.87 336.87 336.87 336.87 336.87 336.87 336.87 336.87 336.87 336.87
# diagonal-C6 C 22.18
# diagonal-C6 O 12.74
EvdW_6 =   -0.305250
EvdW_8 =   -0.520681

-------- Electronic minimization -----------
	Linear fluid (dielectric constant: 78.4, screening length: 8.12261 Bohr) occupying 0.484025 of unit cell:	Completed after 9 iterations at t[s]:  37341.57
	FillingsUpdate:  mu: -0.189216187  nElectrons: 650.000000  magneticMoment: [ Abs: 0.00000  Tot: -0.00000 ]
ElecMinimize: Iter:   0  F: -3580.254074374814991  |grad|_K:  2.263e-07  alpha:  1.000e+00
	Linear fluid (dielectric constant: 78.4, screening length: 8.12261 Bohr) occupying 0.484025 of unit cell:	Completed after 15 iterations at t[s]:  37431.16
	Linear fluid (dielectric constant: 78.4, screening length: 8.12261 Bohr) occupying 0.484025 of unit cell:	Completed after 14 iterations at t[s]:  37463.70
	FillingsUpdate:  mu: -0.189605588  nElectrons: 650.000000  magneticMoment: [ Abs: 0.00000  Tot: -0.00000 ]
	SubspaceRotationAdjust: set factor to 0.101
ElecMinimize: Iter:   1  F: -3580.254076858187545  |grad|_K:  7.880e-08  alpha:  1.707e-01  linmin:  1.811e-04  t[s]:  37503.96
	Linear fluid (dielectric constant: 78.4, screening length: 8.12261 Bohr) occupying 0.484025 of unit cell:	Completed after 2 iterations at t[s]:  37544.27
	Linear fluid (dielectric constant: 78.4, screening length: 8.12261 Bohr) occupying 0.484025 of unit cell:	Completed after 2 iterations at t[s]:  37573.92
	FillingsUpdate:  mu: -0.189555164  nElectrons: 650.000000  magneticMoment: [ Abs: 0.00000  Tot: -0.00000 ]
	SubspaceRotationAdjust: set factor to 0.112
ElecMinimize: Iter:   2  F: -3580.254077470864559  |grad|_K:  4.132e-08  alpha:  3.446e-01  linmin: -1.327e-03  t[s]:  37614.07
	Linear fluid (dielectric constant: 78.4, screening length: 8.12261 Bohr) occupying 0.484026 of unit cell:	Completed after 3 iterations at t[s]:  37654.38
	Linear fluid (dielectric constant: 78.4, screening length: 8.12261 Bohr) occupying 0.484026 of unit cell:	Completed after 0 iterations at t[s]:  37683.26
	FillingsUpdate:  mu: -0.189518805  nElectrons: 650.000000  magneticMoment: [ Abs: 0.00000  Tot: -0.00000 ]
	SubspaceRotationAdjust: set factor to 0.126
ElecMinimize: Iter:   3  F: -3580.254077664577835  |grad|_K:  2.927e-08  alpha:  3.877e-01  linmin: -3.786e-03  t[s]:  37723.60
	Linear fluid (dielectric constant: 78.4, screening length: 8.12261 Bohr) occupying 0.484027 of unit cell:	Completed after 2 iterations at t[s]:  37763.76
	Linear fluid (dielectric constant: 78.4, screening length: 8.12261 Bohr) occupying 0.484027 of unit cell:	Completed after 2 iterations at t[s]:  37793.34
	FillingsUpdate:  mu: -0.189538810  nElectrons: 650.000000  magneticMoment: [ Abs: 0.00000  Tot: -0.00000 ]
	SubspaceRotationAdjust: set factor to 0.151
ElecMinimize: Iter:   4  F: -3580.254077845755546  |grad|_K:  3.325e-08  alpha:  6.908e-01  linmin: -6.081e-05  t[s]:  37833.83
	Linear fluid (dielectric constant: 78.4, screening length: 8.12261 Bohr) occupying 0.484027 of unit cell:	Completed after 2 iterations at t[s]:  37874.21
	Linear fluid (dielectric constant: 78.4, screening length: 8.12261 Bohr) occupying 0.484027 of unit cell:	Completed after 1 iterations at t[s]:  37903.52
	FillingsUpdate:  mu: -0.189528925  nElectrons: 650.000000  magneticMoment: [ Abs: 0.00000  Tot: -0.00000 ]
	SubspaceRotationAdjust: set factor to 0.149
ElecMinimize: Iter:   5  F: -3580.254078003277300  |grad|_K:  4.007e-08  alpha:  5.041e-01  linmin:  5.916e-04  t[s]:  37943.77
	Linear fluid (dielectric constant: 78.4, screening length: 8.12261 Bohr) occupying 0.484028 of unit cell:	Completed after 2 iterations at t[s]:  37983.89
	Linear fluid (dielectric constant: 78.4, screening length: 8.12261 Bohr) occupying 0.484028 of unit cell:	Completed after 1 iterations at t[s]:  38013.23
	FillingsUpdate:  mu: -0.189499578  nElectrons: 650.000000  magneticMoment: [ Abs: 0.00000  Tot: -0.00000 ]
	SubspaceRotationAdjust: set factor to 0.132
ElecMinimize: Iter:   6  F: -3580.254078163328359  |grad|_K:  3.610e-08  alpha:  3.733e-01  linmin:  3.715e-04  t[s]:  38053.78
	Linear fluid (dielectric constant: 78.4, screening length: 8.12261 Bohr) occupying 0.484027 of unit cell:	Completed after 2 iterations at t[s]:  38093.97
	Linear fluid (dielectric constant: 78.4, screening length: 8.12261 Bohr) occupying 0.484028 of unit cell:	Completed after 0 iterations at t[s]:  38122.86
	FillingsUpdate:  mu: -0.189527580  nElectrons: 650.000000  magneticMoment: [ Abs: 0.00000  Tot: -0.00000 ]
	SubspaceRotationAdjust: set factor to 0.129
ElecMinimize: Iter:   7  F: -3580.254078288166511  |grad|_K:  2.421e-08  alpha:  3.502e-01  linmin: -1.936e-04  t[s]:  38163.29
	Linear fluid (dielectric constant: 78.4, screening length: 8.12261 Bohr) occupying 0.484027 of unit cell:	Completed after 2 iterations at t[s]:  38203.73
	Linear fluid (dielectric constant: 78.4, screening length: 8.12261 Bohr) occupying 0.484027 of unit cell:	Completed after 0 iterations at t[s]:  38232.36
	FillingsUpdate:  mu: -0.189527318  nElectrons: 650.000000  magneticMoment: [ Abs: 0.00000  Tot: -0.00000 ]
	SubspaceRotationAdjust: set factor to 0.146
ElecMinimize: Iter:   8  F: -3580.254078367739567  |grad|_K:  1.789e-08  alpha:  4.629e-01  linmin: -1.194e-03  t[s]:  38272.82
	Linear fluid (dielectric constant: 78.4, screening length: 8.12261 Bohr) occupying 0.484026 of unit cell:	Completed after 2 iterations at t[s]:  38313.00
	Linear fluid (dielectric constant: 78.4, screening length: 8.12261 Bohr) occupying 0.484026 of unit cell:	Completed after 0 iterations at t[s]:  38341.81
	FillingsUpdate:  mu: -0.189507880  nElectrons: 650.000000  magneticMoment: [ Abs: 0.00000  Tot: -0.00000 ]
	SubspaceRotationAdjust: set factor to 0.13
ElecMinimize: Iter:   9  F: -3580.254078405603195  |grad|_K:  1.684e-08  alpha:  3.932e-01  linmin:  2.444e-04  t[s]:  38382.94
ElecMinimize: Converged (|Delta F|<1.000000e-07 for 2 iters).
Setting wave functions to eigenvectors of Hamiltonian
Converging empty states (this may take a while): |deigs|: 6.127e-10

Computing DFT-D3 correction:
# coordination-number Pt 9.056 8.553 8.555 8.553 9.301 9.301 9.302 9.301 9.357 9.357 9.357 9.357 7.000 7.000 7.000 7.000 5.347 5.371 5.513 6.138 9.365 9.361 9.361 9.361 9.299 9.299 9.299 9.299 8.550 8.550 8.550 8.550 5.347 5.347 5.347 5.347 7.054 7.010 7.991 7.006
# coordination-number C 3.464
# coordination-number O 1.089
# diagonal-C6 Pt 336.87 336.87 336.87 336.87 336.87 336.87 336.87 336.87 336.87 336.87 336.87 336.87 336.87 336.87 336.87 336.87 336.87 336.87 336.87 336.87 336.87 336.87 336.87 336.87 336.87 336.87 336.87 336.87 336.87 336.87 336.87 336.87 336.87 336.87 336.87 336.87 336.87 336.87 336.87 336.87
# diagonal-C6 C 22.18
# diagonal-C6 O 12.74
EvdW_6 =   -0.305250
EvdW_8 =   -0.520681

# Ionic positions in cartesian coordinates:
ion Pt   3.704685000000000   1.822566000000000  12.573157000000000 0
ion Pt   0.005105000000001  10.095076999999998  12.573157000000000 0
ion Pt  11.103842999999998   1.822566000000000  12.573157000000000 0
ion Pt   7.404264000000001  10.095076999999998  12.573157000000000 0
ion Pt  -0.001050999999999   3.273664000000000   9.137368000000000 0
ion Pt  -3.700629999999999  11.546173999999999   9.137368000000000 0
ion Pt   7.398107999999999   3.273664000000000   9.137368000000000 0
ion Pt   3.698529000000002  11.546173999999999   9.137368000000000 0
ion Pt   3.697034000000000   4.963307999999999   5.876891000000000 0
ion Pt  -0.002545000000000  13.235818000000000   5.876891000000000 0
ion Pt  11.096191999999999   4.963307999999999   5.876891000000000 0
ion Pt   7.396613000000001  13.235818000000000   5.876891000000000 0
ion Pt  -0.005535000000000   6.538525999999999   2.275817000000000 0
ion Pt  -3.705113999999998  14.811036999999999   2.275817000000000 0
ion Pt   7.393623999999998   6.538525999999999   2.275817000000000 0
ion Pt   3.694045000000000  14.811036999999999   2.275817000000000 0
ion Pt  -3.696790000000000   8.273420000000000  15.437099999999996 0
ion Pt   0.002789000000000   0.000910000000000  15.437099999999996 0
ion Pt   3.702368999999999   8.273420000000000  15.437099999999996 0
ion Pt   7.401947999999999   0.000910000000000  15.437099999999996 0
ion Pt   3.702198000000001   6.619000999999999  10.667418999999999 0
ion Pt   0.002612000000002  14.891494999999999  10.667418999999999 0
ion Pt  11.101342000000001   6.619000999999999  10.667418999999999 0
ion Pt   7.401770000000000  14.891494999999999  10.667418999999999 0
ion Pt   3.700711000000000   0.034761000000000   7.409074999999999 0
ion Pt   0.001132000000001   8.307271999999999   7.409074999999999 0
ion Pt  11.099869999999996   0.034761000000000   7.409074999999999 0
ion Pt   7.400290000000000   8.307271999999999   7.409074999999999 0
ion Pt  -0.004987000000000   1.486173000000000   3.972789999999999 0
ion Pt  -3.704565999999998   9.758682999999998   3.972789999999999 0
ion Pt   7.394171000000000   1.486173000000000   3.972789999999999 0
ion Pt   3.694592000000002   9.758682999999998   3.972789999999999 0
ion Pt   3.696723000000000   3.307713999999999   1.109493000000000 0
ion Pt  -0.002870999999999  11.580223999999999   1.109493000000000 0
ion Pt  11.095866999999998   3.307713999999999   1.109493000000000 0
ion Pt   7.396302000000000  11.580223999999999   1.109493000000000 0
ion Pt   0.005350000000000   5.043435000000000  14.266009999999996 0
ion Pt  -3.694243999999999  13.315945999999999  14.266009999999996 0
ion Pt   7.404493000000000   5.043435000000000  14.266009999999996 0
ion Pt   3.704914000000001  13.315945999999999  14.266009999999996 0
ion C   4.937258999999999   3.362593000000000  16.851258954221674 1  Linear 0 0 1
ion O   4.997355000000000   3.362593000000000  19.093996008003465 1  Linear 0 0 1

# Forces in Cartesian coordinates:
force Pt  -0.010925220154820  -0.004215748720510  -0.003397157851994 0
force Pt  -0.000390880895934   0.000732143058804   0.000878154940729 0
force Pt   0.003427423679005  -0.000898804913660  -0.002901216715218 0
force Pt   0.000683463128112   0.001500749566572  -0.001025247733172 0
force Pt   0.001548105535568   0.000750603791388  -0.001132197793655 0
force Pt   0.001263686937098  -0.000483065119468  -0.000243320627366 0
force Pt   0.002230217394610   0.000872587961731  -0.004271553105701 0
force Pt   0.000913387270654   0.000702469707456  -0.000808987243991 0
force Pt   0.000675965457841  -0.000279654934748   0.000364283178386 0
force Pt   0.000629120431832  -0.001158645502890  -0.001177528463647 0
force Pt   0.000746683811316  -0.000808333014508   0.001205307548004 0
force Pt  -0.000107331651087  -0.001026334956830  -0.000509510711664 0
force Pt   0.000499166105847   0.000266486104029   0.000938868823049 0
force Pt   0.000291175414958  -0.000081802786437   0.000722410907053 0
force Pt  -0.000302401718246  -0.000114894658344   0.000580938308835 0
force Pt   0.000256929820207   0.000047388641659   0.000773790630238 0
force Pt   0.001742270196884   0.001546467707206  -0.000068844193206 0
force Pt  -0.004748777797283  -0.003138009076470   0.001540264480788 0
force Pt  -0.005525026278514   0.008186279722972  -0.000764269711408 0
force Pt   0.001576884044544  -0.007075900823816   0.002400426648178 0
force Pt  -0.001866502086040   0.002605155093908  -0.003929925925336 0
force Pt   0.000885269928150  -0.001049835364998  -0.001097651064432 0
force Pt  -0.002658243188283  -0.001323441171730   0.001647314628725 0
force Pt  -0.000329616113206   0.000289152279154  -0.001191894680147 0
force Pt  -0.000716555418184   0.000126427084649   0.003251795793300 0
force Pt  -0.001016367956780   0.000876007089357  -0.000380740399545 0
force Pt  -0.001699433267044   0.000136190429274   0.001222855890707 0
force Pt  -0.001421455342920  -0.000046715918065   0.000319510862915 0
force Pt  -0.000010000262344  -0.000138345894771   0.000394297763047 0
force Pt   0.000355134274223   0.000027734300848   0.000118913112727 0
force Pt   0.000247860141625   0.000160097815557  -0.000495090866744 0
force Pt   0.000704679952102  -0.000145776577627  -0.000679847210068 0
force Pt  -0.000190711975038   0.000225286565480  -0.000541434955154 0
force Pt  -0.000329288164343   0.000120712542275  -0.000249831412752 0
force Pt   0.000111613410751   0.000403236845824  -0.000711730008597 0
force Pt   0.000468982736693   0.000497540766143   0.000171883395921 0
force Pt  -0.004813530740260   0.000646741034997   0.000173572390002 0
force Pt  -0.002076103772775  -0.004220777444863  -0.001228838957606 0
force Pt  -0.001253501898561   0.002865297417260   0.010111092423109 0
force Pt  -0.000407725159986   0.000981355239759   0.000980365839665 0
force C   0.040539900861905   0.002633425650052  -0.000062036869877 1  Linear 0 0 1
force O  -0.018881361926295  -0.000946927028269   0.000205080120705 1  Linear 0 0 1

# Energy components:
   A_diel =       -0.0132303121754043
   Eewald =    16496.0713307324840571
       EH =    19747.8551499709137715
     Eloc =   -40449.9480240031261928
      Enl =      -38.9608554190825132
     EvdW =       -0.8259313486635662
      Exc =    -1142.9788802576840681
 Exc_core =      655.7540174309590384
       KE =     1152.7976597680160467
-------------------------------------
     Etot =    -3580.2487634383551267
       TS =        0.0053149672478815
-------------------------------------
        F =    -3580.2540784056031953


Dumping 'jdft.fillings' ... done
Dumping 'jdft.wfns' ... done
Dumping 'jdft.fluidState' ... done
Dumping 'jdft.ionpos' ... done
Dumping 'jdft.lattice' ... done
Dumping 'jdft.eigenvals' ... done
Dumping 'jdft.eigStats' ... 
	eMin: -2.139543 at state 7 ( [ +0.000000 +0.000000 +0.000000 ] spin -1 )
	HOMO: -0.189644 at state 11 ( [ +0.250000 -0.333333 +0.000000 ] spin -1 )
	mu  : -0.189508
	LUMO: -0.189417 at state 5 ( [ +0.500000 +0.000000 +0.000000 ] spin 1 )
	eMax: +0.090409 at state 1 ( [ +0.000000 +0.333333 +0.000000 ] spin 1 )
	HOMO-LUMO gap: +0.000227
	Optical gap  : +0.000440 at state 7 ( [ +0.000000 +0.000000 +0.000000 ] spin -1 )
Dumping 'jdft.Ecomponents' ... done
IonicMinimize: Iter:  11  F: -3580.254078405603195  |grad|_K:  1.515e-04  alpha:  1.000e+00  linmin: -1.583e-03  t[s]:  38497.94
IonicMinimize: Converged (|Delta F|<1.000000e-06 for 2 iters).

#--- Lowdin population analysis ---
# oxidation-state Pt -0.056 -0.039 -0.041 -0.042 +0.008 +0.009 +0.003 +0.010 -0.002 -0.003 -0.003 -0.002 -0.019 -0.019 -0.020 -0.020 +0.114 +0.092 +0.076 +0.036 +0.001 -0.005 -0.014 -0.005 +0.010 +0.006 +0.011 +0.009 -0.038 -0.039 -0.040 -0.040 +0.117 +0.116 +0.115 +0.116 -0.039 -0.015 -0.071 -0.026
# magnetic-moments Pt -0.000 +0.000 +0.000 +0.000 -0.000 -0.000 +0.000 -0.000 -0.000 +0.000 -0.000 -0.000 +0.000 +0.000 -0.000 -0.000 -0.000 -0.000 -0.000 -0.000 -0.000 -0.000 -0.000 +0.000 -0.000 +0.000 -0.000 -0.000 -0.000 -0.000 +0.000 -0.000 +0.000 +0.000 -0.000 -0.000 -0.000 +0.000 -0.000 -0.000
# oxidation-state C +0.420
# magnetic-moments C -0.000
# oxidation-state O -0.137
# magnetic-moments O -0.000


Dumping 'jdft.n_up' ... done
Dumping 'jdft.n_dn' ... done
Dumping 'jdft.tau_up' ... done
Dumping 'jdft.tau_dn' ... done
Dumping 'jdft.eigenvals' ... done
Dumping 'jdft.eigStats' ... 
	eMin: -2.139543 at state 7 ( [ +0.000000 +0.000000 +0.000000 ] spin -1 )
	HOMO: -0.189644 at state 11 ( [ +0.250000 -0.333333 +0.000000 ] spin -1 )
	mu  : -0.189508
	LUMO: -0.189417 at state 5 ( [ +0.500000 +0.000000 +0.000000 ] spin 1 )
	eMax: +0.090409 at state 1 ( [ +0.000000 +0.333333 +0.000000 ] spin 1 )
	HOMO-LUMO gap: +0.000227
	Optical gap  : +0.000440 at state 7 ( [ +0.000000 +0.000000 +0.000000 ] spin -1 )
Dumping 'jdft.kPts' ... done
Dumping 'jdft.kMap' ... done
Dumping 'jdft.dosUp' ... done.
Dumping 'jdft.dosDn' ... done.
End date and time: Thu Feb 17 14:31:58 2022  (Duration: 0-10:42:40.48)
Done!
