
*************** JDFTx 1.6.0  ***************

Start date and time: Wed Feb 23 09:17:57 2022
Executable /projects/musgravc/apps/jdftx-1.6.1/build/jdftx with command-line: -i in
Running on hosts (process indices):  shas0210.rc.int.colorado.edu (0-23)
Divided in process groups (process indices):  0 (0)  1 (1)  2 (2)  3 (3)  4 (4)  5 (5)  6 (6)  7 (7)  8 (8)  9 (9)  10 (10)  11 (11)  12 (12)  13 (13)  14 (14)  15 (15)  16 (16)  17 (17)  18 (18)  19 (19)  20 (20)  21 (21)  22 (22)  23 (23)
Resource initialization completed at t[s]:      0.00
Run totals: 24 processes, 24 threads, 0 GPUs


Input parsed successfully to the following command list (including defaults):

basis kpoint-dependent
converge-empty-states yes
coords-type Cartesian
core-overlap-check none
coulomb-interaction Periodic
davidson-band-ratio 1.1
density-of-states Etol 1.000000e-06 Esigma 1.000000e-03 \
		Complete \
	Total \
	OrthoOrbital Pt 1   s \
	OrthoOrbital Pt 1   p \
	OrthoOrbital Pt 1   px \
	OrthoOrbital Pt 1   py \
	OrthoOrbital Pt 1   pz \
	OrthoOrbital Pt 1   d \
	OrthoOrbital Pt 1   dxy \
	OrthoOrbital Pt 1   dyz \
	OrthoOrbital Pt 1   dz2 \
	OrthoOrbital Pt 1   dxz \
	OrthoOrbital Pt 1   dx2-y2 \
	OrthoOrbital Pt 2   s \
	OrthoOrbital Pt 2   p \
	OrthoOrbital Pt 2   px \
	OrthoOrbital Pt 2   py \
	OrthoOrbital Pt 2   pz \
	OrthoOrbital Pt 2   d \
	OrthoOrbital Pt 2   dxy \
	OrthoOrbital Pt 2   dyz \
	OrthoOrbital Pt 2   dz2 \
	OrthoOrbital Pt 2   dxz \
	OrthoOrbital Pt 2   dx2-y2 \
	OrthoOrbital Pt 3   s \
	OrthoOrbital Pt 3   p \
	OrthoOrbital Pt 3   px \
	OrthoOrbital Pt 3   py \
	OrthoOrbital Pt 3   pz \
	OrthoOrbital Pt 3   d \
	OrthoOrbital Pt 3   dxy \
	OrthoOrbital Pt 3   dyz \
	OrthoOrbital Pt 3   dz2 \
	OrthoOrbital Pt 3   dxz \
	OrthoOrbital Pt 3   dx2-y2 \
	OrthoOrbital Pt 4   s \
	OrthoOrbital Pt 4   p \
	OrthoOrbital Pt 4   px \
	OrthoOrbital Pt 4   py \
	OrthoOrbital Pt 4   pz \
	OrthoOrbital Pt 4   d \
	OrthoOrbital Pt 4   dxy \
	OrthoOrbital Pt 4   dyz \
	OrthoOrbital Pt 4   dz2 \
	OrthoOrbital Pt 4   dxz \
	OrthoOrbital Pt 4   dx2-y2 \
	OrthoOrbital Pt 5   s \
	OrthoOrbital Pt 5   p \
	OrthoOrbital Pt 5   px \
	OrthoOrbital Pt 5   py \
	OrthoOrbital Pt 5   pz \
	OrthoOrbital Pt 5   d \
	OrthoOrbital Pt 5   dxy \
	OrthoOrbital Pt 5   dyz \
	OrthoOrbital Pt 5   dz2 \
	OrthoOrbital Pt 5   dxz \
	OrthoOrbital Pt 5   dx2-y2 \
	OrthoOrbital Pt 6   s \
	OrthoOrbital Pt 6   p \
	OrthoOrbital Pt 6   px \
	OrthoOrbital Pt 6   py \
	OrthoOrbital Pt 6   pz \
	OrthoOrbital Pt 6   d \
	OrthoOrbital Pt 6   dxy \
	OrthoOrbital Pt 6   dyz \
	OrthoOrbital Pt 6   dz2 \
	OrthoOrbital Pt 6   dxz \
	OrthoOrbital Pt 6   dx2-y2 \
	OrthoOrbital Pt 7   s \
	OrthoOrbital Pt 7   p \
	OrthoOrbital Pt 7   px \
	OrthoOrbital Pt 7   py \
	OrthoOrbital Pt 7   pz \
	OrthoOrbital Pt 7   d \
	OrthoOrbital Pt 7   dxy \
	OrthoOrbital Pt 7   dyz \
	OrthoOrbital Pt 7   dz2 \
	OrthoOrbital Pt 7   dxz \
	OrthoOrbital Pt 7   dx2-y2 \
	OrthoOrbital Pt 8   s \
	OrthoOrbital Pt 8   p \
	OrthoOrbital Pt 8   px \
	OrthoOrbital Pt 8   py \
	OrthoOrbital Pt 8   pz \
	OrthoOrbital Pt 8   d \
	OrthoOrbital Pt 8   dxy \
	OrthoOrbital Pt 8   dyz \
	OrthoOrbital Pt 8   dz2 \
	OrthoOrbital Pt 8   dxz \
	OrthoOrbital Pt 8   dx2-y2 \
	OrthoOrbital Pt 9   s \
	OrthoOrbital Pt 9   p \
	OrthoOrbital Pt 9   px \
	OrthoOrbital Pt 9   py \
	OrthoOrbital Pt 9   pz \
	OrthoOrbital Pt 9   d \
	OrthoOrbital Pt 9   dxy \
	OrthoOrbital Pt 9   dyz \
	OrthoOrbital Pt 9   dz2 \
	OrthoOrbital Pt 9   dxz \
	OrthoOrbital Pt 9   dx2-y2 \
	OrthoOrbital Pt 10   s \
	OrthoOrbital Pt 10   p \
	OrthoOrbital Pt 10   px \
	OrthoOrbital Pt 10   py \
	OrthoOrbital Pt 10   pz \
	OrthoOrbital Pt 10   d \
	OrthoOrbital Pt 10   dxy \
	OrthoOrbital Pt 10   dyz \
	OrthoOrbital Pt 10   dz2 \
	OrthoOrbital Pt 10   dxz \
	OrthoOrbital Pt 10   dx2-y2 \
	OrthoOrbital Pt 11   s \
	OrthoOrbital Pt 11   p \
	OrthoOrbital Pt 11   px \
	OrthoOrbital Pt 11   py \
	OrthoOrbital Pt 11   pz \
	OrthoOrbital Pt 11   d \
	OrthoOrbital Pt 11   dxy \
	OrthoOrbital Pt 11   dyz \
	OrthoOrbital Pt 11   dz2 \
	OrthoOrbital Pt 11   dxz \
	OrthoOrbital Pt 11   dx2-y2 \
	OrthoOrbital Pt 12   s \
	OrthoOrbital Pt 12   p \
	OrthoOrbital Pt 12   px \
	OrthoOrbital Pt 12   py \
	OrthoOrbital Pt 12   pz \
	OrthoOrbital Pt 12   d \
	OrthoOrbital Pt 12   dxy \
	OrthoOrbital Pt 12   dyz \
	OrthoOrbital Pt 12   dz2 \
	OrthoOrbital Pt 12   dxz \
	OrthoOrbital Pt 12   dx2-y2 \
	OrthoOrbital Pt 13   s \
	OrthoOrbital Pt 13   p \
	OrthoOrbital Pt 13   px \
	OrthoOrbital Pt 13   py \
	OrthoOrbital Pt 13   pz \
	OrthoOrbital Pt 13   d \
	OrthoOrbital Pt 13   dxy \
	OrthoOrbital Pt 13   dyz \
	OrthoOrbital Pt 13   dz2 \
	OrthoOrbital Pt 13   dxz \
	OrthoOrbital Pt 13   dx2-y2 \
	OrthoOrbital Pt 14   s \
	OrthoOrbital Pt 14   p \
	OrthoOrbital Pt 14   px \
	OrthoOrbital Pt 14   py \
	OrthoOrbital Pt 14   pz \
	OrthoOrbital Pt 14   d \
	OrthoOrbital Pt 14   dxy \
	OrthoOrbital Pt 14   dyz \
	OrthoOrbital Pt 14   dz2 \
	OrthoOrbital Pt 14   dxz \
	OrthoOrbital Pt 14   dx2-y2 \
	OrthoOrbital Pt 15   s \
	OrthoOrbital Pt 15   p \
	OrthoOrbital Pt 15   px \
	OrthoOrbital Pt 15   py \
	OrthoOrbital Pt 15   pz \
	OrthoOrbital Pt 15   d \
	OrthoOrbital Pt 15   dxy \
	OrthoOrbital Pt 15   dyz \
	OrthoOrbital Pt 15   dz2 \
	OrthoOrbital Pt 15   dxz \
	OrthoOrbital Pt 15   dx2-y2 \
	OrthoOrbital Pt 16   s \
	OrthoOrbital Pt 16   p \
	OrthoOrbital Pt 16   px \
	OrthoOrbital Pt 16   py \
	OrthoOrbital Pt 16   pz \
	OrthoOrbital Pt 16   d \
	OrthoOrbital Pt 16   dxy \
	OrthoOrbital Pt 16   dyz \
	OrthoOrbital Pt 16   dz2 \
	OrthoOrbital Pt 16   dxz \
	OrthoOrbital Pt 16   dx2-y2 \
	OrthoOrbital Pt 17   s \
	OrthoOrbital Pt 17   p \
	OrthoOrbital Pt 17   px \
	OrthoOrbital Pt 17   py \
	OrthoOrbital Pt 17   pz \
	OrthoOrbital Pt 17   d \
	OrthoOrbital Pt 17   dxy \
	OrthoOrbital Pt 17   dyz \
	OrthoOrbital Pt 17   dz2 \
	OrthoOrbital Pt 17   dxz \
	OrthoOrbital Pt 17   dx2-y2 \
	OrthoOrbital Pt 18   s \
	OrthoOrbital Pt 18   p \
	OrthoOrbital Pt 18   px \
	OrthoOrbital Pt 18   py \
	OrthoOrbital Pt 18   pz \
	OrthoOrbital Pt 18   d \
	OrthoOrbital Pt 18   dxy \
	OrthoOrbital Pt 18   dyz \
	OrthoOrbital Pt 18   dz2 \
	OrthoOrbital Pt 18   dxz \
	OrthoOrbital Pt 18   dx2-y2 \
	OrthoOrbital Pt 19   s \
	OrthoOrbital Pt 19   p \
	OrthoOrbital Pt 19   px \
	OrthoOrbital Pt 19   py \
	OrthoOrbital Pt 19   pz \
	OrthoOrbital Pt 19   d \
	OrthoOrbital Pt 19   dxy \
	OrthoOrbital Pt 19   dyz \
	OrthoOrbital Pt 19   dz2 \
	OrthoOrbital Pt 19   dxz \
	OrthoOrbital Pt 19   dx2-y2 \
	OrthoOrbital Pt 20   s \
	OrthoOrbital Pt 20   p \
	OrthoOrbital Pt 20   px \
	OrthoOrbital Pt 20   py \
	OrthoOrbital Pt 20   pz \
	OrthoOrbital Pt 20   d \
	OrthoOrbital Pt 20   dxy \
	OrthoOrbital Pt 20   dyz \
	OrthoOrbital Pt 20   dz2 \
	OrthoOrbital Pt 20   dxz \
	OrthoOrbital Pt 20   dx2-y2 \
	OrthoOrbital Pt 21   s \
	OrthoOrbital Pt 21   p \
	OrthoOrbital Pt 21   px \
	OrthoOrbital Pt 21   py \
	OrthoOrbital Pt 21   pz \
	OrthoOrbital Pt 21   d \
	OrthoOrbital Pt 21   dxy \
	OrthoOrbital Pt 21   dyz \
	OrthoOrbital Pt 21   dz2 \
	OrthoOrbital Pt 21   dxz \
	OrthoOrbital Pt 21   dx2-y2 \
	OrthoOrbital Pt 22   s \
	OrthoOrbital Pt 22   p \
	OrthoOrbital Pt 22   px \
	OrthoOrbital Pt 22   py \
	OrthoOrbital Pt 22   pz \
	OrthoOrbital Pt 22   d \
	OrthoOrbital Pt 22   dxy \
	OrthoOrbital Pt 22   dyz \
	OrthoOrbital Pt 22   dz2 \
	OrthoOrbital Pt 22   dxz \
	OrthoOrbital Pt 22   dx2-y2 \
	OrthoOrbital Pt 23   s \
	OrthoOrbital Pt 23   p \
	OrthoOrbital Pt 23   px \
	OrthoOrbital Pt 23   py \
	OrthoOrbital Pt 23   pz \
	OrthoOrbital Pt 23   d \
	OrthoOrbital Pt 23   dxy \
	OrthoOrbital Pt 23   dyz \
	OrthoOrbital Pt 23   dz2 \
	OrthoOrbital Pt 23   dxz \
	OrthoOrbital Pt 23   dx2-y2 \
	OrthoOrbital Pt 24   s \
	OrthoOrbital Pt 24   p \
	OrthoOrbital Pt 24   px \
	OrthoOrbital Pt 24   py \
	OrthoOrbital Pt 24   pz \
	OrthoOrbital Pt 24   d \
	OrthoOrbital Pt 24   dxy \
	OrthoOrbital Pt 24   dyz \
	OrthoOrbital Pt 24   dz2 \
	OrthoOrbital Pt 24   dxz \
	OrthoOrbital Pt 24   dx2-y2 \
	OrthoOrbital Pt 25   s \
	OrthoOrbital Pt 25   p \
	OrthoOrbital Pt 25   px \
	OrthoOrbital Pt 25   py \
	OrthoOrbital Pt 25   pz \
	OrthoOrbital Pt 25   d \
	OrthoOrbital Pt 25   dxy \
	OrthoOrbital Pt 25   dyz \
	OrthoOrbital Pt 25   dz2 \
	OrthoOrbital Pt 25   dxz \
	OrthoOrbital Pt 25   dx2-y2 \
	OrthoOrbital Pt 26   s \
	OrthoOrbital Pt 26   p \
	OrthoOrbital Pt 26   px \
	OrthoOrbital Pt 26   py \
	OrthoOrbital Pt 26   pz \
	OrthoOrbital Pt 26   d \
	OrthoOrbital Pt 26   dxy \
	OrthoOrbital Pt 26   dyz \
	OrthoOrbital Pt 26   dz2 \
	OrthoOrbital Pt 26   dxz \
	OrthoOrbital Pt 26   dx2-y2 \
	OrthoOrbital Pt 27   s \
	OrthoOrbital Pt 27   p \
	OrthoOrbital Pt 27   px \
	OrthoOrbital Pt 27   py \
	OrthoOrbital Pt 27   pz \
	OrthoOrbital Pt 27   d \
	OrthoOrbital Pt 27   dxy \
	OrthoOrbital Pt 27   dyz \
	OrthoOrbital Pt 27   dz2 \
	OrthoOrbital Pt 27   dxz \
	OrthoOrbital Pt 27   dx2-y2 \
	OrthoOrbital Pt 28   s \
	OrthoOrbital Pt 28   p \
	OrthoOrbital Pt 28   px \
	OrthoOrbital Pt 28   py \
	OrthoOrbital Pt 28   pz \
	OrthoOrbital Pt 28   d \
	OrthoOrbital Pt 28   dxy \
	OrthoOrbital Pt 28   dyz \
	OrthoOrbital Pt 28   dz2 \
	OrthoOrbital Pt 28   dxz \
	OrthoOrbital Pt 28   dx2-y2 \
	OrthoOrbital Pt 29   s \
	OrthoOrbital Pt 29   p \
	OrthoOrbital Pt 29   px \
	OrthoOrbital Pt 29   py \
	OrthoOrbital Pt 29   pz \
	OrthoOrbital Pt 29   d \
	OrthoOrbital Pt 29   dxy \
	OrthoOrbital Pt 29   dyz \
	OrthoOrbital Pt 29   dz2 \
	OrthoOrbital Pt 29   dxz \
	OrthoOrbital Pt 29   dx2-y2 \
	OrthoOrbital Pt 30   s \
	OrthoOrbital Pt 30   p \
	OrthoOrbital Pt 30   px \
	OrthoOrbital Pt 30   py \
	OrthoOrbital Pt 30   pz \
	OrthoOrbital Pt 30   d \
	OrthoOrbital Pt 30   dxy \
	OrthoOrbital Pt 30   dyz \
	OrthoOrbital Pt 30   dz2 \
	OrthoOrbital Pt 30   dxz \
	OrthoOrbital Pt 30   dx2-y2 \
	OrthoOrbital Pt 31   s \
	OrthoOrbital Pt 31   p \
	OrthoOrbital Pt 31   px \
	OrthoOrbital Pt 31   py \
	OrthoOrbital Pt 31   pz \
	OrthoOrbital Pt 31   d \
	OrthoOrbital Pt 31   dxy \
	OrthoOrbital Pt 31   dyz \
	OrthoOrbital Pt 31   dz2 \
	OrthoOrbital Pt 31   dxz \
	OrthoOrbital Pt 31   dx2-y2 \
	OrthoOrbital Pt 32   s \
	OrthoOrbital Pt 32   p \
	OrthoOrbital Pt 32   px \
	OrthoOrbital Pt 32   py \
	OrthoOrbital Pt 32   pz \
	OrthoOrbital Pt 32   d \
	OrthoOrbital Pt 32   dxy \
	OrthoOrbital Pt 32   dyz \
	OrthoOrbital Pt 32   dz2 \
	OrthoOrbital Pt 32   dxz \
	OrthoOrbital Pt 32   dx2-y2 \
	OrthoOrbital Pt 33   s \
	OrthoOrbital Pt 33   p \
	OrthoOrbital Pt 33   px \
	OrthoOrbital Pt 33   py \
	OrthoOrbital Pt 33   pz \
	OrthoOrbital Pt 33   d \
	OrthoOrbital Pt 33   dxy \
	OrthoOrbital Pt 33   dyz \
	OrthoOrbital Pt 33   dz2 \
	OrthoOrbital Pt 33   dxz \
	OrthoOrbital Pt 33   dx2-y2 \
	OrthoOrbital Pt 34   s \
	OrthoOrbital Pt 34   p \
	OrthoOrbital Pt 34   px \
	OrthoOrbital Pt 34   py \
	OrthoOrbital Pt 34   pz \
	OrthoOrbital Pt 34   d \
	OrthoOrbital Pt 34   dxy \
	OrthoOrbital Pt 34   dyz \
	OrthoOrbital Pt 34   dz2 \
	OrthoOrbital Pt 34   dxz \
	OrthoOrbital Pt 34   dx2-y2 \
	OrthoOrbital Pt 35   s \
	OrthoOrbital Pt 35   p \
	OrthoOrbital Pt 35   px \
	OrthoOrbital Pt 35   py \
	OrthoOrbital Pt 35   pz \
	OrthoOrbital Pt 35   d \
	OrthoOrbital Pt 35   dxy \
	OrthoOrbital Pt 35   dyz \
	OrthoOrbital Pt 35   dz2 \
	OrthoOrbital Pt 35   dxz \
	OrthoOrbital Pt 35   dx2-y2 \
	OrthoOrbital Pt 36   s \
	OrthoOrbital Pt 36   p \
	OrthoOrbital Pt 36   px \
	OrthoOrbital Pt 36   py \
	OrthoOrbital Pt 36   pz \
	OrthoOrbital Pt 36   d \
	OrthoOrbital Pt 36   dxy \
	OrthoOrbital Pt 36   dyz \
	OrthoOrbital Pt 36   dz2 \
	OrthoOrbital Pt 36   dxz \
	OrthoOrbital Pt 36   dx2-y2 \
	OrthoOrbital Pt 37   s \
	OrthoOrbital Pt 37   p \
	OrthoOrbital Pt 37   px \
	OrthoOrbital Pt 37   py \
	OrthoOrbital Pt 37   pz \
	OrthoOrbital Pt 37   d \
	OrthoOrbital Pt 37   dxy \
	OrthoOrbital Pt 37   dyz \
	OrthoOrbital Pt 37   dz2 \
	OrthoOrbital Pt 37   dxz \
	OrthoOrbital Pt 37   dx2-y2 \
	OrthoOrbital Pt 38   s \
	OrthoOrbital Pt 38   p \
	OrthoOrbital Pt 38   px \
	OrthoOrbital Pt 38   py \
	OrthoOrbital Pt 38   pz \
	OrthoOrbital Pt 38   d \
	OrthoOrbital Pt 38   dxy \
	OrthoOrbital Pt 38   dyz \
	OrthoOrbital Pt 38   dz2 \
	OrthoOrbital Pt 38   dxz \
	OrthoOrbital Pt 38   dx2-y2 \
	OrthoOrbital Pt 39   s \
	OrthoOrbital Pt 39   p \
	OrthoOrbital Pt 39   px \
	OrthoOrbital Pt 39   py \
	OrthoOrbital Pt 39   pz \
	OrthoOrbital Pt 39   d \
	OrthoOrbital Pt 39   dxy \
	OrthoOrbital Pt 39   dyz \
	OrthoOrbital Pt 39   dz2 \
	OrthoOrbital Pt 39   dxz \
	OrthoOrbital Pt 39   dx2-y2 \
	OrthoOrbital Pt 40   s \
	OrthoOrbital Pt 40   p \
	OrthoOrbital Pt 40   px \
	OrthoOrbital Pt 40   py \
	OrthoOrbital Pt 40   pz \
	OrthoOrbital Pt 40   d \
	OrthoOrbital Pt 40   dxy \
	OrthoOrbital Pt 40   dyz \
	OrthoOrbital Pt 40   dz2 \
	OrthoOrbital Pt 40   dxz \
	OrthoOrbital Pt 40   dx2-y2 \
	OrthoOrbital Pt 41   s \
	OrthoOrbital Pt 41   p \
	OrthoOrbital Pt 41   px \
	OrthoOrbital Pt 41   py \
	OrthoOrbital Pt 41   pz \
	OrthoOrbital Pt 41   d \
	OrthoOrbital Pt 41   dxy \
	OrthoOrbital Pt 41   dyz \
	OrthoOrbital Pt 41   dz2 \
	OrthoOrbital Pt 41   dxz \
	OrthoOrbital Pt 41   dx2-y2 \
	OrthoOrbital Pt 42   s \
	OrthoOrbital Pt 42   p \
	OrthoOrbital Pt 42   px \
	OrthoOrbital Pt 42   py \
	OrthoOrbital Pt 42   pz \
	OrthoOrbital Pt 42   d \
	OrthoOrbital Pt 42   dxy \
	OrthoOrbital Pt 42   dyz \
	OrthoOrbital Pt 42   dz2 \
	OrthoOrbital Pt 42   dxz \
	OrthoOrbital Pt 42   dx2-y2 \
	OrthoOrbital Pt 43   s \
	OrthoOrbital Pt 43   p \
	OrthoOrbital Pt 43   px \
	OrthoOrbital Pt 43   py \
	OrthoOrbital Pt 43   pz \
	OrthoOrbital Pt 43   d \
	OrthoOrbital Pt 43   dxy \
	OrthoOrbital Pt 43   dyz \
	OrthoOrbital Pt 43   dz2 \
	OrthoOrbital Pt 43   dxz \
	OrthoOrbital Pt 43   dx2-y2 \
	OrthoOrbital Pt 44   s \
	OrthoOrbital Pt 44   p \
	OrthoOrbital Pt 44   px \
	OrthoOrbital Pt 44   py \
	OrthoOrbital Pt 44   pz \
	OrthoOrbital Pt 44   d \
	OrthoOrbital Pt 44   dxy \
	OrthoOrbital Pt 44   dyz \
	OrthoOrbital Pt 44   dz2 \
	OrthoOrbital Pt 44   dxz \
	OrthoOrbital Pt 44   dx2-y2 \
	OrthoOrbital Pt 45   s \
	OrthoOrbital Pt 45   p \
	OrthoOrbital Pt 45   px \
	OrthoOrbital Pt 45   py \
	OrthoOrbital Pt 45   pz \
	OrthoOrbital Pt 45   d \
	OrthoOrbital Pt 45   dxy \
	OrthoOrbital Pt 45   dyz \
	OrthoOrbital Pt 45   dz2 \
	OrthoOrbital Pt 45   dxz \
	OrthoOrbital Pt 45   dx2-y2 \
	OrthoOrbital Pt 46   s \
	OrthoOrbital Pt 46   p \
	OrthoOrbital Pt 46   px \
	OrthoOrbital Pt 46   py \
	OrthoOrbital Pt 46   pz \
	OrthoOrbital Pt 46   d \
	OrthoOrbital Pt 46   dxy \
	OrthoOrbital Pt 46   dyz \
	OrthoOrbital Pt 46   dz2 \
	OrthoOrbital Pt 46   dxz \
	OrthoOrbital Pt 46   dx2-y2 \
	OrthoOrbital Pt 47   s \
	OrthoOrbital Pt 47   p \
	OrthoOrbital Pt 47   px \
	OrthoOrbital Pt 47   py \
	OrthoOrbital Pt 47   pz \
	OrthoOrbital Pt 47   d \
	OrthoOrbital Pt 47   dxy \
	OrthoOrbital Pt 47   dyz \
	OrthoOrbital Pt 47   dz2 \
	OrthoOrbital Pt 47   dxz \
	OrthoOrbital Pt 47   dx2-y2 \
	OrthoOrbital Pt 48   s \
	OrthoOrbital Pt 48   p \
	OrthoOrbital Pt 48   px \
	OrthoOrbital Pt 48   py \
	OrthoOrbital Pt 48   pz \
	OrthoOrbital Pt 48   d \
	OrthoOrbital Pt 48   dxy \
	OrthoOrbital Pt 48   dyz \
	OrthoOrbital Pt 48   dz2 \
	OrthoOrbital Pt 48   dxz \
	OrthoOrbital Pt 48   dx2-y2 \
	OrthoOrbital Pt 49   s \
	OrthoOrbital Pt 49   p \
	OrthoOrbital Pt 49   px \
	OrthoOrbital Pt 49   py \
	OrthoOrbital Pt 49   pz \
	OrthoOrbital Pt 49   d \
	OrthoOrbital Pt 49   dxy \
	OrthoOrbital Pt 49   dyz \
	OrthoOrbital Pt 49   dz2 \
	OrthoOrbital Pt 49   dxz \
	OrthoOrbital Pt 49   dx2-y2 \
	OrthoOrbital Pt 50   s \
	OrthoOrbital Pt 50   p \
	OrthoOrbital Pt 50   px \
	OrthoOrbital Pt 50   py \
	OrthoOrbital Pt 50   pz \
	OrthoOrbital Pt 50   d \
	OrthoOrbital Pt 50   dxy \
	OrthoOrbital Pt 50   dyz \
	OrthoOrbital Pt 50   dz2 \
	OrthoOrbital Pt 50   dxz \
	OrthoOrbital Pt 50   dx2-y2 \
	OrthoOrbital Pt 51   s \
	OrthoOrbital Pt 51   p \
	OrthoOrbital Pt 51   px \
	OrthoOrbital Pt 51   py \
	OrthoOrbital Pt 51   pz \
	OrthoOrbital Pt 51   d \
	OrthoOrbital Pt 51   dxy \
	OrthoOrbital Pt 51   dyz \
	OrthoOrbital Pt 51   dz2 \
	OrthoOrbital Pt 51   dxz \
	OrthoOrbital Pt 51   dx2-y2 \
	OrthoOrbital Pt 52   s \
	OrthoOrbital Pt 52   p \
	OrthoOrbital Pt 52   px \
	OrthoOrbital Pt 52   py \
	OrthoOrbital Pt 52   pz \
	OrthoOrbital Pt 52   d \
	OrthoOrbital Pt 52   dxy \
	OrthoOrbital Pt 52   dyz \
	OrthoOrbital Pt 52   dz2 \
	OrthoOrbital Pt 52   dxz \
	OrthoOrbital Pt 52   dx2-y2 \
	OrthoOrbital Pt 53   s \
	OrthoOrbital Pt 53   p \
	OrthoOrbital Pt 53   px \
	OrthoOrbital Pt 53   py \
	OrthoOrbital Pt 53   pz \
	OrthoOrbital Pt 53   d \
	OrthoOrbital Pt 53   dxy \
	OrthoOrbital Pt 53   dyz \
	OrthoOrbital Pt 53   dz2 \
	OrthoOrbital Pt 53   dxz \
	OrthoOrbital Pt 53   dx2-y2 \
	OrthoOrbital Pt 54   s \
	OrthoOrbital Pt 54   p \
	OrthoOrbital Pt 54   px \
	OrthoOrbital Pt 54   py \
	OrthoOrbital Pt 54   pz \
	OrthoOrbital Pt 54   d \
	OrthoOrbital Pt 54   dxy \
	OrthoOrbital Pt 54   dyz \
	OrthoOrbital Pt 54   dz2 \
	OrthoOrbital Pt 54   dxz \
	OrthoOrbital Pt 54   dx2-y2 \
	OrthoOrbital Pt 55   s \
	OrthoOrbital Pt 55   p \
	OrthoOrbital Pt 55   px \
	OrthoOrbital Pt 55   py \
	OrthoOrbital Pt 55   pz \
	OrthoOrbital Pt 55   d \
	OrthoOrbital Pt 55   dxy \
	OrthoOrbital Pt 55   dyz \
	OrthoOrbital Pt 55   dz2 \
	OrthoOrbital Pt 55   dxz \
	OrthoOrbital Pt 55   dx2-y2 \
	OrthoOrbital Pt 56   s \
	OrthoOrbital Pt 56   p \
	OrthoOrbital Pt 56   px \
	OrthoOrbital Pt 56   py \
	OrthoOrbital Pt 56   pz \
	OrthoOrbital Pt 56   d \
	OrthoOrbital Pt 56   dxy \
	OrthoOrbital Pt 56   dyz \
	OrthoOrbital Pt 56   dz2 \
	OrthoOrbital Pt 56   dxz \
	OrthoOrbital Pt 56   dx2-y2 \
	OrthoOrbital Pt 57   s \
	OrthoOrbital Pt 57   p \
	OrthoOrbital Pt 57   px \
	OrthoOrbital Pt 57   py \
	OrthoOrbital Pt 57   pz \
	OrthoOrbital Pt 57   d \
	OrthoOrbital Pt 57   dxy \
	OrthoOrbital Pt 57   dyz \
	OrthoOrbital Pt 57   dz2 \
	OrthoOrbital Pt 57   dxz \
	OrthoOrbital Pt 57   dx2-y2 \
	OrthoOrbital Pt 58   s \
	OrthoOrbital Pt 58   p \
	OrthoOrbital Pt 58   px \
	OrthoOrbital Pt 58   py \
	OrthoOrbital Pt 58   pz \
	OrthoOrbital Pt 58   d \
	OrthoOrbital Pt 58   dxy \
	OrthoOrbital Pt 58   dyz \
	OrthoOrbital Pt 58   dz2 \
	OrthoOrbital Pt 58   dxz \
	OrthoOrbital Pt 58   dx2-y2 \
	OrthoOrbital Pt 59   s \
	OrthoOrbital Pt 59   p \
	OrthoOrbital Pt 59   px \
	OrthoOrbital Pt 59   py \
	OrthoOrbital Pt 59   pz \
	OrthoOrbital Pt 59   d \
	OrthoOrbital Pt 59   dxy \
	OrthoOrbital Pt 59   dyz \
	OrthoOrbital Pt 59   dz2 \
	OrthoOrbital Pt 59   dxz \
	OrthoOrbital Pt 59   dx2-y2 \
	OrthoOrbital Pt 60   s \
	OrthoOrbital Pt 60   p \
	OrthoOrbital Pt 60   px \
	OrthoOrbital Pt 60   py \
	OrthoOrbital Pt 60   pz \
	OrthoOrbital Pt 60   d \
	OrthoOrbital Pt 60   dxy \
	OrthoOrbital Pt 60   dyz \
	OrthoOrbital Pt 60   dz2 \
	OrthoOrbital Pt 60   dxz \
	OrthoOrbital Pt 60   dx2-y2 \
	OrthoOrbital Pt 61   s \
	OrthoOrbital Pt 61   p \
	OrthoOrbital Pt 61   px \
	OrthoOrbital Pt 61   py \
	OrthoOrbital Pt 61   pz \
	OrthoOrbital Pt 61   d \
	OrthoOrbital Pt 61   dxy \
	OrthoOrbital Pt 61   dyz \
	OrthoOrbital Pt 61   dz2 \
	OrthoOrbital Pt 61   dxz \
	OrthoOrbital Pt 61   dx2-y2 \
	OrthoOrbital Pt 62   s \
	OrthoOrbital Pt 62   p \
	OrthoOrbital Pt 62   px \
	OrthoOrbital Pt 62   py \
	OrthoOrbital Pt 62   pz \
	OrthoOrbital Pt 62   d \
	OrthoOrbital Pt 62   dxy \
	OrthoOrbital Pt 62   dyz \
	OrthoOrbital Pt 62   dz2 \
	OrthoOrbital Pt 62   dxz \
	OrthoOrbital Pt 62   dx2-y2 \
	OrthoOrbital Pt 63   s \
	OrthoOrbital Pt 63   p \
	OrthoOrbital Pt 63   px \
	OrthoOrbital Pt 63   py \
	OrthoOrbital Pt 63   pz \
	OrthoOrbital Pt 63   d \
	OrthoOrbital Pt 63   dxy \
	OrthoOrbital Pt 63   dyz \
	OrthoOrbital Pt 63   dz2 \
	OrthoOrbital Pt 63   dxz \
	OrthoOrbital Pt 63   dx2-y2 \
	OrthoOrbital Pt 64   s \
	OrthoOrbital Pt 64   p \
	OrthoOrbital Pt 64   px \
	OrthoOrbital Pt 64   py \
	OrthoOrbital Pt 64   pz \
	OrthoOrbital Pt 64   d \
	OrthoOrbital Pt 64   dxy \
	OrthoOrbital Pt 64   dyz \
	OrthoOrbital Pt 64   dz2 \
	OrthoOrbital Pt 64   dxz \
	OrthoOrbital Pt 64   dx2-y2 \
	OrthoOrbital Pt 65   s \
	OrthoOrbital Pt 65   p \
	OrthoOrbital Pt 65   px \
	OrthoOrbital Pt 65   py \
	OrthoOrbital Pt 65   pz \
	OrthoOrbital Pt 65   d \
	OrthoOrbital Pt 65   dxy \
	OrthoOrbital Pt 65   dyz \
	OrthoOrbital Pt 65   dz2 \
	OrthoOrbital Pt 65   dxz \
	OrthoOrbital Pt 65   dx2-y2 \
	OrthoOrbital Pt 66   s \
	OrthoOrbital Pt 66   p \
	OrthoOrbital Pt 66   px \
	OrthoOrbital Pt 66   py \
	OrthoOrbital Pt 66   pz \
	OrthoOrbital Pt 66   d \
	OrthoOrbital Pt 66   dxy \
	OrthoOrbital Pt 66   dyz \
	OrthoOrbital Pt 66   dz2 \
	OrthoOrbital Pt 66   dxz \
	OrthoOrbital Pt 66   dx2-y2 \
	OrthoOrbital Pt 67   s \
	OrthoOrbital Pt 67   p \
	OrthoOrbital Pt 67   px \
	OrthoOrbital Pt 67   py \
	OrthoOrbital Pt 67   pz \
	OrthoOrbital Pt 67   d \
	OrthoOrbital Pt 67   dxy \
	OrthoOrbital Pt 67   dyz \
	OrthoOrbital Pt 67   dz2 \
	OrthoOrbital Pt 67   dxz \
	OrthoOrbital Pt 67   dx2-y2 \
	OrthoOrbital Pt 68   s \
	OrthoOrbital Pt 68   p \
	OrthoOrbital Pt 68   px \
	OrthoOrbital Pt 68   py \
	OrthoOrbital Pt 68   pz \
	OrthoOrbital Pt 68   d \
	OrthoOrbital Pt 68   dxy \
	OrthoOrbital Pt 68   dyz \
	OrthoOrbital Pt 68   dz2 \
	OrthoOrbital Pt 68   dxz \
	OrthoOrbital Pt 68   dx2-y2 \
	OrthoOrbital Pt 69   s \
	OrthoOrbital Pt 69   p \
	OrthoOrbital Pt 69   px \
	OrthoOrbital Pt 69   py \
	OrthoOrbital Pt 69   pz \
	OrthoOrbital Pt 69   d \
	OrthoOrbital Pt 69   dxy \
	OrthoOrbital Pt 69   dyz \
	OrthoOrbital Pt 69   dz2 \
	OrthoOrbital Pt 69   dxz \
	OrthoOrbital Pt 69   dx2-y2 \
	OrthoOrbital Pt 70   s \
	OrthoOrbital Pt 70   p \
	OrthoOrbital Pt 70   px \
	OrthoOrbital Pt 70   py \
	OrthoOrbital Pt 70   pz \
	OrthoOrbital Pt 70   d \
	OrthoOrbital Pt 70   dxy \
	OrthoOrbital Pt 70   dyz \
	OrthoOrbital Pt 70   dz2 \
	OrthoOrbital Pt 70   dxz \
	OrthoOrbital Pt 70   dx2-y2 \
	OrthoOrbital Pt 71   s \
	OrthoOrbital Pt 71   p \
	OrthoOrbital Pt 71   px \
	OrthoOrbital Pt 71   py \
	OrthoOrbital Pt 71   pz \
	OrthoOrbital Pt 71   d \
	OrthoOrbital Pt 71   dxy \
	OrthoOrbital Pt 71   dyz \
	OrthoOrbital Pt 71   dz2 \
	OrthoOrbital Pt 71   dxz \
	OrthoOrbital Pt 71   dx2-y2 \
	OrthoOrbital Pt 72   s \
	OrthoOrbital Pt 72   p \
	OrthoOrbital Pt 72   px \
	OrthoOrbital Pt 72   py \
	OrthoOrbital Pt 72   pz \
	OrthoOrbital Pt 72   d \
	OrthoOrbital Pt 72   dxy \
	OrthoOrbital Pt 72   dyz \
	OrthoOrbital Pt 72   dz2 \
	OrthoOrbital Pt 72   dxz \
	OrthoOrbital Pt 72   dx2-y2 \
	OrthoOrbital Pt 73   s \
	OrthoOrbital Pt 73   p \
	OrthoOrbital Pt 73   px \
	OrthoOrbital Pt 73   py \
	OrthoOrbital Pt 73   pz \
	OrthoOrbital Pt 73   d \
	OrthoOrbital Pt 73   dxy \
	OrthoOrbital Pt 73   dyz \
	OrthoOrbital Pt 73   dz2 \
	OrthoOrbital Pt 73   dxz \
	OrthoOrbital Pt 73   dx2-y2 \
	OrthoOrbital Pt 74   s \
	OrthoOrbital Pt 74   p \
	OrthoOrbital Pt 74   px \
	OrthoOrbital Pt 74   py \
	OrthoOrbital Pt 74   pz \
	OrthoOrbital Pt 74   d \
	OrthoOrbital Pt 74   dxy \
	OrthoOrbital Pt 74   dyz \
	OrthoOrbital Pt 74   dz2 \
	OrthoOrbital Pt 74   dxz \
	OrthoOrbital Pt 74   dx2-y2 \
	OrthoOrbital Pt 75   s \
	OrthoOrbital Pt 75   p \
	OrthoOrbital Pt 75   px \
	OrthoOrbital Pt 75   py \
	OrthoOrbital Pt 75   pz \
	OrthoOrbital Pt 75   d \
	OrthoOrbital Pt 75   dxy \
	OrthoOrbital Pt 75   dyz \
	OrthoOrbital Pt 75   dz2 \
	OrthoOrbital Pt 75   dxz \
	OrthoOrbital Pt 75   dx2-y2 \
	OrthoOrbital Pt 76   s \
	OrthoOrbital Pt 76   p \
	OrthoOrbital Pt 76   px \
	OrthoOrbital Pt 76   py \
	OrthoOrbital Pt 76   pz \
	OrthoOrbital Pt 76   d \
	OrthoOrbital Pt 76   dxy \
	OrthoOrbital Pt 76   dyz \
	OrthoOrbital Pt 76   dz2 \
	OrthoOrbital Pt 76   dxz \
	OrthoOrbital Pt 76   dx2-y2 \
	OrthoOrbital C 1   s \
	OrthoOrbital C 1   p \
	OrthoOrbital C 1   px \
	OrthoOrbital C 1   py \
	OrthoOrbital C 1   pz \
	OrthoOrbital O 1   s \
	OrthoOrbital O 1   p \
	OrthoOrbital O 1   px \
	OrthoOrbital O 1   py \
	OrthoOrbital O 1   pz
dump End ElecDensity KEdensity BandEigs EigStats RhoAtom DOS Kpoints
dump Ionic State IonicPositions Lattice EigStats Ecomponents
dump 
dump 
dump 
dump 
dump 
dump 
dump 
dump 
dump-name jdft.$VAR
elec-cutoff 20
elec-eigen-algo Davidson
elec-ex-corr gga-PBE
elec-initial-magnetization 0.000000 no
elec-n-bands 736
elec-smearing Fermi 0.001
electronic-minimize  \
	dirUpdateScheme      FletcherReeves \
	linminMethod         DirUpdateRecommended \
	nIterations          100 \
	history              15 \
	knormThreshold       0 \
	energyDiffThreshold  1e-07 \
	nEnergyDiff          2 \
	alphaTstart          1 \
	alphaTmin            1e-10 \
	updateTestStepSize   yes \
	alphaTreduceFactor   0.1 \
	alphaTincreaseFactor 3 \
	nAlphaAdjustMax      3 \
	wolfeEnergy          0.0001 \
	wolfeGradient        0.9 \
	fdTest               no
exchange-regularization WignerSeitzTruncated
fluid LinearPCM 298.000000 1.013250
fluid-anion F- 0.5 MeanFieldLJ \
	epsBulk 1 \
	pMol 0 \
	epsInf 1 \
	Pvap 0 \
	sigmaBulk 0 \
	Rvdw 2.24877 \
	Res 0 \
	tauNuc 343133
fluid-cation Na+ 0.5 MeanFieldLJ \
	epsBulk 1 \
	pMol 0 \
	epsInf 1 \
	Pvap 0 \
	sigmaBulk 0 \
	Rvdw 2.19208 \
	Res 0 \
	tauNuc 343133
fluid-ex-corr lda-TF lda-PZ
fluid-gummel-loop 10 1.000000e-05
fluid-minimize  \
	dirUpdateScheme      PolakRibiere \
	linminMethod         DirUpdateRecommended \
	nIterations          400 \
	history              15 \
	knormThreshold       1e-11 \
	energyDiffThreshold  0 \
	nEnergyDiff          2 \
	alphaTstart          1 \
	alphaTmin            1e-10 \
	updateTestStepSize   yes \
	alphaTreduceFactor   0.1 \
	alphaTincreaseFactor 3 \
	nAlphaAdjustMax      6 \
	wolfeEnergy          0.0001 \
	wolfeGradient        0.9 \
	fdTest               no
fluid-solvent H2O 55.338 ScalarEOS \
	epsBulk 78.4 \
	pMol 0.92466 \
	epsInf 1.77 \
	Pvap 1.06736e-10 \
	sigmaBulk 4.62e-05 \
	Rvdw 2.61727 \
	Res 1.42 \
	tauNuc 343133 \
	poleEl 15 7 1
forces-output-coords Positions
initial-state jdft.$VAR
ion Pt  -0.003625000000000   7.025740000000002  63.415598000000003 0
ion Pt  -2.619617000000003  18.428585999999999  63.415598000000003 0
ion Pt   5.228370999999997   7.025740000000002  63.415598000000003 0
ion Pt   2.612378999999996  18.428585999999999  63.415598000000003 0
ion Pt   2.611577000000000   2.915417000000001  62.117125000000001 0
ion Pt  -0.004425000000000  14.318308000000002  62.117125000000001 0
ion Pt   7.843572999999998   2.915417000000001  62.117125000000001 0
ion Pt   5.227570999999999  14.318308000000002  62.117125000000001 0
ion Pt   2.612163999999999  10.310451000000000  60.490712000000002 0
ion Pt  -0.003844000000004  21.713318999999998  60.490712000000002 0
ion Pt   7.844159999999993  10.310451000000000  60.490712000000002 0
ion Pt   5.228162999999994  21.713318999999998  60.490712000000002 0
ion Pt   0.004081000000000   0.176152000000000  33.343209999999999 0
ion Pt  -2.611916000000000  11.579020000000002  33.343209999999999 0
ion Pt   5.236076999999999   0.176152000000000  33.343209999999999 0
ion Pt   2.620079999999998  11.579020000000002  33.343209999999999 0
ion Pt  -0.007031000000000   6.054923000000000  58.452824999999997 0
ion Pt  -2.623034000000003  17.457813999999999  58.452824999999997 0
ion Pt   5.224965000000000   6.054923000000000  58.452824999999997 0
ion Pt   2.608961999999995  17.457813999999999  58.452824999999997 0
ion Pt   2.607397000000000   1.786647000000000  56.910010000000000 0
ion Pt  -0.008600000000003  13.189515000000004  56.910010000000000 0
ion Pt   7.839392999999996   1.786647000000000  56.910010000000000 0
ion Pt   5.223384999999997  13.189515000000004  56.910010000000000 0
ion Pt   2.605691999999999   9.066512000000001  55.152394999999999 0
ion Pt  -0.010305000000004  20.469380000000001  55.152394999999999 0
ion Pt   7.837687999999996   9.066512000000001  55.152394999999999 0
ion Pt   5.221690999999995  20.469380000000001  55.152394999999999 0
ion Pt  -0.008156000000000   4.827131000000000  53.486634000000002 0
ion Pt  -2.624153000000002  16.229998999999999  53.486634000000002 0
ion Pt   5.223839999999997   4.827131000000000  53.486634000000002 0
ion Pt   2.607842999999997  16.229998999999999  53.486634000000002 0
ion Pt   2.609735000000000   0.615322000000000  51.780881000000001 0
ion Pt  -0.006262000000001  12.018190000000002  51.780881000000001 0
ion Pt   7.841730999999995   0.615322000000000  51.780881000000001 0
ion Pt   5.225733999999997  12.018190000000002  51.780881000000001 0
ion Pt   2.612801999999998   7.796666000000001  50.055065999999997 0
ion Pt  -0.003195000000004  19.199534000000003  50.055065999999997 0
ion Pt   7.844797999999995   7.796666000000001  50.055065999999997 0
ion Pt   5.228800999999995  19.199534000000003  50.055065999999997 0
ion Pt  -0.000235000000000   3.600775000000001  48.378791000000000 0
ion Pt  -2.616232000000001  15.003643000000002  48.378791000000000 0
ion Pt   5.231760999999997   3.600775000000001  48.378791000000000 0
ion Pt   2.615763999999999  15.003643000000002  48.378791000000000 0
ion Pt   0.003259999999997  10.807981000000000  46.702193999999999 0
ion Pt  -2.612737000000003  22.210849000000000  46.702193999999999 0
ion Pt   5.235255999999998  10.807981000000000  46.702193999999999 0
ion Pt   2.619258999999996  22.210849000000000  46.702193999999999 0
ion Pt   2.622014999999998   6.586662000000000  44.975670000000001 0
ion Pt   0.006012999999998  17.989553000000001  44.975670000000001 0
ion Pt   7.854010999999994   6.586662000000000  44.975670000000001 0
ion Pt   5.238008999999995  17.989553000000001  44.975670000000001 0
ion Pt   0.008073000000000   2.374602000000000  43.269012999999980 0
ion Pt  -2.607924000000001  13.777469999999999  43.269012999999980 0
ion Pt   5.240068999999997   2.374602000000000  43.269012999999980 0
ion Pt   2.624072000000000  13.777469999999999  43.269012999999980 0
ion Pt   0.010323999999998   9.538157000000000  41.602607999999996 0
ion Pt  -2.605673000000003  20.941025000000000  41.602607999999996 0
ion Pt   5.242318999999997   9.538157000000000  41.602607999999996 0
ion Pt   2.626321999999996  20.941025000000000  41.602607999999996 0
ion Pt   2.624333000000000   5.415154000000000  39.845444000000001 0
ion Pt   0.008335999999997  16.818021999999999  39.845444000000001 0
ion Pt   7.856328999999996   5.415154000000000  39.845444000000001 0
ion Pt   5.240331999999994  16.818021999999999  39.845444000000001 0
ion Pt   0.007414000000000   1.147015000000000  38.303145000000001 0
ion Pt  -2.608583000000000  12.549882999999999  38.303145000000001 0
ion Pt   5.239410000000000   1.147015000000000  38.303145000000001 0
ion Pt   2.623413000000000  12.549882999999999  38.303145000000001 0
ion Pt   0.003689000000000   8.293875999999999  36.265515999999998 0
ion Pt  -2.612297000000004  19.696744000000002  36.265515999999998 0
ion Pt   5.235684999999995   8.293875999999999  36.265515999999998 0
ion Pt   2.619687999999994  19.696744000000002  36.265515999999998 0
ion Pt   2.620486999999999   4.286566000000000  34.640458000000002 0
ion Pt   0.004495999999999  15.689412000000003  34.640458000000002 0
ion Pt   7.852483000000000   4.286566000000000  34.640458000000002 0
ion Pt   5.236490999999998  15.689412000000003  34.640458000000002 0
ion C   2.611572999999998  14.318308000000002   0.411295566101643 1  Linear 0 0 1
ion O   2.671667999999997  14.318308000000002   2.654977647351636 1  Linear 0 0 1
ion-species /projects/musgravc/apps/jdftx-1.6.0/build/pseudopotentials/GBRV_v1.5/$ID_pbe_v1.uspp
ion-species /projects/musgravc/apps/jdftx-1.6.0/build/pseudopotentials/GBRV_v1.5/$ID_pbe_v1.2.uspp
ion-species /projects/musgravc/apps/jdftx-1.6.0/build/pseudopotentials/GBRV_v1.5/$ID_pbe_v1.4.uspp
ion-species /projects/musgravc/apps/jdftx-1.6.0/build/pseudopotentials/GBRV_v1.5/$ID_pbe_v1.5.uspp
ion-width Ecut
ionic-minimize  \
	dirUpdateScheme      L-BFGS \
	linminMethod         DirUpdateRecommended \
	nIterations          100 \
	history              15 \
	knormThreshold       0.0001 \
	energyDiffThreshold  1e-06 \
	nEnergyDiff          2 \
	alphaTstart          1 \
	alphaTmin            1e-10 \
	updateTestStepSize   yes \
	alphaTreduceFactor   0.1 \
	alphaTincreaseFactor 3 \
	nAlphaAdjustMax      3 \
	wolfeEnergy          0.0001 \
	wolfeGradient        0.9 \
	fdTest               no
kpoint   0.000000000000   0.000000000000   0.000000000000  1.00000000000000
kpoint-folding 5 2 1 
latt-move-scale 0 0 0
latt-scale 1 1 1 
lattice  \
	  10.463991999999999   -5.231994000000000    0.000000000000000  \
	   0.000000000000000   22.805736000000000    0.000000000000000  \
	   0.000000000000000    0.000000000000000   64.504367000000002 
lattice-minimize  \
	dirUpdateScheme      L-BFGS \
	linminMethod         DirUpdateRecommended \
	nIterations          0 \
	history              15 \
	knormThreshold       0 \
	energyDiffThreshold  1e-06 \
	nEnergyDiff          2 \
	alphaTstart          1 \
	alphaTmin            1e-10 \
	updateTestStepSize   yes \
	alphaTreduceFactor   0.1 \
	alphaTincreaseFactor 3 \
	nAlphaAdjustMax      3 \
	wolfeEnergy          0.0001 \
	wolfeGradient        0.9 \
	fdTest               no
lcao-params 30 1e-06 0.001
pcm-variant CANDLE
spintype z-spin
subspace-rotation-factor 1 yes
symmetries automatic
symmetry-threshold 0.0001
van-der-waals D3



---------- Setting up symmetries ----------

Found 8 point-group symmetries of the bravais lattice
Found 1 space-group symmetries with basis
Applied RMS atom displacement 0 bohrs to make symmetries exact.

---------- Initializing the Grid ----------
R = 
[       10.464     -5.23199            0  ]
[            0      22.8057            0  ]
[            0            0      64.5044  ]
unit cell volume = 15393.3
G =
[   0.600458   0.137754         -0  ]
[          0   0.275509          0  ]
[          0         -0  0.0974071  ]
Minimum fftbox size, Smin = [  44  96  260  ]
Chosen fftbox size, S = [  48  96  270  ]

---------- Exchange Correlation functional ----------
Initalized PBE GGA exchange.
Initalized PBE GGA correlation.

---------- Setting up pseudopotentials ----------
Width of ionic core gaussian charges (only for fluid interactions / plotting) set to 0.397384

Reading pseudopotential file '/projects/musgravc/apps/jdftx-1.6.0/build/pseudopotentials/GBRV_v1.5/pt_pbe_v1.4.uspp':
  Title: Pt.  Created by USPP 7.3.6 on 31-3-15
  Reference state energy: -105.002503.  16 valence electrons in orbitals:
    |510>  occupation: 6  eigenvalue: -2.158104
    |520>  occupation: 9.5  eigenvalue: -0.335376
    |600>  occupation: 0  eigenvalue: -0.319640
    |610>  occupation: 0  eigenvalue: -0.122947
  lMax: 2  lLocal: 3  QijEcut: 5.5
  6 projectors sampled on a log grid with 745 points:
    l: 0  eig: -0.319640  rCut: 2.45
    l: 0  eig: 1.500000  rCut: 2.45
    l: 1  eig: -2.158104  rCut: 1.6
    l: 1  eig: -0.122947  rCut: 1.6
    l: 2  eig: -0.500000  rCut: 1.6
    l: 2  eig: -0.335375  rCut: 1.6
  Partial core density with radius 1.1
  Transforming core density to a uniform radial grid of dG=0.02 with 1284 points.
  Transforming local potential to a uniform radial grid of dG=0.02 with 1284 points.
  Transforming nonlocal projectors to a uniform radial grid of dG=0.02 with 432 points.
  Transforming density augmentations to a uniform radial grid of dG=0.02 with 1284 points.
  Transforming atomic orbitals to a uniform radial grid of dG=0.02 with 432 points.
  Core radius for overlap checks: 2.45 bohrs.

Reading pseudopotential file '/projects/musgravc/apps/jdftx-1.6.0/build/pseudopotentials/GBRV_v1.5/c_pbe_v1.2.uspp':
  Title: C.  Created by USPP 7.3.6 on 3-2-2014
  Reference state energy: -5.406344.  4 valence electrons in orbitals:
    |200>  occupation: 2  eigenvalue: -0.504890
    |210>  occupation: 2  eigenvalue: -0.194356
  lMax: 1  lLocal: 2  QijEcut: 5
  4 projectors sampled on a log grid with 503 points:
    l: 0  eig: -0.504890  rCut: 1.3
    l: 0  eig: 0.000000  rCut: 1.3
    l: 1  eig: -0.194357  rCut: 1.3
    l: 1  eig: 0.000000  rCut: 1.3
  Partial core density with radius 1.1
  Transforming core density to a uniform radial grid of dG=0.02 with 1284 points.
  Transforming local potential to a uniform radial grid of dG=0.02 with 1284 points.
  Transforming nonlocal projectors to a uniform radial grid of dG=0.02 with 432 points.
  Transforming density augmentations to a uniform radial grid of dG=0.02 with 1284 points.
  Transforming atomic orbitals to a uniform radial grid of dG=0.02 with 432 points.
  Core radius for overlap checks: 1.30 bohrs.

Reading pseudopotential file '/projects/musgravc/apps/jdftx-1.6.0/build/pseudopotentials/GBRV_v1.5/o_pbe_v1.2.uspp':
  Title: O.  Created by USPP 7.3.6 on 3-2-2014
  Reference state energy: -15.894388.  6 valence electrons in orbitals:
    |200>  occupation: 2  eigenvalue: -0.878823
    |210>  occupation: 4  eigenvalue: -0.332131
  lMax: 2  lLocal: 2  QijEcut: 6
  5 projectors sampled on a log grid with 511 points:
    l: 0  eig: -0.878823  rCut: 1.25
    l: 0  eig: 0.000000  rCut: 1.25
    l: 1  eig: -0.332132  rCut: 1.25
    l: 1  eig: 0.000000  rCut: 1.25
    l: 2  eig: 1.000000  rCut: 1.25
  Partial core density with radius 0.7
  Transforming core density to a uniform radial grid of dG=0.02 with 1284 points.
  Transforming local potential to a uniform radial grid of dG=0.02 with 1284 points.
  Transforming nonlocal projectors to a uniform radial grid of dG=0.02 with 432 points.
  Transforming density augmentations to a uniform radial grid of dG=0.02 with 1284 points.
  Transforming atomic orbitals to a uniform radial grid of dG=0.02 with 432 points.
  Core radius for overlap checks: 1.25 bohrs.

Initialized 3 species with 78 total atoms.

Folded 1 k-points by 5x2x1 to 10 k-points.

---------- Setting up k-points, bands, fillings ----------
Adding inversion symmetry to k-mesh for non-inversion-symmetric unit cell.
Reduced to 6 k-points under symmetry. 
Computing the number of bands and number of electrons
Reading initial fillings from file jdft.fillings.
nElectrons: 1226.000000   nBands: 736   nStates: 12

----- Setting up reduced wavefunction bases (one per k-point) -----
average nbasis = 65749.100 , ideal nbasis = 65761.180

----- Initializing Supercell corresponding to k-point mesh -----
Lattice vector linear combinations in supercell:
[   5   0   0  ]
[   0   2   0  ]
[   0   0   1  ]
Supercell lattice vectors:
[  52.32  -10.464  0  ]
[  0  45.6115  0  ]
[  0  0  64.5044  ]

Initializing DFT-D3 calculator:
	Parameters set for gga-PBE functional
	s6:  1.000  s_r6:  1.217
	s8:  0.722  s_r8:  1.000
	Per-atom parameters loaded for:
	Pt:  sqrtQ[a0]:  5.888  Rcov[a0]:  2.116  CN: [ 0.00 1.92 6.67 ]
	 C:  sqrtQ[a0]:  3.105  Rcov[a0]:  1.417  CN: [ 0.00 0.99 2.00 3.00 3.98 ]
	 O:  sqrtQ[a0]:  2.594  Rcov[a0]:  1.191  CN: [ 0.00 0.99 1.99 ]

Initializing DFT-D2 calculator for fluid / solvation:
	Pt:  C6:  815.23 Eh-a0^6  R0: 3.326 a0 (WARNING: beyond Grimme's data set)
	 C:  C6:   30.35 Eh-a0^6  R0: 2.744 a0
	 O:  C6:   12.14 Eh-a0^6  R0: 2.536 a0

---------- Setting up ewald sum ----------
Optimum gaussian width for ewald sums = 4.801068 bohr.
Real space sum over 455 unit cells with max indices [  6  3  2  ]
Reciprocal space sum over 9405 terms with max indices [  5  9  22  ]

Computing DFT-D3 correction:
# coordination-number Pt 5.972 5.986 5.972 6.779 7.106 8.108 7.106 8.111 8.597 8.563 8.566 8.563 5.972 5.972 5.972 5.972 9.224 9.225 9.224 9.228 9.402 9.403 9.402 9.403 9.504 9.504 9.504 9.504 9.524 9.524 9.524 9.524 9.562 9.562 9.562 9.562 9.557 9.557 9.557 9.557 9.569 9.569 9.569 9.569 9.555 9.555 9.555 9.555 9.558 9.558 9.558 9.558 9.521 9.521 9.521 9.521 9.503 9.503 9.503 9.503 9.404 9.404 9.404 9.404 9.227 9.227 9.227 9.227 8.566 8.566 8.566 8.566 7.110 7.110 7.110 7.110
# coordination-number C 3.793
# coordination-number O 1.099
# diagonal-C6 Pt 336.87 336.87 336.87 336.87 336.87 336.87 336.87 336.87 336.87 336.87 336.87 336.87 336.87 336.87 336.87 336.87 336.87 336.87 336.87 336.87 336.87 336.87 336.87 336.87 336.87 336.87 336.87 336.87 336.87 336.87 336.87 336.87 336.87 336.87 336.87 336.87 336.87 336.87 336.87 336.87 336.87 336.87 336.87 336.87 336.87 336.87 336.87 336.87 336.87 336.87 336.87 336.87 336.87 336.87 336.87 336.87 336.87 336.87 336.87 336.87 336.87 336.87 336.87 336.87 336.87 336.87 336.87 336.87 336.87 336.87 336.87 336.87 336.87 336.87 336.87 336.87
# diagonal-C6 C 18.78
# diagonal-C6 O 12.73
EvdW_6 =   -0.722259
EvdW_8 =   -1.135708

---------- Allocating electronic variables ----------
Initializing wave functions:  reading from 'jdft.wfns'
----- createFluidSolver() ----- (Fluid-side solver setup)
   Initializing fluid molecule 'H2O'
     Initializing site 'O'
       Electron density: proportional to exp(-r/0.36935)*erfc((r-0.51523)/0.36823) with norm 6.826
       Charge density: gaussian nuclear width 0.478731 with net site charge 0.826
       Polarizability: cuspless exponential with width 0.32 and norm 3.73
       Hard sphere radius: 2.57003 bohrs
       Positions in reference frame:
         [ +0.000000 +0.000000 +0.000000 ]
     Initializing site 'H'
       Electron density: proportional to exp(-r/0.34641)*erfc((r-0)/0.390882) with norm 0.587
       Charge density: gaussian nuclear width 0.377945 with net site charge -0.413
       Polarizability: cuspless exponential with width 0.39 and norm 3.3
       Positions in reference frame:
         [ +0.000000 -1.441945 +1.122523 ]
         [ +0.000000 +1.441945 +1.122523 ]
     Net charge: 0   dipole magnitude: 0.927204
     Initializing spherical shell mfKernel with radius 2.61727 Bohr
     deltaS corrections:
       site 'O': -7.54299
       site 'H': -6.83917
   Initializing fluid molecule 'Na+'
     Initializing site 'Na'
       Electron density: proportional to exp(-r/0.19682)*erfc((r-0.71491)/0.41314) with norm 8.1383
       Charge density: gaussian nuclear width 0.365347 with net site charge -1
       Hard sphere radius: 1.86327 bohrs
       Positions in reference frame:
         [ +0.000000 +0.000000 +0.000000 ]
     Net charge: -1   dipole magnitude: 0
     Initializing gaussian mfKernel with width: 1.55004 Bohr
     deltaS corrections:
       site 'Na': -22.3555
   Initializing fluid molecule 'F-'
     Initializing site 'F'
       Electron density: proportional to exp(-r/0.38886)*erfc((r-0)/0.438782) with norm 8
       Charge density: gaussian nuclear width 0.374796 with net site charge 1
       Hard sphere radius: 2.39995 bohrs
       Positions in reference frame:
         [ +0.000000 +0.000000 +0.000000 ]
     Net charge: 1   dipole magnitude: 0
     Initializing gaussian mfKernel with width: 1.59012 Bohr
     deltaS corrections:
       site 'F': -9.04335

Correction to mu due to finite nuclear width = -0.0790241
   Cavity determined by nc: 0.00142 and sigma: 0.707107
   Nonlocal vdW cavity from gaussian model electron density with norm = 8 and sigma = 0.993594 bohr
   Charge asymmetry in cavity with sensitivity pCavity = 36.5 e-bohr/Eh
   Electrostatic cavity expanded by eta = 1.46 bohrs
   Weighted density cavitation model constrained by Nbulk: 0.0049383 bohr^-3, Pvap: 3.14029 kPa, Rvdw: 2.61727 bohr and sigmaBulk: 4.62e-05 Eh/bohr^2 at T: 298 K.
   Weighted density dispersion model using vdW pair potentials with single solvent site with sqrtC6eff: 0.77 SI.
Reading fluid state from 'jdft.fluidState'


---- Citations for features of the code used in this run ----

   Software package:
      R. Sundararaman, K. Letchworth-Weaver, K.A. Schwarz, D. Gunceler, Y. Ozhabes and T.A. Arias, 'JDFTx: software for joint density-functional theory', SoftwareX 6, 278 (2017)

   gga-PBE exchange-correlation functional:
      J.P. Perdew, K. Burke and M. Ernzerhof, Phys. Rev. Lett. 77, 3865 (1996)

   Pseudopotentials:
      KF Garrity, JW Bennett, KM Rabe and D Vanderbilt, Comput. Mater. Sci. 81, 446 (2014)

   DFT-D3 dispersion correction:
      S. Grimme, J. Antony, S. Ehrlich and H. Krieg, J. Chem. Phys. 132, 154104 (2010)

   DFT-D2 dispersion correction:
      S. Grimme, J. Comput. Chem. 27, 1787 (2006)

   Charge-asymmetric nonlocally-determined local-electric (CANDLE) solvation model:
      R. Sundararaman and W.A. Goddard III, J. Chem. Phys. 142, 064107 (2015)

   Total energy minimization with Auxiliary Hamiltonian:
      C. Freysoldt, S. Boeck, and J. Neugebauer, Phys. Rev. B 79, 241103(R) (2009)

   Linear-tetrahedron sampling for density of states:
      G. Lehmann and M. Taut, Phys. status solidi (b) 54, 469 (1972)

This list may not be complete. Please suggest additional citations or
report any other bugs at https://github.com/shankar1729/jdftx/issues

Initialization completed successfully at t[s]:     77.07


Computing DFT-D3 correction:
# coordination-number Pt 5.972 5.986 5.972 6.779 7.106 8.108 7.106 8.111 8.597 8.563 8.566 8.563 5.972 5.972 5.972 5.972 9.224 9.225 9.224 9.228 9.402 9.403 9.402 9.403 9.504 9.504 9.504 9.504 9.524 9.524 9.524 9.524 9.562 9.562 9.562 9.562 9.557 9.557 9.557 9.557 9.569 9.569 9.569 9.569 9.555 9.555 9.555 9.555 9.558 9.558 9.558 9.558 9.521 9.521 9.521 9.521 9.503 9.503 9.503 9.503 9.404 9.404 9.404 9.404 9.227 9.227 9.227 9.227 8.566 8.566 8.566 8.566 7.110 7.110 7.110 7.110
# coordination-number C 3.793
# coordination-number O 1.099
# diagonal-C6 Pt 336.87 336.87 336.87 336.87 336.87 336.87 336.87 336.87 336.87 336.87 336.87 336.87 336.87 336.87 336.87 336.87 336.87 336.87 336.87 336.87 336.87 336.87 336.87 336.87 336.87 336.87 336.87 336.87 336.87 336.87 336.87 336.87 336.87 336.87 336.87 336.87 336.87 336.87 336.87 336.87 336.87 336.87 336.87 336.87 336.87 336.87 336.87 336.87 336.87 336.87 336.87 336.87 336.87 336.87 336.87 336.87 336.87 336.87 336.87 336.87 336.87 336.87 336.87 336.87 336.87 336.87 336.87 336.87 336.87 336.87 336.87 336.87 336.87 336.87 336.87 336.87
# diagonal-C6 C 18.78
# diagonal-C6 O 12.73
EvdW_6 =   -0.722259
EvdW_8 =   -1.135708

-------- Electronic minimization -----------
	Linear fluid (dielectric constant: 78.4, screening length: 8.12261 Bohr) occupying 0.360637 of unit cell:	Completed after 20 iterations at t[s]:    111.96
	FillingsUpdate:  mu: -0.188417300  nElectrons: 1226.000000  magneticMoment: [ Abs: 0.00000  Tot: -0.00000 ]
ElecMinimize: Iter:   0  F: -6783.772593462314035  |grad|_K:  5.065e-06  alpha:  1.000e+00
	Linear fluid (dielectric constant: 78.4, screening length: 8.12261 Bohr) occupying 0.386914 of unit cell:	Completed after 38 iterations at t[s]:    418.27
	Linear fluid (dielectric constant: 78.4, screening length: 8.12261 Bohr) occupying 0.360662 of unit cell:	Completed after 33 iterations at t[s]:    523.13
	FillingsUpdate:  mu: -0.190255756  nElectrons: 1226.000000  magneticMoment: [ Abs: 0.00000  Tot: -0.00000 ]
	SubspaceRotationAdjust: set factor to 0.395
ElecMinimize: Iter:   1  F: -6783.772671523647659  |grad|_K:  9.308e-07  alpha:  5.693e-03  linmin:  3.826e-02  t[s]:    654.32
	Linear fluid (dielectric constant: 78.4, screening length: 8.12261 Bohr) occupying 0.360657 of unit cell:	Completed after 11 iterations at t[s]:    796.78
	Linear fluid (dielectric constant: 78.4, screening length: 8.12261 Bohr) occupying 0.360657 of unit cell:	Completed after 3 iterations at t[s]:    890.56
	FillingsUpdate:  mu: -0.190656244  nElectrons: 1226.000000  magneticMoment: [ Abs: 0.00000  Tot: -0.00000 ]
	SubspaceRotationAdjust: set factor to 0.23
ElecMinimize: Iter:   2  F: -6783.772674479489069  |grad|_K:  1.373e-07  alpha:  6.379e-03  linmin: -2.892e-03  t[s]:   1022.08
	Linear fluid (dielectric constant: 78.4, screening length: 8.12261 Bohr) occupying 0.360656 of unit cell:	Completed after 2 iterations at t[s]:   1162.21
ElecMinimize: 	Predicted alpha/alphaT>3.000000, increasing alphaT to 1.913611e-02.
	Linear fluid (dielectric constant: 78.4, screening length: 8.12261 Bohr) occupying 0.360656 of unit cell:	Completed after 2 iterations at t[s]:   1255.87
ElecMinimize: 	Predicted alpha/alphaT>3.000000, increasing alphaT to 5.740832e-02.
	Linear fluid (dielectric constant: 78.4, screening length: 8.12261 Bohr) occupying 0.360656 of unit cell:	Completed after 4 iterations at t[s]:   1350.02
	Linear fluid (dielectric constant: 78.4, screening length: 8.12261 Bohr) occupying 0.360655 of unit cell:	Completed after 4 iterations at t[s]:   1444.47
	FillingsUpdate:  mu: -0.190600538  nElectrons: 1226.000000  magneticMoment: [ Abs: 0.00000  Tot: -0.00000 ]
	SubspaceRotationAdjust: set factor to 0.144
ElecMinimize: Iter:   3  F: -6783.772675458243612  |grad|_K:  5.425e-08  alpha:  8.811e-02  linmin:  6.900e-04  t[s]:   1575.32
	Linear fluid (dielectric constant: 78.4, screening length: 8.12261 Bohr) occupying 0.360656 of unit cell:	Completed after 6 iterations at t[s]:   1717.49
	Linear fluid (dielectric constant: 78.4, screening length: 8.12261 Bohr) occupying 0.360656 of unit cell:	Completed after 0 iterations at t[s]:   1810.12
	FillingsUpdate:  mu: -0.190434479  nElectrons: 1226.000000  magneticMoment: [ Abs: 0.00000  Tot: -0.00000 ]
	SubspaceRotationAdjust: set factor to 0.0829
	SubspaceRotationAdjust: resetting CG because factor has changed by 0.0829472
	Linear fluid (dielectric constant: 78.4, screening length: 8.12261 Bohr) occupying 0.360656 of unit cell:	Completed after 0 iterations at t[s]:   1967.30
ElecMinimize: 	State modified externally: resetting search direction.
ElecMinimize: Iter:   4  F: -6783.772675583748423  |grad|_K:  4.229e-08  alpha:  7.460e-02
	Linear fluid (dielectric constant: 78.4, screening length: 8.12261 Bohr) occupying 0.360656 of unit cell:	Completed after 4 iterations at t[s]:   2238.29
	Linear fluid (dielectric constant: 78.4, screening length: 8.12261 Bohr) occupying 0.360656 of unit cell:	Completed after 0 iterations at t[s]:   2331.35
	FillingsUpdate:  mu: -0.190515544  nElectrons: 1226.000000  magneticMoment: [ Abs: 0.00000  Tot: -0.00000 ]
	SubspaceRotationAdjust: set factor to 0.0703
ElecMinimize: Iter:   5  F: -6783.772675648410768  |grad|_K:  1.837e-08  alpha:  6.610e-02  linmin: -1.229e-02  t[s]:   2462.46
	Linear fluid (dielectric constant: 78.4, screening length: 8.12261 Bohr) occupying 0.360656 of unit cell:	Completed after 0 iterations at t[s]:   2600.76
ElecMinimize: 	Wrong curvature in test step, increasing alphaT to 1.983014e-01.
	Linear fluid (dielectric constant: 78.4, screening length: 8.12261 Bohr) occupying 0.360656 of unit cell:	Completed after 0 iterations at t[s]:   2632.21
	FillingsUpdate:  mu: -0.190515635  nElectrons: 1226.000000  magneticMoment: [ Abs: 0.00000  Tot: -0.00000 ]
	SubspaceRotationAdjust: set factor to 0.06
ElecMinimize: Iter:   6  F: -6783.772675677281768  |grad|_K:  1.694e-08  alpha: -2.687e+01  linmin: -6.174e-02  t[s]:   2763.72
ElecMinimize: Converged (|Delta F|<1.000000e-07 for 2 iters).
Setting wave functions to eigenvectors of Hamiltonian
Converging empty states (this may take a while): |deigs|: 6.033e-09

Computing DFT-D3 correction:
# coordination-number Pt 5.972 5.986 5.972 6.779 7.106 8.108 7.106 8.111 8.597 8.563 8.566 8.563 5.972 5.972 5.972 5.972 9.224 9.225 9.224 9.228 9.402 9.403 9.402 9.403 9.504 9.504 9.504 9.504 9.524 9.524 9.524 9.524 9.562 9.562 9.562 9.562 9.557 9.557 9.557 9.557 9.569 9.569 9.569 9.569 9.555 9.555 9.555 9.555 9.558 9.558 9.558 9.558 9.521 9.521 9.521 9.521 9.503 9.503 9.503 9.503 9.404 9.404 9.404 9.404 9.227 9.227 9.227 9.227 8.566 8.566 8.566 8.566 7.110 7.110 7.110 7.110
# coordination-number C 3.793
# coordination-number O 1.099
# diagonal-C6 Pt 336.87 336.87 336.87 336.87 336.87 336.87 336.87 336.87 336.87 336.87 336.87 336.87 336.87 336.87 336.87 336.87 336.87 336.87 336.87 336.87 336.87 336.87 336.87 336.87 336.87 336.87 336.87 336.87 336.87 336.87 336.87 336.87 336.87 336.87 336.87 336.87 336.87 336.87 336.87 336.87 336.87 336.87 336.87 336.87 336.87 336.87 336.87 336.87 336.87 336.87 336.87 336.87 336.87 336.87 336.87 336.87 336.87 336.87 336.87 336.87 336.87 336.87 336.87 336.87 336.87 336.87 336.87 336.87 336.87 336.87 336.87 336.87 336.87 336.87 336.87 336.87
# diagonal-C6 C 18.78
# diagonal-C6 O 12.73
EvdW_6 =   -0.722259
EvdW_8 =   -1.135708

# Ionic positions in cartesian coordinates:
ion Pt  -0.003625000000000   7.025740000000002  63.415598000000003 0
ion Pt  -2.619617000000003  18.428585999999999  63.415598000000003 0
ion Pt   5.228370999999997   7.025740000000002  63.415598000000003 0
ion Pt   2.612378999999996  18.428585999999999  63.415598000000003 0
ion Pt   2.611577000000000   2.915417000000001  62.117125000000001 0
ion Pt  -0.004425000000000  14.318308000000002  62.117125000000001 0
ion Pt   7.843572999999998   2.915417000000001  62.117125000000001 0
ion Pt   5.227570999999999  14.318308000000002  62.117125000000001 0
ion Pt   2.612163999999999  10.310451000000000  60.490712000000002 0
ion Pt  -0.003844000000004  21.713318999999998  60.490712000000002 0
ion Pt   7.844159999999993  10.310451000000000  60.490712000000002 0
ion Pt   5.228162999999994  21.713318999999998  60.490712000000002 0
ion Pt   0.004081000000000   0.176152000000000  33.343209999999999 0
ion Pt  -2.611916000000000  11.579020000000002  33.343209999999999 0
ion Pt   5.236076999999999   0.176152000000000  33.343209999999999 0
ion Pt   2.620079999999998  11.579020000000002  33.343209999999999 0
ion Pt  -0.007031000000000   6.054923000000000  58.452824999999997 0
ion Pt  -2.623034000000003  17.457813999999999  58.452824999999997 0
ion Pt   5.224965000000000   6.054923000000000  58.452824999999997 0
ion Pt   2.608961999999995  17.457813999999999  58.452824999999997 0
ion Pt   2.607397000000000   1.786647000000000  56.910010000000000 0
ion Pt  -0.008600000000003  13.189515000000004  56.910010000000000 0
ion Pt   7.839392999999996   1.786647000000000  56.910010000000000 0
ion Pt   5.223384999999997  13.189515000000004  56.910010000000000 0
ion Pt   2.605691999999999   9.066512000000001  55.152394999999999 0
ion Pt  -0.010305000000004  20.469380000000001  55.152394999999999 0
ion Pt   7.837687999999996   9.066512000000001  55.152394999999999 0
ion Pt   5.221690999999995  20.469380000000001  55.152394999999999 0
ion Pt  -0.008156000000000   4.827131000000000  53.486634000000002 0
ion Pt  -2.624153000000002  16.229998999999999  53.486634000000002 0
ion Pt   5.223839999999997   4.827131000000000  53.486634000000002 0
ion Pt   2.607842999999997  16.229998999999999  53.486634000000002 0
ion Pt   2.609735000000000   0.615322000000000  51.780881000000001 0
ion Pt  -0.006262000000001  12.018190000000002  51.780881000000001 0
ion Pt   7.841730999999995   0.615322000000000  51.780881000000001 0
ion Pt   5.225733999999997  12.018190000000002  51.780881000000001 0
ion Pt   2.612801999999998   7.796666000000001  50.055065999999997 0
ion Pt  -0.003195000000004  19.199534000000003  50.055065999999997 0
ion Pt   7.844797999999995   7.796666000000001  50.055065999999997 0
ion Pt   5.228800999999995  19.199534000000003  50.055065999999997 0
ion Pt  -0.000235000000000   3.600775000000001  48.378791000000000 0
ion Pt  -2.616232000000001  15.003643000000002  48.378791000000000 0
ion Pt   5.231760999999997   3.600775000000001  48.378791000000000 0
ion Pt   2.615763999999999  15.003643000000002  48.378791000000000 0
ion Pt   0.003259999999997  10.807981000000000  46.702193999999999 0
ion Pt  -2.612737000000003  22.210849000000000  46.702193999999999 0
ion Pt   5.235255999999998  10.807981000000000  46.702193999999999 0
ion Pt   2.619258999999996  22.210849000000000  46.702193999999999 0
ion Pt   2.622014999999998   6.586662000000000  44.975670000000001 0
ion Pt   0.006012999999998  17.989553000000001  44.975670000000001 0
ion Pt   7.854010999999994   6.586662000000000  44.975670000000001 0
ion Pt   5.238008999999995  17.989553000000001  44.975670000000001 0
ion Pt   0.008073000000000   2.374602000000000  43.269012999999980 0
ion Pt  -2.607924000000001  13.777469999999999  43.269012999999980 0
ion Pt   5.240068999999997   2.374602000000000  43.269012999999980 0
ion Pt   2.624072000000000  13.777469999999999  43.269012999999980 0
ion Pt   0.010323999999998   9.538157000000000  41.602607999999996 0
ion Pt  -2.605673000000003  20.941025000000000  41.602607999999996 0
ion Pt   5.242318999999997   9.538157000000000  41.602607999999996 0
ion Pt   2.626321999999996  20.941025000000000  41.602607999999996 0
ion Pt   2.624333000000000   5.415154000000000  39.845444000000001 0
ion Pt   0.008335999999997  16.818021999999999  39.845444000000001 0
ion Pt   7.856328999999996   5.415154000000000  39.845444000000001 0
ion Pt   5.240331999999994  16.818021999999999  39.845444000000001 0
ion Pt   0.007414000000000   1.147015000000000  38.303145000000001 0
ion Pt  -2.608583000000000  12.549882999999999  38.303145000000001 0
ion Pt   5.239410000000000   1.147015000000000  38.303145000000001 0
ion Pt   2.623413000000000  12.549882999999999  38.303145000000001 0
ion Pt   0.003689000000000   8.293875999999999  36.265515999999998 0
ion Pt  -2.612297000000004  19.696744000000002  36.265515999999998 0
ion Pt   5.235684999999995   8.293875999999999  36.265515999999998 0
ion Pt   2.619687999999994  19.696744000000002  36.265515999999998 0
ion Pt   2.620486999999999   4.286566000000000  34.640458000000002 0
ion Pt   0.004495999999999  15.689412000000003  34.640458000000002 0
ion Pt   7.852483000000000   4.286566000000000  34.640458000000002 0
ion Pt   5.236490999999998  15.689412000000003  34.640458000000002 0
ion C   2.611572999999998  14.318308000000002   0.411295566101643 1  Linear 0 0 1
ion O   2.671667999999997  14.318308000000002   2.654977647351636 1  Linear 0 0 1

# Forces in Cartesian coordinates:
force Pt  -0.000047232481300  -0.000392384905421   0.000577275697206 0
force Pt  -0.000105424514851   0.007801514850189  -0.001545163448295 0
force Pt  -0.000072014589491  -0.000213137349247   0.000553716798771 0
force Pt  -0.000300805243171   0.016981904155784  -0.001683087892075 0
force Pt   0.000247166020956  -0.000567442413323  -0.000164276771394 0
force Pt  -0.009362761153323  -0.009006970473726   0.007506928748397 0
force Pt   0.000236847163384   0.000049059870680  -0.000245625920523 0
force Pt   0.009921197447111  -0.008819230291435   0.005729320989228 0
force Pt   0.000254717741322  -0.010789501820799  -0.009182612740101 0
force Pt   0.000045145855316  -0.000614945361981  -0.000710375494994 0
force Pt   0.000058182604836  -0.003150021626431  -0.001867079155708 0
force Pt   0.000233108192503  -0.000780405965612  -0.000710711643313 0
force Pt   0.000230458290738   0.000094884872511  -0.000576005050216 0
force Pt   0.000219459836175  -0.000135011886292  -0.000526242184880 0
force Pt  -0.000001473567242   0.000065561233330  -0.000559686521582 0
force Pt   0.000216605240740  -0.000081077015510  -0.000776309874144 0
force Pt   0.000115535644819  -0.000156759533660  -0.000126695348648 0
force Pt  -0.000135918258258  -0.002831391644909   0.003492850992515 0
force Pt  -0.000289394692747  -0.000021732577557  -0.000104081244314 0
force Pt  -0.000108208490527   0.003761695527076  -0.006115383349571 0
force Pt  -0.000062464179617   0.001372354351729   0.000229265971664 0
force Pt  -0.000389481743431   0.000933798673718   0.000992693243930 0
force Pt  -0.000154670774719   0.000236091441910   0.001227821273127 0
force Pt   0.000321406506502   0.000766428638010   0.000688845835657 0
force Pt   0.000113916912824   0.000245421493229  -0.000104762645559 0
force Pt   0.000720832321648   0.000582680725956  -0.001246534223458 0
force Pt   0.000097494049350   0.000347298196549   0.000169935555567 0
force Pt  -0.000240042026148   0.000623437380580  -0.001307464672026 0
force Pt   0.000216251786463  -0.000310707518201  -0.000083587381337 0
force Pt   0.000120660969340  -0.000544604349431   0.000792180036916 0
force Pt   0.000214222558614  -0.000487793616506  -0.000150498136723 0
force Pt   0.000074632640139  -0.001040869234997  -0.000339583622890 0
force Pt  -0.000100890300863  -0.000522432994114   0.000276244607220 0
force Pt  -0.000005781976953  -0.000052485968938  -0.001662630994010 0
force Pt   0.000002253182955   0.001486627133863  -0.001179020823392 0
force Pt  -0.000011524952616  -0.000048075961100  -0.001629265448051 0
force Pt   0.000336781810709   0.000491161091485   0.000128349278807 0
force Pt   0.000255632033554  -0.000377371304619   0.000205863992115 0
force Pt   0.000228332228918   0.000143024079585   0.000101251864138 0
force Pt   0.000285191297679  -0.000344328786222   0.000333405482026 0
force Pt   0.000271729326993   0.000285904879138   0.000101031525184 0
force Pt  -0.000025125039243  -0.000161281713607   0.000463242927721 0
force Pt  -0.000251643228599   0.000171167489900   0.000193055693585 0
force Pt  -0.000007707442389  -0.000154775510110   0.000569350890555 0
force Pt  -0.000297405920777   0.000242779757687  -0.001211979384349 0
force Pt  -0.000330360432612   0.000569259932036   0.000136407364242 0
force Pt  -0.000257565140516   0.000233609407723  -0.001042069399169 0
force Pt  -0.000160895209500   0.000285241627290  -0.000055903994718 0
force Pt   0.000103395386978  -0.000508522150165   0.000121065752442 0
force Pt   0.000086197468223  -0.000422428974448  -0.000248996615393 0
force Pt   0.000040114053713  -0.000181823963996  -0.000505027483464 0
force Pt   0.000104963069850  -0.000445916887127  -0.000356478486328 0
force Pt  -0.000203220817157   0.000433218760103   0.000096317707691 0
force Pt  -0.000263207792721   0.000246880862082   0.000253888324758 0
force Pt  -0.000107306790741   0.000354969156794   0.000096658222277 0
force Pt  -0.000123234732438   0.000265201920216   0.000426914395112 0
force Pt  -0.000045539867469  -0.000112234965374   0.000009948760682 0
force Pt  -0.000293368936396   0.000412626828277   0.000145628492489 0
force Pt  -0.000251698481268   0.000060292345042  -0.000064518409484 0
force Pt  -0.000248921473105   0.000418555810488   0.000145173064010 0
force Pt   0.000051016427430  -0.000529160439049  -0.000911145968856 0
force Pt   0.000083470617037  -0.000610710915375  -0.000697307838887 0
force Pt   0.000031902123518  -0.000343075082262  -0.000901087742536 0
force Pt   0.000053886946921  -0.000511991198486  -0.000660598400424 0
force Pt   0.000201701246026  -0.000002872352469  -0.000090307739728 0
force Pt   0.000147141063622   0.000311093720547  -0.000219107438511 0
force Pt   0.000174029200110  -0.000024201664327  -0.000164743700840 0
force Pt   0.000233776521261   0.000133629002789   0.000042667101479 0
force Pt  -0.000052991682659   0.000185944965081   0.000563819695951 0
force Pt  -0.000193007589995   0.000130990455242   0.000421010418306 0
force Pt  -0.000197973729231   0.000110899476580   0.000578933040843 0
force Pt  -0.000131184182056   0.000300848380162   0.000316745069356 0
force Pt  -0.000214983784323   0.000349578881423   0.000162679051624 0
force Pt  -0.000298196894306   0.000529973291124   0.000288132450153 0
force Pt  -0.000225132422260   0.000294379108984   0.000367050605514 0
force Pt  -0.000354655874285   0.000471542090905   0.000246485939240 0
force C   0.001088809828066   0.017137681771079  -0.001418909299784 1  Linear 0 0 1
force O  -0.001466107670717  -0.014788992932378   0.011386426190989 1  Linear 0 0 1

# Energy components:
   A_diel =       -0.0150867266246786
   Eewald =    46189.0053370230016299
       EH =    52549.7460075575654628
     Eloc =  -106703.7610350169707090
      Enl =      -77.0838951959844678
     EvdW =       -1.8579670503443169
      Exc =    -2168.0935453851866441
 Exc_core =     1245.8437192007593239
       KE =     2182.4571013946724634
  MuShift =       -0.0000000000201421
-------------------------------------
     Etot =    -6783.7593641991270488
       TS =        0.0133114781547492
-------------------------------------
        F =    -6783.7726756772817680


Dumping 'jdft.fillings' ... done
Dumping 'jdft.wfns' ... done
Dumping 'jdft.fluidState' ... done
Dumping 'jdft.ionpos' ... done
Dumping 'jdft.lattice' ... done
Dumping 'jdft.eigenvals' ... done
Dumping 'jdft.eigStats' ... 
	eMin: -2.148693 at state 6 ( [ +0.000000 +0.000000 +0.000000 ] spin -1 )
	HOMO: -0.190642 at state 0 ( [ +0.000000 +0.000000 +0.000000 ] spin 1 )
	mu  : -0.190516
	LUMO: -0.190493 at state 6 ( [ +0.000000 +0.000000 +0.000000 ] spin -1 )
	eMax: +0.109695 at state 5 ( [ +0.400000 +0.500000 +0.000000 ] spin 1 )
	HOMO-LUMO gap: +0.000149
	Optical gap  : +0.000149 at state 6 ( [ +0.000000 +0.000000 +0.000000 ] spin -1 )
Dumping 'jdft.Ecomponents' ... done
IonicMinimize: Iter:   0  F: -6783.772675677281768  |grad|_K:  8.114e-03  t[s]:   3164.43

#--- Lowdin population analysis ---
# oxidation-state Pt +0.061 +0.067 +0.061 +0.027 +0.020 -0.030 +0.020 -0.029 -0.050 -0.047 -0.052 -0.048 +0.067 +0.068 +0.067 +0.068 +0.012 -0.013 +0.012 +0.008 +0.007 -0.005 +0.010 -0.005 +0.015 +0.009 +0.015 +0.008 +0.013 +0.013 +0.014 +0.013 +0.013 +0.008 +0.011 +0.008 +0.007 +0.008 +0.007 +0.008 +0.003 +0.003 +0.003 +0.004 +0.006 +0.006 +0.006 +0.005 +0.010 +0.010 +0.010 +0.010 +0.011 +0.011 +0.011 +0.011 +0.013 +0.013 +0.013 +0.013 +0.009 +0.009 +0.009 +0.009 +0.012 +0.011 +0.012 +0.012 -0.042 -0.042 -0.042 -0.042 +0.021 +0.021 +0.021 +0.021
# magnetic-moments Pt -0.000 -0.000 -0.000 -0.000 -0.000 -0.000 -0.000 -0.000 -0.000 -0.000 -0.000 -0.000 -0.000 -0.000 -0.000 -0.000 -0.000 -0.000 -0.000 -0.000 -0.000 -0.000 -0.000 -0.000 -0.000 -0.000 -0.000 -0.000 -0.000 -0.000 -0.000 -0.000 -0.000 -0.000 -0.000 -0.000 -0.000 -0.000 -0.000 -0.000 -0.000 -0.000 -0.000 -0.000 -0.000 -0.000 -0.000 -0.000 -0.000 -0.000 -0.000 -0.000 -0.000 -0.000 -0.000 -0.000 -0.000 -0.000 -0.000 -0.000 -0.000 -0.000 -0.000 -0.000 -0.000 -0.000 -0.000 -0.000 -0.000 -0.000 -0.000 -0.000 -0.000 -0.000 -0.000 -0.000
# oxidation-state C +0.402
# magnetic-moments C -0.000
# oxidation-state O -0.180
# magnetic-moments O -0.000


Computing DFT-D3 correction:
# coordination-number Pt 5.972 5.986 5.972 6.778 7.106 8.108 7.106 8.111 8.597 8.563 8.566 8.563 5.972 5.972 5.972 5.972 9.224 9.225 9.224 9.228 9.402 9.403 9.402 9.403 9.504 9.504 9.504 9.504 9.524 9.524 9.524 9.524 9.562 9.562 9.562 9.562 9.557 9.557 9.557 9.557 9.569 9.569 9.569 9.569 9.555 9.555 9.555 9.555 9.558 9.558 9.558 9.558 9.521 9.521 9.521 9.521 9.503 9.503 9.503 9.503 9.404 9.404 9.404 9.404 9.227 9.227 9.227 9.227 8.566 8.566 8.566 8.566 7.110 7.110 7.110 7.110
# coordination-number C 3.794
# coordination-number O 1.097
# diagonal-C6 Pt 336.87 336.87 336.87 336.87 336.87 336.87 336.87 336.87 336.87 336.87 336.87 336.87 336.87 336.87 336.87 336.87 336.87 336.87 336.87 336.87 336.87 336.87 336.87 336.87 336.87 336.87 336.87 336.87 336.87 336.87 336.87 336.87 336.87 336.87 336.87 336.87 336.87 336.87 336.87 336.87 336.87 336.87 336.87 336.87 336.87 336.87 336.87 336.87 336.87 336.87 336.87 336.87 336.87 336.87 336.87 336.87 336.87 336.87 336.87 336.87 336.87 336.87 336.87 336.87 336.87 336.87 336.87 336.87 336.87 336.87 336.87 336.87 336.87 336.87 336.87 336.87
# diagonal-C6 C 18.78
# diagonal-C6 O 12.73
EvdW_6 =   -0.722255
EvdW_8 =   -1.135712

-------- Electronic minimization -----------
	Linear fluid (dielectric constant: 78.4, screening length: 8.12261 Bohr) occupying 0.360620 of unit cell:	Completed after 16 iterations at t[s]:   3339.69
	FillingsUpdate:  mu: -0.189001776  nElectrons: 1226.000000  magneticMoment: [ Abs: 0.00000  Tot: -0.00000 ]
ElecMinimize: Iter:   0  F: -6783.772636810427684  |grad|_K:  7.811e-07  alpha:  1.000e+00
	Linear fluid (dielectric constant: 78.4, screening length: 8.12261 Bohr) occupying 0.360550 of unit cell:	Completed after 24 iterations at t[s]:   3641.51
	Linear fluid (dielectric constant: 78.4, screening length: 8.12261 Bohr) occupying 0.360609 of unit cell:	Completed after 24 iterations at t[s]:   3742.94
	FillingsUpdate:  mu: -0.191568591  nElectrons: 1226.000000  magneticMoment: [ Abs: 0.00000  Tot: -0.00000 ]
	SubspaceRotationAdjust: set factor to 0.0408
ElecMinimize: Iter:   1  F: -6783.772686804896694  |grad|_K:  3.981e-07  alpha:  1.397e-01  linmin: -2.162e-04  t[s]:   3874.28
	Linear fluid (dielectric constant: 78.4, screening length: 8.12261 Bohr) occupying 0.360609 of unit cell:	Completed after 14 iterations at t[s]:   4018.18
	Linear fluid (dielectric constant: 78.4, screening length: 8.12261 Bohr) occupying 0.360609 of unit cell:	Completed after 12 iterations at t[s]:   4116.94
	FillingsUpdate:  mu: -0.190546073  nElectrons: 1226.000000  magneticMoment: [ Abs: 0.00000  Tot: -0.00000 ]
	SubspaceRotationAdjust: set factor to 0.033
ElecMinimize: Iter:   2  F: -6783.772708606581546  |grad|_K:  1.861e-07  alpha:  2.352e-01  linmin:  2.120e-05  t[s]:   4248.10
	Linear fluid (dielectric constant: 78.4, screening length: 8.12261 Bohr) occupying 0.360604 of unit cell:	Completed after 11 iterations at t[s]:   4391.39
	Linear fluid (dielectric constant: 78.4, screening length: 8.12261 Bohr) occupying 0.360604 of unit cell:	Completed after 3 iterations at t[s]:   4486.13
	FillingsUpdate:  mu: -0.190376115  nElectrons: 1226.000000  magneticMoment: [ Abs: 0.00000  Tot: -0.00000 ]
	SubspaceRotationAdjust: set factor to 0.0244
ElecMinimize: Iter:   3  F: -6783.772713908172591  |grad|_K:  1.485e-07  alpha:  2.625e-01  linmin: -2.031e-04  t[s]:   4617.44
	Linear fluid (dielectric constant: 78.4, screening length: 8.12261 Bohr) occupying 0.360606 of unit cell:	Completed after 10 iterations at t[s]:   4760.41
	Linear fluid (dielectric constant: 78.4, screening length: 8.12261 Bohr) occupying 0.360607 of unit cell:	Completed after 4 iterations at t[s]:   4855.55
	FillingsUpdate:  mu: -0.190623848  nElectrons: 1226.000000  magneticMoment: [ Abs: 0.00000  Tot: -0.00000 ]
	SubspaceRotationAdjust: set factor to 0.0275
ElecMinimize: Iter:   4  F: -6783.772718170321241  |grad|_K:  9.360e-08  alpha:  3.321e-01  linmin:  8.343e-04  t[s]:   4986.68
	Linear fluid (dielectric constant: 78.4, screening length: 8.12261 Bohr) occupying 0.360608 of unit cell:	Completed after 7 iterations at t[s]:   5128.71
	Linear fluid (dielectric constant: 78.4, screening length: 8.12261 Bohr) occupying 0.360608 of unit cell:	Completed after 2 iterations at t[s]:   5223.20
	FillingsUpdate:  mu: -0.190697583  nElectrons: 1226.000000  magneticMoment: [ Abs: 0.00000  Tot: -0.00000 ]
	SubspaceRotationAdjust: set factor to 0.0294
ElecMinimize: Iter:   5  F: -6783.772720581796420  |grad|_K:  7.897e-08  alpha:  4.691e-01  linmin: -2.401e-03  t[s]:   5355.04
	Linear fluid (dielectric constant: 78.4, screening length: 8.12261 Bohr) occupying 0.360606 of unit cell:	Completed after 11 iterations at t[s]:   5498.24
	Linear fluid (dielectric constant: 78.4, screening length: 8.12261 Bohr) occupying 0.360607 of unit cell:	Completed after 6 iterations at t[s]:   5593.68
	FillingsUpdate:  mu: -0.190571049  nElectrons: 1226.000000  magneticMoment: [ Abs: 0.00000  Tot: -0.00000 ]
	SubspaceRotationAdjust: set factor to 0.0265
ElecMinimize: Iter:   6  F: -6783.772721909818756  |grad|_K:  7.471e-08  alpha:  3.459e-01  linmin:  7.275e-04  t[s]:   5725.43
	Linear fluid (dielectric constant: 78.4, screening length: 8.12261 Bohr) occupying 0.360609 of unit cell:	Completed after 7 iterations at t[s]:   5867.73
	Linear fluid (dielectric constant: 78.4, screening length: 8.12261 Bohr) occupying 0.360610 of unit cell:	Completed after 2 iterations at t[s]:   5962.21
	FillingsUpdate:  mu: -0.190563278  nElectrons: 1226.000000  magneticMoment: [ Abs: 0.00000  Tot: -0.00000 ]
	SubspaceRotationAdjust: set factor to 0.0317
ElecMinimize: Iter:   7  F: -6783.772723605003193  |grad|_K:  7.324e-08  alpha:  5.261e-01  linmin: -3.991e-04  t[s]:   6093.63
	Linear fluid (dielectric constant: 78.4, screening length: 8.12261 Bohr) occupying 0.360613 of unit cell:	Completed after 8 iterations at t[s]:   6235.80
	Linear fluid (dielectric constant: 78.4, screening length: 8.12261 Bohr) occupying 0.360613 of unit cell:	Completed after 3 iterations at t[s]:   6330.58
	FillingsUpdate:  mu: -0.190774118  nElectrons: 1226.000000  magneticMoment: [ Abs: 0.00000  Tot: -0.00000 ]
	SubspaceRotationAdjust: set factor to 0.0337
ElecMinimize: Iter:   8  F: -6783.772725520786480  |grad|_K:  8.956e-08  alpha:  5.989e-01  linmin: -3.365e-04  t[s]:   6461.84
	Linear fluid (dielectric constant: 78.4, screening length: 8.12261 Bohr) occupying 0.360614 of unit cell:	Completed after 11 iterations at t[s]:   6605.42
	Linear fluid (dielectric constant: 78.4, screening length: 8.12261 Bohr) occupying 0.360614 of unit cell:	Completed after 9 iterations at t[s]:   6702.04
	FillingsUpdate:  mu: -0.190721525  nElectrons: 1226.000000  magneticMoment: [ Abs: 0.00000  Tot: -0.00000 ]
	SubspaceRotationAdjust: set factor to 0.0285
ElecMinimize: Iter:   9  F: -6783.772727257593942  |grad|_K:  9.559e-08  alpha:  3.610e-01  linmin:  4.291e-05  t[s]:   6834.29
	Linear fluid (dielectric constant: 78.4, screening length: 8.12261 Bohr) occupying 0.360618 of unit cell:	Completed after 8 iterations at t[s]:   6976.82
	Linear fluid (dielectric constant: 78.4, screening length: 8.12261 Bohr) occupying 0.360619 of unit cell:	Completed after 3 iterations at t[s]:   7071.23
	FillingsUpdate:  mu: -0.190531719  nElectrons: 1226.000000  magneticMoment: [ Abs: 0.00000  Tot: -0.00000 ]
	SubspaceRotationAdjust: set factor to 0.0295
ElecMinimize: Iter:  10  F: -6783.772729691741915  |grad|_K:  8.570e-08  alpha:  4.573e-01  linmin: -1.081e-04  t[s]:   7202.64
	Linear fluid (dielectric constant: 78.4, screening length: 8.12261 Bohr) occupying 0.360623 of unit cell:	Completed after 11 iterations at t[s]:   7345.42
	Linear fluid (dielectric constant: 78.4, screening length: 8.12261 Bohr) occupying 0.360623 of unit cell:	Completed after 2 iterations at t[s]:   7439.69
	FillingsUpdate:  mu: -0.190843831  nElectrons: 1226.000000  magneticMoment: [ Abs: 0.00000  Tot: -0.00000 ]
	SubspaceRotationAdjust: set factor to 0.0271
ElecMinimize: Iter:  11  F: -6783.772731447782462  |grad|_K:  8.441e-08  alpha:  4.051e-01  linmin:  2.062e-04  t[s]:   7571.32
	Linear fluid (dielectric constant: 78.4, screening length: 8.12261 Bohr) occupying 0.360623 of unit cell:	Completed after 9 iterations at t[s]:   7714.09
	Linear fluid (dielectric constant: 78.4, screening length: 8.12261 Bohr) occupying 0.360623 of unit cell:	Completed after 3 iterations at t[s]:   7809.61
	FillingsUpdate:  mu: -0.190844298  nElectrons: 1226.000000  magneticMoment: [ Abs: 0.00000  Tot: -0.00000 ]
	SubspaceRotationAdjust: set factor to 0.0248
ElecMinimize: Iter:  12  F: -6783.772732789182555  |grad|_K:  7.094e-08  alpha:  3.293e-01  linmin:  8.097e-05  t[s]:   7940.71
	Linear fluid (dielectric constant: 78.4, screening length: 8.12261 Bohr) occupying 0.360626 of unit cell:	Completed after 7 iterations at t[s]:   8083.07
	Linear fluid (dielectric constant: 78.4, screening length: 8.12261 Bohr) occupying 0.360626 of unit cell:	Completed after 0 iterations at t[s]:   8176.73
	FillingsUpdate:  mu: -0.190650590  nElectrons: 1226.000000  magneticMoment: [ Abs: 0.00000  Tot: -0.00000 ]
	SubspaceRotationAdjust: set factor to 0.0245
ElecMinimize: Iter:  13  F: -6783.772733763594260  |grad|_K:  5.374e-08  alpha:  3.341e-01  linmin: -2.189e-04  t[s]:   8307.99
	Linear fluid (dielectric constant: 78.4, screening length: 8.12261 Bohr) occupying 0.360628 of unit cell:	Completed after 6 iterations at t[s]:   8449.93
	Linear fluid (dielectric constant: 78.4, screening length: 8.12261 Bohr) occupying 0.360629 of unit cell:	Completed after 2 iterations at t[s]:   8544.18
	FillingsUpdate:  mu: -0.190727225  nElectrons: 1226.000000  magneticMoment: [ Abs: 0.00000  Tot: -0.00000 ]
	SubspaceRotationAdjust: set factor to 0.0274
ElecMinimize: Iter:  14  F: -6783.772734492327800  |grad|_K:  4.646e-08  alpha:  4.208e-01  linmin: -5.474e-04  t[s]:   8676.39
	Linear fluid (dielectric constant: 78.4, screening length: 8.12261 Bohr) occupying 0.360629 of unit cell:	Completed after 7 iterations at t[s]:   8818.22
	Linear fluid (dielectric constant: 78.4, screening length: 8.12261 Bohr) occupying 0.360629 of unit cell:	Completed after 2 iterations at t[s]:   8922.75
	FillingsUpdate:  mu: -0.190855628  nElectrons: 1226.000000  magneticMoment: [ Abs: 0.00000  Tot: -0.00000 ]
	SubspaceRotationAdjust: set factor to 0.0253
ElecMinimize: Iter:  15  F: -6783.772734959846275  |grad|_K:  4.262e-08  alpha:  3.569e-01  linmin:  2.821e-04  t[s]:   9053.79
	Linear fluid (dielectric constant: 78.4, screening length: 8.12261 Bohr) occupying 0.360630 of unit cell:	Completed after 4 iterations at t[s]:   9197.55
	Linear fluid (dielectric constant: 78.4, screening length: 8.12261 Bohr) occupying 0.360631 of unit cell:	Completed after 0 iterations at t[s]:   9291.37
	FillingsUpdate:  mu: -0.190786284  nElectrons: 1226.000000  magneticMoment: [ Abs: 0.00000  Tot: -0.00000 ]
	SubspaceRotationAdjust: set factor to 0.0326
ElecMinimize: Iter:  16  F: -6783.772735382764040  |grad|_K:  3.564e-08  alpha:  4.042e-01  linmin: -3.913e-04  t[s]:   9422.75
	Linear fluid (dielectric constant: 78.4, screening length: 8.12261 Bohr) occupying 0.360633 of unit cell:	Completed after 6 iterations at t[s]:   9564.37
	Linear fluid (dielectric constant: 78.4, screening length: 8.12261 Bohr) occupying 0.360632 of unit cell:	Completed after 1 iterations at t[s]:   9658.35
	FillingsUpdate:  mu: -0.190664320  nElectrons: 1226.000000  magneticMoment: [ Abs: 0.00000  Tot: -0.00000 ]
	SubspaceRotationAdjust: set factor to 0.0286
ElecMinimize: Iter:  17  F: -6783.772735638074664  |grad|_K:  4.351e-08  alpha:  3.386e-01  linmin: -9.181e-06  t[s]:   9789.69
	Linear fluid (dielectric constant: 78.4, screening length: 8.12261 Bohr) occupying 0.360633 of unit cell:	Completed after 5 iterations at t[s]:   9930.80
	Linear fluid (dielectric constant: 78.4, screening length: 8.12261 Bohr) occupying 0.360633 of unit cell:	Completed after 0 iterations at t[s]:  10024.37
	FillingsUpdate:  mu: -0.190761730  nElectrons: 1226.000000  magneticMoment: [ Abs: 0.00000  Tot: -0.00000 ]
	SubspaceRotationAdjust: set factor to 0.0344
ElecMinimize: Iter:  18  F: -6783.772735949268281  |grad|_K:  3.403e-08  alpha:  2.809e-01  linmin:  2.353e-04  t[s]:  10156.31
	Linear fluid (dielectric constant: 78.4, screening length: 8.12261 Bohr) occupying 0.360633 of unit cell:	Completed after 4 iterations at t[s]:  10297.23
	Linear fluid (dielectric constant: 78.4, screening length: 8.12261 Bohr) occupying 0.360633 of unit cell:	Completed after 4 iterations at t[s]:  10392.16
	FillingsUpdate:  mu: -0.190802842  nElectrons: 1226.000000  magneticMoment: [ Abs: 0.00000  Tot: -0.00000 ]
	SubspaceRotationAdjust: set factor to 0.0295
ElecMinimize: Iter:  19  F: -6783.772736204065950  |grad|_K:  4.123e-08  alpha:  4.051e-01  linmin:  3.927e-04  t[s]:  10523.40
	Linear fluid (dielectric constant: 78.4, screening length: 8.12261 Bohr) occupying 0.360635 of unit cell:	Completed after 6 iterations at t[s]:  10664.76
	Linear fluid (dielectric constant: 78.4, screening length: 8.12261 Bohr) occupying 0.360634 of unit cell:	Completed after 2 iterations at t[s]:  10759.35
	FillingsUpdate:  mu: -0.190762921  nElectrons: 1226.000000  magneticMoment: [ Abs: 0.00000  Tot: -0.00000 ]
	SubspaceRotationAdjust: set factor to 0.0297
ElecMinimize: Iter:  20  F: -6783.772736480324056  |grad|_K:  3.072e-08  alpha:  2.965e-01  linmin:  9.696e-05  t[s]:  10890.61
	Linear fluid (dielectric constant: 78.4, screening length: 8.12261 Bohr) occupying 0.360635 of unit cell:	Completed after 2 iterations at t[s]:  11031.59
	Linear fluid (dielectric constant: 78.4, screening length: 8.12261 Bohr) occupying 0.360636 of unit cell:	Completed after 2 iterations at t[s]:  11126.22
	FillingsUpdate:  mu: -0.190750551  nElectrons: 1226.000000  magneticMoment: [ Abs: 0.00000  Tot: -0.00000 ]
	SubspaceRotationAdjust: set factor to 0.0339
ElecMinimize: Iter:  21  F: -6783.772736782775610  |grad|_K:  3.083e-08  alpha:  5.740e-01  linmin:  1.776e-04  t[s]:  11257.51
	Linear fluid (dielectric constant: 78.4, screening length: 8.12261 Bohr) occupying 0.360636 of unit cell:	Completed after 7 iterations at t[s]:  11399.61
[...]
	Linear fluid (dielectric constant: 78.4, screening length: 8.12261 Bohr) occupying 0.360318 of unit cell:	Completed after 10 iterations at t[s]:  55909.21
	FillingsUpdate:  mu: -0.190693074  nElectrons: 1226.000000  magneticMoment: [ Abs: 0.00000  Tot: -0.00000 ]
	SubspaceRotationAdjust: set factor to 0.0403
ElecMinimize: Iter:   2  F: -6783.773032392354253  |grad|_K:  7.661e-08  alpha:  2.565e-01  linmin:  3.353e-03  t[s]:  56040.82
	Linear fluid (dielectric constant: 78.4, screening length: 8.12261 Bohr) occupying 0.360316 of unit cell:	Completed after 8 iterations at t[s]:  56183.23
	Linear fluid (dielectric constant: 78.4, screening length: 8.12261 Bohr) occupying 0.360316 of unit cell:	Completed after 3 iterations at t[s]:  56277.89
	FillingsUpdate:  mu: -0.190451306  nElectrons: 1226.000000  magneticMoment: [ Abs: 0.00000  Tot: -0.00000 ]
	SubspaceRotationAdjust: set factor to 0.0263
ElecMinimize: Iter:   3  F: -6783.773033083946757  |grad|_K:  3.506e-08  alpha:  2.098e-01  linmin:  4.474e-04  t[s]:  56409.21
	Linear fluid (dielectric constant: 78.4, screening length: 8.12261 Bohr) occupying 0.360316 of unit cell:	Completed after 2 iterations at t[s]:  56549.63
	Linear fluid (dielectric constant: 78.4, screening length: 8.12261 Bohr) occupying 0.360316 of unit cell:	Completed after 3 iterations at t[s]:  56644.50
	FillingsUpdate:  mu: -0.190486983  nElectrons: 1226.000000  magneticMoment: [ Abs: 0.00000  Tot: -0.00000 ]
	SubspaceRotationAdjust: set factor to 0.0309
ElecMinimize: Iter:   4  F: -6783.773033399439555  |grad|_K:  2.266e-08  alpha:  4.339e-01  linmin: -3.237e-03  t[s]:  56775.37
	Linear fluid (dielectric constant: 78.4, screening length: 8.12261 Bohr) occupying 0.360316 of unit cell:	Completed after 2 iterations at t[s]:  56915.62
	Linear fluid (dielectric constant: 78.4, screening length: 8.12261 Bohr) occupying 0.360316 of unit cell:	Completed after 0 iterations at t[s]:  57008.80
	FillingsUpdate:  mu: -0.190511783  nElectrons: 1226.000000  magneticMoment: [ Abs: 0.00000  Tot: -0.00000 ]
	SubspaceRotationAdjust: set factor to 0.0304
ElecMinimize: Iter:   5  F: -6783.773033544848658  |grad|_K:  1.749e-08  alpha:  4.714e-01  linmin: -2.352e-03  t[s]:  57140.21
	Linear fluid (dielectric constant: 78.4, screening length: 8.12261 Bohr) occupying 0.360316 of unit cell:	Completed after 2 iterations at t[s]:  57280.37
	Linear fluid (dielectric constant: 78.4, screening length: 8.12261 Bohr) occupying 0.360316 of unit cell:	Completed after 0 iterations at t[s]:  57373.73
	FillingsUpdate:  mu: -0.190511512  nElectrons: 1226.000000  magneticMoment: [ Abs: 0.00000  Tot: -0.00000 ]
	SubspaceRotationAdjust: set factor to 0.0367
ElecMinimize: Iter:   6  F: -6783.773033656716507  |grad|_K:  1.468e-08  alpha:  6.040e-01  linmin: -1.609e-03  t[s]:  57504.85
	Linear fluid (dielectric constant: 78.4, screening length: 8.12261 Bohr) occupying 0.360315 of unit cell:	Completed after 2 iterations at t[s]:  57644.89
	Linear fluid (dielectric constant: 78.4, screening length: 8.12261 Bohr) occupying 0.360316 of unit cell:	Completed after 0 iterations at t[s]:  57738.19
	FillingsUpdate:  mu: -0.190487456  nElectrons: 1226.000000  magneticMoment: [ Abs: 0.00000  Tot: -0.00000 ]
	SubspaceRotationAdjust: set factor to 0.041
ElecMinimize: Iter:   7  F: -6783.773033716342979  |grad|_K:  1.694e-08  alpha:  4.745e-01  linmin: -1.551e-03  t[s]:  57869.29
	Linear fluid (dielectric constant: 78.4, screening length: 8.12261 Bohr) occupying 0.360314 of unit cell:	Completed after 2 iterations at t[s]:  58009.65
	Linear fluid (dielectric constant: 78.4, screening length: 8.12261 Bohr) occupying 0.360315 of unit cell:	Completed after 2 iterations at t[s]:  58103.95
	FillingsUpdate:  mu: -0.190505198  nElectrons: 1226.000000  magneticMoment: [ Abs: 0.00000  Tot: -0.00000 ]
	SubspaceRotationAdjust: set factor to 0.0349
ElecMinimize: Iter:   8  F: -6783.773033762215164  |grad|_K:  1.703e-08  alpha:  2.599e-01  linmin:  2.664e-03  t[s]:  58235.12
ElecMinimize: Converged (|Delta F|<1.000000e-07 for 2 iters).
Setting wave functions to eigenvectors of Hamiltonian
Converging empty states (this may take a while): |deigs|: 9.534e-10

Computing DFT-D3 correction:
# coordination-number Pt 5.972 5.985 5.972 6.759 7.106 8.099 7.106 8.101 8.594 8.563 8.566 8.563 5.972 5.972 5.972 5.972 9.224 9.225 9.224 9.228 9.402 9.403 9.402 9.403 9.504 9.504 9.504 9.504 9.524 9.524 9.524 9.524 9.562 9.562 9.562 9.562 9.557 9.557 9.557 9.557 9.569 9.569 9.569 9.569 9.555 9.555 9.555 9.555 9.558 9.558 9.558 9.558 9.521 9.521 9.521 9.521 9.503 9.503 9.503 9.503 9.404 9.404 9.404 9.404 9.227 9.227 9.227 9.227 8.566 8.566 8.566 8.566 7.110 7.110 7.110 7.110
# coordination-number C 3.761
# coordination-number O 1.088
# diagonal-C6 Pt 336.87 336.87 336.87 336.87 336.87 336.87 336.87 336.87 336.87 336.87 336.87 336.87 336.87 336.87 336.87 336.87 336.87 336.87 336.87 336.87 336.87 336.87 336.87 336.87 336.87 336.87 336.87 336.87 336.87 336.87 336.87 336.87 336.87 336.87 336.87 336.87 336.87 336.87 336.87 336.87 336.87 336.87 336.87 336.87 336.87 336.87 336.87 336.87 336.87 336.87 336.87 336.87 336.87 336.87 336.87 336.87 336.87 336.87 336.87 336.87 336.87 336.87 336.87 336.87 336.87 336.87 336.87 336.87 336.87 336.87 336.87 336.87 336.87 336.87 336.87 336.87
# diagonal-C6 C 18.93
# diagonal-C6 O 12.74
EvdW_6 =   -0.722229
EvdW_8 =   -1.135691

# Ionic positions in cartesian coordinates:
ion Pt  -0.003625000000000   7.025740000000002  63.415598000000003 0
ion Pt  -2.619617000000003  18.428585999999999  63.415598000000003 0
ion Pt   5.228370999999997   7.025740000000002  63.415598000000003 0
ion Pt   2.612378999999996  18.428585999999999  63.415598000000003 0
ion Pt   2.611577000000000   2.915417000000001  62.117125000000001 0
ion Pt  -0.004425000000000  14.318308000000002  62.117125000000001 0
ion Pt   7.843572999999998   2.915417000000001  62.117125000000001 0
ion Pt   5.227570999999999  14.318308000000002  62.117125000000001 0
ion Pt   2.612163999999999  10.310451000000000  60.490712000000002 0
ion Pt  -0.003844000000004  21.713318999999998  60.490712000000002 0
ion Pt   7.844159999999993  10.310451000000000  60.490712000000002 0
ion Pt   5.228162999999994  21.713318999999998  60.490712000000002 0
ion Pt   0.004081000000000   0.176152000000000  33.343209999999999 0
ion Pt  -2.611916000000000  11.579020000000002  33.343209999999999 0
ion Pt   5.236076999999999   0.176152000000000  33.343209999999999 0
ion Pt   2.620079999999998  11.579020000000002  33.343209999999999 0
ion Pt  -0.007031000000000   6.054923000000000  58.452824999999997 0
ion Pt  -2.623034000000003  17.457813999999999  58.452824999999997 0
ion Pt   5.224965000000000   6.054923000000000  58.452824999999997 0
ion Pt   2.608961999999995  17.457813999999999  58.452824999999997 0
ion Pt   2.607397000000000   1.786647000000000  56.910010000000000 0
ion Pt  -0.008600000000003  13.189515000000004  56.910010000000000 0
ion Pt   7.839392999999996   1.786647000000000  56.910010000000000 0
ion Pt   5.223384999999997  13.189515000000004  56.910010000000000 0
ion Pt   2.605691999999999   9.066512000000001  55.152394999999999 0
ion Pt  -0.010305000000004  20.469380000000001  55.152394999999999 0
ion Pt   7.837687999999996   9.066512000000001  55.152394999999999 0
ion Pt   5.221690999999995  20.469380000000001  55.152394999999999 0
ion Pt  -0.008156000000000   4.827131000000000  53.486634000000002 0
ion Pt  -2.624153000000002  16.229998999999999  53.486634000000002 0
ion Pt   5.223839999999997   4.827131000000000  53.486634000000002 0
ion Pt   2.607842999999997  16.229998999999999  53.486634000000002 0
ion Pt   2.609735000000000   0.615322000000000  51.780881000000001 0
ion Pt  -0.006262000000001  12.018190000000002  51.780881000000001 0
ion Pt   7.841730999999995   0.615322000000000  51.780881000000001 0
ion Pt   5.225733999999997  12.018190000000002  51.780881000000001 0
ion Pt   2.612801999999998   7.796666000000001  50.055065999999997 0
ion Pt  -0.003195000000004  19.199534000000003  50.055065999999997 0
ion Pt   7.844797999999995   7.796666000000001  50.055065999999997 0
ion Pt   5.228800999999995  19.199534000000003  50.055065999999997 0
ion Pt  -0.000235000000000   3.600775000000001  48.378791000000000 0
ion Pt  -2.616232000000001  15.003643000000002  48.378791000000000 0
ion Pt   5.231760999999997   3.600775000000001  48.378791000000000 0
ion Pt   2.615763999999999  15.003643000000002  48.378791000000000 0
ion Pt   0.003259999999997  10.807981000000000  46.702193999999999 0
ion Pt  -2.612737000000003  22.210849000000000  46.702193999999999 0
ion Pt   5.235255999999998  10.807981000000000  46.702193999999999 0
ion Pt   2.619258999999996  22.210849000000000  46.702193999999999 0
ion Pt   2.622014999999998   6.586662000000000  44.975670000000001 0
ion Pt   0.006012999999998  17.989553000000001  44.975670000000001 0
ion Pt   7.854010999999994   6.586662000000000  44.975670000000001 0
ion Pt   5.238008999999995  17.989553000000001  44.975670000000001 0
ion Pt   0.008073000000000   2.374602000000000  43.269012999999980 0
ion Pt  -2.607924000000001  13.777469999999999  43.269012999999980 0
ion Pt   5.240068999999997   2.374602000000000  43.269012999999980 0
ion Pt   2.624072000000000  13.777469999999999  43.269012999999980 0
ion Pt   0.010323999999998   9.538157000000000  41.602607999999996 0
ion Pt  -2.605673000000003  20.941025000000000  41.602607999999996 0
ion Pt   5.242318999999997   9.538157000000000  41.602607999999996 0
ion Pt   2.626321999999996  20.941025000000000  41.602607999999996 0
ion Pt   2.624333000000000   5.415154000000000  39.845444000000001 0
ion Pt   0.008335999999997  16.818021999999999  39.845444000000001 0
ion Pt   7.856328999999996   5.415154000000000  39.845444000000001 0
ion Pt   5.240331999999994  16.818021999999999  39.845444000000001 0
ion Pt   0.007414000000000   1.147015000000000  38.303145000000001 0
ion Pt  -2.608583000000000  12.549882999999999  38.303145000000001 0
ion Pt   5.239410000000000   1.147015000000000  38.303145000000001 0
ion Pt   2.623413000000000  12.549882999999999  38.303145000000001 0
ion Pt   0.003689000000000   8.293875999999999  36.265515999999998 0
ion Pt  -2.612297000000004  19.696744000000002  36.265515999999998 0
ion Pt   5.235684999999995   8.293875999999999  36.265515999999998 0
ion Pt   2.619687999999994  19.696744000000002  36.265515999999998 0
ion Pt   2.620486999999999   4.286566000000000  34.640458000000002 0
ion Pt   0.004495999999999  15.689412000000003  34.640458000000002 0
ion Pt   7.852483000000000   4.286566000000000  34.640458000000002 0
ion Pt   5.236490999999998  15.689412000000003  34.640458000000002 0
ion C   2.611572999999998  14.318308000000002   0.475262195331577 1  Linear 0 0 1
ion O   2.671667999999997  14.318308000000002   2.726984216268309 1  Linear 0 0 1

# Forces in Cartesian coordinates:
force Pt  -0.000045434664673  -0.000332247639672   0.000587341447460 0
force Pt  -0.000106966956704   0.007758404039963  -0.001541890349589 0
force Pt  -0.000081685446190  -0.000151478517813   0.000559751827386 0
force Pt  -0.000305725845358   0.015549305700471  -0.000933023373953 0
force Pt   0.000243615973476  -0.000638378335591   0.000003680649412 0
force Pt  -0.006206956114517  -0.008891266613940   0.011440388243305 0
force Pt   0.000241751992215  -0.000005376185608  -0.000103283553736 0
force Pt   0.006695916334333  -0.008696634060514   0.009772022534226 0
force Pt   0.000264479450534  -0.010410496278868  -0.008870371581041 0
force Pt   0.000076726166095  -0.000811504715634  -0.000432214064861 0
force Pt   0.000054526085888  -0.002980305445114  -0.001726873207991 0
force Pt   0.000214473833307  -0.000974528369388  -0.000423544728039 0
force Pt   0.000231147251867   0.000087625290939  -0.000549133222607 0
force Pt   0.000218246824414  -0.000119966576945  -0.000505873500158 0
force Pt  -0.000003220352992   0.000060674144176  -0.000534139616071 0
force Pt   0.000218021908521  -0.000053729117571  -0.000774254866745 0
force Pt   0.000113882062377  -0.000104450611381   0.000033555744700 0
force Pt  -0.000140143318358  -0.003034411240981   0.003784707495035 0
force Pt  -0.000287796143764   0.000024890269397   0.000058609772416 0
force Pt  -0.000104193410901   0.003718015528137  -0.005946631594389 0
force Pt  -0.000062891038563   0.001350193072736   0.000329305372423 0
force Pt  -0.000385380918115   0.001008546689514   0.001332045353462 0
force Pt  -0.000151982255373   0.000184718784642   0.001351469663024 0
force Pt   0.000324657792640   0.000820751076598   0.001026613263586 0
force Pt   0.000109705445806   0.000314860493963  -0.000214361982920 0
force Pt   0.000698250191041   0.000513500844367  -0.001185988169210 0
force Pt   0.000101210843008   0.000452445933260   0.000088081355662 0
force Pt  -0.000223834858599   0.000545276183947  -0.001240481054879 0
force Pt   0.000218138280290  -0.000301956561750  -0.000272481182339 0
force Pt   0.000122913858881  -0.000609023345214   0.000681552202333 0
force Pt   0.000209336586054  -0.000475397267957  -0.000337412854711 0
force Pt   0.000068586985839  -0.001082374885910  -0.000428035344170 0
force Pt  -0.000098502703084  -0.000543616622478   0.000032388034282 0
force Pt  -0.000003416014109  -0.000054375622645  -0.001852106974268 0
force Pt   0.000006787072354   0.001462764533657  -0.001443257513633 0
force Pt  -0.000008500967976  -0.000052316644465  -0.001827626755286 0
force Pt   0.000336593329591   0.000529527210020  -0.000122606807879 0
force Pt   0.000243977880046  -0.000401632422401  -0.000058709688704 0
force Pt   0.000232674286302   0.000179138024198  -0.000153975140595 0
force Pt   0.000287914381971  -0.000366676428973   0.000068090447940 0
force Pt   0.000286307907775   0.000317882798390  -0.000144828539607 0
force Pt  -0.000022601086850  -0.000182984609836   0.000308815804003 0
force Pt  -0.000271751610830   0.000197645215923  -0.000057987996919 0
force Pt  -0.000003279285019  -0.000185097283688   0.000411298811017 0
force Pt  -0.000308226896120   0.000221663174274  -0.001316980330675 0
force Pt  -0.000332966729823   0.000597573092915  -0.000033361298043 0
force Pt  -0.000256562013787   0.000211146626981  -0.001138871360857 0
force Pt  -0.000159410139343   0.000311545215587  -0.000202565773649 0
force Pt   0.000103120300580  -0.000517224277170   0.000116225176025 0
force Pt   0.000092490602938  -0.000388272148318  -0.000292503819037 0
force Pt   0.000044682828031  -0.000201530515400  -0.000512707415585 0
force Pt   0.000107357430996  -0.000413299938777  -0.000402971579007 0
force Pt  -0.000200505849867   0.000423188785578   0.000149423985547 0
force Pt  -0.000266705371807   0.000253838436133   0.000299312317942 0
force Pt  -0.000105152839155   0.000343819323378   0.000150225118893 0
force Pt  -0.000119070804061   0.000273916977434   0.000471103297000 0
force Pt  -0.000035775082655  -0.000147311503368   0.000088383432255 0
force Pt  -0.000294988671484   0.000405932864474   0.000248769679238 0
force Pt  -0.000258611973044   0.000027657395413   0.000018574077515 0
force Pt  -0.000247361151703   0.000412603979807   0.000242103623361 0
force Pt   0.000051287893056  -0.000534425410917  -0.000771883854558 0
force Pt   0.000084776855726  -0.000597806229157  -0.000595240263390 0
force Pt   0.000030929252549  -0.000352480417821  -0.000758244976772 0
force Pt   0.000055658773739  -0.000498618951794  -0.000559311849525 0
force Pt   0.000200204447888   0.000011948501733   0.000061152791035 0
force Pt   0.000146162350596   0.000341737839889  -0.000118142044799 0
force Pt   0.000176492758941  -0.000012764363891  -0.000020057863647 0
force Pt   0.000232989450659   0.000149514120708   0.000149754684978 0
force Pt  -0.000047476781846   0.000191974420024   0.000656436675460 0
force Pt  -0.000201808649337   0.000101795565063   0.000523227387996 0
force Pt  -0.000205551791551   0.000109317898046   0.000674501274019 0
force Pt  -0.000129579599308   0.000276207799412   0.000409749324128 0
force Pt  -0.000209353969135   0.000362870815628   0.000185853211284 0
force Pt  -0.000294130420535   0.000533060633463   0.000339368748864 0
force Pt  -0.000226970832650   0.000303513573114   0.000402557108539 0
force Pt  -0.000355732834590   0.000474816931414   0.000294129600144 0
force C   0.001340837999228   0.017843259515872   0.000250692513033 1  Linear 0 0 1
force O  -0.001688350126517  -0.014252452375222   0.000039849259785 1  Linear 0 0 1

# Energy components:
   A_diel =       -0.0149621356706052
   Eewald =    46179.3985299607957131
       EH =    52540.1497130221396219
     Eloc =  -106684.5202980461617699
      Enl =      -77.0931507414649673
     EvdW =       -1.8579196378671441
      Exc =    -2168.0739061759804827
 Exc_core =     1245.8437286774853874
       KE =     2182.4085415688391549
  MuShift =       -0.0000000000201421
-------------------------------------
     Etot =    -6783.7597235078956146
       TS =        0.0133102543199690
-------------------------------------
        F =    -6783.7730337622151637


Dumping 'jdft.fillings' ... done
Dumping 'jdft.wfns' ... done
Dumping 'jdft.fluidState' ... done
Dumping 'jdft.ionpos' ... done
Dumping 'jdft.lattice' ... done
Dumping 'jdft.eigenvals' ... done
Dumping 'jdft.eigStats' ... 
	eMin: -2.147690 at state 6 ( [ +0.000000 +0.000000 +0.000000 ] spin -1 )
	HOMO: -0.190626 at state 0 ( [ +0.000000 +0.000000 +0.000000 ] spin 1 )
	mu  : -0.190505
	LUMO: -0.190491 at state 6 ( [ +0.000000 +0.000000 +0.000000 ] spin -1 )
	eMax: +0.109540 at state 4 ( [ +0.400000 +0.000000 +0.000000 ] spin 1 )
	HOMO-LUMO gap: +0.000135
	Optical gap  : +0.000135 at state 6 ( [ +0.000000 +0.000000 +0.000000 ] spin -1 )
Dumping 'jdft.Ecomponents' ... done
IonicMinimize: Iter:   5  F: -6783.773033762215164  |grad|_K:  1.795e-04  alpha:  1.000e+00  linmin: -5.038e-03  t[s]:  58636.72
IonicMinimize: Converged (|Delta F|<1.000000e-06 for 2 iters).

#--- Lowdin population analysis ---
# oxidation-state Pt +0.060 +0.068 +0.060 +0.026 +0.019 -0.033 +0.019 -0.033 -0.049 -0.048 -0.050 -0.048 +0.067 +0.068 +0.067 +0.068 +0.010 -0.013 +0.010 +0.007 +0.005 -0.007 +0.008 -0.006 +0.011 +0.006 +0.011 +0.006 +0.011 +0.011 +0.011 +0.010 +0.011 +0.007 +0.009 +0.007 +0.007 +0.007 +0.008 +0.008 +0.004 +0.004 +0.004 +0.005 +0.008 +0.008 +0.008 +0.007 +0.012 +0.011 +0.012 +0.012 +0.013 +0.013 +0.013 +0.013 +0.015 +0.015 +0.015 +0.015 +0.010 +0.010 +0.011 +0.010 +0.012 +0.012 +0.012 +0.013 -0.041 -0.042 -0.041 -0.042 +0.022 +0.021 +0.022 +0.021
# magnetic-moments Pt -0.000 -0.000 -0.000 -0.000 -0.000 -0.000 -0.000 -0.000 -0.000 -0.000 -0.000 -0.000 -0.000 -0.000 -0.000 -0.000 -0.000 -0.000 -0.000 -0.000 -0.000 -0.000 -0.000 -0.000 -0.000 -0.000 -0.000 -0.000 -0.000 -0.000 -0.000 -0.000 -0.000 -0.000 -0.000 -0.000 -0.000 -0.000 -0.000 -0.000 -0.000 -0.000 -0.000 -0.000 -0.000 -0.000 -0.000 -0.000 -0.000 -0.000 -0.000 -0.000 -0.000 -0.000 -0.000 -0.000 -0.000 -0.000 -0.000 -0.000 -0.000 -0.000 -0.000 -0.000 -0.000 -0.000 -0.000 -0.000 -0.000 -0.000 -0.000 -0.000 -0.000 -0.000 -0.000 -0.000
# oxidation-state C +0.405
# magnetic-moments C -0.000
# oxidation-state O -0.180
# magnetic-moments O -0.000


Dumping 'jdft.n_up' ... done
Dumping 'jdft.n_dn' ... done
Dumping 'jdft.tau_up' ... done
Dumping 'jdft.tau_dn' ... done
Dumping 'jdft.eigenvals' ... done
Dumping 'jdft.eigStats' ... 
	eMin: -2.147690 at state 6 ( [ +0.000000 +0.000000 +0.000000 ] spin -1 )
	HOMO: -0.190626 at state 0 ( [ +0.000000 +0.000000 +0.000000 ] spin 1 )
	mu  : -0.190505
	LUMO: -0.190491 at state 6 ( [ +0.000000 +0.000000 +0.000000 ] spin -1 )
	eMax: +0.109540 at state 4 ( [ +0.400000 +0.000000 +0.000000 ] spin 1 )
	HOMO-LUMO gap: +0.000135
	Optical gap  : +0.000135 at state 6 ( [ +0.000000 +0.000000 +0.000000 ] spin -1 )
Dumping 'jdft.kPts' ... done
Dumping 'jdft.kMap' ... done
Dumping 'jdft.dosUp' ... done.
Dumping 'jdft.dosDn' ... done.
End date and time: Thu Feb 24 01:38:41 2022  (Duration: 0-16:20:43.89)
Done!
