
*************** JDFTx 1.6.0  ***************

Start date and time: Mon Feb 28 04:07:25 2022
Executable /projects/musgravc/apps/jdftx-1.6.1/build/jdftx with command-line: -i in
Running on hosts (process indices):  shas0502.rc.int.colorado.edu (0-23)
Divided in process groups (process indices):  0 (0)  1 (1)  2 (2)  3 (3)  4 (4)  5 (5)  6 (6)  7 (7)  8 (8)  9 (9)  10 (10)  11 (11)  12 (12)  13 (13)  14 (14)  15 (15)  16 (16)  17 (17)  18 (18)  19 (19)  20 (20)  21 (21)  22 (22)  23 (23)
Resource initialization completed at t[s]:      0.00
Run totals: 24 processes, 24 threads, 0 GPUs


Input parsed successfully to the following command list (including defaults):

basis kpoint-dependent
converge-empty-states yes
coords-type Cartesian
core-overlap-check none
coulomb-interaction Periodic
davidson-band-ratio 1.1
density-of-states Etol 1.000000e-06 Esigma 1.000000e-03 \
		Complete \
	Total \
	OrthoOrbital Ni 1   s \
	OrthoOrbital Ni 1   p \
	OrthoOrbital Ni 1   px \
	OrthoOrbital Ni 1   py \
	OrthoOrbital Ni 1   pz \
	OrthoOrbital Ni 1   d \
	OrthoOrbital Ni 1   dxy \
	OrthoOrbital Ni 1   dyz \
	OrthoOrbital Ni 1   dz2 \
	OrthoOrbital Ni 1   dxz \
	OrthoOrbital Ni 1   dx2-y2 \
	OrthoOrbital Ni 2   s \
	OrthoOrbital Ni 2   p \
	OrthoOrbital Ni 2   px \
	OrthoOrbital Ni 2   py \
	OrthoOrbital Ni 2   pz \
	OrthoOrbital Ni 2   d \
	OrthoOrbital Ni 2   dxy \
	OrthoOrbital Ni 2   dyz \
	OrthoOrbital Ni 2   dz2 \
	OrthoOrbital Ni 2   dxz \
	OrthoOrbital Ni 2   dx2-y2 \
	OrthoOrbital Ni 3   s \
	OrthoOrbital Ni 3   p \
	OrthoOrbital Ni 3   px \
	OrthoOrbital Ni 3   py \
	OrthoOrbital Ni 3   pz \
	OrthoOrbital Ni 3   d \
	OrthoOrbital Ni 3   dxy \
	OrthoOrbital Ni 3   dyz \
	OrthoOrbital Ni 3   dz2 \
	OrthoOrbital Ni 3   dxz \
	OrthoOrbital Ni 3   dx2-y2 \
	OrthoOrbital Ni 4   s \
	OrthoOrbital Ni 4   p \
	OrthoOrbital Ni 4   px \
	OrthoOrbital Ni 4   py \
	OrthoOrbital Ni 4   pz \
	OrthoOrbital Ni 4   d \
	OrthoOrbital Ni 4   dxy \
	OrthoOrbital Ni 4   dyz \
	OrthoOrbital Ni 4   dz2 \
	OrthoOrbital Ni 4   dxz \
	OrthoOrbital Ni 4   dx2-y2 \
	OrthoOrbital Ni 5   s \
	OrthoOrbital Ni 5   p \
	OrthoOrbital Ni 5   px \
	OrthoOrbital Ni 5   py \
	OrthoOrbital Ni 5   pz \
	OrthoOrbital Ni 5   d \
	OrthoOrbital Ni 5   dxy \
	OrthoOrbital Ni 5   dyz \
	OrthoOrbital Ni 5   dz2 \
	OrthoOrbital Ni 5   dxz \
	OrthoOrbital Ni 5   dx2-y2 \
	OrthoOrbital Ni 6   s \
	OrthoOrbital Ni 6   p \
	OrthoOrbital Ni 6   px \
	OrthoOrbital Ni 6   py \
	OrthoOrbital Ni 6   pz \
	OrthoOrbital Ni 6   d \
	OrthoOrbital Ni 6   dxy \
	OrthoOrbital Ni 6   dyz \
	OrthoOrbital Ni 6   dz2 \
	OrthoOrbital Ni 6   dxz \
	OrthoOrbital Ni 6   dx2-y2 \
	OrthoOrbital Ni 7   s \
	OrthoOrbital Ni 7   p \
	OrthoOrbital Ni 7   px \
	OrthoOrbital Ni 7   py \
	OrthoOrbital Ni 7   pz \
	OrthoOrbital Ni 7   d \
	OrthoOrbital Ni 7   dxy \
	OrthoOrbital Ni 7   dyz \
	OrthoOrbital Ni 7   dz2 \
	OrthoOrbital Ni 7   dxz \
	OrthoOrbital Ni 7   dx2-y2 \
	OrthoOrbital Ni 8   s \
	OrthoOrbital Ni 8   p \
	OrthoOrbital Ni 8   px \
	OrthoOrbital Ni 8   py \
	OrthoOrbital Ni 8   pz \
	OrthoOrbital Ni 8   d \
	OrthoOrbital Ni 8   dxy \
	OrthoOrbital Ni 8   dyz \
	OrthoOrbital Ni 8   dz2 \
	OrthoOrbital Ni 8   dxz \
	OrthoOrbital Ni 8   dx2-y2 \
	OrthoOrbital Ni 9   s \
	OrthoOrbital Ni 9   p \
	OrthoOrbital Ni 9   px \
	OrthoOrbital Ni 9   py \
	OrthoOrbital Ni 9   pz \
	OrthoOrbital Ni 9   d \
	OrthoOrbital Ni 9   dxy \
	OrthoOrbital Ni 9   dyz \
	OrthoOrbital Ni 9   dz2 \
	OrthoOrbital Ni 9   dxz \
	OrthoOrbital Ni 9   dx2-y2 \
	OrthoOrbital Ni 10   s \
	OrthoOrbital Ni 10   p \
	OrthoOrbital Ni 10   px \
	OrthoOrbital Ni 10   py \
	OrthoOrbital Ni 10   pz \
	OrthoOrbital Ni 10   d \
	OrthoOrbital Ni 10   dxy \
	OrthoOrbital Ni 10   dyz \
	OrthoOrbital Ni 10   dz2 \
	OrthoOrbital Ni 10   dxz \
	OrthoOrbital Ni 10   dx2-y2 \
	OrthoOrbital Au 1   s \
	OrthoOrbital Au 1   p \
	OrthoOrbital Au 1   px \
	OrthoOrbital Au 1   py \
	OrthoOrbital Au 1   pz \
	OrthoOrbital Au 1   d \
	OrthoOrbital Au 1   dxy \
	OrthoOrbital Au 1   dyz \
	OrthoOrbital Au 1   dz2 \
	OrthoOrbital Au 1   dxz \
	OrthoOrbital Au 1   dx2-y2 \
	OrthoOrbital Au 2   s \
	OrthoOrbital Au 2   p \
	OrthoOrbital Au 2   px \
	OrthoOrbital Au 2   py \
	OrthoOrbital Au 2   pz \
	OrthoOrbital Au 2   d \
	OrthoOrbital Au 2   dxy \
	OrthoOrbital Au 2   dyz \
	OrthoOrbital Au 2   dz2 \
	OrthoOrbital Au 2   dxz \
	OrthoOrbital Au 2   dx2-y2 \
	OrthoOrbital Au 3   s \
	OrthoOrbital Au 3   p \
	OrthoOrbital Au 3   px \
	OrthoOrbital Au 3   py \
	OrthoOrbital Au 3   pz \
	OrthoOrbital Au 3   d \
	OrthoOrbital Au 3   dxy \
	OrthoOrbital Au 3   dyz \
	OrthoOrbital Au 3   dz2 \
	OrthoOrbital Au 3   dxz \
	OrthoOrbital Au 3   dx2-y2 \
	OrthoOrbital Au 4   s \
	OrthoOrbital Au 4   p \
	OrthoOrbital Au 4   px \
	OrthoOrbital Au 4   py \
	OrthoOrbital Au 4   pz \
	OrthoOrbital Au 4   d \
	OrthoOrbital Au 4   dxy \
	OrthoOrbital Au 4   dyz \
	OrthoOrbital Au 4   dz2 \
	OrthoOrbital Au 4   dxz \
	OrthoOrbital Au 4   dx2-y2 \
	OrthoOrbital Au 5   s \
	OrthoOrbital Au 5   p \
	OrthoOrbital Au 5   px \
	OrthoOrbital Au 5   py \
	OrthoOrbital Au 5   pz \
	OrthoOrbital Au 5   d \
	OrthoOrbital Au 5   dxy \
	OrthoOrbital Au 5   dyz \
	OrthoOrbital Au 5   dz2 \
	OrthoOrbital Au 5   dxz \
	OrthoOrbital Au 5   dx2-y2 \
	OrthoOrbital Au 6   s \
	OrthoOrbital Au 6   p \
	OrthoOrbital Au 6   px \
	OrthoOrbital Au 6   py \
	OrthoOrbital Au 6   pz \
	OrthoOrbital Au 6   d \
	OrthoOrbital Au 6   dxy \
	OrthoOrbital Au 6   dyz \
	OrthoOrbital Au 6   dz2 \
	OrthoOrbital Au 6   dxz \
	OrthoOrbital Au 6   dx2-y2 \
	OrthoOrbital Au 7   s \
	OrthoOrbital Au 7   p \
	OrthoOrbital Au 7   px \
	OrthoOrbital Au 7   py \
	OrthoOrbital Au 7   pz \
	OrthoOrbital Au 7   d \
	OrthoOrbital Au 7   dxy \
	OrthoOrbital Au 7   dyz \
	OrthoOrbital Au 7   dz2 \
	OrthoOrbital Au 7   dxz \
	OrthoOrbital Au 7   dx2-y2 \
	OrthoOrbital Au 8   s \
	OrthoOrbital Au 8   p \
	OrthoOrbital Au 8   px \
	OrthoOrbital Au 8   py \
	OrthoOrbital Au 8   pz \
	OrthoOrbital Au 8   d \
	OrthoOrbital Au 8   dxy \
	OrthoOrbital Au 8   dyz \
	OrthoOrbital Au 8   dz2 \
	OrthoOrbital Au 8   dxz \
	OrthoOrbital Au 8   dx2-y2 \
	OrthoOrbital Au 9   s \
	OrthoOrbital Au 9   p \
	OrthoOrbital Au 9   px \
	OrthoOrbital Au 9   py \
	OrthoOrbital Au 9   pz \
	OrthoOrbital Au 9   d \
	OrthoOrbital Au 9   dxy \
	OrthoOrbital Au 9   dyz \
	OrthoOrbital Au 9   dz2 \
	OrthoOrbital Au 9   dxz \
	OrthoOrbital Au 9   dx2-y2 \
	OrthoOrbital Au 10   s \
	OrthoOrbital Au 10   p \
	OrthoOrbital Au 10   px \
	OrthoOrbital Au 10   py \
	OrthoOrbital Au 10   pz \
	OrthoOrbital Au 10   d \
	OrthoOrbital Au 10   dxy \
	OrthoOrbital Au 10   dyz \
	OrthoOrbital Au 10   dz2 \
	OrthoOrbital Au 10   dxz \
	OrthoOrbital Au 10   dx2-y2 \
	OrthoOrbital Au 11   s \
	OrthoOrbital Au 11   p \
	OrthoOrbital Au 11   px \
	OrthoOrbital Au 11   py \
	OrthoOrbital Au 11   pz \
	OrthoOrbital Au 11   d \
	OrthoOrbital Au 11   dxy \
	OrthoOrbital Au 11   dyz \
	OrthoOrbital Au 11   dz2 \
	OrthoOrbital Au 11   dxz \
	OrthoOrbital Au 11   dx2-y2 \
	OrthoOrbital Au 12   s \
	OrthoOrbital Au 12   p \
	OrthoOrbital Au 12   px \
	OrthoOrbital Au 12   py \
	OrthoOrbital Au 12   pz \
	OrthoOrbital Au 12   d \
	OrthoOrbital Au 12   dxy \
	OrthoOrbital Au 12   dyz \
	OrthoOrbital Au 12   dz2 \
	OrthoOrbital Au 12   dxz \
	OrthoOrbital Au 12   dx2-y2 \
	OrthoOrbital Au 13   s \
	OrthoOrbital Au 13   p \
	OrthoOrbital Au 13   px \
	OrthoOrbital Au 13   py \
	OrthoOrbital Au 13   pz \
	OrthoOrbital Au 13   d \
	OrthoOrbital Au 13   dxy \
	OrthoOrbital Au 13   dyz \
	OrthoOrbital Au 13   dz2 \
	OrthoOrbital Au 13   dxz \
	OrthoOrbital Au 13   dx2-y2 \
	OrthoOrbital Au 14   s \
	OrthoOrbital Au 14   p \
	OrthoOrbital Au 14   px \
	OrthoOrbital Au 14   py \
	OrthoOrbital Au 14   pz \
	OrthoOrbital Au 14   d \
	OrthoOrbital Au 14   dxy \
	OrthoOrbital Au 14   dyz \
	OrthoOrbital Au 14   dz2 \
	OrthoOrbital Au 14   dxz \
	OrthoOrbital Au 14   dx2-y2 \
	OrthoOrbital Au 15   s \
	OrthoOrbital Au 15   p \
	OrthoOrbital Au 15   px \
	OrthoOrbital Au 15   py \
	OrthoOrbital Au 15   pz \
	OrthoOrbital Au 15   d \
	OrthoOrbital Au 15   dxy \
	OrthoOrbital Au 15   dyz \
	OrthoOrbital Au 15   dz2 \
	OrthoOrbital Au 15   dxz \
	OrthoOrbital Au 15   dx2-y2 \
	OrthoOrbital Au 16   s \
	OrthoOrbital Au 16   p \
	OrthoOrbital Au 16   px \
	OrthoOrbital Au 16   py \
	OrthoOrbital Au 16   pz \
	OrthoOrbital Au 16   d \
	OrthoOrbital Au 16   dxy \
	OrthoOrbital Au 16   dyz \
	OrthoOrbital Au 16   dz2 \
	OrthoOrbital Au 16   dxz \
	OrthoOrbital Au 16   dx2-y2 \
	OrthoOrbital Au 17   s \
	OrthoOrbital Au 17   p \
	OrthoOrbital Au 17   px \
	OrthoOrbital Au 17   py \
	OrthoOrbital Au 17   pz \
	OrthoOrbital Au 17   d \
	OrthoOrbital Au 17   dxy \
	OrthoOrbital Au 17   dyz \
	OrthoOrbital Au 17   dz2 \
	OrthoOrbital Au 17   dxz \
	OrthoOrbital Au 17   dx2-y2 \
	OrthoOrbital Au 18   s \
	OrthoOrbital Au 18   p \
	OrthoOrbital Au 18   px \
	OrthoOrbital Au 18   py \
	OrthoOrbital Au 18   pz \
	OrthoOrbital Au 18   d \
	OrthoOrbital Au 18   dxy \
	OrthoOrbital Au 18   dyz \
	OrthoOrbital Au 18   dz2 \
	OrthoOrbital Au 18   dxz \
	OrthoOrbital Au 18   dx2-y2 \
	OrthoOrbital Au 19   s \
	OrthoOrbital Au 19   p \
	OrthoOrbital Au 19   px \
	OrthoOrbital Au 19   py \
	OrthoOrbital Au 19   pz \
	OrthoOrbital Au 19   d \
	OrthoOrbital Au 19   dxy \
	OrthoOrbital Au 19   dyz \
	OrthoOrbital Au 19   dz2 \
	OrthoOrbital Au 19   dxz \
	OrthoOrbital Au 19   dx2-y2 \
	OrthoOrbital Au 20   s \
	OrthoOrbital Au 20   p \
	OrthoOrbital Au 20   px \
	OrthoOrbital Au 20   py \
	OrthoOrbital Au 20   pz \
	OrthoOrbital Au 20   d \
	OrthoOrbital Au 20   dxy \
	OrthoOrbital Au 20   dyz \
	OrthoOrbital Au 20   dz2 \
	OrthoOrbital Au 20   dxz \
	OrthoOrbital Au 20   dx2-y2 \
	OrthoOrbital Au 21   s \
	OrthoOrbital Au 21   p \
	OrthoOrbital Au 21   px \
	OrthoOrbital Au 21   py \
	OrthoOrbital Au 21   pz \
	OrthoOrbital Au 21   d \
	OrthoOrbital Au 21   dxy \
	OrthoOrbital Au 21   dyz \
	OrthoOrbital Au 21   dz2 \
	OrthoOrbital Au 21   dxz \
	OrthoOrbital Au 21   dx2-y2 \
	OrthoOrbital Au 22   s \
	OrthoOrbital Au 22   p \
	OrthoOrbital Au 22   px \
	OrthoOrbital Au 22   py \
	OrthoOrbital Au 22   pz \
	OrthoOrbital Au 22   d \
	OrthoOrbital Au 22   dxy \
	OrthoOrbital Au 22   dyz \
	OrthoOrbital Au 22   dz2 \
	OrthoOrbital Au 22   dxz \
	OrthoOrbital Au 22   dx2-y2 \
	OrthoOrbital Au 23   s \
	OrthoOrbital Au 23   p \
	OrthoOrbital Au 23   px \
	OrthoOrbital Au 23   py \
	OrthoOrbital Au 23   pz \
	OrthoOrbital Au 23   d \
	OrthoOrbital Au 23   dxy \
	OrthoOrbital Au 23   dyz \
	OrthoOrbital Au 23   dz2 \
	OrthoOrbital Au 23   dxz \
	OrthoOrbital Au 23   dx2-y2 \
	OrthoOrbital Au 24   s \
	OrthoOrbital Au 24   p \
	OrthoOrbital Au 24   px \
	OrthoOrbital Au 24   py \
	OrthoOrbital Au 24   pz \
	OrthoOrbital Au 24   d \
	OrthoOrbital Au 24   dxy \
	OrthoOrbital Au 24   dyz \
	OrthoOrbital Au 24   dz2 \
	OrthoOrbital Au 24   dxz \
	OrthoOrbital Au 24   dx2-y2 \
	OrthoOrbital Au 25   s \
	OrthoOrbital Au 25   p \
	OrthoOrbital Au 25   px \
	OrthoOrbital Au 25   py \
	OrthoOrbital Au 25   pz \
	OrthoOrbital Au 25   d \
	OrthoOrbital Au 25   dxy \
	OrthoOrbital Au 25   dyz \
	OrthoOrbital Au 25   dz2 \
	OrthoOrbital Au 25   dxz \
	OrthoOrbital Au 25   dx2-y2 \
	OrthoOrbital Au 26   s \
	OrthoOrbital Au 26   p \
	OrthoOrbital Au 26   px \
	OrthoOrbital Au 26   py \
	OrthoOrbital Au 26   pz \
	OrthoOrbital Au 26   d \
	OrthoOrbital Au 26   dxy \
	OrthoOrbital Au 26   dyz \
	OrthoOrbital Au 26   dz2 \
	OrthoOrbital Au 26   dxz \
	OrthoOrbital Au 26   dx2-y2 \
	OrthoOrbital Au 27   s \
	OrthoOrbital Au 27   p \
	OrthoOrbital Au 27   px \
	OrthoOrbital Au 27   py \
	OrthoOrbital Au 27   pz \
	OrthoOrbital Au 27   d \
	OrthoOrbital Au 27   dxy \
	OrthoOrbital Au 27   dyz \
	OrthoOrbital Au 27   dz2 \
	OrthoOrbital Au 27   dxz \
	OrthoOrbital Au 27   dx2-y2 \
	OrthoOrbital Au 28   s \
	OrthoOrbital Au 28   p \
	OrthoOrbital Au 28   px \
	OrthoOrbital Au 28   py \
	OrthoOrbital Au 28   pz \
	OrthoOrbital Au 28   d \
	OrthoOrbital Au 28   dxy \
	OrthoOrbital Au 28   dyz \
	OrthoOrbital Au 28   dz2 \
	OrthoOrbital Au 28   dxz \
	OrthoOrbital Au 28   dx2-y2 \
	OrthoOrbital Au 29   s \
	OrthoOrbital Au 29   p \
	OrthoOrbital Au 29   px \
	OrthoOrbital Au 29   py \
	OrthoOrbital Au 29   pz \
	OrthoOrbital Au 29   d \
	OrthoOrbital Au 29   dxy \
	OrthoOrbital Au 29   dyz \
	OrthoOrbital Au 29   dz2 \
	OrthoOrbital Au 29   dxz \
	OrthoOrbital Au 29   dx2-y2 \
	OrthoOrbital Au 30   s \
	OrthoOrbital Au 30   p \
	OrthoOrbital Au 30   px \
	OrthoOrbital Au 30   py \
	OrthoOrbital Au 30   pz \
	OrthoOrbital Au 30   d \
	OrthoOrbital Au 30   dxy \
	OrthoOrbital Au 30   dyz \
	OrthoOrbital Au 30   dz2 \
	OrthoOrbital Au 30   dxz \
	OrthoOrbital Au 30   dx2-y2
dump End ElecDensity KEdensity BandEigs EigStats RhoAtom DOS Kpoints
dump Ionic State IonicPositions Lattice EigStats Ecomponents
dump 
dump 
dump 
dump 
dump 
dump 
dump 
dump 
dump-name jdft.$VAR
elec-cutoff 20
elec-eigen-algo Davidson
elec-ex-corr gga-PBE
elec-initial-magnetization 0.000000 no
elec-n-bands 306
elec-smearing Fermi 0.001
electronic-minimize  \
	dirUpdateScheme      FletcherReeves \
	linminMethod         DirUpdateRecommended \
	nIterations          100 \
	history              15 \
	knormThreshold       0 \
	energyDiffThreshold  1e-07 \
	nEnergyDiff          2 \
	alphaTstart          1 \
	alphaTmin            1e-10 \
	updateTestStepSize   yes \
	alphaTreduceFactor   0.1 \
	alphaTincreaseFactor 3 \
	nAlphaAdjustMax      3 \
	wolfeEnergy          0.0001 \
	wolfeGradient        0.9 \
	fdTest               no
exchange-regularization WignerSeitzTruncated
fluid LinearPCM 298.000000 1.013250
fluid-anion F- 0.5 MeanFieldLJ \
	epsBulk 1 \
	pMol 0 \
	epsInf 1 \
	Pvap 0 \
	sigmaBulk 0 \
	Rvdw 2.24877 \
	Res 0 \
	tauNuc 343133
fluid-cation Na+ 0.5 MeanFieldLJ \
	epsBulk 1 \
	pMol 0 \
	epsInf 1 \
	Pvap 0 \
	sigmaBulk 0 \
	Rvdw 2.19208 \
	Res 0 \
	tauNuc 343133
fluid-ex-corr lda-TF lda-PZ
fluid-gummel-loop 10 1.000000e-05
fluid-minimize  \
	dirUpdateScheme      PolakRibiere \
	linminMethod         DirUpdateRecommended \
	nIterations          400 \
	history              15 \
	knormThreshold       1e-11 \
	energyDiffThreshold  0 \
	nEnergyDiff          2 \
	alphaTstart          1 \
	alphaTmin            1e-10 \
	updateTestStepSize   yes \
	alphaTreduceFactor   0.1 \
	alphaTincreaseFactor 3 \
	nAlphaAdjustMax      6 \
	wolfeEnergy          0.0001 \
	wolfeGradient        0.9 \
	fdTest               no
fluid-solvent H2O 55.338 ScalarEOS \
	epsBulk 78.4 \
	pMol 0.92466 \
	epsInf 1.77 \
	Pvap 1.06736e-10 \
	sigmaBulk 4.62e-05 \
	Rvdw 2.61727 \
	Res 1.42 \
	tauNuc 343133 \
	poleEl 15 7 1
forces-output-coords Positions
initial-state jdft.$VAR
ion Ni   0.000000000000000  16.575013983391116  20.641393960894003 1
ion Ni   0.000000000000000   9.365113472127030  18.317077653873678 1
ion Ni   0.000000000000000   2.404621062068184  15.980514047328407 1
ion Ni   0.000000000000000  18.905799270874045  13.538359576105119 1
ion Ni   0.000000000000000  11.799030202347783  11.262776897387946 1
ion Ni   0.000000000000000   4.698634863492626   8.866359067679261 1
ion Ni   0.000000000000000  21.320069950302706   6.426112838069195 1
ion Ni   0.000000000000000  13.997772469458571   4.043424225784252 1
ion Ni   0.000000000000000   7.052469023755519   2.005497146683967 1
ion Ni   0.000000000000000  -0.169403945582366  22.641032187070337 1
ion Au   3.729776000000000  17.726820263586959  17.045593046081216 1
ion Au   3.729776000000000  10.609713462585104  14.828540417738942 1
ion Au   3.729776000000000   3.555883607025007  12.395533276111474 1
ion Au   3.729776000000000  20.068742727023999  10.028128767213508 1
ion Au   3.729776000000000  12.982377123737038   7.587615416571474 1
ion Au   3.729776000000000   5.893397194369798   5.410119649299364 1
ion Au   3.729776000000000  22.391039196686560   2.685206563793417 1
ion Au   3.729776000000000  15.182149252870477   0.787899741652260 1
ion Au   3.729776000000000   8.261087946354918  21.880656799798974 1
ion Au   3.729776000000000   1.253802115470743  19.646366712268112 1
ion Au   3.729776000000000  13.244949393359331  19.694565749514769 1
ion Au   3.729776000000000   5.849226656559265  17.152134813146926 1
ion Au   3.729776000000000  22.451778195883271  14.763778167675159 1
ion Au   3.729776000000000  15.318983265973163  12.383166228039688 1
ion Au   3.729776000000000   8.286378672226519  10.041272917368234 1
ion Au   3.729776000000000   1.187286250253007   7.632848443056187 1
ion Au   3.729776000000000  17.776535465731548   5.332190943703051 1
ion Au   3.729776000000000  10.396919016998252   2.477853728909949 1
ion Au   3.729776000000000   3.978782809257584   0.514243982858139 1
ion Au   3.729776000000000  19.743822066469743  22.034885013765038 1
ion Au   0.000000000000000  14.096963339252898  15.956067058345786 1
ion Au   0.000000000000000   7.102670079276894  13.584417079255926 1
ion Au   0.000000000000000   0.018229949018978  11.208002391846243 1
ion Au   0.000000000000000  16.494763066763777   8.856651545354859 1
ion Au   0.000000000000000   9.535888676886833   6.450091115781037 1
ion Au   0.000000000000000   2.236774566584422   3.965433673995888 1
ion Au   0.000000000000000  18.868993393508426   1.712910787641283 1
ion Au   0.000000000000000  11.748573643884709  22.849622152340000 1
ion Au   0.000000000000000   4.753679878601267  20.892820787111667 1
ion Au   0.000000000000000  21.229000371564467  18.262295428885462 1
ion-species /projects/musgravc/apps/jdftx-1.6.0/build/pseudopotentials/GBRV_v1.5/$ID_pbe_v1.uspp
ion-species /projects/musgravc/apps/jdftx-1.6.0/build/pseudopotentials/GBRV_v1.5/$ID_pbe_v1.2.uspp
ion-species /projects/musgravc/apps/jdftx-1.6.0/build/pseudopotentials/GBRV_v1.5/$ID_pbe_v1.4.uspp
ion-species /projects/musgravc/apps/jdftx-1.6.0/build/pseudopotentials/GBRV_v1.5/$ID_pbe_v1.5.uspp
ion-width Ecut
ionic-minimize  \
	dirUpdateScheme      L-BFGS \
	linminMethod         DirUpdateRecommended \
	nIterations          100 \
	history              15 \
	knormThreshold       0.0001 \
	energyDiffThreshold  1e-06 \
	nEnergyDiff          2 \
	alphaTstart          1 \
	alphaTmin            1e-10 \
	updateTestStepSize   yes \
	alphaTreduceFactor   0.1 \
	alphaTincreaseFactor 3 \
	nAlphaAdjustMax      3 \
	wolfeEnergy          0.0001 \
	wolfeGradient        0.9 \
	fdTest               no
kpoint   0.000000000000   0.000000000000   0.000000000000  1.00000000000000
kpoint-folding 9 2 1 
latt-move-scale 0 0 0
latt-scale 1 1 1 
lattice  \
	   7.459552000000000    0.000000000000000    0.000000000000000  \
	   0.000000000000000   23.589175000000001    0.000000000000000  \
	   0.000000000000000    0.000000000000000   70.767526000000004 
lattice-minimize  \
	dirUpdateScheme      L-BFGS \
	linminMethod         DirUpdateRecommended \
	nIterations          0 \
	history              15 \
	knormThreshold       0 \
	energyDiffThreshold  1e-06 \
	nEnergyDiff          2 \
	alphaTstart          1 \
	alphaTmin            1e-10 \
	updateTestStepSize   yes \
	alphaTreduceFactor   0.1 \
	alphaTincreaseFactor 3 \
	nAlphaAdjustMax      3 \
	wolfeEnergy          0.0001 \
	wolfeGradient        0.9 \
	fdTest               no
lcao-params 30 1e-06 0.001
pcm-variant CANDLE
spintype z-spin
subspace-rotation-factor 1 yes
symmetries automatic
symmetry-threshold 0.0001
target-mu -0.1713 no

van-der-waals D3



---------- Setting up symmetries ----------

Found 8 point-group symmetries of the bravais lattice
Found 2 space-group symmetries with basis
Applied RMS atom displacement 0 bohrs to make symmetries exact.

---------- Initializing the Grid ----------
R = 
[      7.45955            0            0  ]
[            0      23.5892            0  ]
[            0            0      70.7675  ]
unit cell volume = 12452.6
G =
[   0.842301          0          0  ]
[          0   0.266359          0  ]
[          0          0  0.0887863  ]
Minimum fftbox size, Smin = [  32  96  288  ]
Chosen fftbox size, S = [  32  96  288  ]

---------- Exchange Correlation functional ----------
Initalized PBE GGA exchange.
Initalized PBE GGA correlation.

---------- Setting up pseudopotentials ----------
Width of ionic core gaussian charges (only for fluid interactions / plotting) set to 0.397384

Reading pseudopotential file '/projects/musgravc/apps/jdftx-1.6.0/build/pseudopotentials/GBRV_v1.5/ni_pbe_v1.4.uspp':
  Title: Ni.  Created by USPP 7.3.6 on 1-4-15
  Reference state energy: -170.398381.  18 valence electrons in orbitals:
    |300>  occupation: 2  eigenvalue: -4.804705
    |310>  occupation: 6  eigenvalue: -3.347751
    |320>  occupation: 8  eigenvalue: -1.042415
    |400>  occupation: 0  eigenvalue: -0.795539
    |410>  occupation: 0  eigenvalue: -0.551375
  lMax: 2  lLocal: 3  QijEcut: 6.5
  6 projectors sampled on a log grid with 611 points:
    l: 0  eig: -4.804708  rCut: 1.44
    l: 0  eig: -0.795541  rCut: 1.44
    l: 1  eig: -3.347753  rCut: 1.55
    l: 1  eig: 0.500000  rCut: 1.55
    l: 2  eig: -1.042418  rCut: 1.5
    l: 2  eig: -0.450000  rCut: 1.5
  Partial core density with radius 0.65
  Transforming core density to a uniform radial grid of dG=0.02 with 1133 points.
  Transforming local potential to a uniform radial grid of dG=0.02 with 1133 points.
  Transforming nonlocal projectors to a uniform radial grid of dG=0.02 with 432 points.
  Transforming density augmentations to a uniform radial grid of dG=0.02 with 1133 points.
  Transforming atomic orbitals to a uniform radial grid of dG=0.02 with 432 points.
  Core radius for overlap checks: 1.55 bohrs.

Reading pseudopotential file '/projects/musgravc/apps/jdftx-1.6.0/build/pseudopotentials/GBRV_v1.5/au_pbe_v1.uspp':
  Title: Au.  Created by USPP 7.3.6 on 14-9-2013
  Reference state energy: -57.375295.  11 valence electrons in orbitals:
    |520>  occupation: 10  eigenvalue: -0.252742
    |600>  occupation: 1  eigenvalue: -0.211744
    |610>  occupation: 0  eigenvalue: -0.028291
  lMax: 3  lLocal: -1  QijEcut: 5
  7 projectors sampled on a log grid with 755 points:
    l: 0  eig: -0.211744  rCut: 2.3
    l: 0  eig: 0.500000  rCut: 2.3
    l: 1  eig: -0.028291  rCut: 2.35
    l: 1  eig: 0.850000  rCut: 2.35
    l: 2  eig: -0.252741  rCut: 2.1
    l: 2  eig: 1.000000  rCut: 2.1
    l: 3  eig: 0.000000  rCut: 2.5
  Partial core density with radius 1
  Transforming core density to a uniform radial grid of dG=0.02 with 1133 points.
  Transforming local potential to a uniform radial grid of dG=0.02 with 1133 points.
  Transforming nonlocal projectors to a uniform radial grid of dG=0.02 with 432 points.
  Transforming density augmentations to a uniform radial grid of dG=0.02 with 1133 points.
  Transforming atomic orbitals to a uniform radial grid of dG=0.02 with 432 points.
  Core radius for overlap checks: 2.50 bohrs.

Initialized 2 species with 40 total atoms.

Folded 1 k-points by 9x2x1 to 18 k-points.

---------- Setting up k-points, bands, fillings ----------
Reduced to 10 k-points under symmetry. 
Computing the number of bands and number of electrons
Reading initial fillings from file jdft.fillings.
nElectrons: 510.032445   nBands: 306   nStates: 20

----- Setting up reduced wavefunction bases (one per k-point) -----
average nbasis = 53197.722 , ideal nbasis = 53198.392

----- Initializing Supercell corresponding to k-point mesh -----
Lattice vector linear combinations in supercell:
[   9   0   0  ]
[   0   2   0  ]
[   0   0   1  ]
Supercell lattice vectors:
[  67.136  0  0  ]
[  0  47.1784  0  ]
[  0  0  70.7675  ]

Initializing DFT-D3 calculator:
	Parameters set for gga-PBE functional
	s6:  1.000  s_r6:  1.217
	s8:  0.722  s_r8:  1.000
	Per-atom parameters loaded for:
	Ni:  sqrtQ[a0]:  5.285  Rcov[a0]:  1.871  CN: [ 0.00 1.79 6.55 6.29 ]
	Au:  sqrtQ[a0]:  5.707  Rcov[a0]:  2.135  CN: [ 0.00 0.98 ]

Initializing DFT-D2 calculator for fluid / solvation:
	Ni:  C6:  187.33 Eh-a0^6  R0: 2.952 a0
	Au:  C6:  815.23 Eh-a0^6  R0: 3.326 a0 (WARNING: beyond Grimme's data set)

---------- Setting up ewald sum ----------
Optimum gaussian width for ewald sums = 5.000191 bohr.
Real space sum over 765 unit cells with max indices [  8  4  2  ]
Reciprocal space sum over 8037 terms with max indices [  4  9  23  ]

Computing DFT-D3 correction:
# coordination-number Ni 5.509 6.443 6.424 6.634 6.587 6.503 6.465 5.893 5.468 4.070
# coordination-number Au 8.579 8.477 8.602 8.559 8.269 8.636 6.257 4.706 5.945 7.692 7.567 8.548 8.526 8.566 8.530 8.501 8.310 5.869 4.395 5.165 8.458 8.633 8.602 8.416 8.436 7.750 5.757 4.707 6.328 8.529
# diagonal-C6 Ni 139.99 134.95 135.08 133.71 134.01 134.55 134.81 138.36 140.12 151.24
# diagonal-C6 Au 317.16 317.16 317.16 317.16 317.16 317.16 317.16 317.16 317.16 317.16 317.16 317.16 317.16 317.16 317.16 317.16 317.16 317.16 317.16 317.16 317.16 317.16 317.16 317.16 317.16 317.16 317.16 317.16 317.16 317.16
EvdW_6 =   -0.303718
EvdW_8 =   -0.531803

---------- Allocating electronic variables ----------
Initializing wave functions:  reading from 'jdft.wfns'
----- createFluidSolver() ----- (Fluid-side solver setup)
   Initializing fluid molecule 'H2O'
     Initializing site 'O'
       Electron density: proportional to exp(-r/0.36935)*erfc((r-0.51523)/0.36823) with norm 6.826
       Charge density: gaussian nuclear width 0.478731 with net site charge 0.826
       Polarizability: cuspless exponential with width 0.32 and norm 3.73
       Hard sphere radius: 2.57003 bohrs
       Positions in reference frame:
         [ +0.000000 +0.000000 +0.000000 ]
     Initializing site 'H'
       Electron density: proportional to exp(-r/0.34641)*erfc((r-0)/0.390882) with norm 0.587
       Charge density: gaussian nuclear width 0.377945 with net site charge -0.413
       Polarizability: cuspless exponential with width 0.39 and norm 3.3
       Positions in reference frame:
         [ +0.000000 -1.441945 +1.122523 ]
         [ +0.000000 +1.441945 +1.122523 ]
     Net charge: 0   dipole magnitude: 0.927204
     Initializing spherical shell mfKernel with radius 2.61727 Bohr
     deltaS corrections:
       site 'O': -7.54299
       site 'H': -6.83917
   Initializing fluid molecule 'Na+'
     Initializing site 'Na'
       Electron density: proportional to exp(-r/0.19682)*erfc((r-0.71491)/0.41314) with norm 8.1383
       Charge density: gaussian nuclear width 0.365347 with net site charge -1
       Hard sphere radius: 1.86327 bohrs
       Positions in reference frame:
         [ +0.000000 +0.000000 +0.000000 ]
     Net charge: -1   dipole magnitude: 0
     Initializing gaussian mfKernel with width: 1.55004 Bohr
     deltaS corrections:
       site 'Na': -22.3555
   Initializing fluid molecule 'F-'
     Initializing site 'F'
       Electron density: proportional to exp(-r/0.38886)*erfc((r-0)/0.438782) with norm 8
       Charge density: gaussian nuclear width 0.374796 with net site charge 1
       Hard sphere radius: 2.39995 bohrs
       Positions in reference frame:
         [ +0.000000 +0.000000 +0.000000 ]
     Net charge: 1   dipole magnitude: 0
     Initializing gaussian mfKernel with width: 1.59012 Bohr
     deltaS corrections:
       site 'F': -9.04335

Correction to mu due to finite nuclear width = -0.0406359
   Cavity determined by nc: 0.00142 and sigma: 0.707107
   Nonlocal vdW cavity from gaussian model electron density with norm = 8 and sigma = 0.993594 bohr
   Charge asymmetry in cavity with sensitivity pCavity = 36.5 e-bohr/Eh
   Electrostatic cavity expanded by eta = 1.46 bohrs
   Weighted density cavitation model constrained by Nbulk: 0.0049383 bohr^-3, Pvap: 3.14029 kPa, Rvdw: 2.61727 bohr and sigmaBulk: 4.62e-05 Eh/bohr^2 at T: 298 K.
   Weighted density dispersion model using vdW pair potentials with single solvent site with sqrtC6eff: 0.77 SI.
Reading fluid state from 'jdft.fluidState'


---- Citations for features of the code used in this run ----

   Software package:
      R. Sundararaman, K. Letchworth-Weaver, K.A. Schwarz, D. Gunceler, Y. Ozhabes and T.A. Arias, 'JDFTx: software for joint density-functional theory', SoftwareX 6, 278 (2017)

   gga-PBE exchange-correlation functional:
      J.P. Perdew, K. Burke and M. Ernzerhof, Phys. Rev. Lett. 77, 3865 (1996)

   Pseudopotentials:
      KF Garrity, JW Bennett, KM Rabe and D Vanderbilt, Comput. Mater. Sci. 81, 446 (2014)

   DFT-D3 dispersion correction:
      S. Grimme, J. Antony, S. Ehrlich and H. Krieg, J. Chem. Phys. 132, 154104 (2010)

   DFT-D2 dispersion correction:
      S. Grimme, J. Comput. Chem. 27, 1787 (2006)

   Charge-asymmetric nonlocally-determined local-electric (CANDLE) solvation model:
      R. Sundararaman and W.A. Goddard III, J. Chem. Phys. 142, 064107 (2015)

   Total energy minimization with Auxiliary Hamiltonian:
      C. Freysoldt, S. Boeck, and J. Neugebauer, Phys. Rev. B 79, 241103(R) (2009)

   Grand-canonical (fixed-potential) DFT:
      R. Sundararaman, W. A. Goddard III and T. A. Arias, J. Chem. Phys. 146, 114104 (2017)

   Linear-tetrahedron sampling for density of states:
      G. Lehmann and M. Taut, Phys. status solidi (b) 54, 469 (1972)

This list may not be complete. Please suggest additional citations or
report any other bugs at https://github.com/shankar1729/jdftx/issues

Initialization completed successfully at t[s]:     20.02


Computing DFT-D3 correction:
# coordination-number Ni 5.509 6.443 6.424 6.634 6.587 6.503 6.465 5.893 5.468 4.070
# coordination-number Au 8.579 8.477 8.602 8.559 8.269 8.636 6.257 4.706 5.945 7.692 7.567 8.548 8.526 8.566 8.530 8.501 8.310 5.869 4.395 5.165 8.458 8.633 8.602 8.416 8.436 7.750 5.757 4.707 6.328 8.529
# diagonal-C6 Ni 139.99 134.95 135.08 133.71 134.01 134.55 134.81 138.36 140.12 151.24
# diagonal-C6 Au 317.16 317.16 317.16 317.16 317.16 317.16 317.16 317.16 317.16 317.16 317.16 317.16 317.16 317.16 317.16 317.16 317.16 317.16 317.16 317.16 317.16 317.16 317.16 317.16 317.16 317.16 317.16 317.16 317.16 317.16
EvdW_6 =   -0.303718
EvdW_8 =   -0.531803
Shifting auxilliary hamiltonian by 0.000073 to set nElectrons=510.032445

-------- Electronic minimization -----------
	Linear fluid (dielectric constant: 78.4, screening length: 8.12261 Bohr) occupying 0.545950 of unit cell:	Completed after 12 iterations at t[s]:     35.74
	FillingsUpdate:  mu: -0.171300000  nElectrons: 510.032445  magneticMoment: [ Abs: 2.46401  Tot: -2.00537 ]
ElecMinimize: Iter:   0  G: -2665.483572530917172  |grad|_K:  3.074e-06  alpha:  1.000e+00
	Linear fluid (dielectric constant: 78.4, screening length: 8.12261 Bohr) occupying 0.549979 of unit cell:	Completed after 28 iterations at t[s]:    122.64
	Linear fluid (dielectric constant: 78.4, screening length: 8.12261 Bohr) occupying 0.545961 of unit cell:	Completed after 27 iterations at t[s]:    156.24
	FillingsUpdate:  mu: -0.171300000  nElectrons: 510.036313  magneticMoment: [ Abs: 2.46667  Tot: -2.00767 ]
	SubspaceRotationAdjust: set factor to 0.521
ElecMinimize: Iter:   1  G: -2665.483610539235997  |grad|_K:  1.186e-06  alpha:  1.045e-02  linmin: -1.707e-02  t[s]:    191.40
	Linear fluid (dielectric constant: 78.4, screening length: 8.12261 Bohr) occupying 0.545954 of unit cell:	Completed after 13 iterations at t[s]:    231.55
	Linear fluid (dielectric constant: 78.4, screening length: 8.12261 Bohr) occupying 0.545955 of unit cell:	Completed after 2 iterations at t[s]:    259.64
	FillingsUpdate:  mu: -0.171300000  nElectrons: 510.030879  magneticMoment: [ Abs: 2.47067  Tot: -2.01206 ]
	SubspaceRotationAdjust: set factor to 0.296
ElecMinimize: Iter:   2  G: -2665.483615790519707  |grad|_K:  4.064e-07  alpha:  9.703e-03  linmin:  1.099e-03  t[s]:    295.88
	Linear fluid (dielectric constant: 78.4, screening length: 8.12261 Bohr) occupying 0.545955 of unit cell:	Completed after 7 iterations at t[s]:    335.09
	Linear fluid (dielectric constant: 78.4, screening length: 8.12261 Bohr) occupying 0.545956 of unit cell:	Completed after 7 iterations at t[s]:    363.90
	FillingsUpdate:  mu: -0.171300000  nElectrons: 510.032157  magneticMoment: [ Abs: 2.47060  Tot: -2.01185 ]
	SubspaceRotationAdjust: set factor to 0.22
ElecMinimize: Iter:   3  G: -2665.483617078486077  |grad|_K:  2.009e-07  alpha:  2.282e-02  linmin: -3.185e-03  t[s]:    399.29
	Linear fluid (dielectric constant: 78.4, screening length: 8.12261 Bohr) occupying 0.545956 of unit cell:	Completed after 2 iterations at t[s]:    437.40
	Linear fluid (dielectric constant: 78.4, screening length: 8.12261 Bohr) occupying 0.545954 of unit cell:	Completed after 6 iterations at t[s]:    465.97
	FillingsUpdate:  mu: -0.171300000  nElectrons: 510.031367  magneticMoment: [ Abs: 2.47053  Tot: -2.01181 ]
	SubspaceRotationAdjust: set factor to 0.162
ElecMinimize: Iter:   4  G: -2665.483618021705752  |grad|_K:  1.166e-07  alpha:  6.514e-02  linmin: -3.916e-04  t[s]:    501.25
	Linear fluid (dielectric constant: 78.4, screening length: 8.12261 Bohr) occupying 0.545954 of unit cell:	Completed after 6 iterations at t[s]:    540.09
	Linear fluid (dielectric constant: 78.4, screening length: 8.12261 Bohr) occupying 0.545954 of unit cell:	Completed after 0 iterations at t[s]:    567.16
	FillingsUpdate:  mu: -0.171300000  nElectrons: 510.031012  magneticMoment: [ Abs: 2.47036  Tot: -2.01162 ]
	SubspaceRotationAdjust: set factor to 0.157
ElecMinimize: Iter:   5  G: -2665.483618346304411  |grad|_K:  6.439e-08  alpha:  7.143e-02  linmin: -2.321e-03  t[s]:    602.51
	Linear fluid (dielectric constant: 78.4, screening length: 8.12261 Bohr) occupying 0.545955 of unit cell:	Completed after 2 iterations at t[s]:    640.68
	Linear fluid (dielectric constant: 78.4, screening length: 8.12261 Bohr) occupying 0.545955 of unit cell:	Completed after 0 iterations at t[s]:    670.40
	FillingsUpdate:  mu: -0.171300000  nElectrons: 510.031675  magneticMoment: [ Abs: 2.47006  Tot: -2.01123 ]
	SubspaceRotationAdjust: set factor to 0.186
ElecMinimize: Iter:   6  G: -2665.483618465960262  |grad|_K:  5.181e-08  alpha:  7.874e-02  linmin: -4.077e-03  t[s]:    708.52
	Linear fluid (dielectric constant: 78.4, screening length: 8.12261 Bohr) occupying 0.545956 of unit cell:	Completed after 7 iterations at t[s]:    747.81
	Linear fluid (dielectric constant: 78.4, screening length: 8.12261 Bohr) occupying 0.545955 of unit cell:	Completed after 2 iterations at t[s]:    775.56
	FillingsUpdate:  mu: -0.171300000  nElectrons: 510.032091  magneticMoment: [ Abs: 2.46996  Tot: -2.01106 ]
	SubspaceRotationAdjust: set factor to 0.12
	SubspaceRotationAdjust: resetting CG because factor has changed by 0.120402
	Linear fluid (dielectric constant: 78.4, screening length: 8.12261 Bohr) occupying 0.545955 of unit cell:	Completed after 0 iterations at t[s]:    822.64
ElecMinimize: 	State modified externally: resetting search direction.
ElecMinimize: Iter:   7  G: -2665.483618499294153  |grad|_K:  6.444e-08  alpha:  4.663e-02
	Linear fluid (dielectric constant: 78.4, screening length: 8.12261 Bohr) occupying 0.545954 of unit cell:	Completed after 3 iterations at t[s]:    896.20
	Linear fluid (dielectric constant: 78.4, screening length: 8.12261 Bohr) occupying 0.545954 of unit cell:	Completed after 0 iterations at t[s]:    924.39
	FillingsUpdate:  mu: -0.171300000  nElectrons: 510.031508  magneticMoment: [ Abs: 2.47023  Tot: -2.01136 ]
	SubspaceRotationAdjust: set factor to 0.128
ElecMinimize: Iter:   8  G: -2665.483618574199227  |grad|_K:  1.945e-08  alpha:  5.307e-02  linmin: -2.224e-02  t[s]:    959.78
ElecMinimize: Converged (|Delta G|<1.000000e-07 for 2 iters).
Setting wave functions to eigenvectors of Hamiltonian
Converging empty states (this may take a while): |deigs|: 1.498e-08

Computing DFT-D3 correction:
# coordination-number Ni 5.509 6.443 6.424 6.634 6.587 6.503 6.465 5.893 5.468 4.070
# coordination-number Au 8.579 8.477 8.602 8.559 8.269 8.636 6.257 4.706 5.945 7.692 7.567 8.548 8.526 8.566 8.530 8.501 8.310 5.869 4.395 5.165 8.458 8.633 8.602 8.416 8.436 7.750 5.757 4.707 6.328 8.529
# diagonal-C6 Ni 139.99 134.95 135.08 133.71 134.01 134.55 134.81 138.36 140.12 151.24
# diagonal-C6 Au 317.16 317.16 317.16 317.16 317.16 317.16 317.16 317.16 317.16 317.16 317.16 317.16 317.16 317.16 317.16 317.16 317.16 317.16 317.16 317.16 317.16 317.16 317.16 317.16 317.16 317.16 317.16 317.16 317.16 317.16
EvdW_6 =   -0.303718
EvdW_8 =   -0.531803

# Ionic positions in cartesian coordinates:
ion Ni   0.000000000000000  16.575013983391116  20.641393960894003 1
ion Ni   0.000000000000000   9.365113472127030  18.317077653873678 1
ion Ni   0.000000000000000   2.404621062068184  15.980514047328407 1
ion Ni   0.000000000000000  18.905799270874045  13.538359576105119 1
ion Ni   0.000000000000000  11.799030202347783  11.262776897387946 1
ion Ni   0.000000000000000   4.698634863492626   8.866359067679261 1
ion Ni   0.000000000000000  21.320069950302706   6.426112838069195 1
ion Ni   0.000000000000000  13.997772469458571   4.043424225784252 1
ion Ni   0.000000000000000   7.052469023755519   2.005497146683967 1
ion Ni   0.000000000000000  -0.169403945582366  22.641032187070337 1
ion Au   3.729776000000000  17.726820263586959  17.045593046081216 1
ion Au   3.729776000000000  10.609713462585104  14.828540417738942 1
ion Au   3.729776000000000   3.555883607025007  12.395533276111474 1
ion Au   3.729776000000000  20.068742727023999  10.028128767213508 1
ion Au   3.729776000000000  12.982377123737038   7.587615416571474 1
ion Au   3.729776000000000   5.893397194369798   5.410119649299364 1
ion Au   3.729776000000000  22.391039196686560   2.685206563793417 1
ion Au   3.729776000000000  15.182149252870477   0.787899741652260 1
ion Au   3.729776000000000   8.261087946354918  21.880656799798974 1
ion Au   3.729776000000000   1.253802115470743  19.646366712268112 1
ion Au   3.729776000000000  13.244949393359331  19.694565749514769 1
ion Au   3.729776000000000   5.849226656559265  17.152134813146926 1
ion Au   3.729776000000000  22.451778195883271  14.763778167675159 1
ion Au   3.729776000000000  15.318983265973163  12.383166228039688 1
ion Au   3.729776000000000   8.286378672226519  10.041272917368234 1
ion Au   3.729776000000000   1.187286250253007   7.632848443056187 1
ion Au   3.729776000000000  17.776535465731548   5.332190943703051 1
ion Au   3.729776000000000  10.396919016998252   2.477853728909949 1
ion Au   3.729776000000000   3.978782809257584   0.514243982858139 1
ion Au   3.729776000000000  19.743822066469743  22.034885013765038 1
ion Au   0.000000000000000  14.096963339252898  15.956067058345786 1
ion Au   0.000000000000000   7.102670079276894  13.584417079255926 1
ion Au   0.000000000000000   0.018229949018978  11.208002391846243 1
ion Au   0.000000000000000  16.494763066763777   8.856651545354859 1
ion Au   0.000000000000000   9.535888676886833   6.450091115781037 1
ion Au   0.000000000000000   2.236774566584422   3.965433673995888 1
ion Au   0.000000000000000  18.868993393508426   1.712910787641283 1
ion Au   0.000000000000000  11.748573643884709  22.849622152340000 1
ion Au   0.000000000000000   4.753679878601267  20.892820787111667 1
ion Au   0.000000000000000  21.229000371564467  18.262295428885462 1

# Forces in Cartesian coordinates:
force Ni   0.000000000000000   0.001646176527653  -0.000392066432507 1
force Ni   0.000000000000000   0.000013994057913   0.001355802763757 1
force Ni   0.000000000000000   0.000326075118193  -0.000089941805569 1
force Ni   0.000000000000000  -0.000063990315921  -0.000218627348402 1
force Ni   0.000000000000000   0.000184936488174   0.000028973224943 1
force Ni   0.000000000000000   0.000171621214531  -0.000211765034108 1
force Ni   0.000000000000000   0.001685302275147  -0.000876743419196 1
force Ni   0.000000000000000   0.000408523187755  -0.002639552742072 1
force Ni   0.000000000000000  -0.000257781615493  -0.001654894230839 1
force Ni   0.000000000000000  -0.005325732367637  -0.000606886061934 1
force Au   0.000000000000000  -0.000361848133148  -0.001550952496026 1
force Au   0.000000000000000  -0.000410562101019   0.001540273248959 1
force Au   0.000000000000000   0.000510090718387  -0.000309012104754 1
force Au   0.000000000000000   0.000075596437209   0.000429332590763 1
force Au   0.000000000000000   0.000265889830722  -0.001236978241980 1
force Au   0.000000000000000  -0.000000333961772   0.001303543935215 1
force Au   0.000000000000000   0.000765513979383  -0.001879847075122 1
force Au   0.000000000000000  -0.001143425109853   0.000891363046868 1
force Au   0.000000000000000   0.000456293566449  -0.000241050578832 1
force Au   0.000000000000000  -0.000886500068676   0.000650593094004 1
force Au   0.000000000000000   0.001857540828547   0.000451946117445 1
force Au   0.000000000000000   0.000006537234697   0.000360016984657 1
force Au   0.000000000000000   0.001669347743722  -0.000243484130752 1
force Au   0.000000000000000  -0.000852530184739  -0.000313015524238 1
force Au   0.000000000000000   0.001404719388944   0.000382424904168 1
force Au   0.000000000000000  -0.000866388046108  -0.001222092769290 1
force Au   0.000000000000000   0.001604540076739  -0.000037646879294 1
force Au   0.000000000000000  -0.001804290069239  -0.001797747945935 1
force Au   0.000000000000000   0.002104902333253  -0.000575797667039 1
force Au   0.000000000000000  -0.002403180893886   0.000399705359074 1
force Au   0.000000000000000   0.000146906881341   0.000639740153095 1
force Au   0.000000000000000   0.000068432727563   0.000660050047814 1
force Au   0.000000000000000   0.000222171489405  -0.000362663751721 1
force Au   0.000000000000000   0.000164903929823  -0.000382873575511 1
force Au   0.000000000000000  -0.000044984449229   0.000225557685371 1
force Au   0.000000000000000   0.000168989617462  -0.001779585891717 1
force Au   0.000000000000000  -0.000437162664338   0.000094495280492 1
force Au   0.000000000000000   0.000576737752677   0.000393611953480 1
force Au   0.000000000000000  -0.000335356191695   0.000605274257965 1
force Au   0.000000000000000   0.000207816952913  -0.000401685620760 1

# Energy components:
   A_diel =       -0.0170036468333501
   Eewald =    22297.2958552338277514
       EH =    24899.0659692089575401
     Eloc =   -50268.9480842614357243
      Enl =      133.7220324016223003
     EvdW =       -0.8355208139367551
      Exc =    -1111.5698584587537425
 Exc_core =      688.8080955500113305
       KE =      609.6304422405703463
  MuShift =       -0.0012803740241173
-------------------------------------
     Etot =    -2752.8493529199945442
       TS =        0.0026630461467675
-------------------------------------
        F =    -2752.8520159661411526
      muN =      -87.3683973919418548
-------------------------------------
        G =    -2665.4836185741992267


Dumping 'jdft.fillings' ... done
Dumping 'jdft.wfns' ... done
Dumping 'jdft.fluidState' ... done
Dumping 'jdft.ionpos' ... done
Dumping 'jdft.lattice' ... done
Dumping 'jdft.eigenvals' ... done
Dumping 'jdft.eigStats' ... 
	eMin: -3.942613 at state 10 ( [ +0.000000 +0.000000 +0.000000 ] spin -1 )
	HOMO: -0.171338 at state 0 ( [ +0.000000 +0.000000 +0.000000 ] spin 1 )
	mu  : -0.171300
	LUMO: -0.171295 at state 1 ( [ +0.000000 +0.500000 +0.000000 ] spin 1 )
	eMax: +0.079255 at state 1 ( [ +0.000000 +0.500000 +0.000000 ] spin 1 )
	HOMO-LUMO gap: +0.000044
	Optical gap  : +0.000310 at state 0 ( [ +0.000000 +0.000000 +0.000000 ] spin 1 )
Dumping 'jdft.Ecomponents' ... done
IonicMinimize: Iter:   0  G: -2665.483618574199227  |grad|_K:  9.101e-04  t[s]:   1060.86

#--- Lowdin population analysis ---
# oxidation-state Ni +0.239 +0.213 +0.204 +0.183 +0.188 +0.192 +0.212 +0.228 +0.238 +0.393
# magnetic-moments Ni -0.414 -0.024 -0.112 -0.052 -0.029 -0.049 -0.010 -0.180 -0.492 -0.691
# oxidation-state Au -0.078 -0.042 -0.042 -0.044 -0.050 -0.088 -0.041 +0.018 -0.057 -0.117 -0.117 -0.063 -0.045 -0.042 -0.043 -0.043 -0.083 -0.090 +0.054 -0.083 -0.051 -0.045 -0.044 -0.046 -0.069 -0.111 -0.033 +0.059 -0.056 -0.096
# magnetic-moments Au +0.006 -0.001 +0.001 -0.001 +0.001 +0.004 -0.003 +0.003 +0.002 +0.001 -0.000 +0.002 +0.001 +0.001 +0.000 -0.002 -0.002 -0.002 -0.003 +0.012 +0.002 -0.000 +0.001 -0.000 +0.004 -0.002 +0.000 +0.001 +0.005 -0.004


Computing DFT-D3 correction:
# coordination-number Ni 5.512 6.443 6.424 6.633 6.585 6.501 6.464 5.890 5.468 4.071
# coordination-number Au 8.580 8.476 8.601 8.558 8.265 8.634 6.256 4.709 5.946 7.689 7.566 8.547 8.525 8.565 8.529 8.501 8.308 5.866 4.397 5.169 8.458 8.632 8.601 8.412 8.433 7.749 5.758 4.706 6.324 8.529
# diagonal-C6 Ni 139.98 134.95 135.08 133.72 134.02 134.57 134.81 138.38 140.12 151.02
# diagonal-C6 Au 317.16 317.16 317.16 317.16 317.16 317.16 317.16 317.16 317.16 317.16 317.16 317.16 317.16 317.16 317.16 317.16 317.16 317.16 317.16 317.16 317.16 317.16 317.16 317.16 317.16 317.16 317.16 317.16 317.16 317.16
EvdW_6 =   -0.303696
EvdW_8 =   -0.531788
Shifting auxilliary hamiltonian by -0.000009 to set nElectrons=510.031508

-------- Electronic minimization -----------
	Linear fluid (dielectric constant: 78.4, screening length: 8.12261 Bohr) occupying 0.545933 of unit cell:	Completed after 12 iterations at t[s]:   1107.96
	FillingsUpdate:  mu: -0.171300000  nElectrons: 510.031508  magneticMoment: [ Abs: 2.47069  Tot: -2.01074 ]
ElecMinimize: Iter:   0  G: -2665.483691857111808  |grad|_K:  7.954e-07  alpha:  1.000e+00
	Linear fluid (dielectric constant: 78.4, screening length: 8.12261 Bohr) occupying 0.546143 of unit cell:	Completed after 22 iterations at t[s]:   1194.17
	Linear fluid (dielectric constant: 78.4, screening length: 8.12261 Bohr) occupying 0.545942 of unit cell:	Completed after 22 iterations at t[s]:   1226.75
	FillingsUpdate:  mu: -0.171300000  nElectrons: 510.035055  magneticMoment: [ Abs: 2.47031  Tot: -2.01009 ]
	SubspaceRotationAdjust: set factor to 0.123
ElecMinimize: Iter:   1  G: -2665.483707369741751  |grad|_K:  2.383e-07  alpha:  7.562e-02  linmin:  8.852e-04  t[s]:   1262.69
	Linear fluid (dielectric constant: 78.4, screening length: 8.12261 Bohr) occupying 0.545939 of unit cell:	Completed after 10 iterations at t[s]:   1302.26
	Linear fluid (dielectric constant: 78.4, screening length: 8.12261 Bohr) occupying 0.545938 of unit cell:	Completed after 3 iterations at t[s]:   1330.32
	FillingsUpdate:  mu: -0.171300000  nElectrons: 510.032044  magneticMoment: [ Abs: 2.47185  Tot: -2.01187 ]
	SubspaceRotationAdjust: set factor to 0.0851
ElecMinimize: Iter:   2  G: -2665.483709136821290  |grad|_K:  1.975e-07  alpha:  9.537e-02  linmin: -1.676e-03  t[s]:   1365.75
	Linear fluid (dielectric constant: 78.4, screening length: 8.12261 Bohr) occupying 0.545939 of unit cell:	Completed after 3 iterations at t[s]:   1403.92
	Linear fluid (dielectric constant: 78.4, screening length: 8.12261 Bohr) occupying 0.545940 of unit cell:	Completed after 7 iterations at t[s]:   1432.69
	FillingsUpdate:  mu: -0.171300000  nElectrons: 510.033597  magneticMoment: [ Abs: 2.47153  Tot: -2.01136 ]
	SubspaceRotationAdjust: set factor to 0.0806
ElecMinimize: Iter:   3  G: -2665.483711481429054  |grad|_K:  1.324e-07  alpha:  1.873e-01  linmin:  2.408e-03  t[s]:   1468.10
	Linear fluid (dielectric constant: 78.4, screening length: 8.12261 Bohr) occupying 0.545940 of unit cell:	Completed after 2 iterations at t[s]:   1506.77
	Linear fluid (dielectric constant: 78.4, screening length: 8.12261 Bohr) occupying 0.545940 of unit cell:	Completed after 2 iterations at t[s]:   1534.34
	FillingsUpdate:  mu: -0.171300000  nElectrons: 510.033605  magneticMoment: [ Abs: 2.47182  Tot: -2.01157 ]
	SubspaceRotationAdjust: set factor to 0.0916
ElecMinimize: Iter:   4  G: -2665.483712821468089  |grad|_K:  9.415e-08  alpha:  2.538e-01  linmin:  2.615e-04  t[s]:   1569.75
	Linear fluid (dielectric constant: 78.4, screening length: 8.12261 Bohr) occupying 0.545938 of unit cell:	Completed after 8 iterations at t[s]:   1609.03
	Linear fluid (dielectric constant: 78.4, screening length: 8.12261 Bohr) occupying 0.545938 of unit cell:	Completed after 1 iterations at t[s]:   1636.50
	FillingsUpdate:  mu: -0.171300000  nElectrons: 510.032353  magneticMoment: [ Abs: 2.47239  Tot: -2.01217 ]
	SubspaceRotationAdjust: set factor to 0.0633
ElecMinimize: Iter:   5  G: -2665.483713490603805  |grad|_K:  1.057e-07  alpha:  2.324e-01  linmin:  2.018e-03  t[s]:   1671.93
	Linear fluid (dielectric constant: 78.4, screening length: 8.12261 Bohr) occupying 0.545941 of unit cell:	Completed after 10 iterations at t[s]:   1711.48
	Linear fluid (dielectric constant: 78.4, screening length: 8.12261 Bohr) occupying 0.545940 of unit cell:	Completed after 7 iterations at t[s]:   1740.01
	FillingsUpdate:  mu: -0.171300000  nElectrons: 510.033835  magneticMoment: [ Abs: 2.47189  Tot: -2.01147 ]
	SubspaceRotationAdjust: set factor to 0.047
ElecMinimize: Iter:   6  G: -2665.483714006178161  |grad|_K:  8.170e-08  alpha:  1.515e-01  linmin:  3.691e-04  t[s]:   1775.72
	Linear fluid (dielectric constant: 78.4, screening length: 8.12261 Bohr) occupying 0.545940 of unit cell:	Completed after 2 iterations at t[s]:   1814.19
	Linear fluid (dielectric constant: 78.4, screening length: 8.12261 Bohr) occupying 0.545940 of unit cell:	Completed after 6 iterations at t[s]:   1842.58
	FillingsUpdate:  mu: -0.171300000  nElectrons: 510.033265  magneticMoment: [ Abs: 2.47252  Tot: -2.01202 ]
	SubspaceRotationAdjust: set factor to 0.0513
ElecMinimize: Iter:   7  G: -2665.483714827189942  |grad|_K:  6.957e-08  alpha:  3.915e-01  linmin:  1.593e-04  t[s]:   1877.95
	Linear fluid (dielectric constant: 78.4, screening length: 8.12261 Bohr) occupying 0.545939 of unit cell:	Completed after 7 iterations at t[s]:   1917.00
	Linear fluid (dielectric constant: 78.4, screening length: 8.12261 Bohr) occupying 0.545939 of unit cell:	Completed after 2 iterations at t[s]:   1944.52
	FillingsUpdate:  mu: -0.171300000  nElectrons: 510.032624  magneticMoment: [ Abs: 2.47291  Tot: -2.01238 ]
	SubspaceRotationAdjust: set factor to 0.0535
ElecMinimize: Iter:   8  G: -2665.483715322849093  |grad|_K:  6.992e-08  alpha:  3.197e-01  linmin: -1.934e-05  t[s]:   1979.77
	Linear fluid (dielectric constant: 78.4, screening length: 8.12261 Bohr) occupying 0.545941 of unit cell:	Completed after 7 iterations at t[s]:   2019.13
	Linear fluid (dielectric constant: 78.4, screening length: 8.12261 Bohr) occupying 0.545941 of unit cell:	Completed after 0 iterations at t[s]:   2046.11
	FillingsUpdate:  mu: -0.171300000  nElectrons: 510.033516  magneticMoment: [ Abs: 2.47277  Tot: -2.01207 ]
	SubspaceRotationAdjust: set factor to 0.0446
ElecMinimize: Iter:   9  G: -2665.483715856544222  |grad|_K:  6.469e-08  alpha:  3.331e-01  linmin: -5.329e-04  t[s]:   2081.44
	Linear fluid (dielectric constant: 78.4, screening length: 8.12261 Bohr) occupying 0.545940 of unit cell:	Completed after 7 iterations at t[s]:   2120.70
	Linear fluid (dielectric constant: 78.4, screening length: 8.12261 Bohr) occupying 0.545940 of unit cell:	Completed after 2 iterations at t[s]:   2148.69
	FillingsUpdate:  mu: -0.171300000  nElectrons: 510.032760  magneticMoment: [ Abs: 2.47321  Tot: -2.01251 ]
	SubspaceRotationAdjust: set factor to 0.0404
ElecMinimize: Iter:  10  G: -2665.483716197834383  |grad|_K:  6.377e-08  alpha:  2.396e-01  linmin:  2.774e-04  t[s]:   2183.97
	Linear fluid (dielectric constant: 78.4, screening length: 8.12261 Bohr) occupying 0.545940 of unit cell:	Completed after 2 iterations at t[s]:   2221.95
	Linear fluid (dielectric constant: 78.4, screening length: 8.12261 Bohr) occupying 0.545941 of unit cell:	Completed after 2 iterations at t[s]:   2249.58
	FillingsUpdate:  mu: -0.171300000  nElectrons: 510.032803  magneticMoment: [ Abs: 2.47332  Tot: -2.01250 ]
	SubspaceRotationAdjust: set factor to 0.0437
ElecMinimize: Iter:  11  G: -2665.483716780072882  |grad|_K:  5.751e-08  alpha:  4.525e-01  linmin:  1.353e-06  t[s]:   2285.04
	Linear fluid (dielectric constant: 78.4, screening length: 8.12261 Bohr) occupying 0.545943 of unit cell:	Completed after 5 iterations at t[s]:   2323.52
	Linear fluid (dielectric constant: 78.4, screening length: 8.12261 Bohr) occupying 0.545942 of unit cell:	Completed after 2 iterations at t[s]:   2351.06
	FillingsUpdate:  mu: -0.171300000  nElectrons: 510.033305  magneticMoment: [ Abs: 2.47326  Tot: -2.01233 ]
	SubspaceRotationAdjust: set factor to 0.0401
ElecMinimize: Iter:  12  G: -2665.483717116207572  |grad|_K:  6.110e-08  alpha:  3.148e-01  linmin:  2.098e-04  t[s]:   2386.44
	Linear fluid (dielectric constant: 78.4, screening length: 8.12261 Bohr) occupying 0.545942 of unit cell:	Completed after 7 iterations at t[s]:   2426.03
	Linear fluid (dielectric constant: 78.4, screening length: 8.12261 Bohr) occupying 0.545942 of unit cell:	Completed after 0 iterations at t[s]:   2453.04
	FillingsUpdate:  mu: -0.171300000  nElectrons: 510.032700  magneticMoment: [ Abs: 2.47364  Tot: -2.01270 ]
	SubspaceRotationAdjust: set factor to 0.0332
ElecMinimize: Iter:  13  G: -2665.483717434045502  |grad|_K:  5.209e-08  alpha:  2.652e-01  linmin:  6.652e-04  t[s]:   2488.35
	Linear fluid (dielectric constant: 78.4, screening length: 8.12261 Bohr) occupying 0.545943 of unit cell:	Completed after 2 iterations at t[s]:   2526.42
	Linear fluid (dielectric constant: 78.4, screening length: 8.12261 Bohr) occupying 0.545943 of unit cell:	Completed after 0 iterations at t[s]:   2553.17
	FillingsUpdate:  mu: -0.171300000  nElectrons: 510.033029  magneticMoment: [ Abs: 2.47354  Tot: -2.01252 ]
	SubspaceRotationAdjust: set factor to 0.0328
ElecMinimize: Iter:  14  G: -2665.483717626430916  |grad|_K:  4.482e-08  alpha:  2.356e-01  linmin:  4.922e-05  t[s]:   2588.61
	Linear fluid (dielectric constant: 78.4, screening length: 8.12261 Bohr) occupying 0.545943 of unit cell:	Completed after 2 iterations at t[s]:   2626.58
	Linear fluid (dielectric constant: 78.4, screening length: 8.12261 Bohr) occupying 0.545943 of unit cell:	Completed after 0 iterations at t[s]:   2653.43
	FillingsUpdate:  mu: -0.171300000  nElectrons: 510.033254  magneticMoment: [ Abs: 2.47353  Tot: -2.01244 ]
	SubspaceRotationAdjust: set factor to 0.0327
ElecMinimize: Iter:  15  G: -2665.483717787460591  |grad|_K:  2.956e-08  alpha:  2.446e-01  linmin: -1.798e-03  t[s]:   2688.83
	Linear fluid (dielectric constant: 78.4, screening length: 8.12261 Bohr) occupying 0.545943 of unit cell:	Completed after 2 iterations at t[s]:   2727.38
	Linear fluid (dielectric constant: 78.4, screening length: 8.12261 Bohr) occupying 0.545943 of unit cell:	Completed after 0 iterations at t[s]:   2754.24
	FillingsUpdate:  mu: -0.171300000  nElectrons: 510.033152  magneticMoment: [ Abs: 2.47359  Tot: -2.01248 ]
	SubspaceRotationAdjust: set factor to 0.0375
ElecMinimize: Iter:  16  G: -2665.483717927481848  |grad|_K:  2.210e-08  alpha:  4.055e-01  linmin: -2.945e-03  t[s]:   2789.80
	Linear fluid (dielectric constant: 78.4, screening length: 8.12261 Bohr) occupying 0.545943 of unit cell:	Completed after 2 iterations at t[s]:   2827.83
	Linear fluid (dielectric constant: 78.4, screening length: 8.12261 Bohr) occupying 0.545943 of unit cell:	Completed after 0 iterations at t[s]:   2854.70
	FillingsUpdate:  mu: -0.171300000  nElectrons: 510.032889  magneticMoment: [ Abs: 2.47370  Tot: -2.01259 ]
	SubspaceRotationAdjust: set factor to 0.0363
ElecMinimize: Iter:  17  G: -2665.483717981228438  |grad|_K:  2.314e-08  alpha:  3.010e-01  linmin:  4.529e-04  t[s]:   2889.98
	Linear fluid (dielectric constant: 78.4, screening length: 8.12261 Bohr) occupying 0.545943 of unit cell:	Completed after 2 iterations at t[s]:   2927.91
	Linear fluid (dielectric constant: 78.4, screening length: 8.12261 Bohr) occupying 0.545943 of unit cell:	Completed after 0 iterations at t[s]:   2954.85
	FillingsUpdate:  mu: -0.171300000  nElectrons: 510.032864  magneticMoment: [ Abs: 2.47374  Tot: -2.01261 ]
	SubspaceRotationAdjust: set factor to 0.0395
ElecMinimize: Iter:  18  G: -2665.483718018557738  |grad|_K:  2.352e-08  alpha:  2.186e-01  linmin:  6.910e-04  t[s]:   2990.26
ElecMinimize: Converged (|Delta G|<1.000000e-07 for 2 iters).
Setting wave functions to eigenvectors of Hamiltonian
Converging empty states (this may take a while): |deigs|: 1.195e-09

Computing DFT-D3 correction:
# coordination-number Ni 5.512 6.443 6.424 6.633 6.585 6.501 6.464 5.890 5.468 4.071
# coordination-number Au 8.580 8.476 8.601 8.558 8.265 8.634 6.256 4.709 5.946 7.689 7.566 8.547 8.525 8.565 8.529 8.501 8.308 5.866 4.397 5.169 8.458 8.632 8.601 8.412 8.433 7.749 5.758 4.706 6.324 8.529
# diagonal-C6 Ni 139.98 134.95 135.08 133.72 134.02 134.57 134.81 138.38 140.12 151.02
# diagonal-C6 Au 317.16 317.16 317.16 317.16 317.16 317.16 317.16 317.16 317.16 317.16 317.16 317.16 317.16 317.16 317.16 317.16 317.16 317.16 317.16 317.16 317.16 317.16 317.16 317.16 317.16 317.16 317.16 317.16 317.16 317.16
EvdW_6 =   -0.303696
EvdW_8 =   -0.531788
IonicMinimize: 	Wolfe criterion not satisfied: alpha: 1  (E-E0)/|gdotd0|: -1.00054  gdotd/gdotd0: 1.01853 (taking cubic step)

Computing DFT-D3 correction:
# coordination-number Ni 5.519 6.443 6.424 6.631 6.583 6.497 6.464 5.884 5.468 4.072
# coordination-number Au 8.581 8.473 8.599 8.555 8.256 8.629 6.253 4.716 5.947 7.684 7.565 8.547 8.524 8.564 8.528 8.500 8.304 5.861 4.401 5.176 8.459 8.630 8.600 8.406 8.427 7.747 5.760 4.704 6.314 8.530
# diagonal-C6 Ni 139.96 134.95 135.08 133.73 134.04 134.60 134.81 138.41 140.12 150.61
# diagonal-C6 Au 317.16 317.16 317.16 317.16 317.16 317.16 317.16 317.16 317.16 317.16 317.16 317.16 317.16 317.16 317.16 317.16 317.16 317.16 317.16 317.16 317.16 317.16 317.16 317.16 317.16 317.16 317.16 317.16 317.16 317.16
EvdW_6 =   -0.303651
EvdW_8 =   -0.531761
Shifting auxilliary hamiltonian by 0.000030 to set nElectrons=510.032864

-------- Electronic minimization -----------
	Linear fluid (dielectric constant: 78.4, screening length: 8.12261 Bohr) occupying 0.545928 of unit cell:	Completed after 12 iterations at t[s]:   3137.85
	FillingsUpdate:  mu: -0.171300000  nElectrons: 510.032864  magneticMoment: [ Abs: 2.47382  Tot: -2.01213 ]
ElecMinimize: Iter:   0  G: -2665.483850263991371  |grad|_K:  7.100e-07  alpha:  1.000e+00
	Linear fluid (dielectric constant: 78.4, screening length: 8.12261 Bohr) occupying 0.545923 of unit cell:	Completed after 20 iterations at t[s]:   3223.27
	Linear fluid (dielectric constant: 78.4, screening length: 8.12261 Bohr) occupying 0.545927 of unit cell:	Completed after 20 iterations at t[s]:   3254.93
	FillingsUpdate:  mu: -0.171300000  nElectrons: 510.030295  magneticMoment: [ Abs: 2.47503  Tot: -2.01360 ]
	SubspaceRotationAdjust: set factor to 0.0499
ElecMinimize: Iter:   1  G: -2665.483874620947972  |grad|_K:  3.379e-07  alpha:  1.475e-01  linmin: -3.521e-04  t[s]:   3290.58
	Linear fluid (dielectric constant: 78.4, screening length: 8.12261 Bohr) occupying 0.545929 of unit cell:	Completed after 7 iterations at t[s]:   3330.33
	Linear fluid (dielectric constant: 78.4, screening length: 8.12261 Bohr) occupying 0.545932 of unit cell:	Completed after 9 iterations at t[s]:   3359.42
	FillingsUpdate:  mu: -0.171300000  nElectrons: 510.031338  magneticMoment: [ Abs: 2.47453  Tot: -2.01303 ]
	SubspaceRotationAdjust: set factor to 0.0519
ElecMinimize: Iter:   2  G: -2665.483887156284254  |grad|_K:  1.751e-07  alpha:  3.344e-01  linmin: -7.974e-04  t[s]:   3395.11
	Linear fluid (dielectric constant: 78.4, screening length: 8.12261 Bohr) occupying 0.545935 of unit cell:	Completed after 8 iterations at t[s]:   3434.40
	Linear fluid (dielectric constant: 78.4, screening length: 8.12261 Bohr) occupying 0.545935 of unit cell:	Completed after 1 iterations at t[s]:   3461.91
	FillingsUpdate:  mu: -0.171300000  nElectrons: 510.032281  magneticMoment: [ Abs: 2.47437  Tot: -2.01274 ]
	SubspaceRotationAdjust: set factor to 0.0579
ElecMinimize: Iter:   3  G: -2665.483890870605137  |grad|_K:  1.572e-07  alpha:  3.687e-01  linmin: -6.435e-04  t[s]:   3497.23
	Linear fluid (dielectric constant: 78.4, screening length: 8.12261 Bohr) occupying 0.545938 of unit cell:	Completed after 7 iterations at t[s]:   3536.23
	Linear fluid (dielectric constant: 78.4, screening length: 8.12261 Bohr) occupying 0.545938 of unit cell:	Completed after 2 iterations at t[s]:   3563.87
	FillingsUpdate:  mu: -0.171300000  nElectrons: 510.033004  magneticMoment: [ Abs: 2.47383  Tot: -2.01212 ]
	SubspaceRotationAdjust: set factor to 0.0666
ElecMinimize: Iter:   4  G: -2665.483893135230574  |grad|_K:  1.355e-07  alpha:  2.769e-01  linmin:  9.238e-05  t[s]:   3600.30
	Linear fluid (dielectric constant: 78.4, screening length: 8.12261 Bohr) occupying 0.545937 of unit cell:	Completed after 9 iterations at t[s]:   3639.77
	Linear fluid (dielectric constant: 78.4, screening length: 8.12261 Bohr) occupying 0.545936 of unit cell:	Completed after 3 iterations at t[s]:   3667.73
	FillingsUpdate:  mu: -0.171300000  nElectrons: 510.030657  magneticMoment: [ Abs: 2.47497  Tot: -2.01343 ]
	SubspaceRotationAdjust: set factor to 0.0482
ElecMinimize: Iter:   5  G: -2665.483895282363846  |grad|_K:  1.587e-07  alpha:  3.587e-01  linmin: -4.700e-04  t[s]:   3703.12
	Linear fluid (dielectric constant: 78.4, screening length: 8.12261 Bohr) occupying 0.545945 of unit cell:	Completed after 11 iterations at t[s]:   3743.13
	Linear fluid (dielectric constant: 78.4, screening length: 8.12261 Bohr) occupying 0.545943 of unit cell:	Completed after 8 iterations at t[s]:   3772.23
	FillingsUpdate:  mu: -0.171300000  nElectrons: 510.033524  magneticMoment: [ Abs: 2.47409  Tot: -2.01226 ]
	SubspaceRotationAdjust: set factor to 0.0369
ElecMinimize: Iter:   6  G: -2665.483897399117723  |grad|_K:  1.263e-07  alpha:  2.466e-01  linmin:  3.589e-04  t[s]:   3807.62
	Linear fluid (dielectric constant: 78.4, screening length: 8.12261 Bohr) occupying 0.545943 of unit cell:	Completed after 3 iterations at t[s]:   3846.12
	Linear fluid (dielectric constant: 78.4, screening length: 8.12261 Bohr) occupying 0.545943 of unit cell:	Completed after 2 iterations at t[s]:   3873.51
	FillingsUpdate:  mu: -0.171300000  nElectrons: 510.033270  magneticMoment: [ Abs: 2.47437  Tot: -2.01251 ]
	SubspaceRotationAdjust: set factor to 0.0419
ElecMinimize: Iter:   7  G: -2665.483899420531998  |grad|_K:  1.466e-07  alpha:  3.947e-01  linmin: -5.882e-05  t[s]:   3909.13
	Linear fluid (dielectric constant: 78.4, screening length: 8.12261 Bohr) occupying 0.545941 of unit cell:	Completed after 10 iterations at t[s]:   3948.74
	Linear fluid (dielectric constant: 78.4, screening length: 8.12261 Bohr) occupying 0.545941 of unit cell:	Completed after 1 iterations at t[s]:   3976.15
	FillingsUpdate:  mu: -0.171300000  nElectrons: 510.032524  magneticMoment: [ Abs: 2.47476  Tot: -2.01287 ]
	SubspaceRotationAdjust: set factor to 0.0441
ElecMinimize: Iter:   8  G: -2665.483901891849655  |grad|_K:  1.274e-07  alpha:  3.514e-01  linmin: -9.468e-05  t[s]:   4011.59
	Linear fluid (dielectric constant: 78.4, screening length: 8.12261 Bohr) occupying 0.545943 of unit cell:	Completed after 10 iterations at t[s]:   4051.26
	Linear fluid (dielectric constant: 78.4, screening length: 8.12261 Bohr) occupying 0.545943 of unit cell:	Completed after 3 iterations at t[s]:   4079.16
	FillingsUpdate:  mu: -0.171300000  nElectrons: 510.034738  magneticMoment: [ Abs: 2.47417  Tot: -2.01199 ]
	SubspaceRotationAdjust: set factor to 0.0399
ElecMinimize: Iter:   9  G: -2665.483904464051648  |grad|_K:  1.590e-07  alpha:  4.757e-01  linmin: -3.049e-04  t[s]:   4114.64
	Linear fluid (dielectric constant: 78.4, screening length: 8.12261 Bohr) occupying 0.545936 of unit cell:	Completed after 10 iterations at t[s]:   4154.34
	Linear fluid (dielectric constant: 78.4, screening length: 8.12261 Bohr) occupying 0.545939 of unit cell:	Completed after 7 iterations at t[s]:   4183.11
	FillingsUpdate:  mu: -0.171300000  nElectrons: 510.033712  magneticMoment: [ Abs: 2.47482  Tot: -2.01264 ]
	SubspaceRotationAdjust: set factor to 0.0396
ElecMinimize: Iter:  10  G: -2665.483906823007146  |grad|_K:  1.409e-07  alpha:  2.731e-01  linmin:  2.436e-05  t[s]:   4218.65
	Linear fluid (dielectric constant: 78.4, screening length: 8.12261 Bohr) occupying 0.545936 of unit cell:	Completed after 6 iterations at t[s]:   4257.71
	Linear fluid (dielectric constant: 78.4, screening length: 8.12261 Bohr) occupying 0.545935 of unit cell:	Completed after 2 iterations at t[s]:   4285.31
	FillingsUpdate:  mu: -0.171300000  nElectrons: 510.033082  magneticMoment: [ Abs: 2.47510  Tot: -2.01290 ]
	SubspaceRotationAdjust: set factor to 0.0415
ElecMinimize: Iter:  11  G: -2665.483909028997459  |grad|_K:  1.149e-07  alpha:  3.400e-01  linmin: -1.112e-04  t[s]:   4320.74
	Linear fluid (dielectric constant: 78.4, screening length: 8.12261 Bohr) occupying 0.545934 of unit cell:	Completed after 6 iterations at t[s]:   4359.66
	Linear fluid (dielectric constant: 78.4, screening length: 8.12261 Bohr) occupying 0.545934 of unit cell:	Completed after 2 iterations at t[s]:   4387.43
	FillingsUpdate:  mu: -0.171300000  nElectrons: 510.034039  magneticMoment: [ Abs: 2.47492  Tot: -2.01254 ]
	SubspaceRotationAdjust: set factor to 0.0409
ElecMinimize: Iter:  12  G: -2665.483910748988819  |grad|_K:  1.162e-07  alpha:  3.958e-01  linmin:  3.532e-05  t[s]:   4422.82
	Linear fluid (dielectric constant: 78.4, screening length: 8.12261 Bohr) occupying 0.545933 of unit cell:	Completed after 7 iterations at t[s]:   4461.83
	Linear fluid (dielectric constant: 78.4, screening length: 8.12261 Bohr) occupying 0.545933 of unit cell:	Completed after 2 iterations at t[s]:   4489.48
	FillingsUpdate:  mu: -0.171300000  nElectrons: 510.034575  magneticMoment: [ Abs: 2.47475  Tot: -2.01227 ]
	SubspaceRotationAdjust: set factor to 0.0418
ElecMinimize: Iter:  13  G: -2665.483911820091180  |grad|_K:  8.887e-08  alpha:  2.463e-01  linmin:  2.402e-05  t[s]:   4524.64
	Linear fluid (dielectric constant: 78.4, screening length: 8.12261 Bohr) occupying 0.545931 of unit cell:	Completed after 6 iterations at t[s]:   4563.44
	Linear fluid (dielectric constant: 78.4, screening length: 8.12261 Bohr) occupying 0.545930 of unit cell:	Completed after 2 iterations at t[s]:   4591.07
	FillingsUpdate:  mu: -0.171300000  nElectrons: 510.033482  magneticMoment: [ Abs: 2.47519  Tot: -2.01276 ]
	SubspaceRotationAdjust: set factor to 0.0373
ElecMinimize: Iter:  14  G: -2665.483912588692419  |grad|_K:  7.678e-08  alpha:  2.967e-01  linmin: -8.099e-04  t[s]:   4626.44
	Linear fluid (dielectric constant: 78.4, screening length: 8.12261 Bohr) occupying 0.545930 of unit cell:	Completed after 2 iterations at t[s]:   4664.29
	Linear fluid (dielectric constant: 78.4, screening length: 8.12261 Bohr) occupying 0.545930 of unit cell:	Completed after 2 iterations at t[s]:   4691.80
	FillingsUpdate:  mu: -0.171300000  nElectrons: 510.033677  magneticMoment: [ Abs: 2.47515  Tot: -2.01266 ]
	SubspaceRotationAdjust: set factor to 0.0411
ElecMinimize: Iter:  15  G: -2665.483913053270498  |grad|_K:  6.274e-08  alpha:  2.266e-01  linmin:  1.795e-04  t[s]:   4727.06
	Linear fluid (dielectric constant: 78.4, screening length: 8.12261 Bohr) occupying 0.545931 of unit cell:	Completed after 3 iterations at t[s]:   4765.42
	Linear fluid (dielectric constant: 78.4, screening length: 8.12261 Bohr) occupying 0.545931 of unit cell:	Completed after 3 iterations at t[s]:   4793.19
	FillingsUpdate:  mu: -0.171300000  nElectrons: 510.034359  magneticMoment: [ Abs: 2.47488  Tot: -2.01230 ]
	SubspaceRotationAdjust: set factor to 0.0386
ElecMinimize: Iter:  16  G: -2665.483913391764872  |grad|_K:  4.910e-08  alpha:  2.797e-01  linmin:  9.775e-04  t[s]:   4829.44
	Linear fluid (dielectric constant: 78.4, screening length: 8.12261 Bohr) occupying 0.545931 of unit cell:	Completed after 2 iterations at t[s]:   4867.45
	Linear fluid (dielectric constant: 78.4, screening length: 8.12261 Bohr) occupying 0.545931 of unit cell:	Completed after 0 iterations at t[s]:   4894.20
	FillingsUpdate:  mu: -0.171300000  nElectrons: 510.034172  magneticMoment: [ Abs: 2.47489  Tot: -2.01230 ]
	SubspaceRotationAdjust: set factor to 0.0411
ElecMinimize: Iter:  17  G: -2665.483913583459980  |grad|_K:  4.525e-08  alpha:  2.556e-01  linmin:  1.817e-04  t[s]:   4929.72
	Linear fluid (dielectric constant: 78.4, screening length: 8.12261 Bohr) occupying 0.545930 of unit cell:	Completed after 2 iterations at t[s]:   4967.78
	Linear fluid (dielectric constant: 78.4, screening length: 8.12261 Bohr) occupying 0.545930 of unit cell:	Completed after 1 iterations at t[s]:   4994.98
	FillingsUpdate:  mu: -0.171300000  nElectrons: 510.033842  magneticMoment: [ Abs: 2.47496  Tot: -2.01239 ]
	SubspaceRotationAdjust: set factor to 0.0427
ElecMinimize: Iter:  18  G: -2665.483913703229973  |grad|_K:  2.767e-08  alpha:  1.941e-01  linmin: -1.139e-04  t[s]:   5030.41
	Linear fluid (dielectric constant: 78.4, screening length: 8.12261 Bohr) occupying 0.545930 of unit cell:	Completed after 0 iterations at t[s]:   5067.81
	Linear fluid (dielectric constant: 78.4, screening length: 8.12261 Bohr) occupying 0.545931 of unit cell:	Completed after 2 iterations at t[s]:   5096.44
	FillingsUpdate:  mu: -0.171300000  nElectrons: 510.033811  magneticMoment: [ Abs: 2.47494  Tot: -2.01235 ]
	SubspaceRotationAdjust: set factor to 0.0448
ElecMinimize: Iter:  19  G: -2665.483913789671078  |grad|_K:  3.030e-08  alpha:  4.211e-01  linmin:  3.027e-03  t[s]:   5131.76
	Linear fluid (dielectric constant: 78.4, screening length: 8.12261 Bohr) occupying 0.545931 of unit cell:	Completed after 2 iterations at t[s]:   5169.79
	Linear fluid (dielectric constant: 78.4, screening length: 8.12261 Bohr) occupying 0.545931 of unit cell:	Completed after 2 iterations at t[s]:   5197.35
	FillingsUpdate:  mu: -0.171300000  nElectrons: 510.033895  magneticMoment: [ Abs: 2.47488  Tot: -2.01227 ]
	SubspaceRotationAdjust: set factor to 0.0462
ElecMinimize: Iter:  20  G: -2665.483913840502737  |grad|_K:  2.056e-08  alpha:  2.109e-01  linmin:  1.101e-03  t[s]:   5232.58
ElecMinimize: Converged (|Delta G|<1.000000e-07 for 2 iters).
Setting wave functions to eigenvectors of Hamiltonian
Converging empty states (this may take a while): |deigs|: 3.298e-09

Computing DFT-D3 correction:
# coordination-number Ni 5.519 6.443 6.424 6.631 6.583 6.497 6.464 5.884 5.468 4.072
# coordination-number Au 8.581 8.473 8.599 8.555 8.256 8.629 6.253 4.716 5.947 7.684 7.565 8.547 8.524 8.564 8.528 8.500 8.304 5.861 4.401 5.176 8.459 8.630 8.600 8.406 8.427 7.747 5.760 4.704 6.314 8.530
# diagonal-C6 Ni 139.96 134.95 135.08 133.73 134.04 134.60 134.81 138.41 140.12 150.61
# diagonal-C6 Au 317.16 317.16 317.16 317.16 317.16 317.16 317.16 317.16 317.16 317.16 317.16 317.16 317.16 317.16 317.16 317.16 317.16 317.16 317.16 317.16 317.16 317.16 317.16 317.16 317.16 317.16 317.16 317.16 317.16 317.16
EvdW_6 =   -0.303651
EvdW_8 =   -0.531761
IonicMinimize: 	Wolfe criterion not satisfied: alpha: 3  (E-E0)/|gdotd0|: -2.97077  gdotd/gdotd0: 0.955714 (taking cubic step)

Computing DFT-D3 correction:
# coordination-number Ni 5.532 6.444 6.424 6.626 6.578 6.488 6.463 5.873 5.468 4.076
# coordination-number Au 8.583 8.467 8.595 8.549 8.239 8.620 6.247 4.729 5.950 7.672 7.563 8.546 8.522 8.561 8.525 8.498 8.296 5.851 4.410 5.190 8.459 8.626 8.598 8.392 8.414 7.743 5.764 4.700 6.296 8.531
# diagonal-C6 Ni 139.92 134.95 135.08 133.76 134.07 134.65 134.82 138.47 140.12 149.86
# diagonal-C6 Au 317.16 317.16 317.16 317.16 317.16 317.16 317.16 317.16 317.16 317.16 317.16 317.16 317.16 317.16 317.16 317.16 317.16 317.16 317.16 317.16 317.16 317.16 317.16 317.16 317.16 317.16 317.16 317.16 317.16 317.16
EvdW_6 =   -0.303563
EvdW_8 =   -0.531708
Shifting auxilliary hamiltonian by -0.000013 to set nElectrons=510.033895

-------- Electronic minimization -----------
	Linear fluid (dielectric constant: 78.4, screening length: 8.12261 Bohr) occupying 0.545935 of unit cell:	Completed after 19 iterations at t[s]:   5377.76
	FillingsUpdate:  mu: -0.171300000  nElectrons: 510.033895  magneticMoment: [ Abs: 2.47134  Tot: -2.00849 ]
ElecMinimize: Iter:   0  G: -2665.447235784758959  |grad|_K:  1.591e-05  alpha:  1.000e+00
	Linear fluid (dielectric constant: 78.4, screening length: 8.12261 Bohr) occupying 0.545889 of unit cell:	Completed after 25 iterations at t[s]:   5464.10
	Linear fluid (dielectric constant: 78.4, screening length: 8.12261 Bohr) occupying 0.545876 of unit cell:	Completed after 23 iterations at t[s]:   5496.60
	FillingsUpdate:  mu: -0.171300000  nElectrons: 509.940110  magneticMoment: [ Abs: 2.49944  Tot: -2.04435 ]
	SubspaceRotationAdjust: set factor to 0.0405
ElecMinimize: Iter:   1  G: -2665.472265570081163  |grad|_K:  9.905e-06  alpha:  3.016e-01  linmin: -4.148e-04  t[s]:   5532.30
	Linear fluid (dielectric constant: 78.4, screening length: 8.12261 Bohr) occupying 0.546297 of unit cell:	Completed after 20 iterations at t[s]:   5574.33
	Linear fluid (dielectric constant: 78.4, screening length: 8.12261 Bohr) occupying 0.546018 of unit cell:	Completed after 16 iterations at t[s]:   5604.71
	FillingsUpdate:  mu: -0.171300000  nElectrons: 510.070695  magneticMoment: [ Abs: 2.44862  Tot: -1.98274 ]
	SubspaceRotationAdjust: set factor to 0.0239
ElecMinimize: Iter:   2  G: -2665.478414993849128  |grad|_K:  4.683e-06  alpha:  1.933e-01  linmin:  8.667e-05  t[s]:   5640.56
	Linear fluid (dielectric constant: 78.4, screening length: 8.12261 Bohr) occupying 0.545946 of unit cell:	Completed after 16 iterations at t[s]:   5681.58
	Linear fluid (dielectric constant: 78.4, screening length: 8.12261 Bohr) occupying 0.545949 of unit cell:	Completed after 9 iterations at t[s]:   5711.74
	FillingsUpdate:  mu: -0.171300000  nElectrons: 510.033649  magneticMoment: [ Abs: 2.46657  Tot: -2.00395 ]
	SubspaceRotationAdjust: set factor to 0.0228
ElecMinimize: Iter:   3  G: -2665.479743036036325  |grad|_K:  2.841e-06  alpha:  1.856e-01  linmin:  5.158e-05  t[s]:   5746.99
	Linear fluid (dielectric constant: 78.4, screening length: 8.12261 Bohr) occupying 0.545935 of unit cell:	Completed after 13 iterations at t[s]:   5787.23
	Linear fluid (dielectric constant: 78.4, screening length: 8.12261 Bohr) occupying 0.545922 of unit cell:	Completed after 13 iterations at t[s]:   5817.16
	FillingsUpdate:  mu: -0.171300000  nElectrons: 510.013481  magneticMoment: [ Abs: 2.47571  Tot: -2.01514 ]
	SubspaceRotationAdjust: set factor to 0.025
ElecMinimize: Iter:   4  G: -2665.480809679832873  |grad|_K:  2.036e-06  alpha:  4.050e-01  linmin: -1.052e-05  t[s]:   5852.65
	Linear fluid (dielectric constant: 78.4, screening length: 8.12261 Bohr) occupying 0.545951 of unit cell:	Completed after 14 iterations at t[s]:   5893.46
	Linear fluid (dielectric constant: 78.4, screening length: 8.12261 Bohr) occupying 0.545946 of unit cell:	Completed after 10 iterations at t[s]:   5922.87
	FillingsUpdate:  mu: -0.171300000  nElectrons: 510.032911  magneticMoment: [ Abs: 2.47021  Tot: -2.00791 ]
	SubspaceRotationAdjust: set factor to 0.0249
ElecMinimize: Iter:   5  G: -2665.481276375566722  |grad|_K:  1.781e-06  alpha:  3.447e-01  linmin: -6.149e-06  t[s]:   5958.25
	Linear fluid (dielectric constant: 78.4, screening length: 8.12261 Bohr) occupying 0.545957 of unit cell:	Completed after 14 iterations at t[s]:   5998.61
	Linear fluid (dielectric constant: 78.4, screening length: 8.12261 Bohr) occupying 0.545956 of unit cell:	Completed after 3 iterations at t[s]:   6027.55
	FillingsUpdate:  mu: -0.171300000  nElectrons: 510.041120  magneticMoment: [ Abs: 2.46626  Tot: -2.00321 ]
	SubspaceRotationAdjust: set factor to 0.0287
ElecMinimize: Iter:   6  G: -2665.481609149674568  |grad|_K:  1.366e-06  alpha:  3.212e-01  linmin:  3.858e-07  t[s]:   6062.93
	Linear fluid (dielectric constant: 78.4, screening length: 8.12261 Bohr) occupying 0.545935 of unit cell:	Completed after 13 iterations at t[s]:   6103.41
	Linear fluid (dielectric constant: 78.4, screening length: 8.12261 Bohr) occupying 0.545937 of unit cell:	Completed after 9 iterations at t[s]:   6132.52
	FillingsUpdate:  mu: -0.171300000  nElectrons: 510.029553  magneticMoment: [ Abs: 2.47051  Tot: -2.00842 ]
	SubspaceRotationAdjust: set factor to 0.0343
ElecMinimize: Iter:   7  G: -2665.481791463704667  |grad|_K:  8.485e-07  alpha:  2.991e-01  linmin: -2.736e-05  t[s]:   6167.96
	Linear fluid (dielectric constant: 78.4, screening length: 8.12261 Bohr) occupying 0.545936 of unit cell:	Completed after 8 iterations at t[s]:   6207.09
	Linear fluid (dielectric constant: 78.4, screening length: 8.12261 Bohr) occupying 0.545935 of unit cell:	Completed after 6 iterations at t[s]:   6235.44
	FillingsUpdate:  mu: -0.171300000  nElectrons: 510.030456  magneticMoment: [ Abs: 2.47102  Tot: -2.00883 ]
	SubspaceRotationAdjust: set factor to 0.0436
ElecMinimize: Iter:   8  G: -2665.481904451833088  |grad|_K:  9.995e-07  alpha:  4.800e-01  linmin:  4.753e-06  t[s]:   6270.92
	Linear fluid (dielectric constant: 78.4, screening length: 8.12261 Bohr) occupying 0.545954 of unit cell:	Completed after 13 iterations at t[s]:   6311.94
	Linear fluid (dielectric constant: 78.4, screening length: 8.12261 Bohr) occupying 0.545952 of unit cell:	Completed after 7 iterations at t[s]:   6340.74
	FillingsUpdate:  mu: -0.171300000  nElectrons: 510.045723  magneticMoment: [ Abs: 2.46466  Tot: -2.00120 ]
	SubspaceRotationAdjust: set factor to 0.0458
ElecMinimize: Iter:   9  G: -2665.482051974250680  |grad|_K:  1.388e-06  alpha:  4.528e-01  linmin: -1.755e-05  t[s]:   6376.04
	Linear fluid (dielectric constant: 78.4, screening length: 8.12261 Bohr) occupying 0.545905 of unit cell:	Completed after 13 iterations at t[s]:   6416.35
	Linear fluid (dielectric constant: 78.4, screening length: 8.12261 Bohr) occupying 0.545897 of unit cell:	Completed after 11 iterations at t[s]:   6445.96
	FillingsUpdate:  mu: -0.171300000  nElectrons: 510.023173  magneticMoment: [ Abs: 2.47609  Tot: -2.01426 ]
	SubspaceRotationAdjust: set factor to 0.043
ElecMinimize: Iter:  10  G: -2665.482383194970680  |grad|_K:  1.995e-06  alpha:  5.271e-01  linmin:  5.383e-05  t[s]:   6481.47
	Linear fluid (dielectric constant: 78.4, screening length: 8.12261 Bohr) occupying 0.545857 of unit cell:	Completed after 11 iterations at t[s]:   6521.47
	Linear fluid (dielectric constant: 78.4, screening length: 8.12261 Bohr) occupying 0.545866 of unit cell:	Completed after 10 iterations at t[s]:   6550.74
	FillingsUpdate:  mu: -0.171300000  nElectrons: 510.022551  magneticMoment: [ Abs: 2.48063  Tot: -2.01820 ]
	SubspaceRotationAdjust: set factor to 0.05
ElecMinimize: Iter:  11  G: -2665.482925799635268  |grad|_K:  1.926e-06  alpha:  4.301e-01  linmin: -3.427e-06  t[s]:   6586.21
	Linear fluid (dielectric constant: 78.4, screening length: 8.12261 Bohr) occupying 0.545886 of unit cell:	Completed after 15 iterations at t[s]:   6627.64
	Linear fluid (dielectric constant: 78.4, screening length: 8.12261 Bohr) occupying 0.545882 of unit cell:	Completed after 11 iterations at t[s]:   6657.41
	FillingsUpdate:  mu: -0.171300000  nElectrons: 510.040357  magneticMoment: [ Abs: 2.47655  Tot: -2.01215 ]
	SubspaceRotationAdjust: set factor to 0.0482
ElecMinimize: Iter:  12  G: -2665.483333874868549  |grad|_K:  1.946e-06  alpha:  3.405e-01  linmin: -2.091e-05  t[s]:   6692.96
	Linear fluid (dielectric constant: 78.4, screening length: 8.12261 Bohr) occupying 0.545858 of unit cell:	Completed after 15 iterations at t[s]:   6733.98
	Linear fluid (dielectric constant: 78.4, screening length: 8.12261 Bohr) occupying 0.545861 of unit cell:	Completed after 11 iterations at t[s]:   6763.41
	FillingsUpdate:  mu: -0.171300000  nElectrons: 510.026359  magneticMoment: [ Abs: 2.48732  Tot: -2.02348 ]
	SubspaceRotationAdjust: set factor to 0.0451
ElecMinimize: Iter:  13  G: -2665.483709456258566  |grad|_K:  1.616e-06  alpha:  2.969e-01  linmin:  5.200e-05  t[s]:   6799.01
	Linear fluid (dielectric constant: 78.4, screening length: 8.12261 Bohr) occupying 0.545885 of unit cell:	Completed after 13 iterations at t[s]:   6839.15
[...]
	FillingsUpdate:  mu: -0.171300000  nElectrons: 510.059733  magneticMoment: [ Abs: 2.40459  Tot: -1.90944 ]
	SubspaceRotationAdjust: set factor to 0.0595
ElecMinimize: Iter:   1  G: -2665.488809119359303  |grad|_K:  1.753e-07  alpha:  1.668e-01  linmin: -2.265e-04  t[s]:  62268.87
	Linear fluid (dielectric constant: 78.4, screening length: 8.12261 Bohr) occupying 0.545459 of unit cell:	Completed after 6 iterations at t[s]:  62308.03
	Linear fluid (dielectric constant: 78.4, screening length: 8.12261 Bohr) occupying 0.545460 of unit cell:	Completed after 6 iterations at t[s]:  62336.48
	FillingsUpdate:  mu: -0.171300000  nElectrons: 510.060936  magneticMoment: [ Abs: 2.40340  Tot: -1.90811 ]
	SubspaceRotationAdjust: set factor to 0.0714
ElecMinimize: Iter:   2  G: -2665.488812357295046  |grad|_K:  1.030e-07  alpha:  3.191e-01  linmin: -1.257e-03  t[s]:  62371.88
	Linear fluid (dielectric constant: 78.4, screening length: 8.12261 Bohr) occupying 0.545464 of unit cell:	Completed after 8 iterations at t[s]:  62411.46
	Linear fluid (dielectric constant: 78.4, screening length: 8.12261 Bohr) occupying 0.545463 of unit cell:	Completed after 2 iterations at t[s]:  62439.07
	FillingsUpdate:  mu: -0.171300000  nElectrons: 510.062234  magneticMoment: [ Abs: 2.40263  Tot: -1.90721 ]
	SubspaceRotationAdjust: set factor to 0.058
ElecMinimize: Iter:   3  G: -2665.488813239689989  |grad|_K:  9.748e-08  alpha:  2.538e-01  linmin:  2.461e-04  t[s]:  62474.57
	Linear fluid (dielectric constant: 78.4, screening length: 8.12261 Bohr) occupying 0.545459 of unit cell:	Completed after 9 iterations at t[s]:  62514.36
	Linear fluid (dielectric constant: 78.4, screening length: 8.12261 Bohr) occupying 0.545460 of unit cell:	Completed after 3 iterations at t[s]:  62542.23
	FillingsUpdate:  mu: -0.171300000  nElectrons: 510.060732  magneticMoment: [ Abs: 2.40297  Tot: -1.90767 ]
	SubspaceRotationAdjust: set factor to 0.0446
ElecMinimize: Iter:   4  G: -2665.488813836185273  |grad|_K:  9.695e-08  alpha:  1.957e-01  linmin:  5.014e-04  t[s]:  62577.71
	Linear fluid (dielectric constant: 78.4, screening length: 8.12261 Bohr) occupying 0.545460 of unit cell:	Completed after 6 iterations at t[s]:  62616.96
	Linear fluid (dielectric constant: 78.4, screening length: 8.12261 Bohr) occupying 0.545460 of unit cell:	Completed after 0 iterations at t[s]:  62643.73
	FillingsUpdate:  mu: -0.171300000  nElectrons: 510.060987  magneticMoment: [ Abs: 2.40273  Tot: -1.90738 ]
	SubspaceRotationAdjust: set factor to 0.0552
ElecMinimize: Iter:   5  G: -2665.488814386152171  |grad|_K:  6.736e-08  alpha:  1.832e-01  linmin:  6.290e-04  t[s]:  62679.23
	Linear fluid (dielectric constant: 78.4, screening length: 8.12261 Bohr) occupying 0.545461 of unit cell:	Completed after 2 iterations at t[s]:  62717.51
	Linear fluid (dielectric constant: 78.4, screening length: 8.12261 Bohr) occupying 0.545461 of unit cell:	Completed after 7 iterations at t[s]:  62746.26
	FillingsUpdate:  mu: -0.171300000  nElectrons: 510.061882  magneticMoment: [ Abs: 2.40207  Tot: -1.90660 ]
	SubspaceRotationAdjust: set factor to 0.0566
ElecMinimize: Iter:   6  G: -2665.488815115821581  |grad|_K:  7.608e-08  alpha:  5.103e-01  linmin: -1.596e-04  t[s]:  62781.75
	Linear fluid (dielectric constant: 78.4, screening length: 8.12261 Bohr) occupying 0.545454 of unit cell:	Completed after 10 iterations at t[s]:  62821.49
	Linear fluid (dielectric constant: 78.4, screening length: 8.12261 Bohr) occupying 0.545458 of unit cell:	Completed after 10 iterations at t[s]:  62850.86
	FillingsUpdate:  mu: -0.171300000  nElectrons: 510.060902  magneticMoment: [ Abs: 2.40224  Tot: -1.90685 ]
	SubspaceRotationAdjust: set factor to 0.0464
ElecMinimize: Iter:   7  G: -2665.488815496448751  |grad|_K:  6.813e-08  alpha:  1.986e-01  linmin:  1.860e-05  t[s]:  62886.79
	Linear fluid (dielectric constant: 78.4, screening length: 8.12261 Bohr) occupying 0.545458 of unit cell:	Completed after 2 iterations at t[s]:  62924.96
	Linear fluid (dielectric constant: 78.4, screening length: 8.12261 Bohr) occupying 0.545459 of unit cell:	Completed after 2 iterations at t[s]:  62952.57
	FillingsUpdate:  mu: -0.171300000  nElectrons: 510.061389  magneticMoment: [ Abs: 2.40181  Tot: -1.90634 ]
	SubspaceRotationAdjust: set factor to 0.0555
ElecMinimize: Iter:   8  G: -2665.488816052529273  |grad|_K:  6.895e-08  alpha:  3.644e-01  linmin: -1.157e-04  t[s]:  62988.10
	Linear fluid (dielectric constant: 78.4, screening length: 8.12261 Bohr) occupying 0.545459 of unit cell:	Completed after 7 iterations at t[s]:  63028.03
	Linear fluid (dielectric constant: 78.4, screening length: 8.12261 Bohr) occupying 0.545459 of unit cell:	Completed after 0 iterations at t[s]:  63055.01
	FillingsUpdate:  mu: -0.171300000  nElectrons: 510.062225  magneticMoment: [ Abs: 2.40135  Tot: -1.90579 ]
	SubspaceRotationAdjust: set factor to 0.0538
ElecMinimize: Iter:   9  G: -2665.488816532635155  |grad|_K:  8.173e-08  alpha:  3.055e-01  linmin:  6.333e-04  t[s]:  63090.51
	Linear fluid (dielectric constant: 78.4, screening length: 8.12261 Bohr) occupying 0.545454 of unit cell:	Completed after 9 iterations at t[s]:  63130.34
	Linear fluid (dielectric constant: 78.4, screening length: 8.12261 Bohr) occupying 0.545456 of unit cell:	Completed after 2 iterations at t[s]:  63157.94
	FillingsUpdate:  mu: -0.171300000  nElectrons: 510.061332  magneticMoment: [ Abs: 2.40158  Tot: -1.90607 ]
	SubspaceRotationAdjust: set factor to 0.0408
ElecMinimize: Iter:  10  G: -2665.488816926170330  |grad|_K:  7.932e-08  alpha:  1.943e-01  linmin:  3.980e-04  t[s]:  63193.60
	Linear fluid (dielectric constant: 78.4, screening length: 8.12261 Bohr) occupying 0.545456 of unit cell:	Completed after 7 iterations at t[s]:  63232.75
	Linear fluid (dielectric constant: 78.4, screening length: 8.12261 Bohr) occupying 0.545456 of unit cell:	Completed after 0 iterations at t[s]:  63259.79
	FillingsUpdate:  mu: -0.171300000  nElectrons: 510.061789  magneticMoment: [ Abs: 2.40137  Tot: -1.90579 ]
	SubspaceRotationAdjust: set factor to 0.0385
ElecMinimize: Iter:  11  G: -2665.488817375621693  |grad|_K:  5.410e-08  alpha:  2.235e-01  linmin: -1.494e-03  t[s]:  63295.18
	Linear fluid (dielectric constant: 78.4, screening length: 8.12261 Bohr) occupying 0.545455 of unit cell:	Completed after 2 iterations at t[s]:  63333.69
	Linear fluid (dielectric constant: 78.4, screening length: 8.12261 Bohr) occupying 0.545455 of unit cell:	Completed after 2 iterations at t[s]:  63361.38
	FillingsUpdate:  mu: -0.171300000  nElectrons: 510.061826  magneticMoment: [ Abs: 2.40127  Tot: -1.90567 ]
	SubspaceRotationAdjust: set factor to 0.0412
ElecMinimize: Iter:  12  G: -2665.488817773736628  |grad|_K:  6.301e-08  alpha:  3.614e-01  linmin: -3.652e-04  t[s]:  63396.89
	Linear fluid (dielectric constant: 78.4, screening length: 8.12261 Bohr) occupying 0.545452 of unit cell:	Completed after 6 iterations at t[s]:  63436.00
	Linear fluid (dielectric constant: 78.4, screening length: 8.12261 Bohr) occupying 0.545453 of unit cell:	Completed after 2 iterations at t[s]:  63463.54
	FillingsUpdate:  mu: -0.171300000  nElectrons: 510.061256  magneticMoment: [ Abs: 2.40149  Tot: -1.90591 ]
	SubspaceRotationAdjust: set factor to 0.038
ElecMinimize: Iter:  13  G: -2665.488818084036666  |grad|_K:  5.569e-08  alpha:  2.276e-01  linmin:  3.654e-04  t[s]:  63499.10
	Linear fluid (dielectric constant: 78.4, screening length: 8.12261 Bohr) occupying 0.545453 of unit cell:	Completed after 3 iterations at t[s]:  63537.57
	Linear fluid (dielectric constant: 78.4, screening length: 8.12261 Bohr) occupying 0.545453 of unit cell:	Completed after 0 iterations at t[s]:  63564.66
	FillingsUpdate:  mu: -0.171300000  nElectrons: 510.061580  magneticMoment: [ Abs: 2.40148  Tot: -1.90584 ]
	SubspaceRotationAdjust: set factor to 0.044
ElecMinimize: Iter:  14  G: -2665.488818325231932  |grad|_K:  5.200e-08  alpha:  2.459e-01  linmin: -5.330e-04  t[s]:  63600.23
	Linear fluid (dielectric constant: 78.4, screening length: 8.12261 Bohr) occupying 0.545455 of unit cell:	Completed after 6 iterations at t[s]:  63639.35
	Linear fluid (dielectric constant: 78.4, screening length: 8.12261 Bohr) occupying 0.545454 of unit cell:	Completed after 2 iterations at t[s]:  63667.14
	FillingsUpdate:  mu: -0.171300000  nElectrons: 510.062016  magneticMoment: [ Abs: 2.40138  Tot: -1.90568 ]
	SubspaceRotationAdjust: set factor to 0.0387
ElecMinimize: Iter:  15  G: -2665.488818439349416  |grad|_K:  5.487e-08  alpha:  1.480e-01  linmin: -2.348e-04  t[s]:  63702.60
	Linear fluid (dielectric constant: 78.4, screening length: 8.12261 Bohr) occupying 0.545453 of unit cell:	Completed after 2 iterations at t[s]:  63740.73
	Linear fluid (dielectric constant: 78.4, screening length: 8.12261 Bohr) occupying 0.545453 of unit cell:	Completed after 0 iterations at t[s]:  63767.71
	FillingsUpdate:  mu: -0.171300000  nElectrons: 510.061692  magneticMoment: [ Abs: 2.40154  Tot: -1.90585 ]
	SubspaceRotationAdjust: set factor to 0.0511
ElecMinimize: Iter:  16  G: -2665.488818590657502  |grad|_K:  5.372e-08  alpha:  1.508e-01  linmin: -5.399e-04  t[s]:  63803.28
	Linear fluid (dielectric constant: 78.4, screening length: 8.12261 Bohr) occupying 0.545451 of unit cell:	Completed after 7 iterations at t[s]:  63842.60
	Linear fluid (dielectric constant: 78.4, screening length: 8.12261 Bohr) occupying 0.545452 of unit cell:	Completed after 2 iterations at t[s]:  63870.33
	FillingsUpdate:  mu: -0.171300000  nElectrons: 510.061212  magneticMoment: [ Abs: 2.40175  Tot: -1.90608 ]
	SubspaceRotationAdjust: set factor to 0.0414
ElecMinimize: Iter:  17  G: -2665.488818648766937  |grad|_K:  4.712e-08  alpha:  7.821e-02  linmin:  1.090e-03  t[s]:  63905.84
	Linear fluid (dielectric constant: 78.4, screening length: 8.12261 Bohr) occupying 0.545452 of unit cell:	Completed after 2 iterations at t[s]:  63943.97
	Linear fluid (dielectric constant: 78.4, screening length: 8.12261 Bohr) occupying 0.545452 of unit cell:	Completed after 1 iterations at t[s]:  63971.34
	FillingsUpdate:  mu: -0.171300000  nElectrons: 510.061055  magneticMoment: [ Abs: 2.40191  Tot: -1.90623 ]
	SubspaceRotationAdjust: set factor to 0.0413
ElecMinimize: Iter:  18  G: -2665.488818742012427  |grad|_K:  3.918e-08  alpha:  1.347e-01  linmin: -2.066e-03  t[s]:  64006.78
ElecMinimize: Converged (|Delta G|<1.000000e-07 for 2 iters).
Setting wave functions to eigenvectors of Hamiltonian
Converging empty states (this may take a while): |deigs|: 7.287e-09

Computing DFT-D3 correction:
# coordination-number Ni 5.612 6.312 6.327 6.525 6.420 6.359 6.377 5.794 5.617 4.357
# coordination-number Au 8.506 8.235 8.510 8.466 8.110 8.534 5.915 4.817 5.971 7.522 7.215 8.425 8.431 8.419 8.381 8.394 8.169 5.810 4.530 5.516 8.242 8.506 8.531 8.249 8.307 7.668 5.729 4.627 6.049 8.576
# diagonal-C6 Ni 139.63 135.82 135.72 134.41 135.10 135.51 135.39 138.86 139.61 141.67
# diagonal-C6 Au 317.16 317.16 317.16 317.16 317.16 317.16 317.16 317.16 317.16 317.16 317.16 317.16 317.16 317.16 317.16 317.16 317.16 317.16 317.16 317.16 317.16 317.16 317.16 317.16 317.16 317.16 317.16 317.16 317.16 317.16
EvdW_6 =   -0.301571
EvdW_8 =   -0.531159

# Ionic positions in cartesian coordinates:
ion Ni   0.000000000000000  16.726557753684773  20.618560735672578 1
ion Ni   0.000000000000000   9.327353507343135  18.420989386085047 1
ion Ni   0.000000000000000   2.411952835175906  15.972896099551461 1
ion Ni   0.000000000000000  18.900409000314351  13.516375514761471 1
ion Ni   0.000000000000000  11.797067671380679  11.280739304658514 1
ion Ni   0.000000000000000   4.710580788854221   8.865960093004956 1
ion Ni   0.000000000000000  21.356043992667374   6.394830292654910 1
ion Ni   0.000000000000000  13.981357528467742   3.943794230954103 1
ion Ni   0.000000000000000   7.031594105368864   2.003994522027337 1
ion Ni   0.000000000000000  -0.519762535197554  22.623591612140924 1
ion Au   3.729776000000000  17.782470199093297  16.887993028899110 1
ion Au   3.729776000000000  10.563023460341087  15.085835437527500 1
ion Au   3.729776000000000   3.650395982866205  12.275975283470117 1
ion Au   3.729776000000000  20.011989334909813  10.125662388479537 1
ion Au   3.729776000000000  13.044424268271404   7.388492840427643 1
ion Au   3.729776000000000   5.872305523675800   5.518919669850218 1
ion Au   3.729776000000000  22.482285439957515   2.422003783143407 1
ion Au   3.729776000000000  15.137291557893741   0.853494278448003 1
ion Au   3.729776000000000   8.236034195534721  21.846767479059992 1
ion Au   3.729776000000000   1.153216425415619  19.875171763554452 1
ion Au   3.729776000000000  13.500777223032589  19.896554553472015 1
ion Au   3.729776000000000   5.671024419456805  17.203448702001801 1
ion Au   3.729776000000000  22.627907200579582  14.756606984039459 1
ion Au   3.729776000000000  15.146394863709522  12.332737961470732 1
ion Au   3.729776000000000   8.456424779860665  10.116497975857399 1
ion Au   3.729776000000000   1.078745290077448   7.547539463461507 1
ion Au   3.729776000000000  17.966539228216718   5.318642400494359 1
ion Au   3.729776000000000  10.282657073184680   2.377112650994935 1
ion Au   3.729776000000000   4.150358048272849   0.489214126361787 1
ion Au   3.729776000000000  19.677385749486159  22.063198182567263 1
ion Au   0.000000000000000  14.089342292484742  16.021037797993433 1
ion Au   0.000000000000000   7.127304424642823  13.673813953422835 1
ion Au   0.000000000000000   0.034158472376153  11.148022813365010 1
ion Au   0.000000000000000  16.485936512808323   8.824129433062120 1
ion Au   0.000000000000000   9.534685496271631   6.451622672331087 1
ion Au   0.000000000000000   2.246114310867194   3.900503870240451 1
ion Au   0.000000000000000  18.878919944100470   1.679842192096393 1
ion Au   0.000000000000000  11.680561028871237  22.874630831900806 1
ion Au   0.000000000000000   4.646890309833529  21.009846797296841 1
ion Au   0.000000000000000  21.255614295848364  18.176408893198708 1

# Forces in Cartesian coordinates:
force Ni   0.000000000000000   0.000161903568582   0.000350852466092 1
force Ni   0.000000000000000   0.000071432344470   0.000051955106604 1
force Ni   0.000000000000000   0.000174797378196   0.000060550316454 1
force Ni   0.000000000000000   0.000146414731160   0.000081241076936 1
force Ni   0.000000000000000   0.000229179796426   0.000021274383319 1
force Ni   0.000000000000000   0.000148363276316   0.000015052455732 1
force Ni   0.000000000000000   0.000212422664650  -0.000147852121998 1
force Ni   0.000000000000000   0.000304283649453  -0.000176569047082 1
force Ni   0.000000000000000   0.000368506956690  -0.000243726488808 1
force Ni   0.000000000000000   0.000216459791594   0.000287582763846 1
force Au   0.000000000000000   0.000111299956480   0.000046028267462 1
force Au   0.000000000000000   0.000248663467554   0.000032976663698 1
force Au   0.000000000000000   0.000030814534576  -0.000067027924533 1
force Au   0.000000000000000   0.000260801824030  -0.000014068426888 1
force Au   0.000000000000000   0.000176526110516  -0.000089340963344 1
force Au   0.000000000000000   0.000119683008004  -0.000095759348980 1
force Au   0.000000000000000   0.000234445584770  -0.000060116944636 1
force Au   0.000000000000000   0.000175900112874  -0.000163715375010 1
force Au   0.000000000000000  -0.000125777110338   0.000098739287983 1
force Au   0.000000000000000   0.000075707457252  -0.000102524385526 1
force Au   0.000000000000000   0.000053717901219   0.000184991193485 1
force Au   0.000000000000000   0.000244237653327   0.000154727253787 1
force Au   0.000000000000000   0.000176317469237  -0.000004902678399 1
force Au   0.000000000000000   0.000142365886157  -0.000037681606285 1
force Au   0.000000000000000   0.000280188402198  -0.000045660095650 1
force Au   0.000000000000000   0.000120408608147   0.000001166709990 1
force Au   0.000000000000000   0.000207122002024  -0.000052883138654 1
force Au   0.000000000000000   0.000176339695403  -0.000152322958400 1
force Au   0.000000000000000   0.000331554618953  -0.000145138234445 1
force Au   0.000000000000000   0.000132317932389   0.000140315024535 1
force Au   0.000000000000000   0.000092975319330   0.000067203068982 1
force Au   0.000000000000000   0.000250406572486   0.000030499197211 1
force Au   0.000000000000000   0.000220983171113  -0.000041836715798 1
force Au   0.000000000000000   0.000110292983219  -0.000038491872797 1
force Au   0.000000000000000   0.000243971169980   0.000035570446709 1
force Au   0.000000000000000   0.000175551778433  -0.000083711811135 1
force Au   0.000000000000000   0.000185533688240  -0.000106165874807 1
force Au   0.000000000000000  -0.000043204686339   0.000083844968567 1
force Au   0.000000000000000   0.000177516159837  -0.000131630725072 1
force Au   0.000000000000000   0.000090220131467   0.000023321662694 1

# Energy components:
   A_diel =       -0.0231660993945613
   Eewald =    22178.7166509284543281
       EH =    24781.2708019596757367
     Eloc =   -50032.5248829683769145
      Enl =      133.6374010431059673
     EvdW =       -0.8327292296881214
      Exc =    -1111.5173883885547639
 Exc_core =      688.8071514839707561
       KE =      609.6089347620350054
  MuShift =       -0.0024810124327414
-------------------------------------
     Etot =    -2752.8597075212105665
       TS =        0.0025698807403203
-------------------------------------
        F =    -2752.8622774019509052
      muN =      -87.3734586599383221
-------------------------------------
        G =    -2665.4888187420124268


Dumping 'jdft.fillings' ... done
Dumping 'jdft.wfns' ... done
Dumping 'jdft.fluidState' ... done
Dumping 'jdft.ionpos' ... done
Dumping 'jdft.lattice' ... done
Dumping 'jdft.eigenvals' ... done
Dumping 'jdft.eigStats' ... 
	eMin: -3.942876 at state 10 ( [ +0.000000 +0.000000 +0.000000 ] spin -1 )
	HOMO: -0.171561 at state 6 ( [ +0.333333 +0.000000 +0.000000 ] spin 1 )
	mu  : -0.171300
	LUMO: -0.171096 at state 2 ( [ +0.111111 +0.000000 +0.000000 ] spin 1 )
	eMax: +0.080455 at state 1 ( [ +0.000000 +0.500000 +0.000000 ] spin 1 )
	HOMO-LUMO gap: +0.000464
	Optical gap  : +0.000816 at state 6 ( [ +0.333333 +0.000000 +0.000000 ] spin 1 )
Dumping 'jdft.Ecomponents' ... done
IonicMinimize: Iter:  12  G: -2665.488818742012427  |grad|_K:  8.866e-05  alpha:  1.000e+00  linmin: -3.283e-01  t[s]:  64108.70
IonicMinimize: Converged (|grad|_K<1.000000e-04).

#--- Lowdin population analysis ---
# oxidation-state Ni +0.215 +0.216 +0.206 +0.185 +0.194 +0.198 +0.214 +0.224 +0.210 +0.357
# magnetic-moments Ni -0.421 +0.007 -0.086 -0.065 -0.024 -0.058 +0.008 -0.181 -0.459 -0.664
# oxidation-state Au -0.068 -0.046 -0.044 -0.046 -0.055 -0.081 -0.029 +0.011 -0.065 -0.110 -0.112 -0.065 -0.047 -0.044 -0.045 -0.043 -0.082 -0.084 +0.053 -0.068 -0.053 -0.048 -0.045 -0.048 -0.070 -0.112 -0.037 +0.063 -0.042 -0.084
# magnetic-moments Au +0.006 -0.001 +0.001 -0.001 +0.000 +0.004 -0.002 +0.003 +0.002 +0.001 -0.001 +0.002 +0.001 +0.001 +0.001 -0.000 -0.001 -0.002 -0.005 +0.004 +0.003 +0.000 +0.002 +0.000 +0.005 +0.000 +0.001 +0.000 +0.005 -0.009


Dumping 'jdft.n_up' ... done
Dumping 'jdft.n_dn' ... done
Dumping 'jdft.tau_up' ... done
Dumping 'jdft.tau_dn' ... done
Dumping 'jdft.eigenvals' ... done
Dumping 'jdft.eigStats' ... 
	eMin: -3.942876 at state 10 ( [ +0.000000 +0.000000 +0.000000 ] spin -1 )
	HOMO: -0.171561 at state 6 ( [ +0.333333 +0.000000 +0.000000 ] spin 1 )
	mu  : -0.171300
	LUMO: -0.171096 at state 2 ( [ +0.111111 +0.000000 +0.000000 ] spin 1 )
	eMax: +0.080455 at state 1 ( [ +0.000000 +0.500000 +0.000000 ] spin 1 )
	HOMO-LUMO gap: +0.000464
	Optical gap  : +0.000816 at state 6 ( [ +0.333333 +0.000000 +0.000000 ] spin 1 )
Dumping 'jdft.kPts' ... done
Dumping 'jdft.kMap' ... done
Dumping 'jdft.dosUp' ... done.
Dumping 'jdft.dosDn' ... done.
End date and time: Mon Feb 28 21:56:54 2022  (Duration: 0-17:49:29.28)
Done!
