
*************** JDFTx 1.6.0  ***************

Start date and time: Fri Mar  4 06:48:03 2022
Executable /projects/musgravc/apps/jdftx-1.6.1/build/jdftx with command-line: -i in
Running on hosts (process indices):  shas0142.rc.int.colorado.edu (0-23)
Divided in process groups (process indices):  0 (0)  1 (1)  2 (2)  3 (3)  4 (4)  5 (5)  6 (6)  7 (7)  8 (8)  9 (9)  10 (10)  11 (11)  12 (12)  13 (13)  14 (14)  15 (15)  16 (16)  17 (17)  18 (18)  19 (19)  20 (20)  21 (21)  22 (22)  23 (23)
Resource initialization completed at t[s]:      0.00
Run totals: 24 processes, 24 threads, 0 GPUs


Input parsed successfully to the following command list (including defaults):

basis kpoint-dependent
converge-empty-states yes
coords-type Cartesian
core-overlap-check none
coulomb-interaction Periodic
davidson-band-ratio 1.1
density-of-states Etol 1.000000e-06 Esigma 1.000000e-03 \
		Complete \
	Total \
	OrthoOrbital Ag 1   s \
	OrthoOrbital Ag 1   p \
	OrthoOrbital Ag 1   px \
	OrthoOrbital Ag 1   py \
	OrthoOrbital Ag 1   pz \
	OrthoOrbital Ag 1   d \
	OrthoOrbital Ag 1   dxy \
	OrthoOrbital Ag 1   dyz \
	OrthoOrbital Ag 1   dz2 \
	OrthoOrbital Ag 1   dxz \
	OrthoOrbital Ag 1   dx2-y2 \
	OrthoOrbital Ag 2   s \
	OrthoOrbital Ag 2   p \
	OrthoOrbital Ag 2   px \
	OrthoOrbital Ag 2   py \
	OrthoOrbital Ag 2   pz \
	OrthoOrbital Ag 2   d \
	OrthoOrbital Ag 2   dxy \
	OrthoOrbital Ag 2   dyz \
	OrthoOrbital Ag 2   dz2 \
	OrthoOrbital Ag 2   dxz \
	OrthoOrbital Ag 2   dx2-y2 \
	OrthoOrbital Ag 3   s \
	OrthoOrbital Ag 3   p \
	OrthoOrbital Ag 3   px \
	OrthoOrbital Ag 3   py \
	OrthoOrbital Ag 3   pz \
	OrthoOrbital Ag 3   d \
	OrthoOrbital Ag 3   dxy \
	OrthoOrbital Ag 3   dyz \
	OrthoOrbital Ag 3   dz2 \
	OrthoOrbital Ag 3   dxz \
	OrthoOrbital Ag 3   dx2-y2 \
	OrthoOrbital Ag 4   s \
	OrthoOrbital Ag 4   p \
	OrthoOrbital Ag 4   px \
	OrthoOrbital Ag 4   py \
	OrthoOrbital Ag 4   pz \
	OrthoOrbital Ag 4   d \
	OrthoOrbital Ag 4   dxy \
	OrthoOrbital Ag 4   dyz \
	OrthoOrbital Ag 4   dz2 \
	OrthoOrbital Ag 4   dxz \
	OrthoOrbital Ag 4   dx2-y2 \
	OrthoOrbital Ag 5   s \
	OrthoOrbital Ag 5   p \
	OrthoOrbital Ag 5   px \
	OrthoOrbital Ag 5   py \
	OrthoOrbital Ag 5   pz \
	OrthoOrbital Ag 5   d \
	OrthoOrbital Ag 5   dxy \
	OrthoOrbital Ag 5   dyz \
	OrthoOrbital Ag 5   dz2 \
	OrthoOrbital Ag 5   dxz \
	OrthoOrbital Ag 5   dx2-y2 \
	OrthoOrbital Ag 6   s \
	OrthoOrbital Ag 6   p \
	OrthoOrbital Ag 6   px \
	OrthoOrbital Ag 6   py \
	OrthoOrbital Ag 6   pz \
	OrthoOrbital Ag 6   d \
	OrthoOrbital Ag 6   dxy \
	OrthoOrbital Ag 6   dyz \
	OrthoOrbital Ag 6   dz2 \
	OrthoOrbital Ag 6   dxz \
	OrthoOrbital Ag 6   dx2-y2 \
	OrthoOrbital Ag 7   s \
	OrthoOrbital Ag 7   p \
	OrthoOrbital Ag 7   px \
	OrthoOrbital Ag 7   py \
	OrthoOrbital Ag 7   pz \
	OrthoOrbital Ag 7   d \
	OrthoOrbital Ag 7   dxy \
	OrthoOrbital Ag 7   dyz \
	OrthoOrbital Ag 7   dz2 \
	OrthoOrbital Ag 7   dxz \
	OrthoOrbital Ag 7   dx2-y2 \
	OrthoOrbital Ag 8   s \
	OrthoOrbital Ag 8   p \
	OrthoOrbital Ag 8   px \
	OrthoOrbital Ag 8   py \
	OrthoOrbital Ag 8   pz \
	OrthoOrbital Ag 8   d \
	OrthoOrbital Ag 8   dxy \
	OrthoOrbital Ag 8   dyz \
	OrthoOrbital Ag 8   dz2 \
	OrthoOrbital Ag 8   dxz \
	OrthoOrbital Ag 8   dx2-y2 \
	OrthoOrbital Ag 9   s \
	OrthoOrbital Ag 9   p \
	OrthoOrbital Ag 9   px \
	OrthoOrbital Ag 9   py \
	OrthoOrbital Ag 9   pz \
	OrthoOrbital Ag 9   d \
	OrthoOrbital Ag 9   dxy \
	OrthoOrbital Ag 9   dyz \
	OrthoOrbital Ag 9   dz2 \
	OrthoOrbital Ag 9   dxz \
	OrthoOrbital Ag 9   dx2-y2 \
	OrthoOrbital Ag 10   s \
	OrthoOrbital Ag 10   p \
	OrthoOrbital Ag 10   px \
	OrthoOrbital Ag 10   py \
	OrthoOrbital Ag 10   pz \
	OrthoOrbital Ag 10   d \
	OrthoOrbital Ag 10   dxy \
	OrthoOrbital Ag 10   dyz \
	OrthoOrbital Ag 10   dz2 \
	OrthoOrbital Ag 10   dxz \
	OrthoOrbital Ag 10   dx2-y2 \
	OrthoOrbital Ag 11   s \
	OrthoOrbital Ag 11   p \
	OrthoOrbital Ag 11   px \
	OrthoOrbital Ag 11   py \
	OrthoOrbital Ag 11   pz \
	OrthoOrbital Ag 11   d \
	OrthoOrbital Ag 11   dxy \
	OrthoOrbital Ag 11   dyz \
	OrthoOrbital Ag 11   dz2 \
	OrthoOrbital Ag 11   dxz \
	OrthoOrbital Ag 11   dx2-y2 \
	OrthoOrbital Ag 12   s \
	OrthoOrbital Ag 12   p \
	OrthoOrbital Ag 12   px \
	OrthoOrbital Ag 12   py \
	OrthoOrbital Ag 12   pz \
	OrthoOrbital Ag 12   d \
	OrthoOrbital Ag 12   dxy \
	OrthoOrbital Ag 12   dyz \
	OrthoOrbital Ag 12   dz2 \
	OrthoOrbital Ag 12   dxz \
	OrthoOrbital Ag 12   dx2-y2 \
	OrthoOrbital Ag 13   s \
	OrthoOrbital Ag 13   p \
	OrthoOrbital Ag 13   px \
	OrthoOrbital Ag 13   py \
	OrthoOrbital Ag 13   pz \
	OrthoOrbital Ag 13   d \
	OrthoOrbital Ag 13   dxy \
	OrthoOrbital Ag 13   dyz \
	OrthoOrbital Ag 13   dz2 \
	OrthoOrbital Ag 13   dxz \
	OrthoOrbital Ag 13   dx2-y2 \
	OrthoOrbital Ag 14   s \
	OrthoOrbital Ag 14   p \
	OrthoOrbital Ag 14   px \
	OrthoOrbital Ag 14   py \
	OrthoOrbital Ag 14   pz \
	OrthoOrbital Ag 14   d \
	OrthoOrbital Ag 14   dxy \
	OrthoOrbital Ag 14   dyz \
	OrthoOrbital Ag 14   dz2 \
	OrthoOrbital Ag 14   dxz \
	OrthoOrbital Ag 14   dx2-y2 \
	OrthoOrbital Ag 15   s \
	OrthoOrbital Ag 15   p \
	OrthoOrbital Ag 15   px \
	OrthoOrbital Ag 15   py \
	OrthoOrbital Ag 15   pz \
	OrthoOrbital Ag 15   d \
	OrthoOrbital Ag 15   dxy \
	OrthoOrbital Ag 15   dyz \
	OrthoOrbital Ag 15   dz2 \
	OrthoOrbital Ag 15   dxz \
	OrthoOrbital Ag 15   dx2-y2 \
	OrthoOrbital Ag 16   s \
	OrthoOrbital Ag 16   p \
	OrthoOrbital Ag 16   px \
	OrthoOrbital Ag 16   py \
	OrthoOrbital Ag 16   pz \
	OrthoOrbital Ag 16   d \
	OrthoOrbital Ag 16   dxy \
	OrthoOrbital Ag 16   dyz \
	OrthoOrbital Ag 16   dz2 \
	OrthoOrbital Ag 16   dxz \
	OrthoOrbital Ag 16   dx2-y2 \
	OrthoOrbital Ag 17   s \
	OrthoOrbital Ag 17   p \
	OrthoOrbital Ag 17   px \
	OrthoOrbital Ag 17   py \
	OrthoOrbital Ag 17   pz \
	OrthoOrbital Ag 17   d \
	OrthoOrbital Ag 17   dxy \
	OrthoOrbital Ag 17   dyz \
	OrthoOrbital Ag 17   dz2 \
	OrthoOrbital Ag 17   dxz \
	OrthoOrbital Ag 17   dx2-y2 \
	OrthoOrbital Ag 18   s \
	OrthoOrbital Ag 18   p \
	OrthoOrbital Ag 18   px \
	OrthoOrbital Ag 18   py \
	OrthoOrbital Ag 18   pz \
	OrthoOrbital Ag 18   d \
	OrthoOrbital Ag 18   dxy \
	OrthoOrbital Ag 18   dyz \
	OrthoOrbital Ag 18   dz2 \
	OrthoOrbital Ag 18   dxz \
	OrthoOrbital Ag 18   dx2-y2 \
	OrthoOrbital Ag 19   s \
	OrthoOrbital Ag 19   p \
	OrthoOrbital Ag 19   px \
	OrthoOrbital Ag 19   py \
	OrthoOrbital Ag 19   pz \
	OrthoOrbital Ag 19   d \
	OrthoOrbital Ag 19   dxy \
	OrthoOrbital Ag 19   dyz \
	OrthoOrbital Ag 19   dz2 \
	OrthoOrbital Ag 19   dxz \
	OrthoOrbital Ag 19   dx2-y2 \
	OrthoOrbital Ag 20   s \
	OrthoOrbital Ag 20   p \
	OrthoOrbital Ag 20   px \
	OrthoOrbital Ag 20   py \
	OrthoOrbital Ag 20   pz \
	OrthoOrbital Ag 20   d \
	OrthoOrbital Ag 20   dxy \
	OrthoOrbital Ag 20   dyz \
	OrthoOrbital Ag 20   dz2 \
	OrthoOrbital Ag 20   dxz \
	OrthoOrbital Ag 20   dx2-y2 \
	OrthoOrbital Ag 21   s \
	OrthoOrbital Ag 21   p \
	OrthoOrbital Ag 21   px \
	OrthoOrbital Ag 21   py \
	OrthoOrbital Ag 21   pz \
	OrthoOrbital Ag 21   d \
	OrthoOrbital Ag 21   dxy \
	OrthoOrbital Ag 21   dyz \
	OrthoOrbital Ag 21   dz2 \
	OrthoOrbital Ag 21   dxz \
	OrthoOrbital Ag 21   dx2-y2 \
	OrthoOrbital Ag 22   s \
	OrthoOrbital Ag 22   p \
	OrthoOrbital Ag 22   px \
	OrthoOrbital Ag 22   py \
	OrthoOrbital Ag 22   pz \
	OrthoOrbital Ag 22   d \
	OrthoOrbital Ag 22   dxy \
	OrthoOrbital Ag 22   dyz \
	OrthoOrbital Ag 22   dz2 \
	OrthoOrbital Ag 22   dxz \
	OrthoOrbital Ag 22   dx2-y2 \
	OrthoOrbital Ag 23   s \
	OrthoOrbital Ag 23   p \
	OrthoOrbital Ag 23   px \
	OrthoOrbital Ag 23   py \
	OrthoOrbital Ag 23   pz \
	OrthoOrbital Ag 23   d \
	OrthoOrbital Ag 23   dxy \
	OrthoOrbital Ag 23   dyz \
	OrthoOrbital Ag 23   dz2 \
	OrthoOrbital Ag 23   dxz \
	OrthoOrbital Ag 23   dx2-y2 \
	OrthoOrbital Ag 24   s \
	OrthoOrbital Ag 24   p \
	OrthoOrbital Ag 24   px \
	OrthoOrbital Ag 24   py \
	OrthoOrbital Ag 24   pz \
	OrthoOrbital Ag 24   d \
	OrthoOrbital Ag 24   dxy \
	OrthoOrbital Ag 24   dyz \
	OrthoOrbital Ag 24   dz2 \
	OrthoOrbital Ag 24   dxz \
	OrthoOrbital Ag 24   dx2-y2 \
	OrthoOrbital Ag 25   s \
	OrthoOrbital Ag 25   p \
	OrthoOrbital Ag 25   px \
	OrthoOrbital Ag 25   py \
	OrthoOrbital Ag 25   pz \
	OrthoOrbital Ag 25   d \
	OrthoOrbital Ag 25   dxy \
	OrthoOrbital Ag 25   dyz \
	OrthoOrbital Ag 25   dz2 \
	OrthoOrbital Ag 25   dxz \
	OrthoOrbital Ag 25   dx2-y2 \
	OrthoOrbital Ag 26   s \
	OrthoOrbital Ag 26   p \
	OrthoOrbital Ag 26   px \
	OrthoOrbital Ag 26   py \
	OrthoOrbital Ag 26   pz \
	OrthoOrbital Ag 26   d \
	OrthoOrbital Ag 26   dxy \
	OrthoOrbital Ag 26   dyz \
	OrthoOrbital Ag 26   dz2 \
	OrthoOrbital Ag 26   dxz \
	OrthoOrbital Ag 26   dx2-y2 \
	OrthoOrbital Ag 27   s \
	OrthoOrbital Ag 27   p \
	OrthoOrbital Ag 27   px \
	OrthoOrbital Ag 27   py \
	OrthoOrbital Ag 27   pz \
	OrthoOrbital Ag 27   d \
	OrthoOrbital Ag 27   dxy \
	OrthoOrbital Ag 27   dyz \
	OrthoOrbital Ag 27   dz2 \
	OrthoOrbital Ag 27   dxz \
	OrthoOrbital Ag 27   dx2-y2 \
	OrthoOrbital Ag 28   s \
	OrthoOrbital Ag 28   p \
	OrthoOrbital Ag 28   px \
	OrthoOrbital Ag 28   py \
	OrthoOrbital Ag 28   pz \
	OrthoOrbital Ag 28   d \
	OrthoOrbital Ag 28   dxy \
	OrthoOrbital Ag 28   dyz \
	OrthoOrbital Ag 28   dz2 \
	OrthoOrbital Ag 28   dxz \
	OrthoOrbital Ag 28   dx2-y2 \
	OrthoOrbital Ag 29   s \
	OrthoOrbital Ag 29   p \
	OrthoOrbital Ag 29   px \
	OrthoOrbital Ag 29   py \
	OrthoOrbital Ag 29   pz \
	OrthoOrbital Ag 29   d \
	OrthoOrbital Ag 29   dxy \
	OrthoOrbital Ag 29   dyz \
	OrthoOrbital Ag 29   dz2 \
	OrthoOrbital Ag 29   dxz \
	OrthoOrbital Ag 29   dx2-y2 \
	OrthoOrbital Ag 30   s \
	OrthoOrbital Ag 30   p \
	OrthoOrbital Ag 30   px \
	OrthoOrbital Ag 30   py \
	OrthoOrbital Ag 30   pz \
	OrthoOrbital Ag 30   d \
	OrthoOrbital Ag 30   dxy \
	OrthoOrbital Ag 30   dyz \
	OrthoOrbital Ag 30   dz2 \
	OrthoOrbital Ag 30   dxz \
	OrthoOrbital Ag 30   dx2-y2 \
	OrthoOrbital Ag 31   s \
	OrthoOrbital Ag 31   p \
	OrthoOrbital Ag 31   px \
	OrthoOrbital Ag 31   py \
	OrthoOrbital Ag 31   pz \
	OrthoOrbital Ag 31   d \
	OrthoOrbital Ag 31   dxy \
	OrthoOrbital Ag 31   dyz \
	OrthoOrbital Ag 31   dz2 \
	OrthoOrbital Ag 31   dxz \
	OrthoOrbital Ag 31   dx2-y2 \
	OrthoOrbital Ag 32   s \
	OrthoOrbital Ag 32   p \
	OrthoOrbital Ag 32   px \
	OrthoOrbital Ag 32   py \
	OrthoOrbital Ag 32   pz \
	OrthoOrbital Ag 32   d \
	OrthoOrbital Ag 32   dxy \
	OrthoOrbital Ag 32   dyz \
	OrthoOrbital Ag 32   dz2 \
	OrthoOrbital Ag 32   dxz \
	OrthoOrbital Ag 32   dx2-y2 \
	OrthoOrbital Ag 33   s \
	OrthoOrbital Ag 33   p \
	OrthoOrbital Ag 33   px \
	OrthoOrbital Ag 33   py \
	OrthoOrbital Ag 33   pz \
	OrthoOrbital Ag 33   d \
	OrthoOrbital Ag 33   dxy \
	OrthoOrbital Ag 33   dyz \
	OrthoOrbital Ag 33   dz2 \
	OrthoOrbital Ag 33   dxz \
	OrthoOrbital Ag 33   dx2-y2 \
	OrthoOrbital Ag 34   s \
	OrthoOrbital Ag 34   p \
	OrthoOrbital Ag 34   px \
	OrthoOrbital Ag 34   py \
	OrthoOrbital Ag 34   pz \
	OrthoOrbital Ag 34   d \
	OrthoOrbital Ag 34   dxy \
	OrthoOrbital Ag 34   dyz \
	OrthoOrbital Ag 34   dz2 \
	OrthoOrbital Ag 34   dxz \
	OrthoOrbital Ag 34   dx2-y2 \
	OrthoOrbital Ag 35   s \
	OrthoOrbital Ag 35   p \
	OrthoOrbital Ag 35   px \
	OrthoOrbital Ag 35   py \
	OrthoOrbital Ag 35   pz \
	OrthoOrbital Ag 35   d \
	OrthoOrbital Ag 35   dxy \
	OrthoOrbital Ag 35   dyz \
	OrthoOrbital Ag 35   dz2 \
	OrthoOrbital Ag 35   dxz \
	OrthoOrbital Ag 35   dx2-y2 \
	OrthoOrbital Ag 36   s \
	OrthoOrbital Ag 36   p \
	OrthoOrbital Ag 36   px \
	OrthoOrbital Ag 36   py \
	OrthoOrbital Ag 36   pz \
	OrthoOrbital Ag 36   d \
	OrthoOrbital Ag 36   dxy \
	OrthoOrbital Ag 36   dyz \
	OrthoOrbital Ag 36   dz2 \
	OrthoOrbital Ag 36   dxz \
	OrthoOrbital Ag 36   dx2-y2 \
	OrthoOrbital Ag 37   s \
	OrthoOrbital Ag 37   p \
	OrthoOrbital Ag 37   px \
	OrthoOrbital Ag 37   py \
	OrthoOrbital Ag 37   pz \
	OrthoOrbital Ag 37   d \
	OrthoOrbital Ag 37   dxy \
	OrthoOrbital Ag 37   dyz \
	OrthoOrbital Ag 37   dz2 \
	OrthoOrbital Ag 37   dxz \
	OrthoOrbital Ag 37   dx2-y2 \
	OrthoOrbital Ag 38   s \
	OrthoOrbital Ag 38   p \
	OrthoOrbital Ag 38   px \
	OrthoOrbital Ag 38   py \
	OrthoOrbital Ag 38   pz \
	OrthoOrbital Ag 38   d \
	OrthoOrbital Ag 38   dxy \
	OrthoOrbital Ag 38   dyz \
	OrthoOrbital Ag 38   dz2 \
	OrthoOrbital Ag 38   dxz \
	OrthoOrbital Ag 38   dx2-y2 \
	OrthoOrbital Ag 39   s \
	OrthoOrbital Ag 39   p \
	OrthoOrbital Ag 39   px \
	OrthoOrbital Ag 39   py \
	OrthoOrbital Ag 39   pz \
	OrthoOrbital Ag 39   d \
	OrthoOrbital Ag 39   dxy \
	OrthoOrbital Ag 39   dyz \
	OrthoOrbital Ag 39   dz2 \
	OrthoOrbital Ag 39   dxz \
	OrthoOrbital Ag 39   dx2-y2 \
	OrthoOrbital Ag 40   s \
	OrthoOrbital Ag 40   p \
	OrthoOrbital Ag 40   px \
	OrthoOrbital Ag 40   py \
	OrthoOrbital Ag 40   pz \
	OrthoOrbital Ag 40   d \
	OrthoOrbital Ag 40   dxy \
	OrthoOrbital Ag 40   dyz \
	OrthoOrbital Ag 40   dz2 \
	OrthoOrbital Ag 40   dxz \
	OrthoOrbital Ag 40   dx2-y2 \
	OrthoOrbital Ag 41   s \
	OrthoOrbital Ag 41   p \
	OrthoOrbital Ag 41   px \
	OrthoOrbital Ag 41   py \
	OrthoOrbital Ag 41   pz \
	OrthoOrbital Ag 41   d \
	OrthoOrbital Ag 41   dxy \
	OrthoOrbital Ag 41   dyz \
	OrthoOrbital Ag 41   dz2 \
	OrthoOrbital Ag 41   dxz \
	OrthoOrbital Ag 41   dx2-y2 \
	OrthoOrbital Ag 42   s \
	OrthoOrbital Ag 42   p \
	OrthoOrbital Ag 42   px \
	OrthoOrbital Ag 42   py \
	OrthoOrbital Ag 42   pz \
	OrthoOrbital Ag 42   d \
	OrthoOrbital Ag 42   dxy \
	OrthoOrbital Ag 42   dyz \
	OrthoOrbital Ag 42   dz2 \
	OrthoOrbital Ag 42   dxz \
	OrthoOrbital Ag 42   dx2-y2 \
	OrthoOrbital Ag 43   s \
	OrthoOrbital Ag 43   p \
	OrthoOrbital Ag 43   px \
	OrthoOrbital Ag 43   py \
	OrthoOrbital Ag 43   pz \
	OrthoOrbital Ag 43   d \
	OrthoOrbital Ag 43   dxy \
	OrthoOrbital Ag 43   dyz \
	OrthoOrbital Ag 43   dz2 \
	OrthoOrbital Ag 43   dxz \
	OrthoOrbital Ag 43   dx2-y2 \
	OrthoOrbital Ag 44   s \
	OrthoOrbital Ag 44   p \
	OrthoOrbital Ag 44   px \
	OrthoOrbital Ag 44   py \
	OrthoOrbital Ag 44   pz \
	OrthoOrbital Ag 44   d \
	OrthoOrbital Ag 44   dxy \
	OrthoOrbital Ag 44   dyz \
	OrthoOrbital Ag 44   dz2 \
	OrthoOrbital Ag 44   dxz \
	OrthoOrbital Ag 44   dx2-y2 \
	OrthoOrbital Ag 45   s \
	OrthoOrbital Ag 45   p \
	OrthoOrbital Ag 45   px \
	OrthoOrbital Ag 45   py \
	OrthoOrbital Ag 45   pz \
	OrthoOrbital Ag 45   d \
	OrthoOrbital Ag 45   dxy \
	OrthoOrbital Ag 45   dyz \
	OrthoOrbital Ag 45   dz2 \
	OrthoOrbital Ag 45   dxz \
	OrthoOrbital Ag 45   dx2-y2 \
	OrthoOrbital Ag 46   s \
	OrthoOrbital Ag 46   p \
	OrthoOrbital Ag 46   px \
	OrthoOrbital Ag 46   py \
	OrthoOrbital Ag 46   pz \
	OrthoOrbital Ag 46   d \
	OrthoOrbital Ag 46   dxy \
	OrthoOrbital Ag 46   dyz \
	OrthoOrbital Ag 46   dz2 \
	OrthoOrbital Ag 46   dxz \
	OrthoOrbital Ag 46   dx2-y2 \
	OrthoOrbital Ag 47   s \
	OrthoOrbital Ag 47   p \
	OrthoOrbital Ag 47   px \
	OrthoOrbital Ag 47   py \
	OrthoOrbital Ag 47   pz \
	OrthoOrbital Ag 47   d \
	OrthoOrbital Ag 47   dxy \
	OrthoOrbital Ag 47   dyz \
	OrthoOrbital Ag 47   dz2 \
	OrthoOrbital Ag 47   dxz \
	OrthoOrbital Ag 47   dx2-y2 \
	OrthoOrbital Ag 48   s \
	OrthoOrbital Ag 48   p \
	OrthoOrbital Ag 48   px \
	OrthoOrbital Ag 48   py \
	OrthoOrbital Ag 48   pz \
	OrthoOrbital Ag 48   d \
	OrthoOrbital Ag 48   dxy \
	OrthoOrbital Ag 48   dyz \
	OrthoOrbital Ag 48   dz2 \
	OrthoOrbital Ag 48   dxz \
	OrthoOrbital Ag 48   dx2-y2 \
	OrthoOrbital Pt 1   s \
	OrthoOrbital Pt 1   p \
	OrthoOrbital Pt 1   px \
	OrthoOrbital Pt 1   py \
	OrthoOrbital Pt 1   pz \
	OrthoOrbital Pt 1   d \
	OrthoOrbital Pt 1   dxy \
	OrthoOrbital Pt 1   dyz \
	OrthoOrbital Pt 1   dz2 \
	OrthoOrbital Pt 1   dxz \
	OrthoOrbital Pt 1   dx2-y2 \
	OrthoOrbital Pt 2   s \
	OrthoOrbital Pt 2   p \
	OrthoOrbital Pt 2   px \
	OrthoOrbital Pt 2   py \
	OrthoOrbital Pt 2   pz \
	OrthoOrbital Pt 2   d \
	OrthoOrbital Pt 2   dxy \
	OrthoOrbital Pt 2   dyz \
	OrthoOrbital Pt 2   dz2 \
	OrthoOrbital Pt 2   dxz \
	OrthoOrbital Pt 2   dx2-y2 \
	OrthoOrbital Pt 3   s \
	OrthoOrbital Pt 3   p \
	OrthoOrbital Pt 3   px \
	OrthoOrbital Pt 3   py \
	OrthoOrbital Pt 3   pz \
	OrthoOrbital Pt 3   d \
	OrthoOrbital Pt 3   dxy \
	OrthoOrbital Pt 3   dyz \
	OrthoOrbital Pt 3   dz2 \
	OrthoOrbital Pt 3   dxz \
	OrthoOrbital Pt 3   dx2-y2 \
	OrthoOrbital Pt 4   s \
	OrthoOrbital Pt 4   p \
	OrthoOrbital Pt 4   px \
	OrthoOrbital Pt 4   py \
	OrthoOrbital Pt 4   pz \
	OrthoOrbital Pt 4   d \
	OrthoOrbital Pt 4   dxy \
	OrthoOrbital Pt 4   dyz \
	OrthoOrbital Pt 4   dz2 \
	OrthoOrbital Pt 4   dxz \
	OrthoOrbital Pt 4   dx2-y2 \
	OrthoOrbital Pt 5   s \
	OrthoOrbital Pt 5   p \
	OrthoOrbital Pt 5   px \
	OrthoOrbital Pt 5   py \
	OrthoOrbital Pt 5   pz \
	OrthoOrbital Pt 5   d \
	OrthoOrbital Pt 5   dxy \
	OrthoOrbital Pt 5   dyz \
	OrthoOrbital Pt 5   dz2 \
	OrthoOrbital Pt 5   dxz \
	OrthoOrbital Pt 5   dx2-y2 \
	OrthoOrbital Pt 6   s \
	OrthoOrbital Pt 6   p \
	OrthoOrbital Pt 6   px \
	OrthoOrbital Pt 6   py \
	OrthoOrbital Pt 6   pz \
	OrthoOrbital Pt 6   d \
	OrthoOrbital Pt 6   dxy \
	OrthoOrbital Pt 6   dyz \
	OrthoOrbital Pt 6   dz2 \
	OrthoOrbital Pt 6   dxz \
	OrthoOrbital Pt 6   dx2-y2 \
	OrthoOrbital Pt 7   s \
	OrthoOrbital Pt 7   p \
	OrthoOrbital Pt 7   px \
	OrthoOrbital Pt 7   py \
	OrthoOrbital Pt 7   pz \
	OrthoOrbital Pt 7   d \
	OrthoOrbital Pt 7   dxy \
	OrthoOrbital Pt 7   dyz \
	OrthoOrbital Pt 7   dz2 \
	OrthoOrbital Pt 7   dxz \
	OrthoOrbital Pt 7   dx2-y2 \
	OrthoOrbital Pt 8   s \
	OrthoOrbital Pt 8   p \
	OrthoOrbital Pt 8   px \
	OrthoOrbital Pt 8   py \
	OrthoOrbital Pt 8   pz \
	OrthoOrbital Pt 8   d \
	OrthoOrbital Pt 8   dxy \
	OrthoOrbital Pt 8   dyz \
	OrthoOrbital Pt 8   dz2 \
	OrthoOrbital Pt 8   dxz \
	OrthoOrbital Pt 8   dx2-y2 \
	OrthoOrbital Pt 9   s \
	OrthoOrbital Pt 9   p \
	OrthoOrbital Pt 9   px \
	OrthoOrbital Pt 9   py \
	OrthoOrbital Pt 9   pz \
	OrthoOrbital Pt 9   d \
	OrthoOrbital Pt 9   dxy \
	OrthoOrbital Pt 9   dyz \
	OrthoOrbital Pt 9   dz2 \
	OrthoOrbital Pt 9   dxz \
	OrthoOrbital Pt 9   dx2-y2 \
	OrthoOrbital Pt 10   s \
	OrthoOrbital Pt 10   p \
	OrthoOrbital Pt 10   px \
	OrthoOrbital Pt 10   py \
	OrthoOrbital Pt 10   pz \
	OrthoOrbital Pt 10   d \
	OrthoOrbital Pt 10   dxy \
	OrthoOrbital Pt 10   dyz \
	OrthoOrbital Pt 10   dz2 \
	OrthoOrbital Pt 10   dxz \
	OrthoOrbital Pt 10   dx2-y2 \
	OrthoOrbital Pt 11   s \
	OrthoOrbital Pt 11   p \
	OrthoOrbital Pt 11   px \
	OrthoOrbital Pt 11   py \
	OrthoOrbital Pt 11   pz \
	OrthoOrbital Pt 11   d \
	OrthoOrbital Pt 11   dxy \
	OrthoOrbital Pt 11   dyz \
	OrthoOrbital Pt 11   dz2 \
	OrthoOrbital Pt 11   dxz \
	OrthoOrbital Pt 11   dx2-y2 \
	OrthoOrbital Pt 12   s \
	OrthoOrbital Pt 12   p \
	OrthoOrbital Pt 12   px \
	OrthoOrbital Pt 12   py \
	OrthoOrbital Pt 12   pz \
	OrthoOrbital Pt 12   d \
	OrthoOrbital Pt 12   dxy \
	OrthoOrbital Pt 12   dyz \
	OrthoOrbital Pt 12   dz2 \
	OrthoOrbital Pt 12   dxz \
	OrthoOrbital Pt 12   dx2-y2 \
	OrthoOrbital Pt 13   s \
	OrthoOrbital Pt 13   p \
	OrthoOrbital Pt 13   px \
	OrthoOrbital Pt 13   py \
	OrthoOrbital Pt 13   pz \
	OrthoOrbital Pt 13   d \
	OrthoOrbital Pt 13   dxy \
	OrthoOrbital Pt 13   dyz \
	OrthoOrbital Pt 13   dz2 \
	OrthoOrbital Pt 13   dxz \
	OrthoOrbital Pt 13   dx2-y2 \
	OrthoOrbital Pt 14   s \
	OrthoOrbital Pt 14   p \
	OrthoOrbital Pt 14   px \
	OrthoOrbital Pt 14   py \
	OrthoOrbital Pt 14   pz \
	OrthoOrbital Pt 14   d \
	OrthoOrbital Pt 14   dxy \
	OrthoOrbital Pt 14   dyz \
	OrthoOrbital Pt 14   dz2 \
	OrthoOrbital Pt 14   dxz \
	OrthoOrbital Pt 14   dx2-y2 \
	OrthoOrbital Pt 15   s \
	OrthoOrbital Pt 15   p \
	OrthoOrbital Pt 15   px \
	OrthoOrbital Pt 15   py \
	OrthoOrbital Pt 15   pz \
	OrthoOrbital Pt 15   d \
	OrthoOrbital Pt 15   dxy \
	OrthoOrbital Pt 15   dyz \
	OrthoOrbital Pt 15   dz2 \
	OrthoOrbital Pt 15   dxz \
	OrthoOrbital Pt 15   dx2-y2 \
	OrthoOrbital Pt 16   s \
	OrthoOrbital Pt 16   p \
	OrthoOrbital Pt 16   px \
	OrthoOrbital Pt 16   py \
	OrthoOrbital Pt 16   pz \
	OrthoOrbital Pt 16   d \
	OrthoOrbital Pt 16   dxy \
	OrthoOrbital Pt 16   dyz \
	OrthoOrbital Pt 16   dz2 \
	OrthoOrbital Pt 16   dxz \
	OrthoOrbital Pt 16   dx2-y2 \
	OrthoOrbital C 1   s \
	OrthoOrbital C 1   p \
	OrthoOrbital C 1   px \
	OrthoOrbital C 1   py \
	OrthoOrbital C 1   pz \
	OrthoOrbital O 1   s \
	OrthoOrbital O 1   p \
	OrthoOrbital O 1   px \
	OrthoOrbital O 1   py \
	OrthoOrbital O 1   pz
dump End ElecDensity KEdensity BandEigs EigStats RhoAtom DOS Kpoints
dump Ionic State IonicPositions Lattice EigStats Ecomponents
dump 
dump 
dump 
dump 
dump 
dump 
dump 
dump 
dump-name jdft.$VAR
elec-cutoff 20
elec-eigen-algo Davidson
elec-ex-corr gga-PBE
elec-initial-magnetization 0.000000 no
elec-n-bands 707
elec-smearing Fermi 0.001
electronic-minimize  \
	dirUpdateScheme      FletcherReeves \
	linminMethod         DirUpdateRecommended \
	nIterations          100 \
	history              15 \
	knormThreshold       0 \
	energyDiffThreshold  1e-07 \
	nEnergyDiff          2 \
	alphaTstart          1 \
	alphaTmin            1e-10 \
	updateTestStepSize   yes \
	alphaTreduceFactor   0.1 \
	alphaTincreaseFactor 3 \
	nAlphaAdjustMax      3 \
	wolfeEnergy          0.0001 \
	wolfeGradient        0.9 \
	fdTest               no
exchange-regularization WignerSeitzTruncated
fluid LinearPCM 298.000000 1.013250
fluid-anion F- 0.5 MeanFieldLJ \
	epsBulk 1 \
	pMol 0 \
	epsInf 1 \
	Pvap 0 \
	sigmaBulk 0 \
	Rvdw 2.24877 \
	Res 0 \
	tauNuc 343133
fluid-cation Na+ 0.5 MeanFieldLJ \
	epsBulk 1 \
	pMol 0 \
	epsInf 1 \
	Pvap 0 \
	sigmaBulk 0 \
	Rvdw 2.19208 \
	Res 0 \
	tauNuc 343133
fluid-ex-corr lda-TF lda-PZ
fluid-gummel-loop 10 1.000000e-05
fluid-minimize  \
	dirUpdateScheme      PolakRibiere \
	linminMethod         DirUpdateRecommended \
	nIterations          400 \
	history              15 \
	knormThreshold       1e-11 \
	energyDiffThreshold  0 \
	nEnergyDiff          2 \
	alphaTstart          1 \
	alphaTmin            1e-10 \
	updateTestStepSize   yes \
	alphaTreduceFactor   0.1 \
	alphaTincreaseFactor 3 \
	nAlphaAdjustMax      6 \
	wolfeEnergy          0.0001 \
	wolfeGradient        0.9 \
	fdTest               no
fluid-solvent H2O 55.338 ScalarEOS \
	epsBulk 78.4 \
	pMol 0.92466 \
	epsInf 1.77 \
	Pvap 1.06736e-10 \
	sigmaBulk 4.62e-05 \
	Rvdw 2.61727 \
	Res 1.42 \
	tauNuc 343133 \
	poleEl 15 7 1
forces-output-coords Positions
ion Ag   3.787148999999999   2.725242999999999   1.237413000000000 0
ion Ag   3.787148999999999  13.436916999999996   1.237413000000000 0
ion Ag  11.361447000000000   2.725242999999999   1.237413000000000 0
ion Ag  11.361447000000000  13.436916999999996   1.237413000000000 0
ion Ag   3.787148999999999   8.038576000000001   6.660413000000000 0
ion Ag   3.787148999999999  18.750228999999997   6.660413000000000 0
ion Ag  11.361447000000000   8.038576000000001   6.660413000000000 0
ion Ag  11.361447000000000  18.750228999999997   6.660413000000000 0
ion Ag   0.000000000000000   5.355836999999999   9.413526999999998 0
ion Ag   0.000000000000000  16.067511999999997   9.413526999999998 0
ion Ag   7.574297999999999   5.355836999999999   9.413526999999998 0
ion Ag   7.574297999999999  16.067511999999997   9.413526999999998 0
ion Ag   0.000000000000000   0.000000000000000   3.864076000000000 0
ion Ag   0.000000000000000  10.711673999999999   3.864076000000000 0
ion Ag   7.574297999999999   0.000000000000000   3.864076000000000 0
ion Ag   7.574297999999999  10.711673999999999   3.864076000000000 0
ion Ag   3.787148999999999   7.986431999999998   1.237413000000000 0
ion Ag   3.787148999999999  18.698105999999996   1.237413000000000 0
ion Ag  11.361447000000000   7.986431999999998   1.237413000000000 0
ion Ag  11.361447000000000  18.698105999999996   1.237413000000000 0
ion Ag   3.787148999999999   2.673098000000000   6.660413000000000 0
ion Ag   3.787148999999999  13.384793999999996   6.660413000000000 0
ion Ag  11.361447000000000   2.673098000000000   6.660413000000000 0
ion Ag  11.361447000000000  13.384793999999996   6.660413000000000 0
ion Ag   3.787148999999999   2.682696000000000  12.076021000000001 0
ion Ag   3.787148999999999  13.394369999999999  12.076021000000001 0
ion Ag  11.361447000000000   2.682696000000000  12.076021000000001 0
ion Ag  11.361447000000000  13.394369999999999  12.076021000000001 0
ion Ag   3.787148999999999   8.000313999999998  17.563452000000002 0
ion Ag   3.787148999999999  18.711987999999998  17.563452000000002 0
ion Ag  11.361447000000000   8.000313999999998  17.563452000000002 0
ion Ag  11.361447000000000  18.711987999999998  17.563452000000002 0
ion Ag   0.000000000000000   5.355836999999999  20.280093000000001 0
ion Ag   0.000000000000000  16.067511999999997  20.280093000000001 0
ion Ag   7.574297999999999   5.355836999999999  20.280093000000001 0
ion Ag   7.574297999999999  16.067511999999997  20.280093000000001 0
ion Ag   0.000000000000000   0.000000000000000  14.712647000000000 0
ion Ag   0.000000000000000  10.711673999999999  14.712647000000000 0
ion Ag   7.574297999999999   0.000000000000000  14.712647000000000 0
ion Ag   7.574297999999999  10.711673999999999  14.712647000000000 0
ion Ag   3.787148999999999   8.028977999999999  12.076021000000001 0
ion Ag   3.787148999999999  18.740652999999995  12.076021000000001 0
ion Ag  11.361447000000000   8.028977999999999  12.076021000000001 0
ion Ag  11.361447000000000  18.740652999999995  12.076021000000001 0
ion Ag   3.787148999999999   2.711339000000000  17.563452000000002 0
ion Ag   3.787148999999999  13.423012999999996  17.563452000000002 0
ion Ag  11.361447000000000   2.711339000000000  17.563452000000002 0
ion Ag  11.361447000000000  13.423012999999996  17.563452000000002 0
ion Pt   0.000000000000000   5.355836999999999   3.956249999999999 0
ion Pt   0.000000000000000  16.067511999999997   3.956249999999999 0
ion Pt   7.574297999999999   5.355836999999999   3.956249999999999 0
ion Pt   7.574297999999999  16.067511999999997   3.956249999999999 0
ion Pt   0.000000000000000   0.000000000000000   9.374912000000000 0
ion Pt   0.000000000000000  10.711673999999999   9.374912000000000 0
ion Pt   7.574297999999999   0.000000000000000   9.374912000000000 0
ion Pt   7.574297999999999  10.711673999999999   9.374912000000000 0
ion Pt   0.000000000000000   5.355836999999999  14.805410000000000 0
ion Pt   0.000000000000000  16.067511999999997  14.805410000000000 0
ion Pt   7.574297999999999   5.355836999999999  14.805410000000000 0
ion Pt   7.574297999999999  16.067511999999997  14.805410000000000 0
ion Pt   0.000000000000000   0.000000000000000  19.905184999999999 0
ion Pt   0.000000000000000  10.711673999999999  19.905184999999999 0
ion Pt   7.574297999999999   0.000000000000000  19.905184999999999 0
ion Pt   7.574297999999999  10.711673999999999  19.905184999999999 0
ion C   7.574297999999999   5.355836999999999  24.059546999999998 1  Linear 0 0 1
ion O   7.634392999999999   5.355836999999999  26.214897000000001 1  Linear 0 0 1
ion-species /projects/musgravc/apps/jdftx-1.6.0/build/pseudopotentials/GBRV_v1.5/$ID_pbe_v1.uspp
ion-species /projects/musgravc/apps/jdftx-1.6.0/build/pseudopotentials/GBRV_v1.5/$ID_pbe_v1.2.uspp
ion-species /projects/musgravc/apps/jdftx-1.6.0/build/pseudopotentials/GBRV_v1.5/$ID_pbe_v1.4.uspp
ion-species /projects/musgravc/apps/jdftx-1.6.0/build/pseudopotentials/GBRV_v1.5/$ID_pbe_v1.5.uspp
ion-width Ecut
ionic-minimize  \
	dirUpdateScheme      L-BFGS \
	linminMethod         DirUpdateRecommended \
	nIterations          100 \
	history              15 \
	knormThreshold       0.0001 \
	energyDiffThreshold  1e-06 \
	nEnergyDiff          2 \
	alphaTstart          1 \
	alphaTmin            1e-10 \
	updateTestStepSize   yes \
	alphaTreduceFactor   0.1 \
	alphaTincreaseFactor 3 \
	nAlphaAdjustMax      3 \
	wolfeEnergy          0.0001 \
	wolfeGradient        0.9 \
	fdTest               no
kpoint   0.000000000000   0.000000000000   0.000000000000  1.00000000000000
kpoint-folding 4 3 1 
latt-move-scale 0 0 0
latt-scale 1 1 1 
lattice  \
	  15.148596000000000    0.000000000000000    0.000000000000000  \
	   0.000000000000000   21.423349000000002    0.000000000000000  \
	   0.000000000000000    0.000000000000000   53.558376000000003 
lattice-minimize  \
	dirUpdateScheme      L-BFGS \
	linminMethod         DirUpdateRecommended \
	nIterations          0 \
	history              15 \
	knormThreshold       0 \
	energyDiffThreshold  1e-06 \
	nEnergyDiff          2 \
	alphaTstart          1 \
	alphaTmin            1e-10 \
	updateTestStepSize   yes \
	alphaTreduceFactor   0.1 \
	alphaTincreaseFactor 3 \
	nAlphaAdjustMax      3 \
	wolfeEnergy          0.0001 \
	wolfeGradient        0.9 \
	fdTest               no
lcao-params 30 1e-06 0.001
pcm-variant CANDLE
spintype z-spin
subspace-rotation-factor 1 yes
symmetries automatic
symmetry-threshold 0.0001
van-der-waals D3



---------- Setting up symmetries ----------

Found 8 point-group symmetries of the bravais lattice
Found 2 space-group symmetries with basis
Applied RMS atom displacement 3.54843e-06 bohrs to make symmetries exact.

---------- Initializing the Grid ----------
R = 
[      15.1486            0            0  ]
[            0      21.4233            0  ]
[            0            0      53.5584  ]
unit cell volume = 17381.5
G =
[    0.41477          0          0  ]
[          0   0.293287          0  ]
[          0          0   0.117315  ]
Minimum fftbox size, Smin = [  64  88  216  ]
Chosen fftbox size, S = [  64  90  216  ]

---------- Exchange Correlation functional ----------
Initalized PBE GGA exchange.
Initalized PBE GGA correlation.

---------- Setting up pseudopotentials ----------
Width of ionic core gaussian charges (only for fluid interactions / plotting) set to 0.397384

Reading pseudopotential file '/projects/musgravc/apps/jdftx-1.6.0/build/pseudopotentials/GBRV_v1.5/ag_pbe_v1.4.uspp':
  Title: Ag.  Created by USPP 7.3.6 on 1-4-15
  Reference state energy: -147.606242.  19 valence electrons in orbitals:
    |400>  occupation: 2  eigenvalue: -3.637437
    |410>  occupation: 6  eigenvalue: -2.297267
    |420>  occupation: 10  eigenvalue: -0.417763
    |500>  occupation: 0.5  eigenvalue: -0.283525
    |510>  occupation: 0  eigenvalue: -0.122889
  lMax: 2  lLocal: 0  QijEcut: 5.5
  6 projectors sampled on a log grid with 717 points:
    l: 0  eig: -0.283528  rCut: 1.5
    l: 0  eig: -3.637440  rCut: 1.5
    l: 1  eig: -0.122892  rCut: 1.5
    l: 1  eig: -2.297267  rCut: 1.5
    l: 2  eig: -0.417762  rCut: 1.7
    l: 2  eig: -1.000000  rCut: 1.7
  Partial core density with radius 1.2
  Transforming core density to a uniform radial grid of dG=0.02 with 1136 points.
  Transforming local potential to a uniform radial grid of dG=0.02 with 1136 points.
  Transforming nonlocal projectors to a uniform radial grid of dG=0.02 with 432 points.
  Transforming density augmentations to a uniform radial grid of dG=0.02 with 1136 points.
  Transforming atomic orbitals to a uniform radial grid of dG=0.02 with 432 points.
  Core radius for overlap checks: 1.70 bohrs.

Reading pseudopotential file '/projects/musgravc/apps/jdftx-1.6.0/build/pseudopotentials/GBRV_v1.5/pt_pbe_v1.4.uspp':
  Title: Pt.  Created by USPP 7.3.6 on 31-3-15
  Reference state energy: -105.002503.  16 valence electrons in orbitals:
    |510>  occupation: 6  eigenvalue: -2.158104
    |520>  occupation: 9.5  eigenvalue: -0.335376
    |600>  occupation: 0  eigenvalue: -0.319640
    |610>  occupation: 0  eigenvalue: -0.122947
  lMax: 2  lLocal: 3  QijEcut: 5.5
  6 projectors sampled on a log grid with 745 points:
    l: 0  eig: -0.319640  rCut: 2.45
    l: 0  eig: 1.500000  rCut: 2.45
    l: 1  eig: -2.158104  rCut: 1.6
    l: 1  eig: -0.122947  rCut: 1.6
    l: 2  eig: -0.500000  rCut: 1.6
    l: 2  eig: -0.335375  rCut: 1.6
  Partial core density with radius 1.1
  Transforming core density to a uniform radial grid of dG=0.02 with 1136 points.
  Transforming local potential to a uniform radial grid of dG=0.02 with 1136 points.
  Transforming nonlocal projectors to a uniform radial grid of dG=0.02 with 432 points.
  Transforming density augmentations to a uniform radial grid of dG=0.02 with 1136 points.
  Transforming atomic orbitals to a uniform radial grid of dG=0.02 with 432 points.
  Core radius for overlap checks: 2.45 bohrs.

Reading pseudopotential file '/projects/musgravc/apps/jdftx-1.6.0/build/pseudopotentials/GBRV_v1.5/c_pbe_v1.2.uspp':
  Title: C.  Created by USPP 7.3.6 on 3-2-2014
  Reference state energy: -5.406344.  4 valence electrons in orbitals:
    |200>  occupation: 2  eigenvalue: -0.504890
    |210>  occupation: 2  eigenvalue: -0.194356
  lMax: 1  lLocal: 2  QijEcut: 5
  4 projectors sampled on a log grid with 503 points:
    l: 0  eig: -0.504890  rCut: 1.3
    l: 0  eig: 0.000000  rCut: 1.3
    l: 1  eig: -0.194357  rCut: 1.3
    l: 1  eig: 0.000000  rCut: 1.3
  Partial core density with radius 1.1
  Transforming core density to a uniform radial grid of dG=0.02 with 1136 points.
  Transforming local potential to a uniform radial grid of dG=0.02 with 1136 points.
  Transforming nonlocal projectors to a uniform radial grid of dG=0.02 with 432 points.
  Transforming density augmentations to a uniform radial grid of dG=0.02 with 1136 points.
  Transforming atomic orbitals to a uniform radial grid of dG=0.02 with 432 points.
  Core radius for overlap checks: 1.30 bohrs.

Reading pseudopotential file '/projects/musgravc/apps/jdftx-1.6.0/build/pseudopotentials/GBRV_v1.5/o_pbe_v1.2.uspp':
  Title: O.  Created by USPP 7.3.6 on 3-2-2014
  Reference state energy: -15.894388.  6 valence electrons in orbitals:
    |200>  occupation: 2  eigenvalue: -0.878823
    |210>  occupation: 4  eigenvalue: -0.332131
  lMax: 2  lLocal: 2  QijEcut: 6
  5 projectors sampled on a log grid with 511 points:
    l: 0  eig: -0.878823  rCut: 1.25
    l: 0  eig: 0.000000  rCut: 1.25
    l: 1  eig: -0.332132  rCut: 1.25
    l: 1  eig: 0.000000  rCut: 1.25
    l: 2  eig: 1.000000  rCut: 1.25
  Partial core density with radius 0.7
  Transforming core density to a uniform radial grid of dG=0.02 with 1136 points.
  Transforming local potential to a uniform radial grid of dG=0.02 with 1136 points.
  Transforming nonlocal projectors to a uniform radial grid of dG=0.02 with 432 points.
  Transforming density augmentations to a uniform radial grid of dG=0.02 with 1136 points.
  Transforming atomic orbitals to a uniform radial grid of dG=0.02 with 432 points.
  Core radius for overlap checks: 1.25 bohrs.

Initialized 4 species with 66 total atoms.

Folded 1 k-points by 4x3x1 to 12 k-points.

---------- Setting up k-points, bands, fillings ----------
Adding inversion symmetry to k-mesh for non-inversion-symmetric unit cell.
Reduced to 6 k-points under symmetry. 
Computing the number of bands and number of electrons
Calculating initial fillings.
nElectrons: 1178.000000   nBands: 707   nStates: 12

----- Setting up reduced wavefunction bases (one per k-point) -----
average nbasis = 74243.917 , ideal nbasis = 74255.074

----- Initializing Supercell corresponding to k-point mesh -----
Lattice vector linear combinations in supercell:
[   4   0   0  ]
[   0   3   0  ]
[   0   0   1  ]
Supercell lattice vectors:
[  60.5944  0  0  ]
[  0  64.27  0  ]
[  0  0  53.5584  ]

Initializing DFT-D3 calculator:
	Parameters set for gga-PBE functional
	s6:  1.000  s_r6:  1.217
	s8:  0.722  s_r8:  1.000
	Per-atom parameters loaded for:
	Ag:  sqrtQ[a0]:  5.443  Rcov[a0]:  2.173  CN: [ 0.00 0.97 ]
	Pt:  sqrtQ[a0]:  5.888  Rcov[a0]:  2.116  CN: [ 0.00 1.92 6.67 ]
	 C:  sqrtQ[a0]:  3.105  Rcov[a0]:  1.417  CN: [ 0.00 0.99 2.00 3.00 3.98 ]
	 O:  sqrtQ[a0]:  2.594  Rcov[a0]:  1.191  CN: [ 0.00 0.99 1.99 ]

Initializing DFT-D2 calculator for fluid / solvation:
	Ag:  C6:  427.91 Eh-a0^6  R0: 3.097 a0
	Pt:  C6:  815.23 Eh-a0^6  R0: 3.326 a0 (WARNING: beyond Grimme's data set)
	 C:  C6:   30.35 Eh-a0^6  R0: 2.744 a0
	 O:  C6:   12.14 Eh-a0^6  R0: 2.536 a0

---------- Setting up ewald sum ----------
Optimum gaussian width for ewald sums = 5.140616 bohr.
Real space sum over 495 unit cells with max indices [  5  4  2  ]
Reciprocal space sum over 7735 terms with max indices [  6  8  17  ]

Computing DFT-D3 correction:
# coordination-number Ag 5.530 5.530 5.530 5.530 9.271 9.271 9.271 9.271 9.346 9.346 9.346 9.346 8.458 8.458 8.458 8.458 5.530 5.530 5.530 5.530 9.271 9.271 9.271 9.271 9.371 9.371 9.371 9.371 8.571 8.569 8.571 8.569 5.426 5.424 6.430 5.424 9.384 9.384 9.384 9.384 9.371 9.371 9.371 9.371 8.571 8.569 8.571 8.569
# coordination-number Pt 8.246 8.246 8.246 8.246 8.973 8.973 8.973 8.973 8.926 8.925 8.926 8.925 5.743 5.743 5.751 5.751
# coordination-number C 2.015
# coordination-number O 1.025
# diagonal-C6 Ag 268.61 268.61 268.61 268.61 268.61 268.61 268.61 268.61 268.61 268.61 268.61 268.61 268.61 268.61 268.61 268.61 268.61 268.61 268.61 268.61 268.61 268.61 268.61 268.61 268.61 268.61 268.61 268.61 268.61 268.61 268.61 268.61 268.61 268.61 268.61 268.61 268.61 268.61 268.61 268.61 268.61 268.61 268.61 268.61 268.61 268.61 268.61 268.61
# diagonal-C6 Pt 336.87 336.87 336.87 336.87 336.87 336.87 336.87 336.87 336.87 336.87 336.87 336.87 336.87 336.87 336.87 336.87
# diagonal-C6 C 29.46
# diagonal-C6 O 12.79
EvdW_6 =   -0.426022
EvdW_8 =   -0.614180

---------- Allocating electronic variables ----------
Initializing wave functions:  linear combination of atomic orbitals
Ag pseudo-atom occupations:   s ( 2 1 )  p ( 6 0 )  d ( 10 )
Pt pseudo-atom occupations:   s ( 0 )  p ( 6 0 )  d ( 10 )
C pseudo-atom occupations:   s ( 2 )  p ( 2 )
O pseudo-atom occupations:   s ( 2 )  p ( 4 )
	FillingsUpdate:  mu: -0.215173428  nElectrons: 1178.000000  magneticMoment: [ Abs: 0.00453  Tot: +0.00017 ]
LCAOMinimize: Iter:   0  F: -8511.1952235704211489  |grad|_K:  7.859e-03  alpha:  1.000e+00
	FillingsUpdate:  mu: +1.354046222  nElectrons: 1178.000000  magneticMoment: [ Abs: 0.00288  Tot: +0.00010 ]
LCAOMinimize: Iter:   1  F: -8513.3530247802791564  |grad|_K:  1.094e-02  alpha:  1.482e-01  linmin:  2.917e-02  cgtest: -7.966e-01  t[s]:    445.70
LCAOMinimize: 	Step increased F by 1.004563e+00, reducing alpha to 1.384955e-03.
	FillingsUpdate:  mu: +1.312172732  nElectrons: 1178.000000  magneticMoment: [ Abs: 0.00285  Tot: +0.00007 ]
LCAOMinimize: Iter:   2  F: -8513.9425164731947007  |grad|_K:  1.028e-02  alpha:  1.385e-03  linmin: -2.087e-02  cgtest:  1.004e+00  t[s]:    718.03
LCAOMinimize: Encountered beta<0, resetting CG.
LCAOMinimize: 	Predicted alpha/alphaT>3.000000, increasing alphaT to 4.154866e-03.
LCAOMinimize: 	Predicted alpha/alphaT>3.000000, increasing alphaT to 1.246460e-02.
	FillingsUpdate:  mu: +0.860532395  nElectrons: 1178.000000  magneticMoment: [ Abs: 0.00286  Tot: +0.00014 ]
LCAOMinimize: Iter:   3  F: -8524.2495534830650286  |grad|_K:  4.799e-03  alpha:  2.183e-02  linmin: -5.740e-02  cgtest:  5.708e-01  t[s]:    955.63
LCAOMinimize: Encountered beta<0, resetting CG.
	FillingsUpdate:  mu: +0.381860685  nElectrons: 1178.000000  magneticMoment: [ Abs: 0.00302  Tot: +0.00040 ]
LCAOMinimize: Iter:   4  F: -8528.7645709998487291  |grad|_K:  1.685e-03  alpha:  4.417e-02  linmin: -5.304e-02  cgtest:  4.756e-01  t[s]:   1112.54
LCAOMinimize: Encountered beta<0, resetting CG.
	FillingsUpdate:  mu: +0.268599345  nElectrons: 1178.000000  magneticMoment: [ Abs: 0.00296  Tot: +0.00021 ]
LCAOMinimize: Iter:   5  F: -8529.3018608212714753  |grad|_K:  8.211e-04  alpha:  4.608e-02  linmin: -2.310e-02  cgtest:  1.483e-01  t[s]:   1269.16
	FillingsUpdate:  mu: +0.197472514  nElectrons: 1178.000000  magneticMoment: [ Abs: 0.00295  Tot: +0.00028 ]
LCAOMinimize: Iter:   6  F: -8529.5106269948191766  |grad|_K:  6.042e-04  alpha:  7.187e-02  linmin: -4.843e-04  cgtest: -7.193e-02  t[s]:   1424.41
	FillingsUpdate:  mu: +0.164379630  nElectrons: 1178.000000  magneticMoment: [ Abs: 0.00277  Tot: +0.00022 ]
LCAOMinimize: Iter:   7  F: -8529.7104043548752088  |grad|_K:  4.772e-04  alpha:  1.350e-01  linmin:  3.327e-03  cgtest:  2.200e-02  t[s]:   1581.31
	FillingsUpdate:  mu: +0.153215504  nElectrons: 1178.000000  magneticMoment: [ Abs: 0.00269  Tot: +0.00021 ]
LCAOMinimize: Iter:   8  F: -8529.7701107316042908  |grad|_K:  2.975e-04  alpha:  6.252e-02  linmin: -7.114e-03  cgtest:  1.412e-01  t[s]:   1737.24
	FillingsUpdate:  mu: +0.171639888  nElectrons: 1178.000000  magneticMoment: [ Abs: 0.00261  Tot: +0.00023 ]
LCAOMinimize: Iter:   9  F: -8529.8133619957225164  |grad|_K:  2.618e-04  alpha:  1.151e-01  linmin: -6.128e-04  cgtest: -7.992e-02  t[s]:   1893.23
	FillingsUpdate:  mu: +0.172628216  nElectrons: 1178.000000  magneticMoment: [ Abs: 0.00258  Tot: +0.00028 ]
LCAOMinimize: Iter:  10  F: -8529.8314800279440533  |grad|_K:  1.150e-04  alpha:  6.726e-02  linmin:  2.713e-03  cgtest: -5.259e-02  t[s]:   2051.65
	FillingsUpdate:  mu: +0.168473288  nElectrons: 1178.000000  magneticMoment: [ Abs: 0.00256  Tot: +0.00030 ]
LCAOMinimize: Iter:  11  F: -8529.8366012538699579  |grad|_K:  7.778e-05  alpha:  9.497e-02  linmin: -4.537e-03  cgtest:  7.639e-02  t[s]:   2207.97
	FillingsUpdate:  mu: +0.171157925  nElectrons: 1178.000000  magneticMoment: [ Abs: 0.00256  Tot: +0.00032 ]
LCAOMinimize: Iter:  12  F: -8529.8389067935077037  |grad|_K:  4.916e-05  alpha:  9.128e-02  linmin: -4.027e-03  cgtest: -3.924e-02  t[s]:   2364.50
	FillingsUpdate:  mu: +0.171406425  nElectrons: 1178.000000  magneticMoment: [ Abs: 0.00256  Tot: +0.00032 ]
LCAOMinimize: Iter:  13  F: -8529.8394737973321753  |grad|_K:  2.196e-05  alpha:  5.580e-02  linmin: -1.607e-04  cgtest: -8.837e-02  t[s]:   2520.42
	FillingsUpdate:  mu: +0.170559749  nElectrons: 1178.000000  magneticMoment: [ Abs: 0.00256  Tot: +0.00032 ]
LCAOMinimize: Iter:  14  F: -8529.8397495050921862  |grad|_K:  1.404e-05  alpha:  1.401e-01  linmin:  4.870e-04  cgtest:  3.297e-02  t[s]:   2675.40
	FillingsUpdate:  mu: +0.169761420  nElectrons: 1178.000000  magneticMoment: [ Abs: 0.00257  Tot: +0.00032 ]
LCAOMinimize: Iter:  15  F: -8529.8398265929226909  |grad|_K:  1.344e-05  alpha:  9.589e-02  linmin:  7.196e-06  cgtest:  3.462e-03  t[s]:   2833.63
	FillingsUpdate:  mu: +0.169608998  nElectrons: 1178.000000  magneticMoment: [ Abs: 0.00257  Tot: +0.00032 ]
LCAOMinimize: Iter:  16  F: -8529.8398934806809848  |grad|_K:  8.306e-06  alpha:  9.067e-02  linmin:  1.723e-05  cgtest:  4.457e-04  t[s]:   2989.17
	FillingsUpdate:  mu: +0.170143813  nElectrons: 1178.000000  magneticMoment: [ Abs: 0.00258  Tot: +0.00032 ]
LCAOMinimize: Iter:  17  F: -8529.8399207635284256  |grad|_K:  5.284e-06  alpha:  9.684e-02  linmin: -6.155e-05  cgtest:  9.698e-04  t[s]:   3146.31
	FillingsUpdate:  mu: +0.170313428  nElectrons: 1178.000000  magneticMoment: [ Abs: 0.00258  Tot: +0.00033 ]
LCAOMinimize: Iter:  18  F: -8529.8399361769334064  |grad|_K:  5.889e-06  alpha:  1.351e-01  linmin:  1.912e-05  cgtest: -1.180e-03  t[s]:   3302.84
	FillingsUpdate:  mu: +0.170163041  nElectrons: 1178.000000  magneticMoment: [ Abs: 0.00258  Tot: +0.00033 ]
LCAOMinimize: Iter:  19  F: -8529.8399459001484502  |grad|_K:  2.534e-06  alpha:  6.874e-02  linmin:  7.258e-05  cgtest:  1.282e-03  t[s]:   3457.94
	FillingsUpdate:  mu: +0.170079967  nElectrons: 1178.000000  magneticMoment: [ Abs: 0.00259  Tot: +0.00033 ]
LCAOMinimize: Iter:  20  F: -8529.8399491988966474  |grad|_K:  1.690e-06  alpha:  1.259e-01  linmin: -4.587e-05  cgtest:  1.246e-03  t[s]:   3613.58
	FillingsUpdate:  mu: +0.170084295  nElectrons: 1178.000000  magneticMoment: [ Abs: 0.00259  Tot: +0.00033 ]
LCAOMinimize: Iter:  21  F: -8529.8399499744809873  |grad|_K:  1.159e-06  alpha:  6.646e-02  linmin: -2.828e-05  cgtest: -1.370e-04  t[s]:   3771.65
	FillingsUpdate:  mu: +0.170119528  nElectrons: 1178.000000  magneticMoment: [ Abs: 0.00259  Tot: +0.00033 ]
LCAOMinimize: Iter:  22  F: -8529.8399505288489308  |grad|_K:  7.592e-07  alpha:  1.012e-01  linmin:  1.857e-04  cgtest: -1.622e-03  t[s]:   3927.26
LCAOMinimize: Converged (|Delta F|<1.000000e-06 for 2 iters).
----- createFluidSolver() ----- (Fluid-side solver setup)
   Initializing fluid molecule 'H2O'
     Initializing site 'O'
       Electron density: proportional to exp(-r/0.36935)*erfc((r-0.51523)/0.36823) with norm 6.826
       Charge density: gaussian nuclear width 0.478731 with net site charge 0.826
       Polarizability: cuspless exponential with width 0.32 and norm 3.73
       Hard sphere radius: 2.57003 bohrs
       Positions in reference frame:
         [ +0.000000 +0.000000 +0.000000 ]
     Initializing site 'H'
       Electron density: proportional to exp(-r/0.34641)*erfc((r-0)/0.390882) with norm 0.587
       Charge density: gaussian nuclear width 0.377945 with net site charge -0.413
       Polarizability: cuspless exponential with width 0.39 and norm 3.3
       Positions in reference frame:
         [ +0.000000 -1.441945 +1.122523 ]
         [ +0.000000 +1.441945 +1.122523 ]
     Net charge: 0   dipole magnitude: 0.927204
     Initializing spherical shell mfKernel with radius 2.61727 Bohr
     deltaS corrections:
       site 'O': -7.54299
       site 'H': -6.83917
   Initializing fluid molecule 'Na+'
     Initializing site 'Na'
       Electron density: proportional to exp(-r/0.19682)*erfc((r-0.71491)/0.41314) with norm 8.1383
       Charge density: gaussian nuclear width 0.365347 with net site charge -1
       Hard sphere radius: 1.86327 bohrs
       Positions in reference frame:
         [ +0.000000 +0.000000 +0.000000 ]
     Net charge: -1   dipole magnitude: 0
     Initializing gaussian mfKernel with width: 1.55004 Bohr
     deltaS corrections:
       site 'Na': -22.3555
   Initializing fluid molecule 'F-'
     Initializing site 'F'
       Electron density: proportional to exp(-r/0.38886)*erfc((r-0)/0.438782) with norm 8
       Charge density: gaussian nuclear width 0.374796 with net site charge 1
       Hard sphere radius: 2.39995 bohrs
       Positions in reference frame:
         [ +0.000000 +0.000000 +0.000000 ]
     Net charge: 1   dipole magnitude: 0
     Initializing gaussian mfKernel with width: 1.59012 Bohr
     deltaS corrections:
       site 'F': -9.04335

Correction to mu due to finite nuclear width = -0.0672447
   Cavity determined by nc: 0.00142 and sigma: 0.707107
   Nonlocal vdW cavity from gaussian model electron density with norm = 8 and sigma = 0.993594 bohr
   Charge asymmetry in cavity with sensitivity pCavity = 36.5 e-bohr/Eh
   Electrostatic cavity expanded by eta = 1.46 bohrs
   Weighted density cavitation model constrained by Nbulk: 0.0049383 bohr^-3, Pvap: 3.14029 kPa, Rvdw: 2.61727 bohr and sigmaBulk: 4.62e-05 Eh/bohr^2 at T: 298 K.
   Weighted density dispersion model using vdW pair potentials with single solvent site with sqrtC6eff: 0.77 SI.


---- Citations for features of the code used in this run ----

   Software package:
      R. Sundararaman, K. Letchworth-Weaver, K.A. Schwarz, D. Gunceler, Y. Ozhabes and T.A. Arias, 'JDFTx: software for joint density-functional theory', SoftwareX 6, 278 (2017)

   gga-PBE exchange-correlation functional:
      J.P. Perdew, K. Burke and M. Ernzerhof, Phys. Rev. Lett. 77, 3865 (1996)

   Pseudopotentials:
      KF Garrity, JW Bennett, KM Rabe and D Vanderbilt, Comput. Mater. Sci. 81, 446 (2014)

   DFT-D3 dispersion correction:
      S. Grimme, J. Antony, S. Ehrlich and H. Krieg, J. Chem. Phys. 132, 154104 (2010)

   DFT-D2 dispersion correction:
      S. Grimme, J. Comput. Chem. 27, 1787 (2006)

   Charge-asymmetric nonlocally-determined local-electric (CANDLE) solvation model:
      R. Sundararaman and W.A. Goddard III, J. Chem. Phys. 142, 064107 (2015)

   Total energy minimization with Auxiliary Hamiltonian:
      C. Freysoldt, S. Boeck, and J. Neugebauer, Phys. Rev. B 79, 241103(R) (2009)

   Linear-tetrahedron sampling for density of states:
      G. Lehmann and M. Taut, Phys. status solidi (b) 54, 469 (1972)

This list may not be complete. Please suggest additional citations or
report any other bugs at https://github.com/shankar1729/jdftx/issues

Initialization completed successfully at t[s]:   3996.28


Computing DFT-D3 correction:
# coordination-number Ag 5.530 5.530 5.530 5.530 9.271 9.271 9.271 9.271 9.346 9.346 9.346 9.346 8.458 8.458 8.458 8.458 5.530 5.530 5.530 5.530 9.271 9.271 9.271 9.271 9.371 9.371 9.371 9.371 8.571 8.569 8.571 8.569 5.426 5.424 6.430 5.424 9.384 9.384 9.384 9.384 9.371 9.371 9.371 9.371 8.571 8.569 8.571 8.569
# coordination-number Pt 8.246 8.246 8.246 8.246 8.973 8.973 8.973 8.973 8.926 8.925 8.926 8.925 5.743 5.743 5.751 5.751
# coordination-number C 2.015
# coordination-number O 1.025
# diagonal-C6 Ag 268.61 268.61 268.61 268.61 268.61 268.61 268.61 268.61 268.61 268.61 268.61 268.61 268.61 268.61 268.61 268.61 268.61 268.61 268.61 268.61 268.61 268.61 268.61 268.61 268.61 268.61 268.61 268.61 268.61 268.61 268.61 268.61 268.61 268.61 268.61 268.61 268.61 268.61 268.61 268.61 268.61 268.61 268.61 268.61 268.61 268.61 268.61 268.61
# diagonal-C6 Pt 336.87 336.87 336.87 336.87 336.87 336.87 336.87 336.87 336.87 336.87 336.87 336.87 336.87 336.87 336.87 336.87
# diagonal-C6 C 29.46
# diagonal-C6 O 12.79
EvdW_6 =   -0.426022
EvdW_8 =   -0.614180
Fluid solver invoked on fresh (random / LCAO) wavefunctions
Running a vacuum solve first:

-------- Initial electronic minimization -----------
	FillingsUpdate:  mu: +0.170119528  nElectrons: 1178.000000  magneticMoment: [ Abs: 0.00259  Tot: +0.00033 ]
ElecMinimize: Iter:   0  F: -8529.839950528848931  |grad|_K:  4.229e-05  alpha:  1.000e+00
	FillingsUpdate:  mu: +0.180951352  nElectrons: 1178.000000  magneticMoment: [ Abs: 0.00197  Tot: +0.00033 ]
	SubspaceRotationAdjust: set factor to 1
ElecMinimize: Iter:   1  F: -8530.321379951194103  |grad|_K:  2.481e-05  alpha:  4.314e-01  linmin:  3.686e-05  t[s]:   4521.52
	FillingsUpdate:  mu: +0.176307054  nElectrons: 1178.000000  magneticMoment: [ Abs: 0.00156  Tot: +0.00034 ]
	SubspaceRotationAdjust: set factor to 0.931
ElecMinimize: Iter:   2  F: -8530.431951996866701  |grad|_K:  1.791e-05  alpha:  2.900e-01  linmin: -7.415e-06  t[s]:   4871.19
	FillingsUpdate:  mu: +0.182531394  nElectrons: 1178.000000  magneticMoment: [ Abs: 0.00145  Tot: +0.00033 ]
	SubspaceRotationAdjust: set factor to 0.602
ElecMinimize: Iter:   3  F: -8530.445615550119328  |grad|_K:  1.629e-05  alpha:  6.697e-02  linmin: -4.347e-06  t[s]:   5221.49
	FillingsUpdate:  mu: +0.187428094  nElectrons: 1178.000000  magneticMoment: [ Abs: 0.00113  Tot: +0.00030 ]
	SubspaceRotationAdjust: set factor to 0.54
ElecMinimize: Iter:   4  F: -8530.473238386453886  |grad|_K:  9.455e-06  alpha:  1.640e-01  linmin:  2.418e-06  t[s]:   5572.34
	FillingsUpdate:  mu: +0.175411091  nElectrons: 1178.000000  magneticMoment: [ Abs: 0.00095  Tot: +0.00028 ]
	SubspaceRotationAdjust: set factor to 0.4
ElecMinimize: Iter:   5  F: -8530.482853069879638  |grad|_K:  6.616e-06  alpha:  1.702e-01  linmin:  3.601e-06  t[s]:   5923.55
	FillingsUpdate:  mu: +0.177158403  nElectrons: 1178.000000  magneticMoment: [ Abs: 0.00078  Tot: +0.00025 ]
	SubspaceRotationAdjust: set factor to 0.289
ElecMinimize: Iter:   6  F: -8530.487964950449168  |grad|_K:  6.110e-06  alpha:  1.848e-01  linmin: -3.810e-06  t[s]:   6273.46
	FillingsUpdate:  mu: +0.178989156  nElectrons: 1178.000000  magneticMoment: [ Abs: 0.00062  Tot: +0.00022 ]
	SubspaceRotationAdjust: set factor to 0.282
ElecMinimize: Iter:   7  F: -8530.491689256168684  |grad|_K:  3.241e-06  alpha:  1.574e-01  linmin:  1.487e-06  t[s]:   6623.67
	FillingsUpdate:  mu: +0.181141250  nElectrons: 1178.000000  magneticMoment: [ Abs: 0.00049  Tot: +0.00020 ]
	SubspaceRotationAdjust: set factor to 0.232
ElecMinimize: Iter:   8  F: -8530.493774411723280  |grad|_K:  2.884e-06  alpha:  3.139e-01  linmin:  4.276e-06  t[s]:   6976.33
	FillingsUpdate:  mu: +0.179316313  nElectrons: 1178.000000  magneticMoment: [ Abs: 0.00041  Tot: +0.00018 ]
	SubspaceRotationAdjust: set factor to 0.189
ElecMinimize: Iter:   9  F: -8530.494681452579243  |grad|_K:  1.777e-06  alpha:  1.725e-01  linmin:  2.571e-07  t[s]:   7327.99
	FillingsUpdate:  mu: +0.178038629  nElectrons: 1178.000000  magneticMoment: [ Abs: 0.00034  Tot: +0.00016 ]
	SubspaceRotationAdjust: set factor to 0.233
ElecMinimize: Iter:  10  F: -8530.495268406883042  |grad|_K:  1.337e-06  alpha:  2.938e-01  linmin:  1.687e-05  t[s]:   7678.19
	FillingsUpdate:  mu: +0.178624421  nElectrons: 1178.000000  magneticMoment: [ Abs: 0.00029  Tot: +0.00014 ]
	SubspaceRotationAdjust: set factor to 0.21
ElecMinimize: Iter:  11  F: -8530.495565225050086  |grad|_K:  1.084e-06  alpha:  2.626e-01  linmin:  1.659e-06  t[s]:   8028.21
	FillingsUpdate:  mu: +0.179708618  nElectrons: 1178.000000  magneticMoment: [ Abs: 0.00025  Tot: +0.00012 ]
	SubspaceRotationAdjust: set factor to 0.243
ElecMinimize: Iter:  12  F: -8530.495776604542698  |grad|_K:  7.710e-07  alpha:  2.841e-01  linmin:  1.312e-06  t[s]:   8378.84
	FillingsUpdate:  mu: +0.179426336  nElectrons: 1178.000000  magneticMoment: [ Abs: 0.00021  Tot: +0.00011 ]
	SubspaceRotationAdjust: set factor to 0.242
ElecMinimize: Iter:  13  F: -8530.495892207725774  |grad|_K:  6.916e-07  alpha:  3.074e-01  linmin:  3.273e-06  t[s]:   8730.39
	FillingsUpdate:  mu: +0.179038090  nElectrons: 1178.000000  magneticMoment: [ Abs: 0.00018  Tot: +0.00009 ]
	SubspaceRotationAdjust: set factor to 0.229
ElecMinimize: Iter:  14  F: -8530.495964437799557  |grad|_K:  5.038e-07  alpha:  2.387e-01  linmin:  8.486e-07  t[s]:   9081.18
	FillingsUpdate:  mu: +0.179248581  nElectrons: 1178.000000  magneticMoment: [ Abs: 0.00015  Tot: +0.00007 ]
	SubspaceRotationAdjust: set factor to 0.284
ElecMinimize: Iter:  15  F: -8530.496022585522951  |grad|_K:  4.276e-07  alpha:  3.625e-01  linmin:  3.512e-06  t[s]:   9431.71
	FillingsUpdate:  mu: +0.179455477  nElectrons: 1178.000000  magneticMoment: [ Abs: 0.00013  Tot: +0.00006 ]
	SubspaceRotationAdjust: set factor to 0.235
ElecMinimize: Iter:  16  F: -8530.496050501376885  |grad|_K:  3.580e-07  alpha:  2.417e-01  linmin:  2.649e-08  t[s]:   9782.19
	FillingsUpdate:  mu: +0.179556885  nElectrons: 1178.000000  magneticMoment: [ Abs: 0.00011  Tot: +0.00004 ]
	SubspaceRotationAdjust: set factor to 0.291
ElecMinimize: Iter:  17  F: -8530.496076216631991  |grad|_K:  2.519e-07  alpha:  3.172e-01  linmin:  2.154e-06  t[s]:  10134.42
	FillingsUpdate:  mu: +0.179402718  nElectrons: 1178.000000  magneticMoment: [ Abs: 0.00009  Tot: +0.00003 ]
	SubspaceRotationAdjust: set factor to 0.29
ElecMinimize: Iter:  18  F: -8530.496090410448232  |grad|_K:  2.236e-07  alpha:  3.545e-01  linmin:  1.599e-06  t[s]:  10484.98
	FillingsUpdate:  mu: +0.179396849  nElectrons: 1178.000000  magneticMoment: [ Abs: 0.00007  Tot: +0.00002 ]
	SubspaceRotationAdjust: set factor to 0.229
ElecMinimize: Iter:  19  F: -8530.496097478828233  |grad|_K:  1.744e-07  alpha:  2.237e-01  linmin: -2.090e-08  t[s]:  10835.84
	FillingsUpdate:  mu: +0.179537134  nElectrons: 1178.000000  magneticMoment: [ Abs: 0.00005  Tot: +0.00002 ]
	SubspaceRotationAdjust: set factor to 0.227
ElecMinimize: Iter:  20  F: -8530.496102793773389  |grad|_K:  1.175e-07  alpha:  2.761e-01  linmin:  2.860e-07  t[s]:  11186.61
	FillingsUpdate:  mu: +0.179523914  nElectrons: 1178.000000  magneticMoment: [ Abs: 0.00004  Tot: +0.00001 ]
	SubspaceRotationAdjust: set factor to 0.252
ElecMinimize: Iter:  21  F: -8530.496105821444871  |grad|_K:  9.208e-08  alpha:  3.465e-01  linmin: -1.117e-07  t[s]:  11536.81
	FillingsUpdate:  mu: +0.179466175  nElectrons: 1178.000000  magneticMoment: [ Abs: 0.00003  Tot: +0.00001 ]
	SubspaceRotationAdjust: set factor to 0.202
ElecMinimize: Iter:  22  F: -8530.496107243452570  |grad|_K:  7.241e-08  alpha:  2.647e-01  linmin: -4.633e-08  t[s]:  11888.52
	FillingsUpdate:  mu: +0.179466799  nElectrons: 1178.000000  magneticMoment: [ Abs: 0.00002  Tot: +0.00001 ]
	SubspaceRotationAdjust: set factor to 0.219
ElecMinimize: Iter:  23  F: -8530.496108260165784  |grad|_K:  4.811e-08  alpha:  3.066e-01  linmin: -8.966e-08  t[s]:  12240.16
	FillingsUpdate:  mu: +0.179499945  nElectrons: 1178.000000  magneticMoment: [ Abs: 0.00002  Tot: +0.00000 ]
	SubspaceRotationAdjust: set factor to 0.235
ElecMinimize: Iter:  24  F: -8530.496108784780517  |grad|_K:  3.870e-08  alpha:  3.583e-01  linmin:  6.200e-07  t[s]:  12590.77
	FillingsUpdate:  mu: +0.179496083  nElectrons: 1178.000000  magneticMoment: [ Abs: 0.00001  Tot: +0.00000 ]
	SubspaceRotationAdjust: set factor to 0.219
ElecMinimize: Iter:  25  F: -8530.496109068719306  |grad|_K:  3.045e-08  alpha:  3.019e-01  linmin: -2.752e-07  t[s]:  12941.69
	FillingsUpdate:  mu: +0.179480784  nElectrons: 1178.000000  magneticMoment: [ Abs: 0.00001  Tot: +0.00000 ]
	SubspaceRotationAdjust: set factor to 0.225
ElecMinimize: Iter:  26  F: -8530.496109251693269  |grad|_K:  2.331e-08  alpha:  3.115e-01  linmin:  3.025e-06  t[s]:  13291.91
	FillingsUpdate:  mu: +0.179478460  nElectrons: 1178.000000  magneticMoment: [ Abs: 0.00001  Tot: +0.00000 ]
	SubspaceRotationAdjust: set factor to 0.29
ElecMinimize: Iter:  27  F: -8530.496109378842448  |grad|_K:  1.814e-08  alpha:  3.739e-01  linmin: -3.187e-06  t[s]:  13642.73
	FillingsUpdate:  mu: +0.179485885  nElectrons: 1178.000000  magneticMoment: [ Abs: 0.00001  Tot: +0.00000 ]
	SubspaceRotationAdjust: set factor to 0.292
ElecMinimize: Iter:  28  F: -8530.496109452853489  |grad|_K:  1.708e-08  alpha:  3.471e-01  linmin: -8.705e-07  t[s]:  13992.98
	FillingsUpdate:  mu: +0.179487249  nElectrons: 1178.000000  magneticMoment: [ Abs: 0.00001  Tot: +0.00000 ]
	SubspaceRotationAdjust: set factor to 0.269
ElecMinimize: Iter:  29  F: -8530.496109503535990  |grad|_K:  1.434e-08  alpha:  2.734e-01  linmin: -7.272e-08  t[s]:  14343.87
ElecMinimize: Converged (|Delta F|<1.000000e-07 for 2 iters).
Setting wave functions to eigenvectors of Hamiltonian
Converging empty states (this may take a while): |deigs|: 8.731e-03
Vacuum energy after initial minimize, F = -8530.496109503535990


-------- Electronic minimization -----------
	Linear fluid (dielectric constant: 78.4, screening length: 8.12261 Bohr) occupying 0.421634 of unit cell:	Completed after 26 iterations at t[s]:  16483.77
	FillingsUpdate:  mu: -0.159781124  nElectrons: 1178.000000  magneticMoment: [ Abs: 0.00000  Tot: +0.00000 ]
ElecMinimize: Iter:   0  F: -8530.500951118930971  |grad|_K:  1.007e-06  alpha:  1.000e+00
	Linear fluid (dielectric constant: 78.4, screening length: 8.12261 Bohr) occupying 0.422810 of unit cell:	Completed after 20 iterations at t[s]:  16778.51
	Linear fluid (dielectric constant: 78.4, screening length: 8.12261 Bohr) occupying 0.422395 of unit cell:	Completed after 17 iterations at t[s]:  16878.27
	FillingsUpdate:  mu: -0.156144878  nElectrons: 1178.000000  magneticMoment: [ Abs: 0.00000  Tot: +0.00000 ]
	SubspaceRotationAdjust: set factor to 0.22
ElecMinimize: Iter:   1  F: -8530.501364542586089  |grad|_K:  1.054e-06  alpha:  6.486e-01  linmin:  7.574e-08  t[s]:  17007.81
	Linear fluid (dielectric constant: 78.4, screening length: 8.12261 Bohr) occupying 0.423547 of unit cell:	Completed after 19 iterations at t[s]:  17150.82
	Linear fluid (dielectric constant: 78.4, screening length: 8.12261 Bohr) occupying 0.423228 of unit cell:	Completed after 13 iterations at t[s]:  17247.78
	FillingsUpdate:  mu: -0.155607644  nElectrons: 1178.000000  magneticMoment: [ Abs: 0.00000  Tot: +0.00000 ]
	SubspaceRotationAdjust: set factor to 0.214
ElecMinimize: Iter:   2  F: -8530.501690232949841  |grad|_K:  7.315e-07  alpha:  4.648e-01  linmin: -3.008e-08  t[s]:  17376.22
	Linear fluid (dielectric constant: 78.4, screening length: 8.12261 Bohr) occupying 0.423722 of unit cell:	Completed after 11 iterations at t[s]:  17516.80
	Linear fluid (dielectric constant: 78.4, screening length: 8.12261 Bohr) occupying 0.423778 of unit cell:	Completed after 3 iterations at t[s]:  17611.15
	FillingsUpdate:  mu: -0.155522540  nElectrons: 1178.000000  magneticMoment: [ Abs: 0.00000  Tot: +0.00000 ]
	SubspaceRotationAdjust: set factor to 0.258
ElecMinimize: Iter:   3  F: -8530.501866153128503  |grad|_K:  4.854e-07  alpha:  5.190e-01  linmin: -1.168e-07  t[s]:  17741.13
	Linear fluid (dielectric constant: 78.4, screening length: 8.12261 Bohr) occupying 0.424047 of unit cell:	Completed after 11 iterations at t[s]:  17882.45
	Linear fluid (dielectric constant: 78.4, screening length: 8.12261 Bohr) occupying 0.424001 of unit cell:	Completed after 2 iterations at t[s]:  17975.88
	FillingsUpdate:  mu: -0.155075261  nElectrons: 1178.000000  magneticMoment: [ Abs: 0.00000  Tot: +0.00000 ]
	SubspaceRotationAdjust: set factor to 0.291
ElecMinimize: Iter:   4  F: -8530.501930164171426  |grad|_K:  3.721e-07  alpha:  4.285e-01  linmin: -9.200e-09  t[s]:  18104.70
	Linear fluid (dielectric constant: 78.4, screening length: 8.12261 Bohr) occupying 0.424134 of unit cell:	Completed after 8 iterations at t[s]:  18244.52
	Linear fluid (dielectric constant: 78.4, screening length: 8.12261 Bohr) occupying 0.424134 of unit cell:	Completed after 0 iterations at t[s]:  18337.44
	FillingsUpdate:  mu: -0.155280265  nElectrons: 1178.000000  magneticMoment: [ Abs: 0.00000  Tot: +0.00000 ]
	SubspaceRotationAdjust: set factor to 0.338
ElecMinimize: Iter:   5  F: -8530.501967659047295  |grad|_K:  2.537e-07  alpha:  4.277e-01  linmin: -2.541e-08  t[s]:  18466.18
	Linear fluid (dielectric constant: 78.4, screening length: 8.12261 Bohr) occupying 0.424201 of unit cell:	Completed after 3 iterations at t[s]:  18604.02
	Linear fluid (dielectric constant: 78.4, screening length: 8.12261 Bohr) occupying 0.424213 of unit cell:	Completed after 2 iterations at t[s]:  18697.31
	FillingsUpdate:  mu: -0.155234118  nElectrons: 1178.000000  magneticMoment: [ Abs: 0.00000  Tot: +0.00000 ]
	SubspaceRotationAdjust: set factor to 0.394
ElecMinimize: Iter:   6  F: -8530.501988334935959  |grad|_K:  1.797e-07  alpha:  5.074e-01  linmin: -2.928e-09  t[s]:  18827.25
	Linear fluid (dielectric constant: 78.4, screening length: 8.12261 Bohr) occupying 0.424257 of unit cell:	Completed after 5 iterations at t[s]:  18965.63
	Linear fluid (dielectric constant: 78.4, screening length: 8.12261 Bohr) occupying 0.424255 of unit cell:	Completed after 0 iterations at t[s]:  19058.33
	FillingsUpdate:  mu: -0.155228792  nElectrons: 1178.000000  magneticMoment: [ Abs: 0.00000  Tot: +0.00000 ]
	SubspaceRotationAdjust: set factor to 0.451
ElecMinimize: Iter:   7  F: -8530.501998115609240  |grad|_K:  1.228e-07  alpha:  4.782e-01  linmin:  1.036e-07  t[s]:  19187.19
	Linear fluid (dielectric constant: 78.4, screening length: 8.12261 Bohr) occupying 0.424278 of unit cell:	Completed after 6 iterations at t[s]:  19326.17
	Linear fluid (dielectric constant: 78.4, screening length: 8.12261 Bohr) occupying 0.424276 of unit cell:	Completed after 0 iterations at t[s]:  19419.09
	FillingsUpdate:  mu: -0.155138928  nElectrons: 1178.000000  magneticMoment: [ Abs: 0.00000  Tot: +0.00000 ]
	SubspaceRotationAdjust: set factor to 0.496
ElecMinimize: Iter:   8  F: -8530.502002421015277  |grad|_K:  8.369e-08  alpha:  4.527e-01  linmin: -1.673e-07  t[s]:  19548.68
	Linear fluid (dielectric constant: 78.4, screening length: 8.12261 Bohr) occupying 0.424284 of unit cell:	Completed after 5 iterations at t[s]:  19688.05
	Linear fluid (dielectric constant: 78.4, screening length: 8.12261 Bohr) occupying 0.424282 of unit cell:	Completed after 2 iterations at t[s]:  19781.54
	FillingsUpdate:  mu: -0.155257880  nElectrons: 1178.000000  magneticMoment: [ Abs: 0.00000  Tot: +0.00000 ]
	SubspaceRotationAdjust: set factor to 0.461
ElecMinimize: Iter:   9  F: -8530.502003954392421  |grad|_K:  6.412e-08  alpha:  3.469e-01  linmin:  3.676e-08  t[s]:  19910.59
	Linear fluid (dielectric constant: 78.4, screening length: 8.12261 Bohr) occupying 0.424288 of unit cell:	Completed after 5 iterations at t[s]:  20049.69
	Linear fluid (dielectric constant: 78.4, screening length: 8.12261 Bohr) occupying 0.424287 of unit cell:	Completed after 2 iterations at t[s]:  20143.13
	FillingsUpdate:  mu: -0.155140480  nElectrons: 1178.000000  magneticMoment: [ Abs: 0.00000  Tot: +0.00000 ]
	SubspaceRotationAdjust: set factor to 0.336
ElecMinimize: Iter:  10  F: -8530.502004679128731  |grad|_K:  4.358e-08  alpha:  2.810e-01  linmin:  2.722e-07  t[s]:  20271.97
	Linear fluid (dielectric constant: 78.4, screening length: 8.12261 Bohr) occupying 0.424286 of unit cell:	Completed after 3 iterations at t[s]:  20410.35
	Linear fluid (dielectric constant: 78.4, screening length: 8.12261 Bohr) occupying 0.424286 of unit cell:	Completed after 0 iterations at t[s]:  20502.18
	FillingsUpdate:  mu: -0.155196286  nElectrons: 1178.000000  magneticMoment: [ Abs: 0.00000  Tot: +0.00000 ]
	SubspaceRotationAdjust: set factor to 0.309
ElecMinimize: Iter:  11  F: -8530.502005023745369  |grad|_K:  2.751e-08  alpha:  2.878e-01  linmin: -2.758e-06  t[s]:  20630.94
	Linear fluid (dielectric constant: 78.4, screening length: 8.12261 Bohr) occupying 0.424285 of unit cell:	Completed after 2 iterations at t[s]:  20768.50
	Linear fluid (dielectric constant: 78.4, screening length: 8.12261 Bohr) occupying 0.424285 of unit cell:	Completed after 0 iterations at t[s]:  20860.14
	FillingsUpdate:  mu: -0.155212129  nElectrons: 1178.000000  magneticMoment: [ Abs: 0.00000  Tot: +0.00000 ]
	SubspaceRotationAdjust: set factor to 0.367
ElecMinimize: Iter:  12  F: -8530.502005186543101  |grad|_K:  1.885e-08  alpha:  3.259e-01  linmin: -2.106e-05  t[s]:  20988.80
	Linear fluid (dielectric constant: 78.4, screening length: 8.12261 Bohr) occupying 0.424283 of unit cell:	Completed after 2 iterations at t[s]:  21125.96
	Linear fluid (dielectric constant: 78.4, screening length: 8.12261 Bohr) occupying 0.424283 of unit cell:	Completed after 0 iterations at t[s]:  21217.60
	FillingsUpdate:  mu: -0.155193057  nElectrons: 1178.000000  magneticMoment: [ Abs: 0.00000  Tot: +0.00000 ]
	SubspaceRotationAdjust: set factor to 0.36
ElecMinimize: Iter:  13  F: -8530.502005265168918  |grad|_K:  1.321e-08  alpha:  3.315e-01  linmin: -3.650e-06  t[s]:  21345.97
	Linear fluid (dielectric constant: 78.4, screening length: 8.12261 Bohr) occupying 0.424281 of unit cell:	Completed after 0 iterations at t[s]:  21482.61
	Linear fluid (dielectric constant: 78.4, screening length: 8.12261 Bohr) occupying 0.424281 of unit cell:	Completed after 2 iterations at t[s]:  21576.24
	FillingsUpdate:  mu: -0.155186012  nElectrons: 1178.000000  magneticMoment: [ Abs: 0.00000  Tot: +0.00000 ]
	SubspaceRotationAdjust: set factor to 0.368
ElecMinimize: Iter:  14  F: -8530.502005299649682  |grad|_K:  1.263e-08  alpha:  4.681e-01  linmin:  2.243e-05  t[s]:  21704.83
ElecMinimize: Converged (|Delta F|<1.000000e-07 for 2 iters).
Setting wave functions to eigenvectors of Hamiltonian
Converging empty states (this may take a while): |deigs|: 8.159e-05
Single-point solvation energy estimate, DeltaF = -0.005895796113691

Computing DFT-D3 correction:
# coordination-number Ag 5.530 5.530 5.530 5.530 9.271 9.271 9.271 9.271 9.346 9.346 9.346 9.346 8.458 8.458 8.458 8.458 5.530 5.530 5.530 5.530 9.271 9.271 9.271 9.271 9.371 9.371 9.371 9.371 8.571 8.569 8.571 8.569 5.426 5.424 6.430 5.424 9.384 9.384 9.384 9.384 9.371 9.371 9.371 9.371 8.571 8.569 8.571 8.569
# coordination-number Pt 8.246 8.246 8.246 8.246 8.973 8.973 8.973 8.973 8.926 8.925 8.926 8.925 5.743 5.743 5.751 5.751
# coordination-number C 2.015
# coordination-number O 1.025
# diagonal-C6 Ag 268.61 268.61 268.61 268.61 268.61 268.61 268.61 268.61 268.61 268.61 268.61 268.61 268.61 268.61 268.61 268.61 268.61 268.61 268.61 268.61 268.61 268.61 268.61 268.61 268.61 268.61 268.61 268.61 268.61 268.61 268.61 268.61 268.61 268.61 268.61 268.61 268.61 268.61 268.61 268.61 268.61 268.61 268.61 268.61 268.61 268.61 268.61 268.61
# diagonal-C6 Pt 336.87 336.87 336.87 336.87 336.87 336.87 336.87 336.87 336.87 336.87 336.87 336.87 336.87 336.87 336.87 336.87
# diagonal-C6 C 29.46
# diagonal-C6 O 12.79
EvdW_6 =   -0.426022
EvdW_8 =   -0.614180

# Ionic positions in cartesian coordinates:
ion Ag   3.787148999999999   2.725241287878786   1.237413000000000 0
ion Ag   3.787148999999999  13.436915787878787   1.237413000000000 0
ion Ag  11.361447000000000   2.725241287878786   1.237413000000000 0
ion Ag  11.361447000000000  13.436915787878787   1.237413000000000 0
ion Ag   3.787148999999999   8.038574787878787   6.660413000000000 0
ion Ag   3.787148999999999  18.750227787878789   6.660413000000000 0
ion Ag  11.361447000000000   8.038574787878787   6.660413000000000 0
ion Ag  11.361447000000000  18.750227787878789   6.660413000000000 0
ion Ag   0.000000000000000   5.355835787878785   9.413526999999998 0
ion Ag   0.000000000000000  16.067510287878786   9.413526999999998 0
ion Ag   7.574297999999999   5.355835787878785   9.413526999999998 0
ion Ag   7.574297999999999  16.067510287878786   9.413526999999998 0
ion Ag   0.000000000000000  -0.000001212121213   3.864076000000000 0
ion Ag   0.000000000000000  10.711672787878785   3.864076000000000 0
ion Ag   7.574297999999999  -0.000001212121213   3.864076000000000 0
ion Ag   7.574297999999999  10.711672787878785   3.864076000000000 0
ion Ag   3.787148999999999   7.986430287878784   1.237413000000000 0
ion Ag   3.787148999999999  18.698104787878787   1.237413000000000 0
ion Ag  11.361447000000000   7.986430287878784   1.237413000000000 0
ion Ag  11.361447000000000  18.698104787878787   1.237413000000000 0
ion Ag   3.787148999999999   2.673096787878786   6.660413000000000 0
ion Ag   3.787148999999999  13.384792787878787   6.660413000000000 0
ion Ag  11.361447000000000   2.673096787878786   6.660413000000000 0
ion Ag  11.361447000000000  13.384792787878787   6.660413000000000 0
ion Ag   3.787148999999999   2.682694787878786  12.076021000000001 0
ion Ag   3.787148999999999  13.394368787878790  12.076021000000001 0
ion Ag  11.361447000000000   2.682694787878786  12.076021000000001 0
ion Ag  11.361447000000000  13.394368787878790  12.076021000000001 0
ion Ag   3.787148999999999   8.000323287878784  17.563452000000002 0
ion Ag   3.787148999999999  18.711997787878786  17.563452000000002 0
ion Ag  11.361447000000000   8.000323287878784  17.563452000000002 0
ion Ag  11.361447000000000  18.711997787878786  17.563452000000002 0
ion Ag   0.000000000000000   5.355835787878785  20.280093000000001 0
ion Ag   0.000000000000000  16.067510287878786  20.280093000000001 0
ion Ag   7.574297999999999   5.355835787878785  20.280093000000001 0
ion Ag   7.574297999999999  16.067510287878786  20.280093000000001 0
ion Ag   0.000000000000000  -0.000001212121213  14.712647000000000 0
ion Ag   0.000000000000000  10.711672787878785  14.712647000000000 0
ion Ag   7.574297999999999  -0.000001212121213  14.712647000000000 0
ion Ag   7.574297999999999  10.711672787878785  14.712647000000000 0
ion Ag   3.787148999999999   8.028976787878785  12.076021000000001 0
ion Ag   3.787148999999999  18.740651787878786  12.076021000000001 0
ion Ag  11.361447000000000   8.028976787878785  12.076021000000001 0
ion Ag  11.361447000000000  18.740651787878786  12.076021000000001 0
ion Ag   3.787148999999999   2.711348287878786  17.563452000000002 0
ion Ag   3.787148999999999  13.423022787878784  17.563452000000002 0
ion Ag  11.361447000000000   2.711348287878786  17.563452000000002 0
ion Ag  11.361447000000000  13.423022787878784  17.563452000000002 0
ion Pt   0.000000000000000   5.355835787878785   3.956249999999999 0
ion Pt   0.000000000000000  16.067510287878786   3.956249999999999 0
ion Pt   7.574297999999999   5.355835787878785   3.956249999999999 0
ion Pt   7.574297999999999  16.067510287878786   3.956249999999999 0
ion Pt   0.000000000000000  -0.000001212121213   9.374912000000000 0
ion Pt   0.000000000000000  10.711672787878785   9.374912000000000 0
ion Pt   7.574297999999999  -0.000001212121213   9.374912000000000 0
ion Pt   7.574297999999999  10.711672787878785   9.374912000000000 0
ion Pt   0.000000000000000   5.355835787878785  14.805410000000000 0
ion Pt   0.000000000000000  16.067510287878786  14.805410000000000 0
ion Pt   7.574297999999999   5.355835787878785  14.805410000000000 0
ion Pt   7.574297999999999  16.067510287878786  14.805410000000000 0
ion Pt   0.000000000000000  -0.000001212121213  19.905184999999999 0
ion Pt   0.000000000000000  10.711672787878785  19.905184999999999 0
ion Pt   7.574297999999999  -0.000001212121213  19.905184999999999 0
ion Pt   7.574297999999999  10.711672787878785  19.905184999999999 0
ion C   7.574297999999999   5.355835787878785  24.059546999999998 1  Linear 0 0 1
ion O   7.634392999999999   5.355835787878785  26.214897000000001 1  Linear 0 0 1

# Forces in Cartesian coordinates:
force Ag   0.000003054268905   0.000108093243404  -0.000294588469570 0
force Ag   0.000054125929189  -0.000039914932718  -0.000213660499664 0
force Ag  -0.000000320151032   0.000106019650656  -0.000295765317190 0
force Ag  -0.000048825523288  -0.000042631797804  -0.000212187890322 0
force Ag  -0.000000502070271   0.000104040845028  -0.000133668882544 0
force Ag   0.000066414754731   0.000203759617840  -0.000263112597229 0
force Ag  -0.000015604110573   0.000104688551174  -0.000135615095816 0
force Ag  -0.000076482025733   0.000203740879699  -0.000261585393472 0
force Ag  -0.000002702399245   0.000000000000000  -0.000283285896746 0
force Ag   0.000004937007638   0.000000000000000  -0.000208398138793 0
force Ag  -0.000003593261007   0.000000000000000  -0.000627772540122 0
force Ag   0.000006644932761   0.000000000000000  -0.000133786500436 0
force Ag  -0.000012069373037   0.000018354881496  -0.000267370572676 0
force Ag  -0.000012069373037  -0.000018354881496  -0.000267370572676 0
force Ag  -0.000010338990182  -0.000026574869957  -0.000344563198351 0
force Ag  -0.000010338990182   0.000026574869957  -0.000344563198351 0
force Ag   0.000003054268905  -0.000108093243404  -0.000294588469570 0
force Ag   0.000054125929189   0.000039914932718  -0.000213660499664 0
force Ag  -0.000000320151032  -0.000106019650656  -0.000295765317190 0
force Ag  -0.000048825523288   0.000042631797804  -0.000212187890322 0
force Ag  -0.000000502070271  -0.000104040845028  -0.000133668882544 0
force Ag   0.000066414754731  -0.000203759617840  -0.000263112597229 0
force Ag  -0.000015604110573  -0.000104688551174  -0.000135615095816 0
force Ag  -0.000076482025733  -0.000203740879699  -0.000261585393472 0
force Ag  -0.000029340114460   0.000100646574626  -0.000060837585567 0
force Ag  -0.000048752179605  -0.000042915516856  -0.000044326158225 0
force Ag   0.000027578414210   0.000099869122574  -0.000068059980840 0
force Ag   0.000038821990196  -0.000042563158035  -0.000046199621164 0
force Ag  -0.000829176809602   0.000694576813174  -0.000803332719352 0
force Ag   0.000016497356500   0.000139477441647   0.000152372160943 0
force Ag   0.000794253133052   0.000659797825501  -0.000752566467153 0
force Ag  -0.000024975566631   0.000140917699032   0.000146892045689 0
force Ag  -0.000015694799853   0.000000000000000  -0.000356806446995 0
force Ag  -0.000006029229621   0.000000000000000  -0.000241659353090 0
force Ag  -0.000131734714012   0.000000000000000  -0.011021078635626 0
force Ag  -0.000008068340404   0.000000000000000  -0.000676227393895 0
force Ag  -0.000012171603465  -0.000027871062644  -0.000199373939493 0
force Ag  -0.000012171603465   0.000027871062644  -0.000199373939493 0
force Ag  -0.000008076533638  -0.000150356113784  -0.000164671782507 0
force Ag  -0.000008076533638   0.000150356113784  -0.000164671782507 0
force Ag  -0.000029340114460  -0.000100646574626  -0.000060837585567 0
force Ag  -0.000048752179605   0.000042915516856  -0.000044326158225 0
force Ag   0.000027578414210  -0.000099869122574  -0.000068059980840 0
force Ag   0.000038821990196   0.000042563158035  -0.000046199621164 0
force Ag  -0.000829176809602  -0.000694576813174  -0.000803332719352 0
force Ag   0.000016497356500  -0.000139477441647   0.000152372160943 0
force Ag   0.000794253133052  -0.000659797825501  -0.000752566467153 0
force Ag  -0.000024975566631  -0.000140917699032   0.000146892045689 0
force Pt  -0.000004532419699   0.000000000000000  -0.000481380644307 0
force Pt  -0.000005014134405   0.000000000000000  -0.000324917776449 0
force Pt  -0.000006226672306   0.000000000000000  -0.000788605824958 0
force Pt  -0.000005713647425   0.000000000000000  -0.000105858364782 0
force Pt   0.000003324649441   0.000015805660105   0.000253825561106 0
force Pt   0.000003324649441  -0.000015805660105   0.000253825561106 0
force Pt   0.000007370063916   0.000241207933708  -0.000097075299989 0
force Pt   0.000007370063916  -0.000241207933708  -0.000097075299989 0
force Pt   0.000023080676176   0.000000000000000   0.000102584473799 0
force Pt  -0.000002064997472   0.000000000000000   0.000011401566474 0
force Pt   0.000000968258421   0.000000000000000   0.005966787943672 0
force Pt  -0.000001552444094   0.000000000000000  -0.000223596984517 0
force Pt  -0.000011226149732   0.000393738046394   0.000124114177687 0
force Pt  -0.000011226149732  -0.000393738046394   0.000124114177687 0
force Pt  -0.000005569951711  -0.002582576758525  -0.000686840838465 0
force Pt  -0.000005569951711   0.002582576758525  -0.000686840838465 0
force C  -0.000062732558321   0.000000000000000  -0.000636089459899 1  Linear 0 0 1
force O   0.000144453099070   0.000000000000000   0.011870334252362 1  Linear 0 0 1

# Energy components:
   A_diel =       -0.0081430470705960
   Eewald =    35692.2553889970004093
       EH =    43489.6486211465889937
     Eloc =   -89082.5113051016960526
      Enl =      175.7551498800388003
     EvdW =       -1.0402013114770583
      Exc =    -1156.3904049122106699
 Exc_core =      272.3528780614574316
       KE =     2079.4378019518358087
-------------------------------------
     Etot =    -8530.5002143355286535
       TS =        0.0017909641216083
-------------------------------------
        F =    -8530.5020052996496815


Dumping 'jdft.fillings' ... done
Dumping 'jdft.wfns' ... done
Dumping 'jdft.fluidState' ... done
Dumping 'jdft.ionpos' ... done
Dumping 'jdft.lattice' ... done
Dumping 'jdft.eigenvals' ... done
Dumping 'jdft.eigStats' ... 
	eMin: -3.546849 at state 10 ( [ +0.500000 +0.000000 +0.000000 ] spin -1 )
	HOMO: -0.155605 at state 7 ( [ +0.000000 +0.333333 +0.000000 ] spin -1 )
	mu  : -0.155186
	LUMO: -0.153854 at state 5 ( [ +0.500000 +0.333333 +0.000000 ] spin 1 )
	eMax: +0.161172 at state 2 ( [ +0.250000 +0.000000 +0.000000 ] spin 1 )
	HOMO-LUMO gap: +0.001751
	Optical gap  : +0.001924 at state 5 ( [ +0.500000 +0.333333 +0.000000 ] spin 1 )
Dumping 'jdft.Ecomponents' ... done
IonicMinimize: Iter:   0  F: -8530.502005299649682  |grad|_K:  8.406e-03  t[s]:  23731.64

#--- Lowdin population analysis ---
# oxidation-state Ag +0.161 +0.163 +0.161 +0.163 +0.064 +0.063 +0.064 +0.063 +0.080 +0.082 +0.079 +0.082 -0.005 -0.005 -0.005 -0.005 +0.161 +0.163 +0.161 +0.163 +0.064 +0.063 +0.064 +0.063 +0.079 +0.079 +0.079 +0.079 +0.027 +0.022 +0.027 +0.022 +0.202 +0.204 -0.037 +0.208 +0.071 +0.071 +0.070 +0.070 +0.079 +0.079 +0.079 +0.079 +0.027 +0.022 +0.027 +0.022
# magnetic-moments Ag -0.000 -0.000 -0.000 -0.000 -0.000 -0.000 -0.000 -0.000 -0.000 -0.000 -0.000 -0.000 -0.000 -0.000 -0.000 -0.000 -0.000 -0.000 -0.000 -0.000 -0.000 -0.000 -0.000 -0.000 -0.000 -0.000 -0.000 -0.000 -0.000 -0.000 -0.000 -0.000 +0.000 -0.000 -0.000 +0.000 -0.000 -0.000 -0.000 -0.000 -0.000 -0.000 -0.000 -0.000 -0.000 -0.000 -0.000 -0.000
# oxidation-state Pt -0.311 -0.311 -0.311 -0.310 -0.221 -0.221 -0.221 -0.221 -0.228 -0.228 -0.224 -0.228 -0.164 -0.164 -0.171 -0.171
# magnetic-moments Pt -0.000 -0.000 +0.000 +0.000 -0.000 -0.000 -0.000 -0.000 +0.000 -0.000 -0.000 +0.000 -0.000 -0.000 +0.000 +0.000
# oxidation-state C +0.474
# magnetic-moments C +0.000
# oxidation-state O -0.062
# magnetic-moments O -0.000


Computing DFT-D3 correction:
# coordination-number Ag 5.530 5.530 5.530 5.530 9.271 9.271 9.271 9.271 9.346 9.346 9.346 9.346 8.458 8.458 8.458 8.458 5.530 5.530 5.530 5.530 9.271 9.271 9.271 9.271 9.371 9.371 9.371 9.371 8.571 8.569 8.571 8.569 5.426 5.424 6.429 5.424 9.384 9.384 9.384 9.384 9.371 9.371 9.371 9.371 8.571 8.569 8.571 8.569
[...]
# magnetic-moments Ag +0.000 -0.000 -0.000 -0.000 +0.000 -0.000 +0.000 +0.000 +0.000 -0.000 +0.000 -0.000 +0.000 +0.000 +0.000 +0.000 +0.000 -0.000 -0.000 -0.000 +0.000 -0.000 +0.000 +0.000 +0.000 +0.000 +0.000 +0.000 +0.000 +0.000 +0.000 +0.000 -0.000 +0.000 +0.000 +0.000 +0.000 +0.000 -0.000 -0.000 +0.000 +0.000 +0.000 +0.000 +0.000 +0.000 +0.000 +0.000
# oxidation-state Pt -0.311 -0.311 -0.311 -0.310 -0.221 -0.221 -0.221 -0.221 -0.228 -0.228 -0.223 -0.228 -0.164 -0.164 -0.171 -0.171
# magnetic-moments Pt +0.000 +0.000 +0.000 +0.000 -0.000 -0.000 -0.000 -0.000 -0.000 -0.000 -0.000 +0.000 -0.000 -0.000 -0.000 -0.000
# oxidation-state C +0.475
# magnetic-moments C +0.000
# oxidation-state O -0.059
# magnetic-moments O -0.000


Computing DFT-D3 correction:
# coordination-number Ag 5.530 5.530 5.530 5.530 9.271 9.271 9.271 9.271 9.346 9.346 9.346 9.346 8.458 8.458 8.458 8.458 5.530 5.530 5.530 5.530 9.271 9.271 9.271 9.271 9.371 9.371 9.371 9.371 8.571 8.569 8.571 8.569 5.426 5.424 6.412 5.424 9.384 9.384 9.384 9.384 9.371 9.371 9.371 9.371 8.571 8.569 8.571 8.569
# coordination-number Pt 8.246 8.246 8.246 8.246 8.973 8.973 8.973 8.973 8.926 8.925 8.926 8.925 5.743 5.743 5.750 5.750
# coordination-number C 1.999
# coordination-number O 1.020
# diagonal-C6 Ag 268.61 268.61 268.61 268.61 268.61 268.61 268.61 268.61 268.61 268.61 268.61 268.61 268.61 268.61 268.61 268.61 268.61 268.61 268.61 268.61 268.61 268.61 268.61 268.61 268.61 268.61 268.61 268.61 268.61 268.61 268.61 268.61 268.61 268.61 268.61 268.61 268.61 268.61 268.61 268.61 268.61 268.61 268.61 268.61 268.61 268.61 268.61 268.61
# diagonal-C6 Pt 336.87 336.87 336.87 336.87 336.87 336.87 336.87 336.87 336.87 336.87 336.87 336.87 336.87 336.87 336.87 336.87
# diagonal-C6 C 29.49
# diagonal-C6 O 12.79
EvdW_6 =   -0.425950
EvdW_8 =   -0.613955

-------- Electronic minimization -----------
	Linear fluid (dielectric constant: 78.4, screening length: 8.12261 Bohr) occupying 0.423575 of unit cell:	Completed after 8 iterations at t[s]:  60705.21
	FillingsUpdate:  mu: -0.154785305  nElectrons: 1178.000000  magneticMoment: [ Abs: 0.00000  Tot: +0.00000 ]
ElecMinimize: Iter:   0  F: -8530.502720287937336  |grad|_K:  1.310e-07  alpha:  1.000e+00
	Linear fluid (dielectric constant: 78.4, screening length: 8.12261 Bohr) occupying 0.423563 of unit cell:	Completed after 15 iterations at t[s]:  60996.68
	Linear fluid (dielectric constant: 78.4, screening length: 8.12261 Bohr) occupying 0.423573 of unit cell:	Completed after 15 iterations at t[s]:  61095.03
	FillingsUpdate:  mu: -0.155080118  nElectrons: 1178.000000  magneticMoment: [ Abs: 0.00000  Tot: -0.00000 ]
	SubspaceRotationAdjust: set factor to 0.215
ElecMinimize: Iter:   1  F: -8530.502722077842918  |grad|_K:  4.780e-08  alpha:  1.662e-01  linmin:  9.343e-05  t[s]:  61225.03
	Linear fluid (dielectric constant: 78.4, screening length: 8.12261 Bohr) occupying 0.423573 of unit cell:	Completed after 2 iterations at t[s]:  61362.77
	Linear fluid (dielectric constant: 78.4, screening length: 8.12261 Bohr) occupying 0.423574 of unit cell:	Completed after 2 iterations at t[s]:  61456.55
	FillingsUpdate:  mu: -0.155021120  nElectrons: 1178.000000  magneticMoment: [ Abs: 0.00000  Tot: +0.00000 ]
	SubspaceRotationAdjust: set factor to 0.317
ElecMinimize: Iter:   2  F: -8530.502722572035054  |grad|_K:  2.282e-08  alpha:  3.321e-01  linmin: -8.914e-04  t[s]:  61585.95
	Linear fluid (dielectric constant: 78.4, screening length: 8.12261 Bohr) occupying 0.423574 of unit cell:	Completed after 2 iterations at t[s]:  61724.34
	Linear fluid (dielectric constant: 78.4, screening length: 8.12261 Bohr) occupying 0.423574 of unit cell:	Completed after 0 iterations at t[s]:  61817.10
	FillingsUpdate:  mu: -0.155002146  nElectrons: 1178.000000  magneticMoment: [ Abs: 0.00000  Tot: -0.00000 ]
	SubspaceRotationAdjust: set factor to 0.343
ElecMinimize: Iter:   3  F: -8530.502722704119151  |grad|_K:  1.750e-08  alpha:  3.730e-01  linmin: -1.128e-03  t[s]:  61946.74
	Linear fluid (dielectric constant: 78.4, screening length: 8.12261 Bohr) occupying 0.423574 of unit cell:	Completed after 1 iterations at t[s]:  62084.62
	Linear fluid (dielectric constant: 78.4, screening length: 8.12261 Bohr) occupying 0.423574 of unit cell:	Completed after 1 iterations at t[s]:  62177.81
	FillingsUpdate:  mu: -0.155012744  nElectrons: 1178.000000  magneticMoment: [ Abs: 0.00000  Tot: -0.00000 ]
	SubspaceRotationAdjust: set factor to 0.451
ElecMinimize: Iter:   4  F: -8530.502722828590777  |grad|_K:  1.577e-08  alpha:  6.013e-01  linmin: -9.130e-05  t[s]:  62306.40
	Linear fluid (dielectric constant: 78.4, screening length: 8.12261 Bohr) occupying 0.423575 of unit cell:	Completed after 2 iterations at t[s]:  62444.93
	Linear fluid (dielectric constant: 78.4, screening length: 8.12261 Bohr) occupying 0.423574 of unit cell:	Completed after 0 iterations at t[s]:  62536.94
	FillingsUpdate:  mu: -0.155026409  nElectrons: 1178.000000  magneticMoment: [ Abs: 0.00000  Tot: -0.00000 ]
	SubspaceRotationAdjust: set factor to 0.501
ElecMinimize: Iter:   5  F: -8530.502722896797422  |grad|_K:  1.583e-08  alpha:  4.347e-01  linmin:  1.268e-04  t[s]:  62665.55
	Linear fluid (dielectric constant: 78.4, screening length: 8.12261 Bohr) occupying 0.423575 of unit cell:	Completed after 3 iterations at t[s]:  62804.10
	Linear fluid (dielectric constant: 78.4, screening length: 8.12261 Bohr) occupying 0.423575 of unit cell:	Completed after 0 iterations at t[s]:  62896.84
	FillingsUpdate:  mu: -0.154992594  nElectrons: 1178.000000  magneticMoment: [ Abs: 0.00000  Tot: -0.00000 ]
	SubspaceRotationAdjust: set factor to 0.386
ElecMinimize: Iter:   6  F: -8530.502722942404944  |grad|_K:  1.787e-08  alpha:  2.397e-01  linmin:  1.016e-03  t[s]:  63025.46
ElecMinimize: Converged (|Delta F|<1.000000e-07 for 2 iters).
Setting wave functions to eigenvectors of Hamiltonian
Converging empty states (this may take a while): |deigs|: 9.763e-10

Computing DFT-D3 correction:
# coordination-number Ag 5.530 5.530 5.530 5.530 9.271 9.271 9.271 9.271 9.346 9.346 9.346 9.346 8.458 8.458 8.458 8.458 5.530 5.530 5.530 5.530 9.271 9.271 9.271 9.271 9.371 9.371 9.371 9.371 8.571 8.569 8.571 8.569 5.426 5.424 6.412 5.424 9.384 9.384 9.384 9.384 9.371 9.371 9.371 9.371 8.571 8.569 8.571 8.569
# coordination-number Pt 8.246 8.246 8.246 8.246 8.973 8.973 8.973 8.973 8.926 8.925 8.926 8.925 5.743 5.743 5.750 5.750
# coordination-number C 1.999
# coordination-number O 1.020
# diagonal-C6 Ag 268.61 268.61 268.61 268.61 268.61 268.61 268.61 268.61 268.61 268.61 268.61 268.61 268.61 268.61 268.61 268.61 268.61 268.61 268.61 268.61 268.61 268.61 268.61 268.61 268.61 268.61 268.61 268.61 268.61 268.61 268.61 268.61 268.61 268.61 268.61 268.61 268.61 268.61 268.61 268.61 268.61 268.61 268.61 268.61 268.61 268.61 268.61 268.61
# diagonal-C6 Pt 336.87 336.87 336.87 336.87 336.87 336.87 336.87 336.87 336.87 336.87 336.87 336.87 336.87 336.87 336.87 336.87
# diagonal-C6 C 29.49
# diagonal-C6 O 12.79
EvdW_6 =   -0.425950
EvdW_8 =   -0.613955

# Ionic positions in cartesian coordinates:
ion Ag   3.787148999999999   2.725241287878786   1.237413000000000 0
ion Ag   3.787148999999999  13.436915787878787   1.237413000000000 0
ion Ag  11.361447000000000   2.725241287878786   1.237413000000000 0
ion Ag  11.361447000000000  13.436915787878787   1.237413000000000 0
ion Ag   3.787148999999999   8.038574787878787   6.660413000000000 0
ion Ag   3.787148999999999  18.750227787878789   6.660413000000000 0
ion Ag  11.361447000000000   8.038574787878787   6.660413000000000 0
ion Ag  11.361447000000000  18.750227787878789   6.660413000000000 0
ion Ag   0.000000000000000   5.355835787878785   9.413526999999998 0
ion Ag   0.000000000000000  16.067510287878786   9.413526999999998 0
ion Ag   7.574297999999999   5.355835787878785   9.413526999999998 0
ion Ag   7.574297999999999  16.067510287878786   9.413526999999998 0
ion Ag   0.000000000000000  -0.000001212121213   3.864076000000000 0
ion Ag   0.000000000000000  10.711672787878785   3.864076000000000 0
ion Ag   7.574297999999999  -0.000001212121213   3.864076000000000 0
ion Ag   7.574297999999999  10.711672787878785   3.864076000000000 0
ion Ag   3.787148999999999   7.986430287878784   1.237413000000000 0
ion Ag   3.787148999999999  18.698104787878787   1.237413000000000 0
ion Ag  11.361447000000000   7.986430287878784   1.237413000000000 0
ion Ag  11.361447000000000  18.698104787878787   1.237413000000000 0
ion Ag   3.787148999999999   2.673096787878786   6.660413000000000 0
ion Ag   3.787148999999999  13.384792787878787   6.660413000000000 0
ion Ag  11.361447000000000   2.673096787878786   6.660413000000000 0
ion Ag  11.361447000000000  13.384792787878787   6.660413000000000 0
ion Ag   3.787148999999999   2.682694787878786  12.076021000000001 0
ion Ag   3.787148999999999  13.394368787878790  12.076021000000001 0
ion Ag  11.361447000000000   2.682694787878786  12.076021000000001 0
ion Ag  11.361447000000000  13.394368787878790  12.076021000000001 0
ion Ag   3.787148999999999   8.000323287878784  17.563452000000002 0
ion Ag   3.787148999999999  18.711997787878786  17.563452000000002 0
ion Ag  11.361447000000000   8.000323287878784  17.563452000000002 0
ion Ag  11.361447000000000  18.711997787878786  17.563452000000002 0
ion Ag   0.000000000000000   5.355835787878785  20.280093000000001 0
ion Ag   0.000000000000000  16.067510287878786  20.280093000000001 0
ion Ag   7.574297999999999   5.355835787878785  20.280093000000001 0
ion Ag   7.574297999999999  16.067510287878786  20.280093000000001 0
ion Ag   0.000000000000000  -0.000001212121213  14.712647000000000 0
ion Ag   0.000000000000000  10.711672787878785  14.712647000000000 0
ion Ag   7.574297999999999  -0.000001212121213  14.712647000000000 0
ion Ag   7.574297999999999  10.711672787878785  14.712647000000000 0
ion Ag   3.787148999999999   8.028976787878785  12.076021000000001 0
ion Ag   3.787148999999999  18.740651787878786  12.076021000000001 0
ion Ag  11.361447000000000   8.028976787878785  12.076021000000001 0
ion Ag  11.361447000000000  18.740651787878786  12.076021000000001 0
ion Ag   3.787148999999999   2.711348287878786  17.563452000000002 0
ion Ag   3.787148999999999  13.423022787878784  17.563452000000002 0
ion Ag  11.361447000000000   2.711348287878786  17.563452000000002 0
ion Ag  11.361447000000000  13.423022787878784  17.563452000000002 0
ion Pt   0.000000000000000   5.355835787878785   3.956249999999999 0
ion Pt   0.000000000000000  16.067510287878786   3.956249999999999 0
ion Pt   7.574297999999999   5.355835787878785   3.956249999999999 0
ion Pt   7.574297999999999  16.067510287878786   3.956249999999999 0
ion Pt   0.000000000000000  -0.000001212121213   9.374912000000000 0
ion Pt   0.000000000000000  10.711672787878785   9.374912000000000 0
ion Pt   7.574297999999999  -0.000001212121213   9.374912000000000 0
ion Pt   7.574297999999999  10.711672787878785   9.374912000000000 0
ion Pt   0.000000000000000   5.355835787878785  14.805410000000000 0
ion Pt   0.000000000000000  16.067510287878786  14.805410000000000 0
ion Pt   7.574297999999999   5.355835787878785  14.805410000000000 0
ion Pt   7.574297999999999  16.067510287878786  14.805410000000000 0
ion Pt   0.000000000000000  -0.000001212121213  19.905184999999999 0
ion Pt   0.000000000000000  10.711672787878785  19.905184999999999 0
ion Pt   7.574297999999999  -0.000001212121213  19.905184999999999 0
ion Pt   7.574297999999999  10.711672787878785  19.905184999999999 0
ion C   7.574297999999999   5.355835787878785  24.191968454070775 1  Linear 0 0 1
ion O   7.634392999999999   5.355835787878785  26.354230168488712 1  Linear 0 0 1

# Forces in Cartesian coordinates:
force Ag   0.000005489266273   0.000123767008036  -0.000231300999244 0
force Ag   0.000040680920344  -0.000036403108881  -0.000137088368726 0
force Ag  -0.000002802015281   0.000121873030533  -0.000232301736358 0
force Ag  -0.000035237154559  -0.000038888274423  -0.000135704415558 0
force Ag  -0.000006823761290   0.000101025938971  -0.000085453271238 0
force Ag   0.000058079751294   0.000179194907856  -0.000169571343392 0
force Ag  -0.000009381918924   0.000101847447088  -0.000087347256908 0
force Ag  -0.000068005762791   0.000179292979632  -0.000167960443044 0
force Ag  -0.000002800476275   0.000000000000000  -0.000329215650940 0
force Ag   0.000005038349034   0.000000000000000  -0.000227177551345 0
force Ag  -0.000000906371740   0.000000000000000  -0.000558020518179 0
force Ag   0.000006627828336   0.000000000000000  -0.000159507345823 0
force Ag  -0.000012212259728   0.000015750284022  -0.000134217168547 0
force Ag  -0.000012212259728  -0.000015750284022  -0.000134217168547 0
force Ag  -0.000010559453659  -0.000019086009384  -0.000205634280036 0
force Ag  -0.000010559453659   0.000019086009384  -0.000205634280036 0
force Ag   0.000005489266273  -0.000123767008036  -0.000231300999244 0
force Ag   0.000040680920344   0.000036403108881  -0.000137088368726 0
force Ag  -0.000002802015281  -0.000121873030533  -0.000232301736358 0
force Ag  -0.000035237154559   0.000038888274423  -0.000135704415558 0
force Ag  -0.000006823761290  -0.000101025938971  -0.000085453271238 0
force Ag   0.000058079751294  -0.000179194907856  -0.000169571343392 0
force Ag  -0.000009381918924  -0.000101847447088  -0.000087347256908 0
force Ag  -0.000068005762791  -0.000179292979632  -0.000167960443044 0
force Ag  -0.000027859109787   0.000062868112293  -0.000177432090375 0
force Ag  -0.000050239835796  -0.000008868071030  -0.000124364825012 0
force Ag   0.000025291074029   0.000062833591558  -0.000183990494057 0
force Ag   0.000040307633709  -0.000008450301314  -0.000126138164735 0
force Ag  -0.000690649982398   0.000645538632641  -0.000743474638678 0
force Ag  -0.000000469816884   0.000121894217357   0.000076727565887 0
force Ag   0.000659422909915   0.000615400013688  -0.000698942905863 0
force Ag  -0.000006937362197   0.000122897465879   0.000071668661415 0
force Ag  -0.000017068453821   0.000000000000000  -0.000287798491695 0
force Ag  -0.000006106879015   0.000000000000000  -0.000236564917431 0
force Ag  -0.000098269667205   0.000000000000000  -0.000039911823453 0
force Ag  -0.000008697274272   0.000000000000000  -0.000567830117505 0
force Ag  -0.000012099927451  -0.000069350644714  -0.000279632141938 0
force Ag  -0.000012099927451   0.000069350644714  -0.000279632141938 0
force Ag  -0.000008228012860  -0.000177075997111  -0.000220529270764 0
force Ag  -0.000008228012860   0.000177075997111  -0.000220529270764 0
force Ag  -0.000027859109787  -0.000062868112293  -0.000177432090375 0
force Ag  -0.000050239835796   0.000008868071030  -0.000124364825012 0
force Ag   0.000025291074029  -0.000062833591558  -0.000183990494057 0
force Ag   0.000040307633709   0.000008450301314  -0.000126138164735 0
force Ag  -0.000690649982398  -0.000645538632641  -0.000743474638678 0
force Ag  -0.000000469816884  -0.000121894217357   0.000076727565887 0
force Ag   0.000659422909915  -0.000615400013688  -0.000698942905863 0
force Ag  -0.000006937362197  -0.000122897465879   0.000071668661415 0
force Pt  -0.000003634755952   0.000000000000000  -0.000264702616451 0
force Pt  -0.000005098368925   0.000000000000000  -0.000103283521175 0
force Pt  -0.000003317227545   0.000000000000000  -0.000582366659756 0
force Pt  -0.000005477095964   0.000000000000000   0.000109428338345 0
force Pt   0.000003476094446  -0.000029431615756   0.000147376477385 0
force Pt   0.000003476094446   0.000029431615756   0.000147376477385 0
force Pt   0.000007724111479   0.000175836406164  -0.000163656960222 0
force Pt   0.000007724111479  -0.000175836406164  -0.000163656960222 0
force Pt   0.000022492464154   0.000000000000000  -0.000156216964323 0
force Pt  -0.000001723393392   0.000000000000000  -0.000195618256798 0
force Pt  -0.000002246278276   0.000000000000000   0.005358709117778 0
force Pt  -0.000001645105873   0.000000000000000  -0.000469420046438 0
force Pt  -0.000011179421004   0.000305116314582   0.000130729081700 0
force Pt  -0.000011179421004  -0.000305116314582   0.000130729081700 0
force Pt  -0.000006214232730  -0.002619066194669  -0.000721467090998 0
force Pt  -0.000006214232730   0.002619066194669  -0.000721467090998 0
force C   0.000167188450163   0.000000000000000   0.000142715068833 1  Linear 0 0 1
force O  -0.000117875244186   0.000000000000000   0.000120587468629 1  Linear 0 0 1

# Energy components:
   A_diel =       -0.0079847958744296
   Eewald =    35678.1080304799033911
       EH =    43475.9603813590219943
     Eloc =   -89054.6631503397657070
      Enl =      175.7607316284860985
     EvdW =       -1.0399050435188482
      Exc =    -1156.3793695145025140
 Exc_core =      272.3528790798197292
       KE =     2079.4074538505838063
-------------------------------------
     Etot =    -8530.5009332958507002
       TS =        0.0017896465536407
-------------------------------------
        F =    -8530.5027229424049438


Dumping 'jdft.fillings' ... done
Dumping 'jdft.wfns' ... done
Dumping 'jdft.fluidState' ... done
Dumping 'jdft.ionpos' ... done
Dumping 'jdft.lattice' ... done
Dumping 'jdft.eigenvals' ... done
Dumping 'jdft.eigStats' ... 
	eMin: -3.540455 at state 10 ( [ +0.500000 +0.000000 +0.000000 ] spin -1 )
	HOMO: -0.155249 at state 7 ( [ +0.000000 +0.333333 +0.000000 ] spin -1 )
	mu  : -0.154993
	LUMO: -0.153687 at state 11 ( [ +0.500000 +0.333333 +0.000000 ] spin -1 )
	eMax: +0.161162 at state 2 ( [ +0.250000 +0.000000 +0.000000 ] spin 1 )
	HOMO-LUMO gap: +0.001561
	Optical gap  : +0.001885 at state 11 ( [ +0.500000 +0.333333 +0.000000 ] spin -1 )
Dumping 'jdft.Ecomponents' ... done
IonicMinimize: Iter:   8  F: -8530.502722942404944  |grad|_K:  1.321e-04  alpha:  1.000e+00  linmin:  2.560e-02  t[s]:  63412.65
IonicMinimize: Converged (|Delta F|<1.000000e-06 for 2 iters).

#--- Lowdin population analysis ---
# oxidation-state Ag +0.160 +0.163 +0.160 +0.163 +0.064 +0.063 +0.064 +0.063 +0.081 +0.082 +0.079 +0.082 -0.005 -0.005 -0.005 -0.005 +0.160 +0.163 +0.160 +0.163 +0.064 +0.063 +0.064 +0.063 +0.079 +0.079 +0.079 +0.079 +0.027 +0.022 +0.027 +0.022 +0.201 +0.204 -0.036 +0.207 +0.071 +0.071 +0.070 +0.070 +0.079 +0.079 +0.079 +0.079 +0.027 +0.022 +0.027 +0.022
# magnetic-moments Ag +0.000 -0.000 +0.000 +0.000 +0.000 +0.000 +0.000 +0.000 +0.000 -0.000 +0.000 -0.000 -0.000 -0.000 +0.000 +0.000 +0.000 -0.000 +0.000 +0.000 +0.000 +0.000 +0.000 +0.000 -0.000 +0.000 -0.000 +0.000 +0.000 -0.000 +0.000 -0.000 -0.000 +0.000 -0.000 +0.000 -0.000 -0.000 +0.000 +0.000 -0.000 +0.000 -0.000 +0.000 +0.000 -0.000 +0.000 -0.000
# oxidation-state Pt -0.311 -0.311 -0.311 -0.310 -0.220 -0.220 -0.220 -0.220 -0.228 -0.228 -0.223 -0.228 -0.165 -0.165 -0.172 -0.172
# magnetic-moments Pt -0.000 -0.000 -0.000 +0.000 +0.000 +0.000 -0.000 -0.000 +0.000 -0.000 -0.000 -0.000 -0.000 -0.000 -0.000 -0.000
# oxidation-state C +0.475
# magnetic-moments C -0.000
# oxidation-state O -0.060
# magnetic-moments O +0.000


Dumping 'jdft.n_up' ... done
Dumping 'jdft.n_dn' ... done
Dumping 'jdft.tau_up' ... done
Dumping 'jdft.tau_dn' ... done
Dumping 'jdft.eigenvals' ... done
Dumping 'jdft.eigStats' ... 
	eMin: -3.540455 at state 10 ( [ +0.500000 +0.000000 +0.000000 ] spin -1 )
	HOMO: -0.155249 at state 7 ( [ +0.000000 +0.333333 +0.000000 ] spin -1 )
	mu  : -0.154993
	LUMO: -0.153687 at state 11 ( [ +0.500000 +0.333333 +0.000000 ] spin -1 )
	eMax: +0.161162 at state 2 ( [ +0.250000 +0.000000 +0.000000 ] spin 1 )
	HOMO-LUMO gap: +0.001561
	Optical gap  : +0.001885 at state 11 ( [ +0.500000 +0.333333 +0.000000 ] spin -1 )
Dumping 'jdft.kPts' ... done
Dumping 'jdft.kMap' ... done
Dumping 'jdft.dosUp' ... done.
Dumping 'jdft.dosDn' ... done.
End date and time: Sat Mar  5 00:28:13 2022  (Duration: 0-17:40:09.69)
Done!
