
*************** JDFTx 1.6.0  ***************

Start date and time: Mon Dec  6 16:02:06 2021
Executable /projects/musgravc/apps/jdftx-1.6.1/build/jdftx with command-line: -i in
Running on hosts (process indices):  shas0620.rc.int.colorado.edu (0-23)
Divided in process groups (process indices):  0 (0)  1 (1)  2 (2)  3 (3)  4 (4)  5 (5)  6 (6)  7 (7)  8 (8)  9 (9)  10 (10)  11 (11)  12 (12)  13 (13)  14 (14)  15 (15)  16 (16)  17 (17)  18 (18)  19 (19)  20 (20)  21 (21)  22 (22)  23 (23)
Resource initialization completed at t[s]:      0.01
Run totals: 24 processes, 24 threads, 0 GPUs


Input parsed successfully to the following command list (including defaults):

basis kpoint-dependent
converge-empty-states yes
coords-type Cartesian
core-overlap-check none
coulomb-interaction Periodic
davidson-band-ratio 1.1
density-of-states Etol 1.000000e-06 Esigma 1.000000e-03 \
		Complete \
	Total \
	OrthoOrbital Cu 1   s \
	OrthoOrbital Cu 1   p \
	OrthoOrbital Cu 1   px \
	OrthoOrbital Cu 1   py \
	OrthoOrbital Cu 1   pz \
	OrthoOrbital Cu 1   d \
	OrthoOrbital Cu 1   dxy \
	OrthoOrbital Cu 1   dyz \
	OrthoOrbital Cu 1   dz2 \
	OrthoOrbital Cu 1   dxz \
	OrthoOrbital Cu 1   dx2-y2 \
	OrthoOrbital Cu 2   s \
	OrthoOrbital Cu 2   p \
	OrthoOrbital Cu 2   px \
	OrthoOrbital Cu 2   py \
	OrthoOrbital Cu 2   pz \
	OrthoOrbital Cu 2   d \
	OrthoOrbital Cu 2   dxy \
	OrthoOrbital Cu 2   dyz \
	OrthoOrbital Cu 2   dz2 \
	OrthoOrbital Cu 2   dxz \
	OrthoOrbital Cu 2   dx2-y2 \
	OrthoOrbital Cu 3   s \
	OrthoOrbital Cu 3   p \
	OrthoOrbital Cu 3   px \
	OrthoOrbital Cu 3   py \
	OrthoOrbital Cu 3   pz \
	OrthoOrbital Cu 3   d \
	OrthoOrbital Cu 3   dxy \
	OrthoOrbital Cu 3   dyz \
	OrthoOrbital Cu 3   dz2 \
	OrthoOrbital Cu 3   dxz \
	OrthoOrbital Cu 3   dx2-y2 \
	OrthoOrbital Cu 4   s \
	OrthoOrbital Cu 4   p \
	OrthoOrbital Cu 4   px \
	OrthoOrbital Cu 4   py \
	OrthoOrbital Cu 4   pz \
	OrthoOrbital Cu 4   d \
	OrthoOrbital Cu 4   dxy \
	OrthoOrbital Cu 4   dyz \
	OrthoOrbital Cu 4   dz2 \
	OrthoOrbital Cu 4   dxz \
	OrthoOrbital Cu 4   dx2-y2 \
	OrthoOrbital Cu 5   s \
	OrthoOrbital Cu 5   p \
	OrthoOrbital Cu 5   px \
	OrthoOrbital Cu 5   py \
	OrthoOrbital Cu 5   pz \
	OrthoOrbital Cu 5   d \
	OrthoOrbital Cu 5   dxy \
	OrthoOrbital Cu 5   dyz \
	OrthoOrbital Cu 5   dz2 \
	OrthoOrbital Cu 5   dxz \
	OrthoOrbital Cu 5   dx2-y2 \
	OrthoOrbital Cu 6   s \
	OrthoOrbital Cu 6   p \
	OrthoOrbital Cu 6   px \
	OrthoOrbital Cu 6   py \
	OrthoOrbital Cu 6   pz \
	OrthoOrbital Cu 6   d \
	OrthoOrbital Cu 6   dxy \
	OrthoOrbital Cu 6   dyz \
	OrthoOrbital Cu 6   dz2 \
	OrthoOrbital Cu 6   dxz \
	OrthoOrbital Cu 6   dx2-y2
dump End ElecDensity KEdensity BandEigs EigStats RhoAtom DOS Kpoints
dump Ionic State IonicPositions Lattice EigStats Ecomponents
dump 
dump 
dump 
dump 
dump 
dump 
dump 
dump 
dump-name jdft.$VAR
elec-cutoff 20
elec-eigen-algo Davidson
elec-ex-corr gga-PBE
elec-initial-magnetization 0.000000 no
elec-n-bands 69
elec-smearing Fermi 0.001
electronic-minimize  \
	dirUpdateScheme      FletcherReeves \
	linminMethod         DirUpdateRecommended \
	nIterations          100 \
	history              15 \
	knormThreshold       0 \
	energyDiffThreshold  1e-07 \
	nEnergyDiff          2 \
	alphaTstart          1 \
	alphaTmin            1e-10 \
	updateTestStepSize   yes \
	alphaTreduceFactor   0.1 \
	alphaTincreaseFactor 3 \
	nAlphaAdjustMax      3 \
	wolfeEnergy          0.0001 \
	wolfeGradient        0.9 \
	fdTest               no
exchange-regularization WignerSeitzTruncated
fluid LinearPCM 298.000000 1.013250
fluid-anion F- 0.5 MeanFieldLJ \
	epsBulk 1 \
	pMol 0 \
	epsInf 1 \
	Pvap 0 \
	sigmaBulk 0 \
	Rvdw 2.24877 \
	Res 0 \
	tauNuc 343133
fluid-cation Na+ 0.5 MeanFieldLJ \
	epsBulk 1 \
	pMol 0 \
	epsInf 1 \
	Pvap 0 \
	sigmaBulk 0 \
	Rvdw 2.19208 \
	Res 0 \
	tauNuc 343133
fluid-ex-corr lda-TF lda-PZ
fluid-gummel-loop 10 1.000000e-05
fluid-minimize  \
	dirUpdateScheme      PolakRibiere \
	linminMethod         DirUpdateRecommended \
	nIterations          400 \
	history              15 \
	knormThreshold       1e-11 \
	energyDiffThreshold  0 \
	nEnergyDiff          2 \
	alphaTstart          1 \
	alphaTmin            1e-10 \
	updateTestStepSize   yes \
	alphaTreduceFactor   0.1 \
	alphaTincreaseFactor 3 \
	nAlphaAdjustMax      6 \
	wolfeEnergy          0.0001 \
	wolfeGradient        0.9 \
	fdTest               no
fluid-solvent H2O 55.338 ScalarEOS \
	epsBulk 78.4 \
	pMol 0.92466 \
	epsInf 1.77 \
	Pvap 1.06736e-10 \
	sigmaBulk 4.62e-05 \
	Rvdw 2.61727 \
	Res 1.42 \
	tauNuc 343133 \
	poleEl 15 7 1
forces-output-coords Positions
ion Cu  -0.000002000000000   2.752013000000000   1.945946000000000 1
ion Cu   2.383311000000000   4.128017999999999   9.729848999999998 1
ion Cu   2.383313999999999   1.376005000000000   5.837898000000000 1
ion Cu  -0.000002000000000   2.752013000000000  13.621741999999999 1
ion Cu   2.383311000000000   4.128017999999999  21.405643999999999 1
ion Cu   2.383313999999999   1.376005000000000  17.513693000000000 1
ion-species /projects/musgravc/apps/jdftx-1.6.0/build/pseudopotentials/GBRV_v1.5/$ID_pbe_v1.uspp
ion-species /projects/musgravc/apps/jdftx-1.6.0/build/pseudopotentials/GBRV_v1.5/$ID_pbe_v1.2.uspp
ion-species /projects/musgravc/apps/jdftx-1.6.0/build/pseudopotentials/GBRV_v1.5/$ID_pbe_v1.4.uspp
ion-species /projects/musgravc/apps/jdftx-1.6.0/build/pseudopotentials/GBRV_v1.5/$ID_pbe_v1.5.uspp
ion-width Ecut
ionic-minimize  \
	dirUpdateScheme      L-BFGS \
	linminMethod         DirUpdateRecommended \
	nIterations          100 \
	history              15 \
	knormThreshold       0.0001 \
	energyDiffThreshold  1e-06 \
	nEnergyDiff          2 \
	alphaTstart          1 \
	alphaTmin            1e-10 \
	updateTestStepSize   yes \
	alphaTreduceFactor   0.1 \
	alphaTincreaseFactor 3 \
	nAlphaAdjustMax      3 \
	wolfeEnergy          0.0001 \
	wolfeGradient        0.9 \
	fdTest               no
kpoint   0.000000000000   0.000000000000   0.000000000000  1.00000000000000
kpoint-folding 12 12 1 
latt-move-scale 0 0 0
latt-scale 1 1 1 
lattice  \
	   4.766623000000000   -2.383311000000000    0.000000000000000  \
	   0.000000000000000    4.128018000000000    0.000000000000000  \
	   0.000000000000000    0.000000000000000   58.378976999999999 
lattice-minimize  \
	dirUpdateScheme      L-BFGS \
	linminMethod         DirUpdateRecommended \
	nIterations          0 \
	history              15 \
	knormThreshold       0 \
	energyDiffThreshold  1e-06 \
	nEnergyDiff          2 \
	alphaTstart          1 \
	alphaTmin            1e-10 \
	updateTestStepSize   yes \
	alphaTreduceFactor   0.1 \
	alphaTincreaseFactor 3 \
	nAlphaAdjustMax      3 \
	wolfeEnergy          0.0001 \
	wolfeGradient        0.9 \
	fdTest               no
lcao-params 30 1e-06 0.001
pcm-variant CANDLE
spintype z-spin
subspace-rotation-factor 1 yes
symmetries none
symmetry-threshold 0.0001
target-mu -0.1713 no

van-der-waals D3


Applied RMS atom displacement 0 bohrs to make symmetries exact.

---------- Initializing the Grid ----------
R = 
[      4.76662     -2.38331            0  ]
[            0      4.12802            0  ]
[            0            0       58.379  ]
unit cell volume = 1148.71
G =
[    1.31816   0.761041         -0  ]
[          0    1.52208          0  ]
[          0         -0   0.107628  ]
Minimum fftbox size, Smin = [  20  20  236  ]
Chosen fftbox size, S = [  20  20  240  ]

---------- Exchange Correlation functional ----------
Initalized PBE GGA exchange.
Initalized PBE GGA correlation.

---------- Setting up pseudopotentials ----------
Width of ionic core gaussian charges (only for fluid interactions / plotting) set to 0.397384

Reading pseudopotential file '/projects/musgravc/apps/jdftx-1.6.0/build/pseudopotentials/GBRV_v1.5/cu_pbe_v1.2.uspp':
  Title: Cu.  Created by USPP 7.3.6 on 3-2-2014
  Reference state energy: -201.059491.  19 valence electrons in orbitals:
    |300>  occupation: 2  eigenvalue: -5.020764
    |310>  occupation: 6  eigenvalue: -3.445588
    |320>  occupation: 8  eigenvalue: -0.925168
    |400>  occupation: 2  eigenvalue: -0.567638
    |410>  occupation: 0  eigenvalue: -0.326154
  lMax: 2  lLocal: 3  QijEcut: 6
  6 projectors sampled on a log grid with 613 points:
    l: 0  eig: -5.020767  rCut: 1.4
    l: 0  eig: -0.567640  rCut: 1.4
    l: 1  eig: -3.445589  rCut: 1.55
    l: 1  eig: -0.326157  rCut: 1.55
    l: 2  eig: -0.925170  rCut: 1.5
    l: 2  eig: 1.500000  rCut: 1.5
  Partial core density with radius 0.8
  Transforming core density to a uniform radial grid of dG=0.02 with 1473 points.
  Transforming local potential to a uniform radial grid of dG=0.02 with 1473 points.
  Transforming nonlocal projectors to a uniform radial grid of dG=0.02 with 432 points.
  Transforming density augmentations to a uniform radial grid of dG=0.02 with 1473 points.
  Transforming atomic orbitals to a uniform radial grid of dG=0.02 with 432 points.
  Core radius for overlap checks: 1.55 bohrs.

Initialized 1 species with 6 total atoms.

Folded 1 k-points by 12x12x1 to 144 k-points.

---------- Setting up k-points, bands, fillings ----------
No reducable k-points. 
Computing the number of bands and number of electrons
Calculating initial fillings.
nElectrons: 114.000000   nBands: 69   nStates: 288

----- Setting up reduced wavefunction bases (one per k-point) -----
average nbasis = 4908.354 , ideal nbasis = 4907.359

----- Initializing Supercell corresponding to k-point mesh -----
Lattice vector linear combinations in supercell:
[  12   0   0  ]
[   0  12   0  ]
[   0   0   1  ]
Supercell lattice vectors:
[  57.1995  -28.5997  0  ]
[  0  49.5362  0  ]
[  0  0  58.379  ]

Initializing DFT-D3 calculator:
	Parameters set for gga-PBE functional
	s6:  1.000  s_r6:  1.217
	s8:  0.722  s_r8:  1.000
	Per-atom parameters loaded for:
	Cu:  sqrtQ[a0]:  5.226  Rcov[a0]:  1.909  CN: [ 0.00 0.96 ]

Initializing DFT-D2 calculator for fluid / solvation:
	Cu:  C6:  187.33 Eh-a0^6  R0: 2.952 a0

---------- Setting up ewald sum ----------
Optimum gaussian width for ewald sums = 3.099473 bohr.
Real space sum over 1805 unit cells with max indices [  9  9  2  ]
Reciprocal space sum over 4941 terms with max indices [  4  4  30  ]

Computing DFT-D3 correction:
# coordination-number Cu 6.833 9.159 9.149 9.159 6.833 9.149
# diagonal-C6 Cu 175.00 175.00 175.00 175.00 175.00 175.00
EvdW_6 =   -0.037110
EvdW_8 =   -0.054747

---------- Allocating electronic variables ----------
Initializing wave functions:  linear combination of atomic orbitals
Cu pseudo-atom occupations:   s ( 2 1 )  p ( 6 0 )  d ( 10 )
	FillingsUpdate:  mu: -0.171300000  nElectrons: 114.000000  magneticMoment: [ Abs: 0.08925  Tot: +0.00635 ]
LCAOMinimize: Iter:   0  G: -1151.2916888325075888  |grad|_K:  3.718e-02  alpha:  1.000e+00
LCAOMinimize: 	Step increased G by 3.797845e+02, reducing alpha to 4.316896e-02.
LCAOMinimize: 	Step increased G by 6.669108e+01, reducing alpha to 4.316896e-03.
	FillingsUpdate:  mu: -0.171300000  nElectrons: 114.000000  magneticMoment: [ Abs: 0.08942  Tot: -0.00343 ]
LCAOMinimize: Iter:   1  G: -1159.7948149357628154  |grad|_K:  1.562e-02  alpha:  4.317e-03  linmin: -1.595e-01  cgtest:  7.156e-01  t[s]:     24.69
LCAOMinimize: Encountered beta<0, resetting CG.
	FillingsUpdate:  mu: -0.171300000  nElectrons: 114.000000  magneticMoment: [ Abs: 0.10061  Tot: -0.01735 ]
LCAOMinimize: Iter:   2  G: -1162.4165807962692725  |grad|_K:  1.526e-02  alpha:  1.057e-02  linmin: -3.696e-02  cgtest: -5.382e-02  t[s]:     30.95
LCAOMinimize: 	Wrong curvature in test step, increasing alphaT to 3.170249e-02.
	FillingsUpdate:  mu: -0.171300000  nElectrons: 114.000000  magneticMoment: [ Abs: 0.06282  Tot: -0.01409 ]
LCAOMinimize: Iter:   3  G: -1171.4200198517473837  |grad|_K:  2.060e-02  alpha: -8.763e-03  linmin: -6.042e-02  cgtest:  7.587e-01  t[s]:     36.94
	FillingsUpdate:  mu: -0.171300000  nElectrons: 114.000000  magneticMoment: [ Abs: 0.00157  Tot: -0.00056 ]
LCAOMinimize: Iter:   4  G: -1178.0347864643717912  |grad|_K:  3.203e-03  alpha:  5.010e-01  linmin:  3.237e-02  cgtest: -9.887e+00  t[s]:     43.12
LCAOMinimize: 	Bad step direction: g.d > 0.
LCAOMinimize: 	Undoing step.
LCAOMinimize: 	Step failed: resetting search direction.
	FillingsUpdate:  mu: -0.171300000  nElectrons: 114.000000  magneticMoment: [ Abs: 0.00157  Tot: -0.00056 ]
LCAOMinimize: Iter:   5  G: -1178.0347864643717912  |grad|_K:  3.203e-03  alpha:  0.000e+00
	FillingsUpdate:  mu: -0.171300000  nElectrons: 114.000000  magneticMoment: [ Abs: 0.00172  Tot: -0.00055 ]
LCAOMinimize: Iter:   6  G: -1178.3972642317628470  |grad|_K:  3.844e-03  alpha:  7.180e-03  linmin: -2.967e-02  cgtest:  7.456e-01  t[s]:     53.89
	FillingsUpdate:  mu: -0.171300000  nElectrons: 114.000000  magneticMoment: [ Abs: 0.00162  Tot: +0.00042 ]
LCAOMinimize: Iter:   7  G: -1178.7814781020329065  |grad|_K:  3.030e-03  alpha:  1.174e-02  linmin: -7.950e-02  cgtest:  9.871e-01  t[s]:     60.32
LCAOMinimize: Encountered beta<0, resetting CG.
LCAOMinimize: 	Wrong curvature in test step, increasing alphaT to 3.522455e-02.
	FillingsUpdate:  mu: -0.171300000  nElectrons: 114.000000  magneticMoment: [ Abs: 0.00175  Tot: -0.00029 ]
LCAOMinimize: Iter:   8  G: -1178.9774627452272853  |grad|_K:  3.099e-03  alpha: -5.121e-01  linmin: -7.191e-02  cgtest:  9.461e-01  t[s]:     66.35
	FillingsUpdate:  mu: -0.171300000  nElectrons: 114.000000  magneticMoment: [ Abs: 0.00453  Tot: -0.00091 ]
LCAOMinimize: Iter:   9  G: -1179.9679709244230708  |grad|_K:  3.286e-03  alpha:  3.571e-02  linmin: -6.196e-02  cgtest:  8.095e-01  t[s]:     72.49
LCAOMinimize: 	Wrong curvature in test step, increasing alphaT to 1.071277e-01.
	FillingsUpdate:  mu: -0.171300000  nElectrons: 114.000000  magneticMoment: [ Abs: 0.00147  Tot: +0.00004 ]
LCAOMinimize: Iter:  10  G: -1181.0423346655516070  |grad|_K:  3.258e-03  alpha: -1.097e-01  linmin: -6.583e-02  cgtest:  8.051e-01  t[s]:     78.50
	FillingsUpdate:  mu: -0.171300000  nElectrons: 114.000000  magneticMoment: [ Abs: 0.00343  Tot: -0.00313 ]
LCAOMinimize: Iter:  11  G: -1182.4937652424107455  |grad|_K:  2.646e-03  alpha:  5.258e-02  linmin: -2.802e-02  cgtest:  7.003e-01  t[s]:     84.75
	FillingsUpdate:  mu: -0.171300000  nElectrons: 114.000000  magneticMoment: [ Abs: 0.00114  Tot: +0.00022 ]
LCAOMinimize: Iter:  12  G: -1183.5757991558118647  |grad|_K:  2.073e-03  alpha:  1.113e-01  linmin: -2.099e-02  cgtest:  3.640e-01  t[s]:     90.99
LCAOMinimize: 	Wrong curvature in test step, increasing alphaT to 3.337551e-01.
	FillingsUpdate:  mu: -0.171300000  nElectrons: 114.000000  magneticMoment: [ Abs: 0.00082  Tot: +0.00022 ]
LCAOMinimize: Iter:  13  G: -1184.6489622233764294  |grad|_K:  1.998e-03  alpha: -5.672e+01  linmin: -6.871e-02  cgtest:  7.083e-01  t[s]:     96.98
	FillingsUpdate:  mu: -0.171300000  nElectrons: 114.000000  magneticMoment: [ Abs: 0.00089  Tot: -0.00027 ]
LCAOMinimize: Iter:  14  G: -1184.8447063333594542  |grad|_K:  1.917e-03  alpha:  1.997e-02  linmin: -8.799e-02  cgtest:  9.559e-01  t[s]:    103.12
LCAOMinimize: 	Wrong curvature in test step, increasing alphaT to 5.991488e-02.
	FillingsUpdate:  mu: -0.171300000  nElectrons: 114.000000  magneticMoment: [ Abs: 0.00087  Tot: -0.00039 ]
LCAOMinimize: Iter:  15  G: -1184.9774151357783012  |grad|_K:  1.879e-03  alpha: -9.848e+00  linmin: -1.202e-01  cgtest:  9.691e-01  t[s]:    109.16
	FillingsUpdate:  mu: -0.171300000  nElectrons: 114.000000  magneticMoment: [ Abs: 0.00084  Tot: -0.00040 ]
LCAOMinimize: Iter:  16  G: -1185.0683763848185208  |grad|_K:  1.867e-03  alpha:  1.408e-02  linmin: -1.317e-01  cgtest:  9.791e-01  t[s]:    115.48
LCAOMinimize: 	Wrong curvature in test step, increasing alphaT to 4.225321e-02.
	FillingsUpdate:  mu: -0.171300000  nElectrons: 114.000000  magneticMoment: [ Abs: 0.00081  Tot: -0.00040 ]
LCAOMinimize: Iter:  17  G: -1185.1587120112569664  |grad|_K:  1.861e-03  alpha: -8.370e-01  linmin: -1.405e-01  cgtest:  9.789e-01  t[s]:    121.54
	FillingsUpdate:  mu: -0.171300000  nElectrons: 114.000000  magneticMoment: [ Abs: 0.00079  Tot: -0.00040 ]
LCAOMinimize: Iter:  18  G: -1185.2566545272488838  |grad|_K:  1.858e-03  alpha:  1.529e-02  linmin: -1.468e-01  cgtest:  9.767e-01  t[s]:    127.67
LCAOMinimize: 	Wrong curvature in test step, increasing alphaT to 4.587077e-02.
	FillingsUpdate:  mu: -0.171300000  nElectrons: 114.000000  magneticMoment: [ Abs: 0.00077  Tot: -0.00040 ]
LCAOMinimize: Iter:  19  G: -1185.3548116879949248  |grad|_K:  1.858e-03  alpha: -6.547e-01  linmin: -1.506e-01  cgtest:  9.763e-01  t[s]:    133.68
	FillingsUpdate:  mu: -0.171300000  nElectrons: 114.000000  magneticMoment: [ Abs: 0.00076  Tot: -0.00040 ]
LCAOMinimize: Iter:  20  G: -1185.4630679315973794  |grad|_K:  1.860e-03  alpha:  1.679e-02  linmin: -1.527e-01  cgtest:  9.735e-01  t[s]:    139.81
LCAOMinimize: 	Wrong curvature in test step, increasing alphaT to 5.038248e-02.
	FillingsUpdate:  mu: -0.171300000  nElectrons: 114.000000  magneticMoment: [ Abs: 0.00074  Tot: -0.00040 ]
LCAOMinimize: Iter:  21  G: -1185.5721324317896688  |grad|_K:  1.864e-03  alpha: -5.763e-01  linmin: -1.533e-01  cgtest:  9.730e-01  t[s]:    145.99
	FillingsUpdate:  mu: -0.171300000  nElectrons: 114.000000  magneticMoment: [ Abs: 0.00072  Tot: -0.00039 ]
LCAOMinimize: Iter:  22  G: -1185.6954256475178227  |grad|_K:  1.870e-03  alpha:  1.883e-02  linmin: -1.538e-01  cgtest:  9.693e-01  t[s]:    152.12
LCAOMinimize: 	Wrong curvature in test step, increasing alphaT to 5.648440e-02.
	FillingsUpdate:  mu: -0.171300000  nElectrons: 114.000000  magneticMoment: [ Abs: 0.00070  Tot: -0.00038 ]
LCAOMinimize: Iter:  23  G: -1185.8201922657394789  |grad|_K:  1.877e-03  alpha: -5.337e-01  linmin: -1.552e-01  cgtest:  9.687e-01  t[s]:    158.12
	FillingsUpdate:  mu: -0.171300000  nElectrons: 114.000000  magneticMoment: [ Abs: 0.00068  Tot: -0.00036 ]
LCAOMinimize: Iter:  24  G: -1185.9677372609926351  |grad|_K:  1.885e-03  alpha:  2.200e-02  linmin: -1.583e-01  cgtest:  9.629e-01  t[s]:    164.26
LCAOMinimize: 	Wrong curvature in test step, increasing alphaT to 6.600026e-02.
	FillingsUpdate:  mu: -0.171300000  nElectrons: 114.000000  magneticMoment: [ Abs: 0.00066  Tot: -0.00034 ]
LCAOMinimize: Iter:  25  G: -1186.1178055156196933  |grad|_K:  1.894e-03  alpha: -5.053e-01  linmin: -1.614e-01  cgtest:  9.621e-01  t[s]:    170.27
	FillingsUpdate:  mu: -0.171300000  nElectrons: 114.000000  magneticMoment: [ Abs: 0.00065  Tot: -0.00034 ]
LCAOMinimize: Iter:  26  G: -1186.3089229658021395  |grad|_K:  1.906e-03  alpha:  2.754e-02  linmin: -1.638e-01  cgtest:  9.516e-01  t[s]:    176.50
LCAOMinimize: 	Wrong curvature in test step, increasing alphaT to 8.262607e-02.
	FillingsUpdate:  mu: -0.171300000  nElectrons: 114.000000  magneticMoment: [ Abs: 0.00065  Tot: -0.00034 ]
LCAOMinimize: Iter:  27  G: -1186.5050655712075240  |grad|_K:  1.918e-03  alpha: -4.774e-01  linmin: -1.653e-01  cgtest:  9.500e-01  t[s]:    182.48
	FillingsUpdate:  mu: -0.171300000  nElectrons: 114.000000  magneticMoment: [ Abs: 0.00064  Tot: -0.00035 ]
LCAOMinimize: Iter:  28  G: -1186.8330674852502398  |grad|_K:  1.934e-03  alpha:  4.456e-02  linmin: -1.678e-01  cgtest:  9.172e-01  t[s]:    188.62
LCAOMinimize: 	Wrong curvature in test step, increasing alphaT to 1.336896e-01.
	FillingsUpdate:  mu: -0.171300000  nElectrons: 114.000000  magneticMoment: [ Abs: 0.00064  Tot: -0.00037 ]
LCAOMinimize: Iter:  29  G: -1187.1805891632375278  |grad|_K:  1.943e-03  alpha: -4.481e-01  linmin: -1.679e-01  cgtest:  9.122e-01  t[s]:    194.63
	FillingsUpdate:  mu: -0.171300000  nElectrons: 114.000000  magneticMoment: [ Abs: 0.00059  Tot: -0.00031 ]
LCAOMinimize: Iter:  30  G: -1187.6870369036503234  |grad|_K:  1.935e-03  alpha:  6.274e-02  linmin: -1.564e-01  cgtest:  8.732e-01  t[s]:    200.78
LCAOMinimize: None of the convergence criteria satisfied after 30 iterations.
----- createFluidSolver() ----- (Fluid-side solver setup)
   Initializing fluid molecule 'H2O'
     Initializing site 'O'
       Electron density: proportional to exp(-r/0.36935)*erfc((r-0.51523)/0.36823) with norm 6.826
       Charge density: gaussian nuclear width 0.478731 with net site charge 0.826
       Polarizability: cuspless exponential with width 0.32 and norm 3.73
       Hard sphere radius: 2.57003 bohrs
       Positions in reference frame:
         [ +0.000000 +0.000000 +0.000000 ]
     Initializing site 'H'
       Electron density: proportional to exp(-r/0.34641)*erfc((r-0)/0.390882) with norm 0.587
       Charge density: gaussian nuclear width 0.377945 with net site charge -0.413
       Polarizability: cuspless exponential with width 0.39 and norm 3.3
       Positions in reference frame:
         [ +0.000000 -1.441945 +1.122523 ]
         [ +0.000000 +1.441945 +1.122523 ]
     Net charge: 0   dipole magnitude: 0.927204
     Initializing spherical shell mfKernel with radius 2.61727 Bohr
     deltaS corrections:
       site 'O': -7.54299
       site 'H': -6.83917
   Initializing fluid molecule 'Na+'
     Initializing site 'Na'
       Electron density: proportional to exp(-r/0.19682)*erfc((r-0.71491)/0.41314) with norm 8.1383
       Charge density: gaussian nuclear width 0.365347 with net site charge -1
       Hard sphere radius: 1.86327 bohrs
       Positions in reference frame:
         [ +0.000000 +0.000000 +0.000000 ]
     Net charge: -1   dipole magnitude: 0
     Initializing gaussian mfKernel with width: 1.55004 Bohr
     deltaS corrections:
       site 'Na': -22.3555
   Initializing fluid molecule 'F-'
     Initializing site 'F'
       Electron density: proportional to exp(-r/0.38886)*erfc((r-0)/0.438782) with norm 8
       Charge density: gaussian nuclear width 0.374796 with net site charge 1
       Hard sphere radius: 2.39995 bohrs
       Positions in reference frame:
         [ +0.000000 +0.000000 +0.000000 ]
     Net charge: 1   dipole magnitude: 0
     Initializing gaussian mfKernel with width: 1.59012 Bohr
     deltaS corrections:
       site 'F': -9.04335

Correction to mu due to finite nuclear width = -0.0984681
   Cavity determined by nc: 0.00142 and sigma: 0.707107
   Nonlocal vdW cavity from gaussian model electron density with norm = 8 and sigma = 0.993594 bohr
   Charge asymmetry in cavity with sensitivity pCavity = 36.5 e-bohr/Eh
   Electrostatic cavity expanded by eta = 1.46 bohrs
   Weighted density cavitation model constrained by Nbulk: 0.0049383 bohr^-3, Pvap: 3.14029 kPa, Rvdw: 2.61727 bohr and sigmaBulk: 4.62e-05 Eh/bohr^2 at T: 298 K.
   Weighted density dispersion model using vdW pair potentials with single solvent site with sqrtC6eff: 0.77 SI.


---- Citations for features of the code used in this run ----

   Software package:
      R. Sundararaman, K. Letchworth-Weaver, K.A. Schwarz, D. Gunceler, Y. Ozhabes and T.A. Arias, 'JDFTx: software for joint density-functional theory', SoftwareX 6, 278 (2017)

   gga-PBE exchange-correlation functional:
      J.P. Perdew, K. Burke and M. Ernzerhof, Phys. Rev. Lett. 77, 3865 (1996)

   Pseudopotentials:
      KF Garrity, JW Bennett, KM Rabe and D Vanderbilt, Comput. Mater. Sci. 81, 446 (2014)

   DFT-D3 dispersion correction:
      S. Grimme, J. Antony, S. Ehrlich and H. Krieg, J. Chem. Phys. 132, 154104 (2010)

   DFT-D2 dispersion correction:
      S. Grimme, J. Comput. Chem. 27, 1787 (2006)

   Charge-asymmetric nonlocally-determined local-electric (CANDLE) solvation model:
      R. Sundararaman and W.A. Goddard III, J. Chem. Phys. 142, 064107 (2015)

   Total energy minimization with Auxiliary Hamiltonian:
      C. Freysoldt, S. Boeck, and J. Neugebauer, Phys. Rev. B 79, 241103(R) (2009)

   Grand-canonical (fixed-potential) DFT:
      R. Sundararaman, W. A. Goddard III and T. A. Arias, J. Chem. Phys. 146, 114104 (2017)

   Linear-tetrahedron sampling for density of states:
      G. Lehmann and M. Taut, Phys. status solidi (b) 54, 469 (1972)

This list may not be complete. Please suggest additional citations or
report any other bugs at https://github.com/shankar1729/jdftx/issues

Initialization completed successfully at t[s]:    204.57


Computing DFT-D3 correction:
# coordination-number Cu 6.833 9.159 9.149 9.159 6.833 9.149
# diagonal-C6 Cu 175.00 175.00 175.00 175.00 175.00 175.00
EvdW_6 =   -0.037110
EvdW_8 =   -0.054747
Fluid solver invoked on fresh (random / LCAO) wavefunctions
Running a vacuum solve first:

-------- Initial electronic minimization -----------
	FillingsUpdate:  mu: +1.155846020  nElectrons: 114.000000  magneticMoment: [ Abs: 0.00059  Tot: -0.00031 ]
ElecMinimize: Iter:   0  G: -1187.687191677902547  |grad|_K:  5.832e-04  alpha:  1.000e+00
	FillingsUpdate:  mu: +0.358835640  nElectrons: 114.000000  magneticMoment: [ Abs: 0.00068  Tot: -0.00022 ]
	SubspaceRotationAdjust: set factor to 0.991
ElecMinimize: Iter:   1  G: -1189.800950899498957  |grad|_K:  4.173e-04  alpha:  1.236e-01  linmin:  4.844e-03  t[s]:    219.26
	FillingsUpdate:  mu: +0.415498646  nElectrons: 114.000000  magneticMoment: [ Abs: 0.00071  Tot: -0.00003 ]
	SubspaceRotationAdjust: set factor to 1.07
ElecMinimize: Iter:   2  G: -1191.129579413222473  |grad|_K:  1.089e-04  alpha:  1.623e-01  linmin: -1.954e-04  t[s]:    228.18
	FillingsUpdate:  mu: +0.376090390  nElectrons: 114.000000  magneticMoment: [ Abs: 0.00067  Tot: +0.00003 ]
	SubspaceRotationAdjust: set factor to 1.16
ElecMinimize: Iter:   3  G: -1191.272549829711807  |grad|_K:  9.386e-05  alpha:  1.208e-01  linmin:  1.215e-06  t[s]:    237.19
	FillingsUpdate:  mu: +0.551672730  nElectrons: 114.000000  magneticMoment: [ Abs: 0.00071  Tot: -0.00011 ]
	SubspaceRotationAdjust: set factor to 0.786
ElecMinimize: Iter:   4  G: -1191.404311365211242  |grad|_K:  1.484e-04  alpha:  1.673e-01  linmin:  2.002e-04  t[s]:    246.03
	FillingsUpdate:  mu: +0.547950761  nElectrons: 114.000000  magneticMoment: [ Abs: 0.00080  Tot: -0.00027 ]
	SubspaceRotationAdjust: set factor to 0.608
ElecMinimize: Iter:   5  G: -1191.408948910324398  |grad|_K:  1.279e-04  alpha:  1.513e-03  linmin: -4.457e-04  t[s]:    255.00
ElecMinimize: 	Predicted alpha/alphaT>3.000000, increasing alphaT to 4.538702e-03.
ElecMinimize: 	Predicted alpha/alphaT>3.000000, increasing alphaT to 1.361610e-02.
	FillingsUpdate:  mu: +0.488730006  nElectrons: 114.000000  magneticMoment: [ Abs: 0.00086  Tot: +0.00008 ]
	SubspaceRotationAdjust: set factor to 0.344
ElecMinimize: Iter:   6  G: -1191.468377154880727  |grad|_K:  1.533e-04  alpha:  3.755e-02  linmin:  1.113e-03  t[s]:    268.56
ElecMinimize: 	Bad step direction: g.d > 0.
ElecMinimize: 	Undoing step.
ElecMinimize: 	Step failed: resetting search direction.
	FillingsUpdate:  mu: +0.488730006  nElectrons: 114.000000  magneticMoment: [ Abs: 0.00086  Tot: +0.00008 ]
	SubspaceRotationAdjust: set factor to 0.212
ElecMinimize: Iter:   7  G: -1191.468377154878908  |grad|_K:  1.203e-04  alpha:  0.000e+00
	FillingsUpdate:  mu: +0.235185016  nElectrons: 114.000000  magneticMoment: [ Abs: 0.00085  Tot: -0.00003 ]
	SubspaceRotationAdjust: set factor to 0.0891
	SubspaceRotationAdjust: resetting CG because factor has changed by 0.0891283
ElecMinimize: 	State modified externally: resetting search direction.
ElecMinimize: Iter:   8  G: -1191.538090894333209  |grad|_K:  3.031e-05  alpha:  5.037e-02
ElecMinimize: 	Predicted alpha/alphaT>3.000000, increasing alphaT to 1.511134e-01.
	FillingsUpdate:  mu: +0.215729617  nElectrons: 114.000000  magneticMoment: [ Abs: 0.00083  Tot: -0.00007 ]
	SubspaceRotationAdjust: set factor to 0.202
ElecMinimize: Iter:   9  G: -1191.555017512563836  |grad|_K:  2.570e-05  alpha:  1.876e-01  linmin: -6.215e-06  t[s]:    301.41
	FillingsUpdate:  mu: +0.193742851  nElectrons: 114.000000  magneticMoment: [ Abs: 0.00082  Tot: -0.00014 ]
	SubspaceRotationAdjust: set factor to 0.226
ElecMinimize: Iter:  10  G: -1191.566118082610046  |grad|_K:  1.936e-05  alpha:  1.709e-01  linmin:  6.329e-06  t[s]:    310.25
	FillingsUpdate:  mu: +0.196023033  nElectrons: 114.000000  magneticMoment: [ Abs: 0.00081  Tot: -0.00026 ]
	SubspaceRotationAdjust: set factor to 0.185
ElecMinimize: Iter:  11  G: -1191.573108424828206  |grad|_K:  1.949e-05  alpha:  1.903e-01  linmin:  1.300e-05  t[s]:    319.05
	FillingsUpdate:  mu: +0.180607583  nElectrons: 114.000000  magneticMoment: [ Abs: 0.00081  Tot: -0.00039 ]
	SubspaceRotationAdjust: set factor to 0.203
ElecMinimize: Iter:  12  G: -1191.578772443778917  |grad|_K:  1.465e-05  alpha:  1.522e-01  linmin:  3.127e-06  t[s]:    328.19
	FillingsUpdate:  mu: +0.172166565  nElectrons: 114.000000  magneticMoment: [ Abs: 0.00076  Tot: -0.00038 ]
	SubspaceRotationAdjust: set factor to 0.252
ElecMinimize: Iter:  13  G: -1191.581937274542270  |grad|_K:  1.099e-05  alpha:  1.504e-01  linmin:  2.410e-06  t[s]:    337.00
	FillingsUpdate:  mu: +0.166038384  nElectrons: 114.000000  magneticMoment: [ Abs: 0.00062  Tot: -0.00023 ]
	SubspaceRotationAdjust: set factor to 0.241
ElecMinimize: Iter:  14  G: -1191.584714768283675  |grad|_K:  1.196e-05  alpha:  2.347e-01  linmin:  8.219e-07  t[s]:    345.81
	FillingsUpdate:  mu: +0.156532871  nElectrons: 114.000000  magneticMoment: [ Abs: 0.00054  Tot: -0.00012 ]
	SubspaceRotationAdjust: set factor to 0.251
ElecMinimize: Iter:  15  G: -1191.586434614677501  |grad|_K:  8.293e-06  alpha:  1.224e-01  linmin: -6.557e-07  t[s]:    354.81
	FillingsUpdate:  mu: +0.147456860  nElectrons: 114.000000  magneticMoment: [ Abs: 0.00048  Tot: -0.00005 ]
	SubspaceRotationAdjust: set factor to 0.294
ElecMinimize: Iter:  16  G: -1191.587742857167768  |grad|_K:  7.089e-06  alpha:  1.941e-01  linmin:  4.200e-06  t[s]:    363.74
	FillingsUpdate:  mu: +0.143372004  nElectrons: 114.000000  magneticMoment: [ Abs: 0.00044  Tot: -0.00001 ]
	SubspaceRotationAdjust: set factor to 0.322
ElecMinimize: Iter:  17  G: -1191.588500337469895  |grad|_K:  6.584e-06  alpha:  1.545e-01  linmin:  5.262e-07  t[s]:    372.54
	FillingsUpdate:  mu: +0.144182879  nElectrons: 114.000000  magneticMoment: [ Abs: 0.00037  Tot: +0.00007 ]
	SubspaceRotationAdjust: set factor to 0.311
ElecMinimize: Iter:  18  G: -1191.589495730049975  |grad|_K:  8.552e-06  alpha:  2.340e-01  linmin: -8.703e-08  t[s]:    381.34
	FillingsUpdate:  mu: +0.144297379  nElectrons: 114.000000  magneticMoment: [ Abs: 0.00034  Tot: +0.00016 ]
	SubspaceRotationAdjust: set factor to 0.246
ElecMinimize: Iter:  19  G: -1191.590362814894661  |grad|_K:  5.452e-06  alpha:  1.203e-01  linmin: -7.700e-07  t[s]:    390.50
	FillingsUpdate:  mu: +0.143437743  nElectrons: 114.000000  magneticMoment: [ Abs: 0.00032  Tot: +0.00019 ]
	SubspaceRotationAdjust: set factor to 0.247
ElecMinimize: Iter:  20  G: -1191.590706680043695  |grad|_K:  3.823e-06  alpha:  1.175e-01  linmin:  6.362e-07  t[s]:    399.30
	FillingsUpdate:  mu: +0.143597792  nElectrons: 114.000000  magneticMoment: [ Abs: 0.00029  Tot: +0.00020 ]
	SubspaceRotationAdjust: set factor to 0.276
ElecMinimize: Iter:  21  G: -1191.591021407418793  |grad|_K:  3.845e-06  alpha:  2.196e-01  linmin:  3.436e-07  t[s]:    408.11
	FillingsUpdate:  mu: +0.144651437  nElectrons: 114.000000  magneticMoment: [ Abs: 0.00026  Tot: +0.00018 ]
	SubspaceRotationAdjust: set factor to 0.259
ElecMinimize: Iter:  22  G: -1191.591216984824541  |grad|_K:  2.804e-06  alpha:  1.347e-01  linmin: -8.541e-08  t[s]:    417.27
	FillingsUpdate:  mu: +0.145519254  nElectrons: 114.000000  magneticMoment: [ Abs: 0.00022  Tot: +0.00016 ]
	SubspaceRotationAdjust: set factor to 0.229
ElecMinimize: Iter:  23  G: -1191.591340003345977  |grad|_K:  2.665e-06  alpha:  1.593e-01  linmin:  4.439e-07  t[s]:    426.07
	FillingsUpdate:  mu: +0.145962103  nElectrons: 114.000000  magneticMoment: [ Abs: 0.00017  Tot: +0.00013 ]
	SubspaceRotationAdjust: set factor to 0.253
ElecMinimize: Iter:  24  G: -1191.591453167827922  |grad|_K:  2.080e-06  alpha:  1.624e-01  linmin: -6.714e-08  t[s]:    434.90
	FillingsUpdate:  mu: +0.146480940  nElectrons: 114.000000  magneticMoment: [ Abs: 0.00014  Tot: +0.00011 ]
	SubspaceRotationAdjust: set factor to 0.265
ElecMinimize: Iter:  25  G: -1191.591529661074674  |grad|_K:  1.887e-06  alpha:  1.800e-01  linmin: -2.197e-07  t[s]:    443.79
	FillingsUpdate:  mu: +0.146847241  nElectrons: 114.000000  magneticMoment: [ Abs: 0.00012  Tot: +0.00009 ]
	SubspaceRotationAdjust: set factor to 0.239
ElecMinimize: Iter:  26  G: -1191.591579480041901  |grad|_K:  1.339e-06  alpha:  1.424e-01  linmin: -1.012e-07  t[s]:    452.83
	FillingsUpdate:  mu: +0.147294421  nElectrons: 114.000000  magneticMoment: [ Abs: 0.00011  Tot: +0.00009 ]
	SubspaceRotationAdjust: set factor to 0.24
ElecMinimize: Iter:  27  G: -1191.591602971894417  |grad|_K:  1.102e-06  alpha:  1.334e-01  linmin: -2.170e-07  t[s]:    461.63
	FillingsUpdate:  mu: +0.147967577  nElectrons: 114.000000  magneticMoment: [ Abs: 0.00009  Tot: +0.00008 ]
	SubspaceRotationAdjust: set factor to 0.264
ElecMinimize: Iter:  28  G: -1191.591627440385309  |grad|_K:  1.027e-06  alpha:  2.050e-01  linmin: -8.858e-07  t[s]:    470.43
	FillingsUpdate:  mu: +0.148008450  nElectrons: 114.000000  magneticMoment: [ Abs: 0.00008  Tot: +0.00007 ]
	SubspaceRotationAdjust: set factor to 0.298
ElecMinimize: Iter:  29  G: -1191.591642680446739  |grad|_K:  8.282e-07  alpha:  1.469e-01  linmin:  3.863e-08  t[s]:    479.58
	FillingsUpdate:  mu: +0.147604853  nElectrons: 114.000000  magneticMoment: [ Abs: 0.00007  Tot: +0.00006 ]
	SubspaceRotationAdjust: set factor to 0.298
ElecMinimize: Iter:  30  G: -1191.591655488310380  |grad|_K:  8.381e-07  alpha:  1.901e-01  linmin:  9.676e-07  t[s]:    488.41
	FillingsUpdate:  mu: +0.147579154  nElectrons: 114.000000  magneticMoment: [ Abs: 0.00007  Tot: +0.00006 ]
	SubspaceRotationAdjust: set factor to 0.28
ElecMinimize: Iter:  31  G: -1191.591664253841827  |grad|_K:  6.364e-07  alpha:  1.271e-01  linmin:  4.612e-08  t[s]:    497.24
	FillingsUpdate:  mu: +0.148088054  nElectrons: 114.000000  magneticMoment: [ Abs: 0.00006  Tot: +0.00005 ]
	SubspaceRotationAdjust: set factor to 0.267
ElecMinimize: Iter:  32  G: -1191.591670399842769  |grad|_K:  5.646e-07  alpha:  1.545e-01  linmin:  8.706e-08  t[s]:    506.28
	FillingsUpdate:  mu: +0.148584199  nElectrons: 114.000000  magneticMoment: [ Abs: 0.00005  Tot: +0.00005 ]
	SubspaceRotationAdjust: set factor to 0.299
ElecMinimize: Iter:  33  G: -1191.591675614326277  |grad|_K:  4.378e-07  alpha:  1.665e-01  linmin:  7.387e-08  t[s]:    515.08
	FillingsUpdate:  mu: +0.148561152  nElectrons: 114.000000  magneticMoment: [ Abs: 0.00005  Tot: +0.00004 ]
	SubspaceRotationAdjust: set factor to 0.336
ElecMinimize: Iter:  34  G: -1191.591678723592167  |grad|_K:  4.073e-07  alpha:  1.652e-01  linmin:  3.103e-08  t[s]:    523.90
	FillingsUpdate:  mu: +0.148314880  nElectrons: 114.000000  magneticMoment: [ Abs: 0.00004  Tot: +0.00004 ]
	SubspaceRotationAdjust: set factor to 0.303
ElecMinimize: Iter:  35  G: -1191.591681455917524  |grad|_K:  3.897e-07  alpha:  1.677e-01  linmin:  1.364e-07  t[s]:    532.71
	FillingsUpdate:  mu: +0.148253498  nElectrons: 114.000000  magneticMoment: [ Abs: 0.00004  Tot: +0.00003 ]
	SubspaceRotationAdjust: set factor to 0.274
ElecMinimize: Iter:  36  G: -1191.591683285663976  |grad|_K:  3.381e-07  alpha:  1.227e-01  linmin:  1.517e-08  t[s]:    541.83
	FillingsUpdate:  mu: +0.148374278  nElectrons: 114.000000  magneticMoment: [ Abs: 0.00003  Tot: +0.00003 ]
	SubspaceRotationAdjust: set factor to 0.286
ElecMinimize: Iter:  37  G: -1191.591685075346277  |grad|_K:  2.785e-07  alpha:  1.594e-01  linmin:  9.385e-08  t[s]:    550.64
	FillingsUpdate:  mu: +0.148427692  nElectrons: 114.000000  magneticMoment: [ Abs: 0.00003  Tot: +0.00002 ]
	SubspaceRotationAdjust: set factor to 0.328
ElecMinimize: Iter:  38  G: -1191.591686153485853  |grad|_K:  2.139e-07  alpha:  1.416e-01  linmin:  3.083e-08  t[s]:    559.47
	FillingsUpdate:  mu: +0.148310463  nElectrons: 114.000000  magneticMoment: [ Abs: 0.00003  Tot: +0.00002 ]
	SubspaceRotationAdjust: set factor to 0.341
ElecMinimize: Iter:  39  G: -1191.591687041353907  |grad|_K:  2.316e-07  alpha:  1.975e-01  linmin:  1.412e-07  t[s]:    568.53
	FillingsUpdate:  mu: +0.148199216  nElectrons: 114.000000  magneticMoment: [ Abs: 0.00002  Tot: +0.00002 ]
	SubspaceRotationAdjust: set factor to 0.281
ElecMinimize: Iter:  40  G: -1191.591687671090085  |grad|_K:  1.868e-07  alpha:  1.195e-01  linmin: -5.686e-08  t[s]:    577.35
	FillingsUpdate:  mu: +0.148195481  nElectrons: 114.000000  magneticMoment: [ Abs: 0.00002  Tot: +0.00001 ]
	SubspaceRotationAdjust: set factor to 0.247
ElecMinimize: Iter:  41  G: -1191.591688066070674  |grad|_K:  1.454e-07  alpha:  1.153e-01  linmin:  7.388e-08  t[s]:    586.21
	FillingsUpdate:  mu: +0.148276419  nElectrons: 114.000000  magneticMoment: [ Abs: 0.00002  Tot: +0.00001 ]
	SubspaceRotationAdjust: set factor to 0.275
ElecMinimize: Iter:  42  G: -1191.591688431839430  |grad|_K:  1.254e-07  alpha:  1.761e-01  linmin:  6.088e-08  t[s]:    596.56
	FillingsUpdate:  mu: +0.148313042  nElectrons: 114.000000  magneticMoment: [ Abs: 0.00002  Tot: +0.00001 ]
	SubspaceRotationAdjust: set factor to 0.279
ElecMinimize: Iter:  43  G: -1191.591688654609470  |grad|_K:  1.078e-07  alpha:  1.443e-01  linmin:  3.618e-08  t[s]:    605.37
	FillingsUpdate:  mu: +0.148289211  nElectrons: 114.000000  magneticMoment: [ Abs: 0.00002  Tot: +0.00001 ]
	SubspaceRotationAdjust: set factor to 0.24
ElecMinimize: Iter:  44  G: -1191.591688834277875  |grad|_K:  9.696e-08  alpha:  1.574e-01  linmin: -1.209e-07  t[s]:    614.19
	FillingsUpdate:  mu: +0.148260204  nElectrons: 114.000000  magneticMoment: [ Abs: 0.00001  Tot: +0.00001 ]
	SubspaceRotationAdjust: set factor to 0.247
ElecMinimize: Iter:  45  G: -1191.591688949861236  |grad|_K:  6.944e-08  alpha:  1.251e-01  linmin: -7.816e-08  t[s]:    623.01
	FillingsUpdate:  mu: +0.148262159  nElectrons: 114.000000  magneticMoment: [ Abs: 0.00001  Tot: +0.00001 ]
	SubspaceRotationAdjust: set factor to 0.271
ElecMinimize: Iter:  46  G: -1191.591689041385507  |grad|_K:  6.898e-08  alpha:  1.930e-01  linmin: -2.098e-07  t[s]:    632.05
	FillingsUpdate:  mu: +0.148275956  nElectrons: 114.000000  magneticMoment: [ Abs: 0.00001  Tot: +0.00001 ]
	SubspaceRotationAdjust: set factor to 0.262
ElecMinimize: Iter:  47  G: -1191.591689106803187  |grad|_K:  4.961e-08  alpha:  1.397e-01  linmin: -4.341e-08  t[s]:    640.89
ElecMinimize: Converged (|Delta G|<1.000000e-07 for 2 iters).
Setting wave functions to eigenvectors of Hamiltonian
Converging empty states (this may take a while): |deigs|: 2.645e-02
Vacuum energy after initial minimize, F = -1191.591689106803187

Shifting auxilliary hamiltonian by -0.319576 to set nElectrons=114.000000

-------- Electronic minimization -----------
	Linear fluid (dielectric constant: 78.4, screening length: 8.12261 Bohr) occupying 0.462767 of unit cell:	Completed after 23 iterations at t[s]:    670.37
	FillingsUpdate:  mu: -0.171300000  nElectrons: 114.000000  magneticMoment: [ Abs: 0.00000  Tot: +0.00000 ]
ElecMinimize: Iter:   0  G: -1191.591764590271850  |grad|_K:  3.187e-06  alpha:  1.000e+00
	Linear fluid (dielectric constant: 78.4, screening length: 8.12261 Bohr) occupying 0.464110 of unit cell:	Completed after 21 iterations at t[s]:    678.20
	Linear fluid (dielectric constant: 78.4, screening length: 8.12261 Bohr) occupying 0.462825 of unit cell:	Completed after 20 iterations at t[s]:    680.98
	FillingsUpdate:  mu: -0.171300000  nElectrons: 113.992325  magneticMoment: [ Abs: 0.00000  Tot: +0.00000 ]
	SubspaceRotationAdjust: set factor to 0.137
ElecMinimize: Iter:   1  G: -1191.591772289358460  |grad|_K:  3.013e-06  alpha:  2.938e-02  linmin:  5.707e-02  t[s]:    684.99
	Linear fluid (dielectric constant: 78.4, screening length: 8.12261 Bohr) occupying 0.462903 of unit cell:	Completed after 16 iterations at t[s]:    688.33
ElecMinimize: 	Predicted alpha/alphaT>3.000000, increasing alphaT to 8.814884e-02.
	Linear fluid (dielectric constant: 78.4, screening length: 8.12261 Bohr) occupying 0.463056 of unit cell:	Completed after 18 iterations at t[s]:    691.04
	Linear fluid (dielectric constant: 78.4, screening length: 8.12261 Bohr) occupying 0.463157 of unit cell:	Completed after 18 iterations at t[s]:    693.79
	FillingsUpdate:  mu: -0.171300000  nElectrons: 113.990286  magneticMoment: [ Abs: 0.00000  Tot: +0.00000 ]
	SubspaceRotationAdjust: set factor to 0.108
ElecMinimize: Iter:   2  G: -1191.591803442405308  |grad|_K:  1.245e-06  alpha:  1.273e-01  linmin:  6.009e-05  t[s]:    697.61
	Linear fluid (dielectric constant: 78.4, screening length: 8.12261 Bohr) occupying 0.463288 of unit cell:	Completed after 18 iterations at t[s]:    700.96
	Linear fluid (dielectric constant: 78.4, screening length: 8.12261 Bohr) occupying 0.463212 of unit cell:	Completed after 18 iterations at t[s]:    703.66
	FillingsUpdate:  mu: -0.171300000  nElectrons: 113.992393  magneticMoment: [ Abs: 0.00000  Tot: +0.00000 ]
	SubspaceRotationAdjust: set factor to 0.0679
ElecMinimize: Iter:   3  G: -1191.591811531196072  |grad|_K:  8.790e-07  alpha:  5.314e-02  linmin: -5.433e-05  t[s]:    707.48
	Linear fluid (dielectric constant: 78.4, screening length: 8.12261 Bohr) occupying 0.463272 of unit cell:	Completed after 15 iterations at t[s]:    710.78
	Linear fluid (dielectric constant: 78.4, screening length: 8.12261 Bohr) occupying 0.463331 of unit cell:	Completed after 16 iterations at t[s]:    713.51
	FillingsUpdate:  mu: -0.171300000  nElectrons: 113.990852  magneticMoment: [ Abs: 0.00000  Tot: +0.00000 ]
	SubspaceRotationAdjust: set factor to 0.0939
ElecMinimize: Iter:   4  G: -1191.591819559669602  |grad|_K:  7.188e-07  alpha:  1.056e-01  linmin: -6.801e-05  t[s]:    717.48
	Linear fluid (dielectric constant: 78.4, screening length: 8.12261 Bohr) occupying 0.463452 of unit cell:	Completed after 17 iterations at t[s]:    720.82
	Linear fluid (dielectric constant: 78.4, screening length: 8.12261 Bohr) occupying 0.463549 of unit cell:	Completed after 16 iterations at t[s]:    723.49
	FillingsUpdate:  mu: -0.171300000  nElectrons: 113.988295  magneticMoment: [ Abs: 0.00000  Tot: +0.00000 ]
	SubspaceRotationAdjust: set factor to 0.0583
ElecMinimize: Iter:   5  G: -1191.591829329496022  |grad|_K:  8.097e-07  alpha:  1.913e-01  linmin: -2.348e-04  t[s]:    727.32
	Linear fluid (dielectric constant: 78.4, screening length: 8.12261 Bohr) occupying 0.463893 of unit cell:	Completed after 18 iterations at t[s]:    730.70
	Linear fluid (dielectric constant: 78.4, screening length: 8.12261 Bohr) occupying 0.463706 of unit cell:	Completed after 16 iterations at t[s]:    733.36
	FillingsUpdate:  mu: -0.171300000  nElectrons: 113.989426  magneticMoment: [ Abs: 0.00000  Tot: +0.00000 ]
	SubspaceRotationAdjust: set factor to 0.0476
ElecMinimize: Iter:   6  G: -1191.591835003481719  |grad|_K:  6.379e-07  alpha:  8.693e-02  linmin: -4.381e-05  t[s]:    737.20
	Linear fluid (dielectric constant: 78.4, screening length: 8.12261 Bohr) occupying 0.463830 of unit cell:	Completed after 12 iterations at t[s]:    740.45
	Linear fluid (dielectric constant: 78.4, screening length: 8.12261 Bohr) occupying 0.464028 of unit cell:	Completed after 12 iterations at t[s]:    743.04
	FillingsUpdate:  mu: -0.171300000  nElectrons: 113.989056  magneticMoment: [ Abs: 0.00000  Tot: +0.00000 ]
	SubspaceRotationAdjust: set factor to 0.0417
ElecMinimize: Iter:   7  G: -1191.591844112013405  |grad|_K:  8.250e-07  alpha:  2.283e-01  linmin:  9.403e-05  t[s]:    747.11
	Linear fluid (dielectric constant: 78.4, screening length: 8.12261 Bohr) occupying 0.464599 of unit cell:	Completed after 17 iterations at t[s]:    750.40
	Linear fluid (dielectric constant: 78.4, screening length: 8.12261 Bohr) occupying 0.464598 of unit cell:	Completed after 0 iterations at t[s]:    752.77
	FillingsUpdate:  mu: -0.171300000  nElectrons: 113.984211  magneticMoment: [ Abs: 0.00000  Tot: +0.00000 ]
	SubspaceRotationAdjust: set factor to 0.0348
	SubspaceRotationAdjust: resetting CG because factor has changed by 0.13278
	Linear fluid (dielectric constant: 78.4, screening length: 8.12261 Bohr) occupying 0.464598 of unit cell:	Completed after 0 iterations at t[s]:    757.80
ElecMinimize: 	State modified externally: resetting search direction.
ElecMinimize: Iter:   8  G: -1191.591859235994207  |grad|_K:  8.246e-07  alpha:  2.280e-01
	Linear fluid (dielectric constant: 78.4, screening length: 8.12261 Bohr) occupying 0.464605 of unit cell:	Completed after 12 iterations at t[s]:    764.81
	Linear fluid (dielectric constant: 78.4, screening length: 8.12261 Bohr) occupying 0.464601 of unit cell:	Completed after 12 iterations at t[s]:    767.39
	FillingsUpdate:  mu: -0.171300000  nElectrons: 113.984890  magneticMoment: [ Abs: 0.00000  Tot: +0.00000 ]
	SubspaceRotationAdjust: set factor to 0.0445
ElecMinimize: Iter:   9  G: -1191.591865428210440  |grad|_K:  3.605e-07  alpha:  9.273e-02  linmin:  1.336e-06  t[s]:    771.23
	Linear fluid (dielectric constant: 78.4, screening length: 8.12261 Bohr) occupying 0.464607 of unit cell:	Completed after 10 iterations at t[s]:    774.66
	Linear fluid (dielectric constant: 78.4, screening length: 8.12261 Bohr) occupying 0.464613 of unit cell:	Completed after 10 iterations at t[s]:    777.31
	FillingsUpdate:  mu: -0.171300000  nElectrons: 113.985161  magneticMoment: [ Abs: 0.00000  Tot: +0.00000 ]
	SubspaceRotationAdjust: set factor to 0.0473
ElecMinimize: Iter:  10  G: -1191.591867938467658  |grad|_K:  2.621e-07  alpha:  1.967e-01  linmin:  8.134e-06  t[s]:    781.13
	Linear fluid (dielectric constant: 78.4, screening length: 8.12261 Bohr) occupying 0.464639 of unit cell:	Completed after 14 iterations at t[s]:    784.36
	Linear fluid (dielectric constant: 78.4, screening length: 8.12261 Bohr) occupying 0.464675 of unit cell:	Completed after 15 iterations at t[s]:    787.04
	FillingsUpdate:  mu: -0.171300000  nElectrons: 113.984240  magneticMoment: [ Abs: 0.00000  Tot: +0.00000 ]
	SubspaceRotationAdjust: set factor to 0.0507
ElecMinimize: Iter:  11  G: -1191.591871084552167  |grad|_K:  3.883e-07  alpha:  4.665e-01  linmin:  1.988e-06  t[s]:    790.85
	Linear fluid (dielectric constant: 78.4, screening length: 8.12261 Bohr) occupying 0.464856 of unit cell:	Completed after 18 iterations at t[s]:    794.23
	Linear fluid (dielectric constant: 78.4, screening length: 8.12261 Bohr) occupying 0.464735 of unit cell:	Completed after 17 iterations at t[s]:    796.91
	FillingsUpdate:  mu: -0.171300000  nElectrons: 113.984334  magneticMoment: [ Abs: 0.00000  Tot: +0.00000 ]
	SubspaceRotationAdjust: set factor to 0.0683
ElecMinimize: Iter:  12  G: -1191.591873351617551  |grad|_K:  2.890e-07  alpha:  1.529e-01  linmin: -1.972e-05  t[s]:    800.75
	Linear fluid (dielectric constant: 78.4, screening length: 8.12261 Bohr) occupying 0.464787 of unit cell:	Completed after 13 iterations at t[s]:    804.16
	Linear fluid (dielectric constant: 78.4, screening length: 8.12261 Bohr) occupying 0.464846 of unit cell:	Completed after 12 iterations at t[s]:    806.93
	FillingsUpdate:  mu: -0.171300000  nElectrons: 113.984741  magneticMoment: [ Abs: 0.00000  Tot: +0.00000 ]
	SubspaceRotationAdjust: set factor to 0.0744
ElecMinimize: Iter:  13  G: -1191.591876048173845  |grad|_K:  5.101e-07  alpha:  3.291e-01  linmin:  3.494e-05  t[s]:    810.76
	Linear fluid (dielectric constant: 78.4, screening length: 8.12261 Bohr) occupying 0.465237 of unit cell:	Completed after 17 iterations at t[s]:    814.12
	Linear fluid (dielectric constant: 78.4, screening length: 8.12261 Bohr) occupying 0.465219 of unit cell:	Completed after 9 iterations at t[s]:    816.63
	FillingsUpdate:  mu: -0.171300000  nElectrons: 113.982876  magneticMoment: [ Abs: 0.00000  Tot: +0.00000 ]
	SubspaceRotationAdjust: set factor to 0.0742
ElecMinimize: Iter:  14  G: -1191.591884013596200  |grad|_K:  5.656e-07  alpha:  3.132e-01  linmin: -9.227e-05  t[s]:    820.46
	Linear fluid (dielectric constant: 78.4, screening length: 8.12261 Bohr) occupying 0.465705 of unit cell:	Completed after 16 iterations at t[s]:    823.79
	Linear fluid (dielectric constant: 78.4, screening length: 8.12261 Bohr) occupying 0.465475 of unit cell:	Completed after 15 iterations at t[s]:    826.43
	FillingsUpdate:  mu: -0.171300000  nElectrons: 113.982715  magneticMoment: [ Abs: 0.00000  Tot: +0.00000 ]
	SubspaceRotationAdjust: set factor to 0.078
ElecMinimize: Iter:  15  G: -1191.591889195152362  |grad|_K:  5.279e-07  alpha:  1.620e-01  linmin: -1.913e-05  t[s]:    830.27
	Linear fluid (dielectric constant: 78.4, screening length: 8.12261 Bohr) occupying 0.465724 of unit cell:	Completed after 14 iterations at t[s]:    833.70
	Linear fluid (dielectric constant: 78.4, screening length: 8.12261 Bohr) occupying 0.465812 of unit cell:	Completed after 9 iterations at t[s]:    836.38
	FillingsUpdate:  mu: -0.171300000  nElectrons: 113.981447  magneticMoment: [ Abs: 0.00000  Tot: +0.00000 ]
	SubspaceRotationAdjust: set factor to 0.0831
ElecMinimize: Iter:  16  G: -1191.591895264193681  |grad|_K:  5.442e-07  alpha:  2.207e-01  linmin: -4.187e-05  t[s]:    840.23
	Linear fluid (dielectric constant: 78.4, screening length: 8.12261 Bohr) occupying 0.466198 of unit cell:	Completed after 15 iterations at t[s]:    843.57
	Linear fluid (dielectric constant: 78.4, screening length: 8.12261 Bohr) occupying 0.466192 of unit cell:	Completed after 2 iterations at t[s]:    845.95
	FillingsUpdate:  mu: -0.171300000  nElectrons: 113.980091  magneticMoment: [ Abs: 0.00000  Tot: +0.00000 ]
	SubspaceRotationAdjust: set factor to 0.0864
ElecMinimize: Iter:  17  G: -1191.591901614714288  |grad|_K:  6.236e-07  alpha:  2.169e-01  linmin: -3.108e-06  t[s]:    849.77
	Linear fluid (dielectric constant: 78.4, screening length: 8.12261 Bohr) occupying 0.466704 of unit cell:	Completed after 13 iterations at t[s]:    852.97
	Linear fluid (dielectric constant: 78.4, screening length: 8.12261 Bohr) occupying 0.466647 of unit cell:	Completed after 5 iterations at t[s]:    855.45
	FillingsUpdate:  mu: -0.171300000  nElectrons: 113.978011  magneticMoment: [ Abs: 0.00000  Tot: +0.00000 ]
	SubspaceRotationAdjust: set factor to 0.0954
ElecMinimize: Iter:  18  G: -1191.591908956047519  |grad|_K:  4.209e-07  alpha:  1.922e-01  linmin: -1.467e-05  t[s]:    859.29
	Linear fluid (dielectric constant: 78.4, screening length: 8.12261 Bohr) occupying 0.466870 of unit cell:	Completed after 14 iterations at t[s]:    862.58
	Linear fluid (dielectric constant: 78.4, screening length: 8.12261 Bohr) occupying 0.466812 of unit cell:	Completed after 11 iterations at t[s]:    865.29
	FillingsUpdate:  mu: -0.171300000  nElectrons: 113.976497  magneticMoment: [ Abs: 0.00000  Tot: +0.00000 ]
	SubspaceRotationAdjust: set factor to 0.0837
ElecMinimize: Iter:  19  G: -1191.591911417263418  |grad|_K:  4.109e-07  alpha:  1.416e-01  linmin: -1.111e-05  t[s]:    869.16
	Linear fluid (dielectric constant: 78.4, screening length: 8.12261 Bohr) occupying 0.466980 of unit cell:	Completed after 13 iterations at t[s]:    872.49
	Linear fluid (dielectric constant: 78.4, screening length: 8.12261 Bohr) occupying 0.467006 of unit cell:	Completed after 9 iterations at t[s]:    875.00
	FillingsUpdate:  mu: -0.171300000  nElectrons: 113.976476  magneticMoment: [ Abs: 0.00000  Tot: +0.00000 ]
	SubspaceRotationAdjust: set factor to 0.0599
ElecMinimize: Iter:  20  G: -1191.591914141302141  |grad|_K:  3.465e-07  alpha:  1.642e-01  linmin:  2.505e-05  t[s]:    878.81
	Linear fluid (dielectric constant: 78.4, screening length: 8.12261 Bohr) occupying 0.467153 of unit cell:	Completed after 12 iterations at t[s]:    882.07
	Linear fluid (dielectric constant: 78.4, screening length: 8.12261 Bohr) occupying 0.467113 of unit cell:	Completed after 11 iterations at t[s]:    884.61
	FillingsUpdate:  mu: -0.171300000  nElectrons: 113.975498  magneticMoment: [ Abs: 0.00000  Tot: +0.00000 ]
	SubspaceRotationAdjust: set factor to 0.0548
ElecMinimize: Iter:  21  G: -1191.591915551476632  |grad|_K:  2.361e-07  alpha:  1.200e-01  linmin: -4.853e-06  t[s]:    888.45
	Linear fluid (dielectric constant: 78.4, screening length: 8.12261 Bohr) occupying 0.467168 of unit cell:	Completed after 10 iterations at t[s]:    892.59
	Linear fluid (dielectric constant: 78.4, screening length: 8.12261 Bohr) occupying 0.467204 of unit cell:	Completed after 8 iterations at t[s]:    895.93
	FillingsUpdate:  mu: -0.171300000  nElectrons: 113.974982  magneticMoment: [ Abs: 0.00000  Tot: +0.00000 ]
	SubspaceRotationAdjust: set factor to 0.0601
ElecMinimize: Iter:  22  G: -1191.591916650925441  |grad|_K:  2.239e-07  alpha:  2.008e-01  linmin: -2.046e-06  t[s]:    899.76
	Linear fluid (dielectric constant: 78.4, screening length: 8.12261 Bohr) occupying 0.467290 of unit cell:	Completed after 12 iterations at t[s]:    902.95
	Linear fluid (dielectric constant: 78.4, screening length: 8.12261 Bohr) occupying 0.467262 of unit cell:	Completed after 10 iterations at t[s]:    905.53
	FillingsUpdate:  mu: -0.171300000  nElectrons: 113.975073  magneticMoment: [ Abs: 0.00000  Tot: +0.00000 ]
	SubspaceRotationAdjust: set factor to 0.0554
ElecMinimize: Iter:  23  G: -1191.591917319782624  |grad|_K:  1.381e-07  alpha:  1.358e-01  linmin:  1.444e-06  t[s]:    909.34
	Linear fluid (dielectric constant: 78.4, screening length: 8.12261 Bohr) occupying 0.467286 of unit cell:	Completed after 9 iterations at t[s]:    912.54
	Linear fluid (dielectric constant: 78.4, screening length: 8.12261 Bohr) occupying 0.467297 of unit cell:	Completed after 2 iterations at t[s]:    914.90
	FillingsUpdate:  mu: -0.171300000  nElectrons: 113.974900  magneticMoment: [ Abs: 0.00000  Tot: +0.00000 ]
	SubspaceRotationAdjust: set factor to 0.0612
ElecMinimize: Iter:  24  G: -1191.591917685114822  |grad|_K:  1.248e-07  alpha:  1.949e-01  linmin: -6.830e-06  t[s]:    918.72
	Linear fluid (dielectric constant: 78.4, screening length: 8.12261 Bohr) occupying 0.467325 of unit cell:	Completed after 10 iterations at t[s]:    921.89
	Linear fluid (dielectric constant: 78.4, screening length: 8.12261 Bohr) occupying 0.467317 of unit cell:	Completed after 9 iterations at t[s]:    924.61
	FillingsUpdate:  mu: -0.171300000  nElectrons: 113.974716  magneticMoment: [ Abs: 0.00000  Tot: +0.00000 ]
	SubspaceRotationAdjust: set factor to 0.065
ElecMinimize: Iter:  25  G: -1191.591917897278563  |grad|_K:  8.694e-08  alpha:  1.390e-01  linmin: -4.419e-05  t[s]:    928.63
	Linear fluid (dielectric constant: 78.4, screening length: 8.12261 Bohr) occupying 0.467327 of unit cell:	Completed after 9 iterations at t[s]:    931.84
	Linear fluid (dielectric constant: 78.4, screening length: 8.12261 Bohr) occupying 0.467333 of unit cell:	Completed after 7 iterations at t[s]:    934.31
	FillingsUpdate:  mu: -0.171300000  nElectrons: 113.974782  magneticMoment: [ Abs: 0.00000  Tot: +0.00000 ]
	SubspaceRotationAdjust: set factor to 0.0696
ElecMinimize: Iter:  26  G: -1191.591918058706142  |grad|_K:  9.219e-08  alpha:  2.171e-01  linmin:  5.553e-06  t[s]:    938.13
	Linear fluid (dielectric constant: 78.4, screening length: 8.12261 Bohr) occupying 0.467350 of unit cell:	Completed after 5 iterations at t[s]:    941.25
	Linear fluid (dielectric constant: 78.4, screening length: 8.12261 Bohr) occupying 0.467345 of unit cell:	Completed after 2 iterations at t[s]:    943.62
	FillingsUpdate:  mu: -0.171300000  nElectrons: 113.974767  magneticMoment: [ Abs: 0.00000  Tot: +0.00000 ]
	SubspaceRotationAdjust: set factor to 0.085
ElecMinimize: Iter:  27  G: -1191.591918182962218  |grad|_K:  6.592e-08  alpha:  1.490e-01  linmin:  6.170e-06  t[s]:    947.45
	Linear fluid (dielectric constant: 78.4, screening length: 8.12261 Bohr) occupying 0.467350 of unit cell:	Completed after 8 iterations at t[s]:    950.63
	Linear fluid (dielectric constant: 78.4, screening length: 8.12261 Bohr) occupying 0.467354 of unit cell:	Completed after 7 iterations at t[s]:    953.10
	FillingsUpdate:  mu: -0.171300000  nElectrons: 113.974691  magneticMoment: [ Abs: 0.00000  Tot: +0.00000 ]
	SubspaceRotationAdjust: set factor to 0.0924
ElecMinimize: Iter:  28  G: -1191.591918288550914  |grad|_K:  8.222e-08  alpha:  2.481e-01  linmin:  4.458e-05  t[s]:    957.17
	Linear fluid (dielectric constant: 78.4, screening length: 8.12261 Bohr) occupying 0.467367 of unit cell:	Completed after 9 iterations at t[s]:    960.31
	Linear fluid (dielectric constant: 78.4, screening length: 8.12261 Bohr) occupying 0.467362 of unit cell:	Completed after 9 iterations at t[s]:    962.86
	FillingsUpdate:  mu: -0.171300000  nElectrons: 113.974785  magneticMoment: [ Abs: 0.00000  Tot: +0.00000 ]
	SubspaceRotationAdjust: set factor to 0.101
ElecMinimize: Iter:  29  G: -1191.591918392845400  |grad|_K:  6.545e-08  alpha:  1.579e-01  linmin:  5.889e-06  t[s]:    966.68
	Linear fluid (dielectric constant: 78.4, screening length: 8.12261 Bohr) occupying 0.467367 of unit cell:	Completed after 9 iterations at t[s]:    969.90
	Linear fluid (dielectric constant: 78.4, screening length: 8.12261 Bohr) occupying 0.467368 of unit cell:	Completed after 2 iterations at t[s]:    972.26
	FillingsUpdate:  mu: -0.171300000  nElectrons: 113.974725  magneticMoment: [ Abs: 0.00000  Tot: +0.00000 ]
	SubspaceRotationAdjust: set factor to 0.106
ElecMinimize: Iter:  30  G: -1191.591918473672422  |grad|_K:  7.795e-08  alpha:  1.921e-01  linmin: -3.555e-05  t[s]:    976.09
	Linear fluid (dielectric constant: 78.4, screening length: 8.12261 Bohr) occupying 0.467374 of unit cell:	Completed after 10 iterations at t[s]:    979.30
	Linear fluid (dielectric constant: 78.4, screening length: 8.12261 Bohr) occupying 0.467374 of unit cell:	Completed after 2 iterations at t[s]:    981.68
	FillingsUpdate:  mu: -0.171300000  nElectrons: 113.974892  magneticMoment: [ Abs: 0.00000  Tot: +0.00000 ]
	SubspaceRotationAdjust: set factor to 0.105
ElecMinimize: Iter:  31  G: -1191.591918599880955  |grad|_K:  7.596e-08  alpha:  2.105e-01  linmin:  3.017e-05  t[s]:    985.71
	Linear fluid (dielectric constant: 78.4, screening length: 8.12261 Bohr) occupying 0.467380 of unit cell:	Completed after 9 iterations at t[s]:    988.91
	Linear fluid (dielectric constant: 78.4, screening length: 8.12261 Bohr) occupying 0.467378 of unit cell:	Completed after 6 iterations at t[s]:    991.37
	FillingsUpdate:  mu: -0.171300000  nElectrons: 113.974866  magneticMoment: [ Abs: 0.00000  Tot: +0.00000 ]
	SubspaceRotationAdjust: set factor to 0.109
ElecMinimize: Iter:  32  G: -1191.591918687611042  |grad|_K:  7.164e-08  alpha:  1.550e-01  linmin:  2.530e-05  t[s]:    995.19
	Linear fluid (dielectric constant: 78.4, screening length: 8.12261 Bohr) occupying 0.467381 of unit cell:	Completed after 9 iterations at t[s]:    998.39
	Linear fluid (dielectric constant: 78.4, screening length: 8.12261 Bohr) occupying 0.467382 of unit cell:	Completed after 6 iterations at t[s]:   1000.84
	FillingsUpdate:  mu: -0.171300000  nElectrons: 113.975048  magneticMoment: [ Abs: 0.00000  Tot: +0.00000 ]
	SubspaceRotationAdjust: set factor to 0.104
ElecMinimize: Iter:  33  G: -1191.591918794652656  |grad|_K:  6.928e-08  alpha:  2.129e-01  linmin: -4.124e-05  t[s]:   1004.66
	Linear fluid (dielectric constant: 78.4, screening length: 8.12261 Bohr) occupying 0.467384 of unit cell:	Completed after 11 iterations at t[s]:   1007.90
	Linear fluid (dielectric constant: 78.4, screening length: 8.12261 Bohr) occupying 0.467383 of unit cell:	Completed after 9 iterations at t[s]:   1010.40
	FillingsUpdate:  mu: -0.171300000  nElectrons: 113.974987  magneticMoment: [ Abs: 0.00000  Tot: +0.00000 ]
	SubspaceRotationAdjust: set factor to 0.0851
ElecMinimize: Iter:  34  G: -1191.591918852391473  |grad|_K:  6.196e-08  alpha:  1.213e-01  linmin:  1.244e-05  t[s]:   1014.35
	Linear fluid (dielectric constant: 78.4, screening length: 8.12261 Bohr) occupying 0.467383 of unit cell:	Completed after 9 iterations at t[s]:   1017.72
	Linear fluid (dielectric constant: 78.4, screening length: 8.12261 Bohr) occupying 0.467384 of unit cell:	Completed after 2 iterations at t[s]:   1020.10
	FillingsUpdate:  mu: -0.171300000  nElectrons: 113.975159  magneticMoment: [ Abs: 0.00000  Tot: +0.00000 ]
	SubspaceRotationAdjust: set factor to 0.0704
ElecMinimize: Iter:  35  G: -1191.591918907764466  |grad|_K:  5.423e-08  alpha:  1.463e-01  linmin: -1.680e-04  t[s]:   1023.92
ElecMinimize: Converged (|Delta G|<1.000000e-07 for 2 iters).
Setting wave functions to eigenvectors of Hamiltonian
Converging empty states (this may take a while): |deigs|: 3.774e-05
Single-point solvation energy estimate, DeltaG = -0.000229800961279

Computing DFT-D3 correction:
# coordination-number Cu 6.833 9.159 9.149 9.159 6.833 9.149
# diagonal-C6 Cu 175.00 175.00 175.00 175.00 175.00 175.00
EvdW_6 =   -0.037110
EvdW_8 =   -0.054747

# Ionic positions in cartesian coordinates:
ion Cu  -0.000002000000000   2.752013000000000   1.945946000000000 1
ion Cu   2.383311000000000   4.128017999999999   9.729848999999998 1
ion Cu   2.383313999999999   1.376005000000000   5.837898000000000 1
ion Cu  -0.000002000000000   2.752013000000000  13.621741999999999 1
ion Cu   2.383311000000000   4.128017999999999  21.405643999999999 1
ion Cu   2.383313999999999   1.376005000000000  17.513693000000000 1

# Forces in Cartesian coordinates:
force Cu   0.000003302133152   0.000000815709462  -0.000516226873547 1
force Cu   0.000001057837985   0.000001683680960   0.000533415656037 1
force Cu  -0.000001564736558   0.000002282268865   0.001777533224808 1
force Cu   0.000001429447343  -0.000001813003964  -0.000357856906041 1
force Cu  -0.000001578487547  -0.000001513202647   0.000614483247924 1
force Cu  -0.000001881602061  -0.000001096227567  -0.001614600002480 1

# Energy components:
   A_diel =        0.0049694916974554
   Eewald =     6666.5893865308553359
       EH =     7779.2407986045191137
     Eloc =   -15884.2762036040894600
      Enl =      219.7338846457294039
     EvdW =       -0.0918570454936430
      Exc =     -116.4450126647386554
 Exc_core =        0.2818077953010898
       KE =      123.8442921967412360
  MuShift =        0.0024460207882579
-------------------------------------
     Etot =    -1211.1154880286903790
       TS =        0.0003756599820060
-------------------------------------
        F =    -1211.1158636886723343
      muN =      -19.5239447809079429
-------------------------------------
        G =    -1191.5919189077644660


Dumping 'jdft.fillings' ... done
Dumping 'jdft.wfns' ... done
Dumping 'jdft.fluidState' ... done
Dumping 'jdft.ionpos' ... done
Dumping 'jdft.lattice' ... done
Dumping 'jdft.eigenvals' ... done
Dumping 'jdft.eigStats' ... 
	eMin: -4.313156 at state 0 ( [ +0.000000 +0.000000 +0.000000 ] spin 1 )
	HOMO: -0.171657 at state 219 ( [ +0.500000 +0.250000 +0.000000 ] spin -1 )
	mu  : -0.171300
	LUMO: -0.170033 at state 95 ( [ -0.416667 -0.083333 +0.000000 ] spin 1 )
	eMax: +0.246644 at state 78 ( [ +0.500000 +0.500000 +0.000000 ] spin 1 )
	HOMO-LUMO gap: +0.001624
	Optical gap  : +0.017721 at state 77 ( [ +0.500000 +0.416667 +0.000000 ] spin 1 )
Dumping 'jdft.Ecomponents' ... done
IonicMinimize: Iter:   0  G: -1191.591918907764466  |grad|_K:  6.143e-04  t[s]:   1043.51

#--- Lowdin population analysis ---
# oxidation-state Cu +0.122 +0.076 +0.061 +0.076 +0.124 +0.061
# magnetic-moments Cu +0.000 +0.000 +0.000 +0.000 +0.000 +0.000


Computing DFT-D3 correction:
# coordination-number Cu 6.829 9.163 9.147 9.163 6.829 9.147
# diagonal-C6 Cu 175.00 175.00 175.00 175.00 175.00 175.00
EvdW_6 =   -0.037112
EvdW_8 =   -0.054750
Shifting auxilliary hamiltonian by -0.000076 to set nElectrons=113.975159

-------- Electronic minimization -----------
	Linear fluid (dielectric constant: 78.4, screening length: 8.12261 Bohr) occupying 0.467285 of unit cell:	Completed after 17 iterations at t[s]:   1047.53
	FillingsUpdate:  mu: -0.171300000  nElectrons: 113.975159  magneticMoment: [ Abs: 0.00000  Tot: +0.00000 ]
ElecMinimize: Iter:   0  G: -1191.591920345089420  |grad|_K:  5.119e-07  alpha:  1.000e+00
	Linear fluid (dielectric constant: 78.4, screening length: 8.12261 Bohr) occupying 0.467282 of unit cell:	Completed after 21 iterations at t[s]:   1055.35
	Linear fluid (dielectric constant: 78.4, screening length: 8.12261 Bohr) occupying 0.467284 of unit cell:	Completed after 20 iterations at t[s]:   1058.14
	FillingsUpdate:  mu: -0.171300000  nElectrons: 113.976274  magneticMoment: [ Abs: 0.00000  Tot: +0.00000 ]
	SubspaceRotationAdjust: set factor to 0.0542
ElecMinimize: Iter:   1  G: -1191.591922267289192  |grad|_K:  2.177e-07  alpha:  7.349e-02  linmin: -2.801e-03  t[s]:   1061.96
	Linear fluid (dielectric constant: 78.4, screening length: 8.12261 Bohr) occupying 0.467284 of unit cell:	Completed after 9 iterations at t[s]:   1065.12
ElecMinimize: 	Predicted alpha/alphaT>3.000000, increasing alphaT to 2.204774e-01.
	Linear fluid (dielectric constant: 78.4, screening length: 8.12261 Bohr) occupying 0.467285 of unit cell:	Completed after 15 iterations at t[s]:   1067.77
	Linear fluid (dielectric constant: 78.4, screening length: 8.12261 Bohr) occupying 0.467285 of unit cell:	Completed after 9 iterations at t[s]:   1070.33
	FillingsUpdate:  mu: -0.171300000  nElectrons: 113.975856  magneticMoment: [ Abs: 0.00000  Tot: +0.00000 ]
	SubspaceRotationAdjust: set factor to 0.0613
ElecMinimize: Iter:   2  G: -1191.591923545309328  |grad|_K:  1.792e-07  alpha:  2.704e-01  linmin: -2.990e-05  t[s]:   1074.28
	Linear fluid (dielectric constant: 78.4, screening length: 8.12261 Bohr) occupying 0.467284 of unit cell:	Completed after 15 iterations at t[s]:   1077.63
	Linear fluid (dielectric constant: 78.4, screening length: 8.12261 Bohr) occupying 0.467284 of unit cell:	Completed after 12 iterations at t[s]:   1080.21
	FillingsUpdate:  mu: -0.171300000  nElectrons: 113.975713  magneticMoment: [ Abs: 0.00000  Tot: +0.00000 ]
	SubspaceRotationAdjust: set factor to 0.07
ElecMinimize: Iter:   3  G: -1191.591923912034645  |grad|_K:  8.902e-08  alpha:  1.160e-01  linmin:  3.217e-06  t[s]:   1084.03
	Linear fluid (dielectric constant: 78.4, screening length: 8.12261 Bohr) occupying 0.467284 of unit cell:	Completed after 10 iterations at t[s]:   1087.20
	Linear fluid (dielectric constant: 78.4, screening length: 8.12261 Bohr) occupying 0.467284 of unit cell:	Completed after 9 iterations at t[s]:   1089.71
	FillingsUpdate:  mu: -0.171300000  nElectrons: 113.975729  magneticMoment: [ Abs: 0.00000  Tot: +0.00000 ]
	SubspaceRotationAdjust: set factor to 0.0807
ElecMinimize: Iter:   4  G: -1191.591924099283688  |grad|_K:  7.393e-08  alpha:  2.400e-01  linmin: -2.107e-04  t[s]:   1093.53
	Linear fluid (dielectric constant: 78.4, screening length: 8.12261 Bohr) occupying 0.467284 of unit cell:	Completed after 10 iterations at t[s]:   1096.70
	Linear fluid (dielectric constant: 78.4, screening length: 8.12261 Bohr) occupying 0.467284 of unit cell:	Completed after 7 iterations at t[s]:   1099.19
	FillingsUpdate:  mu: -0.171300000  nElectrons: 113.975543  magneticMoment: [ Abs: 0.00000  Tot: +0.00000 ]
	SubspaceRotationAdjust: set factor to 0.0813
ElecMinimize: Iter:   5  G: -1191.591924207124293  |grad|_K:  8.174e-08  alpha:  2.002e-01  linmin:  7.652e-05  t[s]:   1103.02
	Linear fluid (dielectric constant: 78.4, screening length: 8.12261 Bohr) occupying 0.467283 of unit cell:	Completed after 10 iterations at t[s]:   1106.44
	Linear fluid (dielectric constant: 78.4, screening length: 8.12261 Bohr) occupying 0.467283 of unit cell:	Completed after 2 iterations at t[s]:   1108.86
	FillingsUpdate:  mu: -0.171300000  nElectrons: 113.975628  magneticMoment: [ Abs: 0.00000  Tot: +0.00000 ]
	SubspaceRotationAdjust: set factor to 0.0736
ElecMinimize: Iter:   6  G: -1191.591924330069332  |grad|_K:  7.045e-08  alpha:  1.879e-01  linmin:  5.016e-05  t[s]:   1112.68
	Linear fluid (dielectric constant: 78.4, screening length: 8.12261 Bohr) occupying 0.467283 of unit cell:	Completed after 10 iterations at t[s]:   1115.87
	Linear fluid (dielectric constant: 78.4, screening length: 8.12261 Bohr) occupying 0.467283 of unit cell:	Completed after 8 iterations at t[s]:   1118.37
	FillingsUpdate:  mu: -0.171300000  nElectrons: 113.975465  magneticMoment: [ Abs: 0.00000  Tot: +0.00000 ]
	SubspaceRotationAdjust: set factor to 0.0734
ElecMinimize: Iter:   7  G: -1191.591924400177732  |grad|_K:  6.389e-08  alpha:  1.444e-01  linmin: -5.405e-05  t[s]:   1122.20
	Linear fluid (dielectric constant: 78.4, screening length: 8.12261 Bohr) occupying 0.467284 of unit cell:	Completed after 8 iterations at t[s]:   1125.37
ElecMinimize: 	Predicted alpha/alphaT>3.000000, increasing alphaT to 4.330778e-01.
	Linear fluid (dielectric constant: 78.4, screening length: 8.12261 Bohr) occupying 0.467284 of unit cell:	Completed after 10 iterations at t[s]:   1127.92
	Linear fluid (dielectric constant: 78.4, screening length: 8.12261 Bohr) occupying 0.467284 of unit cell:	Completed after 2 iterations at t[s]:   1130.34
	FillingsUpdate:  mu: -0.171300000  nElectrons: 113.975527  magneticMoment: [ Abs: 0.00000  Tot: +0.00000 ]
	SubspaceRotationAdjust: set factor to 0.0736
ElecMinimize: Iter:   8  G: -1191.591924583266291  |grad|_K:  8.997e-08  alpha:  4.557e-01  linmin: -3.071e-05  t[s]:   1134.30
	Linear fluid (dielectric constant: 78.4, screening length: 8.12261 Bohr) occupying 0.467289 of unit cell:	Completed after 12 iterations at t[s]:   1137.74
	Linear fluid (dielectric constant: 78.4, screening length: 8.12261 Bohr) occupying 0.467286 of unit cell:	Completed after 12 iterations at t[s]:   1140.32
	FillingsUpdate:  mu: -0.171300000  nElectrons: 113.975444  magneticMoment: [ Abs: 0.00000  Tot: +0.00000 ]
	SubspaceRotationAdjust: set factor to 0.0864
ElecMinimize: Iter:   9  G: -1191.591924706063764  |grad|_K:  6.307e-08  alpha:  1.536e-01  linmin: -7.809e-06  t[s]:   1144.15
	Linear fluid (dielectric constant: 78.4, screening length: 8.12261 Bohr) occupying 0.467288 of unit cell:	Completed after 7 iterations at t[s]:   1147.25
	Linear fluid (dielectric constant: 78.4, screening length: 8.12261 Bohr) occupying 0.467290 of unit cell:	Completed after 9 iterations at t[s]:   1149.77
	FillingsUpdate:  mu: -0.171300000  nElectrons: 113.975297  magneticMoment: [ Abs: 0.00000  Tot: +0.00000 ]
	SubspaceRotationAdjust: set factor to 0.0901
ElecMinimize: Iter:  10  G: -1191.591924842702156  |grad|_K:  1.022e-07  alpha:  3.533e-01  linmin:  1.072e-04  t[s]:   1153.59
	Linear fluid (dielectric constant: 78.4, screening length: 8.12261 Bohr) occupying 0.467305 of unit cell:	Completed after 13 iterations at t[s]:   1156.82
	Linear fluid (dielectric constant: 78.4, screening length: 8.12261 Bohr) occupying 0.467297 of unit cell:	Completed after 11 iterations at t[s]:   1159.38
	FillingsUpdate:  mu: -0.171300000  nElectrons: 113.975438  magneticMoment: [ Abs: 0.00000  Tot: +0.00000 ]
	SubspaceRotationAdjust: set factor to 0.0715
ElecMinimize: Iter:  11  G: -1191.591925008244061  |grad|_K:  7.870e-08  alpha:  1.632e-01  linmin:  7.073e-06  t[s]:   1163.25
	Linear fluid (dielectric constant: 78.4, screening length: 8.12261 Bohr) occupying 0.467303 of unit cell:	Completed after 10 iterations at t[s]:   1166.68
	Linear fluid (dielectric constant: 78.4, screening length: 8.12261 Bohr) occupying 0.467302 of unit cell:	Completed after 6 iterations at t[s]:   1169.16
	FillingsUpdate:  mu: -0.171300000  nElectrons: 113.975246  magneticMoment: [ Abs: 0.00000  Tot: +0.00000 ]
	SubspaceRotationAdjust: set factor to 0.055
ElecMinimize: Iter:  12  G: -1191.591925094060798  |grad|_K:  7.349e-08  alpha:  1.413e-01  linmin:  2.091e-05  t[s]:   1172.98
	Linear fluid (dielectric constant: 78.4, screening length: 8.12261 Bohr) occupying 0.467307 of unit cell:	Completed after 9 iterations at t[s]:   1176.15
	Linear fluid (dielectric constant: 78.4, screening length: 8.12261 Bohr) occupying 0.467308 of unit cell:	Completed after 2 iterations at t[s]:   1178.53
	FillingsUpdate:  mu: -0.171300000  nElectrons: 113.975287  magneticMoment: [ Abs: 0.00000  Tot: +0.00000 ]
	SubspaceRotationAdjust: set factor to 0.061
ElecMinimize: Iter:  13  G: -1191.591925188727600  |grad|_K:  6.014e-08  alpha:  1.784e-01  linmin: -8.644e-05  t[s]:   1182.35
ElecMinimize: Converged (|Delta G|<1.000000e-07 for 2 iters).
Setting wave functions to eigenvectors of Hamiltonian
Converging empty states (this may take a while): |deigs|: 1.352e-07

Computing DFT-D3 correction:
# coordination-number Cu 6.829 9.163 9.147 9.163 6.829 9.147
# diagonal-C6 Cu 175.00 175.00 175.00 175.00 175.00 175.00
EvdW_6 =   -0.037112
EvdW_8 =   -0.054750
IonicMinimize: 	Wolfe criterion not satisfied: alpha: 1  (E-E0)/|gdotd0|: -0.92483  gdotd/gdotd0: 1.06854 (taking cubic step)

Computing DFT-D3 correction:
# coordination-number Cu 6.821 9.170 9.143 9.170 6.821 9.144
# diagonal-C6 Cu 175.00 175.00 175.00 175.00 175.00 175.00
EvdW_6 =   -0.037116
EvdW_8 =   -0.054758
Shifting auxilliary hamiltonian by 0.000038 to set nElectrons=113.975287

-------- Electronic minimization -----------
	Linear fluid (dielectric constant: 78.4, screening length: 8.12261 Bohr) occupying 0.467217 of unit cell:	Completed after 17 iterations at t[s]:   1196.65
	FillingsUpdate:  mu: -0.171300000  nElectrons: 113.975287  magneticMoment: [ Abs: 0.00000  Tot: +0.00000 ]
ElecMinimize: Iter:   0  G: -1191.591924105557382  |grad|_K:  5.418e-07  alpha:  1.000e+00
	Linear fluid (dielectric constant: 78.4, screening length: 8.12261 Bohr) occupying 0.467214 of unit cell:	Completed after 20 iterations at t[s]:   1204.37
	Linear fluid (dielectric constant: 78.4, screening length: 8.12261 Bohr) occupying 0.467217 of unit cell:	Completed after 19 iterations at t[s]:   1207.13
	FillingsUpdate:  mu: -0.171300000  nElectrons: 113.976328  magneticMoment: [ Abs: 0.00000  Tot: +0.00000 ]
	SubspaceRotationAdjust: set factor to 0.0533
ElecMinimize: Iter:   1  G: -1191.591927259246631  |grad|_K:  3.406e-07  alpha:  1.090e-01  linmin: -4.496e-04  t[s]:   1210.95
	Linear fluid (dielectric constant: 78.4, screening length: 8.12261 Bohr) occupying 0.467217 of unit cell:	Completed after 15 iterations at t[s]:   1214.25
	Linear fluid (dielectric constant: 78.4, screening length: 8.12261 Bohr) occupying 0.467217 of unit cell:	Completed after 16 iterations at t[s]:   1216.91
	FillingsUpdate:  mu: -0.171300000  nElectrons: 113.975634  magneticMoment: [ Abs: 0.00000  Tot: +0.00000 ]
	SubspaceRotationAdjust: set factor to 0.0496
ElecMinimize: Iter:   2  G: -1191.591930080269549  |grad|_K:  2.346e-07  alpha:  2.468e-01  linmin:  1.793e-05  t[s]:   1220.73
	Linear fluid (dielectric constant: 78.4, screening length: 8.12261 Bohr) occupying 0.467217 of unit cell:	Completed after 12 iterations at t[s]:   1224.13
	Linear fluid (dielectric constant: 78.4, screening length: 8.12261 Bohr) occupying 0.467217 of unit cell:	Completed after 9 iterations at t[s]:   1226.82
	FillingsUpdate:  mu: -0.171300000  nElectrons: 113.975673  magneticMoment: [ Abs: 0.00000  Tot: +0.00000 ]
	SubspaceRotationAdjust: set factor to 0.0552
ElecMinimize: Iter:   3  G: -1191.591930827417627  |grad|_K:  1.540e-07  alpha:  1.383e-01  linmin:  1.968e-05  t[s]:   1230.63
	Linear fluid (dielectric constant: 78.4, screening length: 8.12261 Bohr) occupying 0.467218 of unit cell:	Completed after 5 iterations at t[s]:   1233.69
	Linear fluid (dielectric constant: 78.4, screening length: 8.12261 Bohr) occupying 0.467218 of unit cell:	Completed after 2 iterations at t[s]:   1236.09
	FillingsUpdate:  mu: -0.171300000  nElectrons: 113.975664  magneticMoment: [ Abs: 0.00000  Tot: +0.00000 ]
	SubspaceRotationAdjust: set factor to 0.0691
ElecMinimize: Iter:   4  G: -1191.591931280051995  |grad|_K:  1.082e-07  alpha:  1.943e-01  linmin: -1.182e-04  t[s]:   1239.91
	Linear fluid (dielectric constant: 78.4, screening length: 8.12261 Bohr) occupying 0.467217 of unit cell:	Completed after 8 iterations at t[s]:   1243.06
	Linear fluid (dielectric constant: 78.4, screening length: 8.12261 Bohr) occupying 0.467216 of unit cell:	Completed after 8 iterations at t[s]:   1245.56
	FillingsUpdate:  mu: -0.171300000  nElectrons: 113.975596  magneticMoment: [ Abs: 0.00000  Tot: +0.00000 ]
	SubspaceRotationAdjust: set factor to 0.0773
ElecMinimize: Iter:   5  G: -1191.591931697515975  |grad|_K:  1.494e-07  alpha:  3.622e-01  linmin: -5.273e-06  t[s]:   1249.39
	Linear fluid (dielectric constant: 78.4, screening length: 8.12261 Bohr) occupying 0.467214 of unit cell:	Completed after 9 iterations at t[s]:   1252.55
	Linear fluid (dielectric constant: 78.4, screening length: 8.12261 Bohr) occupying 0.467215 of unit cell:	Completed after 9 iterations at t[s]:   1255.21
	FillingsUpdate:  mu: -0.171300000  nElectrons: 113.975561  magneticMoment: [ Abs: 0.00000  Tot: +0.00000 ]
	SubspaceRotationAdjust: set factor to 0.0997
ElecMinimize: Iter:   6  G: -1191.591932094420827  |grad|_K:  1.092e-07  alpha:  1.810e-01  linmin:  4.427e-06  t[s]:   1259.20
	Linear fluid (dielectric constant: 78.4, screening length: 8.12261 Bohr) occupying 0.467215 of unit cell:	Completed after 9 iterations at t[s]:   1262.39
	Linear fluid (dielectric constant: 78.4, screening length: 8.12261 Bohr) occupying 0.467215 of unit cell:	Completed after 8 iterations at t[s]:   1264.89
	FillingsUpdate:  mu: -0.171300000  nElectrons: 113.975678  magneticMoment: [ Abs: 0.00000  Tot: +0.00000 ]
	SubspaceRotationAdjust: set factor to 0.109
ElecMinimize: Iter:   7  G: -1191.591932460261660  |grad|_K:  1.754e-07  alpha:  3.124e-01  linmin: -6.636e-06  t[s]:   1268.72
	Linear fluid (dielectric constant: 78.4, screening length: 8.12261 Bohr) occupying 0.467217 of unit cell:	Completed after 12 iterations at t[s]:   1271.95
	Linear fluid (dielectric constant: 78.4, screening length: 8.12261 Bohr) occupying 0.467217 of unit cell:	Completed after 9 iterations at t[s]:   1274.45
	FillingsUpdate:  mu: -0.171300000  nElectrons: 113.975471  magneticMoment: [ Abs: 0.00000  Tot: +0.00000 ]
	SubspaceRotationAdjust: set factor to 0.107
ElecMinimize: Iter:   8  G: -1191.591933253319894  |grad|_K:  1.725e-07  alpha:  2.622e-01  linmin:  6.852e-06  t[s]:   1278.28
	Linear fluid (dielectric constant: 78.4, screening length: 8.12261 Bohr) occupying 0.467222 of unit cell:	Completed after 12 iterations at t[s]:   1281.49
	Linear fluid (dielectric constant: 78.4, screening length: 8.12261 Bohr) occupying 0.467219 of unit cell:	Completed after 11 iterations at t[s]:   1284.17
	FillingsUpdate:  mu: -0.171300000  nElectrons: 113.975829  magneticMoment: [ Abs: 0.00000  Tot: +0.00000 ]
	SubspaceRotationAdjust: set factor to 0.0886
ElecMinimize: Iter:   9  G: -1191.591933580883278  |grad|_K:  1.707e-07  alpha:  1.123e-01  linmin: -3.751e-06  t[s]:   1288.22
	Linear fluid (dielectric constant: 78.4, screening length: 8.12261 Bohr) occupying 0.467223 of unit cell:	Completed after 12 iterations at t[s]:   1291.44
	Linear fluid (dielectric constant: 78.4, screening length: 8.12261 Bohr) occupying 0.467225 of unit cell:	Completed after 10 iterations at t[s]:   1293.99
	FillingsUpdate:  mu: -0.171300000  nElectrons: 113.975427  magneticMoment: [ Abs: 0.00000  Tot: +0.00000 ]
	SubspaceRotationAdjust: set factor to 0.0758
ElecMinimize: Iter:  10  G: -1191.591934106287681  |grad|_K:  2.032e-07  alpha:  1.838e-01  linmin:  1.023e-05  t[s]:   1297.81
	Linear fluid (dielectric constant: 78.4, screening length: 8.12261 Bohr) occupying 0.467237 of unit cell:	Completed after 12 iterations at t[s]:   1301.03
	Linear fluid (dielectric constant: 78.4, screening length: 8.12261 Bohr) occupying 0.467236 of unit cell:	Completed after 2 iterations at t[s]:   1303.42
	FillingsUpdate:  mu: -0.171300000  nElectrons: 113.975514  magneticMoment: [ Abs: 0.00000  Tot: +0.00000 ]
	SubspaceRotationAdjust: set factor to 0.0874
ElecMinimize: Iter:  11  G: -1191.591934820908136  |grad|_K:  1.496e-07  alpha:  1.765e-01  linmin:  1.238e-05  t[s]:   1307.25
	Linear fluid (dielectric constant: 78.4, screening length: 8.12261 Bohr) occupying 0.467244 of unit cell:	Completed after 11 iterations at t[s]:   1310.45
[...]
	Linear fluid (dielectric constant: 78.4, screening length: 8.12261 Bohr) occupying 0.467249 of unit cell:	Completed after 8 iterations at t[s]:   1926.70
	Linear fluid (dielectric constant: 78.4, screening length: 8.12261 Bohr) occupying 0.467243 of unit cell:	Completed after 7 iterations at t[s]:   1929.18
	FillingsUpdate:  mu: -0.171300000  nElectrons: 113.975354  magneticMoment: [ Abs: 0.00000  Tot: +0.00000 ]
	SubspaceRotationAdjust: set factor to 0.0633
ElecMinimize: Iter:  14  G: -1191.591955128631071  |grad|_K:  1.067e-07  alpha:  2.694e-01  linmin: -2.835e-06  t[s]:   1933.00
	Linear fluid (dielectric constant: 78.4, screening length: 8.12261 Bohr) occupying 0.467229 of unit cell:	Completed after 8 iterations at t[s]:   1936.14
	Linear fluid (dielectric constant: 78.4, screening length: 8.12261 Bohr) occupying 0.467236 of unit cell:	Completed after 6 iterations at t[s]:   1938.61
	FillingsUpdate:  mu: -0.171300000  nElectrons: 113.975350  magneticMoment: [ Abs: 0.00000  Tot: +0.00000 ]
	SubspaceRotationAdjust: set factor to 0.0706
ElecMinimize: Iter:  15  G: -1191.591955284807909  |grad|_K:  7.017e-08  alpha:  1.394e-01  linmin:  8.116e-06  t[s]:   1942.43
	Linear fluid (dielectric constant: 78.4, screening length: 8.12261 Bohr) occupying 0.467232 of unit cell:	Completed after 2 iterations at t[s]:   1945.60
	Linear fluid (dielectric constant: 78.4, screening length: 8.12261 Bohr) occupying 0.467228 of unit cell:	Completed after 2 iterations at t[s]:   1948.05
	FillingsUpdate:  mu: -0.171300000  nElectrons: 113.975348  magneticMoment: [ Abs: 0.00000  Tot: +0.00000 ]
	SubspaceRotationAdjust: set factor to 0.0762
ElecMinimize: Iter:  16  G: -1191.591955414794938  |grad|_K:  7.742e-08  alpha:  2.690e-01  linmin:  1.609e-05  t[s]:   1951.88
	Linear fluid (dielectric constant: 78.4, screening length: 8.12261 Bohr) occupying 0.467217 of unit cell:	Completed after 6 iterations at t[s]:   1954.99
	Linear fluid (dielectric constant: 78.4, screening length: 8.12261 Bohr) occupying 0.467222 of unit cell:	Completed after 2 iterations at t[s]:   1957.36
	FillingsUpdate:  mu: -0.171300000  nElectrons: 113.975381  magneticMoment: [ Abs: 0.00000  Tot: +0.00000 ]
	SubspaceRotationAdjust: set factor to 0.0864
ElecMinimize: Iter:  17  G: -1191.591955501786060  |grad|_K:  5.013e-08  alpha:  1.479e-01  linmin:  1.025e-05  t[s]:   1961.18
	Linear fluid (dielectric constant: 78.4, screening length: 8.12261 Bohr) occupying 0.467219 of unit cell:	Completed after 2 iterations at t[s]:   1964.20
	Linear fluid (dielectric constant: 78.4, screening length: 8.12261 Bohr) occupying 0.467217 of unit cell:	Completed after 2 iterations at t[s]:   1966.59
	FillingsUpdate:  mu: -0.171300000  nElectrons: 113.975380  magneticMoment: [ Abs: 0.00000  Tot: +0.00000 ]
	SubspaceRotationAdjust: set factor to 0.0928
ElecMinimize: Iter:  18  G: -1191.591955563497777  |grad|_K:  5.292e-08  alpha:  2.502e-01  linmin:  2.946e-05  t[s]:   1970.41
ElecMinimize: Converged (|Delta G|<1.000000e-07 for 2 iters).
Setting wave functions to eigenvectors of Hamiltonian
Converging empty states (this may take a while): |deigs|: 8.635e-09

Computing DFT-D3 correction:
# coordination-number Cu 6.796 9.204 9.124 9.206 6.792 9.122
# diagonal-C6 Cu 175.00 175.00 175.00 175.00 175.00 175.00
EvdW_6 =   -0.037132
EvdW_8 =   -0.054789

# Ionic positions in cartesian coordinates:
ion Cu   0.000134529750736   2.752080545011260   1.941575629947593 1
ion Cu   2.383340129565394   4.128069326095042   9.739577689793768 1
ion Cu   2.383285339165632   1.376075390505926   5.854398332784393 1
ion Cu   0.000024254597225   2.751970122103285  13.611981735479015 1
ion Cu   2.383214289213746   4.127914565305966  21.411157978748250 1
ion Cu   2.383247457707268   1.375962050978518  17.496080633246976 1

# Forces in Cartesian coordinates:
force Cu   0.000002108173980   0.000000965029938   0.000117201776023 1
force Cu  -0.000000055965697  -0.000000287959539  -0.000362119988834 1
force Cu   0.000000867023337   0.000001387960858   0.000480005001602 1
force Cu   0.000000023080942  -0.000000528229099   0.000203595795922 1
force Cu  -0.000001238271860  -0.000001248441530   0.000006509376266 1
force Cu  -0.000000845756860  -0.000001570422921  -0.000139087499512 1

# Energy components:
   A_diel =        0.0049302943684168
   Eewald =     6671.6149292114350828
       EH =     7784.2563841285355011
     Eloc =   -15894.3160557875980885
      Enl =      219.7329936059492468
     EvdW =       -0.0919210769290865
      Exc =     -116.4441946289719425
 Exc_core =        0.2818088219265613
       KE =      123.8431486364602279
  MuShift =        0.0024243308359966
-------------------------------------
     Etot =    -1211.1155524639884788
       TS =        0.0003856133341622
-------------------------------------
        F =    -1211.1159380773226530
      muN =      -19.5239825138247731
-------------------------------------
        G =    -1191.5919555634977769


Dumping 'jdft.fillings' ... done
Dumping 'jdft.wfns' ... done
Dumping 'jdft.fluidState' ... done
Dumping 'jdft.ionpos' ... done
Dumping 'jdft.lattice' ... done
Dumping 'jdft.eigenvals' ... done
Dumping 'jdft.eigStats' ... 
	eMin: -4.313651 at state 144 ( [ +0.000000 +0.000000 +0.000000 ] spin -1 )
	HOMO: -0.171689 at state 75 ( [ +0.500000 +0.250000 +0.000000 ] spin 1 )
	mu  : -0.171300
	LUMO: -0.170065 at state 205 ( [ +0.416667 +0.083333 +0.000000 ] spin -1 )
	eMax: +0.247057 at state 6 ( [ +0.000000 +0.500000 +0.000000 ] spin 1 )
	HOMO-LUMO gap: +0.001624
	Optical gap  : +0.017993 at state 138 ( [ -0.083333 +0.500000 +0.000000 ] spin 1 )
Dumping 'jdft.Ecomponents' ... done
IonicMinimize: Iter:   4  G: -1191.591955563497777  |grad|_K:  1.528e-04  alpha:  1.000e+00  linmin:  1.765e-01  t[s]:   1980.09

#--- Lowdin population analysis ---
# oxidation-state Cu +0.122 +0.075 +0.062 +0.074 +0.124 +0.062
# magnetic-moments Cu +0.000 +0.000 -0.000 +0.000 +0.000 -0.000


Computing DFT-D3 correction:
# coordination-number Cu 6.795 9.206 9.130 9.204 6.793 9.126
# diagonal-C6 Cu 175.00 175.00 175.00 175.00 175.00 175.00
EvdW_6 =   -0.037135
EvdW_8 =   -0.054800
Shifting auxilliary hamiltonian by 0.000022 to set nElectrons=113.975380

-------- Electronic minimization -----------
	Linear fluid (dielectric constant: 78.4, screening length: 8.12261 Bohr) occupying 0.467226 of unit cell:	Completed after 17 iterations at t[s]:   1983.84
	FillingsUpdate:  mu: -0.171300000  nElectrons: 113.975380  magneticMoment: [ Abs: 0.00000  Tot: -0.00000 ]
ElecMinimize: Iter:   0  G: -1191.591951577820510  |grad|_K:  4.067e-07  alpha:  1.000e+00
	Linear fluid (dielectric constant: 78.4, screening length: 8.12261 Bohr) occupying 0.467234 of unit cell:	Completed after 17 iterations at t[s]:   1991.57
	Linear fluid (dielectric constant: 78.4, screening length: 8.12261 Bohr) occupying 0.467226 of unit cell:	Completed after 18 iterations at t[s]:   1994.25
	FillingsUpdate:  mu: -0.171300000  nElectrons: 113.976085  magneticMoment: [ Abs: 0.00000  Tot: -0.00000 ]
	SubspaceRotationAdjust: set factor to 0.0673
ElecMinimize: Iter:   1  G: -1191.591952922537757  |grad|_K:  2.493e-07  alpha:  8.240e-02  linmin: -6.439e-04  t[s]:   1998.07
	Linear fluid (dielectric constant: 78.4, screening length: 8.12261 Bohr) occupying 0.467227 of unit cell:	Completed after 12 iterations at t[s]:   2001.28
	Linear fluid (dielectric constant: 78.4, screening length: 8.12261 Bohr) occupying 0.467227 of unit cell:	Completed after 12 iterations at t[s]:   2003.98
	FillingsUpdate:  mu: -0.171300000  nElectrons: 113.975422  magneticMoment: [ Abs: 0.00000  Tot: -0.00000 ]
	SubspaceRotationAdjust: set factor to 0.0514
ElecMinimize: Iter:   2  G: -1191.591953872306703  |grad|_K:  2.486e-07  alpha:  1.547e-01  linmin: -1.585e-04  t[s]:   2007.93
	Linear fluid (dielectric constant: 78.4, screening length: 8.12261 Bohr) occupying 0.467227 of unit cell:	Completed after 11 iterations at t[s]:   2011.14
	Linear fluid (dielectric constant: 78.4, screening length: 8.12261 Bohr) occupying 0.467227 of unit cell:	Completed after 2 iterations at t[s]:   2013.51
	FillingsUpdate:  mu: -0.171300000  nElectrons: 113.975473  magneticMoment: [ Abs: 0.00000  Tot: -0.00000 ]
	SubspaceRotationAdjust: set factor to 0.0775
ElecMinimize: Iter:   3  G: -1191.591954798862616  |grad|_K:  1.411e-07  alpha:  1.522e-01  linmin: -6.933e-06  t[s]:   2017.34
	Linear fluid (dielectric constant: 78.4, screening length: 8.12261 Bohr) occupying 0.467227 of unit cell:	Completed after 12 iterations at t[s]:   2020.56
	Linear fluid (dielectric constant: 78.4, screening length: 8.12261 Bohr) occupying 0.467227 of unit cell:	Completed after 2 iterations at t[s]:   2022.95
	FillingsUpdate:  mu: -0.171300000  nElectrons: 113.975740  magneticMoment: [ Abs: 0.00000  Tot: -0.00000 ]
	SubspaceRotationAdjust: set factor to 0.0642
ElecMinimize: Iter:   4  G: -1191.591955080784146  |grad|_K:  1.063e-07  alpha:  1.441e-01  linmin:  5.113e-04  t[s]:   2026.78
	Linear fluid (dielectric constant: 78.4, screening length: 8.12261 Bohr) occupying 0.467227 of unit cell:	Completed after 11 iterations at t[s]:   2029.98
	Linear fluid (dielectric constant: 78.4, screening length: 8.12261 Bohr) occupying 0.467227 of unit cell:	Completed after 7 iterations at t[s]:   2032.46
	FillingsUpdate:  mu: -0.171300000  nElectrons: 113.975489  magneticMoment: [ Abs: 0.00000  Tot: -0.00000 ]
	SubspaceRotationAdjust: set factor to 0.0534
ElecMinimize: Iter:   5  G: -1191.591955216228143  |grad|_K:  7.979e-08  alpha:  1.233e-01  linmin: -4.085e-04  t[s]:   2036.44
	Linear fluid (dielectric constant: 78.4, screening length: 8.12261 Bohr) occupying 0.467227 of unit cell:	Completed after 6 iterations at t[s]:   2039.54
	Linear fluid (dielectric constant: 78.4, screening length: 8.12261 Bohr) occupying 0.467227 of unit cell:	Completed after 6 iterations at t[s]:   2042.01
	FillingsUpdate:  mu: -0.171300000  nElectrons: 113.975511  magneticMoment: [ Abs: 0.00000  Tot: -0.00000 ]
	SubspaceRotationAdjust: set factor to 0.0611
ElecMinimize: Iter:   6  G: -1191.591955374029340  |grad|_K:  1.003e-07  alpha:  2.502e-01  linmin: -4.323e-05  t[s]:   2045.84
	Linear fluid (dielectric constant: 78.4, screening length: 8.12261 Bohr) occupying 0.467227 of unit cell:	Completed after 12 iterations at t[s]:   2049.06
	Linear fluid (dielectric constant: 78.4, screening length: 8.12261 Bohr) occupying 0.467227 of unit cell:	Completed after 2 iterations at t[s]:   2051.44
	FillingsUpdate:  mu: -0.171300000  nElectrons: 113.975618  magneticMoment: [ Abs: 0.00000  Tot: -0.00000 ]
	SubspaceRotationAdjust: set factor to 0.0661
ElecMinimize: Iter:   7  G: -1191.591955603855467  |grad|_K:  7.686e-08  alpha:  2.320e-01  linmin:  2.759e-05  t[s]:   2055.26
	Linear fluid (dielectric constant: 78.4, screening length: 8.12261 Bohr) occupying 0.467228 of unit cell:	Completed after 12 iterations at t[s]:   2058.49
	Linear fluid (dielectric constant: 78.4, screening length: 8.12261 Bohr) occupying 0.467228 of unit cell:	Completed after 9 iterations at t[s]:   2061.00
	FillingsUpdate:  mu: -0.171300000  nElectrons: 113.975438  magneticMoment: [ Abs: 0.00000  Tot: -0.00000 ]
	SubspaceRotationAdjust: set factor to 0.0596
ElecMinimize: Iter:   8  G: -1191.591955689724728  |grad|_K:  7.667e-08  alpha:  1.492e-01  linmin: -4.729e-05  t[s]:   2064.97
	Linear fluid (dielectric constant: 78.4, screening length: 8.12261 Bohr) occupying 0.467228 of unit cell:	Completed after 9 iterations at t[s]:   2068.16
	Linear fluid (dielectric constant: 78.4, screening length: 8.12261 Bohr) occupying 0.467228 of unit cell:	Completed after 9 iterations at t[s]:   2070.69
	FillingsUpdate:  mu: -0.171300000  nElectrons: 113.975540  magneticMoment: [ Abs: 0.00000  Tot: -0.00000 ]
	SubspaceRotationAdjust: set factor to 0.0636
ElecMinimize: Iter:   9  G: -1191.591955891653924  |grad|_K:  1.026e-07  alpha:  3.483e-01  linmin: -3.854e-05  t[s]:   2074.51
	Linear fluid (dielectric constant: 78.4, screening length: 8.12261 Bohr) occupying 0.467230 of unit cell:	Completed after 10 iterations at t[s]:   2077.67
	Linear fluid (dielectric constant: 78.4, screening length: 8.12261 Bohr) occupying 0.467229 of unit cell:	Completed after 9 iterations at t[s]:   2080.19
	FillingsUpdate:  mu: -0.171300000  nElectrons: 113.975629  magneticMoment: [ Abs: 0.00000  Tot: -0.00000 ]
	SubspaceRotationAdjust: set factor to 0.0687
ElecMinimize: Iter:  10  G: -1191.591956069233447  |grad|_K:  8.150e-08  alpha:  1.709e-01  linmin:  7.598e-06  t[s]:   2084.02
	Linear fluid (dielectric constant: 78.4, screening length: 8.12261 Bohr) occupying 0.467230 of unit cell:	Completed after 10 iterations at t[s]:   2087.19
	Linear fluid (dielectric constant: 78.4, screening length: 8.12261 Bohr) occupying 0.467230 of unit cell:	Completed after 9 iterations at t[s]:   2090.63
	FillingsUpdate:  mu: -0.171300000  nElectrons: 113.975508  magneticMoment: [ Abs: 0.00000  Tot: -0.00000 ]
	SubspaceRotationAdjust: set factor to 0.0667
ElecMinimize: Iter:  11  G: -1191.591956235115958  |grad|_K:  9.831e-08  alpha:  2.544e-01  linmin:  3.132e-06  t[s]:   2095.20
	Linear fluid (dielectric constant: 78.4, screening length: 8.12261 Bohr) occupying 0.467231 of unit cell:	Completed after 11 iterations at t[s]:   2098.45
	Linear fluid (dielectric constant: 78.4, screening length: 8.12261 Bohr) occupying 0.467230 of unit cell:	Completed after 10 iterations at t[s]:   2100.99
	FillingsUpdate:  mu: -0.171300000  nElectrons: 113.975664  magneticMoment: [ Abs: 0.00000  Tot: -0.00000 ]
	SubspaceRotationAdjust: set factor to 0.0607
ElecMinimize: Iter:  12  G: -1191.591956391640224  |grad|_K:  8.310e-08  alpha:  1.650e-01  linmin:  5.806e-06  t[s]:   2104.81
	Linear fluid (dielectric constant: 78.4, screening length: 8.12261 Bohr) occupying 0.467231 of unit cell:	Completed after 8 iterations at t[s]:   2107.95
	Linear fluid (dielectric constant: 78.4, screening length: 8.12261 Bohr) occupying 0.467231 of unit cell:	Completed after 6 iterations at t[s]:   2110.40
	FillingsUpdate:  mu: -0.171300000  nElectrons: 113.975574  magneticMoment: [ Abs: 0.00000  Tot: -0.00000 ]
	SubspaceRotationAdjust: set factor to 0.0623
ElecMinimize: Iter:  13  G: -1191.591956548380267  |grad|_K:  8.337e-08  alpha:  2.311e-01  linmin: -1.310e-05  t[s]:   2114.23
	Linear fluid (dielectric constant: 78.4, screening length: 8.12261 Bohr) occupying 0.467232 of unit cell:	Completed after 7 iterations at t[s]:   2117.36
	Linear fluid (dielectric constant: 78.4, screening length: 8.12261 Bohr) occupying 0.467232 of unit cell:	Completed after 2 iterations at t[s]:   2119.74
	FillingsUpdate:  mu: -0.171300000  nElectrons: 113.975544  magneticMoment: [ Abs: 0.00000  Tot: -0.00000 ]
	SubspaceRotationAdjust: set factor to 0.0679
ElecMinimize: Iter:  14  G: -1191.591956659540301  |grad|_K:  6.490e-08  alpha:  1.628e-01  linmin:  1.388e-05  t[s]:   2123.63
	Linear fluid (dielectric constant: 78.4, screening length: 8.12261 Bohr) occupying 0.467232 of unit cell:	Completed after 10 iterations at t[s]:   2126.97
	Linear fluid (dielectric constant: 78.4, screening length: 8.12261 Bohr) occupying 0.467232 of unit cell:	Completed after 5 iterations at t[s]:   2129.40
	FillingsUpdate:  mu: -0.171300000  nElectrons: 113.975638  magneticMoment: [ Abs: 0.00000  Tot: -0.00000 ]
	SubspaceRotationAdjust: set factor to 0.0653
ElecMinimize: Iter:  15  G: -1191.591956747986160  |grad|_K:  6.996e-08  alpha:  2.135e-01  linmin: -6.286e-05  t[s]:   2133.23
	Linear fluid (dielectric constant: 78.4, screening length: 8.12261 Bohr) occupying 0.467232 of unit cell:	Completed after 10 iterations at t[s]:   2136.42
	Linear fluid (dielectric constant: 78.4, screening length: 8.12261 Bohr) occupying 0.467232 of unit cell:	Completed after 7 iterations at t[s]:   2138.88
	FillingsUpdate:  mu: -0.171300000  nElectrons: 113.975529  magneticMoment: [ Abs: 0.00000  Tot: -0.00000 ]
	SubspaceRotationAdjust: set factor to 0.0574
ElecMinimize: Iter:  16  G: -1191.591956823506735  |grad|_K:  4.748e-08  alpha:  1.561e-01  linmin:  7.149e-05  t[s]:   2142.71
ElecMinimize: Converged (|Delta G|<1.000000e-07 for 2 iters).
Setting wave functions to eigenvectors of Hamiltonian
Converging empty states (this may take a while): |deigs|: 7.873e-09

Computing DFT-D3 correction:
# coordination-number Cu 6.795 9.206 9.130 9.204 6.793 9.126
# diagonal-C6 Cu 175.00 175.00 175.00 175.00 175.00 175.00
EvdW_6 =   -0.037135
EvdW_8 =   -0.054800

# Ionic positions in cartesian coordinates:
ion Cu   0.000159784587167   2.752095812515788   1.942698301316887 1
ion Cu   2.383341142488823   4.128072756489042   9.737544525615249 1
ion Cu   2.383290033796594   1.376093473726950   5.856589433411591 1
ion Cu   0.000024475491867   2.751964873619348  13.613041588050052 1
ion Cu   2.383195308152660   4.127896395700323  21.409746026340926 1
ion Cu   2.383235255482891   1.375948687948546  17.495152125265289 1

# Forces in Cartesian coordinates:
force Cu   0.000003907666319   0.000002001686711   0.000314956696107 1
force Cu   0.000000344758103   0.000000437921509  -0.000091871576952 1
force Cu   0.000001090492243   0.000002482824066   0.000242708799691 1
force Cu   0.000000170353372  -0.000000720859489   0.000037664636654 1
force Cu  -0.000002581731590  -0.000002515724535  -0.000004207249318 1
force Cu  -0.000001692219883  -0.000002407188102  -0.000141256927000 1

# Energy components:
   A_diel =        0.0049012776998420
   Eewald =     6672.9229159145825179
       EH =     7785.5610040003184622
     Eloc =   -15896.9286863839770376
      Enl =      219.7330742402213559
     EvdW =       -0.0919345123433310
      Exc =     -116.4443741267821366
 Exc_core =        0.2818088692962705
       KE =      123.8433021387874646
  MuShift =        0.0024095757079616
-------------------------------------
     Etot =    -1211.1155790064883604
       TS =        0.0003859995957244
-------------------------------------
        F =    -1211.1159650060840249
      muN =      -19.5240081825773935
-------------------------------------
        G =    -1191.5919568235067345


Dumping 'jdft.fillings' ... done
Dumping 'jdft.wfns' ... done
Dumping 'jdft.fluidState' ... done
Dumping 'jdft.ionpos' ... done
Dumping 'jdft.lattice' ... done
Dumping 'jdft.eigenvals' ... done
Dumping 'jdft.eigStats' ... 
	eMin: -4.313699 at state 144 ( [ +0.000000 +0.000000 +0.000000 ] spin -1 )
	HOMO: -0.171747 at state 81 ( [ +0.500000 -0.250000 +0.000000 ] spin 1 )
	mu  : -0.171300
	LUMO: -0.170122 at state 205 ( [ +0.416667 +0.083333 +0.000000 ] spin -1 )
	eMax: +0.247094 at state 6 ( [ +0.000000 +0.500000 +0.000000 ] spin 1 )
	HOMO-LUMO gap: +0.001625
	Optical gap  : +0.017992 at state 18 ( [ +0.083333 +0.500000 +0.000000 ] spin 1 )
Dumping 'jdft.Ecomponents' ... done
IonicMinimize: Iter:   5  G: -1191.591956823506735  |grad|_K:  9.621e-05  alpha:  1.000e+00  linmin: -7.654e-01  t[s]:   2152.16
IonicMinimize: Converged (|grad|_K<1.000000e-04).

#--- Lowdin population analysis ---
# oxidation-state Cu +0.122 +0.075 +0.062 +0.074 +0.124 +0.061
# magnetic-moments Cu -0.000 -0.000 +0.000 -0.000 -0.000 +0.000


Dumping 'jdft.n_up' ... done
Dumping 'jdft.n_dn' ... done
Dumping 'jdft.tau_up' ... done
Dumping 'jdft.tau_dn' ... done
Dumping 'jdft.eigenvals' ... done
Dumping 'jdft.eigStats' ... 
	eMin: -4.313699 at state 144 ( [ +0.000000 +0.000000 +0.000000 ] spin -1 )
	HOMO: -0.171747 at state 81 ( [ +0.500000 -0.250000 +0.000000 ] spin 1 )
	mu  : -0.171300
	LUMO: -0.170122 at state 205 ( [ +0.416667 +0.083333 +0.000000 ] spin -1 )
	eMax: +0.247094 at state 6 ( [ +0.000000 +0.500000 +0.000000 ] spin 1 )
	HOMO-LUMO gap: +0.001625
	Optical gap  : +0.017992 at state 18 ( [ +0.083333 +0.500000 +0.000000 ] spin 1 )
Dumping 'jdft.kPts' ... done
Dumping 'jdft.dosUp' ... done.
Dumping 'jdft.dosDn' ... done.
End date and time: Mon Dec  6 16:38:06 2021  (Duration: 0-0:35:59.26)
Done!
