
*************** JDFTx 1.6.0  ***************

Start date and time: Mon Dec  6 15:38:17 2021
Executable /projects/musgravc/apps/jdftx-1.6.1/build/jdftx with command-line: -i in
Running on hosts (process indices):  shas0545.rc.int.colorado.edu (0-23)
Divided in process groups (process indices):  0 (0)  1 (1)  2 (2)  3 (3)  4 (4)  5 (5)  6 (6)  7 (7)  8 (8)  9 (9)  10 (10)  11 (11)  12 (12)  13 (13)  14 (14)  15 (15)  16 (16)  17 (17)  18 (18)  19 (19)  20 (20)  21 (21)  22 (22)  23 (23)
Resource initialization completed at t[s]:      0.00
Run totals: 24 processes, 24 threads, 0 GPUs


Input parsed successfully to the following command list (including defaults):

basis kpoint-dependent
converge-empty-states yes
coords-type Cartesian
core-overlap-check none
coulomb-interaction Periodic
davidson-band-ratio 1.1
density-of-states Etol 1.000000e-06 Esigma 1.000000e-03 \
		Complete \
	Total \
	OrthoOrbital Cu 1   s \
	OrthoOrbital Cu 1   p \
	OrthoOrbital Cu 1   px \
	OrthoOrbital Cu 1   py \
	OrthoOrbital Cu 1   pz \
	OrthoOrbital Cu 1   d \
	OrthoOrbital Cu 1   dxy \
	OrthoOrbital Cu 1   dyz \
	OrthoOrbital Cu 1   dz2 \
	OrthoOrbital Cu 1   dxz \
	OrthoOrbital Cu 1   dx2-y2 \
	OrthoOrbital Cu 2   s \
	OrthoOrbital Cu 2   p \
	OrthoOrbital Cu 2   px \
	OrthoOrbital Cu 2   py \
	OrthoOrbital Cu 2   pz \
	OrthoOrbital Cu 2   d \
	OrthoOrbital Cu 2   dxy \
	OrthoOrbital Cu 2   dyz \
	OrthoOrbital Cu 2   dz2 \
	OrthoOrbital Cu 2   dxz \
	OrthoOrbital Cu 2   dx2-y2 \
	OrthoOrbital Cu 3   s \
	OrthoOrbital Cu 3   p \
	OrthoOrbital Cu 3   px \
	OrthoOrbital Cu 3   py \
	OrthoOrbital Cu 3   pz \
	OrthoOrbital Cu 3   d \
	OrthoOrbital Cu 3   dxy \
	OrthoOrbital Cu 3   dyz \
	OrthoOrbital Cu 3   dz2 \
	OrthoOrbital Cu 3   dxz \
	OrthoOrbital Cu 3   dx2-y2 \
	OrthoOrbital Cu 4   s \
	OrthoOrbital Cu 4   p \
	OrthoOrbital Cu 4   px \
	OrthoOrbital Cu 4   py \
	OrthoOrbital Cu 4   pz \
	OrthoOrbital Cu 4   d \
	OrthoOrbital Cu 4   dxy \
	OrthoOrbital Cu 4   dyz \
	OrthoOrbital Cu 4   dz2 \
	OrthoOrbital Cu 4   dxz \
	OrthoOrbital Cu 4   dx2-y2 \
	OrthoOrbital Cu 5   s \
	OrthoOrbital Cu 5   p \
	OrthoOrbital Cu 5   px \
	OrthoOrbital Cu 5   py \
	OrthoOrbital Cu 5   pz \
	OrthoOrbital Cu 5   d \
	OrthoOrbital Cu 5   dxy \
	OrthoOrbital Cu 5   dyz \
	OrthoOrbital Cu 5   dz2 \
	OrthoOrbital Cu 5   dxz \
	OrthoOrbital Cu 5   dx2-y2 \
	OrthoOrbital Cu 6   s \
	OrthoOrbital Cu 6   p \
	OrthoOrbital Cu 6   px \
	OrthoOrbital Cu 6   py \
	OrthoOrbital Cu 6   pz \
	OrthoOrbital Cu 6   d \
	OrthoOrbital Cu 6   dxy \
	OrthoOrbital Cu 6   dyz \
	OrthoOrbital Cu 6   dz2 \
	OrthoOrbital Cu 6   dxz \
	OrthoOrbital Cu 6   dx2-y2
dump End ElecDensity KEdensity BandEigs EigStats RhoAtom DOS Kpoints
dump Ionic State IonicPositions Lattice EigStats Ecomponents
dump 
dump 
dump 
dump 
dump 
dump 
dump 
dump 
dump-name jdft.$VAR
elec-cutoff 20
elec-eigen-algo Davidson
elec-ex-corr gga-PBE
elec-initial-magnetization 0.000000 no
elec-n-bands 69
elec-smearing Fermi 0.001
electronic-minimize  \
	dirUpdateScheme      FletcherReeves \
	linminMethod         DirUpdateRecommended \
	nIterations          100 \
	history              15 \
	knormThreshold       0 \
	energyDiffThreshold  1e-07 \
	nEnergyDiff          2 \
	alphaTstart          1 \
	alphaTmin            1e-10 \
	updateTestStepSize   yes \
	alphaTreduceFactor   0.1 \
	alphaTincreaseFactor 3 \
	nAlphaAdjustMax      3 \
	wolfeEnergy          0.0001 \
	wolfeGradient        0.9 \
	fdTest               no
exchange-regularization WignerSeitzTruncated
fluid LinearPCM 298.000000 1.013250
fluid-anion F- 0.5 MeanFieldLJ \
	epsBulk 1 \
	pMol 0 \
	epsInf 1 \
	Pvap 0 \
	sigmaBulk 0 \
	Rvdw 2.24877 \
	Res 0 \
	tauNuc 343133
fluid-cation Na+ 0.5 MeanFieldLJ \
	epsBulk 1 \
	pMol 0 \
	epsInf 1 \
	Pvap 0 \
	sigmaBulk 0 \
	Rvdw 2.19208 \
	Res 0 \
	tauNuc 343133
fluid-ex-corr lda-TF lda-PZ
fluid-gummel-loop 10 1.000000e-05
fluid-minimize  \
	dirUpdateScheme      PolakRibiere \
	linminMethod         DirUpdateRecommended \
	nIterations          400 \
	history              15 \
	knormThreshold       1e-11 \
	energyDiffThreshold  0 \
	nEnergyDiff          2 \
	alphaTstart          1 \
	alphaTmin            1e-10 \
	updateTestStepSize   yes \
	alphaTreduceFactor   0.1 \
	alphaTincreaseFactor 3 \
	nAlphaAdjustMax      6 \
	wolfeEnergy          0.0001 \
	wolfeGradient        0.9 \
	fdTest               no
fluid-solvent H2O 55.338 ScalarEOS \
	epsBulk 78.4 \
	pMol 0.92466 \
	epsInf 1.77 \
	Pvap 1.06736e-10 \
	sigmaBulk 4.62e-05 \
	Rvdw 2.61727 \
	Res 1.42 \
	tauNuc 343133 \
	poleEl 15 7 1
forces-output-coords Positions
ion Cu  -0.000002000000000   2.752013000000000   1.945946000000000 1
ion Cu   2.383311000000000   4.128017999999999   9.729848999999998 1
ion Cu   2.383313999999999   1.376005000000000   5.837898000000000 1
ion Cu  -0.000002000000000   2.752013000000000  13.621741999999999 1
ion Cu   2.383311000000000   4.128017999999999  21.405643999999999 1
ion Cu   2.383313999999999   1.376005000000000  17.513693000000000 1
ion-species /projects/musgravc/apps/jdftx-1.6.0/build/pseudopotentials/GBRV_v1.5/$ID_pbe_v1.uspp
ion-species /projects/musgravc/apps/jdftx-1.6.0/build/pseudopotentials/GBRV_v1.5/$ID_pbe_v1.2.uspp
ion-species /projects/musgravc/apps/jdftx-1.6.0/build/pseudopotentials/GBRV_v1.5/$ID_pbe_v1.4.uspp
ion-species /projects/musgravc/apps/jdftx-1.6.0/build/pseudopotentials/GBRV_v1.5/$ID_pbe_v1.5.uspp
ion-width Ecut
ionic-minimize  \
	dirUpdateScheme      L-BFGS \
	linminMethod         DirUpdateRecommended \
	nIterations          100 \
	history              15 \
	knormThreshold       0.0001 \
	energyDiffThreshold  1e-06 \
	nEnergyDiff          2 \
	alphaTstart          1 \
	alphaTmin            1e-10 \
	updateTestStepSize   yes \
	alphaTreduceFactor   0.1 \
	alphaTincreaseFactor 3 \
	nAlphaAdjustMax      3 \
	wolfeEnergy          0.0001 \
	wolfeGradient        0.9 \
	fdTest               no
kpoint   0.000000000000   0.000000000000   0.000000000000  1.00000000000000
kpoint-folding 12 12 1 
latt-move-scale 0 0 0
latt-scale 1 1 1 
lattice  \
	   4.766623000000000   -2.383311000000000    0.000000000000000  \
	   0.000000000000000    4.128018000000000    0.000000000000000  \
	   0.000000000000000    0.000000000000000   58.378976999999999 
lattice-minimize  \
	dirUpdateScheme      L-BFGS \
	linminMethod         DirUpdateRecommended \
	nIterations          0 \
	history              15 \
	knormThreshold       0 \
	energyDiffThreshold  1e-06 \
	nEnergyDiff          2 \
	alphaTstart          1 \
	alphaTmin            1e-10 \
	updateTestStepSize   yes \
	alphaTreduceFactor   0.1 \
	alphaTincreaseFactor 3 \
	nAlphaAdjustMax      3 \
	wolfeEnergy          0.0001 \
	wolfeGradient        0.9 \
	fdTest               no
lcao-params 30 1e-06 0.001
pcm-variant CANDLE
spintype z-spin
subspace-rotation-factor 1 yes
symmetries none
symmetry-threshold 0.0001
target-mu -0.0978 no

van-der-waals D3


Applied RMS atom displacement 0 bohrs to make symmetries exact.

---------- Initializing the Grid ----------
R = 
[      4.76662     -2.38331            0  ]
[            0      4.12802            0  ]
[            0            0       58.379  ]
unit cell volume = 1148.71
G =
[    1.31816   0.761041         -0  ]
[          0    1.52208          0  ]
[          0         -0   0.107628  ]
Minimum fftbox size, Smin = [  20  20  236  ]
Chosen fftbox size, S = [  20  20  240  ]

---------- Exchange Correlation functional ----------
Initalized PBE GGA exchange.
Initalized PBE GGA correlation.

---------- Setting up pseudopotentials ----------
Width of ionic core gaussian charges (only for fluid interactions / plotting) set to 0.397384

Reading pseudopotential file '/projects/musgravc/apps/jdftx-1.6.0/build/pseudopotentials/GBRV_v1.5/cu_pbe_v1.2.uspp':
  Title: Cu.  Created by USPP 7.3.6 on 3-2-2014
  Reference state energy: -201.059491.  19 valence electrons in orbitals:
    |300>  occupation: 2  eigenvalue: -5.020764
    |310>  occupation: 6  eigenvalue: -3.445588
    |320>  occupation: 8  eigenvalue: -0.925168
    |400>  occupation: 2  eigenvalue: -0.567638
    |410>  occupation: 0  eigenvalue: -0.326154
  lMax: 2  lLocal: 3  QijEcut: 6
  6 projectors sampled on a log grid with 613 points:
    l: 0  eig: -5.020767  rCut: 1.4
    l: 0  eig: -0.567640  rCut: 1.4
    l: 1  eig: -3.445589  rCut: 1.55
    l: 1  eig: -0.326157  rCut: 1.55
    l: 2  eig: -0.925170  rCut: 1.5
    l: 2  eig: 1.500000  rCut: 1.5
  Partial core density with radius 0.8
  Transforming core density to a uniform radial grid of dG=0.02 with 1473 points.
  Transforming local potential to a uniform radial grid of dG=0.02 with 1473 points.
  Transforming nonlocal projectors to a uniform radial grid of dG=0.02 with 432 points.
  Transforming density augmentations to a uniform radial grid of dG=0.02 with 1473 points.
  Transforming atomic orbitals to a uniform radial grid of dG=0.02 with 432 points.
  Core radius for overlap checks: 1.55 bohrs.

Initialized 1 species with 6 total atoms.

Folded 1 k-points by 12x12x1 to 144 k-points.

---------- Setting up k-points, bands, fillings ----------
No reducable k-points. 
Computing the number of bands and number of electrons
Calculating initial fillings.
nElectrons: 114.000000   nBands: 69   nStates: 288

----- Setting up reduced wavefunction bases (one per k-point) -----
average nbasis = 4908.354 , ideal nbasis = 4907.359

----- Initializing Supercell corresponding to k-point mesh -----
Lattice vector linear combinations in supercell:
[  12   0   0  ]
[   0  12   0  ]
[   0   0   1  ]
Supercell lattice vectors:
[  57.1995  -28.5997  0  ]
[  0  49.5362  0  ]
[  0  0  58.379  ]

Initializing DFT-D3 calculator:
	Parameters set for gga-PBE functional
	s6:  1.000  s_r6:  1.217
	s8:  0.722  s_r8:  1.000
	Per-atom parameters loaded for:
	Cu:  sqrtQ[a0]:  5.226  Rcov[a0]:  1.909  CN: [ 0.00 0.96 ]

Initializing DFT-D2 calculator for fluid / solvation:
	Cu:  C6:  187.33 Eh-a0^6  R0: 2.952 a0

---------- Setting up ewald sum ----------
Optimum gaussian width for ewald sums = 3.099473 bohr.
Real space sum over 1805 unit cells with max indices [  9  9  2  ]
Reciprocal space sum over 4941 terms with max indices [  4  4  30  ]

Computing DFT-D3 correction:
# coordination-number Cu 6.833 9.159 9.149 9.159 6.833 9.149
# diagonal-C6 Cu 175.00 175.00 175.00 175.00 175.00 175.00
EvdW_6 =   -0.037110
EvdW_8 =   -0.054747

---------- Allocating electronic variables ----------
Initializing wave functions:  linear combination of atomic orbitals
Cu pseudo-atom occupations:   s ( 2 1 )  p ( 6 0 )  d ( 10 )
	FillingsUpdate:  mu: -0.097800000  nElectrons: 114.000000  magneticMoment: [ Abs: 0.08925  Tot: +0.00635 ]
LCAOMinimize: Iter:   0  G: -1159.6706888325077216  |grad|_K:  3.718e-02  alpha:  1.000e+00
LCAOMinimize: 	Step increased G by 3.797845e+02, reducing alpha to 4.316896e-02.
LCAOMinimize: 	Step increased G by 6.669107e+01, reducing alpha to 4.316896e-03.
	FillingsUpdate:  mu: -0.097800000  nElectrons: 114.000000  magneticMoment: [ Abs: 0.08942  Tot: -0.00343 ]
LCAOMinimize: Iter:   1  G: -1168.1738148558438297  |grad|_K:  1.562e-02  alpha:  4.317e-03  linmin: -1.595e-01  cgtest:  7.156e-01  t[s]:     24.94
LCAOMinimize: Encountered beta<0, resetting CG.
	FillingsUpdate:  mu: -0.097800000  nElectrons: 114.000000  magneticMoment: [ Abs: 0.10061  Tot: -0.01735 ]
LCAOMinimize: Iter:   2  G: -1170.7955806643535652  |grad|_K:  1.526e-02  alpha:  1.057e-02  linmin: -3.696e-02  cgtest: -5.382e-02  t[s]:     31.18
LCAOMinimize: 	Wrong curvature in test step, increasing alphaT to 3.170249e-02.
	FillingsUpdate:  mu: -0.097800000  nElectrons: 114.000000  magneticMoment: [ Abs: 0.06282  Tot: -0.01409 ]
LCAOMinimize: Iter:   3  G: -1179.7990191901044454  |grad|_K:  2.060e-02  alpha: -8.763e-03  linmin: -6.042e-02  cgtest:  7.587e-01  t[s]:     37.28
	FillingsUpdate:  mu: -0.097800000  nElectrons: 114.000000  magneticMoment: [ Abs: 0.00157  Tot: -0.00056 ]
LCAOMinimize: Iter:   4  G: -1186.4137867448946508  |grad|_K:  3.203e-03  alpha:  5.010e-01  linmin:  3.237e-02  cgtest: -9.887e+00  t[s]:     43.70
LCAOMinimize: 	Bad step direction: g.d > 0.
LCAOMinimize: 	Undoing step.
LCAOMinimize: 	Step failed: resetting search direction.
	FillingsUpdate:  mu: -0.097800000  nElectrons: 114.000000  magneticMoment: [ Abs: 0.00157  Tot: -0.00056 ]
LCAOMinimize: Iter:   5  G: -1186.4137867448946508  |grad|_K:  3.203e-03  alpha:  0.000e+00
	FillingsUpdate:  mu: -0.097800000  nElectrons: 114.000000  magneticMoment: [ Abs: 0.00172  Tot: -0.00055 ]
LCAOMinimize: Iter:   6  G: -1186.7762621920358015  |grad|_K:  3.844e-03  alpha:  7.180e-03  linmin: -2.967e-02  cgtest:  7.456e-01  t[s]:     54.76
	FillingsUpdate:  mu: -0.097800000  nElectrons: 114.000000  magneticMoment: [ Abs: 0.00162  Tot: +0.00042 ]
LCAOMinimize: Iter:   7  G: -1187.1604677084783361  |grad|_K:  3.030e-03  alpha:  1.174e-02  linmin: -7.950e-02  cgtest:  9.871e-01  t[s]:     61.00
LCAOMinimize: Encountered beta<0, resetting CG.
LCAOMinimize: 	Wrong curvature in test step, increasing alphaT to 3.522265e-02.
	FillingsUpdate:  mu: -0.097800000  nElectrons: 114.000000  magneticMoment: [ Abs: 0.00175  Tot: -0.00029 ]
LCAOMinimize: Iter:   8  G: -1187.3564406047098601  |grad|_K:  3.099e-03  alpha: -5.125e-01  linmin: -7.192e-02  cgtest:  9.461e-01  t[s]:     67.11
	FillingsUpdate:  mu: -0.097800000  nElectrons: 114.000000  magneticMoment: [ Abs: 0.00453  Tot: -0.00091 ]
LCAOMinimize: Iter:   9  G: -1188.3468394755805093  |grad|_K:  3.286e-03  alpha:  3.571e-02  linmin: -6.183e-02  cgtest:  8.094e-01  t[s]:     73.51
LCAOMinimize: 	Wrong curvature in test step, increasing alphaT to 1.071187e-01.
	FillingsUpdate:  mu: -0.097800000  nElectrons: 114.000000  magneticMoment: [ Abs: 0.00147  Tot: +0.00004 ]
LCAOMinimize: Iter:  10  G: -1189.4214698754451547  |grad|_K:  3.258e-03  alpha: -1.099e-01  linmin: -6.586e-02  cgtest:  8.053e-01  t[s]:     79.83
	FillingsUpdate:  mu: -0.097800000  nElectrons: 114.000000  magneticMoment: [ Abs: 0.00342  Tot: -0.00313 ]
LCAOMinimize: Iter:  11  G: -1190.8717223517849106  |grad|_K:  2.645e-03  alpha:  5.255e-02  linmin: -2.823e-02  cgtest:  7.009e-01  t[s]:     86.04
	FillingsUpdate:  mu: -0.097800000  nElectrons: 114.000000  magneticMoment: [ Abs: 0.00113  Tot: +0.00022 ]
LCAOMinimize: Iter:  12  G: -1191.9566387223335369  |grad|_K:  2.073e-03  alpha:  1.117e-01  linmin: -2.105e-02  cgtest:  3.625e-01  t[s]:     92.27
LCAOMinimize: 	Wrong curvature in test step, increasing alphaT to 3.350927e-01.
	FillingsUpdate:  mu: -0.097800000  nElectrons: 114.000000  magneticMoment: [ Abs: 0.00082  Tot: +0.00020 ]
LCAOMinimize: Iter:  13  G: -1193.0370618948770698  |grad|_K:  1.999e-03  alpha: -1.270e+01  linmin: -6.760e-02  cgtest:  7.105e-01  t[s]:     98.36
	FillingsUpdate:  mu: -0.097800000  nElectrons: 114.000000  magneticMoment: [ Abs: 0.00090  Tot: -0.00029 ]
LCAOMinimize: Iter:  14  G: -1193.2318912719501895  |grad|_K:  1.917e-03  alpha:  1.991e-02  linmin: -8.958e-02  cgtest:  9.562e-01  t[s]:    104.78
LCAOMinimize: 	Wrong curvature in test step, increasing alphaT to 5.972946e-02.
	FillingsUpdate:  mu: -0.097800000  nElectrons: 114.000000  magneticMoment: [ Abs: 0.00087  Tot: -0.00039 ]
LCAOMinimize: Iter:  15  G: -1193.3640576597804284  |grad|_K:  1.879e-03  alpha: -8.144e+00  linmin: -1.213e-01  cgtest:  9.694e-01  t[s]:    110.94
	FillingsUpdate:  mu: -0.097800000  nElectrons: 114.000000  magneticMoment: [ Abs: 0.00084  Tot: -0.00040 ]
LCAOMinimize: Iter:  16  G: -1193.4550488791589942  |grad|_K:  1.868e-03  alpha:  1.408e-02  linmin: -1.322e-01  cgtest:  9.791e-01  t[s]:    117.17
LCAOMinimize: 	Wrong curvature in test step, increasing alphaT to 4.223795e-02.
	FillingsUpdate:  mu: -0.097800000  nElectrons: 114.000000  magneticMoment: [ Abs: 0.00081  Tot: -0.00040 ]
LCAOMinimize: Iter:  17  G: -1193.5454090382006598  |grad|_K:  1.861e-03  alpha: -8.361e-01  linmin: -1.407e-01  cgtest:  9.788e-01  t[s]:    123.29
	FillingsUpdate:  mu: -0.097800000  nElectrons: 114.000000  magneticMoment: [ Abs: 0.00079  Tot: -0.00040 ]
LCAOMinimize: Iter:  18  G: -1193.6434430033900753  |grad|_K:  1.858e-03  alpha:  1.530e-02  linmin: -1.469e-01  cgtest:  9.766e-01  t[s]:    129.52
LCAOMinimize: 	Wrong curvature in test step, increasing alphaT to 4.588630e-02.
	FillingsUpdate:  mu: -0.097800000  nElectrons: 114.000000  magneticMoment: [ Abs: 0.00077  Tot: -0.00040 ]
LCAOMinimize: Iter:  19  G: -1193.7416915554174466  |grad|_K:  1.858e-03  alpha: -6.540e-01  linmin: -1.507e-01  cgtest:  9.762e-01  t[s]:    135.92
	FillingsUpdate:  mu: -0.097800000  nElectrons: 114.000000  magneticMoment: [ Abs: 0.00075  Tot: -0.00040 ]
LCAOMinimize: Iter:  20  G: -1193.8501335752018804  |grad|_K:  1.861e-03  alpha:  1.681e-02  linmin: -1.528e-01  cgtest:  9.734e-01  t[s]:    142.13
LCAOMinimize: 	Wrong curvature in test step, increasing alphaT to 5.043848e-02.
	FillingsUpdate:  mu: -0.097800000  nElectrons: 114.000000  magneticMoment: [ Abs: 0.00073  Tot: -0.00039 ]
LCAOMinimize: Iter:  21  G: -1193.9593887924506816  |grad|_K:  1.865e-03  alpha: -5.756e-01  linmin: -1.535e-01  cgtest:  9.730e-01  t[s]:    148.23
	FillingsUpdate:  mu: -0.097800000  nElectrons: 114.000000  magneticMoment: [ Abs: 0.00071  Tot: -0.00038 ]
LCAOMinimize: Iter:  22  G: -1194.0830046604701238  |grad|_K:  1.871e-03  alpha:  1.886e-02  linmin: -1.541e-01  cgtest:  9.692e-01  t[s]:    154.46
LCAOMinimize: 	Wrong curvature in test step, increasing alphaT to 5.659461e-02.
	FillingsUpdate:  mu: -0.097800000  nElectrons: 114.000000  magneticMoment: [ Abs: 0.00069  Tot: -0.00037 ]
LCAOMinimize: Iter:  23  G: -1194.2081042316685853  |grad|_K:  1.877e-03  alpha: -5.330e-01  linmin: -1.555e-01  cgtest:  9.686e-01  t[s]:    160.55
	FillingsUpdate:  mu: -0.097800000  nElectrons: 114.000000  magneticMoment: [ Abs: 0.00067  Tot: -0.00035 ]
LCAOMinimize: Iter:  24  G: -1194.3562701037251372  |grad|_K:  1.886e-03  alpha:  2.208e-02  linmin: -1.587e-01  cgtest:  9.628e-01  t[s]:    167.15
LCAOMinimize: 	Wrong curvature in test step, increasing alphaT to 6.622663e-02.
	FillingsUpdate:  mu: -0.097800000  nElectrons: 114.000000  magneticMoment: [ Abs: 0.00066  Tot: -0.00034 ]
LCAOMinimize: Iter:  25  G: -1194.5069904407366721  |grad|_K:  1.895e-03  alpha: -5.046e-01  linmin: -1.616e-01  cgtest:  9.619e-01  t[s]:    173.27
	FillingsUpdate:  mu: -0.097800000  nElectrons: 114.000000  magneticMoment: [ Abs: 0.00065  Tot: -0.00033 ]
LCAOMinimize: Iter:  26  G: -1194.6997624505097519  |grad|_K:  1.907e-03  alpha:  2.775e-02  linmin: -1.640e-01  cgtest:  9.511e-01  t[s]:    179.50
LCAOMinimize: 	Wrong curvature in test step, increasing alphaT to 8.324775e-02.
	FillingsUpdate:  mu: -0.097800000  nElectrons: 114.000000  magneticMoment: [ Abs: 0.00065  Tot: -0.00034 ]
LCAOMinimize: Iter:  27  G: -1194.8976835048235898  |grad|_K:  1.918e-03  alpha: -4.766e-01  linmin: -1.654e-01  cgtest:  9.495e-01  t[s]:    185.61
	FillingsUpdate:  mu: -0.097800000  nElectrons: 114.000000  magneticMoment: [ Abs: 0.00064  Tot: -0.00035 ]
LCAOMinimize: Iter:  28  G: -1195.2325964026445035  |grad|_K:  1.934e-03  alpha:  4.540e-02  linmin: -1.679e-01  cgtest:  9.155e-01  t[s]:    191.84
LCAOMinimize: 	Wrong curvature in test step, increasing alphaT to 1.361952e-01.
	FillingsUpdate:  mu: -0.097800000  nElectrons: 114.000000  magneticMoment: [ Abs: 0.00064  Tot: -0.00038 ]
LCAOMinimize: Iter:  29  G: -1195.5878341513407577  |grad|_K:  1.943e-03  alpha: -4.512e-01  linmin: -1.671e-01  cgtest:  9.103e-01  t[s]:    198.28
	FillingsUpdate:  mu: -0.097800000  nElectrons: 114.000000  magneticMoment: [ Abs: 0.00059  Tot: -0.00030 ]
LCAOMinimize: Iter:  30  G: -1196.0856067975826136  |grad|_K:  1.933e-03  alpha:  6.158e-02  linmin: -1.605e-01  cgtest:  8.757e-01  t[s]:    204.50
LCAOMinimize: None of the convergence criteria satisfied after 30 iterations.
----- createFluidSolver() ----- (Fluid-side solver setup)
   Initializing fluid molecule 'H2O'
     Initializing site 'O'
       Electron density: proportional to exp(-r/0.36935)*erfc((r-0.51523)/0.36823) with norm 6.826
       Charge density: gaussian nuclear width 0.478731 with net site charge 0.826
       Polarizability: cuspless exponential with width 0.32 and norm 3.73
       Hard sphere radius: 2.57003 bohrs
       Positions in reference frame:
         [ +0.000000 +0.000000 +0.000000 ]
     Initializing site 'H'
       Electron density: proportional to exp(-r/0.34641)*erfc((r-0)/0.390882) with norm 0.587
       Charge density: gaussian nuclear width 0.377945 with net site charge -0.413
       Polarizability: cuspless exponential with width 0.39 and norm 3.3
       Positions in reference frame:
         [ +0.000000 -1.441945 +1.122523 ]
         [ +0.000000 +1.441945 +1.122523 ]
     Net charge: 0   dipole magnitude: 0.927204
     Initializing spherical shell mfKernel with radius 2.61727 Bohr
     deltaS corrections:
       site 'O': -7.54299
       site 'H': -6.83917
   Initializing fluid molecule 'Na+'
     Initializing site 'Na'
       Electron density: proportional to exp(-r/0.19682)*erfc((r-0.71491)/0.41314) with norm 8.1383
       Charge density: gaussian nuclear width 0.365347 with net site charge -1
       Hard sphere radius: 1.86327 bohrs
       Positions in reference frame:
         [ +0.000000 +0.000000 +0.000000 ]
     Net charge: -1   dipole magnitude: 0
     Initializing gaussian mfKernel with width: 1.55004 Bohr
     deltaS corrections:
       site 'Na': -22.3555
   Initializing fluid molecule 'F-'
     Initializing site 'F'
       Electron density: proportional to exp(-r/0.38886)*erfc((r-0)/0.438782) with norm 8
       Charge density: gaussian nuclear width 0.374796 with net site charge 1
       Hard sphere radius: 2.39995 bohrs
       Positions in reference frame:
         [ +0.000000 +0.000000 +0.000000 ]
     Net charge: 1   dipole magnitude: 0
     Initializing gaussian mfKernel with width: 1.59012 Bohr
     deltaS corrections:
       site 'F': -9.04335

Correction to mu due to finite nuclear width = -0.0984681
   Cavity determined by nc: 0.00142 and sigma: 0.707107
   Nonlocal vdW cavity from gaussian model electron density with norm = 8 and sigma = 0.993594 bohr
   Charge asymmetry in cavity with sensitivity pCavity = 36.5 e-bohr/Eh
   Electrostatic cavity expanded by eta = 1.46 bohrs
   Weighted density cavitation model constrained by Nbulk: 0.0049383 bohr^-3, Pvap: 3.14029 kPa, Rvdw: 2.61727 bohr and sigmaBulk: 4.62e-05 Eh/bohr^2 at T: 298 K.
   Weighted density dispersion model using vdW pair potentials with single solvent site with sqrtC6eff: 0.77 SI.


---- Citations for features of the code used in this run ----

   Software package:
      R. Sundararaman, K. Letchworth-Weaver, K.A. Schwarz, D. Gunceler, Y. Ozhabes and T.A. Arias, 'JDFTx: software for joint density-functional theory', SoftwareX 6, 278 (2017)

   gga-PBE exchange-correlation functional:
      J.P. Perdew, K. Burke and M. Ernzerhof, Phys. Rev. Lett. 77, 3865 (1996)

   Pseudopotentials:
      KF Garrity, JW Bennett, KM Rabe and D Vanderbilt, Comput. Mater. Sci. 81, 446 (2014)

   DFT-D3 dispersion correction:
      S. Grimme, J. Antony, S. Ehrlich and H. Krieg, J. Chem. Phys. 132, 154104 (2010)

   DFT-D2 dispersion correction:
      S. Grimme, J. Comput. Chem. 27, 1787 (2006)

   Charge-asymmetric nonlocally-determined local-electric (CANDLE) solvation model:
      R. Sundararaman and W.A. Goddard III, J. Chem. Phys. 142, 064107 (2015)

   Total energy minimization with Auxiliary Hamiltonian:
      C. Freysoldt, S. Boeck, and J. Neugebauer, Phys. Rev. B 79, 241103(R) (2009)

   Grand-canonical (fixed-potential) DFT:
      R. Sundararaman, W. A. Goddard III and T. A. Arias, J. Chem. Phys. 146, 114104 (2017)

   Linear-tetrahedron sampling for density of states:
      G. Lehmann and M. Taut, Phys. status solidi (b) 54, 469 (1972)

This list may not be complete. Please suggest additional citations or
report any other bugs at https://github.com/shankar1729/jdftx/issues

Initialization completed successfully at t[s]:    208.15


Computing DFT-D3 correction:
# coordination-number Cu 6.833 9.159 9.149 9.159 6.833 9.149
# diagonal-C6 Cu 175.00 175.00 175.00 175.00 175.00 175.00
EvdW_6 =   -0.037110
EvdW_8 =   -0.054747
Fluid solver invoked on fresh (random / LCAO) wavefunctions
Running a vacuum solve first:

-------- Initial electronic minimization -----------
	FillingsUpdate:  mu: +1.152864700  nElectrons: 114.000000  magneticMoment: [ Abs: 0.00059  Tot: -0.00030 ]
ElecMinimize: Iter:   0  G: -1196.085763305455885  |grad|_K:  5.820e-04  alpha:  1.000e+00
	FillingsUpdate:  mu: +0.359170552  nElectrons: 114.000000  magneticMoment: [ Abs: 0.00068  Tot: -0.00022 ]
	SubspaceRotationAdjust: set factor to 0.991
ElecMinimize: Iter:   1  G: -1198.214307257586597  |grad|_K:  4.098e-04  alpha:  1.229e-01  linmin:  4.809e-03  t[s]:    223.47
	FillingsUpdate:  mu: +0.422509966  nElectrons: 114.000000  magneticMoment: [ Abs: 0.00069  Tot: -0.00005 ]
	SubspaceRotationAdjust: set factor to 1.07
ElecMinimize: Iter:   2  G: -1199.505485757229280  |grad|_K:  1.079e-04  alpha:  1.604e-01  linmin: -1.976e-04  t[s]:    233.08
	FillingsUpdate:  mu: +0.375198000  nElectrons: 114.000000  magneticMoment: [ Abs: 0.00066  Tot: +0.00002 ]
	SubspaceRotationAdjust: set factor to 1.15
ElecMinimize: Iter:   3  G: -1199.648250939507989  |grad|_K:  9.503e-05  alpha:  1.225e-01  linmin:  4.171e-06  t[s]:    241.99
	FillingsUpdate:  mu: +0.553641911  nElectrons: 114.000000  magneticMoment: [ Abs: 0.00086  Tot: -0.00039 ]
	SubspaceRotationAdjust: set factor to 0.795
ElecMinimize: Iter:   4  G: -1199.783893231796810  |grad|_K:  1.509e-04  alpha:  1.705e-01  linmin:  2.101e-04  t[s]:    250.90
	FillingsUpdate:  mu: +0.549862814  nElectrons: 114.000000  magneticMoment: [ Abs: 0.00101  Tot: -0.00060 ]
	SubspaceRotationAdjust: set factor to 0.623
ElecMinimize: Iter:   5  G: -1199.788179305763606  |grad|_K:  1.319e-04  alpha:  1.396e-03  linmin: -4.162e-04  t[s]:    260.09
ElecMinimize: 	Predicted alpha/alphaT>3.000000, increasing alphaT to 4.186550e-03.
ElecMinimize: 	Predicted alpha/alphaT>3.000000, increasing alphaT to 1.255965e-02.
	FillingsUpdate:  mu: +0.454052422  nElectrons: 114.000000  magneticMoment: [ Abs: 0.00085  Tot: +0.00006 ]
	SubspaceRotationAdjust: set factor to 0.361
ElecMinimize: Iter:   6  G: -1199.853517362076445  |grad|_K:  1.458e-04  alpha:  3.432e-02  linmin:  9.104e-04  t[s]:    273.47
ElecMinimize: 	Bad step direction: g.d > 0.
ElecMinimize: 	Undoing step.
ElecMinimize: 	Step failed: resetting search direction.
	FillingsUpdate:  mu: +0.454052422  nElectrons: 114.000000  magneticMoment: [ Abs: 0.00085  Tot: +0.00006 ]
	SubspaceRotationAdjust: set factor to 0.23
ElecMinimize: Iter:   7  G: -1199.853517362074626  |grad|_K:  1.164e-04  alpha:  0.000e+00
	FillingsUpdate:  mu: +0.237795050  nElectrons: 114.000000  magneticMoment: [ Abs: 0.00082  Tot: -0.00009 ]
	SubspaceRotationAdjust: set factor to 0.0998
	SubspaceRotationAdjust: resetting CG because factor has changed by 0.0998419
ElecMinimize: 	State modified externally: resetting search direction.
ElecMinimize: Iter:   8  G: -1199.916563112190943  |grad|_K:  3.179e-05  alpha:  4.868e-02
ElecMinimize: 	Predicted alpha/alphaT>3.000000, increasing alphaT to 1.460500e-01.
	FillingsUpdate:  mu: +0.214516839  nElectrons: 114.000000  magneticMoment: [ Abs: 0.00081  Tot: -0.00016 ]
	SubspaceRotationAdjust: set factor to 0.235
ElecMinimize: Iter:   9  G: -1199.934159234892149  |grad|_K:  2.594e-05  alpha:  1.772e-01  linmin: -1.112e-05  t[s]:    305.28
	FillingsUpdate:  mu: +0.187140724  nElectrons: 114.000000  magneticMoment: [ Abs: 0.00081  Tot: -0.00026 ]
	SubspaceRotationAdjust: set factor to 0.266
ElecMinimize: Iter:  10  G: -1199.945856095681620  |grad|_K:  2.038e-05  alpha:  1.768e-01  linmin:  9.184e-06  t[s]:    314.37
	FillingsUpdate:  mu: +0.191833810  nElectrons: 114.000000  magneticMoment: [ Abs: 0.00080  Tot: -0.00028 ]
	SubspaceRotationAdjust: set factor to 0.208
ElecMinimize: Iter:  11  G: -1199.952065909687008  |grad|_K:  2.025e-05  alpha:  1.524e-01  linmin:  2.696e-06  t[s]:    323.35
	FillingsUpdate:  mu: +0.179465421  nElectrons: 114.000000  magneticMoment: [ Abs: 0.00074  Tot: -0.00027 ]
	SubspaceRotationAdjust: set factor to 0.228
ElecMinimize: Iter:  12  G: -1199.957797252742239  |grad|_K:  1.565e-05  alpha:  1.423e-01  linmin:  2.714e-06  t[s]:    332.28
	FillingsUpdate:  mu: +0.172601449  nElectrons: 114.000000  magneticMoment: [ Abs: 0.00065  Tot: -0.00016 ]
	SubspaceRotationAdjust: set factor to 0.283
ElecMinimize: Iter:  13  G: -1199.961432125553983  |grad|_K:  1.112e-05  alpha:  1.515e-01  linmin:  1.864e-06  t[s]:    341.21
	FillingsUpdate:  mu: +0.166425590  nElectrons: 114.000000  magneticMoment: [ Abs: 0.00057  Tot: -0.00003 ]
	SubspaceRotationAdjust: set factor to 0.254
ElecMinimize: Iter:  14  G: -1199.963884015253143  |grad|_K:  1.294e-05  alpha:  2.018e-01  linmin: -2.097e-06  t[s]:    350.53
	FillingsUpdate:  mu: +0.155028333  nElectrons: 114.000000  magneticMoment: [ Abs: 0.00051  Tot: +0.00004 ]
	SubspaceRotationAdjust: set factor to 0.257
ElecMinimize: Iter:  15  G: -1199.965932195426831  |grad|_K:  8.322e-06  alpha:  1.238e-01  linmin: -4.887e-07  t[s]:    359.46
	FillingsUpdate:  mu: +0.147498689  nElectrons: 114.000000  magneticMoment: [ Abs: 0.00046  Tot: +0.00007 ]
	SubspaceRotationAdjust: set factor to 0.302
ElecMinimize: Iter:  16  G: -1199.967122251410046  |grad|_K:  7.153e-06  alpha:  1.752e-01  linmin:  2.863e-06  t[s]:    368.37
	FillingsUpdate:  mu: +0.143411540  nElectrons: 114.000000  magneticMoment: [ Abs: 0.00043  Tot: +0.00010 ]
	SubspaceRotationAdjust: set factor to 0.329
ElecMinimize: Iter:  17  G: -1199.967881364126242  |grad|_K:  6.037e-06  alpha:  1.518e-01  linmin:  9.222e-07  t[s]:    377.63
	FillingsUpdate:  mu: +0.144611509  nElectrons: 114.000000  magneticMoment: [ Abs: 0.00041  Tot: +0.00017 ]
	SubspaceRotationAdjust: set factor to 0.311
ElecMinimize: Iter:  18  G: -1199.968558047621627  |grad|_K:  7.663e-06  alpha:  1.893e-01  linmin: -1.617e-07  t[s]:    386.60
	FillingsUpdate:  mu: +0.146211530  nElectrons: 114.000000  magneticMoment: [ Abs: 0.00040  Tot: +0.00027 ]
	SubspaceRotationAdjust: set factor to 0.251
ElecMinimize: Iter:  19  G: -1199.969464023610271  |grad|_K:  6.089e-06  alpha:  1.569e-01  linmin:  8.769e-08  t[s]:    395.52
	FillingsUpdate:  mu: +0.144824408  nElectrons: 114.000000  magneticMoment: [ Abs: 0.00038  Tot: +0.00030 ]
	SubspaceRotationAdjust: set factor to 0.264
ElecMinimize: Iter:  20  G: -1199.969872288896113  |grad|_K:  3.495e-06  alpha:  1.119e-01  linmin:  1.867e-07  t[s]:    404.59
	FillingsUpdate:  mu: +0.144166401  nElectrons: 114.000000  magneticMoment: [ Abs: 0.00035  Tot: +0.00029 ]
	SubspaceRotationAdjust: set factor to 0.289
ElecMinimize: Iter:  21  G: -1199.970114275577771  |grad|_K:  3.585e-06  alpha:  2.019e-01  linmin:  4.449e-07  t[s]:    413.59
	FillingsUpdate:  mu: +0.144983747  nElectrons: 114.000000  magneticMoment: [ Abs: 0.00030  Tot: +0.00026 ]
	SubspaceRotationAdjust: set factor to 0.258
ElecMinimize: Iter:  22  G: -1199.970305898212700  |grad|_K:  2.745e-06  alpha:  1.519e-01  linmin:  7.915e-08  t[s]:    422.50
	FillingsUpdate:  mu: +0.146070264  nElectrons: 114.000000  magneticMoment: [ Abs: 0.00026  Tot: +0.00023 ]
	SubspaceRotationAdjust: set factor to 0.211
ElecMinimize: Iter:  23  G: -1199.970401614762068  |grad|_K:  2.304e-06  alpha:  1.293e-01  linmin:  2.042e-07  t[s]:    431.42
	FillingsUpdate:  mu: +0.147105317  nElectrons: 114.000000  magneticMoment: [ Abs: 0.00021  Tot: +0.00019 ]
	SubspaceRotationAdjust: set factor to 0.233
ElecMinimize: Iter:  24  G: -1199.970497106711491  |grad|_K:  1.960e-06  alpha:  1.832e-01  linmin: -4.083e-07  t[s]:    440.62
	FillingsUpdate:  mu: +0.147427314  nElectrons: 114.000000  magneticMoment: [ Abs: 0.00018  Tot: +0.00016 ]
	SubspaceRotationAdjust: set factor to 0.243
ElecMinimize: Iter:  25  G: -1199.970559884307249  |grad|_K:  1.683e-06  alpha:  1.663e-01  linmin: -1.123e-07  t[s]:    449.50
	FillingsUpdate:  mu: +0.147052529  nElectrons: 114.000000  magneticMoment: [ Abs: 0.00015  Tot: +0.00014 ]
	SubspaceRotationAdjust: set factor to 0.225
ElecMinimize: Iter:  26  G: -1199.970605118654248  |grad|_K:  1.277e-06  alpha:  1.626e-01  linmin:  1.763e-07  t[s]:    458.39
	FillingsUpdate:  mu: +0.147099485  nElectrons: 114.000000  magneticMoment: [ Abs: 0.00014  Tot: +0.00013 ]
	SubspaceRotationAdjust: set factor to 0.239
ElecMinimize: Iter:  27  G: -1199.970626275578070  |grad|_K:  9.406e-07  alpha:  1.322e-01  linmin: -2.454e-08  t[s]:    467.64
	FillingsUpdate:  mu: +0.147723848  nElectrons: 114.000000  magneticMoment: [ Abs: 0.00012  Tot: +0.00012 ]
	SubspaceRotationAdjust: set factor to 0.262
ElecMinimize: Iter:  28  G: -1199.970643693456623  |grad|_K:  8.832e-07  alpha:  2.004e-01  linmin: -7.615e-07  t[s]:    476.57
	FillingsUpdate:  mu: +0.148028470  nElectrons: 114.000000  magneticMoment: [ Abs: 0.00011  Tot: +0.00011 ]
	SubspaceRotationAdjust: set factor to 0.293
ElecMinimize: Iter:  29  G: -1199.970655270179577  |grad|_K:  7.084e-07  alpha:  1.510e-01  linmin: -9.359e-08  t[s]:    485.52
	FillingsUpdate:  mu: +0.147847052  nElectrons: 114.000000  magneticMoment: [ Abs: 0.00010  Tot: +0.00010 ]
	SubspaceRotationAdjust: set factor to 0.306
ElecMinimize: Iter:  30  G: -1199.970664857092970  |grad|_K:  7.116e-07  alpha:  1.945e-01  linmin:  5.822e-07  t[s]:    494.62
	FillingsUpdate:  mu: +0.147755494  nElectrons: 114.000000  magneticMoment: [ Abs: 0.00009  Tot: +0.00009 ]
	SubspaceRotationAdjust: set factor to 0.29
ElecMinimize: Iter:  31  G: -1199.970671642961861  |grad|_K:  5.510e-07  alpha:  1.365e-01  linmin:  9.330e-08  t[s]:    503.54
	FillingsUpdate:  mu: +0.148003448  nElectrons: 114.000000  magneticMoment: [ Abs: 0.00008  Tot: +0.00008 ]
	SubspaceRotationAdjust: set factor to 0.261
ElecMinimize: Iter:  32  G: -1199.970676007999828  |grad|_K:  4.942e-07  alpha:  1.464e-01  linmin:  1.249e-07  t[s]:    512.43
	FillingsUpdate:  mu: +0.148367633  nElectrons: 114.000000  magneticMoment: [ Abs: 0.00007  Tot: +0.00007 ]
	SubspaceRotationAdjust: set factor to 0.266
ElecMinimize: Iter:  33  G: -1199.970679990151211  |grad|_K:  3.806e-07  alpha:  1.660e-01  linmin:  9.817e-08  t[s]:    522.65
	FillingsUpdate:  mu: +0.148433697  nElectrons: 114.000000  magneticMoment: [ Abs: 0.00007  Tot: +0.00006 ]
	SubspaceRotationAdjust: set factor to 0.305
ElecMinimize: Iter:  34  G: -1199.970682151163828  |grad|_K:  3.226e-07  alpha:  1.519e-01  linmin:  1.496e-08  t[s]:    532.01
	FillingsUpdate:  mu: +0.148322610  nElectrons: 114.000000  magneticMoment: [ Abs: 0.00006  Tot: +0.00006 ]
	SubspaceRotationAdjust: set factor to 0.317
ElecMinimize: Iter:  35  G: -1199.970684163351507  |grad|_K:  2.946e-07  alpha:  1.968e-01  linmin:  3.441e-08  t[s]:    540.89
	FillingsUpdate:  mu: +0.148282412  nElectrons: 114.000000  magneticMoment: [ Abs: 0.00005  Tot: +0.00005 ]
	SubspaceRotationAdjust: set factor to 0.309
ElecMinimize: Iter:  36  G: -1199.970685425698775  |grad|_K:  2.729e-07  alpha:  1.480e-01  linmin: -3.762e-09  t[s]:    549.84
	FillingsUpdate:  mu: +0.148332000  nElectrons: 114.000000  magneticMoment: [ Abs: 0.00004  Tot: +0.00004 ]
	SubspaceRotationAdjust: set factor to 0.281
ElecMinimize: Iter:  37  G: -1199.970686553778251  |grad|_K:  2.451e-07  alpha:  1.542e-01  linmin:  2.452e-08  t[s]:    558.98
	FillingsUpdate:  mu: +0.148353822  nElectrons: 114.000000  magneticMoment: [ Abs: 0.00004  Tot: +0.00004 ]
	SubspaceRotationAdjust: set factor to 0.276
ElecMinimize: Iter:  38  G: -1199.970687258194175  |grad|_K:  1.710e-07  alpha:  1.194e-01  linmin:  6.714e-09  t[s]:    567.90
	FillingsUpdate:  mu: +0.148286149  nElectrons: 114.000000  magneticMoment: [ Abs: 0.00003  Tot: +0.00003 ]
	SubspaceRotationAdjust: set factor to 0.298
ElecMinimize: Iter:  39  G: -1199.970687824556535  |grad|_K:  1.778e-07  alpha:  1.972e-01  linmin:  5.379e-08  t[s]:    576.81
	FillingsUpdate:  mu: +0.148204460  nElectrons: 114.000000  magneticMoment: [ Abs: 0.00003  Tot: +0.00003 ]
	SubspaceRotationAdjust: set factor to 0.334
ElecMinimize: Iter:  40  G: -1199.970688334766692  |grad|_K:  1.333e-07  alpha:  1.644e-01  linmin:  6.197e-08  t[s]:    585.93
	FillingsUpdate:  mu: +0.148216486  nElectrons: 114.000000  magneticMoment: [ Abs: 0.00003  Tot: +0.00002 ]
	SubspaceRotationAdjust: set factor to 0.311
ElecMinimize: Iter:  41  G: -1199.970688562921850  |grad|_K:  1.198e-07  alpha:  1.307e-01  linmin: -9.187e-10  t[s]:    594.83
	FillingsUpdate:  mu: +0.148269399  nElectrons: 114.000000  magneticMoment: [ Abs: 0.00002  Tot: +0.00002 ]
	SubspaceRotationAdjust: set factor to 0.251
ElecMinimize: Iter:  42  G: -1199.970688765849900  |grad|_K:  1.108e-07  alpha:  1.438e-01  linmin:  2.793e-08  t[s]:    603.74
	FillingsUpdate:  mu: +0.148296230  nElectrons: 114.000000  magneticMoment: [ Abs: 0.00002  Tot: +0.00002 ]
	SubspaceRotationAdjust: set factor to 0.264
ElecMinimize: Iter:  43  G: -1199.970688918384894  |grad|_K:  7.953e-08  alpha:  1.265e-01  linmin:  2.388e-08  t[s]:    612.75
	FillingsUpdate:  mu: +0.148277614  nElectrons: 114.000000  magneticMoment: [ Abs: 0.00002  Tot: +0.00001 ]
	SubspaceRotationAdjust: set factor to 0.289
ElecMinimize: Iter:  44  G: -1199.970689034186762  |grad|_K:  7.297e-08  alpha:  1.865e-01  linmin: -6.677e-08  t[s]:    622.02
	FillingsUpdate:  mu: +0.148258347  nElectrons: 114.000000  magneticMoment: [ Abs: 0.00002  Tot: +0.00001 ]
	SubspaceRotationAdjust: set factor to 0.27
ElecMinimize: Iter:  45  G: -1199.970689107168255  |grad|_K:  5.672e-08  alpha:  1.394e-01  linmin: -4.062e-08  t[s]:    630.96
	FillingsUpdate:  mu: +0.148259784  nElectrons: 114.000000  magneticMoment: [ Abs: 0.00001  Tot: +0.00001 ]
	SubspaceRotationAdjust: set factor to 0.249
ElecMinimize: Iter:  46  G: -1199.970689154646152  |grad|_K:  5.381e-08  alpha:  1.504e-01  linmin:  1.554e-07  t[s]:    639.88
ElecMinimize: Converged (|Delta G|<1.000000e-07 for 2 iters).
Setting wave functions to eigenvectors of Hamiltonian
Converging empty states (this may take a while): |deigs|: 2.715e-02
Vacuum energy after initial minimize, F = -1199.970689154646152

Shifting auxilliary hamiltonian by -0.246060 to set nElectrons=114.000000

-------- Electronic minimization -----------
	Linear fluid (dielectric constant: 78.4, screening length: 8.12261 Bohr) occupying 0.462775 of unit cell:	Completed after 23 iterations at t[s]:    670.81
	FillingsUpdate:  mu: -0.097800000  nElectrons: 114.000000  magneticMoment: [ Abs: 0.00001  Tot: +0.00000 ]
ElecMinimize: Iter:   0  G: -1199.970763865092295  |grad|_K:  2.748e-05  alpha:  1.000e+00
	Linear fluid (dielectric constant: 78.4, screening length: 8.12261 Bohr) occupying 0.530548 of unit cell:	Completed after 24 iterations at t[s]:    678.99
	Linear fluid (dielectric constant: 78.4, screening length: 8.12261 Bohr) occupying 0.517872 of unit cell:	Completed after 36 iterations at t[s]:    682.12
ElecMinimize: 	Step increased G by 3.196176e-02, reducing alpha to 1.016678e-02.
	Linear fluid (dielectric constant: 78.4, screening length: 8.12261 Bohr) occupying 0.463017 of unit cell:	Completed after 21 iterations at t[s]:    688.55
	FillingsUpdate:  mu: -0.097800000  nElectrons: 114.023487  magneticMoment: [ Abs: 0.00001  Tot: +0.00000 ]
	SubspaceRotationAdjust: set factor to 0.128
ElecMinimize: Iter:   1  G: -1199.971830923159814  |grad|_K:  1.176e-05  alpha:  1.017e-02  linmin: -7.421e-02  t[s]:    692.46
	Linear fluid (dielectric constant: 78.4, screening length: 8.12261 Bohr) occupying 0.463924 of unit cell:	Completed after 17 iterations at t[s]:    695.77
	Linear fluid (dielectric constant: 78.4, screening length: 8.12261 Bohr) occupying 0.464567 of unit cell:	Completed after 12 iterations at t[s]:    698.43
	FillingsUpdate:  mu: -0.097800000  nElectrons: 114.043706  magneticMoment: [ Abs: 0.00001  Tot: +0.00001 ]
	SubspaceRotationAdjust: set factor to 0.0892
ElecMinimize: Iter:   2  G: -1199.972108651169719  |grad|_K:  5.795e-06  alpha:  1.463e-02  linmin:  2.531e-03  t[s]:    702.36
	Linear fluid (dielectric constant: 78.4, screening length: 8.12261 Bohr) occupying 0.464982 of unit cell:	Completed after 12 iterations at t[s]:    705.74
ElecMinimize: 	Predicted alpha/alphaT>3.000000, increasing alphaT to 4.387644e-02.
	Linear fluid (dielectric constant: 78.4, screening length: 8.12261 Bohr) occupying 0.465988 of unit cell:	Completed after 16 iterations at t[s]:    708.52
	Linear fluid (dielectric constant: 78.4, screening length: 8.12261 Bohr) occupying 0.470118 of unit cell:	Completed after 18 iterations at t[s]:    711.31
	FillingsUpdate:  mu: -0.097800000  nElectrons: 114.077467  magneticMoment: [ Abs: 0.00001  Tot: +0.00001 ]
	SubspaceRotationAdjust: set factor to 0.0497
ElecMinimize: Iter:   3  G: -1199.972499034364546  |grad|_K:  1.036e-05  alpha:  1.262e-01  linmin:  1.211e-03  t[s]:    715.23
	Linear fluid (dielectric constant: 78.4, screening length: 8.12261 Bohr) occupying 0.488399 of unit cell:	Completed after 23 iterations at t[s]:    718.65
	Linear fluid (dielectric constant: 78.4, screening length: 8.12261 Bohr) occupying 0.480984 of unit cell:	Completed after 21 iterations at t[s]:    721.50
	FillingsUpdate:  mu: -0.097800000  nElectrons: 114.120523  magneticMoment: [ Abs: 0.00001  Tot: +0.00001 ]
	SubspaceRotationAdjust: set factor to 0.0499
ElecMinimize: Iter:   4  G: -1199.973298258954173  |grad|_K:  8.634e-06  alpha:  8.341e-02  linmin: -4.201e-05  t[s]:    725.41
	Linear fluid (dielectric constant: 78.4, screening length: 8.12261 Bohr) occupying 0.485020 of unit cell:	Completed after 21 iterations at t[s]:    728.79
	Linear fluid (dielectric constant: 78.4, screening length: 8.12261 Bohr) occupying 0.485452 of unit cell:	Completed after 14 iterations at t[s]:    731.47
	FillingsUpdate:  mu: -0.097800000  nElectrons: 114.138117  magneticMoment: [ Abs: 0.00001  Tot: +0.00001 ]
	SubspaceRotationAdjust: set factor to 0.0554
ElecMinimize: Iter:   5  G: -1199.973972411132991  |grad|_K:  5.440e-06  alpha:  9.143e-02  linmin: -6.264e-04  t[s]:    735.59
	Linear fluid (dielectric constant: 78.4, screening length: 8.12261 Bohr) occupying 0.487311 of unit cell:	Completed after 17 iterations at t[s]:    738.91
	Linear fluid (dielectric constant: 78.4, screening length: 8.12261 Bohr) occupying 0.487860 of unit cell:	Completed after 13 iterations at t[s]:    741.60
	FillingsUpdate:  mu: -0.097800000  nElectrons: 114.147975  magneticMoment: [ Abs: 0.00001  Tot: +0.00001 ]
	SubspaceRotationAdjust: set factor to 0.0639
ElecMinimize: Iter:   6  G: -1199.974324276846346  |grad|_K:  5.578e-06  alpha:  1.178e-01  linmin: -1.380e-05  t[s]:    745.50
	Linear fluid (dielectric constant: 78.4, screening length: 8.12261 Bohr) occupying 0.492714 of unit cell:	Completed after 23 iterations at t[s]:    748.96
	Linear fluid (dielectric constant: 78.4, screening length: 8.12261 Bohr) occupying 0.495343 of unit cell:	Completed after 21 iterations at t[s]:    751.80
	FillingsUpdate:  mu: -0.097800000  nElectrons: 114.177936  magneticMoment: [ Abs: 0.00001  Tot: +0.00001 ]
	SubspaceRotationAdjust: set factor to 0.0708
ElecMinimize: Iter:   7  G: -1199.974893900055804  |grad|_K:  6.814e-06  alpha:  1.878e-01  linmin:  2.784e-04  t[s]:    755.71
	Linear fluid (dielectric constant: 78.4, screening length: 8.12261 Bohr) occupying 0.501942 of unit cell:	Completed after 23 iterations at t[s]:    759.14
	Linear fluid (dielectric constant: 78.4, screening length: 8.12261 Bohr) occupying 0.499789 of unit cell:	Completed after 23 iterations at t[s]:    762.01
	FillingsUpdate:  mu: -0.097800000  nElectrons: 114.199606  magneticMoment: [ Abs: 0.00001  Tot: +0.00001 ]
	SubspaceRotationAdjust: set factor to 0.0793
ElecMinimize: Iter:   8  G: -1199.975384867097546  |grad|_K:  6.214e-06  alpha:  1.087e-01  linmin: -4.862e-05  t[s]:    766.13
	Linear fluid (dielectric constant: 78.4, screening length: 8.12261 Bohr) occupying 0.501361 of unit cell:	Completed after 23 iterations at t[s]:    769.54
	Linear fluid (dielectric constant: 78.4, screening length: 8.12261 Bohr) occupying 0.501590 of unit cell:	Completed after 17 iterations at t[s]:    772.31
	FillingsUpdate:  mu: -0.097800000  nElectrons: 114.212596  magneticMoment: [ Abs: 0.00001  Tot: +0.00001 ]
	SubspaceRotationAdjust: set factor to 0.0823
ElecMinimize: Iter:   9  G: -1199.975899498916760  |grad|_K:  6.990e-06  alpha:  1.368e-01  linmin:  5.767e-04  t[s]:    776.22
	Linear fluid (dielectric constant: 78.4, screening length: 8.12261 Bohr) occupying 0.504475 of unit cell:	Completed after 23 iterations at t[s]:    779.65
	Linear fluid (dielectric constant: 78.4, screening length: 8.12261 Bohr) occupying 0.503609 of unit cell:	Completed after 21 iterations at t[s]:    782.49
	FillingsUpdate:  mu: -0.097800000  nElectrons: 114.226324  magneticMoment: [ Abs: 0.00001  Tot: +0.00000 ]
	SubspaceRotationAdjust: set factor to 0.101
ElecMinimize: Iter:  10  G: -1199.976275786346832  |grad|_K:  4.859e-06  alpha:  8.218e-02  linmin:  1.187e-05  t[s]:    786.38
	Linear fluid (dielectric constant: 78.4, screening length: 8.12261 Bohr) occupying 0.505298 of unit cell:	Completed after 23 iterations at t[s]:    789.79
	Linear fluid (dielectric constant: 78.4, screening length: 8.12261 Bohr) occupying 0.505251 of unit cell:	Completed after 13 iterations at t[s]:    792.56
	FillingsUpdate:  mu: -0.097800000  nElectrons: 114.236990  magneticMoment: [ Abs: 0.00000  Tot: +0.00000 ]
	SubspaceRotationAdjust: set factor to 0.104
ElecMinimize: Iter:  11  G: -1199.976460418136185  |grad|_K:  4.723e-06  alpha:  7.970e-02  linmin: -1.691e-04  t[s]:    796.54
	Linear fluid (dielectric constant: 78.4, screening length: 8.12261 Bohr) occupying 0.505363 of unit cell:	Completed after 20 iterations at t[s]:    799.94
	Linear fluid (dielectric constant: 78.4, screening length: 8.12261 Bohr) occupying 0.505326 of unit cell:	Completed after 21 iterations at t[s]:    802.79
	FillingsUpdate:  mu: -0.097800000  nElectrons: 114.243645  magneticMoment: [ Abs: 0.00000  Tot: +0.00000 ]
	SubspaceRotationAdjust: set factor to 0.11
ElecMinimize: Iter:  12  G: -1199.976864060765138  |grad|_K:  6.846e-06  alpha:  1.833e-01  linmin:  5.373e-05  t[s]:    806.69
	Linear fluid (dielectric constant: 78.4, screening length: 8.12261 Bohr) occupying 0.503460 of unit cell:	Completed after 23 iterations at t[s]:    810.12
	Linear fluid (dielectric constant: 78.4, screening length: 8.12261 Bohr) occupying 0.504391 of unit cell:	Completed after 24 iterations at t[s]:    813.03
	FillingsUpdate:  mu: -0.097800000  nElectrons: 114.246300  magneticMoment: [ Abs: 0.00000  Tot: +0.00000 ]
	SubspaceRotationAdjust: set factor to 0.112
ElecMinimize: Iter:  13  G: -1199.977327625522776  |grad|_K:  6.414e-06  alpha:  1.001e-01  linmin: -2.934e-05  t[s]:    816.94
	Linear fluid (dielectric constant: 78.4, screening length: 8.12261 Bohr) occupying 0.506855 of unit cell:	Completed after 23 iterations at t[s]:    821.25
	Linear fluid (dielectric constant: 78.4, screening length: 8.12261 Bohr) occupying 0.506087 of unit cell:	Completed after 22 iterations at t[s]:    824.73
	FillingsUpdate:  mu: -0.097800000  nElectrons: 114.260597  magneticMoment: [ Abs: 0.00000  Tot: +0.00000 ]
	SubspaceRotationAdjust: set factor to 0.126
ElecMinimize: Iter:  14  G: -1199.977593351447922  |grad|_K:  4.276e-06  alpha:  6.588e-02  linmin: -1.002e-06  t[s]:    828.64
	Linear fluid (dielectric constant: 78.4, screening length: 8.12261 Bohr) occupying 0.506781 of unit cell:	Completed after 22 iterations at t[s]:    832.04
	Linear fluid (dielectric constant: 78.4, screening length: 8.12261 Bohr) occupying 0.507301 of unit cell:	Completed after 21 iterations at t[s]:    834.87
	FillingsUpdate:  mu: -0.097800000  nElectrons: 114.272424  magneticMoment: [ Abs: 0.00000  Tot: +0.00000 ]
	SubspaceRotationAdjust: set factor to 0.131
ElecMinimize: Iter:  15  G: -1199.977807503328677  |grad|_K:  5.714e-06  alpha:  1.189e-01  linmin: -7.441e-05  t[s]:    838.77
	Linear fluid (dielectric constant: 78.4, screening length: 8.12261 Bohr) occupying 0.505580 of unit cell:	Completed after 23 iterations at t[s]:    842.22
	Linear fluid (dielectric constant: 78.4, screening length: 8.12261 Bohr) occupying 0.505853 of unit cell:	Completed after 20 iterations at t[s]:    845.05
	FillingsUpdate:  mu: -0.097800000  nElectrons: 114.270979  magneticMoment: [ Abs: 0.00000  Tot: +0.00000 ]
	SubspaceRotationAdjust: set factor to 0.117
ElecMinimize: Iter:  16  G: -1199.978122648438784  |grad|_K:  6.266e-06  alpha:  9.824e-02  linmin: -5.996e-05  t[s]:    848.96
	Linear fluid (dielectric constant: 78.4, screening length: 8.12261 Bohr) occupying 0.506251 of unit cell:	Completed after 21 iterations at t[s]:    852.42
	Linear fluid (dielectric constant: 78.4, screening length: 8.12261 Bohr) occupying 0.506373 of unit cell:	Completed after 17 iterations at t[s]:    855.39
	FillingsUpdate:  mu: -0.097800000  nElectrons: 114.286062  magneticMoment: [ Abs: 0.00000  Tot: +0.00000 ]
	SubspaceRotationAdjust: set factor to 0.136
ElecMinimize: Iter:  17  G: -1199.978558130759666  |grad|_K:  4.789e-06  alpha:  1.121e-01  linmin: -6.272e-06  t[s]:    859.34
	Linear fluid (dielectric constant: 78.4, screening length: 8.12261 Bohr) occupying 0.508303 of unit cell:	Completed after 24 iterations at t[s]:    862.80
	Linear fluid (dielectric constant: 78.4, screening length: 8.12261 Bohr) occupying 0.507715 of unit cell:	Completed after 21 iterations at t[s]:    865.65
	FillingsUpdate:  mu: -0.097800000  nElectrons: 114.300948  magneticMoment: [ Abs: 0.00000  Tot: +0.00000 ]
	SubspaceRotationAdjust: set factor to 0.129
ElecMinimize: Iter:  18  G: -1199.978739446604550  |grad|_K:  4.475e-06  alpha:  7.894e-02  linmin:  6.971e-05  t[s]:    869.56
	Linear fluid (dielectric constant: 78.4, screening length: 8.12261 Bohr) occupying 0.507489 of unit cell:	Completed after 23 iterations at t[s]:    873.01
	Linear fluid (dielectric constant: 78.4, screening length: 8.12261 Bohr) occupying 0.507475 of unit cell:	Completed after 14 iterations at t[s]:    875.70
	FillingsUpdate:  mu: -0.097800000  nElectrons: 114.305615  magneticMoment: [ Abs: 0.00000  Tot: +0.00000 ]
	SubspaceRotationAdjust: set factor to 0.137
ElecMinimize: Iter:  19  G: -1199.978912359499418  |grad|_K:  4.380e-06  alpha:  8.802e-02  linmin: -2.030e-04  t[s]:    879.61
	Linear fluid (dielectric constant: 78.4, screening length: 8.12261 Bohr) occupying 0.507414 of unit cell:	Completed after 23 iterations at t[s]:    883.15
	Linear fluid (dielectric constant: 78.4, screening length: 8.12261 Bohr) occupying 0.507397 of unit cell:	Completed after 20 iterations at t[s]:    886.21
	FillingsUpdate:  mu: -0.097800000  nElectrons: 114.314053  magneticMoment: [ Abs: 0.00000  Tot: +0.00000 ]
	SubspaceRotationAdjust: set factor to 0.143
ElecMinimize: Iter:  20  G: -1199.979138414753152  |grad|_K:  4.244e-06  alpha:  1.179e-01  linmin:  3.267e-05  t[s]:    890.16
	Linear fluid (dielectric constant: 78.4, screening length: 8.12261 Bohr) occupying 0.508667 of unit cell:	Completed after 24 iterations at t[s]:    893.61
	Linear fluid (dielectric constant: 78.4, screening length: 8.12261 Bohr) occupying 0.508223 of unit cell:	Completed after 23 iterations at t[s]:    896.49
	FillingsUpdate:  mu: -0.097800000  nElectrons: 114.325689  magneticMoment: [ Abs: 0.00000  Tot: +0.00000 ]
	SubspaceRotationAdjust: set factor to 0.134
ElecMinimize: Iter:  21  G: -1199.979256695161894  |grad|_K:  3.308e-06  alpha:  6.896e-02  linmin:  1.523e-04  t[s]:    900.39
	Linear fluid (dielectric constant: 78.4, screening length: 8.12261 Bohr) occupying 0.508081 of unit cell:	Completed after 14 iterations at t[s]:    903.63
	Linear fluid (dielectric constant: 78.4, screening length: 8.12261 Bohr) occupying 0.507962 of unit cell:	Completed after 14 iterations at t[s]:    906.33
	FillingsUpdate:  mu: -0.097800000  nElectrons: 114.329044  magneticMoment: [ Abs: 0.00000  Tot: +0.00000 ]
	SubspaceRotationAdjust: set factor to 0.152
ElecMinimize: Iter:  22  G: -1199.979376816149170  |grad|_K:  3.278e-06  alpha:  1.132e-01  linmin:  1.029e-04  t[s]:    910.25
	Linear fluid (dielectric constant: 78.4, screening length: 8.12261 Bohr) occupying 0.507381 of unit cell:	Completed after 23 iterations at t[s]:    913.84
	Linear fluid (dielectric constant: 78.4, screening length: 8.12261 Bohr) occupying 0.507462 of unit cell:	Completed after 14 iterations at t[s]:    916.71
	FillingsUpdate:  mu: -0.097800000  nElectrons: 114.329715  magneticMoment: [ Abs: 0.00000  Tot: +0.00000 ]
	SubspaceRotationAdjust: set factor to 0.162
ElecMinimize: Iter:  23  G: -1199.979481047292666  |grad|_K:  2.987e-06  alpha:  9.920e-02  linmin:  1.278e-04  t[s]:    920.62
	Linear fluid (dielectric constant: 78.4, screening length: 8.12261 Bohr) occupying 0.508057 of unit cell:	Completed after 23 iterations at t[s]:    924.05
	Linear fluid (dielectric constant: 78.4, screening length: 8.12261 Bohr) occupying 0.507888 of unit cell:	Completed after 20 iterations at t[s]:    926.86
	FillingsUpdate:  mu: -0.097800000  nElectrons: 114.335759  magneticMoment: [ Abs: 0.00000  Tot: +0.00000 ]
	SubspaceRotationAdjust: set factor to 0.165
ElecMinimize: Iter:  24  G: -1199.979539969032203  |grad|_K:  2.260e-06  alpha:  6.838e-02  linmin: -2.571e-05  t[s]:    930.77
	Linear fluid (dielectric constant: 78.4, screening length: 8.12261 Bohr) occupying 0.507881 of unit cell:	Completed after 19 iterations at t[s]:    934.11
	Linear fluid (dielectric constant: 78.4, screening length: 8.12261 Bohr) occupying 0.507862 of unit cell:	Completed after 14 iterations at t[s]:    936.82
	FillingsUpdate:  mu: -0.097800000  nElectrons: 114.338356  magneticMoment: [ Abs: 0.00000  Tot: +0.00000 ]
	SubspaceRotationAdjust: set factor to 0.19
ElecMinimize: Iter:  25  G: -1199.979604382078378  |grad|_K:  2.547e-06  alpha:  1.280e-01  linmin: -4.642e-05  t[s]:    940.71
	Linear fluid (dielectric constant: 78.4, screening length: 8.12261 Bohr) occupying 0.506949 of unit cell:	Completed after 23 iterations at t[s]:    944.31
	Linear fluid (dielectric constant: 78.4, screening length: 8.12261 Bohr) occupying 0.507211 of unit cell:	Completed after 17 iterations at t[s]:    947.19
	FillingsUpdate:  mu: -0.097800000  nElectrons: 114.335674  magneticMoment: [ Abs: 0.00000  Tot: +0.00000 ]
	SubspaceRotationAdjust: set factor to 0.18
ElecMinimize: Iter:  26  G: -1199.979664404591631  |grad|_K:  2.558e-06  alpha:  9.303e-02  linmin:  4.841e-05  t[s]:    951.11
	Linear fluid (dielectric constant: 78.4, screening length: 8.12261 Bohr) occupying 0.507542 of unit cell:	Completed after 22 iterations at t[s]:    954.53
	Linear fluid (dielectric constant: 78.4, screening length: 8.12261 Bohr) occupying 0.507441 of unit cell:	Completed after 18 iterations at t[s]:    957.32
	FillingsUpdate:  mu: -0.097800000  nElectrons: 114.339222  magneticMoment: [ Abs: 0.00000  Tot: +0.00000 ]
	SubspaceRotationAdjust: set factor to 0.188
ElecMinimize: Iter:  27  G: -1199.979704714029140  |grad|_K:  1.772e-06  alpha:  6.309e-02  linmin: -4.489e-06  t[s]:    961.22
	Linear fluid (dielectric constant: 78.4, screening length: 8.12261 Bohr) occupying 0.507362 of unit cell:	Completed after 13 iterations at t[s]:    964.47
	Linear fluid (dielectric constant: 78.4, screening length: 8.12261 Bohr) occupying 0.507295 of unit cell:	Completed after 14 iterations at t[s]:    967.17
	FillingsUpdate:  mu: -0.097800000  nElectrons: 114.339428  magneticMoment: [ Abs: 0.00000  Tot: +0.00000 ]
	SubspaceRotationAdjust: set factor to 0.214
ElecMinimize: Iter:  28  G: -1199.979739253341450  |grad|_K:  1.844e-06  alpha:  1.120e-01  linmin: -5.974e-06  t[s]:    971.08
	Linear fluid (dielectric constant: 78.4, screening length: 8.12261 Bohr) occupying 0.506682 of unit cell:	Completed after 22 iterations at t[s]:    974.64
	Linear fluid (dielectric constant: 78.4, screening length: 8.12261 Bohr) occupying 0.506706 of unit cell:	Completed after 12 iterations at t[s]:    977.38
	FillingsUpdate:  mu: -0.097800000  nElectrons: 114.336132  magneticMoment: [ Abs: 0.00000  Tot: +0.00000 ]
	SubspaceRotationAdjust: set factor to 0.206
ElecMinimize: Iter:  29  G: -1199.979775228098106  |grad|_K:  2.282e-06  alpha:  1.076e-01  linmin:  1.593e-04  t[s]:    981.29
	Linear fluid (dielectric constant: 78.4, screening length: 8.12261 Bohr) occupying 0.507109 of unit cell:	Completed after 23 iterations at t[s]:    984.74
	Linear fluid (dielectric constant: 78.4, screening length: 8.12261 Bohr) occupying 0.506917 of unit cell:	Completed after 20 iterations at t[s]:    987.57
	FillingsUpdate:  mu: -0.097800000  nElectrons: 114.338826  magneticMoment: [ Abs: 0.00000  Tot: +0.00000 ]
	SubspaceRotationAdjust: set factor to 0.182
ElecMinimize: Iter:  30  G: -1199.979803014962954  |grad|_K:  1.686e-06  alpha:  5.506e-02  linmin:  2.073e-05  t[s]:    991.47
	Linear fluid (dielectric constant: 78.4, screening length: 8.12261 Bohr) occupying 0.506727 of unit cell:	Completed after 20 iterations at t[s]:    994.81
	Linear fluid (dielectric constant: 78.4, screening length: 8.12261 Bohr) occupying 0.506615 of unit cell:	Completed after 14 iterations at t[s]:    997.51
	FillingsUpdate:  mu: -0.097800000  nElectrons: 114.337260  magneticMoment: [ Abs: 0.00000  Tot: +0.00000 ]
	SubspaceRotationAdjust: set factor to 0.218
ElecMinimize: Iter:  31  G: -1199.979826985192858  |grad|_K:  1.381e-06  alpha:  8.612e-02  linmin:  7.929e-05  t[s]:   1001.41
	Linear fluid (dielectric constant: 78.4, screening length: 8.12261 Bohr) occupying 0.506351 of unit cell:	Completed after 20 iterations at t[s]:   1005.03
	Linear fluid (dielectric constant: 78.4, screening length: 8.12261 Bohr) occupying 0.506225 of unit cell:	Completed after 19 iterations at t[s]:   1007.87
	FillingsUpdate:  mu: -0.097800000  nElectrons: 114.334918  magneticMoment: [ Abs: 0.00000  Tot: +0.00000 ]
	SubspaceRotationAdjust: set factor to 0.227
ElecMinimize: Iter:  32  G: -1199.979850330516911  |grad|_K:  1.729e-06  alpha:  1.256e-01  linmin:  1.196e-04  t[s]:   1011.79
	Linear fluid (dielectric constant: 78.4, screening length: 8.12261 Bohr) occupying 0.506756 of unit cell:	Completed after 23 iterations at t[s]:   1015.21
	Linear fluid (dielectric constant: 78.4, screening length: 8.12261 Bohr) occupying 0.506467 of unit cell:	Completed after 22 iterations at t[s]:   1018.07
	FillingsUpdate:  mu: -0.097800000  nElectrons: 114.337204  magneticMoment: [ Abs: 0.00000  Tot: +0.00000 ]
	SubspaceRotationAdjust: set factor to 0.177
ElecMinimize: Iter:  33  G: -1199.979866764457256  |grad|_K:  1.618e-06  alpha:  5.653e-02  linmin:  1.400e-05  t[s]:   1021.96
	Linear fluid (dielectric constant: 78.4, screening length: 8.12261 Bohr) occupying 0.506166 of unit cell:	Completed after 20 iterations at t[s]:   1025.35
	Linear fluid (dielectric constant: 78.4, screening length: 8.12261 Bohr) occupying 0.506132 of unit cell:	Completed after 13 iterations at t[s]:   1028.01
	FillingsUpdate:  mu: -0.097800000  nElectrons: 114.334960  magneticMoment: [ Abs: 0.00000  Tot: +0.00000 ]
	SubspaceRotationAdjust: set factor to 0.182
ElecMinimize: Iter:  34  G: -1199.979882820860666  |grad|_K:  1.078e-06  alpha:  6.257e-02  linmin:  1.032e-04  t[s]:   1031.91
	Linear fluid (dielectric constant: 78.4, screening length: 8.12261 Bohr) occupying 0.506078 of unit cell:	Completed after 14 iterations at t[s]:   1035.41
	Linear fluid (dielectric constant: 78.4, screening length: 8.12261 Bohr) occupying 0.506032 of unit cell:	Completed after 14 iterations at t[s]:   1038.13
	FillingsUpdate:  mu: -0.097800000  nElectrons: 114.334356  magneticMoment: [ Abs: 0.00000  Tot: +0.00000 ]
	SubspaceRotationAdjust: set factor to 0.207
ElecMinimize: Iter:  35  G: -1199.979895703155989  |grad|_K:  1.105e-06  alpha:  1.134e-01  linmin: -6.253e-06  t[s]:   1042.04
	Linear fluid (dielectric constant: 78.4, screening length: 8.12261 Bohr) occupying 0.506042 of unit cell:	Completed after 20 iterations at t[s]:   1045.39
	Linear fluid (dielectric constant: 78.4, screening length: 8.12261 Bohr) occupying 0.506042 of unit cell:	Completed after 9 iterations at t[s]:   1047.97
	FillingsUpdate:  mu: -0.097800000  nElectrons: 114.334502  magneticMoment: [ Abs: 0.00000  Tot: +0.00000 ]
	SubspaceRotationAdjust: set factor to 0.205
ElecMinimize: Iter:  36  G: -1199.979909948621298  |grad|_K:  1.229e-06  alpha:  1.187e-01  linmin: -3.078e-05  t[s]:   1051.87
	Linear fluid (dielectric constant: 78.4, screening length: 8.12261 Bohr) occupying 0.505192 of unit cell:	Completed after 22 iterations at t[s]:   1055.31
	Linear fluid (dielectric constant: 78.4, screening length: 8.12261 Bohr) occupying 0.505697 of unit cell:	Completed after 21 iterations at t[s]:   1058.14
	FillingsUpdate:  mu: -0.097800000  nElectrons: 114.331894  magneticMoment: [ Abs: 0.00000  Tot: +0.00000 ]
	SubspaceRotationAdjust: set factor to 0.156
ElecMinimize: Iter:  37  G: -1199.979917414435931  |grad|_K:  1.012e-06  alpha:  4.951e-02  linmin: -1.182e-04  t[s]:   1062.03
	Linear fluid (dielectric constant: 78.4, screening length: 8.12261 Bohr) occupying 0.505732 of unit cell:	Completed after 14 iterations at t[s]:   1065.55
	Linear fluid (dielectric constant: 78.4, screening length: 8.12261 Bohr) occupying 0.505746 of unit cell:	Completed after 13 iterations at t[s]:   1068.24
	FillingsUpdate:  mu: -0.097800000  nElectrons: 114.332156  magneticMoment: [ Abs: 0.00000  Tot: +0.00000 ]
	SubspaceRotationAdjust: set factor to 0.169
ElecMinimize: Iter:  38  G: -1199.979924425699892  |grad|_K:  7.711e-07  alpha:  6.905e-02  linmin: -2.085e-05  t[s]:   1072.14
	Linear fluid (dielectric constant: 78.4, screening length: 8.12261 Bohr) occupying 0.505728 of unit cell:	Completed after 15 iterations at t[s]:   1075.42
	Linear fluid (dielectric constant: 78.4, screening length: 8.12261 Bohr) occupying 0.505709 of unit cell:	Completed after 15 iterations at t[s]:   1078.13
	FillingsUpdate:  mu: -0.097800000  nElectrons: 114.331658  magneticMoment: [ Abs: 0.00000  Tot: +0.00000 ]
	SubspaceRotationAdjust: set factor to 0.187
ElecMinimize: Iter:  39  G: -1199.979932470193944  |grad|_K:  8.509e-07  alpha:  1.375e-01  linmin: -1.374e-05  t[s]:   1082.02
	Linear fluid (dielectric constant: 78.4, screening length: 8.12261 Bohr) occupying 0.505276 of unit cell:	Completed after 21 iterations at t[s]:   1085.37
	Linear fluid (dielectric constant: 78.4, screening length: 8.12261 Bohr) occupying 0.505474 of unit cell:	Completed after 20 iterations at t[s]:   1088.20
	FillingsUpdate:  mu: -0.097800000  nElectrons: 114.329711  magneticMoment: [ Abs: 0.00000  Tot: +0.00000 ]
	SubspaceRotationAdjust: set factor to 0.16
ElecMinimize: Iter:  40  G: -1199.979937883689672  |grad|_K:  8.216e-07  alpha:  7.562e-02  linmin: -1.862e-05  t[s]:   1092.10
	Linear fluid (dielectric constant: 78.4, screening length: 8.12261 Bohr) occupying 0.505625 of unit cell:	Completed after 19 iterations at t[s]:   1095.69
	Linear fluid (dielectric constant: 78.4, screening length: 8.12261 Bohr) occupying 0.505587 of unit cell:	Completed after 14 iterations at t[s]:   1098.42
	FillingsUpdate:  mu: -0.097800000  nElectrons: 114.330335  magneticMoment: [ Abs: 0.00000  Tot: +0.00000 ]
	SubspaceRotationAdjust: set factor to 0.14
ElecMinimize: Iter:  41  G: -1199.979941615164989  |grad|_K:  5.952e-07  alpha:  5.623e-02  linmin: -4.473e-06  t[s]:   1102.33
	Linear fluid (dielectric constant: 78.4, screening length: 8.12261 Bohr) occupying 0.505558 of unit cell:	Completed after 11 iterations at t[s]:   1105.54
	Linear fluid (dielectric constant: 78.4, screening length: 8.12261 Bohr) occupying 0.505525 of unit cell:	Completed after 10 iterations at t[s]:   1108.16
	FillingsUpdate:  mu: -0.097800000  nElectrons: 114.329564  magneticMoment: [ Abs: 0.00000  Tot: +0.00000 ]
	SubspaceRotationAdjust: set factor to 0.161
ElecMinimize: Iter:  42  G: -1199.979945758606846  |grad|_K:  5.991e-07  alpha:  1.191e-01  linmin:  6.009e-06  t[s]:   1112.06
	Linear fluid (dielectric constant: 78.4, screening length: 8.12261 Bohr) occupying 0.505386 of unit cell:	Completed after 17 iterations at t[s]:   1115.40
	Linear fluid (dielectric constant: 78.4, screening length: 8.12261 Bohr) occupying 0.505399 of unit cell:	Completed after 11 iterations at t[s]:   1118.04
	FillingsUpdate:  mu: -0.097800000  nElectrons: 114.328286  magneticMoment: [ Abs: 0.00000  Tot: +0.00000 ]
	SubspaceRotationAdjust: set factor to 0.162
ElecMinimize: Iter:  43  G: -1199.979949550087440  |grad|_K:  5.958e-07  alpha:  1.076e-01  linmin:  1.505e-05  t[s]:   1123.16
	Linear fluid (dielectric constant: 78.4, screening length: 8.12261 Bohr) occupying 0.505609 of unit cell:	Completed after 19 iterations at t[s]:   1127.21
	Linear fluid (dielectric constant: 78.4, screening length: 8.12261 Bohr) occupying 0.505517 of unit cell:	Completed after 15 iterations at t[s]:   1129.96
	FillingsUpdate:  mu: -0.097800000  nElectrons: 114.328903  magneticMoment: [ Abs: 0.00000  Tot: +0.00000 ]
	SubspaceRotationAdjust: set factor to 0.136
ElecMinimize: Iter:  44  G: -1199.979951637313889  |grad|_K:  4.710e-07  alpha:  6.000e-02  linmin:  5.886e-06  t[s]:   1133.86
	Linear fluid (dielectric constant: 78.4, screening length: 8.12261 Bohr) occupying 0.505486 of unit cell:	Completed after 13 iterations at t[s]:   1137.08
	Linear fluid (dielectric constant: 78.4, screening length: 8.12261 Bohr) occupying 0.505467 of unit cell:	Completed after 12 iterations at t[s]:   1139.74
	FillingsUpdate:  mu: -0.097800000  nElectrons: 114.328236  magneticMoment: [ Abs: 0.00000  Tot: +0.00000 ]
	SubspaceRotationAdjust: set factor to 0.148
ElecMinimize: Iter:  45  G: -1199.979953749784499  |grad|_K:  4.383e-07  alpha:  9.702e-02  linmin:  6.466e-06  t[s]:   1143.65
	Linear fluid (dielectric constant: 78.4, screening length: 8.12261 Bohr) occupying 0.505456 of unit cell:	Completed after 13 iterations at t[s]:   1146.87
	Linear fluid (dielectric constant: 78.4, screening length: 8.12261 Bohr) occupying 0.505451 of unit cell:	Completed after 10 iterations at t[s]:   1149.47
	FillingsUpdate:  mu: -0.097800000  nElectrons: 114.327675  magneticMoment: [ Abs: 0.00000  Tot: +0.00000 ]
	SubspaceRotationAdjust: set factor to 0.163
ElecMinimize: Iter:  46  G: -1199.979956301660195  |grad|_K:  4.449e-07  alpha:  1.354e-01  linmin:  7.663e-06  t[s]:   1153.53
	Linear fluid (dielectric constant: 78.4, screening length: 8.12261 Bohr) occupying 0.505630 of unit cell:	Completed after 14 iterations at t[s]:   1156.90
	Linear fluid (dielectric constant: 78.4, screening length: 8.12261 Bohr) occupying 0.505554 of unit cell:	Completed after 14 iterations at t[s]:   1159.61
	FillingsUpdate:  mu: -0.097800000  nElectrons: 114.328127  magneticMoment: [ Abs: 0.00000  Tot: +0.00000 ]
	SubspaceRotationAdjust: set factor to 0.151
ElecMinimize: Iter:  47  G: -1199.979957803756633  |grad|_K:  4.016e-07  alpha:  7.743e-02  linmin:  5.256e-06  t[s]:   1163.52
	Linear fluid (dielectric constant: 78.4, screening length: 8.12261 Bohr) occupying 0.505495 of unit cell:	Completed after 14 iterations at t[s]:   1166.75
	Linear fluid (dielectric constant: 78.4, screening length: 8.12261 Bohr) occupying 0.505497 of unit cell:	Completed after 2 iterations at t[s]:   1169.20
	FillingsUpdate:  mu: -0.097800000  nElectrons: 114.327430  magneticMoment: [ Abs: 0.00000  Tot: +0.00000 ]
	SubspaceRotationAdjust: set factor to 0.141
ElecMinimize: Iter:  48  G: -1199.979959002603664  |grad|_K:  3.652e-07  alpha:  7.569e-02  linmin:  2.613e-05  t[s]:   1173.10
	Linear fluid (dielectric constant: 78.4, screening length: 8.12261 Bohr) occupying 0.505539 of unit cell:	Completed after 12 iterations at t[s]:   1176.30
	Linear fluid (dielectric constant: 78.4, screening length: 8.12261 Bohr) occupying 0.505567 of unit cell:	Completed after 11 iterations at t[s]:   1178.93
	FillingsUpdate:  mu: -0.097800000  nElectrons: 114.327492  magneticMoment: [ Abs: 0.00000  Tot: +0.00000 ]
	SubspaceRotationAdjust: set factor to 0.158
ElecMinimize: Iter:  49  G: -1199.979960661910127  |grad|_K:  3.512e-07  alpha:  1.268e-01  linmin: -1.503e-05  t[s]:   1182.88
	Linear fluid (dielectric constant: 78.4, screening length: 8.12261 Bohr) occupying 0.505648 of unit cell:	Completed after 14 iterations at t[s]:   1186.32
	Linear fluid (dielectric constant: 78.4, screening length: 8.12261 Bohr) occupying 0.505632 of unit cell:	Completed after 10 iterations at t[s]:   1188.95
	FillingsUpdate:  mu: -0.097800000  nElectrons: 114.327594  magneticMoment: [ Abs: 0.00000  Tot: +0.00000 ]
	SubspaceRotationAdjust: set factor to 0.176
ElecMinimize: Iter:  50  G: -1199.979961890457162  |grad|_K:  3.062e-07  alpha:  1.013e-01  linmin: -6.341e-07  t[s]:   1192.86
	Linear fluid (dielectric constant: 78.4, screening length: 8.12261 Bohr) occupying 0.505580 of unit cell:	Completed after 14 iterations at t[s]:   1196.08
	Linear fluid (dielectric constant: 78.4, screening length: 8.12261 Bohr) occupying 0.505584 of unit cell:	Completed after 8 iterations at t[s]:   1198.66
	FillingsUpdate:  mu: -0.097800000  nElectrons: 114.326950  magneticMoment: [ Abs: 0.00000  Tot: +0.00000 ]
	SubspaceRotationAdjust: set factor to 0.165
ElecMinimize: Iter:  51  G: -1199.979962749904416  |grad|_K:  3.623e-07  alpha:  9.333e-02  linmin:  1.471e-05  t[s]:   1202.56
	Linear fluid (dielectric constant: 78.4, screening length: 8.12261 Bohr) occupying 0.505700 of unit cell:	Completed after 13 iterations at t[s]:   1205.77
	Linear fluid (dielectric constant: 78.4, screening length: 8.12261 Bohr) occupying 0.505690 of unit cell:	Completed after 9 iterations at t[s]:   1208.36
	FillingsUpdate:  mu: -0.097800000  nElectrons: 114.327302  magneticMoment: [ Abs: 0.00000  Tot: +0.00000 ]
	SubspaceRotationAdjust: set factor to 0.149
ElecMinimize: Iter:  52  G: -1199.979963849859587  |grad|_K:  3.505e-07  alpha:  8.548e-02  linmin: -1.020e-05  t[s]:   1212.25
	Linear fluid (dielectric constant: 78.4, screening length: 8.12261 Bohr) occupying 0.505692 of unit cell:	Completed after 13 iterations at t[s]:   1215.76
	Linear fluid (dielectric constant: 78.4, screening length: 8.12261 Bohr) occupying 0.505692 of unit cell:	Completed after 3 iterations at t[s]:   1218.25
	FillingsUpdate:  mu: -0.097800000  nElectrons: 114.326837  magneticMoment: [ Abs: 0.00000  Tot: -0.00000 ]
	SubspaceRotationAdjust: set factor to 0.164
ElecMinimize: Iter:  53  G: -1199.979965017101904  |grad|_K:  2.721e-07  alpha:  9.666e-02  linmin:  9.725e-07  t[s]:   1222.16
	Linear fluid (dielectric constant: 78.4, screening length: 8.12261 Bohr) occupying 0.505703 of unit cell:	Completed after 11 iterations at t[s]:   1225.34
	Linear fluid (dielectric constant: 78.4, screening length: 8.12261 Bohr) occupying 0.505705 of unit cell:	Completed after 2 iterations at t[s]:   1227.81
	FillingsUpdate:  mu: -0.097800000  nElectrons: 114.326557  magneticMoment: [ Abs: 0.00000  Tot: -0.00000 ]
	SubspaceRotationAdjust: set factor to 0.177
ElecMinimize: Iter:  54  G: -1199.979965861966548  |grad|_K:  2.796e-07  alpha:  1.162e-01  linmin: -5.400e-06  t[s]:   1231.70
	Linear fluid (dielectric constant: 78.4, screening length: 8.12261 Bohr) occupying 0.505793 of unit cell:	Completed after 14 iterations at t[s]:   1234.94
	Linear fluid (dielectric constant: 78.4, screening length: 8.12261 Bohr) occupying 0.505796 of unit cell:	Completed after 2 iterations at t[s]:   1237.39
	FillingsUpdate:  mu: -0.097800000  nElectrons: 114.326773  magneticMoment: [ Abs: 0.00000  Tot: -0.00000 ]
	SubspaceRotationAdjust: set factor to 0.167
ElecMinimize: Iter:  55  G: -1199.979966778590551  |grad|_K:  3.410e-07  alpha:  1.193e-01  linmin: -8.126e-06  t[s]:   1241.29
	Linear fluid (dielectric constant: 78.4, screening length: 8.12261 Bohr) occupying 0.505706 of unit cell:	Completed after 14 iterations at t[s]:   1244.79
	Linear fluid (dielectric constant: 78.4, screening length: 8.12261 Bohr) occupying 0.505746 of unit cell:	Completed after 13 iterations at t[s]:   1247.54
	FillingsUpdate:  mu: -0.097800000  nElectrons: 114.326036  magneticMoment: [ Abs: 0.00000  Tot: -0.00000 ]
	SubspaceRotationAdjust: set factor to 0.134
ElecMinimize: Iter:  56  G: -1199.979967537062066  |grad|_K:  2.820e-07  alpha:  6.599e-02  linmin: -6.283e-06  t[s]:   1251.46
	Linear fluid (dielectric constant: 78.4, screening length: 8.12261 Bohr) occupying 0.505788 of unit cell:	Completed after 13 iterations at t[s]:   1254.69
	Linear fluid (dielectric constant: 78.4, screening length: 8.12261 Bohr) occupying 0.505799 of unit cell:	Completed after 9 iterations at t[s]:   1257.28
	FillingsUpdate:  mu: -0.097800000  nElectrons: 114.326073  magneticMoment: [ Abs: 0.00000  Tot: -0.00000 ]
	SubspaceRotationAdjust: set factor to 0.139
ElecMinimize: Iter:  57  G: -1199.979968194853200  |grad|_K:  2.252e-07  alpha:  8.411e-02  linmin: -1.548e-05  t[s]:   1261.17
	Linear fluid (dielectric constant: 78.4, screening length: 8.12261 Bohr) occupying 0.505822 of unit cell:	Completed after 11 iterations at t[s]:   1264.36
	Linear fluid (dielectric constant: 78.4, screening length: 8.12261 Bohr) occupying 0.505835 of unit cell:	Completed after 10 iterations at t[s]:   1266.97
	FillingsUpdate:  mu: -0.097800000  nElectrons: 114.325957  magneticMoment: [ Abs: 0.00000  Tot: -0.00000 ]
	SubspaceRotationAdjust: set factor to 0.145
ElecMinimize: Iter:  58  G: -1199.979968878867567  |grad|_K:  2.441e-07  alpha:  1.371e-01  linmin: -6.139e-06  t[s]:   1270.87
	Linear fluid (dielectric constant: 78.4, screening length: 8.12261 Bohr) occupying 0.505797 of unit cell:	Completed after 14 iterations at t[s]:   1274.31
	Linear fluid (dielectric constant: 78.4, screening length: 8.12261 Bohr) occupying 0.505810 of unit cell:	Completed after 13 iterations at t[s]:   1277.07
	FillingsUpdate:  mu: -0.097800000  nElectrons: 114.325461  magneticMoment: [ Abs: 0.00000  Tot: -0.00000 ]
	SubspaceRotationAdjust: set factor to 0.129
ElecMinimize: Iter:  59  G: -1199.979969419336385  |grad|_K:  2.199e-07  alpha:  9.214e-02  linmin:  6.130e-06  t[s]:   1280.98
	Linear fluid (dielectric constant: 78.4, screening length: 8.12261 Bohr) occupying 0.505878 of unit cell:	Completed after 14 iterations at t[s]:   1284.21
	Linear fluid (dielectric constant: 78.4, screening length: 8.12261 Bohr) occupying 0.505863 of unit cell:	Completed after 10 iterations at t[s]:   1286.85
	FillingsUpdate:  mu: -0.097800000  nElectrons: 114.325645  magneticMoment: [ Abs: 0.00000  Tot: -0.00000 ]
	SubspaceRotationAdjust: set factor to 0.117
ElecMinimize: Iter:  60  G: -1199.979969760057884  |grad|_K:  1.747e-07  alpha:  7.184e-02  linmin: -2.266e-06  t[s]:   1290.75
	Linear fluid (dielectric constant: 78.4, screening length: 8.12261 Bohr) occupying 0.505867 of unit cell:	Completed after 9 iterations at t[s]:   1293.88
	Linear fluid (dielectric constant: 78.4, screening length: 8.12261 Bohr) occupying 0.505870 of unit cell:	Completed after 8 iterations at t[s]:   1296.48
	FillingsUpdate:  mu: -0.097800000  nElectrons: 114.325467  magneticMoment: [ Abs: 0.00000  Tot: -0.00000 ]
	SubspaceRotationAdjust: set factor to 0.127
ElecMinimize: Iter:  61  G: -1199.979970139339230  |grad|_K:  1.739e-07  alpha:  1.266e-01  linmin:  1.668e-05  t[s]:   1300.37
	Linear fluid (dielectric constant: 78.4, screening length: 8.12261 Bohr) occupying 0.505856 of unit cell:	Completed after 14 iterations at t[s]:   1303.77
	Linear fluid (dielectric constant: 78.4, screening length: 8.12261 Bohr) occupying 0.505859 of unit cell:	Completed after 9 iterations at t[s]:   1306.51
	FillingsUpdate:  mu: -0.097800000  nElectrons: 114.325208  magneticMoment: [ Abs: 0.00000  Tot: -0.00000 ]
	SubspaceRotationAdjust: set factor to 0.124
ElecMinimize: Iter:  62  G: -1199.979970428068555  |grad|_K:  1.407e-07  alpha:  9.737e-02  linmin:  6.543e-06  t[s]:   1310.42
	Linear fluid (dielectric constant: 78.4, screening length: 8.12261 Bohr) occupying 0.505902 of unit cell:	Completed after 13 iterations at t[s]:   1313.64
	Linear fluid (dielectric constant: 78.4, screening length: 8.12261 Bohr) occupying 0.505891 of unit cell:	Completed after 10 iterations at t[s]:   1316.25
	FillingsUpdate:  mu: -0.097800000  nElectrons: 114.325353  magneticMoment: [ Abs: 0.00000  Tot: -0.00000 ]
	SubspaceRotationAdjust: set factor to 0.112
ElecMinimize: Iter:  63  G: -1199.979970570626847  |grad|_K:  1.145e-07  alpha:  7.342e-02  linmin:  1.031e-05  t[s]:   1320.15
	Linear fluid (dielectric constant: 78.4, screening length: 8.12261 Bohr) occupying 0.505891 of unit cell:	Completed after 9 iterations at t[s]:   1323.31
	Linear fluid (dielectric constant: 78.4, screening length: 8.12261 Bohr) occupying 0.505890 of unit cell:	Completed after 2 iterations at t[s]:   1325.77
	FillingsUpdate:  mu: -0.097800000  nElectrons: 114.325237  magneticMoment: [ Abs: 0.00000  Tot: -0.00000 ]
	SubspaceRotationAdjust: set factor to 0.123
ElecMinimize: Iter:  64  G: -1199.979970736162159  |grad|_K:  1.202e-07  alpha:  1.284e-01  linmin: -3.031e-05  t[s]:   1329.66
	Linear fluid (dielectric constant: 78.4, screening length: 8.12261 Bohr) occupying 0.505878 of unit cell:	Completed after 11 iterations at t[s]:   1332.96
	Linear fluid (dielectric constant: 78.4, screening length: 8.12261 Bohr) occupying 0.505880 of unit cell:	Completed after 2 iterations at t[s]:   1335.71
	FillingsUpdate:  mu: -0.097800000  nElectrons: 114.325066  magneticMoment: [ Abs: 0.00000  Tot: -0.00000 ]
	SubspaceRotationAdjust: set factor to 0.127
ElecMinimize: Iter:  65  G: -1199.979970889171000  |grad|_K:  1.076e-07  alpha:  1.075e-01  linmin:  9.025e-06  t[s]:   1339.63
	Linear fluid (dielectric constant: 78.4, screening length: 8.12261 Bohr) occupying 0.505918 of unit cell:	Completed after 13 iterations at t[s]:   1342.88
	Linear fluid (dielectric constant: 78.4, screening length: 8.12261 Bohr) occupying 0.505903 of unit cell:	Completed after 11 iterations at t[s]:   1345.51
	FillingsUpdate:  mu: -0.097800000  nElectrons: 114.325185  magneticMoment: [ Abs: 0.00000  Tot: -0.00000 ]
	SubspaceRotationAdjust: set factor to 0.115
ElecMinimize: Iter:  66  G: -1199.979970962607240  |grad|_K:  8.097e-08  alpha:  6.512e-02  linmin: -3.081e-05  t[s]:   1349.42
	Linear fluid (dielectric constant: 78.4, screening length: 8.12261 Bohr) occupying 0.505901 of unit cell:	Completed after 8 iterations at t[s]:   1352.53
	Linear fluid (dielectric constant: 78.4, screening length: 8.12261 Bohr) occupying 0.505899 of unit cell:	Completed after 2 iterations at t[s]:   1355.00
	FillingsUpdate:  mu: -0.097800000  nElectrons: 114.325113  magneticMoment: [ Abs: 0.00000  Tot: -0.00000 ]
	SubspaceRotationAdjust: set factor to 0.134
ElecMinimize: Iter:  67  G: -1199.979971033935044  |grad|_K:  7.812e-08  alpha:  1.102e-01  linmin: -5.129e-05  t[s]:   1358.90
ElecMinimize: Converged (|Delta G|<1.000000e-07 for 2 iters).
Setting wave functions to eigenvectors of Hamiltonian
Converging empty states (this may take a while): |deigs|: 7.931e-04
Single-point solvation energy estimate, DeltaG = -0.009281879288892

Computing DFT-D3 correction:
# coordination-number Cu 6.833 9.159 9.149 9.159 6.833 9.149
# diagonal-C6 Cu 175.00 175.00 175.00 175.00 175.00 175.00
EvdW_6 =   -0.037110
EvdW_8 =   -0.054747

# Ionic positions in cartesian coordinates:
ion Cu  -0.000002000000000   2.752013000000000   1.945946000000000 1
ion Cu   2.383311000000000   4.128017999999999   9.729848999999998 1
ion Cu   2.383313999999999   1.376005000000000   5.837898000000000 1
ion Cu  -0.000002000000000   2.752013000000000  13.621741999999999 1
ion Cu   2.383311000000000   4.128017999999999  21.405643999999999 1
ion Cu   2.383313999999999   1.376005000000000  17.513693000000000 1

# Forces in Cartesian coordinates:
force Cu   0.000004573194292   0.000001796791400  -0.003025190974753 1
force Cu   0.000001600207973   0.000002793386259  -0.000433509519284 1
[...]
	Linear fluid (dielectric constant: 78.4, screening length: 8.12261 Bohr) occupying 0.504889 of unit cell:	Completed after 4 iterations at t[s]:   3467.96
	Linear fluid (dielectric constant: 78.4, screening length: 8.12261 Bohr) occupying 0.504890 of unit cell:	Completed after 6 iterations at t[s]:   3470.52
	FillingsUpdate:  mu: -0.097800000  nElectrons: 114.330001  magneticMoment: [ Abs: 0.00000  Tot: -0.00000 ]
	SubspaceRotationAdjust: set factor to 0.0725
ElecMinimize: Iter:  17  G: -1199.980160288572051  |grad|_K:  1.059e-07  alpha:  2.040e-01  linmin:  1.494e-05  t[s]:   3474.43
	Linear fluid (dielectric constant: 78.4, screening length: 8.12261 Bohr) occupying 0.504868 of unit cell:	Completed after 13 iterations at t[s]:   3477.65
	Linear fluid (dielectric constant: 78.4, screening length: 8.12261 Bohr) occupying 0.504875 of unit cell:	Completed after 9 iterations at t[s]:   3480.24
	FillingsUpdate:  mu: -0.097800000  nElectrons: 114.329879  magneticMoment: [ Abs: 0.00000  Tot: -0.00000 ]
	SubspaceRotationAdjust: set factor to 0.0732
ElecMinimize: Iter:  18  G: -1199.980160440314421  |grad|_K:  6.239e-08  alpha:  1.377e-01  linmin:  2.591e-05  t[s]:   3484.15
	Linear fluid (dielectric constant: 78.4, screening length: 8.12261 Bohr) occupying 0.504875 of unit cell:	Completed after 2 iterations at t[s]:   3487.15
	Linear fluid (dielectric constant: 78.4, screening length: 8.12261 Bohr) occupying 0.504874 of unit cell:	Completed after 2 iterations at t[s]:   3489.61
	FillingsUpdate:  mu: -0.097800000  nElectrons: 114.329862  magneticMoment: [ Abs: 0.00000  Tot: -0.00000 ]
	SubspaceRotationAdjust: set factor to 0.0769
ElecMinimize: Iter:  19  G: -1199.980160505403774  |grad|_K:  5.941e-08  alpha:  1.708e-01  linmin:  1.336e-04  t[s]:   3493.70
	Linear fluid (dielectric constant: 78.4, screening length: 8.12261 Bohr) occupying 0.504873 of unit cell:	Completed after 7 iterations at t[s]:   3496.92
	Linear fluid (dielectric constant: 78.4, screening length: 8.12261 Bohr) occupying 0.504873 of unit cell:	Completed after 2 iterations at t[s]:   3499.38
	FillingsUpdate:  mu: -0.097800000  nElectrons: 114.329841  magneticMoment: [ Abs: 0.00000  Tot: -0.00000 ]
	SubspaceRotationAdjust: set factor to 0.082
ElecMinimize: Iter:  20  G: -1199.980160556781584  |grad|_K:  3.860e-08  alpha:  1.491e-01  linmin: -1.733e-04  t[s]:   3503.29
ElecMinimize: Converged (|Delta G|<1.000000e-07 for 2 iters).
Setting wave functions to eigenvectors of Hamiltonian
Converging empty states (this may take a while): |deigs|: 4.776e-08

Computing DFT-D3 correction:
# coordination-number Cu 6.720 9.203 9.067 9.198 6.710 9.052
# diagonal-C6 Cu 175.00 175.00 175.00 175.00 175.00 175.00
EvdW_6 =   -0.037086
EvdW_8 =   -0.054626

# Ionic positions in cartesian coordinates:
ion Cu   0.000324922800093   2.752208114555665   1.902831310067361 1
ion Cu   2.383356250910063   4.128171838355622   9.732009354252973 1
ion Cu   2.383310281739803   1.376191647145973   5.857956434678926 1
ion Cu  -0.000003142303558   2.751914569115140  13.615816459732022 1
ion Cu   2.383085835238880   4.127752807131336  21.453309509526012 1
ion Cu   2.383171851614720   1.375833023696259  17.492848931742703 1

# Forces in Cartesian coordinates:
force Cu   0.000003334051950   0.000001622247926  -0.000211132959909 1
force Cu   0.000000849718791   0.000001817102084   0.000169246216197 1
force Cu   0.000002264948915   0.000002861764751  -0.000166496933401 1
force Cu   0.000000281414342  -0.000000008409709   0.000172221594702 1
force Cu  -0.000002820871952  -0.000003612369856  -0.000102238014416 1
force Cu  -0.000001284746654  -0.000001941668194   0.000254838514051 1

# Energy components:
   A_diel =       -0.0971642640374655
   Eewald =     6644.3770668319839388
       EH =     7764.5273785133058482
     Eloc =   -15847.1740073862456484
      Enl =      219.7208323582065645
     EvdW =       -0.0917114398300272
      Exc =     -116.5035604027057019
 Exc_core =        0.2818130793565874
       KE =      123.8306133381293961
  MuShift =       -0.0324788074604901
-------------------------------------
     Etot =    -1211.1612181792975207
       TS =        0.0004008165444994
-------------------------------------
        F =    -1211.1616189958419909
      muN =      -11.1814584390603180
-------------------------------------
        G =    -1199.9801605567815841


Dumping 'jdft.fillings' ... done
Dumping 'jdft.wfns' ... done
Dumping 'jdft.fluidState' ... done
Dumping 'jdft.ionpos' ... done
Dumping 'jdft.lattice' ... done
Dumping 'jdft.eigenvals' ... done
Dumping 'jdft.eigStats' ... 
	eMin: -4.237931 at state 144 ( [ +0.000000 +0.000000 +0.000000 ] spin -1 )
	HOMO: -0.099021 at state 214 ( [ +0.416667 -0.166667 +0.000000 ] spin -1 )
	mu  : -0.097800
	LUMO: -0.097331 at state 172 ( [ +0.166667 +0.333333 +0.000000 ] spin -1 )
	eMax: +0.266294 at state 222 ( [ +0.500000 +0.500000 +0.000000 ] spin -1 )
	HOMO-LUMO gap: +0.001690
	Optical gap  : +0.008603 at state 186 ( [ +0.250000 +0.500000 +0.000000 ] spin -1 )
Dumping 'jdft.Ecomponents' ... done
IonicMinimize: Iter:   8  G: -1199.980160556781584  |grad|_K:  1.064e-04  alpha:  2.386e-01  linmin: -2.507e-01  t[s]:   3513.44

#--- Lowdin population analysis ---
# oxidation-state Cu -0.044 +0.072 +0.067 +0.072 -0.043 +0.068
# magnetic-moments Cu +0.000 +0.000 -0.000 +0.000 -0.000 +0.000


Computing DFT-D3 correction:
# coordination-number Cu 6.725 9.189 9.064 9.188 6.714 9.052
# diagonal-C6 Cu 175.00 175.00 175.00 175.00 175.00 175.00
EvdW_6 =   -0.037074
EvdW_8 =   -0.054594
Shifting auxilliary hamiltonian by -0.000028 to set nElectrons=114.329841

-------- Electronic minimization -----------
	Linear fluid (dielectric constant: 78.4, screening length: 8.12261 Bohr) occupying 0.504834 of unit cell:	Completed after 21 iterations at t[s]:   3517.18
	FillingsUpdate:  mu: -0.097800000  nElectrons: 114.329841  magneticMoment: [ Abs: 0.00000  Tot: -0.00000 ]
ElecMinimize: Iter:   0  G: -1199.980142415197406  |grad|_K:  7.846e-07  alpha:  1.000e+00
	Linear fluid (dielectric constant: 78.4, screening length: 8.12261 Bohr) occupying 0.502513 of unit cell:	Completed after 24 iterations at t[s]:   3526.46
	Linear fluid (dielectric constant: 78.4, screening length: 8.12261 Bohr) occupying 0.504613 of unit cell:	Completed after 25 iterations at t[s]:   3529.38
	FillingsUpdate:  mu: -0.097800000  nElectrons: 114.328206  magneticMoment: [ Abs: 0.00000  Tot: -0.00000 ]
	SubspaceRotationAdjust: set factor to 0.0578
ElecMinimize: Iter:   1  G: -1199.980148414952509  |grad|_K:  4.832e-07  alpha:  1.003e-01  linmin:  1.419e-03  t[s]:   3533.28
	Linear fluid (dielectric constant: 78.4, screening length: 8.12261 Bohr) occupying 0.504699 of unit cell:	Completed after 18 iterations at t[s]:   3536.59
	Linear fluid (dielectric constant: 78.4, screening length: 8.12261 Bohr) occupying 0.504793 of unit cell:	Completed after 18 iterations at t[s]:   3539.38
	FillingsUpdate:  mu: -0.097800000  nElectrons: 114.329574  magneticMoment: [ Abs: 0.00000  Tot: -0.00000 ]
	SubspaceRotationAdjust: set factor to 0.044
ElecMinimize: Iter:   2  G: -1199.980153193403567  |grad|_K:  3.826e-07  alpha:  2.107e-01  linmin:  2.007e-04  t[s]:   3543.28
	Linear fluid (dielectric constant: 78.4, screening length: 8.12261 Bohr) occupying 0.504767 of unit cell:	Completed after 18 iterations at t[s]:   3546.60
	Linear fluid (dielectric constant: 78.4, screening length: 8.12261 Bohr) occupying 0.504776 of unit cell:	Completed after 13 iterations at t[s]:   3549.28
	FillingsUpdate:  mu: -0.097800000  nElectrons: 114.329454  magneticMoment: [ Abs: 0.00000  Tot: -0.00000 ]
	SubspaceRotationAdjust: set factor to 0.0488
ElecMinimize: Iter:   3  G: -1199.980155182589669  |grad|_K:  2.450e-07  alpha:  1.386e-01  linmin:  2.404e-05  t[s]:   3553.31
	Linear fluid (dielectric constant: 78.4, screening length: 8.12261 Bohr) occupying 0.504756 of unit cell:	Completed after 14 iterations at t[s]:   3556.74
	Linear fluid (dielectric constant: 78.4, screening length: 8.12261 Bohr) occupying 0.504752 of unit cell:	Completed after 9 iterations at t[s]:   3559.34
	FillingsUpdate:  mu: -0.097800000  nElectrons: 114.329283  magneticMoment: [ Abs: 0.00000  Tot: -0.00000 ]
	SubspaceRotationAdjust: set factor to 0.0537
ElecMinimize: Iter:   4  G: -1199.980156163120000  |grad|_K:  1.298e-07  alpha:  1.664e-01  linmin:  7.140e-05  t[s]:   3563.25
	Linear fluid (dielectric constant: 78.4, screening length: 8.12261 Bohr) occupying 0.504786 of unit cell:	Completed after 13 iterations at t[s]:   3566.45
	Linear fluid (dielectric constant: 78.4, screening length: 8.12261 Bohr) occupying 0.504797 of unit cell:	Completed after 11 iterations at t[s]:   3569.08
	FillingsUpdate:  mu: -0.097800000  nElectrons: 114.329627  magneticMoment: [ Abs: 0.00000  Tot: -0.00000 ]
	SubspaceRotationAdjust: set factor to 0.0557
ElecMinimize: Iter:   5  G: -1199.980156534526941  |grad|_K:  1.367e-07  alpha:  2.245e-01  linmin: -3.239e-05  t[s]:   3572.99
	Linear fluid (dielectric constant: 78.4, screening length: 8.12261 Bohr) occupying 0.504807 of unit cell:	Completed after 11 iterations at t[s]:   3576.16
	Linear fluid (dielectric constant: 78.4, screening length: 8.12261 Bohr) occupying 0.504807 of unit cell:	Completed after 0 iterations at t[s]:   3578.55
	FillingsUpdate:  mu: -0.097800000  nElectrons: 114.329710  magneticMoment: [ Abs: 0.00000  Tot: -0.00000 ]
	SubspaceRotationAdjust: set factor to 0.0734
ElecMinimize: Iter:   6  G: -1199.980156953307414  |grad|_K:  1.103e-07  alpha:  2.279e-01  linmin: -1.388e-04  t[s]:   3582.52
	Linear fluid (dielectric constant: 78.4, screening length: 8.12261 Bohr) occupying 0.504768 of unit cell:	Completed after 14 iterations at t[s]:   3585.95
	Linear fluid (dielectric constant: 78.4, screening length: 8.12261 Bohr) occupying 0.504778 of unit cell:	Completed after 10 iterations at t[s]:   3588.58
	FillingsUpdate:  mu: -0.097800000  nElectrons: 114.329498  magneticMoment: [ Abs: 0.00000  Tot: -0.00000 ]
	SubspaceRotationAdjust: set factor to 0.0859
ElecMinimize: Iter:   7  G: -1199.980157158438942  |grad|_K:  1.003e-07  alpha:  1.706e-01  linmin:  1.311e-04  t[s]:   3592.49
	Linear fluid (dielectric constant: 78.4, screening length: 8.12261 Bohr) occupying 0.504775 of unit cell:	Completed after 8 iterations at t[s]:   3595.60
	Linear fluid (dielectric constant: 78.4, screening length: 8.12261 Bohr) occupying 0.504769 of unit cell:	Completed after 9 iterations at t[s]:   3598.21
	FillingsUpdate:  mu: -0.097800000  nElectrons: 114.329451  magneticMoment: [ Abs: 0.00000  Tot: -0.00000 ]
	SubspaceRotationAdjust: set factor to 0.0958
ElecMinimize: Iter:   8  G: -1199.980157650548563  |grad|_K:  1.648e-07  alpha:  5.005e-01  linmin:  3.974e-05  t[s]:   3602.12
	Linear fluid (dielectric constant: 78.4, screening length: 8.12261 Bohr) occupying 0.504826 of unit cell:	Completed after 18 iterations at t[s]:   3605.42
	Linear fluid (dielectric constant: 78.4, screening length: 8.12261 Bohr) occupying 0.504787 of unit cell:	Completed after 17 iterations at t[s]:   3608.18
	FillingsUpdate:  mu: -0.097800000  nElectrons: 114.329603  magneticMoment: [ Abs: 0.00000  Tot: -0.00000 ]
	SubspaceRotationAdjust: set factor to 0.103
ElecMinimize: Iter:   9  G: -1199.980158071877213  |grad|_K:  1.325e-07  alpha:  1.577e-01  linmin: -1.973e-05  t[s]:   3612.08
	Linear fluid (dielectric constant: 78.4, screening length: 8.12261 Bohr) occupying 0.504758 of unit cell:	Completed after 13 iterations at t[s]:   3615.51
	Linear fluid (dielectric constant: 78.4, screening length: 8.12261 Bohr) occupying 0.504734 of unit cell:	Completed after 12 iterations at t[s]:   3618.21
	FillingsUpdate:  mu: -0.097800000  nElectrons: 114.329225  magneticMoment: [ Abs: 0.00000  Tot: +0.00000 ]
	SubspaceRotationAdjust: set factor to 0.101
ElecMinimize: Iter:  10  G: -1199.980158566458840  |grad|_K:  1.839e-07  alpha:  2.859e-01  linmin: -3.053e-05  t[s]:   3622.12
	Linear fluid (dielectric constant: 78.4, screening length: 8.12261 Bohr) occupying 0.504796 of unit cell:	Completed after 15 iterations at t[s]:   3625.37
	Linear fluid (dielectric constant: 78.4, screening length: 8.12261 Bohr) occupying 0.504773 of unit cell:	Completed after 14 iterations at t[s]:   3628.07
	FillingsUpdate:  mu: -0.097800000  nElectrons: 114.329546  magneticMoment: [ Abs: 0.00000  Tot: +0.00000 ]
	SubspaceRotationAdjust: set factor to 0.0863
ElecMinimize: Iter:  11  G: -1199.980159166614612  |grad|_K:  1.794e-07  alpha:  1.802e-01  linmin:  6.860e-08  t[s]:   3631.99
	Linear fluid (dielectric constant: 78.4, screening length: 8.12261 Bohr) occupying 0.504727 of unit cell:	Completed after 13 iterations at t[s]:   3635.23
	Linear fluid (dielectric constant: 78.4, screening length: 8.12261 Bohr) occupying 0.504735 of unit cell:	Completed after 10 iterations at t[s]:   3637.84
	FillingsUpdate:  mu: -0.097800000  nElectrons: 114.329285  magneticMoment: [ Abs: 0.00000  Tot: +0.00000 ]
	SubspaceRotationAdjust: set factor to 0.0765
ElecMinimize: Iter:  12  G: -1199.980159634647407  |grad|_K:  1.567e-07  alpha:  1.481e-01  linmin:  7.900e-07  t[s]:   3641.75
	Linear fluid (dielectric constant: 78.4, screening length: 8.12261 Bohr) occupying 0.504751 of unit cell:	Completed after 11 iterations at t[s]:   3645.16
	Linear fluid (dielectric constant: 78.4, screening length: 8.12261 Bohr) occupying 0.504757 of unit cell:	Completed after 8 iterations at t[s]:   3647.79
	FillingsUpdate:  mu: -0.097800000  nElectrons: 114.329468  magneticMoment: [ Abs: 0.00000  Tot: +0.00000 ]
	SubspaceRotationAdjust: set factor to 0.0776
ElecMinimize: Iter:  13  G: -1199.980160109833832  |grad|_K:  1.360e-07  alpha:  1.969e-01  linmin: -1.729e-05  t[s]:   3651.69
	Linear fluid (dielectric constant: 78.4, screening length: 8.12261 Bohr) occupying 0.504766 of unit cell:	Completed after 9 iterations at t[s]:   3654.82
	Linear fluid (dielectric constant: 78.4, screening length: 8.12261 Bohr) occupying 0.504765 of unit cell:	Completed after 2 iterations at t[s]:   3657.28
	FillingsUpdate:  mu: -0.097800000  nElectrons: 114.329540  magneticMoment: [ Abs: 0.00000  Tot: +0.00000 ]
	SubspaceRotationAdjust: set factor to 0.0804
ElecMinimize: Iter:  14  G: -1199.980160417146863  |grad|_K:  1.233e-07  alpha:  1.690e-01  linmin:  1.172e-07  t[s]:   3661.18
	Linear fluid (dielectric constant: 78.4, screening length: 8.12261 Bohr) occupying 0.504743 of unit cell:	Completed after 13 iterations at t[s]:   3664.39
	Linear fluid (dielectric constant: 78.4, screening length: 8.12261 Bohr) occupying 0.504742 of unit cell:	Completed after 2 iterations at t[s]:   3666.85
	FillingsUpdate:  mu: -0.097800000  nElectrons: 114.329377  magneticMoment: [ Abs: 0.00000  Tot: +0.00000 ]
	SubspaceRotationAdjust: set factor to 0.0694
ElecMinimize: Iter:  15  G: -1199.980160685417786  |grad|_K:  9.128e-08  alpha:  1.795e-01  linmin: -3.857e-05  t[s]:   3670.75
	Linear fluid (dielectric constant: 78.4, screening length: 8.12261 Bohr) occupying 0.504774 of unit cell:	Completed after 14 iterations at t[s]:   3674.16
	Linear fluid (dielectric constant: 78.4, screening length: 8.12261 Bohr) occupying 0.504762 of unit cell:	Completed after 10 iterations at t[s]:   3676.86
	FillingsUpdate:  mu: -0.097800000  nElectrons: 114.329530  magneticMoment: [ Abs: 0.00000  Tot: +0.00000 ]
	SubspaceRotationAdjust: set factor to 0.0603
ElecMinimize: Iter:  16  G: -1199.980160777707397  |grad|_K:  5.686e-08  alpha:  1.119e-01  linmin:  5.086e-05  t[s]:   3680.78
	Linear fluid (dielectric constant: 78.4, screening length: 8.12261 Bohr) occupying 0.504763 of unit cell:	Completed after 2 iterations at t[s]:   3683.76
	Linear fluid (dielectric constant: 78.4, screening length: 8.12261 Bohr) occupying 0.504764 of unit cell:	Completed after 3 iterations at t[s]:   3686.24
	FillingsUpdate:  mu: -0.097800000  nElectrons: 114.329556  magneticMoment: [ Abs: 0.00000  Tot: +0.00000 ]
	SubspaceRotationAdjust: set factor to 0.0647
ElecMinimize: Iter:  17  G: -1199.980160854699534  |grad|_K:  6.015e-08  alpha:  2.416e-01  linmin: -1.968e-04  t[s]:   3690.15
ElecMinimize: Converged (|Delta G|<1.000000e-07 for 2 iters).
Setting wave functions to eigenvectors of Hamiltonian
Converging empty states (this may take a while): |deigs|: 8.086e-08

Computing DFT-D3 correction:
# coordination-number Cu 6.725 9.189 9.064 9.188 6.714 9.052
# diagonal-C6 Cu 175.00 175.00 175.00 175.00 175.00 175.00
EvdW_6 =   -0.037074
EvdW_8 =   -0.054594

# Ionic positions in cartesian coordinates:
ion Cu   0.000408961731252   2.752257476168435   1.899814528203905 1
ion Cu   2.383364289779817   4.128223034720556   9.730883407499613 1
ion Cu   2.383364925405302   1.376267596711764   5.852143665079526 1
ion Cu  -0.000004367479002   2.751911047702466  13.618252068868809 1
ion Cu   2.382991146740213   4.127643248840689  21.456016083930411 1
ion Cu   2.383121043822419   1.375769595856088  17.497662246417732 1

# Forces in Cartesian coordinates:
force Cu  -0.000000113794154   0.000000124673658  -0.000148240588110 1
force Cu   0.000001373891930   0.000000116476714   0.000214101123408 1
force Cu   0.000000783961514   0.000000723916748   0.000526812485941 1
force Cu  -0.000000402280931  -0.000000322455829  -0.000020414069633 1
force Cu   0.000001237671743   0.000001078737373  -0.000210075780896 1
force Cu  -0.000000280853777  -0.000000420574974  -0.000217375166610 1

# Energy components:
   A_diel =       -0.0970266445623514
   Eewald =     6639.9539447744136851
       EH =     7760.1097879218077651
     Eloc =   -15838.3339131601169356
      Enl =      219.7218911928116540
     EvdW =       -0.0916684509553585
      Exc =     -116.5033353725699925
 Exc_core =        0.2818130585431421
       KE =      123.8297673255297582
  MuShift =       -0.0324508003690048
-------------------------------------
     Etot =    -1211.1611901554683755
       TS =        0.0004013212279086
-------------------------------------
        F =    -1211.1615914766962305
      muN =      -11.1814306219966824
-------------------------------------
        G =    -1199.9801608546995340


Dumping 'jdft.fillings' ... done
Dumping 'jdft.wfns' ... done
Dumping 'jdft.fluidState' ... done
Dumping 'jdft.ionpos' ... done
Dumping 'jdft.lattice' ... done
Dumping 'jdft.eigenvals' ... done
Dumping 'jdft.eigStats' ... 
	eMin: -4.237689 at state 0 ( [ +0.000000 +0.000000 +0.000000 ] spin 1 )
	HOMO: -0.098973 at state 187 ( [ +0.250000 -0.416667 +0.000000 ] spin -1 )
	mu  : -0.097800
	LUMO: -0.097278 at state 172 ( [ +0.166667 +0.333333 +0.000000 ] spin -1 )
	eMax: +0.266316 at state 222 ( [ +0.500000 +0.500000 +0.000000 ] spin -1 )
	HOMO-LUMO gap: +0.001695
	Optical gap  : +0.008467 at state 258 ( [ -0.250000 +0.500000 +0.000000 ] spin -1 )
Dumping 'jdft.Ecomponents' ... done
IonicMinimize: Iter:   9  G: -1199.980160854699534  |grad|_K:  1.552e-04  alpha:  1.000e+00  linmin:  7.615e-01  t[s]:   3699.81
IonicMinimize: Converged (|Delta G|<1.000000e-06 for 2 iters).

#--- Lowdin population analysis ---
# oxidation-state Cu -0.045 +0.073 +0.067 +0.073 -0.044 +0.068
# magnetic-moments Cu +0.000 -0.000 +0.000 +0.000 -0.000 +0.000


Dumping 'jdft.n_up' ... done
Dumping 'jdft.n_dn' ... done
Dumping 'jdft.tau_up' ... done
Dumping 'jdft.tau_dn' ... done
Dumping 'jdft.eigenvals' ... done
Dumping 'jdft.eigStats' ... 
	eMin: -4.237689 at state 0 ( [ +0.000000 +0.000000 +0.000000 ] spin 1 )
	HOMO: -0.098973 at state 187 ( [ +0.250000 -0.416667 +0.000000 ] spin -1 )
	mu  : -0.097800
	LUMO: -0.097278 at state 172 ( [ +0.166667 +0.333333 +0.000000 ] spin -1 )
	eMax: +0.266316 at state 222 ( [ +0.500000 +0.500000 +0.000000 ] spin -1 )
	HOMO-LUMO gap: +0.001695
	Optical gap  : +0.008467 at state 258 ( [ -0.250000 +0.500000 +0.000000 ] spin -1 )
Dumping 'jdft.kPts' ... done
Dumping 'jdft.dosUp' ... done.
Dumping 'jdft.dosDn' ... done.
End date and time: Mon Dec  6 16:40:04 2021  (Duration: 0-1:01:47.05)
Done!
