
*************** JDFTx 1.6.0  ***************

Start date and time: Thu Dec  9 05:46:28 2021
Executable /projects/musgravc/apps/jdftx-1.6.1/build/jdftx with command-line: -i in
Running on hosts (process indices):  shas0159.rc.int.colorado.edu (0-23)
Divided in process groups (process indices):  0 (0)  1 (1)  2 (2)  3 (3)  4 (4)  5 (5)  6 (6)  7 (7)  8 (8)  9 (9)  10 (10)  11 (11)  12 (12)  13 (13)  14 (14)  15 (15)  16 (16)  17 (17)  18 (18)  19 (19)  20 (20)  21 (21)  22 (22)  23 (23)
Resource initialization completed at t[s]:      0.00
Run totals: 24 processes, 24 threads, 0 GPUs


Input parsed successfully to the following command list (including defaults):

basis kpoint-dependent
converge-empty-states yes
coords-type Cartesian
core-overlap-check none
coulomb-interaction Periodic
davidson-band-ratio 1.1
density-of-states Etol 1.000000e-06 Esigma 1.000000e-03 \
		Complete \
	Total \
	OrthoOrbital Pt 1   s \
	OrthoOrbital Pt 1   p \
	OrthoOrbital Pt 1   px \
	OrthoOrbital Pt 1   py \
	OrthoOrbital Pt 1   pz \
	OrthoOrbital Pt 1   d \
	OrthoOrbital Pt 1   dxy \
	OrthoOrbital Pt 1   dyz \
	OrthoOrbital Pt 1   dz2 \
	OrthoOrbital Pt 1   dxz \
	OrthoOrbital Pt 1   dx2-y2 \
	OrthoOrbital Pt 2   s \
	OrthoOrbital Pt 2   p \
	OrthoOrbital Pt 2   px \
	OrthoOrbital Pt 2   py \
	OrthoOrbital Pt 2   pz \
	OrthoOrbital Pt 2   d \
	OrthoOrbital Pt 2   dxy \
	OrthoOrbital Pt 2   dyz \
	OrthoOrbital Pt 2   dz2 \
	OrthoOrbital Pt 2   dxz \
	OrthoOrbital Pt 2   dx2-y2 \
	OrthoOrbital Pt 3   s \
	OrthoOrbital Pt 3   p \
	OrthoOrbital Pt 3   px \
	OrthoOrbital Pt 3   py \
	OrthoOrbital Pt 3   pz \
	OrthoOrbital Pt 3   d \
	OrthoOrbital Pt 3   dxy \
	OrthoOrbital Pt 3   dyz \
	OrthoOrbital Pt 3   dz2 \
	OrthoOrbital Pt 3   dxz \
	OrthoOrbital Pt 3   dx2-y2 \
	OrthoOrbital Pt 4   s \
	OrthoOrbital Pt 4   p \
	OrthoOrbital Pt 4   px \
	OrthoOrbital Pt 4   py \
	OrthoOrbital Pt 4   pz \
	OrthoOrbital Pt 4   d \
	OrthoOrbital Pt 4   dxy \
	OrthoOrbital Pt 4   dyz \
	OrthoOrbital Pt 4   dz2 \
	OrthoOrbital Pt 4   dxz \
	OrthoOrbital Pt 4   dx2-y2 \
	OrthoOrbital Pt 5   s \
	OrthoOrbital Pt 5   p \
	OrthoOrbital Pt 5   px \
	OrthoOrbital Pt 5   py \
	OrthoOrbital Pt 5   pz \
	OrthoOrbital Pt 5   d \
	OrthoOrbital Pt 5   dxy \
	OrthoOrbital Pt 5   dyz \
	OrthoOrbital Pt 5   dz2 \
	OrthoOrbital Pt 5   dxz \
	OrthoOrbital Pt 5   dx2-y2 \
	OrthoOrbital Pt 6   s \
	OrthoOrbital Pt 6   p \
	OrthoOrbital Pt 6   px \
	OrthoOrbital Pt 6   py \
	OrthoOrbital Pt 6   pz \
	OrthoOrbital Pt 6   d \
	OrthoOrbital Pt 6   dxy \
	OrthoOrbital Pt 6   dyz \
	OrthoOrbital Pt 6   dz2 \
	OrthoOrbital Pt 6   dxz \
	OrthoOrbital Pt 6   dx2-y2 \
	OrthoOrbital Pt 7   s \
	OrthoOrbital Pt 7   p \
	OrthoOrbital Pt 7   px \
	OrthoOrbital Pt 7   py \
	OrthoOrbital Pt 7   pz \
	OrthoOrbital Pt 7   d \
	OrthoOrbital Pt 7   dxy \
	OrthoOrbital Pt 7   dyz \
	OrthoOrbital Pt 7   dz2 \
	OrthoOrbital Pt 7   dxz \
	OrthoOrbital Pt 7   dx2-y2 \
	OrthoOrbital Pt 8   s \
	OrthoOrbital Pt 8   p \
	OrthoOrbital Pt 8   px \
	OrthoOrbital Pt 8   py \
	OrthoOrbital Pt 8   pz \
	OrthoOrbital Pt 8   d \
	OrthoOrbital Pt 8   dxy \
	OrthoOrbital Pt 8   dyz \
	OrthoOrbital Pt 8   dz2 \
	OrthoOrbital Pt 8   dxz \
	OrthoOrbital Pt 8   dx2-y2 \
	OrthoOrbital Pt 9   s \
	OrthoOrbital Pt 9   p \
	OrthoOrbital Pt 9   px \
	OrthoOrbital Pt 9   py \
	OrthoOrbital Pt 9   pz \
	OrthoOrbital Pt 9   d \
	OrthoOrbital Pt 9   dxy \
	OrthoOrbital Pt 9   dyz \
	OrthoOrbital Pt 9   dz2 \
	OrthoOrbital Pt 9   dxz \
	OrthoOrbital Pt 9   dx2-y2 \
	OrthoOrbital Pt 10   s \
	OrthoOrbital Pt 10   p \
	OrthoOrbital Pt 10   px \
	OrthoOrbital Pt 10   py \
	OrthoOrbital Pt 10   pz \
	OrthoOrbital Pt 10   d \
	OrthoOrbital Pt 10   dxy \
	OrthoOrbital Pt 10   dyz \
	OrthoOrbital Pt 10   dz2 \
	OrthoOrbital Pt 10   dxz \
	OrthoOrbital Pt 10   dx2-y2 \
	OrthoOrbital Pt 11   s \
	OrthoOrbital Pt 11   p \
	OrthoOrbital Pt 11   px \
	OrthoOrbital Pt 11   py \
	OrthoOrbital Pt 11   pz \
	OrthoOrbital Pt 11   d \
	OrthoOrbital Pt 11   dxy \
	OrthoOrbital Pt 11   dyz \
	OrthoOrbital Pt 11   dz2 \
	OrthoOrbital Pt 11   dxz \
	OrthoOrbital Pt 11   dx2-y2 \
	OrthoOrbital Pt 12   s \
	OrthoOrbital Pt 12   p \
	OrthoOrbital Pt 12   px \
	OrthoOrbital Pt 12   py \
	OrthoOrbital Pt 12   pz \
	OrthoOrbital Pt 12   d \
	OrthoOrbital Pt 12   dxy \
	OrthoOrbital Pt 12   dyz \
	OrthoOrbital Pt 12   dz2 \
	OrthoOrbital Pt 12   dxz \
	OrthoOrbital Pt 12   dx2-y2 \
	OrthoOrbital Pt 13   s \
	OrthoOrbital Pt 13   p \
	OrthoOrbital Pt 13   px \
	OrthoOrbital Pt 13   py \
	OrthoOrbital Pt 13   pz \
	OrthoOrbital Pt 13   d \
	OrthoOrbital Pt 13   dxy \
	OrthoOrbital Pt 13   dyz \
	OrthoOrbital Pt 13   dz2 \
	OrthoOrbital Pt 13   dxz \
	OrthoOrbital Pt 13   dx2-y2 \
	OrthoOrbital Pt 14   s \
	OrthoOrbital Pt 14   p \
	OrthoOrbital Pt 14   px \
	OrthoOrbital Pt 14   py \
	OrthoOrbital Pt 14   pz \
	OrthoOrbital Pt 14   d \
	OrthoOrbital Pt 14   dxy \
	OrthoOrbital Pt 14   dyz \
	OrthoOrbital Pt 14   dz2 \
	OrthoOrbital Pt 14   dxz \
	OrthoOrbital Pt 14   dx2-y2 \
	OrthoOrbital Pt 15   s \
	OrthoOrbital Pt 15   p \
	OrthoOrbital Pt 15   px \
	OrthoOrbital Pt 15   py \
	OrthoOrbital Pt 15   pz \
	OrthoOrbital Pt 15   d \
	OrthoOrbital Pt 15   dxy \
	OrthoOrbital Pt 15   dyz \
	OrthoOrbital Pt 15   dz2 \
	OrthoOrbital Pt 15   dxz \
	OrthoOrbital Pt 15   dx2-y2 \
	OrthoOrbital Pt 16   s \
	OrthoOrbital Pt 16   p \
	OrthoOrbital Pt 16   px \
	OrthoOrbital Pt 16   py \
	OrthoOrbital Pt 16   pz \
	OrthoOrbital Pt 16   d \
	OrthoOrbital Pt 16   dxy \
	OrthoOrbital Pt 16   dyz \
	OrthoOrbital Pt 16   dz2 \
	OrthoOrbital Pt 16   dxz \
	OrthoOrbital Pt 16   dx2-y2 \
	OrthoOrbital Pt 17   s \
	OrthoOrbital Pt 17   p \
	OrthoOrbital Pt 17   px \
	OrthoOrbital Pt 17   py \
	OrthoOrbital Pt 17   pz \
	OrthoOrbital Pt 17   d \
	OrthoOrbital Pt 17   dxy \
	OrthoOrbital Pt 17   dyz \
	OrthoOrbital Pt 17   dz2 \
	OrthoOrbital Pt 17   dxz \
	OrthoOrbital Pt 17   dx2-y2 \
	OrthoOrbital Pt 18   s \
	OrthoOrbital Pt 18   p \
	OrthoOrbital Pt 18   px \
	OrthoOrbital Pt 18   py \
	OrthoOrbital Pt 18   pz \
	OrthoOrbital Pt 18   d \
	OrthoOrbital Pt 18   dxy \
	OrthoOrbital Pt 18   dyz \
	OrthoOrbital Pt 18   dz2 \
	OrthoOrbital Pt 18   dxz \
	OrthoOrbital Pt 18   dx2-y2 \
	OrthoOrbital Pt 19   s \
	OrthoOrbital Pt 19   p \
	OrthoOrbital Pt 19   px \
	OrthoOrbital Pt 19   py \
	OrthoOrbital Pt 19   pz \
	OrthoOrbital Pt 19   d \
	OrthoOrbital Pt 19   dxy \
	OrthoOrbital Pt 19   dyz \
	OrthoOrbital Pt 19   dz2 \
	OrthoOrbital Pt 19   dxz \
	OrthoOrbital Pt 19   dx2-y2 \
	OrthoOrbital Pt 20   s \
	OrthoOrbital Pt 20   p \
	OrthoOrbital Pt 20   px \
	OrthoOrbital Pt 20   py \
	OrthoOrbital Pt 20   pz \
	OrthoOrbital Pt 20   d \
	OrthoOrbital Pt 20   dxy \
	OrthoOrbital Pt 20   dyz \
	OrthoOrbital Pt 20   dz2 \
	OrthoOrbital Pt 20   dxz \
	OrthoOrbital Pt 20   dx2-y2
dump End ElecDensity KEdensity BandEigs EigStats RhoAtom DOS Kpoints
dump Ionic State IonicPositions Lattice EigStats Ecomponents
dump 
dump 
dump 
dump 
dump 
dump 
dump 
dump 
dump-name jdft.$VAR
elec-cutoff 20
elec-eigen-algo Davidson
elec-ex-corr gga-PBE
elec-initial-magnetization 0.000000 no
elec-n-bands 192
elec-smearing Fermi 0.001
electronic-minimize  \
	dirUpdateScheme      FletcherReeves \
	linminMethod         DirUpdateRecommended \
	nIterations          100 \
	history              15 \
	knormThreshold       0 \
	energyDiffThreshold  1e-07 \
	nEnergyDiff          2 \
	alphaTstart          1 \
	alphaTmin            1e-10 \
	updateTestStepSize   yes \
	alphaTreduceFactor   0.1 \
	alphaTincreaseFactor 3 \
	nAlphaAdjustMax      3 \
	wolfeEnergy          0.0001 \
	wolfeGradient        0.9 \
	fdTest               no
exchange-regularization WignerSeitzTruncated
fluid LinearPCM 298.000000 1.013250
fluid-anion F- 0.5 MeanFieldLJ \
	epsBulk 1 \
	pMol 0 \
	epsInf 1 \
	Pvap 0 \
	sigmaBulk 0 \
	Rvdw 2.24877 \
	Res 0 \
	tauNuc 343133
fluid-cation Na+ 0.5 MeanFieldLJ \
	epsBulk 1 \
	pMol 0 \
	epsInf 1 \
	Pvap 0 \
	sigmaBulk 0 \
	Rvdw 2.19208 \
	Res 0 \
	tauNuc 343133
fluid-ex-corr lda-TF lda-PZ
fluid-gummel-loop 10 1.000000e-05
fluid-minimize  \
	dirUpdateScheme      PolakRibiere \
	linminMethod         DirUpdateRecommended \
	nIterations          400 \
	history              15 \
	knormThreshold       1e-11 \
	energyDiffThreshold  0 \
	nEnergyDiff          2 \
	alphaTstart          1 \
	alphaTmin            1e-10 \
	updateTestStepSize   yes \
	alphaTreduceFactor   0.1 \
	alphaTincreaseFactor 3 \
	nAlphaAdjustMax      6 \
	wolfeEnergy          0.0001 \
	wolfeGradient        0.9 \
	fdTest               no
fluid-solvent H2O 55.338 ScalarEOS \
	epsBulk 78.4 \
	pMol 0.92466 \
	epsInf 1.77 \
	Pvap 1.06736e-10 \
	sigmaBulk 4.62e-05 \
	Rvdw 2.61727 \
	Res 1.42 \
	tauNuc 343133 \
	poleEl 15 7 1
forces-output-coords Positions
initial-state jdft.$VAR
ion Pt   0.000201638567372   4.893134801362223  20.851015688792785 1
ion Pt   0.000111115720239   9.343688803731933  18.015270870331261 1
ion Pt   0.000113837838191   2.385001519011622  15.895208513663398 1
ion Pt   0.000059231647226   7.011249231379734  13.413062306190247 1
ion Pt   0.000079708620067  11.714450273463708  11.111490156386505 1
ion Pt  -0.000041954245583   4.621806287667531   8.759348944134111 1
ion Pt  -0.000051962325869   9.333872018653741   6.432441723225992 1
ion Pt  -0.000054901142158   2.030232985059654   3.916477677907881 1
ion Pt  -0.000033736920845   6.840118586407915   1.849575078553197 1
ion Pt  -0.000042224143780   0.049145232645981  22.553513508210536 1
ion Pt   3.699617209230107   1.478924615235683  19.481321351604688 1
ion Pt   3.699673290454299   5.874864610038223  16.965506139795803 1
ion Pt   3.699629349474619  10.587908501587066  14.638987210331026 1
ion Pt   3.699453000290498   3.494691469675860  12.286634674253783 1
ion Pt   3.699503594765116   8.198687139377270   9.984010393938703 1
ion Pt   3.699461017985441   1.126278822184441   7.502860307702989 1
ion Pt   3.699445017717001   5.864789820720286   5.382730553641410 1
ion Pt   3.699466263811337  10.315202573637587   2.548785753101290 1
ion Pt   3.699619884667551   3.459199030069473   0.845196198389289 1
ion Pt   3.699580617989184   8.367713678090118  21.548468949845201 1
ion-species /projects/musgravc/apps/jdftx-1.6.0/build/pseudopotentials/GBRV_v1.5/$ID_pbe_v1.uspp
ion-species /projects/musgravc/apps/jdftx-1.6.0/build/pseudopotentials/GBRV_v1.5/$ID_pbe_v1.2.uspp
ion-species /projects/musgravc/apps/jdftx-1.6.0/build/pseudopotentials/GBRV_v1.5/$ID_pbe_v1.4.uspp
ion-species /projects/musgravc/apps/jdftx-1.6.0/build/pseudopotentials/GBRV_v1.5/$ID_pbe_v1.5.uspp
ion-width Ecut
ionic-minimize  \
	dirUpdateScheme      L-BFGS \
	linminMethod         DirUpdateRecommended \
	nIterations          100 \
	history              15 \
	knormThreshold       0.0001 \
	energyDiffThreshold  1e-06 \
	nEnergyDiff          2 \
	alphaTstart          1 \
	alphaTmin            1e-10 \
	updateTestStepSize   yes \
	alphaTreduceFactor   0.1 \
	alphaTincreaseFactor 3 \
	nAlphaAdjustMax      3 \
	wolfeEnergy          0.0001 \
	wolfeGradient        0.9 \
	fdTest               no
kpoint   0.000000000000   0.000000000000   0.000000000000  1.00000000000000
kpoint-folding 9 5 1 
latt-move-scale 0 0 0
latt-scale 1 1 1 
lattice  \
	   7.399158000000000    0.000000000000000    0.000000000000000  \
	   0.000000000000000   11.699096000000001    0.000000000000000  \
	   0.000000000000000    0.000000000000000   70.194580000000002 
lattice-minimize  \
	dirUpdateScheme      L-BFGS \
	linminMethod         DirUpdateRecommended \
	nIterations          0 \
	history              15 \
	knormThreshold       0 \
	energyDiffThreshold  1e-06 \
	nEnergyDiff          2 \
	alphaTstart          1 \
	alphaTmin            1e-10 \
	updateTestStepSize   yes \
	alphaTreduceFactor   0.1 \
	alphaTincreaseFactor 3 \
	nAlphaAdjustMax      3 \
	wolfeEnergy          0.0001 \
	wolfeGradient        0.9 \
	fdTest               no
lcao-params 30 1e-06 0.001
pcm-variant CANDLE
spintype z-spin
subspace-rotation-factor 1 yes
symmetries none
symmetry-threshold 0.0001
target-mu -0.0978 no

van-der-waals D3


Applied RMS atom displacement 0 bohrs to make symmetries exact.

---------- Initializing the Grid ----------
R = 
[      7.39916            0            0  ]
[            0      11.6991            0  ]
[            0            0      70.1946  ]
unit cell volume = 6076.29
G =
[   0.849176          0          0  ]
[          0   0.537066          0  ]
[          0          0   0.089511  ]
Minimum fftbox size, Smin = [  32  48  284  ]
Chosen fftbox size, S = [  32  48  288  ]

---------- Exchange Correlation functional ----------
Initalized PBE GGA exchange.
Initalized PBE GGA correlation.

---------- Setting up pseudopotentials ----------
Width of ionic core gaussian charges (only for fluid interactions / plotting) set to 0.397384

Reading pseudopotential file '/projects/musgravc/apps/jdftx-1.6.0/build/pseudopotentials/GBRV_v1.5/pt_pbe_v1.4.uspp':
  Title: Pt.  Created by USPP 7.3.6 on 31-3-15
  Reference state energy: -105.002503.  16 valence electrons in orbitals:
    |510>  occupation: 6  eigenvalue: -2.158104
    |520>  occupation: 9.5  eigenvalue: -0.335376
    |600>  occupation: 0  eigenvalue: -0.319640
    |610>  occupation: 0  eigenvalue: -0.122947
  lMax: 2  lLocal: 3  QijEcut: 5.5
  6 projectors sampled on a log grid with 745 points:
    l: 0  eig: -0.319640  rCut: 2.45
    l: 0  eig: 1.500000  rCut: 2.45
    l: 1  eig: -2.158104  rCut: 1.6
    l: 1  eig: -0.122947  rCut: 1.6
    l: 2  eig: -0.500000  rCut: 1.6
    l: 2  eig: -0.335375  rCut: 1.6
  Partial core density with radius 1.1
  Transforming core density to a uniform radial grid of dG=0.02 with 1142 points.
  Transforming local potential to a uniform radial grid of dG=0.02 with 1142 points.
  Transforming nonlocal projectors to a uniform radial grid of dG=0.02 with 432 points.
  Transforming density augmentations to a uniform radial grid of dG=0.02 with 1142 points.
  Transforming atomic orbitals to a uniform radial grid of dG=0.02 with 432 points.
  Core radius for overlap checks: 2.45 bohrs.

Initialized 1 species with 20 total atoms.

Folded 1 k-points by 9x5x1 to 45 k-points.

---------- Setting up k-points, bands, fillings ----------
No reducable k-points. 
Computing the number of bands and number of electrons
Reading initial fillings from file jdft.fillings.
nElectrons: 322.028109   nBands: 192   nStates: 90

----- Setting up reduced wavefunction bases (one per k-point) -----
average nbasis = 25955.622 , ideal nbasis = 25958.356

----- Initializing Supercell corresponding to k-point mesh -----
Lattice vector linear combinations in supercell:
[   9   0   0  ]
[   0   5   0  ]
[   0   0   1  ]
Supercell lattice vectors:
[  66.5924  0  0  ]
[  0  58.4955  0  ]
[  0  0  70.1946  ]

Initializing DFT-D3 calculator:
	Parameters set for gga-PBE functional
	s6:  1.000  s_r6:  1.217
	s8:  0.722  s_r8:  1.000
	Per-atom parameters loaded for:
	Pt:  sqrtQ[a0]:  5.888  Rcov[a0]:  2.116  CN: [ 0.00 1.92 6.67 ]

Initializing DFT-D2 calculator for fluid / solvation:
	Pt:  C6:  815.23 Eh-a0^6  R0: 3.326 a0 (WARNING: beyond Grimme's data set)

---------- Setting up ewald sum ----------
Optimum gaussian width for ewald sums = 4.418598 bohr.
Real space sum over 825 unit cells with max indices [  7  5  2  ]
Reciprocal space sum over 5049 terms with max indices [  4  5  25  ]

Computing DFT-D3 correction:
# coordination-number Pt 6.822 9.380 9.264 9.544 9.475 9.402 9.380 8.475 6.656 5.274 8.474 9.378 9.401 9.475 9.545 9.265 9.381 6.825 5.275 6.656
# diagonal-C6 Pt 336.87 336.87 336.87 336.87 336.87 336.87 336.87 336.87 336.87 336.87 336.87 336.87 336.87 336.87 336.87 336.87 336.87 336.87 336.87 336.87
EvdW_6 =   -0.171518
EvdW_8 =   -0.281573

---------- Allocating electronic variables ----------
Initializing wave functions:  reading from 'jdft.wfns'
----- createFluidSolver() ----- (Fluid-side solver setup)
   Initializing fluid molecule 'H2O'
     Initializing site 'O'
       Electron density: proportional to exp(-r/0.36935)*erfc((r-0.51523)/0.36823) with norm 6.826
       Charge density: gaussian nuclear width 0.478731 with net site charge 0.826
       Polarizability: cuspless exponential with width 0.32 and norm 3.73
       Hard sphere radius: 2.57003 bohrs
       Positions in reference frame:
         [ +0.000000 +0.000000 +0.000000 ]
     Initializing site 'H'
       Electron density: proportional to exp(-r/0.34641)*erfc((r-0)/0.390882) with norm 0.587
       Charge density: gaussian nuclear width 0.377945 with net site charge -0.413
       Polarizability: cuspless exponential with width 0.39 and norm 3.3
       Positions in reference frame:
         [ +0.000000 -1.441945 +1.122523 ]
         [ +0.000000 +1.441945 +1.122523 ]
     Net charge: 0   dipole magnitude: 0.927204
     Initializing spherical shell mfKernel with radius 2.61727 Bohr
     deltaS corrections:
       site 'O': -7.54299
       site 'H': -6.83917
   Initializing fluid molecule 'Na+'
     Initializing site 'Na'
       Electron density: proportional to exp(-r/0.19682)*erfc((r-0.71491)/0.41314) with norm 8.1383
       Charge density: gaussian nuclear width 0.365347 with net site charge -1
       Hard sphere radius: 1.86327 bohrs
       Positions in reference frame:
         [ +0.000000 +0.000000 +0.000000 ]
     Net charge: -1   dipole magnitude: 0
     Initializing gaussian mfKernel with width: 1.55004 Bohr
     deltaS corrections:
       site 'Na': -22.3555
   Initializing fluid molecule 'F-'
     Initializing site 'F'
       Electron density: proportional to exp(-r/0.38886)*erfc((r-0)/0.438782) with norm 8
       Charge density: gaussian nuclear width 0.374796 with net site charge 1
       Hard sphere radius: 2.39995 bohrs
       Positions in reference frame:
         [ +0.000000 +0.000000 +0.000000 ]
     Net charge: 1   dipole magnitude: 0
     Initializing gaussian mfKernel with width: 1.59012 Bohr
     deltaS corrections:
       site 'F': -9.04335

Correction to mu due to finite nuclear width = -0.052253
   Cavity determined by nc: 0.00142 and sigma: 0.707107
   Nonlocal vdW cavity from gaussian model electron density with norm = 8 and sigma = 0.993594 bohr
   Charge asymmetry in cavity with sensitivity pCavity = 36.5 e-bohr/Eh
   Electrostatic cavity expanded by eta = 1.46 bohrs
   Weighted density cavitation model constrained by Nbulk: 0.0049383 bohr^-3, Pvap: 3.14029 kPa, Rvdw: 2.61727 bohr and sigmaBulk: 4.62e-05 Eh/bohr^2 at T: 298 K.
   Weighted density dispersion model using vdW pair potentials with single solvent site with sqrtC6eff: 0.77 SI.
Reading fluid state from 'jdft.fluidState'


---- Citations for features of the code used in this run ----

   Software package:
      R. Sundararaman, K. Letchworth-Weaver, K.A. Schwarz, D. Gunceler, Y. Ozhabes and T.A. Arias, 'JDFTx: software for joint density-functional theory', SoftwareX 6, 278 (2017)

   gga-PBE exchange-correlation functional:
      J.P. Perdew, K. Burke and M. Ernzerhof, Phys. Rev. Lett. 77, 3865 (1996)

   Pseudopotentials:
      KF Garrity, JW Bennett, KM Rabe and D Vanderbilt, Comput. Mater. Sci. 81, 446 (2014)

   DFT-D3 dispersion correction:
      S. Grimme, J. Antony, S. Ehrlich and H. Krieg, J. Chem. Phys. 132, 154104 (2010)

   DFT-D2 dispersion correction:
      S. Grimme, J. Comput. Chem. 27, 1787 (2006)

   Charge-asymmetric nonlocally-determined local-electric (CANDLE) solvation model:
      R. Sundararaman and W.A. Goddard III, J. Chem. Phys. 142, 064107 (2015)

   Total energy minimization with Auxiliary Hamiltonian:
      C. Freysoldt, S. Boeck, and J. Neugebauer, Phys. Rev. B 79, 241103(R) (2009)

   Grand-canonical (fixed-potential) DFT:
      R. Sundararaman, W. A. Goddard III and T. A. Arias, J. Chem. Phys. 146, 114104 (2017)

   Linear-tetrahedron sampling for density of states:
      G. Lehmann and M. Taut, Phys. status solidi (b) 54, 469 (1972)

This list may not be complete. Please suggest additional citations or
report any other bugs at https://github.com/shankar1729/jdftx/issues

Initialization completed successfully at t[s]:     15.20


Computing DFT-D3 correction:
# coordination-number Pt 6.822 9.380 9.264 9.544 9.475 9.402 9.380 8.475 6.656 5.274 8.474 9.378 9.401 9.475 9.545 9.265 9.381 6.825 5.275 6.656
# diagonal-C6 Pt 336.87 336.87 336.87 336.87 336.87 336.87 336.87 336.87 336.87 336.87 336.87 336.87 336.87 336.87 336.87 336.87 336.87 336.87 336.87 336.87
EvdW_6 =   -0.171518
EvdW_8 =   -0.281573
Shifting auxilliary hamiltonian by -0.000007 to set nElectrons=322.028109

-------- Electronic minimization -----------
	Linear fluid (dielectric constant: 78.4, screening length: 8.12261 Bohr) occupying 0.586889 of unit cell:	Completed after 15 iterations at t[s]:     26.78
	FillingsUpdate:  mu: -0.097800000  nElectrons: 322.028109  magneticMoment: [ Abs: 0.00000  Tot: +0.00000 ]
ElecMinimize: Iter:   0  G: -1748.162785314768371  |grad|_K:  3.525e-06  alpha:  1.000e+00
	Linear fluid (dielectric constant: 78.4, screening length: 8.12261 Bohr) occupying 0.516144 of unit cell:	Completed after 25 iterations at t[s]:     92.49
	Linear fluid (dielectric constant: 78.4, screening length: 8.12261 Bohr) occupying 0.586842 of unit cell:	Completed after 38 iterations at t[s]:    116.25
	FillingsUpdate:  mu: -0.097800000  nElectrons: 322.021481  magneticMoment: [ Abs: 0.00000  Tot: +0.00000 ]
	SubspaceRotationAdjust: set factor to 0.526
ElecMinimize: Iter:   1  G: -1748.162800015294124  |grad|_K:  9.918e-07  alpha:  2.420e-03  linmin: -2.473e-02  t[s]:    148.40
	Linear fluid (dielectric constant: 78.4, screening length: 8.12261 Bohr) occupying 0.586842 of unit cell:	Completed after 7 iterations at t[s]:    175.99
ElecMinimize: 	Predicted alpha/alphaT>3.000000, increasing alphaT to 7.259556e-03.
	Linear fluid (dielectric constant: 78.4, screening length: 8.12261 Bohr) occupying 0.586842 of unit cell:	Completed after 10 iterations at t[s]:    197.34
	Linear fluid (dielectric constant: 78.4, screening length: 8.12261 Bohr) occupying 0.586841 of unit cell:	Completed after 10 iterations at t[s]:    218.65
	FillingsUpdate:  mu: -0.097800000  nElectrons: 322.021404  magneticMoment: [ Abs: 0.00000  Tot: +0.00000 ]
	SubspaceRotationAdjust: set factor to 0.266
ElecMinimize: Iter:   2  G: -1748.162808078678154  |grad|_K:  1.369e-06  alpha:  1.680e-02  linmin:  2.392e-05  t[s]:    251.03
	Linear fluid (dielectric constant: 78.4, screening length: 8.12261 Bohr) occupying 0.586943 of unit cell:	Completed after 17 iterations at t[s]:    279.66
	Linear fluid (dielectric constant: 78.4, screening length: 8.12261 Bohr) occupying 0.586888 of unit cell:	Completed after 14 iterations at t[s]:    301.44
	FillingsUpdate:  mu: -0.097800000  nElectrons: 322.028237  magneticMoment: [ Abs: 0.00000  Tot: +0.00000 ]
	SubspaceRotationAdjust: set factor to 0.147
ElecMinimize: Iter:   3  G: -1748.162814670522266  |grad|_K:  2.620e-07  alpha:  7.770e-03  linmin: -4.449e-05  t[s]:    333.85
	Linear fluid (dielectric constant: 78.4, screening length: 8.12261 Bohr) occupying 0.586894 of unit cell:	Completed after 10 iterations at t[s]:    361.97
	Linear fluid (dielectric constant: 78.4, screening length: 8.12261 Bohr) occupying 0.586898 of unit cell:	Completed after 9 iterations at t[s]:    383.19
	FillingsUpdate:  mu: -0.097800000  nElectrons: 322.029588  magneticMoment: [ Abs: 0.00000  Tot: +0.00000 ]
	SubspaceRotationAdjust: set factor to 0.0901
	SubspaceRotationAdjust: resetting CG because factor has changed by 0.0900611
	Linear fluid (dielectric constant: 78.4, screening length: 8.12261 Bohr) occupying 0.586898 of unit cell:	Completed after 0 iterations at t[s]:    424.93
ElecMinimize: 	State modified externally: resetting search direction.
ElecMinimize: Iter:   4  G: -1748.162815075099843  |grad|_K:  1.369e-07  alpha:  1.323e-02
	Linear fluid (dielectric constant: 78.4, screening length: 8.12261 Bohr) occupying 0.586896 of unit cell:	Completed after 5 iterations at t[s]:    484.31
ElecMinimize: 	Predicted alpha/alphaT>3.000000, increasing alphaT to 3.968665e-02.
	Linear fluid (dielectric constant: 78.4, screening length: 8.12261 Bohr) occupying 0.586891 of unit cell:	Completed after 9 iterations at t[s]:    505.59
	Linear fluid (dielectric constant: 78.4, screening length: 8.12261 Bohr) occupying 0.586886 of unit cell:	Completed after 9 iterations at t[s]:    526.94
	FillingsUpdate:  mu: -0.097800000  nElectrons: 322.027969  magneticMoment: [ Abs: 0.00000  Tot: +0.00000 ]
	SubspaceRotationAdjust: set factor to 0.0535
ElecMinimize: Iter:   5  G: -1748.162815648894366  |grad|_K:  1.486e-07  alpha:  6.867e-02  linmin:  1.575e-03  t[s]:    559.11
	Linear fluid (dielectric constant: 78.4, screening length: 8.12261 Bohr) occupying 0.586887 of unit cell:	Completed after 10 iterations at t[s]:    586.99
	Linear fluid (dielectric constant: 78.4, screening length: 8.12261 Bohr) occupying 0.586887 of unit cell:	Completed after 6 iterations at t[s]:    607.85
	FillingsUpdate:  mu: -0.097800000  nElectrons: 322.028109  magneticMoment: [ Abs: 0.00000  Tot: +0.00000 ]
	SubspaceRotationAdjust: set factor to 0.058
ElecMinimize: Iter:   6  G: -1748.162816513363396  |grad|_K:  4.697e-08  alpha:  8.814e-02  linmin: -1.539e-03  t[s]:    639.82
	Linear fluid (dielectric constant: 78.4, screening length: 8.12261 Bohr) occupying 0.586888 of unit cell:	Completed after 2 iterations at t[s]:    667.01
ElecMinimize: 	Predicted alpha/alphaT>3.000000, increasing alphaT to 2.644101e-01.
	Linear fluid (dielectric constant: 78.4, screening length: 8.12261 Bohr) occupying 0.586888 of unit cell:	Completed after 7 iterations at t[s]:    688.02
	Linear fluid (dielectric constant: 78.4, screening length: 8.12261 Bohr) occupying 0.586888 of unit cell:	Completed after 0 iterations at t[s]:    708.30
	FillingsUpdate:  mu: -0.097800000  nElectrons: 322.028289  magneticMoment: [ Abs: 0.00000  Tot: +0.00000 ]
	SubspaceRotationAdjust: set factor to 0.0377
ElecMinimize: Iter:   7  G: -1748.162816783330754  |grad|_K:  4.691e-08  alpha:  2.696e-01  linmin: -1.076e-03  t[s]:    740.30
	Linear fluid (dielectric constant: 78.4, screening length: 8.12261 Bohr) occupying 0.586874 of unit cell:	Completed after 12 iterations at t[s]:    768.38
	Linear fluid (dielectric constant: 78.4, screening length: 8.12261 Bohr) occupying 0.586885 of unit cell:	Completed after 12 iterations at t[s]:    789.87
	FillingsUpdate:  mu: -0.097800000  nElectrons: 322.027845  magneticMoment: [ Abs: 0.00000  Tot: +0.00000 ]
	SubspaceRotationAdjust: set factor to 0.0255
ElecMinimize: Iter:   8  G: -1748.162816845188445  |grad|_K:  2.198e-08  alpha:  5.894e-02  linmin: -1.735e-03  t[s]:    822.13
	Linear fluid (dielectric constant: 78.4, screening length: 8.12261 Bohr) occupying 0.586885 of unit cell:	Completed after 0 iterations at t[s]:    848.86
ElecMinimize: 	Predicted alpha/alphaT>3.000000, increasing alphaT to 1.768179e-01.
	Linear fluid (dielectric constant: 78.4, screening length: 8.12261 Bohr) occupying 0.586885 of unit cell:	Completed after 2 iterations at t[s]:    869.42
	Linear fluid (dielectric constant: 78.4, screening length: 8.12261 Bohr) occupying 0.586885 of unit cell:	Completed after 2 iterations at t[s]:    890.02
	FillingsUpdate:  mu: -0.097800000  nElectrons: 322.027691  magneticMoment: [ Abs: 0.00000  Tot: +0.00000 ]
	SubspaceRotationAdjust: set factor to 0.0179
ElecMinimize: Iter:   9  G: -1748.162816914138148  |grad|_K:  2.077e-08  alpha:  3.140e-01  linmin: -1.461e-03  t[s]:    922.26
ElecMinimize: Converged (|Delta G|<1.000000e-07 for 2 iters).
Setting wave functions to eigenvectors of Hamiltonian
Converging empty states (this may take a while): |deigs|: 9.775e-09

Computing DFT-D3 correction:
# coordination-number Pt 6.822 9.380 9.264 9.544 9.475 9.402 9.380 8.475 6.656 5.274 8.474 9.378 9.401 9.475 9.545 9.265 9.381 6.825 5.275 6.656
# diagonal-C6 Pt 336.87 336.87 336.87 336.87 336.87 336.87 336.87 336.87 336.87 336.87 336.87 336.87 336.87 336.87 336.87 336.87 336.87 336.87 336.87 336.87
EvdW_6 =   -0.171518
EvdW_8 =   -0.281573

# Ionic positions in cartesian coordinates:
ion Pt   0.000201638567372   4.893134801362223  20.851015688792785 1
ion Pt   0.000111115720239   9.343688803731933  18.015270870331261 1
ion Pt   0.000113837838191   2.385001519011622  15.895208513663398 1
ion Pt   0.000059231647226   7.011249231379734  13.413062306190247 1
ion Pt   0.000079708620067  11.714450273463708  11.111490156386505 1
ion Pt  -0.000041954245583   4.621806287667531   8.759348944134111 1
ion Pt  -0.000051962325869   9.333872018653741   6.432441723225992 1
ion Pt  -0.000054901142158   2.030232985059654   3.916477677907881 1
ion Pt  -0.000033736920845   6.840118586407915   1.849575078553197 1
ion Pt  -0.000042224143780   0.049145232645981  22.553513508210536 1
ion Pt   3.699617209230107   1.478924615235683  19.481321351604688 1
ion Pt   3.699673290454299   5.874864610038223  16.965506139795803 1
ion Pt   3.699629349474619  10.587908501587066  14.638987210331026 1
ion Pt   3.699453000290498   3.494691469675860  12.286634674253783 1
ion Pt   3.699503594765116   8.198687139377270   9.984010393938703 1
ion Pt   3.699461017985441   1.126278822184441   7.502860307702989 1
ion Pt   3.699445017717001   5.864789820720286   5.382730553641410 1
ion Pt   3.699466263811337  10.315202573637587   2.548785753101290 1
ion Pt   3.699619884667551   3.459199030069473   0.845196198389289 1
ion Pt   3.699580617989184   8.367713678090118  21.548468949845201 1

# Forces in Cartesian coordinates:
force Pt  -0.000008305159121  -0.000064961485065   0.000051104749265 1
force Pt  -0.000008690371501  -0.000116580010380   0.000043401867289 1
force Pt  -0.000012891620891   0.000012169717844   0.000389299796223 1
force Pt  -0.000013804165992   0.000119986832645   0.000170949767257 1
force Pt  -0.000014586429237  -0.000046519146696   0.000031214566985 1
force Pt  -0.000013738576718  -0.000071494152939  -0.000295709522470 1
force Pt  -0.000011919051130   0.000172233886144  -0.000459115543010 1
force Pt  -0.000006152576388  -0.000341305968850  -0.000053980105489 1
force Pt  -0.000004491593607   0.000047083714851  -0.000270728893556 1
force Pt  -0.000004153793208   0.000016246769110   0.000306342238897 1
force Pt   0.000005534824980   0.000304016515914   0.000061556593751 1
force Pt   0.000009991369612  -0.000194310012096   0.000401187361563 1
force Pt   0.000011210894560   0.000017411262918   0.000262639893735 1
force Pt   0.000016689480838   0.000053788258660  -0.000026935740374 1
force Pt   0.000014826021472  -0.000055865420302  -0.000098044417372 1
force Pt   0.000010576046852  -0.000033709843229  -0.000433088185377 1
force Pt   0.000010119202727   0.000068228331241  -0.000132504849635 1
force Pt   0.000002394920797  -0.000048813346169  -0.000076547940339 1
force Pt  -0.000001149588710  -0.000061020123322  -0.000374574117010 1
force Pt   0.000006582371482  -0.000093105528582   0.000325326844762 1

# Energy components:
   A_diel =       -0.9653309113966783
   Eewald =    17760.7120363004542014
       EH =    19466.4523976784730621
     Eloc =   -39314.1821041381917894
      Enl =      -21.0313690251075727
     EvdW =       -0.4530911366060170
      Exc =     -569.4394233139666994
 Exc_core =      327.8276279178279538
       KE =      571.5312239494487585
  MuShift =       -0.1059529978625714
-------------------------------------
     Etot =    -1779.6539856769309154
       TS =        0.0031394566436880
-------------------------------------
        F =    -1779.6571251335747093
      muN =      -31.4943082194364727
-------------------------------------
        G =    -1748.1628169141381477


Dumping 'jdft.fillings' ... done
Dumping 'jdft.wfns' ... done
Dumping 'jdft.fluidState' ... done
Dumping 'jdft.ionpos' ... done
Dumping 'jdft.lattice' ... done
Dumping 'jdft.eigenvals' ... done
Dumping 'jdft.eigStats' ... 
	eMin: -2.046884 at state 65 ( [ +0.444444 +0.000000 +0.000000 ] spin -1 )
	HOMO: -0.098005 at state 53 ( [ +0.111111 -0.400000 +0.000000 ] spin -1 )
	mu  : -0.097800
	LUMO: -0.097810 at state 3 ( [ +0.000000 -0.400000 +0.000000 ] spin 1 )
	eMax: +0.141194 at state 45 ( [ +0.000000 +0.000000 +0.000000 ] spin -1 )
	HOMO-LUMO gap: +0.000195
	Optical gap  : +0.000791 at state 71 ( [ -0.444444 +0.200000 +0.000000 ] spin -1 )
Dumping 'jdft.Ecomponents' ... done
IonicMinimize: Iter:   0  G: -1748.162816914138148  |grad|_K:  1.682e-04  t[s]:   1004.32

#--- Lowdin population analysis ---
# oxidation-state Pt -0.205 -0.022 +0.004 +0.010 +0.001 +0.008 -0.005 -0.071 -0.296 -0.346 -0.072 -0.005 +0.008 +0.001 +0.010 +0.004 -0.021 -0.203 -0.344 -0.298
# magnetic-moments Pt +0.000 +0.000 +0.000 +0.000 +0.000 +0.000 +0.000 +0.000 +0.000 +0.000 +0.000 +0.000 +0.000 +0.000 +0.000 +0.000 +0.000 +0.000 +0.000 +0.000


Computing DFT-D3 correction:
# coordination-number Pt 6.822 9.379 9.264 9.543 9.474 9.402 9.380 8.475 6.656 5.274 8.474 9.379 9.401 9.474 9.544 9.264 9.381 6.826 5.274 6.656
# diagonal-C6 Pt 336.87 336.87 336.87 336.87 336.87 336.87 336.87 336.87 336.87 336.87 336.87 336.87 336.87 336.87 336.87 336.87 336.87 336.87 336.87 336.87
EvdW_6 =   -0.171514
EvdW_8 =   -0.281564
Shifting auxilliary hamiltonian by 0.000094 to set nElectrons=322.027691

-------- Electronic minimization -----------
	Linear fluid (dielectric constant: 78.4, screening length: 8.12261 Bohr) occupying 0.586895 of unit cell:	Completed after 19 iterations at t[s]:   1037.02
	FillingsUpdate:  mu: -0.097800000  nElectrons: 322.027691  magneticMoment: [ Abs: 0.00000  Tot: +0.00000 ]
ElecMinimize: Iter:   0  G: -1748.162763355514016  |grad|_K:  8.471e-07  alpha:  1.000e+00
	Linear fluid (dielectric constant: 78.4, screening length: 8.12261 Bohr) occupying 0.586317 of unit cell:	Completed after 25 iterations at t[s]:   1102.89
	Linear fluid (dielectric constant: 78.4, screening length: 8.12261 Bohr) occupying 0.586830 of unit cell:	Completed after 25 iterations at t[s]:   1125.83
	FillingsUpdate:  mu: -0.097800000  nElectrons: 322.018276  magneticMoment: [ Abs: 0.00000  Tot: +0.00000 ]
	SubspaceRotationAdjust: set factor to 0.0112
ElecMinimize: Iter:   1  G: -1748.162802474750379  |grad|_K:  2.142e-07  alpha:  1.215e-01  linmin:  2.377e-03  t[s]:   1158.00
	Linear fluid (dielectric constant: 78.4, screening length: 8.12261 Bohr) occupying 0.586838 of unit cell:	Completed after 10 iterations at t[s]:   1186.29
ElecMinimize: 	Predicted alpha/alphaT>3.000000, increasing alphaT to 3.644598e-01.
	Linear fluid (dielectric constant: 78.4, screening length: 8.12261 Bohr) occupying 0.586855 of unit cell:	Completed after 13 iterations at t[s]:   1207.93
	Linear fluid (dielectric constant: 78.4, screening length: 8.12261 Bohr) occupying 0.586856 of unit cell:	Completed after 5 iterations at t[s]:   1228.80
	FillingsUpdate:  mu: -0.097800000  nElectrons: 322.021132  magneticMoment: [ Abs: 0.00000  Tot: +0.00000 ]
	SubspaceRotationAdjust: set factor to 0.0179
ElecMinimize: Iter:   2  G: -1748.162810545272350  |grad|_K:  1.016e-07  alpha:  3.919e-01  linmin: -1.092e-03  t[s]:   1260.80
	Linear fluid (dielectric constant: 78.4, screening length: 8.12261 Bohr) occupying 0.586866 of unit cell:	Completed after 9 iterations at t[s]:   1288.70
	Linear fluid (dielectric constant: 78.4, screening length: 8.12261 Bohr) occupying 0.586869 of unit cell:	Completed after 3 iterations at t[s]:   1309.62
	FillingsUpdate:  mu: -0.097800000  nElectrons: 322.022279  magneticMoment: [ Abs: 0.00000  Tot: +0.00000 ]
	SubspaceRotationAdjust: set factor to 0.0226
ElecMinimize: Iter:   3  G: -1748.162812975461293  |grad|_K:  7.156e-08  alpha:  5.201e-01  linmin: -2.399e-03  t[s]:   1341.59
	Linear fluid (dielectric constant: 78.4, screening length: 8.12261 Bohr) occupying 0.586877 of unit cell:	Completed after 8 iterations at t[s]:   1369.32
	Linear fluid (dielectric constant: 78.4, screening length: 8.12261 Bohr) occupying 0.586878 of unit cell:	Completed after 2 iterations at t[s]:   1389.92
	FillingsUpdate:  mu: -0.097800000  nElectrons: 322.023218  magneticMoment: [ Abs: 0.00000  Tot: +0.00000 ]
	SubspaceRotationAdjust: set factor to 0.0263
ElecMinimize: Iter:   4  G: -1748.162814463742052  |grad|_K:  6.785e-08  alpha:  6.382e-01  linmin: -1.400e-03  t[s]:   1421.78
	Linear fluid (dielectric constant: 78.4, screening length: 8.12261 Bohr) occupying 0.586901 of unit cell:	Completed after 12 iterations at t[s]:   1449.88
	Linear fluid (dielectric constant: 78.4, screening length: 8.12261 Bohr) occupying 0.586894 of unit cell:	Completed after 9 iterations at t[s]:   1471.22
	FillingsUpdate:  mu: -0.097800000  nElectrons: 322.025348  magneticMoment: [ Abs: 0.00000  Tot: +0.00000 ]
	SubspaceRotationAdjust: set factor to 0.0183
ElecMinimize: Iter:   5  G: -1748.162815379906760  |grad|_K:  8.653e-08  alpha:  4.346e-01  linmin:  5.840e-04  t[s]:   1503.31
	Linear fluid (dielectric constant: 78.4, screening length: 8.12261 Bohr) occupying 0.586886 of unit cell:	Completed after 12 iterations at t[s]:   1531.62
	Linear fluid (dielectric constant: 78.4, screening length: 8.12261 Bohr) occupying 0.586890 of unit cell:	Completed after 12 iterations at t[s]:   1553.13
	FillingsUpdate:  mu: -0.097800000  nElectrons: 322.025036  magneticMoment: [ Abs: 0.00000  Tot: +0.00000 ]
	SubspaceRotationAdjust: set factor to 0.0122
ElecMinimize: Iter:   6  G: -1748.162815981614131  |grad|_K:  5.131e-08  alpha:  1.801e-01  linmin:  2.425e-05  t[s]:   1584.99
	Linear fluid (dielectric constant: 78.4, screening length: 8.12261 Bohr) occupying 0.586891 of unit cell:	Completed after 2 iterations at t[s]:   1612.11
ElecMinimize: 	Predicted alpha/alphaT>3.000000, increasing alphaT to 5.403656e-01.
	Linear fluid (dielectric constant: 78.4, screening length: 8.12261 Bohr) occupying 0.586892 of unit cell:	Completed after 2 iterations at t[s]:   1632.68
	Linear fluid (dielectric constant: 78.4, screening length: 8.12261 Bohr) occupying 0.586892 of unit cell:	Completed after 0 iterations at t[s]:   1652.95
	FillingsUpdate:  mu: -0.097800000  nElectrons: 322.025894  magneticMoment: [ Abs: 0.00000  Tot: +0.00000 ]
	SubspaceRotationAdjust: set factor to 0.014
ElecMinimize: Iter:   7  G: -1748.162816703204726  |grad|_K:  3.826e-08  alpha:  6.078e-01  linmin: -1.256e-03  t[s]:   1685.36
	Linear fluid (dielectric constant: 78.4, screening length: 8.12261 Bohr) occupying 0.586894 of unit cell:	Completed after 10 iterations at t[s]:   1713.40
	Linear fluid (dielectric constant: 78.4, screening length: 8.12261 Bohr) occupying 0.586893 of unit cell:	Completed after 2 iterations at t[s]:   1733.99
	FillingsUpdate:  mu: -0.097800000  nElectrons: 322.026673  magneticMoment: [ Abs: 0.00000  Tot: +0.00000 ]
	SubspaceRotationAdjust: set factor to 0.0127
ElecMinimize: Iter:   8  G: -1748.162817024359356  |grad|_K:  3.949e-08  alpha:  4.863e-01  linmin:  1.885e-05  t[s]:   1766.07
	Linear fluid (dielectric constant: 78.4, screening length: 8.12261 Bohr) occupying 0.586884 of unit cell:	Completed after 11 iterations at t[s]:   1794.38
	Linear fluid (dielectric constant: 78.4, screening length: 8.12261 Bohr) occupying 0.586889 of unit cell:	Completed after 9 iterations at t[s]:   1815.87
	FillingsUpdate:  mu: -0.097800000  nElectrons: 322.026441  magneticMoment: [ Abs: 0.00000  Tot: +0.00000 ]
	SubspaceRotationAdjust: set factor to 0.00941
ElecMinimize: Iter:   9  G: -1748.162817189027919  |grad|_K:  2.643e-08  alpha:  2.442e-01  linmin:  6.903e-04  t[s]:   1848.55
	Linear fluid (dielectric constant: 78.4, screening length: 8.12261 Bohr) occupying 0.586888 of unit cell:	Completed after 0 iterations at t[s]:   1875.58
	Linear fluid (dielectric constant: 78.4, screening length: 8.12261 Bohr) occupying 0.586887 of unit cell:	Completed after 2 iterations at t[s]:   1896.11
	FillingsUpdate:  mu: -0.097800000  nElectrons: 322.026680  magneticMoment: [ Abs: 0.00000  Tot: +0.00000 ]
	SubspaceRotationAdjust: set factor to 0.012
ElecMinimize: Iter:  10  G: -1748.162817339416506  |grad|_K:  1.972e-08  alpha:  4.905e-01  linmin:  1.990e-03  t[s]:   1928.16
	Linear fluid (dielectric constant: 78.4, screening length: 8.12261 Bohr) occupying 0.586888 of unit cell:	Completed after 8 iterations at t[s]:   1955.95
	Linear fluid (dielectric constant: 78.4, screening length: 8.12261 Bohr) occupying 0.586888 of unit cell:	Completed after 0 iterations at t[s]:   1976.34
	FillingsUpdate:  mu: -0.097800000  nElectrons: 322.027014  magneticMoment: [ Abs: 0.00000  Tot: +0.00000 ]
	SubspaceRotationAdjust: set factor to 0.0104
ElecMinimize: Iter:  11  G: -1748.162817406978547  |grad|_K:  2.083e-08  alpha:  3.875e-01  linmin:  8.904e-03  t[s]:   2008.25
	Linear fluid (dielectric constant: 78.4, screening length: 8.12261 Bohr) occupying 0.586885 of unit cell:	Completed after 7 iterations at t[s]:   2035.87
	Linear fluid (dielectric constant: 78.4, screening length: 8.12261 Bohr) occupying 0.586886 of unit cell:	Completed after 2 iterations at t[s]:   2056.51
	FillingsUpdate:  mu: -0.097800000  nElectrons: 322.026940  magneticMoment: [ Abs: 0.00000  Tot: +0.00000 ]
	SubspaceRotationAdjust: set factor to 0.00888
ElecMinimize: Iter:  12  G: -1748.162817446188683  |grad|_K:  1.238e-08  alpha:  2.438e-01  linmin:  1.000e-03  t[s]:   2088.57
ElecMinimize: Converged (|Delta G|<1.000000e-07 for 2 iters).
Setting wave functions to eigenvectors of Hamiltonian
Converging empty states (this may take a while): |deigs|: 1.197e-08

Computing DFT-D3 correction:
# coordination-number Pt 6.822 9.379 9.264 9.543 9.474 9.402 9.380 8.475 6.656 5.274 8.474 9.379 9.401 9.474 9.544 9.264 9.381 6.826 5.274 6.656
# diagonal-C6 Pt 336.87 336.87 336.87 336.87 336.87 336.87 336.87 336.87 336.87 336.87 336.87 336.87 336.87 336.87 336.87 336.87 336.87 336.87 336.87 336.87
EvdW_6 =   -0.171514
EvdW_8 =   -0.281564

# Ionic positions in cartesian coordinates:
ion Pt   0.000193931297910   4.893085665864572  20.851075703823795 1
ion Pt   0.000103023238397   9.343588049708968  18.015323182480294 1
ion Pt   0.000101544106959   2.385029514716881  15.895606723741368 1
ion Pt   0.000046025370894   7.011385044199793  13.413242166239250 1
ion Pt   0.000065720080489  11.714419580304428  11.111530281235236 1
ion Pt  -0.000055094932642   4.621750619502007   8.759062144893386 1
ion Pt  -0.000063283487340   9.334060078527301   6.431991517964727 1
ion Pt  -0.000060455828887   2.029907505078219   3.916432608084138 1
ion Pt  -0.000037630624792   6.840181496110182   1.849313259941387 1
ion Pt  -0.000045780047328   0.049177305402506  22.553828760731182 1
ion Pt   3.699623341944746   1.479244457739013  19.481391818480187 1
ion Pt   3.699683879713571   5.874686126013542  16.965916237439110 1
ion Pt   3.699641158258838  10.587941738837399  14.639258760506506 1
ion Pt   3.699470287660995   3.494761083921936  12.286616648795155 1
ion Pt   3.699519018676248   8.198647099944385   9.983921259803076 1
ion Pt   3.699472191921953   1.126260938328627   7.502436129799356 1
ion Pt   3.699455734809387   5.864873875038941   5.382606959073519 1
ion Pt   3.699469256621793  10.315169586278833   2.548718115442697 1
ion Pt   3.699619332968500   3.459153835933566   0.844830534554024 1
ion Pt   3.699587798250324   8.367636398548951  21.548803186971710 1

# Forces in Cartesian coordinates:
force Pt  -0.000007669272027  -0.000035423664126  -0.000183103456026 1
force Pt  -0.000007378246838  -0.000128849139486  -0.000144503846649 1
force Pt  -0.000011191294003   0.000013412315796   0.000180214587917 1
force Pt  -0.000011531591682   0.000095244573093   0.000089196326909 1
force Pt  -0.000012187956085  -0.000034600822993   0.000098643095329 1
force Pt  -0.000011558187301  -0.000056670945934  -0.000032407730738 1
force Pt  -0.000010350876669   0.000150864423328  -0.000148912674574 1
force Pt  -0.000005393435570  -0.000330761266920   0.000101642784256 1
force Pt  -0.000003976793654   0.000091757572856  -0.000233098100898 1
force Pt  -0.000003437978120  -0.000037026810048  -0.000089375091780 1
force Pt   0.000004470638016   0.000271518605918  -0.000112276578206 1
force Pt   0.000008519828937  -0.000166314143186   0.000180037016392 1
force Pt   0.000009236837386   0.000014492193243   0.000094652706415 1
force Pt   0.000014142842584   0.000038024795037  -0.000046205950715 1
force Pt   0.000012460368659  -0.000044475579389   0.000031076793844 1
force Pt   0.000008936766653  -0.000035854840805  -0.000116968859722 1
force Pt   0.000008666788567   0.000094197195465   0.000124026540562 1
force Pt   0.000002055256695  -0.000067081797147   0.000074638594048 1
force Pt  -0.000001560530469  -0.000028808546243  -0.000028091068830 1
force Pt   0.000005693628228  -0.000114919124902   0.000179854343479 1

# Energy components:
   A_diel =       -0.9648014622418772
   Eewald =    17760.1628734549485671
       EH =    19465.9183248858316801
     Eloc =   -39313.0999719426399679
      Enl =      -21.0315115395012029
     EvdW =       -0.4530788856541728
      Exc =     -569.4393301292415117
 Exc_core =      327.8276279115167995
       KE =      571.5318689831940446
  MuShift =       -0.1059137377068543
-------------------------------------
     Etot =    -1779.6539124614926095
       TS =        0.0031397223839023
-------------------------------------
        F =    -1779.6570521838764307
      muN =      -31.4942347376876590
-------------------------------------
        G =    -1748.1628174461886829


Dumping 'jdft.fillings' ... done
Dumping 'jdft.wfns' ... done
Dumping 'jdft.fluidState' ... done
Dumping 'jdft.ionpos' ... done
Dumping 'jdft.lattice' ... done
Dumping 'jdft.eigenvals' ... done
Dumping 'jdft.eigStats' ... 
	eMin: -2.046790 at state 25 ( [ -0.444444 +0.000000 +0.000000 ] spin 1 )
	HOMO: -0.097940 at state 87 ( [ -0.111111 +0.400000 +0.000000 ] spin -1 )
	mu  : -0.097800
	LUMO: -0.097732 at state 2 ( [ +0.000000 +0.400000 +0.000000 ] spin 1 )
	eMax: +0.141260 at state 45 ( [ +0.000000 +0.000000 +0.000000 ] spin -1 )
	HOMO-LUMO gap: +0.000208
	Optical gap  : +0.000789 at state 71 ( [ -0.444444 +0.200000 +0.000000 ] spin -1 )
Dumping 'jdft.Ecomponents' ... done
IonicMinimize: Iter:   1  G: -1748.162817446188683  |grad|_K:  1.024e-04  alpha:  1.000e+00  linmin: -6.597e-01  t[s]:   2170.76

#--- Lowdin population analysis ---
# oxidation-state Pt -0.205 -0.023 +0.004 +0.010 +0.001 +0.010 -0.004 -0.071 -0.295 -0.348 -0.072 -0.005 +0.009 +0.001 +0.011 +0.006 -0.022 -0.205 -0.348 -0.295
# magnetic-moments Pt +0.000 +0.000 +0.000 +0.000 +0.000 +0.000 +0.000 +0.000 +0.000 +0.000 +0.000 +0.000 +0.000 +0.000 +0.000 +0.000 +0.000 +0.000 +0.000 +0.000


Computing DFT-D3 correction:
# coordination-number Pt 6.825 9.379 9.264 9.543 9.472 9.401 9.381 8.475 6.655 5.273 8.474 9.380 9.401 9.472 9.543 9.265 9.380 6.828 5.274 6.655
# diagonal-C6 Pt 336.87 336.87 336.87 336.87 336.87 336.87 336.87 336.87 336.87 336.87 336.87 336.87 336.87 336.87 336.87 336.87 336.87 336.87 336.87 336.87
EvdW_6 =   -0.171512
EvdW_8 =   -0.281560
Shifting auxilliary hamiltonian by 0.000024 to set nElectrons=322.026940

-------- Electronic minimization -----------
	Linear fluid (dielectric constant: 78.4, screening length: 8.12261 Bohr) occupying 0.586872 of unit cell:	Completed after 15 iterations at t[s]:   2203.02
	FillingsUpdate:  mu: -0.097800000  nElectrons: 322.026940  magneticMoment: [ Abs: 0.00000  Tot: +0.00000 ]
ElecMinimize: Iter:   0  G: -1748.162798183681389  |grad|_K:  3.546e-07  alpha:  1.000e+00
	Linear fluid (dielectric constant: 78.4, screening length: 8.12261 Bohr) occupying 0.586761 of unit cell:	Completed after 21 iterations at t[s]:   2268.66
	Linear fluid (dielectric constant: 78.4, screening length: 8.12261 Bohr) occupying 0.586847 of unit cell:	Completed after 21 iterations at t[s]:   2291.22
	FillingsUpdate:  mu: -0.097800000  nElectrons: 322.023335  magneticMoment: [ Abs: 0.00000  Tot: +0.00000 ]
	SubspaceRotationAdjust: set factor to 0.00702
ElecMinimize: Iter:   1  G: -1748.162811007540540  |grad|_K:  1.251e-07  alpha:  2.251e-01  linmin: -1.755e-03  t[s]:   2323.46
	Linear fluid (dielectric constant: 78.4, screening length: 8.12261 Bohr) occupying 0.586853 of unit cell:	Completed after 10 iterations at t[s]:   2351.49
	Linear fluid (dielectric constant: 78.4, screening length: 8.12261 Bohr) occupying 0.586858 of unit cell:	Completed after 9 iterations at t[s]:   2372.90
	FillingsUpdate:  mu: -0.097800000  nElectrons: 322.024489  magneticMoment: [ Abs: 0.00000  Tot: +0.00000 ]
	SubspaceRotationAdjust: set factor to 0.00936
ElecMinimize: Iter:   2  G: -1748.162813896803527  |grad|_K:  6.440e-08  alpha:  4.073e-01  linmin: -4.117e-03  t[s]:   2405.11
	Linear fluid (dielectric constant: 78.4, screening length: 8.12261 Bohr) occupying 0.586862 of unit cell:	Completed after 4 iterations at t[s]:   2432.51
	Linear fluid (dielectric constant: 78.4, screening length: 8.12261 Bohr) occupying 0.586864 of unit cell:	Completed after 3 iterations at t[s]:   2453.10
	FillingsUpdate:  mu: -0.097800000  nElectrons: 322.024914  magneticMoment: [ Abs: 0.00000  Tot: +0.00000 ]
	SubspaceRotationAdjust: set factor to 0.012
ElecMinimize: Iter:   3  G: -1748.162814945814034  |grad|_K:  4.796e-08  alpha:  5.576e-01  linmin: -1.337e-04  t[s]:   2485.18
	Linear fluid (dielectric constant: 78.4, screening length: 8.12261 Bohr) occupying 0.586868 of unit cell:	Completed after 5 iterations at t[s]:   2512.66
	Linear fluid (dielectric constant: 78.4, screening length: 8.12261 Bohr) occupying 0.586869 of unit cell:	Completed after 3 iterations at t[s]:   2533.32
	FillingsUpdate:  mu: -0.097800000  nElectrons: 322.025351  magneticMoment: [ Abs: 0.00000  Tot: +0.00000 ]
	SubspaceRotationAdjust: set factor to 0.0143
ElecMinimize: Iter:   4  G: -1748.162815691590367  |grad|_K:  4.853e-08  alpha:  7.200e-01  linmin: -5.303e-04  t[s]:   2565.38
	Linear fluid (dielectric constant: 78.4, screening length: 8.12261 Bohr) occupying 0.586879 of unit cell:	Completed after 10 iterations at t[s]:   2593.25
	Linear fluid (dielectric constant: 78.4, screening length: 8.12261 Bohr) occupying 0.586878 of unit cell:	Completed after 2 iterations at t[s]:   2613.93
	FillingsUpdate:  mu: -0.097800000  nElectrons: 322.026564  magneticMoment: [ Abs: 0.00000  Tot: +0.00000 ]
	SubspaceRotationAdjust: set factor to 0.0143
ElecMinimize: Iter:   5  G: -1748.162816368726908  |grad|_K:  5.065e-08  alpha:  6.360e-01  linmin:  1.208e-03  t[s]:   2646.24
	Linear fluid (dielectric constant: 78.4, screening length: 8.12261 Bohr) occupying 0.586874 of unit cell:	Completed after 10 iterations at t[s]:   2674.17
	Linear fluid (dielectric constant: 78.4, screening length: 8.12261 Bohr) occupying 0.586876 of unit cell:	Completed after 9 iterations at t[s]:   2695.55
	FillingsUpdate:  mu: -0.097800000  nElectrons: 322.026353  magneticMoment: [ Abs: 0.00000  Tot: +0.00000 ]
	SubspaceRotationAdjust: set factor to 0.0113
ElecMinimize: Iter:   6  G: -1748.162816806430101  |grad|_K:  4.997e-08  alpha:  3.884e-01  linmin:  2.343e-04  t[s]:   2727.60
	Linear fluid (dielectric constant: 78.4, screening length: 8.12261 Bohr) occupying 0.586881 of unit cell:	Completed after 10 iterations at t[s]:   2755.52
	Linear fluid (dielectric constant: 78.4, screening length: 8.12261 Bohr) occupying 0.586881 of unit cell:	Completed after 0 iterations at t[s]:   2775.99
	FillingsUpdate:  mu: -0.097800000  nElectrons: 322.027433  magneticMoment: [ Abs: 0.00000  Tot: +0.00000 ]
	SubspaceRotationAdjust: set factor to 0.0107
ElecMinimize: Iter:   7  G: -1748.162817284586708  |grad|_K:  3.560e-08  alpha:  4.253e-01  linmin: -3.108e-03  t[s]:   2808.27
	Linear fluid (dielectric constant: 78.4, screening length: 8.12261 Bohr) occupying 0.586882 of unit cell:	Completed after 2 iterations at t[s]:   2835.55
	Linear fluid (dielectric constant: 78.4, screening length: 8.12261 Bohr) occupying 0.586882 of unit cell:	Completed after 2 iterations at t[s]:   2856.05
	FillingsUpdate:  mu: -0.097800000  nElectrons: 322.028019  magneticMoment: [ Abs: 0.00000  Tot: +0.00000 ]
	SubspaceRotationAdjust: set factor to 0.0118
ElecMinimize: Iter:   8  G: -1748.162817671922085  |grad|_K:  3.007e-08  alpha:  6.544e-01  linmin: -1.752e-03  t[s]:   2888.08
	Linear fluid (dielectric constant: 78.4, screening length: 8.12261 Bohr) occupying 0.586878 of unit cell:	Completed after 9 iterations at t[s]:   2915.96
	Linear fluid (dielectric constant: 78.4, screening length: 8.12261 Bohr) occupying 0.586879 of unit cell:	Completed after 2 iterations at t[s]:   2936.54
	FillingsUpdate:  mu: -0.097800000  nElectrons: 322.027979  magneticMoment: [ Abs: 0.00000  Tot: +0.00000 ]
	SubspaceRotationAdjust: set factor to 0.0108
ElecMinimize: Iter:   9  G: -1748.162817876162762  |grad|_K:  2.874e-08  alpha:  4.886e-01  linmin:  3.290e-03  t[s]:   2968.52
	Linear fluid (dielectric constant: 78.4, screening length: 8.12261 Bohr) occupying 0.586880 of unit cell:	Completed after 9 iterations at t[s]:   2996.29
	Linear fluid (dielectric constant: 78.4, screening length: 8.12261 Bohr) occupying 0.586880 of unit cell:	Completed after 2 iterations at t[s]:   3016.88
	FillingsUpdate:  mu: -0.097800000  nElectrons: 322.028410  magneticMoment: [ Abs: 0.00000  Tot: +0.00000 ]
	SubspaceRotationAdjust: set factor to 0.00843
ElecMinimize: Iter:  10  G: -1748.162817987086328  |grad|_K:  2.197e-08  alpha:  3.152e-01  linmin:  4.266e-03  t[s]:   3049.99
	Linear fluid (dielectric constant: 78.4, screening length: 8.12261 Bohr) occupying 0.586878 of unit cell:	Completed after 4 iterations at t[s]:   3077.58
	Linear fluid (dielectric constant: 78.4, screening length: 8.12261 Bohr) occupying 0.586877 of unit cell:	Completed after 0 iterations at t[s]:   3097.81
	FillingsUpdate:  mu: -0.097800000  nElectrons: 322.028342  magneticMoment: [ Abs: 0.00000  Tot: +0.00000 ]
	SubspaceRotationAdjust: set factor to 0.0104
ElecMinimize: Iter:  11  G: -1748.162818079907538  |grad|_K:  1.394e-08  alpha:  4.263e-01  linmin: -1.648e-02  t[s]:   3129.89
	Linear fluid (dielectric constant: 78.4, screening length: 8.12261 Bohr) occupying 0.586876 of unit cell:	Completed after 5 iterations at t[s]:   3157.29
	Linear fluid (dielectric constant: 78.4, screening length: 8.12261 Bohr) occupying 0.586876 of unit cell:	Completed after 0 iterations at t[s]:   3177.60
	FillingsUpdate:  mu: -0.097800000  nElectrons: 322.028262  magneticMoment: [ Abs: 0.00000  Tot: +0.00000 ]
	SubspaceRotationAdjust: set factor to 0.00991
ElecMinimize: Iter:  12  G: -1748.162818121475539  |grad|_K:  1.569e-08  alpha:  4.267e-01  linmin: -1.384e-02  t[s]:   3209.58
ElecMinimize: Converged (|Delta G|<1.000000e-07 for 2 iters).
Setting wave functions to eigenvectors of Hamiltonian
Converging empty states (this may take a while): |deigs|: 1.664e-08

Computing DFT-D3 correction:
# coordination-number Pt 6.825 9.379 9.264 9.543 9.472 9.401 9.381 8.475 6.655 5.273 8.474 9.380 9.401 9.472 9.543 9.265 9.380 6.828 5.274 6.655
# diagonal-C6 Pt 336.87 336.87 336.87 336.87 336.87 336.87 336.87 336.87 336.87 336.87 336.87 336.87 336.87 336.87 336.87 336.87 336.87 336.87 336.87 336.87
EvdW_6 =   -0.171512
EvdW_8 =   -0.281560
IonicMinimize: 	Wolfe criterion not satisfied: alpha: 1  (E-E0)/|gdotd0|: -0.446777  gdotd/gdotd0: 0.930211 (taking cubic step)

Computing DFT-D3 correction:
# coordination-number Pt 6.829 9.377 9.265 9.542 9.470 9.399 9.381 8.474 6.652 5.272 8.474 9.381 9.400 9.470 9.541 9.265 9.377 6.831 5.272 6.652
# diagonal-C6 Pt 336.87 336.87 336.87 336.87 336.87 336.87 336.87 336.87 336.87 336.87 336.87 336.87 336.87 336.87 336.87 336.87 336.87 336.87 336.87 336.87
EvdW_6 =   -0.171507
EvdW_8 =   -0.281551
Shifting auxilliary hamiltonian by 0.000083 to set nElectrons=322.028262

-------- Electronic minimization -----------
	Linear fluid (dielectric constant: 78.4, screening length: 8.12261 Bohr) occupying 0.586880 of unit cell:	Completed after 21 iterations at t[s]:   3322.96
	FillingsUpdate:  mu: -0.097800000  nElectrons: 322.028262  magneticMoment: [ Abs: 0.00000  Tot: +0.00000 ]
ElecMinimize: Iter:   0  G: -1748.162718540997275  |grad|_K:  9.115e-07  alpha:  1.000e+00
	Linear fluid (dielectric constant: 78.4, screening length: 8.12261 Bohr) occupying 0.586485 of unit cell:	Completed after 24 iterations at t[s]:   3388.72
	Linear fluid (dielectric constant: 78.4, screening length: 8.12261 Bohr) occupying 0.586809 of unit cell:	Completed after 24 iterations at t[s]:   3411.42
	FillingsUpdate:  mu: -0.097800000  nElectrons: 322.017940  magneticMoment: [ Abs: 0.00000  Tot: +0.00000 ]
	SubspaceRotationAdjust: set factor to 0.00866
ElecMinimize: Iter:   1  G: -1748.162789084561155  |grad|_K:  2.450e-07  alpha:  1.888e-01  linmin:  7.917e-04  t[s]:   3443.59
	Linear fluid (dielectric constant: 78.4, screening length: 8.12261 Bohr) occupying 0.586817 of unit cell:	Completed after 11 iterations at t[s]:   3471.82
	Linear fluid (dielectric constant: 78.4, screening length: 8.12261 Bohr) occupying 0.586828 of unit cell:	Completed after 13 iterations at t[s]:   3493.47
	FillingsUpdate:  mu: -0.097800000  nElectrons: 322.019477  magneticMoment: [ Abs: 0.00000  Tot: +0.00000 ]
	SubspaceRotationAdjust: set factor to 0.0127
ElecMinimize: Iter:   2  G: -1748.162801056258104  |grad|_K:  1.326e-07  alpha:  4.425e-01  linmin: -1.321e-03  t[s]:   3525.39
	Linear fluid (dielectric constant: 78.4, screening length: 8.12261 Bohr) occupying 0.586839 of unit cell:	Completed after 10 iterations at t[s]:   3553.36
	Linear fluid (dielectric constant: 78.4, screening length: 8.12261 Bohr) occupying 0.586843 of unit cell:	Completed after 4 iterations at t[s]:   3574.17
	FillingsUpdate:  mu: -0.097800000  nElectrons: 322.020487  magneticMoment: [ Abs: 0.00000  Tot: +0.00000 ]
	SubspaceRotationAdjust: set factor to 0.016
ElecMinimize: Iter:   3  G: -1748.162805639960425  |grad|_K:  1.035e-07  alpha:  5.771e-01  linmin: -2.326e-04  t[s]:   3606.41
	Linear fluid (dielectric constant: 78.4, screening length: 8.12261 Bohr) occupying 0.586855 of unit cell:	Completed after 11 iterations at t[s]:   3634.48
	Linear fluid (dielectric constant: 78.4, screening length: 8.12261 Bohr) occupying 0.586858 of unit cell:	Completed after 3 iterations at t[s]:   3656.02
	FillingsUpdate:  mu: -0.097800000  nElectrons: 322.021722  magneticMoment: [ Abs: 0.00000  Tot: +0.00000 ]
	SubspaceRotationAdjust: set factor to 0.019
ElecMinimize: Iter:   4  G: -1748.162808987784047  |grad|_K:  9.659e-08  alpha:  6.914e-01  linmin: -1.550e-03  t[s]:   3688.09
	Linear fluid (dielectric constant: 78.4, screening length: 8.12261 Bohr) occupying 0.586879 of unit cell:	Completed after 11 iterations at t[s]:   3716.27
	Linear fluid (dielectric constant: 78.4, screening length: 8.12261 Bohr) occupying 0.586877 of unit cell:	Completed after 2 iterations at t[s]:   3736.80
	FillingsUpdate:  mu: -0.097800000  nElectrons: 322.024134  magneticMoment: [ Abs: 0.00000  Tot: +0.00000 ]
	SubspaceRotationAdjust: set factor to 0.0191
ElecMinimize: Iter:   5  G: -1748.162811649242258  |grad|_K:  9.621e-08  alpha:  6.268e-01  linmin:  3.844e-04  t[s]:   3768.85
	Linear fluid (dielectric constant: 78.4, screening length: 8.12261 Bohr) occupying 0.586863 of unit cell:	Completed after 13 iterations at t[s]:   3797.05
	Linear fluid (dielectric constant: 78.4, screening length: 8.12261 Bohr) occupying 0.586870 of unit cell:	Completed after 12 iterations at t[s]:   3818.58
	FillingsUpdate:  mu: -0.097800000  nElectrons: 322.023488  magneticMoment: [ Abs: 0.00000  Tot: +0.00000 ]
	SubspaceRotationAdjust: set factor to 0.0143
ElecMinimize: Iter:   6  G: -1748.162812888952431  |grad|_K:  9.726e-08  alpha:  3.006e-01  linmin:  2.377e-05  t[s]:   3850.69
	Linear fluid (dielectric constant: 78.4, screening length: 8.12261 Bohr) occupying 0.586878 of unit cell:	Completed after 11 iterations at t[s]:   3878.62
	Linear fluid (dielectric constant: 78.4, screening length: 8.12261 Bohr) occupying 0.586880 of unit cell:	Completed after 2 iterations at t[s]:   3899.16
	FillingsUpdate:  mu: -0.097800000  nElectrons: 322.025528  magneticMoment: [ Abs: 0.00000  Tot: +0.00000 ]
	SubspaceRotationAdjust: set factor to 0.0132
ElecMinimize: Iter:   7  G: -1748.162814407637143  |grad|_K:  6.246e-08  alpha:  3.562e-01  linmin: -1.513e-03  t[s]:   3931.34
	Linear fluid (dielectric constant: 78.4, screening length: 8.12261 Bohr) occupying 0.586880 of unit cell:	Completed after 3 iterations at t[s]:   3958.78
	Linear fluid (dielectric constant: 78.4, screening length: 8.12261 Bohr) occupying 0.586880 of unit cell:	Completed after 3 iterations at t[s]:   3979.48
	FillingsUpdate:  mu: -0.097800000  nElectrons: 322.026646  magneticMoment: [ Abs: 0.00000  Tot: +0.00000 ]
	SubspaceRotationAdjust: set factor to 0.0146
ElecMinimize: Iter:   8  G: -1748.162815533667072  |grad|_K:  5.246e-08  alpha:  6.324e-01  linmin: -1.511e-04  t[s]:   4011.54
	Linear fluid (dielectric constant: 78.4, screening length: 8.12261 Bohr) occupying 0.586870 of unit cell:	Completed after 11 iterations at t[s]:   4039.48
	Linear fluid (dielectric constant: 78.4, screening length: 8.12261 Bohr) occupying 0.586873 of unit cell:	Completed after 6 iterations at t[s]:   4060.43
	FillingsUpdate:  mu: -0.097800000  nElectrons: 322.026490  magneticMoment: [ Abs: 0.00000  Tot: +0.00000 ]
	SubspaceRotationAdjust: set factor to 0.0127
ElecMinimize: Iter:   9  G: -1748.162816082765858  |grad|_K:  5.095e-08  alpha:  4.354e-01  linmin:  1.725e-03  t[s]:   4092.38
	Linear fluid (dielectric constant: 78.4, screening length: 8.12261 Bohr) occupying 0.586876 of unit cell:	Completed after 10 iterations at t[s]:   4120.25
	Linear fluid (dielectric constant: 78.4, screening length: 8.12261 Bohr) occupying 0.586875 of unit cell:	Completed after 5 iterations at t[s]:   4141.21
	FillingsUpdate:  mu: -0.097800000  nElectrons: 322.027410  magneticMoment: [ Abs: 0.00000  Tot: +0.00000 ]
	SubspaceRotationAdjust: set factor to 0.00973
ElecMinimize: Iter:  10  G: -1748.162816417217755  |grad|_K:  3.538e-08  alpha:  2.959e-01  linmin:  1.277e-03  t[s]:   4173.59
	Linear fluid (dielectric constant: 78.4, screening length: 8.12261 Bohr) occupying 0.586873 of unit cell:	Completed after 7 iterations at t[s]:   4201.20
	Linear fluid (dielectric constant: 78.4, screening length: 8.12261 Bohr) occupying 0.586871 of unit cell:	Completed after 2 iterations at t[s]:   4221.83
	FillingsUpdate:  mu: -0.097800000  nElectrons: 322.027458  magneticMoment: [ Abs: 0.00000  Tot: +0.00000 ]
	SubspaceRotationAdjust: set factor to 0.0114
ElecMinimize: Iter:  11  G: -1748.162816709151684  |grad|_K:  2.445e-08  alpha:  5.032e-01  linmin: -9.823e-03  t[s]:   4253.87
	Linear fluid (dielectric constant: 78.4, screening length: 8.12261 Bohr) occupying 0.586869 of unit cell:	Completed after 6 iterations at t[s]:   4281.48
	Linear fluid (dielectric constant: 78.4, screening length: 8.12261 Bohr) occupying 0.586869 of unit cell:	Completed after 0 iterations at t[s]:   4301.75
	FillingsUpdate:  mu: -0.097800000  nElectrons: 322.027450  magneticMoment: [ Abs: 0.00000  Tot: +0.00000 ]
	SubspaceRotationAdjust: set factor to 0.0126
ElecMinimize: Iter:  12  G: -1748.162816872450094  |grad|_K:  2.359e-08  alpha:  5.613e-01  linmin: -5.099e-03  t[s]:   4333.59
	Linear fluid (dielectric constant: 78.4, screening length: 8.12261 Bohr) occupying 0.586871 of unit cell:	Completed after 10 iterations at t[s]:   4361.47
	Linear fluid (dielectric constant: 78.4, screening length: 8.12261 Bohr) occupying 0.586870 of unit cell:	Completed after 2 iterations at t[s]:   4382.15
	FillingsUpdate:  mu: -0.097800000  nElectrons: 322.027896  magneticMoment: [ Abs: 0.00000  Tot: +0.00000 ]
	SubspaceRotationAdjust: set factor to 0.011
ElecMinimize: Iter:  13  G: -1748.162816987030965  |grad|_K:  2.361e-08  alpha:  4.251e-01  linmin:  5.076e-03  t[s]:   4414.26
	Linear fluid (dielectric constant: 78.4, screening length: 8.12261 Bohr) occupying 0.586868 of unit cell:	Completed after 6 iterations at t[s]:   4441.90
	Linear fluid (dielectric constant: 78.4, screening length: 8.12261 Bohr) occupying 0.586868 of unit cell:	Completed after 0 iterations at t[s]:   4462.13
	FillingsUpdate:  mu: -0.097800000  nElectrons: 322.027789  magneticMoment: [ Abs: 0.00000  Tot: +0.00000 ]
	SubspaceRotationAdjust: set factor to 0.0126
ElecMinimize: Iter:  14  G: -1748.162817089208829  |grad|_K:  1.839e-08  alpha:  4.367e-01  linmin: -3.355e-03  t[s]:   4494.10
	Linear fluid (dielectric constant: 78.4, screening length: 8.12261 Bohr) occupying 0.586867 of unit cell:	Completed after 2 iterations at t[s]:   4521.21
	Linear fluid (dielectric constant: 78.4, screening length: 8.12261 Bohr) occupying 0.586866 of unit cell:	Completed after 0 iterations at t[s]:   4541.64
	FillingsUpdate:  mu: -0.097800000  nElectrons: 322.027735  magneticMoment: [ Abs: 0.00000  Tot: +0.00000 ]
	SubspaceRotationAdjust: set factor to 0.0147
ElecMinimize: Iter:  15  G: -1748.162817200757445  |grad|_K:  1.900e-08  alpha:  6.886e-01  linmin: -3.231e-03  t[s]:   4573.58
	Linear fluid (dielectric constant: 78.4, screening length: 8.12261 Bohr) occupying 0.586867 of unit cell:	Completed after 2 iterations at t[s]:   4600.71
	Linear fluid (dielectric constant: 78.4, screening length: 8.12261 Bohr) occupying 0.586867 of unit cell:	Completed after 0 iterations at t[s]:   4621.00
	FillingsUpdate:  mu: -0.097800000  nElectrons: 322.027983  magneticMoment: [ Abs: 0.00000  Tot: +0.00000 ]
	SubspaceRotationAdjust: set factor to 0.0163
ElecMinimize: Iter:  16  G: -1748.162817335747832  |grad|_K:  2.000e-08  alpha:  7.848e-01  linmin: -8.637e-04  t[s]:   4653.06
	Linear fluid (dielectric constant: 78.4, screening length: 8.12261 Bohr) occupying 0.586868 of unit cell:	Completed after 2 iterations at t[s]:   4680.17
	Linear fluid (dielectric constant: 78.4, screening length: 8.12261 Bohr) occupying 0.586868 of unit cell:	Completed after 0 iterations at t[s]:   4700.48
	FillingsUpdate:  mu: -0.097800000  nElectrons: 322.028097  magneticMoment: [ Abs: 0.00000  Tot: +0.00000 ]
	SubspaceRotationAdjust: set factor to 0.0182
ElecMinimize: Iter:  17  G: -1748.162817479196292  |grad|_K:  2.200e-08  alpha:  7.820e-01  linmin: -4.623e-04  t[s]:   4732.65
	Linear fluid (dielectric constant: 78.4, screening length: 8.12261 Bohr) occupying 0.586866 of unit cell:	Completed after 6 iterations at t[s]:   4760.24
	Linear fluid (dielectric constant: 78.4, screening length: 8.12261 Bohr) occupying 0.586866 of unit cell:	Completed after 0 iterations at t[s]:   4780.56
	FillingsUpdate:  mu: -0.097800000  nElectrons: 322.027827  magneticMoment: [ Abs: 0.00000  Tot: +0.00000 ]
	SubspaceRotationAdjust: set factor to 0.0174
ElecMinimize: Iter:  18  G: -1748.162817623102001  |grad|_K:  3.108e-08  alpha:  6.406e-01  linmin:  1.586e-03  t[s]:   4812.76
	Linear fluid (dielectric constant: 78.4, screening length: 8.12261 Bohr) occupying 0.586872 of unit cell:	Completed after 11 iterations at t[s]:   4840.95
	Linear fluid (dielectric constant: 78.4, screening length: 8.12261 Bohr) occupying 0.586868 of unit cell:	Completed after 9 iterations at t[s]:   4862.41
	FillingsUpdate:  mu: -0.097800000  nElectrons: 322.028163  magneticMoment: [ Abs: 0.00000  Tot: +0.00000 ]
	SubspaceRotationAdjust: set factor to 0.0141
ElecMinimize: Iter:  19  G: -1748.162817714904804  |grad|_K:  2.579e-08  alpha:  2.489e-01  linmin:  3.892e-04  t[s]:   4894.74
	Linear fluid (dielectric constant: 78.4, screening length: 8.12261 Bohr) occupying 0.586868 of unit cell:	Completed after 2 iterations at t[s]:   4921.94
	Linear fluid (dielectric constant: 78.4, screening length: 8.12261 Bohr) occupying 0.586867 of unit cell:	Completed after 2 iterations at t[s]:   4942.49
	FillingsUpdate:  mu: -0.097800000  nElectrons: 322.028018  magneticMoment: [ Abs: 0.00000  Tot: +0.00000 ]
	SubspaceRotationAdjust: set factor to 0.0165
ElecMinimize: Iter:  20  G: -1748.162817869907258  |grad|_K:  2.313e-08  alpha:  5.236e-01  linmin: -2.221e-04  t[s]:   4974.57
	Linear fluid (dielectric constant: 78.4, screening length: 8.12261 Bohr) occupying 0.586865 of unit cell:	Completed after 8 iterations at t[s]:   5002.30
	Linear fluid (dielectric constant: 78.4, screening length: 8.12261 Bohr) occupying 0.586866 of unit cell:	Completed after 1 iterations at t[s]:   5022.73
	FillingsUpdate:  mu: -0.097800000  nElectrons: 322.027777  magneticMoment: [ Abs: 0.00000  Tot: +0.00000 ]
	SubspaceRotationAdjust: set factor to 0.0148
ElecMinimize: Iter:  21  G: -1748.162817970081051  |grad|_K:  3.071e-08  alpha:  4.219e-01  linmin:  1.120e-04  t[s]:   5054.87
	Linear fluid (dielectric constant: 78.4, screening length: 8.12261 Bohr) occupying 0.586870 of unit cell:	Completed after 10 iterations at t[s]:   5082.88
	Linear fluid (dielectric constant: 78.4, screening length: 8.12261 Bohr) occupying 0.586868 of unit cell:	Completed after 7 iterations at t[s]:   5103.89
	FillingsUpdate:  mu: -0.097800000  nElectrons: 322.028099  magneticMoment: [ Abs: 0.00000  Tot: +0.00000 ]
	SubspaceRotationAdjust: set factor to 0.0127
ElecMinimize: Iter:  22  G: -1748.162818053362116  |grad|_K:  1.993e-08  alpha:  2.061e-01  linmin:  7.372e-04  t[s]:   5136.15
	Linear fluid (dielectric constant: 78.4, screening length: 8.12261 Bohr) occupying 0.586868 of unit cell:	Completed after 1 iterations at t[s]:   5164.19
	Linear fluid (dielectric constant: 78.4, screening length: 8.12261 Bohr) occupying 0.586868 of unit cell:	Completed after 2 iterations at t[s]:   5184.84
	FillingsUpdate:  mu: -0.097800000  nElectrons: 322.028228  magneticMoment: [ Abs: 0.00000  Tot: +0.00000 ]
	SubspaceRotationAdjust: set factor to 0.0154
ElecMinimize: Iter:  23  G: -1748.162818141986008  |grad|_K:  1.797e-08  alpha:  4.946e-01  linmin: -1.381e-03  t[s]:   5217.11
ElecMinimize: Converged (|Delta G|<1.000000e-07 for 2 iters).
Setting wave functions to eigenvectors of Hamiltonian
Converging empty states (this may take a while): |deigs|: 3.014e-08

Computing DFT-D3 correction:
# coordination-number Pt 6.829 9.377 9.265 9.542 9.470 9.399 9.381 8.474 6.652 5.272 8.474 9.381 9.400 9.470 9.541 9.265 9.377 6.831 5.272 6.652
# diagonal-C6 Pt 336.87 336.87 336.87 336.87 336.87 336.87 336.87 336.87 336.87 336.87 336.87 336.87 336.87 336.87 336.87 336.87 336.87 336.87 336.87 336.87
EvdW_6 =   -0.171507
EvdW_8 =   -0.281551

# Ionic positions in cartesian coordinates:
ion Pt   0.000142962739337   4.892894660553265  20.850201499439436 1
ion Pt   0.000052932254963   9.342810608552817  18.014640803254132 1
ion Pt   0.000023877280507   2.385232236004550  15.897252046241816 1
ion Pt  -0.000035037069978   7.012210263747278  13.414023997343866 1
ion Pt  -0.000020191866917  11.714265010652950  11.112119414424141 1
ion Pt  -0.000136184746709   4.621435295575389   8.758386202069243 1
ion Pt  -0.000134791445837   9.335271831630170   6.430412100039407 1
ion Pt  -0.000095582674707   2.027665917134785   3.916889582951667 1
ion Pt  -0.000062338315816   6.840861438817458   1.847613767078518 1
ion Pt  -0.000067035858890   0.049118953013171  22.553896582934001 1
ion Pt   3.699660975704638   1.481326769984845  19.480912337671629 1
ion Pt   3.699750788599966   5.873574371479186  16.967581281755812 1
ion Pt   3.699713999223532  10.588159313471120  14.640228998912439 1
ion Pt   3.699578735799236   3.495167009886225  12.286334595750235 1
ion Pt   3.699615282359898   8.198423782814109   9.983926464677463 1
ion Pt   3.699542333901930   1.126121969919689   7.501071789438861 1
ion Pt   3.699523647242759   5.865603546844714   5.383046427008948 1
ion Pt   3.699488590369406  10.314838342032230   2.548992288626570 1
ion Pt   3.699613281319247   3.459004851973511   0.844040439636183 1
ion Pt   3.699633755183450   8.366973825912584  21.550335380745725 1

# Forces in Cartesian coordinates:
force Pt   0.000000148641978  -0.000011973818104  -0.000220499434749 1
force Pt   0.000006803657510  -0.000037331865481  -0.000155685205202 1
force Pt   0.000007471707266  -0.000022289423081  -0.000242834759373 1
force Pt   0.000011372069691  -0.000042834717538  -0.000105287882681 1
force Pt   0.000010786690184  -0.000009190910657   0.000096881833045 1
force Pt   0.000010620143596   0.000010134296205   0.000215219518641 1
force Pt   0.000006386216603  -0.000122530923626   0.000305359154189 1
force Pt   0.000002890426532   0.000065726793607   0.000032448967362 1
force Pt   0.000001515463653  -0.000142024822889   0.000057541548311 1
force Pt   0.000002908888993  -0.000034793818975  -0.000262955887612 1
force Pt  -0.000006681736603  -0.000119716423951  -0.000067110498415 1
force Pt  -0.000007335986743   0.000086249474816  -0.000246878358610 1
force Pt  -0.000010573843025   0.000010986814437  -0.000145272825308 1
force Pt  -0.000010562783412   0.000019946223189  -0.000040025104086 1
force Pt  -0.000011153938221   0.000022464658181   0.000147403041300 1
force Pt  -0.000008771090012  -0.000005136778597   0.000273043817805 1
force Pt  -0.000006723181537   0.000005629639408   0.000199684967173 1
force Pt  -0.000002859289501  -0.000041769636313   0.000109484035466 1
force Pt  -0.000004552838687  -0.000032241489107   0.000189138944633 1
force Pt  -0.000004035679102   0.000085586482523  -0.000124251591342 1

# Energy components:
   A_diel =       -0.9655571242968070
   Eewald =    17759.0791873780290189
       EH =    19464.8846726550655148
     Eloc =   -39310.9814210949625704
      Enl =      -21.0315283675478142
     EvdW =       -0.4530572383839304
      Exc =     -569.4392028442035780
 Exc_core =      327.8276280123309903
       KE =      571.5312198822267646
  MuShift =       -0.1059810402110236
-------------------------------------
     Etot =    -1779.6540397819546797
       TS =        0.0031390652709898
-------------------------------------
        F =    -1779.6571788472256230
      muN =      -31.4943607052396359
-------------------------------------
        G =    -1748.1628181419860084


Dumping 'jdft.fillings' ... done
Dumping 'jdft.wfns' ... done
Dumping 'jdft.fluidState' ... done
Dumping 'jdft.ionpos' ... done
Dumping 'jdft.lattice' ... done
Dumping 'jdft.eigenvals' ... done
Dumping 'jdft.eigStats' ... 
	eMin: -2.046638 at state 25 ( [ -0.444444 +0.000000 +0.000000 ] spin 1 )
	HOMO: -0.097852 at state 52 ( [ +0.111111 +0.400000 +0.000000 ] spin -1 )
	mu  : -0.097800
	LUMO: -0.097635 at state 2 ( [ +0.000000 +0.400000 +0.000000 ] spin 1 )
	eMax: +0.141355 at state 45 ( [ +0.000000 +0.000000 +0.000000 ] spin -1 )
	HOMO-LUMO gap: +0.000216
	Optical gap  : +0.000729 at state 69 ( [ +0.444444 -0.200000 +0.000000 ] spin -1 )
Dumping 'jdft.Ecomponents' ... done
IonicMinimize: Iter:   2  G: -1748.162818141986008  |grad|_K:  1.101e-04  alpha:  3.000e+00  linmin:  5.371e-01  t[s]:   5299.08
IonicMinimize: Converged (|Delta G|<1.000000e-06 for 2 iters).

#--- Lowdin population analysis ---
# oxidation-state Pt -0.207 -0.021 +0.006 +0.015 +0.005 +0.010 -0.007 -0.074 -0.300 -0.349 -0.073 -0.004 +0.012 +0.006 +0.014 +0.004 -0.023 -0.207 -0.349 -0.300
# magnetic-moments Pt +0.000 +0.000 +0.000 +0.000 +0.000 +0.000 +0.000 +0.000 +0.000 +0.000 +0.000 +0.000 +0.000 +0.000 +0.000 +0.000 +0.000 +0.000 +0.000 +0.000


Dumping 'jdft.n_up' ... done
Dumping 'jdft.n_dn' ... done
Dumping 'jdft.tau_up' ... done
Dumping 'jdft.tau_dn' ... done
Dumping 'jdft.eigenvals' ... done
Dumping 'jdft.eigStats' ... 
	eMin: -2.046638 at state 25 ( [ -0.444444 +0.000000 +0.000000 ] spin 1 )
	HOMO: -0.097852 at state 52 ( [ +0.111111 +0.400000 +0.000000 ] spin -1 )
	mu  : -0.097800
	LUMO: -0.097635 at state 2 ( [ +0.000000 +0.400000 +0.000000 ] spin 1 )
	eMax: +0.141355 at state 45 ( [ +0.000000 +0.000000 +0.000000 ] spin -1 )
	HOMO-LUMO gap: +0.000216
	Optical gap  : +0.000729 at state 69 ( [ +0.444444 -0.200000 +0.000000 ] spin -1 )
Dumping 'jdft.kPts' ... done
Dumping 'jdft.dosUp' ... done.
Dumping 'jdft.dosDn' ... done.
End date and time: Thu Dec  9 07:15:37 2021  (Duration: 0-1:29:08.65)
Done!
