
*************** JDFTx 1.6.0  ***************

Start date and time: Thu Dec  9 05:46:29 2021
Executable /projects/musgravc/apps/jdftx-1.6.1/build/jdftx with command-line: -i in
Running on hosts (process indices):  shas0148.rc.int.colorado.edu (0-23)
Divided in process groups (process indices):  0 (0)  1 (1)  2 (2)  3 (3)  4 (4)  5 (5)  6 (6)  7 (7)  8 (8)  9 (9)  10 (10)  11 (11)  12 (12)  13 (13)  14 (14)  15 (15)  16 (16)  17 (17)  18 (18)  19 (19)  20 (20)  21 (21)  22 (22)  23 (23)
Resource initialization completed at t[s]:      0.01
Run totals: 24 processes, 24 threads, 0 GPUs


Input parsed successfully to the following command list (including defaults):

basis kpoint-dependent
converge-empty-states yes
coords-type Cartesian
core-overlap-check none
coulomb-interaction Periodic
davidson-band-ratio 1.1
density-of-states Etol 1.000000e-06 Esigma 1.000000e-03 \
		Complete \
	Total \
	OrthoOrbital Pt 1   s \
	OrthoOrbital Pt 1   p \
	OrthoOrbital Pt 1   px \
	OrthoOrbital Pt 1   py \
	OrthoOrbital Pt 1   pz \
	OrthoOrbital Pt 1   d \
	OrthoOrbital Pt 1   dxy \
	OrthoOrbital Pt 1   dyz \
	OrthoOrbital Pt 1   dz2 \
	OrthoOrbital Pt 1   dxz \
	OrthoOrbital Pt 1   dx2-y2 \
	OrthoOrbital Pt 2   s \
	OrthoOrbital Pt 2   p \
	OrthoOrbital Pt 2   px \
	OrthoOrbital Pt 2   py \
	OrthoOrbital Pt 2   pz \
	OrthoOrbital Pt 2   d \
	OrthoOrbital Pt 2   dxy \
	OrthoOrbital Pt 2   dyz \
	OrthoOrbital Pt 2   dz2 \
	OrthoOrbital Pt 2   dxz \
	OrthoOrbital Pt 2   dx2-y2 \
	OrthoOrbital Pt 3   s \
	OrthoOrbital Pt 3   p \
	OrthoOrbital Pt 3   px \
	OrthoOrbital Pt 3   py \
	OrthoOrbital Pt 3   pz \
	OrthoOrbital Pt 3   d \
	OrthoOrbital Pt 3   dxy \
	OrthoOrbital Pt 3   dyz \
	OrthoOrbital Pt 3   dz2 \
	OrthoOrbital Pt 3   dxz \
	OrthoOrbital Pt 3   dx2-y2 \
	OrthoOrbital Pt 4   s \
	OrthoOrbital Pt 4   p \
	OrthoOrbital Pt 4   px \
	OrthoOrbital Pt 4   py \
	OrthoOrbital Pt 4   pz \
	OrthoOrbital Pt 4   d \
	OrthoOrbital Pt 4   dxy \
	OrthoOrbital Pt 4   dyz \
	OrthoOrbital Pt 4   dz2 \
	OrthoOrbital Pt 4   dxz \
	OrthoOrbital Pt 4   dx2-y2 \
	OrthoOrbital Pt 5   s \
	OrthoOrbital Pt 5   p \
	OrthoOrbital Pt 5   px \
	OrthoOrbital Pt 5   py \
	OrthoOrbital Pt 5   pz \
	OrthoOrbital Pt 5   d \
	OrthoOrbital Pt 5   dxy \
	OrthoOrbital Pt 5   dyz \
	OrthoOrbital Pt 5   dz2 \
	OrthoOrbital Pt 5   dxz \
	OrthoOrbital Pt 5   dx2-y2 \
	OrthoOrbital Pt 6   s \
	OrthoOrbital Pt 6   p \
	OrthoOrbital Pt 6   px \
	OrthoOrbital Pt 6   py \
	OrthoOrbital Pt 6   pz \
	OrthoOrbital Pt 6   d \
	OrthoOrbital Pt 6   dxy \
	OrthoOrbital Pt 6   dyz \
	OrthoOrbital Pt 6   dz2 \
	OrthoOrbital Pt 6   dxz \
	OrthoOrbital Pt 6   dx2-y2 \
	OrthoOrbital Pt 7   s \
	OrthoOrbital Pt 7   p \
	OrthoOrbital Pt 7   px \
	OrthoOrbital Pt 7   py \
	OrthoOrbital Pt 7   pz \
	OrthoOrbital Pt 7   d \
	OrthoOrbital Pt 7   dxy \
	OrthoOrbital Pt 7   dyz \
	OrthoOrbital Pt 7   dz2 \
	OrthoOrbital Pt 7   dxz \
	OrthoOrbital Pt 7   dx2-y2 \
	OrthoOrbital Pt 8   s \
	OrthoOrbital Pt 8   p \
	OrthoOrbital Pt 8   px \
	OrthoOrbital Pt 8   py \
	OrthoOrbital Pt 8   pz \
	OrthoOrbital Pt 8   d \
	OrthoOrbital Pt 8   dxy \
	OrthoOrbital Pt 8   dyz \
	OrthoOrbital Pt 8   dz2 \
	OrthoOrbital Pt 8   dxz \
	OrthoOrbital Pt 8   dx2-y2 \
	OrthoOrbital Pt 9   s \
	OrthoOrbital Pt 9   p \
	OrthoOrbital Pt 9   px \
	OrthoOrbital Pt 9   py \
	OrthoOrbital Pt 9   pz \
	OrthoOrbital Pt 9   d \
	OrthoOrbital Pt 9   dxy \
	OrthoOrbital Pt 9   dyz \
	OrthoOrbital Pt 9   dz2 \
	OrthoOrbital Pt 9   dxz \
	OrthoOrbital Pt 9   dx2-y2 \
	OrthoOrbital Pt 10   s \
	OrthoOrbital Pt 10   p \
	OrthoOrbital Pt 10   px \
	OrthoOrbital Pt 10   py \
	OrthoOrbital Pt 10   pz \
	OrthoOrbital Pt 10   d \
	OrthoOrbital Pt 10   dxy \
	OrthoOrbital Pt 10   dyz \
	OrthoOrbital Pt 10   dz2 \
	OrthoOrbital Pt 10   dxz \
	OrthoOrbital Pt 10   dx2-y2 \
	OrthoOrbital Pt 11   s \
	OrthoOrbital Pt 11   p \
	OrthoOrbital Pt 11   px \
	OrthoOrbital Pt 11   py \
	OrthoOrbital Pt 11   pz \
	OrthoOrbital Pt 11   d \
	OrthoOrbital Pt 11   dxy \
	OrthoOrbital Pt 11   dyz \
	OrthoOrbital Pt 11   dz2 \
	OrthoOrbital Pt 11   dxz \
	OrthoOrbital Pt 11   dx2-y2 \
	OrthoOrbital Pt 12   s \
	OrthoOrbital Pt 12   p \
	OrthoOrbital Pt 12   px \
	OrthoOrbital Pt 12   py \
	OrthoOrbital Pt 12   pz \
	OrthoOrbital Pt 12   d \
	OrthoOrbital Pt 12   dxy \
	OrthoOrbital Pt 12   dyz \
	OrthoOrbital Pt 12   dz2 \
	OrthoOrbital Pt 12   dxz \
	OrthoOrbital Pt 12   dx2-y2 \
	OrthoOrbital Pt 13   s \
	OrthoOrbital Pt 13   p \
	OrthoOrbital Pt 13   px \
	OrthoOrbital Pt 13   py \
	OrthoOrbital Pt 13   pz \
	OrthoOrbital Pt 13   d \
	OrthoOrbital Pt 13   dxy \
	OrthoOrbital Pt 13   dyz \
	OrthoOrbital Pt 13   dz2 \
	OrthoOrbital Pt 13   dxz \
	OrthoOrbital Pt 13   dx2-y2 \
	OrthoOrbital Pt 14   s \
	OrthoOrbital Pt 14   p \
	OrthoOrbital Pt 14   px \
	OrthoOrbital Pt 14   py \
	OrthoOrbital Pt 14   pz \
	OrthoOrbital Pt 14   d \
	OrthoOrbital Pt 14   dxy \
	OrthoOrbital Pt 14   dyz \
	OrthoOrbital Pt 14   dz2 \
	OrthoOrbital Pt 14   dxz \
	OrthoOrbital Pt 14   dx2-y2 \
	OrthoOrbital Pt 15   s \
	OrthoOrbital Pt 15   p \
	OrthoOrbital Pt 15   px \
	OrthoOrbital Pt 15   py \
	OrthoOrbital Pt 15   pz \
	OrthoOrbital Pt 15   d \
	OrthoOrbital Pt 15   dxy \
	OrthoOrbital Pt 15   dyz \
	OrthoOrbital Pt 15   dz2 \
	OrthoOrbital Pt 15   dxz \
	OrthoOrbital Pt 15   dx2-y2 \
	OrthoOrbital Pt 16   s \
	OrthoOrbital Pt 16   p \
	OrthoOrbital Pt 16   px \
	OrthoOrbital Pt 16   py \
	OrthoOrbital Pt 16   pz \
	OrthoOrbital Pt 16   d \
	OrthoOrbital Pt 16   dxy \
	OrthoOrbital Pt 16   dyz \
	OrthoOrbital Pt 16   dz2 \
	OrthoOrbital Pt 16   dxz \
	OrthoOrbital Pt 16   dx2-y2 \
	OrthoOrbital Pt 17   s \
	OrthoOrbital Pt 17   p \
	OrthoOrbital Pt 17   px \
	OrthoOrbital Pt 17   py \
	OrthoOrbital Pt 17   pz \
	OrthoOrbital Pt 17   d \
	OrthoOrbital Pt 17   dxy \
	OrthoOrbital Pt 17   dyz \
	OrthoOrbital Pt 17   dz2 \
	OrthoOrbital Pt 17   dxz \
	OrthoOrbital Pt 17   dx2-y2 \
	OrthoOrbital Pt 18   s \
	OrthoOrbital Pt 18   p \
	OrthoOrbital Pt 18   px \
	OrthoOrbital Pt 18   py \
	OrthoOrbital Pt 18   pz \
	OrthoOrbital Pt 18   d \
	OrthoOrbital Pt 18   dxy \
	OrthoOrbital Pt 18   dyz \
	OrthoOrbital Pt 18   dz2 \
	OrthoOrbital Pt 18   dxz \
	OrthoOrbital Pt 18   dx2-y2 \
	OrthoOrbital Pt 19   s \
	OrthoOrbital Pt 19   p \
	OrthoOrbital Pt 19   px \
	OrthoOrbital Pt 19   py \
	OrthoOrbital Pt 19   pz \
	OrthoOrbital Pt 19   d \
	OrthoOrbital Pt 19   dxy \
	OrthoOrbital Pt 19   dyz \
	OrthoOrbital Pt 19   dz2 \
	OrthoOrbital Pt 19   dxz \
	OrthoOrbital Pt 19   dx2-y2 \
	OrthoOrbital Pt 20   s \
	OrthoOrbital Pt 20   p \
	OrthoOrbital Pt 20   px \
	OrthoOrbital Pt 20   py \
	OrthoOrbital Pt 20   pz \
	OrthoOrbital Pt 20   d \
	OrthoOrbital Pt 20   dxy \
	OrthoOrbital Pt 20   dyz \
	OrthoOrbital Pt 20   dz2 \
	OrthoOrbital Pt 20   dxz \
	OrthoOrbital Pt 20   dx2-y2 \
	OrthoOrbital Pt 21   s \
	OrthoOrbital Pt 21   p \
	OrthoOrbital Pt 21   px \
	OrthoOrbital Pt 21   py \
	OrthoOrbital Pt 21   pz \
	OrthoOrbital Pt 21   d \
	OrthoOrbital Pt 21   dxy \
	OrthoOrbital Pt 21   dyz \
	OrthoOrbital Pt 21   dz2 \
	OrthoOrbital Pt 21   dxz \
	OrthoOrbital Pt 21   dx2-y2 \
	OrthoOrbital Pt 22   s \
	OrthoOrbital Pt 22   p \
	OrthoOrbital Pt 22   px \
	OrthoOrbital Pt 22   py \
	OrthoOrbital Pt 22   pz \
	OrthoOrbital Pt 22   d \
	OrthoOrbital Pt 22   dxy \
	OrthoOrbital Pt 22   dyz \
	OrthoOrbital Pt 22   dz2 \
	OrthoOrbital Pt 22   dxz \
	OrthoOrbital Pt 22   dx2-y2 \
	OrthoOrbital Pt 23   s \
	OrthoOrbital Pt 23   p \
	OrthoOrbital Pt 23   px \
	OrthoOrbital Pt 23   py \
	OrthoOrbital Pt 23   pz \
	OrthoOrbital Pt 23   d \
	OrthoOrbital Pt 23   dxy \
	OrthoOrbital Pt 23   dyz \
	OrthoOrbital Pt 23   dz2 \
	OrthoOrbital Pt 23   dxz \
	OrthoOrbital Pt 23   dx2-y2 \
	OrthoOrbital Pt 24   s \
	OrthoOrbital Pt 24   p \
	OrthoOrbital Pt 24   px \
	OrthoOrbital Pt 24   py \
	OrthoOrbital Pt 24   pz \
	OrthoOrbital Pt 24   d \
	OrthoOrbital Pt 24   dxy \
	OrthoOrbital Pt 24   dyz \
	OrthoOrbital Pt 24   dz2 \
	OrthoOrbital Pt 24   dxz \
	OrthoOrbital Pt 24   dx2-y2 \
	OrthoOrbital Pt 25   s \
	OrthoOrbital Pt 25   p \
	OrthoOrbital Pt 25   px \
	OrthoOrbital Pt 25   py \
	OrthoOrbital Pt 25   pz \
	OrthoOrbital Pt 25   d \
	OrthoOrbital Pt 25   dxy \
	OrthoOrbital Pt 25   dyz \
	OrthoOrbital Pt 25   dz2 \
	OrthoOrbital Pt 25   dxz \
	OrthoOrbital Pt 25   dx2-y2 \
	OrthoOrbital Pt 26   s \
	OrthoOrbital Pt 26   p \
	OrthoOrbital Pt 26   px \
	OrthoOrbital Pt 26   py \
	OrthoOrbital Pt 26   pz \
	OrthoOrbital Pt 26   d \
	OrthoOrbital Pt 26   dxy \
	OrthoOrbital Pt 26   dyz \
	OrthoOrbital Pt 26   dz2 \
	OrthoOrbital Pt 26   dxz \
	OrthoOrbital Pt 26   dx2-y2 \
	OrthoOrbital Pt 27   s \
	OrthoOrbital Pt 27   p \
	OrthoOrbital Pt 27   px \
	OrthoOrbital Pt 27   py \
	OrthoOrbital Pt 27   pz \
	OrthoOrbital Pt 27   d \
	OrthoOrbital Pt 27   dxy \
	OrthoOrbital Pt 27   dyz \
	OrthoOrbital Pt 27   dz2 \
	OrthoOrbital Pt 27   dxz \
	OrthoOrbital Pt 27   dx2-y2 \
	OrthoOrbital Pt 28   s \
	OrthoOrbital Pt 28   p \
	OrthoOrbital Pt 28   px \
	OrthoOrbital Pt 28   py \
	OrthoOrbital Pt 28   pz \
	OrthoOrbital Pt 28   d \
	OrthoOrbital Pt 28   dxy \
	OrthoOrbital Pt 28   dyz \
	OrthoOrbital Pt 28   dz2 \
	OrthoOrbital Pt 28   dxz \
	OrthoOrbital Pt 28   dx2-y2 \
	OrthoOrbital Pt 29   s \
	OrthoOrbital Pt 29   p \
	OrthoOrbital Pt 29   px \
	OrthoOrbital Pt 29   py \
	OrthoOrbital Pt 29   pz \
	OrthoOrbital Pt 29   d \
	OrthoOrbital Pt 29   dxy \
	OrthoOrbital Pt 29   dyz \
	OrthoOrbital Pt 29   dz2 \
	OrthoOrbital Pt 29   dxz \
	OrthoOrbital Pt 29   dx2-y2 \
	OrthoOrbital Pt 30   s \
	OrthoOrbital Pt 30   p \
	OrthoOrbital Pt 30   px \
	OrthoOrbital Pt 30   py \
	OrthoOrbital Pt 30   pz \
	OrthoOrbital Pt 30   d \
	OrthoOrbital Pt 30   dxy \
	OrthoOrbital Pt 30   dyz \
	OrthoOrbital Pt 30   dz2 \
	OrthoOrbital Pt 30   dxz \
	OrthoOrbital Pt 30   dx2-y2 \
	OrthoOrbital Pt 31   s \
	OrthoOrbital Pt 31   p \
	OrthoOrbital Pt 31   px \
	OrthoOrbital Pt 31   py \
	OrthoOrbital Pt 31   pz \
	OrthoOrbital Pt 31   d \
	OrthoOrbital Pt 31   dxy \
	OrthoOrbital Pt 31   dyz \
	OrthoOrbital Pt 31   dz2 \
	OrthoOrbital Pt 31   dxz \
	OrthoOrbital Pt 31   dx2-y2 \
	OrthoOrbital Pt 32   s \
	OrthoOrbital Pt 32   p \
	OrthoOrbital Pt 32   px \
	OrthoOrbital Pt 32   py \
	OrthoOrbital Pt 32   pz \
	OrthoOrbital Pt 32   d \
	OrthoOrbital Pt 32   dxy \
	OrthoOrbital Pt 32   dyz \
	OrthoOrbital Pt 32   dz2 \
	OrthoOrbital Pt 32   dxz \
	OrthoOrbital Pt 32   dx2-y2 \
	OrthoOrbital Pt 33   s \
	OrthoOrbital Pt 33   p \
	OrthoOrbital Pt 33   px \
	OrthoOrbital Pt 33   py \
	OrthoOrbital Pt 33   pz \
	OrthoOrbital Pt 33   d \
	OrthoOrbital Pt 33   dxy \
	OrthoOrbital Pt 33   dyz \
	OrthoOrbital Pt 33   dz2 \
	OrthoOrbital Pt 33   dxz \
	OrthoOrbital Pt 33   dx2-y2 \
	OrthoOrbital Pt 34   s \
	OrthoOrbital Pt 34   p \
	OrthoOrbital Pt 34   px \
	OrthoOrbital Pt 34   py \
	OrthoOrbital Pt 34   pz \
	OrthoOrbital Pt 34   d \
	OrthoOrbital Pt 34   dxy \
	OrthoOrbital Pt 34   dyz \
	OrthoOrbital Pt 34   dz2 \
	OrthoOrbital Pt 34   dxz \
	OrthoOrbital Pt 34   dx2-y2
dump End ElecDensity KEdensity BandEigs EigStats RhoAtom DOS Kpoints
dump Ionic State IonicPositions Lattice EigStats Ecomponents
dump 
dump 
dump 
dump 
dump 
dump 
dump 
dump 
dump-name jdft.$VAR
elec-cutoff 20
elec-eigen-algo Davidson
elec-ex-corr gga-PBE
elec-initial-magnetization 0.000000 no
elec-n-bands 327
elec-smearing Fermi 0.001
electronic-minimize  \
	dirUpdateScheme      FletcherReeves \
	linminMethod         DirUpdateRecommended \
	nIterations          100 \
	history              15 \
	knormThreshold       0 \
	energyDiffThreshold  1e-07 \
	nEnergyDiff          2 \
	alphaTstart          1 \
	alphaTmin            1e-10 \
	updateTestStepSize   yes \
	alphaTreduceFactor   0.1 \
	alphaTincreaseFactor 3 \
	nAlphaAdjustMax      3 \
	wolfeEnergy          0.0001 \
	wolfeGradient        0.9 \
	fdTest               no
exchange-regularization WignerSeitzTruncated
fluid LinearPCM 298.000000 1.013250
fluid-anion F- 0.5 MeanFieldLJ \
	epsBulk 1 \
	pMol 0 \
	epsInf 1 \
	Pvap 0 \
	sigmaBulk 0 \
	Rvdw 2.24877 \
	Res 0 \
	tauNuc 343133
fluid-cation Na+ 0.5 MeanFieldLJ \
	epsBulk 1 \
	pMol 0 \
	epsInf 1 \
	Pvap 0 \
	sigmaBulk 0 \
	Rvdw 2.19208 \
	Res 0 \
	tauNuc 343133
fluid-ex-corr lda-TF lda-PZ
fluid-gummel-loop 10 1.000000e-05
fluid-minimize  \
	dirUpdateScheme      PolakRibiere \
	linminMethod         DirUpdateRecommended \
	nIterations          400 \
	history              15 \
	knormThreshold       1e-11 \
	energyDiffThreshold  0 \
	nEnergyDiff          2 \
	alphaTstart          1 \
	alphaTmin            1e-10 \
	updateTestStepSize   yes \
	alphaTreduceFactor   0.1 \
	alphaTincreaseFactor 3 \
	nAlphaAdjustMax      6 \
	wolfeEnergy          0.0001 \
	wolfeGradient        0.9 \
	fdTest               no
fluid-solvent H2O 55.338 ScalarEOS \
	epsBulk 78.4 \
	pMol 0.92466 \
	epsInf 1.77 \
	Pvap 1.06736e-10 \
	sigmaBulk 4.62e-05 \
	Rvdw 2.61727 \
	Res 1.42 \
	tauNuc 343133 \
	poleEl 15 7 1
forces-output-coords Positions
initial-state jdft.$VAR
ion Pt  -0.000382549440643  12.532249740843870   1.315909365934623 1
ion Pt   5.231769615851126  16.615911568744718   5.114773506313819 1
ion Pt   5.232265130341089  21.827893937250938  29.768721894834218 1
ion Pt   5.231583768614657   3.852893100955293   2.936226609124926 1
ion Pt   5.231601025131043   7.602396526358987   6.761656109796784 1
ion Pt   5.231832259862951  11.420990275311247  10.376541867277204 1
ion Pt   0.000089571376876  19.004018689188275  17.483048505964554 1
ion Pt   5.231681950803060  20.415650686025561   8.486898698496006 1
ion Pt   5.231838721770075   2.532254911010294  12.076535452103052 1
ion Pt   5.232085252572466   6.335172232941251  15.681665695189144 1
ion Pt   0.000178956941948  10.177432915666087  19.274426378000221 1
ion Pt   0.000427222375673  13.965080291240008  22.989959566489251 1
ion Pt   5.231883163724146  15.239953363982337  13.932494801501228 1
ion Pt   5.232253678324364   1.204595596600416  21.000848997822118 1
ion Pt   0.000306951436986   5.065473457707949  24.585119370391972 1
ion Pt   0.000309542609707   8.923414791789284  28.368001617938408 1
ion Pt   5.232323567905929  17.657756321722196  26.880688786775078 1
ion Pt   2.615707811317143  12.064323542047253   5.922197743748971 1
ion Pt   2.615768131035217  15.926155670609001   9.506299774854222 1
ion Pt   2.615644289109569  21.045834722436048   3.627455023914756 1
ion Pt   2.615586275646288   3.165323455746318   7.517935797246516 1
ion Pt   2.615857300006313   6.953705584438466  11.232894465310130 1
ion Pt   2.615964632253640  10.795795677414633  14.825879517287360 1
ion Pt   2.616336188754783  18.286307828135168  22.020544645150050 1
ion Pt   2.615859835686098  19.698595827134454  13.024522429351492 1
ion Pt   2.616105080225338   1.891294754590146  16.575135817351995 1
ion Pt   2.616232932052992   5.710932017442320  20.131006500379861 1
ion Pt   2.616393976856508   9.528901753255461  23.745873603132100 1
ion Pt   2.616364039169569  13.277384334838791  27.570745472056778 1
ion Pt   2.616186687566417  14.598996007977391  18.431002826385672 1
ion Pt   2.616237939996420   0.513616015632162  25.392781908598135 1
ion Pt   2.616348038248145   4.598454277725438  29.191696298873950 1
ion Pt   2.615598059314061   8.206132533414870   2.139157233866472 1
ion Pt   2.615682952560035  16.876305589823527   0.739052718538949 1
ion-species /projects/musgravc/apps/jdftx-1.6.0/build/pseudopotentials/GBRV_v1.5/$ID_pbe_v1.uspp
ion-species /projects/musgravc/apps/jdftx-1.6.0/build/pseudopotentials/GBRV_v1.5/$ID_pbe_v1.2.uspp
ion-species /projects/musgravc/apps/jdftx-1.6.0/build/pseudopotentials/GBRV_v1.5/$ID_pbe_v1.4.uspp
ion-species /projects/musgravc/apps/jdftx-1.6.0/build/pseudopotentials/GBRV_v1.5/$ID_pbe_v1.5.uspp
ion-width Ecut
ionic-minimize  \
	dirUpdateScheme      L-BFGS \
	linminMethod         DirUpdateRecommended \
	nIterations          100 \
	history              15 \
	knormThreshold       0.0001 \
	energyDiffThreshold  1e-06 \
	nEnergyDiff          2 \
	alphaTstart          1 \
	alphaTmin            1e-10 \
	updateTestStepSize   yes \
	alphaTreduceFactor   0.1 \
	alphaTincreaseFactor 3 \
	nAlphaAdjustMax      3 \
	wolfeEnergy          0.0001 \
	wolfeGradient        0.9 \
	fdTest               no
kpoint   0.000000000000   0.000000000000   0.000000000000  1.00000000000000
kpoint-folding 11 2 1 
latt-move-scale 0 0 0
latt-scale 1 1 1 
lattice  \
	   5.231996000000000   -0.000000000000000    0.000000000000000  \
	   0.000000000000000   21.572068000000002    0.000000000000000  \
	   0.000000000000000    0.000000000000000   61.015023999999997 
lattice-minimize  \
	dirUpdateScheme      L-BFGS \
	linminMethod         DirUpdateRecommended \
	nIterations          0 \
	history              15 \
	knormThreshold       0 \
	energyDiffThreshold  1e-06 \
	nEnergyDiff          2 \
	alphaTstart          1 \
	alphaTmin            1e-10 \
	updateTestStepSize   yes \
	alphaTreduceFactor   0.1 \
	alphaTincreaseFactor 3 \
	nAlphaAdjustMax      3 \
	wolfeEnergy          0.0001 \
	wolfeGradient        0.9 \
	fdTest               no
lcao-params 30 1e-06 0.001
pcm-variant CANDLE
spintype z-spin
subspace-rotation-factor 1 yes
symmetries none
symmetry-threshold 0.0001
target-mu -0.0978 no

van-der-waals D3


Applied RMS atom displacement 0 bohrs to make symmetries exact.

---------- Initializing the Grid ----------
R = 
[        5.232            0            0  ]
[            0      21.5721            0  ]
[            0            0       61.015  ]
unit cell volume = 6886.46
G =
[    1.20092          0         -0  ]
[          0   0.291265          0  ]
[          0         -0   0.102978  ]
Minimum fftbox size, Smin = [  24  88  248  ]
Chosen fftbox size, S = [  24  90  250  ]

---------- Exchange Correlation functional ----------
Initalized PBE GGA exchange.
Initalized PBE GGA correlation.

---------- Setting up pseudopotentials ----------
Width of ionic core gaussian charges (only for fluid interactions / plotting) set to 0.397384

Reading pseudopotential file '/projects/musgravc/apps/jdftx-1.6.0/build/pseudopotentials/GBRV_v1.5/pt_pbe_v1.4.uspp':
  Title: Pt.  Created by USPP 7.3.6 on 31-3-15
  Reference state energy: -105.002503.  16 valence electrons in orbitals:
    |510>  occupation: 6  eigenvalue: -2.158104
    |520>  occupation: 9.5  eigenvalue: -0.335376
    |600>  occupation: 0  eigenvalue: -0.319640
    |610>  occupation: 0  eigenvalue: -0.122947
  lMax: 2  lLocal: 3  QijEcut: 5.5
  6 projectors sampled on a log grid with 745 points:
    l: 0  eig: -0.319640  rCut: 2.45
    l: 0  eig: 1.500000  rCut: 2.45
    l: 1  eig: -2.158104  rCut: 1.6
    l: 1  eig: -0.122947  rCut: 1.6
    l: 2  eig: -0.500000  rCut: 1.6
    l: 2  eig: -0.335375  rCut: 1.6
  Partial core density with radius 1.1
  Transforming core density to a uniform radial grid of dG=0.02 with 1173 points.
  Transforming local potential to a uniform radial grid of dG=0.02 with 1173 points.
  Transforming nonlocal projectors to a uniform radial grid of dG=0.02 with 432 points.
  Transforming density augmentations to a uniform radial grid of dG=0.02 with 1173 points.
  Transforming atomic orbitals to a uniform radial grid of dG=0.02 with 432 points.
  Core radius for overlap checks: 2.45 bohrs.

Initialized 1 species with 34 total atoms.

Folded 1 k-points by 11x2x1 to 22 k-points.

---------- Setting up k-points, bands, fillings ----------
No reducable k-points. 
Computing the number of bands and number of electrons
Reading initial fillings from file jdft.fillings.
nElectrons: 546.484815   nBands: 327   nStates: 44

----- Setting up reduced wavefunction bases (one per k-point) -----
average nbasis = 29423.773 , ideal nbasis = 29419.478

----- Initializing Supercell corresponding to k-point mesh -----
Lattice vector linear combinations in supercell:
[  11   0   0  ]
[   0   2   0  ]
[   0   0   1  ]
Supercell lattice vectors:
[  57.552  0  0  ]
[  0  43.1441  0  ]
[  0  0  61.015  ]

Initializing DFT-D3 calculator:
	Parameters set for gga-PBE functional
	s6:  1.000  s_r6:  1.217
	s8:  0.722  s_r8:  1.000
	Per-atom parameters loaded for:
	Pt:  sqrtQ[a0]:  5.888  Rcov[a0]:  2.116  CN: [ 0.00 1.92 6.67 ]

Initializing DFT-D2 calculator for fluid / solvation:
	Pt:  C6:  815.23 Eh-a0^6  R0: 3.326 a0 (WARNING: beyond Grimme's data set)

---------- Setting up ewald sum ----------
Optimum gaussian width for ewald sums = 4.216922 bohr.
Real space sum over 665 unit cells with max indices [  9  3  2  ]
Reciprocal space sum over 6251 terms with max indices [  3  9  23  ]

Computing DFT-D3 correction:
# coordination-number Pt 7.025 9.327 5.936 7.129 9.350 9.545 9.596 9.209 9.573 9.605 9.562 9.360 9.620 9.565 9.249 7.088 7.452 9.251 9.567 7.453 9.359 9.561 9.605 9.209 9.596 9.619 9.545 9.350 7.129 9.574 9.327 7.026 7.087 5.935
# diagonal-C6 Pt 336.87 336.87 336.87 336.87 336.87 336.87 336.87 336.87 336.87 336.87 336.87 336.87 336.87 336.87 336.87 336.87 336.87 336.87 336.87 336.87 336.87 336.87 336.87 336.87 336.87 336.87 336.87 336.87 336.87 336.87 336.87 336.87 336.87 336.87
EvdW_6 =   -0.315994
EvdW_8 =   -0.498622

---------- Allocating electronic variables ----------
Initializing wave functions:  reading from 'jdft.wfns'
----- createFluidSolver() ----- (Fluid-side solver setup)
   Initializing fluid molecule 'H2O'
     Initializing site 'O'
       Electron density: proportional to exp(-r/0.36935)*erfc((r-0.51523)/0.36823) with norm 6.826
       Charge density: gaussian nuclear width 0.478731 with net site charge 0.826
       Polarizability: cuspless exponential with width 0.32 and norm 3.73
       Hard sphere radius: 2.57003 bohrs
       Positions in reference frame:
         [ +0.000000 +0.000000 +0.000000 ]
     Initializing site 'H'
       Electron density: proportional to exp(-r/0.34641)*erfc((r-0)/0.390882) with norm 0.587
       Charge density: gaussian nuclear width 0.377945 with net site charge -0.413
       Polarizability: cuspless exponential with width 0.39 and norm 3.3
       Positions in reference frame:
         [ +0.000000 -1.441945 +1.122523 ]
         [ +0.000000 +1.441945 +1.122523 ]
     Net charge: 0   dipole magnitude: 0.927204
     Initializing spherical shell mfKernel with radius 2.61727 Bohr
     deltaS corrections:
       site 'O': -7.54299
       site 'H': -6.83917
   Initializing fluid molecule 'Na+'
     Initializing site 'Na'
       Electron density: proportional to exp(-r/0.19682)*erfc((r-0.71491)/0.41314) with norm 8.1383
       Charge density: gaussian nuclear width 0.365347 with net site charge -1
       Hard sphere radius: 1.86327 bohrs
       Positions in reference frame:
         [ +0.000000 +0.000000 +0.000000 ]
     Net charge: -1   dipole magnitude: 0
     Initializing gaussian mfKernel with width: 1.55004 Bohr
     deltaS corrections:
       site 'Na': -22.3555
   Initializing fluid molecule 'F-'
     Initializing site 'F'
       Electron density: proportional to exp(-r/0.38886)*erfc((r-0)/0.438782) with norm 8
       Charge density: gaussian nuclear width 0.374796 with net site charge 1
       Hard sphere radius: 2.39995 bohrs
       Positions in reference frame:
         [ +0.000000 +0.000000 +0.000000 ]
     Net charge: 1   dipole magnitude: 0
     Initializing gaussian mfKernel with width: 1.59012 Bohr
     deltaS corrections:
       site 'F': -9.04335

Correction to mu due to finite nuclear width = -0.0783795
   Cavity determined by nc: 0.00142 and sigma: 0.707107
   Nonlocal vdW cavity from gaussian model electron density with norm = 8 and sigma = 0.993594 bohr
   Charge asymmetry in cavity with sensitivity pCavity = 36.5 e-bohr/Eh
   Electrostatic cavity expanded by eta = 1.46 bohrs
   Weighted density cavitation model constrained by Nbulk: 0.0049383 bohr^-3, Pvap: 3.14029 kPa, Rvdw: 2.61727 bohr and sigmaBulk: 4.62e-05 Eh/bohr^2 at T: 298 K.
   Weighted density dispersion model using vdW pair potentials with single solvent site with sqrtC6eff: 0.77 SI.
Reading fluid state from 'jdft.fluidState'


---- Citations for features of the code used in this run ----

   Software package:
      R. Sundararaman, K. Letchworth-Weaver, K.A. Schwarz, D. Gunceler, Y. Ozhabes and T.A. Arias, 'JDFTx: software for joint density-functional theory', SoftwareX 6, 278 (2017)

   gga-PBE exchange-correlation functional:
      J.P. Perdew, K. Burke and M. Ernzerhof, Phys. Rev. Lett. 77, 3865 (1996)

   Pseudopotentials:
      KF Garrity, JW Bennett, KM Rabe and D Vanderbilt, Comput. Mater. Sci. 81, 446 (2014)

   DFT-D3 dispersion correction:
      S. Grimme, J. Antony, S. Ehrlich and H. Krieg, J. Chem. Phys. 132, 154104 (2010)

   DFT-D2 dispersion correction:
      S. Grimme, J. Comput. Chem. 27, 1787 (2006)

   Charge-asymmetric nonlocally-determined local-electric (CANDLE) solvation model:
      R. Sundararaman and W.A. Goddard III, J. Chem. Phys. 142, 064107 (2015)

   Total energy minimization with Auxiliary Hamiltonian:
      C. Freysoldt, S. Boeck, and J. Neugebauer, Phys. Rev. B 79, 241103(R) (2009)

   Grand-canonical (fixed-potential) DFT:
      R. Sundararaman, W. A. Goddard III and T. A. Arias, J. Chem. Phys. 146, 114104 (2017)

   Linear-tetrahedron sampling for density of states:
      G. Lehmann and M. Taut, Phys. status solidi (b) 54, 469 (1972)

This list may not be complete. Please suggest additional citations or
report any other bugs at https://github.com/shankar1729/jdftx/issues

Initialization completed successfully at t[s]:     24.82


Computing DFT-D3 correction:
# coordination-number Pt 7.025 9.327 5.936 7.129 9.350 9.545 9.596 9.209 9.573 9.605 9.562 9.360 9.620 9.565 9.249 7.088 7.452 9.251 9.567 7.453 9.359 9.561 9.605 9.209 9.596 9.619 9.545 9.350 7.129 9.574 9.327 7.026 7.087 5.935
# diagonal-C6 Pt 336.87 336.87 336.87 336.87 336.87 336.87 336.87 336.87 336.87 336.87 336.87 336.87 336.87 336.87 336.87 336.87 336.87 336.87 336.87 336.87 336.87 336.87 336.87 336.87 336.87 336.87 336.87 336.87 336.87 336.87 336.87 336.87 336.87 336.87
EvdW_6 =   -0.315994
EvdW_8 =   -0.498622
Shifting auxilliary hamiltonian by 0.000019 to set nElectrons=546.484815

-------- Electronic minimization -----------
	Linear fluid (dielectric constant: 78.4, screening length: 8.12261 Bohr) occupying 0.404288 of unit cell:	Completed after 19 iterations at t[s]:     39.86
	FillingsUpdate:  mu: -0.097800000  nElectrons: 546.484815  magneticMoment: [ Abs: 0.00000  Tot: -0.00000 ]
ElecMinimize: Iter:   0  G: -2971.987576551105576  |grad|_K:  1.178e-05  alpha:  1.000e+00
	Linear fluid (dielectric constant: 78.4, screening length: 8.12261 Bohr) occupying 0.339069 of unit cell:	Completed after 26 iterations at t[s]:    132.21
	Linear fluid (dielectric constant: 78.4, screening length: 8.12261 Bohr) occupying 0.404047 of unit cell:	Completed after 47 iterations at t[s]:    166.72
	FillingsUpdate:  mu: -0.097800000  nElectrons: 546.468920  magneticMoment: [ Abs: 0.00000  Tot: -0.00000 ]
	SubspaceRotationAdjust: set factor to 0.512
ElecMinimize: Iter:   1  G: -2971.987662989396540  |grad|_K:  3.376e-06  alpha:  1.310e-03  linmin: -4.266e-02  t[s]:    209.37
	Linear fluid (dielectric constant: 78.4, screening length: 8.12261 Bohr) occupying 0.404038 of unit cell:	Completed after 14 iterations at t[s]:    249.13
ElecMinimize: 	Predicted alpha/alphaT>3.000000, increasing alphaT to 3.931090e-03.
	Linear fluid (dielectric constant: 78.4, screening length: 8.12261 Bohr) occupying 0.404018 of unit cell:	Completed after 15 iterations at t[s]:    278.73
	Linear fluid (dielectric constant: 78.4, screening length: 8.12261 Bohr) occupying 0.403999 of unit cell:	Completed after 15 iterations at t[s]:    308.39
	FillingsUpdate:  mu: -0.097800000  nElectrons: 546.465900  magneticMoment: [ Abs: 0.00000  Tot: -0.00000 ]
	SubspaceRotationAdjust: set factor to 0.258
ElecMinimize: Iter:   2  G: -2971.987698129756609  |grad|_K:  4.360e-06  alpha:  6.491e-03  linmin:  7.269e-06  t[s]:    351.14
	Linear fluid (dielectric constant: 78.4, screening length: 8.12261 Bohr) occupying 0.404283 of unit cell:	Completed after 20 iterations at t[s]:    391.91
	Linear fluid (dielectric constant: 78.4, screening length: 8.12261 Bohr) occupying 0.404242 of unit cell:	Completed after 13 iterations at t[s]:    421.41
	FillingsUpdate:  mu: -0.097800000  nElectrons: 546.482205  magneticMoment: [ Abs: 0.00000  Tot: -0.00000 ]
	SubspaceRotationAdjust: set factor to 0.132
	SubspaceRotationAdjust: resetting CG because factor has changed by 0.132047
	Linear fluid (dielectric constant: 78.4, screening length: 8.12261 Bohr) occupying 0.404242 of unit cell:	Completed after 0 iterations at t[s]:    475.29
ElecMinimize: 	State modified externally: resetting search direction.
ElecMinimize: Iter:   3  G: -2971.987742984390934  |grad|_K:  8.984e-07  alpha:  5.546e-03
	Linear fluid (dielectric constant: 78.4, screening length: 8.12261 Bohr) occupying 0.404270 of unit cell:	Completed after 14 iterations at t[s]:    557.05
	Linear fluid (dielectric constant: 78.4, screening length: 8.12261 Bohr) occupying 0.404300 of unit cell:	Completed after 15 iterations at t[s]:    586.86
	FillingsUpdate:  mu: -0.097800000  nElectrons: 546.486097  magneticMoment: [ Abs: 0.00000  Tot: -0.00000 ]
	SubspaceRotationAdjust: set factor to 0.0487
ElecMinimize: Iter:   4  G: -2971.987746850802068  |grad|_K:  2.861e-07  alpha:  1.134e-02  linmin:  3.266e-03  t[s]:    629.21
	Linear fluid (dielectric constant: 78.4, screening length: 8.12261 Bohr) occupying 0.404296 of unit cell:	Completed after 2 iterations at t[s]:    667.30
ElecMinimize: 	Predicted alpha/alphaT>3.000000, increasing alphaT to 3.401000e-02.
	Linear fluid (dielectric constant: 78.4, screening length: 8.12261 Bohr) occupying 0.404288 of unit cell:	Completed after 9 iterations at t[s]:    696.16
ElecMinimize: 	Predicted alpha/alphaT>3.000000, increasing alphaT to 1.020300e-01.
	Linear fluid (dielectric constant: 78.4, screening length: 8.12261 Bohr) occupying 0.404265 of unit cell:	Completed after 13 iterations at t[s]:    725.64
	Linear fluid (dielectric constant: 78.4, screening length: 8.12261 Bohr) occupying 0.404249 of unit cell:	Completed after 11 iterations at t[s]:    755.19
	FillingsUpdate:  mu: -0.097800000  nElectrons: 546.482627  magneticMoment: [ Abs: 0.00000  Tot: -0.00000 ]
	SubspaceRotationAdjust: set factor to 0.0255
ElecMinimize: Iter:   5  G: -2971.987751971184935  |grad|_K:  1.117e-07  alpha:  1.485e-01  linmin: -1.371e-04  t[s]:    797.49
	Linear fluid (dielectric constant: 78.4, screening length: 8.12261 Bohr) occupying 0.404286 of unit cell:	Completed after 15 iterations at t[s]:    837.44
	Linear fluid (dielectric constant: 78.4, screening length: 8.12261 Bohr) occupying 0.404268 of unit cell:	Completed after 13 iterations at t[s]:    866.85
	FillingsUpdate:  mu: -0.097800000  nElectrons: 546.483919  magneticMoment: [ Abs: 0.00000  Tot: -0.00000 ]
	SubspaceRotationAdjust: set factor to 0.0188
ElecMinimize: Iter:   6  G: -2971.987752387424734  |grad|_K:  1.027e-07  alpha:  7.718e-02  linmin:  1.222e-04  t[s]:    909.10
	Linear fluid (dielectric constant: 78.4, screening length: 8.12261 Bohr) occupying 0.404270 of unit cell:	Completed after 5 iterations at t[s]:    948.04
	Linear fluid (dielectric constant: 78.4, screening length: 8.12261 Bohr) occupying 0.404274 of unit cell:	Completed after 7 iterations at t[s]:    976.66
	FillingsUpdate:  mu: -0.097800000  nElectrons: 546.484262  magneticMoment: [ Abs: 0.00000  Tot: -0.00000 ]
	SubspaceRotationAdjust: set factor to 0.0227
ElecMinimize: Iter:   7  G: -2971.987753334860827  |grad|_K:  5.070e-08  alpha:  2.152e-01  linmin:  2.703e-03  t[s]:   1019.17
	Linear fluid (dielectric constant: 78.4, screening length: 8.12261 Bohr) occupying 0.404259 of unit cell:	Completed after 13 iterations at t[s]:   1058.76
	Linear fluid (dielectric constant: 78.4, screening length: 8.12261 Bohr) occupying 0.404266 of unit cell:	Completed after 10 iterations at t[s]:   1087.83
	FillingsUpdate:  mu: -0.097800000  nElectrons: 546.483757  magneticMoment: [ Abs: 0.00000  Tot: -0.00000 ]
	SubspaceRotationAdjust: set factor to 0.016
	SubspaceRotationAdjust: resetting CG because factor has changed by 0.121485
	Linear fluid (dielectric constant: 78.4, screening length: 8.12261 Bohr) occupying 0.404266 of unit cell:	Completed after 0 iterations at t[s]:   1141.83
ElecMinimize: 	State modified externally: resetting search direction.
ElecMinimize: Iter:   8  G: -2971.987753447801424  |grad|_K:  4.220e-08  alpha:  1.091e-01
	Linear fluid (dielectric constant: 78.4, screening length: 8.12261 Bohr) occupying 0.404272 of unit cell:	Completed after 10 iterations at t[s]:   1223.34
	Linear fluid (dielectric constant: 78.4, screening length: 8.12261 Bohr) occupying 0.404274 of unit cell:	Completed after 2 iterations at t[s]:   1251.31
	FillingsUpdate:  mu: -0.097800000  nElectrons: 546.484255  magneticMoment: [ Abs: 0.00000  Tot: -0.00000 ]
	SubspaceRotationAdjust: set factor to 0.0154
ElecMinimize: Iter:   9  G: -2971.987753553277798  |grad|_K:  2.813e-08  alpha:  1.383e-01  linmin: -1.995e-02  t[s]:   1293.75
	Linear fluid (dielectric constant: 78.4, screening length: 8.12261 Bohr) occupying 0.404271 of unit cell:	Completed after 2 iterations at t[s]:   1331.58
	Linear fluid (dielectric constant: 78.4, screening length: 8.12261 Bohr) occupying 0.404269 of unit cell:	Completed after 2 iterations at t[s]:   1359.44
	FillingsUpdate:  mu: -0.097800000  nElectrons: 546.483938  magneticMoment: [ Abs: 0.00000  Tot: -0.00000 ]
	SubspaceRotationAdjust: set factor to 0.0174
ElecMinimize: Iter:  10  G: -2971.987753651413186  |grad|_K:  1.687e-08  alpha:  2.778e-01  linmin:  1.008e-02  t[s]:   1401.63
	Linear fluid (dielectric constant: 78.4, screening length: 8.12261 Bohr) occupying 0.404265 of unit cell:	Completed after 9 iterations at t[s]:   1440.79
	Linear fluid (dielectric constant: 78.4, screening length: 8.12261 Bohr) occupying 0.404266 of unit cell:	Completed after 2 iterations at t[s]:   1468.65
	FillingsUpdate:  mu: -0.097800000  nElectrons: 546.483780  magneticMoment: [ Abs: 0.00000  Tot: -0.00000 ]
	SubspaceRotationAdjust: set factor to 0.0106
ElecMinimize: Iter:  11  G: -2971.987753670062830  |grad|_K:  2.738e-08  alpha:  1.944e-01  linmin: -4.234e-03  t[s]:   1511.09
ElecMinimize: Converged (|Delta G|<1.000000e-07 for 2 iters).
Setting wave functions to eigenvectors of Hamiltonian
Converging empty states (this may take a while): |deigs|: 7.103e-09

Computing DFT-D3 correction:
# coordination-number Pt 7.025 9.327 5.936 7.129 9.350 9.545 9.596 9.209 9.573 9.605 9.562 9.360 9.620 9.565 9.249 7.088 7.452 9.251 9.567 7.453 9.359 9.561 9.605 9.209 9.596 9.619 9.545 9.350 7.129 9.574 9.327 7.026 7.087 5.935
# diagonal-C6 Pt 336.87 336.87 336.87 336.87 336.87 336.87 336.87 336.87 336.87 336.87 336.87 336.87 336.87 336.87 336.87 336.87 336.87 336.87 336.87 336.87 336.87 336.87 336.87 336.87 336.87 336.87 336.87 336.87 336.87 336.87 336.87 336.87 336.87 336.87
EvdW_6 =   -0.315994
EvdW_8 =   -0.498622

# Ionic positions in cartesian coordinates:
ion Pt  -0.000382549440643  12.532249740843870   1.315909365934623 1
ion Pt   5.231769615851126  16.615911568744718   5.114773506313819 1
ion Pt   5.232265130341089  21.827893937250938  29.768721894834218 1
ion Pt   5.231583768614657   3.852893100955293   2.936226609124926 1
ion Pt   5.231601025131043   7.602396526358987   6.761656109796784 1
ion Pt   5.231832259862951  11.420990275311247  10.376541867277204 1
ion Pt   0.000089571376876  19.004018689188275  17.483048505964554 1
ion Pt   5.231681950803060  20.415650686025561   8.486898698496006 1
ion Pt   5.231838721770075   2.532254911010294  12.076535452103052 1
ion Pt   5.232085252572466   6.335172232941251  15.681665695189144 1
ion Pt   0.000178956941948  10.177432915666087  19.274426378000221 1
ion Pt   0.000427222375673  13.965080291240008  22.989959566489251 1
ion Pt   5.231883163724146  15.239953363982337  13.932494801501228 1
ion Pt   5.232253678324364   1.204595596600416  21.000848997822118 1
ion Pt   0.000306951436986   5.065473457707949  24.585119370391972 1
ion Pt   0.000309542609707   8.923414791789284  28.368001617938408 1
ion Pt   5.232323567905929  17.657756321722196  26.880688786775078 1
ion Pt   2.615707811317143  12.064323542047253   5.922197743748971 1
ion Pt   2.615768131035217  15.926155670609001   9.506299774854222 1
ion Pt   2.615644289109569  21.045834722436048   3.627455023914756 1
ion Pt   2.615586275646288   3.165323455746318   7.517935797246516 1
ion Pt   2.615857300006313   6.953705584438466  11.232894465310130 1
ion Pt   2.615964632253640  10.795795677414633  14.825879517287360 1
ion Pt   2.616336188754783  18.286307828135168  22.020544645150050 1
ion Pt   2.615859835686098  19.698595827134454  13.024522429351492 1
ion Pt   2.616105080225338   1.891294754590146  16.575135817351995 1
ion Pt   2.616232932052992   5.710932017442320  20.131006500379861 1
ion Pt   2.616393976856508   9.528901753255461  23.745873603132100 1
ion Pt   2.616364039169569  13.277384334838791  27.570745472056778 1
ion Pt   2.616186687566417  14.598996007977391  18.431002826385672 1
ion Pt   2.616237939996420   0.513616015632162  25.392781908598135 1
ion Pt   2.616348038248145   4.598454277725438  29.191696298873950 1
ion Pt   2.615598059314061   8.206132533414870   2.139157233866472 1
ion Pt   2.615682952560035  16.876305589823527   0.739052718538949 1

# Forces in Cartesian coordinates:
force Pt  -0.000003285121821  -0.000374542748508  -0.000040790637671 1
force Pt  -0.000004251457784  -0.000255181586249   0.000283074276026 1
force Pt   0.000002951655397  -0.000270416155151   0.001265186476246 1
force Pt  -0.000002821068561  -0.001260839797981  -0.000735342016007 1
force Pt  -0.000002356341117   0.000155860246686  -0.000544318400856 1
force Pt  -0.000001745777204   0.000432840225150   0.000392104699446 1
force Pt   0.000001151003706  -0.000115676479823   0.000638684460403 1
force Pt  -0.000004012678657  -0.000246088091041  -0.000312346950751 1
force Pt   0.000000844479309   0.000491784599354  -0.000750777874844 1
force Pt   0.000000564064127   0.000088180947405  -0.000633619252227 1
force Pt   0.000000696012692  -0.000243301200741   0.000433067870013 1
force Pt   0.000002108316723  -0.000140946081505   0.000602769516869 1
force Pt  -0.000000553223536   0.000060764044219   0.000363419029899 1
force Pt   0.000000556825664  -0.000668846222672   0.000076361207252 1
force Pt   0.000003216559817  -0.000029414945247  -0.000019034225277 1
force Pt   0.000003860540585   0.000471229064092   0.000204423983700 1
force Pt   0.000001736100276   0.000553850336256  -0.000221596898630 1
force Pt  -0.000002353615968   0.000012278748235  -0.000002352427211 1
force Pt  -0.000001155253605   0.000652226394648  -0.000047161208494 1
force Pt  -0.000004010625678  -0.000579383380881   0.000228294189174 1
force Pt  -0.000002914208024   0.000115407438305  -0.000634766541208 1
force Pt  -0.000001730915200   0.000263885183991  -0.000420210403095 1
force Pt  -0.000000625213115  -0.000089554887053   0.000621966425161 1
force Pt   0.000002742896949   0.000252207032974   0.000339160474892 1
force Pt  -0.000000311122653   0.000114545247619  -0.000633298330011 1
force Pt   0.000001491796722  -0.000059977542238  -0.000373374495245 1
force Pt   0.000002175155872  -0.000453922716077  -0.000366107342245 1
force Pt   0.000003311254553  -0.000187829110103   0.000543261158719 1
force Pt   0.000003380916174   0.001251299712109   0.000775046011197 1
force Pt  -0.000001497068280  -0.000521828967792   0.000769597617966 1
force Pt   0.000003251164015   0.000242369312840  -0.000336163909440 1
force Pt   0.000001131618719   0.000294591619677   0.000052119387152 1
force Pt  -0.000003083953871  -0.000464659734263  -0.000216526120608 1
force Pt  -0.000004018740873   0.000114160030663  -0.001269490159464 1

# Energy components:
   A_diel =       -1.3247732874087856
   Eewald =    18260.2059070283212350
       EH =    21064.1713108705480408
     Eloc =   -42872.5186879935718025
      Enl =      -35.8235311319759901
     EvdW =       -0.8146155822309108
      Exc =     -967.9978750656114244
 Exc_core =      557.3069499381349488
       KE =      971.5620195265692018
  MuShift =       -0.1946774125043294
-------------------------------------
     Etot =    -3025.4279731097326476
       TS =        0.0058941961348985
-------------------------------------
        F =    -3025.4338673058673521
      muN =      -53.4461136358047000
-------------------------------------
        G =    -2971.9877536700628298


Dumping 'jdft.fillings' ... done
Dumping 'jdft.wfns' ... done
Dumping 'jdft.fluidState' ... done
Dumping 'jdft.ionpos' ... done
Dumping 'jdft.lattice' ... done
Dumping 'jdft.eigenvals' ... done
Dumping 'jdft.eigStats' ... 
	eMin: -2.048451 at state 23 ( [ +0.000000 +0.500000 +0.000000 ] spin -1 )
	HOMO: -0.097998 at state 2 ( [ +0.090909 +0.000000 +0.000000 ] spin 1 )
	mu  : -0.097800
	LUMO: -0.097729 at state 32 ( [ +0.454545 +0.000000 +0.000000 ] spin -1 )
	eMax: +0.183808 at state 12 ( [ -0.454545 +0.000000 +0.000000 ] spin 1 )
	HOMO-LUMO gap: +0.000269
	Optical gap  : +0.000517 at state 32 ( [ +0.454545 +0.000000 +0.000000 ] spin -1 )
Dumping 'jdft.Ecomponents' ... done
IonicMinimize: Iter:   0  G: -2971.987753670062830  |grad|_K:  4.063e-04  t[s]:   1625.26

#--- Lowdin population analysis ---
# oxidation-state Pt -0.262 -0.017 -0.334 -0.214 +0.008 +0.011 +0.011 +0.015 +0.011 +0.007 +0.009 +0.006 +0.008 +0.007 +0.003 -0.234 -0.119 +0.003 +0.007 -0.119 +0.006 +0.009 +0.007 +0.015 +0.011 +0.008 +0.011 +0.008 -0.214 +0.011 -0.017 -0.261 -0.234 -0.335
# magnetic-moments Pt -0.000 -0.000 -0.000 -0.000 -0.000 -0.000 -0.000 -0.000 -0.000 -0.000 -0.000 -0.000 -0.000 -0.000 -0.000 -0.000 -0.000 -0.000 -0.000 -0.000 -0.000 -0.000 -0.000 -0.000 -0.000 -0.000 -0.000 -0.000 -0.000 -0.000 -0.000 -0.000 -0.000 -0.000


Computing DFT-D3 correction:
# coordination-number Pt 7.024 9.326 5.934 7.128 9.349 9.544 9.595 9.211 9.573 9.605 9.562 9.360 9.619 9.566 9.249 7.087 7.454 9.250 9.568 7.454 9.359 9.561 9.604 9.210 9.595 9.618 9.543 9.350 7.128 9.574 9.327 7.025 7.087 5.933
# diagonal-C6 Pt 336.87 336.87 336.87 336.87 336.87 336.87 336.87 336.87 336.87 336.87 336.87 336.87 336.87 336.87 336.87 336.87 336.87 336.87 336.87 336.87 336.87 336.87 336.87 336.87 336.87 336.87 336.87 336.87 336.87 336.87 336.87 336.87 336.87 336.87
EvdW_6 =   -0.315987
EvdW_8 =   -0.498603
Shifting auxilliary hamiltonian by 0.000116 to set nElectrons=546.483780

-------- Electronic minimization -----------
	Linear fluid (dielectric constant: 78.4, screening length: 8.12261 Bohr) occupying 0.404264 of unit cell:	Completed after 19 iterations at t[s]:   1671.97
	FillingsUpdate:  mu: -0.097800000  nElectrons: 546.483780  magneticMoment: [ Abs: 0.00000  Tot: -0.00000 ]
ElecMinimize: Iter:   0  G: -2971.987679240532998  |grad|_K:  1.063e-06  alpha:  1.000e+00
	Linear fluid (dielectric constant: 78.4, screening length: 8.12261 Bohr) occupying 0.402669 of unit cell:	Completed after 27 iterations at t[s]:   1761.80
	Linear fluid (dielectric constant: 78.4, screening length: 8.12261 Bohr) occupying 0.404086 of unit cell:	Completed after 27 iterations at t[s]:   1793.58
	FillingsUpdate:  mu: -0.097800000  nElectrons: 546.471904  magneticMoment: [ Abs: 0.00000  Tot: -0.00000 ]
	SubspaceRotationAdjust: set factor to 0.00628
ElecMinimize: Iter:   1  G: -2971.987735352144227  |grad|_K:  2.925e-07  alpha:  1.165e-01  linmin: -5.165e-04  t[s]:   1835.94
	Linear fluid (dielectric constant: 78.4, screening length: 8.12261 Bohr) occupying 0.404100 of unit cell:	Completed after 12 iterations at t[s]:   1875.49
ElecMinimize: 	Predicted alpha/alphaT>3.000000, increasing alphaT to 3.495120e-01.
	Linear fluid (dielectric constant: 78.4, screening length: 8.12261 Bohr) occupying 0.404128 of unit cell:	Completed after 15 iterations at t[s]:   1905.43
	Linear fluid (dielectric constant: 78.4, screening length: 8.12261 Bohr) occupying 0.404134 of unit cell:	Completed after 9 iterations at t[s]:   1934.45
	FillingsUpdate:  mu: -0.097800000  nElectrons: 546.474905  magneticMoment: [ Abs: 0.00000  Tot: -0.00000 ]
	SubspaceRotationAdjust: set factor to 0.00934
ElecMinimize: Iter:   2  G: -2971.987749905068995  |grad|_K:  1.394e-07  alpha:  3.995e-01  linmin:  5.296e-04  t[s]:   1976.91
	Linear fluid (dielectric constant: 78.4, screening length: 8.12261 Bohr) occupying 0.404152 of unit cell:	Completed after 9 iterations at t[s]:   2016.02
	Linear fluid (dielectric constant: 78.4, screening length: 8.12261 Bohr) occupying 0.404156 of unit cell:	Completed after 3 iterations at t[s]:   2044.27
	FillingsUpdate:  mu: -0.097800000  nElectrons: 546.476158  magneticMoment: [ Abs: 0.00000  Tot: -0.00000 ]
	SubspaceRotationAdjust: set factor to 0.0117
ElecMinimize: Iter:   3  G: -2971.987754069312359  |grad|_K:  9.573e-08  alpha:  5.039e-01  linmin:  2.534e-05  t[s]:   2086.41
	Linear fluid (dielectric constant: 78.4, screening length: 8.12261 Bohr) occupying 0.404167 of unit cell:	Completed after 11 iterations at t[s]:   2125.84
	Linear fluid (dielectric constant: 78.4, screening length: 8.12261 Bohr) occupying 0.404169 of unit cell:	Completed after 4 iterations at t[s]:   2154.54
	FillingsUpdate:  mu: -0.097800000  nElectrons: 546.476842  magneticMoment: [ Abs: 0.00000  Tot: -0.00000 ]
	SubspaceRotationAdjust: set factor to 0.0136
ElecMinimize: Iter:   4  G: -2971.987756482581972  |grad|_K:  9.858e-08  alpha:  6.191e-01  linmin: -3.826e-05  t[s]:   2196.86
	Linear fluid (dielectric constant: 78.4, screening length: 8.12261 Bohr) occupying 0.404241 of unit cell:	Completed after 15 iterations at t[s]:   2236.80
	Linear fluid (dielectric constant: 78.4, screening length: 8.12261 Bohr) occupying 0.404217 of unit cell:	Completed after 13 iterations at t[s]:   2266.38
	FillingsUpdate:  mu: -0.097800000  nElectrons: 546.479934  magneticMoment: [ Abs: 0.00000  Tot: -0.00000 ]
	SubspaceRotationAdjust: set factor to 0.0101
ElecMinimize: Iter:   5  G: -2971.987758202973964  |grad|_K:  1.281e-07  alpha:  4.102e-01  linmin:  5.449e-04  t[s]:   2308.81
	Linear fluid (dielectric constant: 78.4, screening length: 8.12261 Bohr) occupying 0.404218 of unit cell:	Completed after 14 iterations at t[s]:   2348.69
	Linear fluid (dielectric constant: 78.4, screening length: 8.12261 Bohr) occupying 0.404218 of unit cell:	Completed after 12 iterations at t[s]:   2378.22
	FillingsUpdate:  mu: -0.097800000  nElectrons: 546.479937  magneticMoment: [ Abs: 0.00000  Tot: -0.00000 ]
	SubspaceRotationAdjust: set factor to 0.0074
ElecMinimize: Iter:   6  G: -2971.987759956030004  |grad|_K:  8.318e-08  alpha:  2.522e-01  linmin:  1.199e-04  t[s]:   2420.45
	Linear fluid (dielectric constant: 78.4, screening length: 8.12261 Bohr) occupying 0.404229 of unit cell:	Completed after 6 iterations at t[s]:   2459.92
	Linear fluid (dielectric constant: 78.4, screening length: 8.12261 Bohr) occupying 0.404248 of unit cell:	Completed after 11 iterations at t[s]:   2489.58
	FillingsUpdate:  mu: -0.097800000  nElectrons: 546.482183  magneticMoment: [ Abs: 0.00000  Tot: -0.00000 ]
	SubspaceRotationAdjust: set factor to 0.00726
ElecMinimize: Iter:   7  G: -2971.987761978361505  |grad|_K:  7.204e-08  alpha:  6.897e-01  linmin:  2.451e-04  t[s]:   2532.14
	Linear fluid (dielectric constant: 78.4, screening length: 8.12261 Bohr) occupying 0.404250 of unit cell:	Completed after 12 iterations at t[s]:   2572.09
	Linear fluid (dielectric constant: 78.4, screening length: 8.12261 Bohr) occupying 0.404250 of unit cell:	Completed after 2 iterations at t[s]:   2600.45
	FillingsUpdate:  mu: -0.097800000  nElectrons: 546.482602  magneticMoment: [ Abs: 0.00000  Tot: -0.00000 ]
	SubspaceRotationAdjust: set factor to 0.00678
ElecMinimize: Iter:   8  G: -2971.987763272352822  |grad|_K:  6.673e-08  alpha:  5.873e-01  linmin:  4.672e-04  t[s]:   2643.00
	Linear fluid (dielectric constant: 78.4, screening length: 8.12261 Bohr) occupying 0.404277 of unit cell:	Completed after 14 iterations at t[s]:   2682.71
	Linear fluid (dielectric constant: 78.4, screening length: 8.12261 Bohr) occupying 0.404267 of unit cell:	Completed after 11 iterations at t[s]:   2712.14
	FillingsUpdate:  mu: -0.097800000  nElectrons: 546.484020  magneticMoment: [ Abs: 0.00000  Tot: -0.00000 ]
	SubspaceRotationAdjust: set factor to 0.00545
ElecMinimize: Iter:   9  G: -2971.987763963717043  |grad|_K:  5.802e-08  alpha:  3.735e-01  linmin: -3.985e-04  t[s]:   2754.89
	Linear fluid (dielectric constant: 78.4, screening length: 8.12261 Bohr) occupying 0.404261 of unit cell:	Completed after 11 iterations at t[s]:   2794.46
	Linear fluid (dielectric constant: 78.4, screening length: 8.12261 Bohr) occupying 0.404260 of unit cell:	Completed after 2 iterations at t[s]:   2822.62
	FillingsUpdate:  mu: -0.097800000  nElectrons: 546.483874  magneticMoment: [ Abs: 0.00000  Tot: -0.00000 ]
	SubspaceRotationAdjust: set factor to 0.0058
ElecMinimize: Iter:  10  G: -2971.987764585495370  |grad|_K:  4.246e-08  alpha:  4.320e-01  linmin: -1.466e-03  t[s]:   2865.27
	Linear fluid (dielectric constant: 78.4, screening length: 8.12261 Bohr) occupying 0.404258 of unit cell:	Completed after 3 iterations at t[s]:   2903.75
	Linear fluid (dielectric constant: 78.4, screening length: 8.12261 Bohr) occupying 0.404257 of unit cell:	Completed after 3 iterations at t[s]:   2932.00
	FillingsUpdate:  mu: -0.097800000  nElectrons: 546.483924  magneticMoment: [ Abs: 0.00000  Tot: -0.00000 ]
	SubspaceRotationAdjust: set factor to 0.00696
ElecMinimize: Iter:  11  G: -2971.987765045736523  |grad|_K:  3.914e-08  alpha:  5.929e-01  linmin:  2.584e-04  t[s]:   2974.60
	Linear fluid (dielectric constant: 78.4, screening length: 8.12261 Bohr) occupying 0.404264 of unit cell:	Completed after 11 iterations at t[s]:   3014.01
	Linear fluid (dielectric constant: 78.4, screening length: 8.12261 Bohr) occupying 0.404264 of unit cell:	Completed after 2 iterations at t[s]:   3042.11
	FillingsUpdate:  mu: -0.097800000  nElectrons: 546.484507  magneticMoment: [ Abs: 0.00000  Tot: -0.00000 ]
	SubspaceRotationAdjust: set factor to 0.00666
ElecMinimize: Iter:  12  G: -2971.987765389463220  |grad|_K:  4.149e-08  alpha:  5.253e-01  linmin:  2.339e-03  t[s]:   3085.24
	Linear fluid (dielectric constant: 78.4, screening length: 8.12261 Bohr) occupying 0.404253 of unit cell:	Completed after 12 iterations at t[s]:   3124.92
	Linear fluid (dielectric constant: 78.4, screening length: 8.12261 Bohr) occupying 0.404255 of unit cell:	Completed after 2 iterations at t[s]:   3153.23
	FillingsUpdate:  mu: -0.097800000  nElectrons: 546.484074  magneticMoment: [ Abs: 0.00000  Tot: -0.00000 ]
	SubspaceRotationAdjust: set factor to 0.0061
ElecMinimize: Iter:  13  G: -2971.987765683385987  |grad|_K:  3.911e-08  alpha:  4.165e-01  linmin:  8.816e-04  t[s]:   3195.64
	Linear fluid (dielectric constant: 78.4, screening length: 8.12261 Bohr) occupying 0.404257 of unit cell:	Completed after 7 iterations at t[s]:   3234.57
	Linear fluid (dielectric constant: 78.4, screening length: 8.12261 Bohr) occupying 0.404258 of unit cell:	Completed after 2 iterations at t[s]:   3262.74
	FillingsUpdate:  mu: -0.097800000  nElectrons: 546.484286  magneticMoment: [ Abs: 0.00000  Tot: -0.00000 ]
	SubspaceRotationAdjust: set factor to 0.00659
ElecMinimize: Iter:  14  G: -2971.987766045930130  |grad|_K:  3.387e-08  alpha:  5.574e-01  linmin: -2.961e-03  t[s]:   3305.45
	Linear fluid (dielectric constant: 78.4, screening length: 8.12261 Bohr) occupying 0.404256 of unit cell:	Completed after 3 iterations at t[s]:   3343.64
	Linear fluid (dielectric constant: 78.4, screening length: 8.12261 Bohr) occupying 0.404255 of unit cell:	Completed after 3 iterations at t[s]:   3372.75
	FillingsUpdate:  mu: -0.097800000  nElectrons: 546.484132  magneticMoment: [ Abs: 0.00000  Tot: -0.00000 ]
	SubspaceRotationAdjust: set factor to 0.00719
ElecMinimize: Iter:  15  G: -2971.987766423475932  |grad|_K:  3.504e-08  alpha:  7.421e-01  linmin: -4.527e-06  t[s]:   3415.08
	Linear fluid (dielectric constant: 78.4, screening length: 8.12261 Bohr) occupying 0.404244 of unit cell:	Completed after 10 iterations at t[s]:   3454.37
	Linear fluid (dielectric constant: 78.4, screening length: 8.12261 Bohr) occupying 0.404247 of unit cell:	Completed after 3 iterations at t[s]:   3482.84
	FillingsUpdate:  mu: -0.097800000  nElectrons: 546.483485  magneticMoment: [ Abs: 0.00000  Tot: -0.00000 ]
	SubspaceRotationAdjust: set factor to 0.00659
ElecMinimize: Iter:  16  G: -2971.987766724928861  |grad|_K:  3.766e-08  alpha:  5.715e-01  linmin:  1.418e-03  t[s]:   3525.55
	Linear fluid (dielectric constant: 78.4, screening length: 8.12261 Bohr) occupying 0.404256 of unit cell:	Completed after 13 iterations at t[s]:   3565.33
	Linear fluid (dielectric constant: 78.4, screening length: 8.12261 Bohr) occupying 0.404252 of unit cell:	Completed after 7 iterations at t[s]:   3594.13
	FillingsUpdate:  mu: -0.097800000  nElectrons: 546.483746  magneticMoment: [ Abs: 0.00000  Tot: -0.00000 ]
	SubspaceRotationAdjust: set factor to 0.00505
ElecMinimize: Iter:  17  G: -2971.987766909728180  |grad|_K:  2.966e-08  alpha:  3.231e-01  linmin:  7.717e-04  t[s]:   3636.53
	Linear fluid (dielectric constant: 78.4, screening length: 8.12261 Bohr) occupying 0.404249 of unit cell:	Completed after 7 iterations at t[s]:   3676.14
	Linear fluid (dielectric constant: 78.4, screening length: 8.12261 Bohr) occupying 0.404248 of unit cell:	Completed after 1 iterations at t[s]:   3704.08
	FillingsUpdate:  mu: -0.097800000  nElectrons: 546.483396  magneticMoment: [ Abs: 0.00000  Tot: -0.00000 ]
	SubspaceRotationAdjust: set factor to 0.00583
ElecMinimize: Iter:  18  G: -2971.987767089438421  |grad|_K:  2.075e-08  alpha:  4.743e-01  linmin: -6.194e-03  t[s]:   3746.56
	Linear fluid (dielectric constant: 78.4, screening length: 8.12261 Bohr) occupying 0.404246 of unit cell:	Completed after 6 iterations at t[s]:   3785.24
	Linear fluid (dielectric constant: 78.4, screening length: 8.12261 Bohr) occupying 0.404245 of unit cell:	Completed after 0 iterations at t[s]:   3812.96
	FillingsUpdate:  mu: -0.097800000  nElectrons: 546.483159  magneticMoment: [ Abs: 0.00000  Tot: -0.00000 ]
	SubspaceRotationAdjust: set factor to 0.00614
ElecMinimize: Iter:  19  G: -2971.987767192309093  |grad|_K:  1.981e-08  alpha:  5.192e-01  linmin: -4.167e-03  t[s]:   3855.21
	Linear fluid (dielectric constant: 78.4, screening length: 8.12261 Bohr) occupying 0.404250 of unit cell:	Completed after 6 iterations at t[s]:   3894.06
	Linear fluid (dielectric constant: 78.4, screening length: 8.12261 Bohr) occupying 0.404249 of unit cell:	Completed after 2 iterations at t[s]:   3922.20
	FillingsUpdate:  mu: -0.097800000  nElectrons: 546.483373  magneticMoment: [ Abs: 0.00000  Tot: -0.00000 ]
	SubspaceRotationAdjust: set factor to 0.00581
ElecMinimize: Iter:  20  G: -2971.987767265662114  |grad|_K:  1.703e-08  alpha:  4.162e-01  linmin:  1.928e-03  t[s]:   3964.45
	Linear fluid (dielectric constant: 78.4, screening length: 8.12261 Bohr) occupying 0.404249 of unit cell:	Completed after 2 iterations at t[s]:   4002.34
	Linear fluid (dielectric constant: 78.4, screening length: 8.12261 Bohr) occupying 0.404249 of unit cell:	Completed after 0 iterations at t[s]:   4029.90
	FillingsUpdate:  mu: -0.097800000  nElectrons: 546.483322  magneticMoment: [ Abs: 0.00000  Tot: -0.00000 ]
	SubspaceRotationAdjust: set factor to 0.00759
ElecMinimize: Iter:  21  G: -2971.987767329959752  |grad|_K:  1.578e-08  alpha:  5.361e-01  linmin: -1.632e-03  t[s]:   4072.15
ElecMinimize: Converged (|Delta G|<1.000000e-07 for 2 iters).
Setting wave functions to eigenvectors of Hamiltonian
Converging empty states (this may take a while): |deigs|: 9.107e-09

Computing DFT-D3 correction:
# coordination-number Pt 7.024 9.326 5.934 7.128 9.349 9.544 9.595 9.211 9.573 9.605 9.562 9.360 9.619 9.566 9.249 7.087 7.454 9.250 9.568 7.454 9.359 9.561 9.604 9.210 9.595 9.618 9.543 9.350 7.128 9.574 9.327 7.025 7.087 5.933
# diagonal-C6 Pt 336.87 336.87 336.87 336.87 336.87 336.87 336.87 336.87 336.87 336.87 336.87 336.87 336.87 336.87 336.87 336.87 336.87 336.87 336.87 336.87 336.87 336.87 336.87 336.87 336.87 336.87 336.87 336.87 336.87 336.87 336.87 336.87 336.87 336.87
EvdW_6 =   -0.315987
EvdW_8 =   -0.498603

# Ionic positions in cartesian coordinates:
ion Pt  -0.000385671149975  12.531886813667807   1.315867655897222 1
ion Pt   5.231765527805832  16.615668002730914   5.115055661190114 1
ion Pt   5.232268245408975  21.827635136668228  29.769986161910733 1
ion Pt   5.231581110958586   3.851643876729756   2.935490347709189 1
ion Pt   5.231598832202417   7.602564002178117   6.761110871996198 1
ion Pt   5.231830677498237  11.421434731108841  10.376933052576920 1
ion Pt   0.000090885793072  19.003914628280896  17.483686271025224 1
ion Pt   5.231678101536893  20.415416213506965   8.486585432145525 1
ion Pt   5.231839729661873   2.532758311182092  12.075783754828477 1
ion Pt   5.232085980049082   6.335272029461101  15.681031156537184 1
ion Pt   0.000179816367130  10.177201230037790  19.274858526470503 1
ion Pt   0.000429494104885  13.964950960730947  22.990561416606390 1
ion Pt   5.231882773913100  15.240025743599002  13.932857301131397 1
ion Pt   5.232254398562517   1.203938365950188  21.000924439629639 1
ion Pt   0.000310331409293   5.065455658335146  24.585099416766965 1
ion Pt   0.000313566562781   8.923897636425819  28.368205122522376 1
ion Pt   5.232325467418694  17.658321787630900  26.880466270476717 1
ion Pt   2.615705621113665  12.064347436367932   5.922194471922030 1
ion Pt   2.615767139194102  15.926819512576094   9.506251694245998 1
ion Pt   2.615640441896380  21.045266954627614   3.627682398704200 1
ion Pt   2.615583524850754   3.165450478757068   7.517300111305579 1
ion Pt   2.615855732503603   6.953981085194902  11.232473335507304 1
ion Pt   2.615964170453015  10.795717738100024  14.826500564312791 1
ion Pt   2.616339095064222  18.286571650740587  22.020882886225213 1
ion Pt   2.615859687975934  19.698721987954521  13.023888211621751 1
ion Pt   2.616106735434550   1.891246392620353  16.574761523457020 1
ion Pt   2.616235270621354   5.710489710298687  20.130639473637881 1
ion Pt   2.616397451523551   9.528725539717803  23.746415944891091 1
ion Pt   2.616367583498232  13.278647250123344  27.571519598668242 1
ion Pt   2.616185353910627  14.598485794582045  18.431771504603908 1
ion Pt   2.616241354572925   0.513870000517446  25.392444825288962 1
ion Pt   2.616349333279353   4.598760484917559  29.191747498861371 1
ion Pt   2.615595138772679   8.205679489253050   2.138939788346134 1
ion Pt   2.615679097231652  16.876431365426637   0.737782308979755 1

# Forces in Cartesian coordinates:
force Pt  -0.000003306742554  -0.000390608332359   0.000423197930061 1
force Pt  -0.000004144381749  -0.000420391603084   0.000524983850245 1
force Pt   0.000002998602374  -0.000025299758651   0.000625661134072 1
force Pt  -0.000002861552599  -0.001146274921685  -0.000225557536199 1
force Pt  -0.000002321901662   0.000187255980445  -0.000347499558059 1
force Pt  -0.000001733791428   0.000421561102446   0.000384523174827 1
force Pt   0.000001207844481  -0.000134440828594   0.000536669976517 1
force Pt  -0.000003806365417  -0.000242111113401  -0.000139173589346 1
force Pt   0.000000821560761   0.000479472192097  -0.000675288442607 1
force Pt   0.000000551334804   0.000097723041270  -0.000650698174726 1
force Pt   0.000000653440432  -0.000244443880570   0.000410126532765 1
force Pt   0.000002188787783  -0.000199933738196   0.000442831420831 1
force Pt  -0.000000542017634   0.000100528716305   0.000374775424151 1
force Pt   0.000000586453730  -0.000594123339760  -0.000000731544202 1
force Pt   0.000003189897379  -0.000013736248017  -0.000154502644214 1
force Pt   0.000003708985718   0.000271190879558  -0.000355324560195 1
force Pt   0.000001655417851   0.000508542279726  -0.000614192535597 1
force Pt  -0.000002308568063  -0.000001491794571   0.000135047500730 1
force Pt  -0.000001343429293   0.000580362140277   0.000025554573898 1
force Pt  -0.000003997559449  -0.000532496967623   0.000615119973631 1
force Pt  -0.000002875028437   0.000177287672179  -0.000473656421249 1
force Pt  -0.000001658329316   0.000261037897852  -0.000397037149066 1
force Pt  -0.000000658013657  -0.000099974477412   0.000645883639176 1
force Pt   0.000002641943324   0.000243387037616   0.000168884744078 1
force Pt  -0.000000373171767   0.000132894277634  -0.000530119968032 1
force Pt   0.000001443856577  -0.000098066202729  -0.000379583231681 1
force Pt   0.000002157421793  -0.000442118412184  -0.000363131864353 1
force Pt   0.000003266432209  -0.000218010990507   0.000346639846774 1
force Pt   0.000003353802068   0.001139293200798   0.000257832489057 1
force Pt  -0.000001482305347  -0.000507650556366   0.000697906302078 1
force Pt   0.000003141967615   0.000404979979384  -0.000574537624874 1
force Pt   0.000001188551517   0.000315315257719  -0.000420701922051 1
force Pt  -0.000003024023559  -0.000272260418285   0.000342639567433 1
force Pt  -0.000004040716336  -0.000126523952334  -0.000639258339395 1

# Energy components:
   A_diel =       -1.3243008207824112
   Eewald =    18258.9458610404035426
       EH =    21062.9600961433279736
     Eloc =   -42870.0483155975889531
      Enl =      -35.8238451583196280
     EvdW =       -0.8145906515100068
      Exc =     -967.9974366442371547
 Exc_core =      557.3069498101577892
       KE =      971.5622814633970847
  MuShift =       -0.1946415508238348
-------------------------------------
     Etot =    -3025.4279419659760606
       TS =        0.0058942524749604
-------------------------------------
        F =    -3025.4338362184512334
      muN =      -53.4460688884912756
-------------------------------------
        G =    -2971.9877673299597518


Dumping 'jdft.fillings' ... done
Dumping 'jdft.wfns' ... done
Dumping 'jdft.fluidState' ... done
Dumping 'jdft.ionpos' ... done
Dumping 'jdft.lattice' ... done
Dumping 'jdft.eigenvals' ... done
Dumping 'jdft.eigStats' ... 
	eMin: -2.048237 at state 23 ( [ +0.000000 +0.500000 +0.000000 ] spin -1 )
	HOMO: -0.097848 at state 20 ( [ -0.090909 +0.000000 +0.000000 ] spin 1 )
	mu  : -0.097800
	LUMO: -0.097584 at state 39 ( [ -0.272727 +0.500000 +0.000000 ] spin -1 )
	eMax: +0.183882 at state 10 ( [ +0.454545 +0.000000 +0.000000 ] spin 1 )
	HOMO-LUMO gap: +0.000264
	Optical gap  : +0.000567 at state 34 ( [ -0.454545 +0.000000 +0.000000 ] spin -1 )
Dumping 'jdft.Ecomponents' ... done
IonicMinimize: Iter:   1  G: -2971.987767329959752  |grad|_K:  3.543e-04  alpha:  1.000e+00  linmin: -8.937e-01  t[s]:   4187.09

#--- Lowdin population analysis ---
# oxidation-state Pt -0.260 -0.019 -0.341 -0.214 +0.007 +0.011 +0.014 +0.015 +0.014 +0.011 +0.012 +0.004 +0.011 +0.010 +0.002 -0.239 -0.119 +0.002 +0.010 -0.119 +0.004 +0.012 +0.011 +0.015 +0.014 +0.011 +0.011 +0.007 -0.214 +0.015 -0.019 -0.260 -0.239 -0.341
# magnetic-moments Pt -0.000 -0.000 -0.000 -0.000 -0.000 -0.000 -0.000 -0.000 -0.000 -0.000 -0.000 -0.000 -0.000 -0.000 -0.000 -0.000 -0.000 -0.000 -0.000 -0.000 -0.000 -0.000 -0.000 -0.000 -0.000 -0.000 -0.000 -0.000 -0.000 -0.000 -0.000 -0.000 -0.000 -0.000


Computing DFT-D3 correction:
# coordination-number Pt 7.023 9.328 5.920 7.124 9.348 9.535 9.587 9.226 9.571 9.604 9.562 9.362 9.609 9.573 9.251 7.087 7.467 9.252 9.574 7.467 9.361 9.561 9.604 9.226 9.587 9.608 9.535 9.349 7.123 9.572 9.329 7.022 7.087 5.920
# diagonal-C6 Pt 336.87 336.87 336.87 336.87 336.87 336.87 336.87 336.87 336.87 336.87 336.87 336.87 336.87 336.87 336.87 336.87 336.87 336.87 336.87 336.87 336.87 336.87 336.87 336.87 336.87 336.87 336.87 336.87 336.87 336.87 336.87 336.87 336.87 336.87
EvdW_6 =   -0.315973
EvdW_8 =   -0.498554
Shifting auxilliary hamiltonian by -0.000027 to set nElectrons=546.483322

-------- Electronic minimization -----------
	Linear fluid (dielectric constant: 78.4, screening length: 8.12261 Bohr) occupying 0.404111 of unit cell:	Completed after 21 iterations at t[s]:   4234.36
	FillingsUpdate:  mu: -0.097800000  nElectrons: 546.483322  magneticMoment: [ Abs: 0.00000  Tot: -0.00000 ]
ElecMinimize: Iter:   0  G: -2971.987578019539797  |grad|_K:  1.211e-06  alpha:  1.000e+00
	Linear fluid (dielectric constant: 78.4, screening length: 8.12261 Bohr) occupying 0.405307 of unit cell:	Completed after 27 iterations at t[s]:   4324.22
	Linear fluid (dielectric constant: 78.4, screening length: 8.12261 Bohr) occupying 0.404323 of unit cell:	Completed after 27 iterations at t[s]:   4356.28
	FillingsUpdate:  mu: -0.097800000  nElectrons: 546.497623  magneticMoment: [ Abs: 0.00000  Tot: -0.00000 ]
	SubspaceRotationAdjust: set factor to 0.00459
ElecMinimize: Iter:   1  G: -2971.987684506848836  |grad|_K:  4.673e-07  alpha:  1.710e-01  linmin:  1.478e-03  t[s]:   4398.32
	Linear fluid (dielectric constant: 78.4, screening length: 8.12261 Bohr) occupying 0.404292 of unit cell:	Completed after 15 iterations at t[s]:   4438.42
	Linear fluid (dielectric constant: 78.4, screening length: 8.12261 Bohr) occupying 0.404258 of unit cell:	Completed after 15 iterations at t[s]:   4468.38
	FillingsUpdate:  mu: -0.097800000  nElectrons: 546.493443  magneticMoment: [ Abs: 0.00000  Tot: -0.00000 ]
	SubspaceRotationAdjust: set factor to 0.00574
ElecMinimize: Iter:   2  G: -2971.987718083553773  |grad|_K:  2.088e-07  alpha:  3.627e-01  linmin:  1.428e-03  t[s]:   4510.82
	Linear fluid (dielectric constant: 78.4, screening length: 8.12261 Bohr) occupying 0.404243 of unit cell:	Completed after 5 iterations at t[s]:   4549.84
	Linear fluid (dielectric constant: 78.4, screening length: 8.12261 Bohr) occupying 0.404236 of unit cell:	Completed after 5 iterations at t[s]:   4578.47
	FillingsUpdate:  mu: -0.097800000  nElectrons: 546.492383  magneticMoment: [ Abs: 0.00000  Tot: -0.00000 ]
	SubspaceRotationAdjust: set factor to 0.00709
ElecMinimize: Iter:   3  G: -2971.987727925659783  |grad|_K:  1.474e-07  alpha:  5.313e-01  linmin: -4.527e-05  t[s]:   4620.67
	Linear fluid (dielectric constant: 78.4, screening length: 8.12261 Bohr) occupying 0.404224 of unit cell:	Completed after 13 iterations at t[s]:   4660.29
	Linear fluid (dielectric constant: 78.4, screening length: 8.12261 Bohr) occupying 0.404221 of unit cell:	Completed after 5 iterations at t[s]:   4689.02
	FillingsUpdate:  mu: -0.097800000  nElectrons: 546.491766  magneticMoment: [ Abs: 0.00000  Tot: -0.00000 ]
	SubspaceRotationAdjust: set factor to 0.00852
ElecMinimize: Iter:   4  G: -2971.987733927810041  |grad|_K:  1.408e-07  alpha:  6.484e-01  linmin: -6.476e-04  t[s]:   4731.16
	Linear fluid (dielectric constant: 78.4, screening length: 8.12261 Bohr) occupying 0.404164 of unit cell:	Completed after 15 iterations at t[s]:   4770.90
	Linear fluid (dielectric constant: 78.4, screening length: 8.12261 Bohr) occupying 0.404166 of unit cell:	Completed after 1 iterations at t[s]:   4798.96
	FillingsUpdate:  mu: -0.097800000  nElectrons: 546.488432  magneticMoment: [ Abs: 0.00000  Tot: -0.00000 ]
	SubspaceRotationAdjust: set factor to 0.00866
ElecMinimize: Iter:   5  G: -2971.987739229696217  |grad|_K:  1.581e-07  alpha:  6.256e-01  linmin:  8.946e-04  t[s]:   4841.34
	Linear fluid (dielectric constant: 78.4, screening length: 8.12261 Bohr) occupying 0.404188 of unit cell:	Completed after 15 iterations at t[s]:   4881.70
	Linear fluid (dielectric constant: 78.4, screening length: 8.12261 Bohr) occupying 0.404179 of unit cell:	Completed after 13 iterations at t[s]:   4911.67
	FillingsUpdate:  mu: -0.097800000  nElectrons: 546.489403  magneticMoment: [ Abs: 0.00000  Tot: -0.00000 ]
	SubspaceRotationAdjust: set factor to 0.00709
ElecMinimize: Iter:   6  G: -2971.987743008318375  |grad|_K:  1.554e-07  alpha:  3.609e-01  linmin: -6.959e-05  t[s]:   4953.80
	Linear fluid (dielectric constant: 78.4, screening length: 8.12261 Bohr) occupying 0.404144 of unit cell:	Completed after 14 iterations at t[s]:   4993.57
	Linear fluid (dielectric constant: 78.4, screening length: 8.12261 Bohr) occupying 0.404126 of unit cell:	Completed after 11 iterations at t[s]:   5022.75
	FillingsUpdate:  mu: -0.097800000  nElectrons: 546.485735  magneticMoment: [ Abs: 0.00000  Tot: -0.00000 ]
	SubspaceRotationAdjust: set factor to 0.00699
ElecMinimize: Iter:   7  G: -2971.987748711059794  |grad|_K:  1.300e-07  alpha:  5.548e-01  linmin:  1.086e-04  t[s]:   5065.10
	Linear fluid (dielectric constant: 78.4, screening length: 8.12261 Bohr) occupying 0.404115 of unit cell:	Completed after 12 iterations at t[s]:   5104.87
	Linear fluid (dielectric constant: 78.4, screening length: 8.12261 Bohr) occupying 0.404112 of unit cell:	Completed after 5 iterations at t[s]:   5133.58
	FillingsUpdate:  mu: -0.097800000  nElectrons: 546.484267  magneticMoment: [ Abs: 0.00000  Tot: -0.00000 ]
	SubspaceRotationAdjust: set factor to 0.00746
ElecMinimize: Iter:   8  G: -2971.987754011598099  |grad|_K:  1.227e-07  alpha:  7.368e-01  linmin: -2.584e-04  t[s]:   5175.72
	Linear fluid (dielectric constant: 78.4, screening length: 8.12261 Bohr) occupying 0.404089 of unit cell:	Completed after 13 iterations at t[s]:   5215.60
	Linear fluid (dielectric constant: 78.4, screening length: 8.12261 Bohr) occupying 0.404089 of unit cell:	Completed after 0 iterations at t[s]:   5243.25
	FillingsUpdate:  mu: -0.097800000  nElectrons: 546.481871  magneticMoment: [ Abs: 0.00000  Tot: -0.00000 ]
	SubspaceRotationAdjust: set factor to 0.00814
ElecMinimize: Iter:   9  G: -2971.987758707670309  |grad|_K:  1.154e-07  alpha:  7.304e-01  linmin:  2.110e-04  t[s]:   5285.59
	Linear fluid (dielectric constant: 78.4, screening length: 8.12261 Bohr) occupying 0.404115 of unit cell:	Completed after 14 iterations at t[s]:   5325.15
	Linear fluid (dielectric constant: 78.4, screening length: 8.12261 Bohr) occupying 0.404110 of unit cell:	Completed after 7 iterations at t[s]:   5354.05
	FillingsUpdate:  mu: -0.097800000  nElectrons: 546.482552  magneticMoment: [ Abs: 0.00000  Tot: -0.00000 ]
	SubspaceRotationAdjust: set factor to 0.00752
ElecMinimize: Iter:  10  G: -2971.987762104326521  |grad|_K:  1.302e-07  alpha:  6.015e-01  linmin:  8.268e-05  t[s]:   5396.29
	Linear fluid (dielectric constant: 78.4, screening length: 8.12261 Bohr) occupying 0.404067 of unit cell:	Completed after 15 iterations at t[s]:   5436.46
	Linear fluid (dielectric constant: 78.4, screening length: 8.12261 Bohr) occupying 0.404084 of unit cell:	Completed after 13 iterations at t[s]:   5466.38
	FillingsUpdate:  mu: -0.097800000  nElectrons: 546.480257  magneticMoment: [ Abs: 0.00000  Tot: -0.00000 ]
	SubspaceRotationAdjust: set factor to 0.0065
ElecMinimize: Iter:  11  G: -2971.987764747115307  |grad|_K:  1.228e-07  alpha:  3.692e-01  linmin: -6.489e-05  t[s]:   5508.48
	Linear fluid (dielectric constant: 78.4, screening length: 8.12261 Bohr) occupying 0.404096 of unit cell:	Completed after 13 iterations at t[s]:   5548.26
	Linear fluid (dielectric constant: 78.4, screening length: 8.12261 Bohr) occupying 0.404105 of unit cell:	Completed after 11 iterations at t[s]:   5577.71
	FillingsUpdate:  mu: -0.097800000  nElectrons: 546.480955  magneticMoment: [ Abs: 0.00000  Tot: -0.00000 ]
	SubspaceRotationAdjust: set factor to 0.00717
ElecMinimize: Iter:  12  G: -2971.987769031187781  |grad|_K:  1.211e-07  alpha:  6.662e-01  linmin: -1.823e-05  t[s]:   5619.78
	Linear fluid (dielectric constant: 78.4, screening length: 8.12261 Bohr) occupying 0.404116 of unit cell:	Completed after 5 iterations at t[s]:   5658.28
	Linear fluid (dielectric constant: 78.4, screening length: 8.12261 Bohr) occupying 0.404119 of unit cell:	Completed after 3 iterations at t[s]:   5686.48
	FillingsUpdate:  mu: -0.097800000  nElectrons: 546.481372  magneticMoment: [ Abs: 0.00000  Tot: -0.00000 ]
	SubspaceRotationAdjust: set factor to 0.00799
ElecMinimize: Iter:  13  G: -2971.987774365832593  |grad|_K:  1.411e-07  alpha:  8.539e-01  linmin: -4.783e-06  t[s]:   5728.96
	Linear fluid (dielectric constant: 78.4, screening length: 8.12261 Bohr) occupying 0.404125 of unit cell:	Completed after 14 iterations at t[s]:   5769.12
	Linear fluid (dielectric constant: 78.4, screening length: 8.12261 Bohr) occupying 0.404125 of unit cell:	Completed after 0 iterations at t[s]:   5796.75
	FillingsUpdate:  mu: -0.097800000  nElectrons: 546.481627  magneticMoment: [ Abs: 0.00000  Tot: -0.00000 ]
	SubspaceRotationAdjust: set factor to 0.00824
ElecMinimize: Iter:  14  G: -2971.987781531677683  |grad|_K:  1.724e-07  alpha:  8.458e-01  linmin:  8.430e-06  t[s]:   5838.96
	Linear fluid (dielectric constant: 78.4, screening length: 8.12261 Bohr) occupying 0.404224 of unit cell:	Completed after 16 iterations at t[s]:   5879.05
	Linear fluid (dielectric constant: 78.4, screening length: 8.12261 Bohr) occupying 0.404186 of unit cell:	Completed after 15 iterations at t[s]:   5909.15
	FillingsUpdate:  mu: -0.097800000  nElectrons: 546.485833  magneticMoment: [ Abs: 0.00000  Tot: -0.00000 ]
	SubspaceRotationAdjust: set factor to 0.00697
ElecMinimize: Iter:  15  G: -2971.987788007812469  |grad|_K:  2.098e-07  alpha:  5.133e-01  linmin:  3.051e-06  t[s]:   5951.62
	Linear fluid (dielectric constant: 78.4, screening length: 8.12261 Bohr) occupying 0.404164 of unit cell:	Completed after 15 iterations at t[s]:   5991.54
	Linear fluid (dielectric constant: 78.4, screening length: 8.12261 Bohr) occupying 0.404168 of unit cell:	Completed after 12 iterations at t[s]:   6021.31
	FillingsUpdate:  mu: -0.097800000  nElectrons: 546.485108  magneticMoment: [ Abs: 0.00000  Tot: -0.00000 ]
	SubspaceRotationAdjust: set factor to 0.00579
ElecMinimize: Iter:  16  G: -2971.987795642645324  |grad|_K:  1.747e-07  alpha:  4.073e-01  linmin:  1.391e-05  t[s]:   6063.84
	Linear fluid (dielectric constant: 78.4, screening length: 8.12261 Bohr) occupying 0.404184 of unit cell:	Completed after 9 iterations at t[s]:   6102.81
	Linear fluid (dielectric constant: 78.4, screening length: 8.12261 Bohr) occupying 0.404194 of unit cell:	Completed after 7 iterations at t[s]:   6131.56
	FillingsUpdate:  mu: -0.097800000  nElectrons: 546.487566  magneticMoment: [ Abs: 0.00000  Tot: -0.00000 ]
	SubspaceRotationAdjust: set factor to 0.00646
ElecMinimize: Iter:  17  G: -2971.987804270800552  |grad|_K:  1.513e-07  alpha:  6.650e-01  linmin:  8.633e-06  t[s]:   6173.77
	Linear fluid (dielectric constant: 78.4, screening length: 8.12261 Bohr) occupying 0.404230 of unit cell:	Completed after 15 iterations at t[s]:   6213.96
	Linear fluid (dielectric constant: 78.4, screening length: 8.12261 Bohr) occupying 0.404227 of unit cell:	Completed after 5 iterations at t[s]:   6242.60
	FillingsUpdate:  mu: -0.097800000  nElectrons: 546.490336  magneticMoment: [ Abs: 0.00000  Tot: -0.00000 ]
	SubspaceRotationAdjust: set factor to 0.00636
ElecMinimize: Iter:  18  G: -2971.987810101739797  |grad|_K:  1.437e-07  alpha:  5.986e-01  linmin: -4.896e-05  t[s]:   6284.85
	Linear fluid (dielectric constant: 78.4, screening length: 8.12261 Bohr) occupying 0.404193 of unit cell:	Completed after 15 iterations at t[s]:   6324.95
	Linear fluid (dielectric constant: 78.4, screening length: 8.12261 Bohr) occupying 0.404205 of unit cell:	Completed after 13 iterations at t[s]:   6354.53
	FillingsUpdate:  mu: -0.097800000  nElectrons: 546.489187  magneticMoment: [ Abs: 0.00000  Tot: -0.00000 ]
	SubspaceRotationAdjust: set factor to 0.00536
ElecMinimize: Iter:  19  G: -2971.987813455878495  |grad|_K:  1.249e-07  alpha:  3.823e-01  linmin: -3.543e-05  t[s]:   6396.82
	Linear fluid (dielectric constant: 78.4, screening length: 8.12261 Bohr) occupying 0.404218 of unit cell:	Completed after 13 iterations at t[s]:   6436.44
	Linear fluid (dielectric constant: 78.4, screening length: 8.12261 Bohr) occupying 0.404222 of unit cell:	Completed after 5 iterations at t[s]:   6464.95
	FillingsUpdate:  mu: -0.097800000  nElectrons: 546.490579  magneticMoment: [ Abs: 0.00000  Tot: -0.00000 ]
	SubspaceRotationAdjust: set factor to 0.00622
ElecMinimize: Iter:  20  G: -2971.987816741685492  |grad|_K:  9.726e-08  alpha:  4.935e-01  linmin: -1.255e-04  t[s]:   6507.64
	Linear fluid (dielectric constant: 78.4, screening length: 8.12261 Bohr) occupying 0.404228 of unit cell:	Completed after 10 iterations at t[s]:   6546.86
	Linear fluid (dielectric constant: 78.4, screening length: 8.12261 Bohr) occupying 0.404229 of unit cell:	Completed after 2 iterations at t[s]:   6574.96
	FillingsUpdate:  mu: -0.097800000  nElectrons: 546.491145  magneticMoment: [ Abs: 0.00000  Tot: -0.00000 ]
	SubspaceRotationAdjust: set factor to 0.00737
ElecMinimize: Iter:  21  G: -2971.987819379966822  |grad|_K:  9.462e-08  alpha:  6.516e-01  linmin: -2.434e-04  t[s]:   6617.29
	Linear fluid (dielectric constant: 78.4, screening length: 8.12261 Bohr) occupying 0.404203 of unit cell:	Completed after 14 iterations at t[s]:   6657.51
	Linear fluid (dielectric constant: 78.4, screening length: 8.12261 Bohr) occupying 0.404208 of unit cell:	Completed after 7 iterations at t[s]:   6686.51
	FillingsUpdate:  mu: -0.097800000  nElectrons: 546.489675  magneticMoment: [ Abs: 0.00000  Tot: -0.00000 ]
	SubspaceRotationAdjust: set factor to 0.0072
ElecMinimize: Iter:  22  G: -2971.987821453122251  |grad|_K:  1.115e-07  alpha:  5.372e-01  linmin:  3.635e-04  t[s]:   6728.77
	Linear fluid (dielectric constant: 78.4, screening length: 8.12261 Bohr) occupying 0.404226 of unit cell:	Completed after 13 iterations at t[s]:   6768.56
	Linear fluid (dielectric constant: 78.4, screening length: 8.12261 Bohr) occupying 0.404223 of unit cell:	Completed after 6 iterations at t[s]:   6797.52
	FillingsUpdate:  mu: -0.097800000  nElectrons: 546.490598  magneticMoment: [ Abs: 0.00000  Tot: -0.00000 ]
	SubspaceRotationAdjust: set factor to 0.00681
ElecMinimize: Iter:  23  G: -2971.987823850918630  |grad|_K:  1.048e-07  alpha:  4.594e-01  linmin:  8.032e-06  t[s]:   6839.73
	Linear fluid (dielectric constant: 78.4, screening length: 8.12261 Bohr) occupying 0.404210 of unit cell:	Completed after 9 iterations at t[s]:   6878.97
	Linear fluid (dielectric constant: 78.4, screening length: 8.12261 Bohr) occupying 0.404202 of unit cell:	Completed after 9 iterations at t[s]:   6908.02
	FillingsUpdate:  mu: -0.097800000  nElectrons: 546.488880  magneticMoment: [ Abs: 0.00000  Tot: -0.00000 ]
	SubspaceRotationAdjust: set factor to 0.00736
ElecMinimize: Iter:  24  G: -2971.987827342591117  |grad|_K:  1.077e-07  alpha:  7.441e-01  linmin: -1.628e-04  t[s]:   6950.47
	Linear fluid (dielectric constant: 78.4, screening length: 8.12261 Bohr) occupying 0.404180 of unit cell:	Completed after 11 iterations at t[s]:   6989.73
	Linear fluid (dielectric constant: 78.4, screening length: 8.12261 Bohr) occupying 0.404180 of unit cell:	Completed after 0 iterations at t[s]:   7017.30
	FillingsUpdate:  mu: -0.097800000  nElectrons: 546.487032  magneticMoment: [ Abs: 0.00000  Tot: -0.00000 ]
	SubspaceRotationAdjust: set factor to 0.00778
ElecMinimize: Iter:  25  G: -2971.987831134262706  |grad|_K:  1.085e-07  alpha:  7.635e-01  linmin: -6.899e-05  t[s]:   7059.62
	Linear fluid (dielectric constant: 78.4, screening length: 8.12261 Bohr) occupying 0.404184 of unit cell:	Completed after 14 iterations at t[s]:   7099.50
	Linear fluid (dielectric constant: 78.4, screening length: 8.12261 Bohr) occupying 0.404183 of unit cell:	Completed after 10 iterations at t[s]:   7128.82
	FillingsUpdate:  mu: -0.097800000  nElectrons: 546.486907  magneticMoment: [ Abs: 0.00000  Tot: -0.00000 ]
	SubspaceRotationAdjust: set factor to 0.00704
ElecMinimize: Iter:  26  G: -2971.987834093821675  |grad|_K:  1.110e-07  alpha:  5.885e-01  linmin:  3.171e-05  t[s]:   7171.16
	Linear fluid (dielectric constant: 78.4, screening length: 8.12261 Bohr) occupying 0.404130 of unit cell:	Completed after 15 iterations at t[s]:   7211.28
[...]
	SubspaceRotationAdjust: set factor to 0.0054
ElecMinimize: Iter:  17  G: -2971.988101672111043  |grad|_K:  5.597e-08  alpha:  4.326e-01  linmin:  1.347e-04  t[s]:  48932.51
	Linear fluid (dielectric constant: 78.4, screening length: 8.12261 Bohr) occupying 0.404174 of unit cell:	Completed after 12 iterations at t[s]:  48972.53
	Linear fluid (dielectric constant: 78.4, screening length: 8.12261 Bohr) occupying 0.404174 of unit cell:	Completed after 0 iterations at t[s]:  49000.16
	FillingsUpdate:  mu: -0.097800000  nElectrons: 546.488449  magneticMoment: [ Abs: 0.00000  Tot: -0.00000 ]
	SubspaceRotationAdjust: set factor to 0.00514
ElecMinimize: Iter:  18  G: -2971.988102280717612  |grad|_K:  4.408e-08  alpha:  4.580e-01  linmin: -8.515e-04  t[s]:  49042.31
	Linear fluid (dielectric constant: 78.4, screening length: 8.12261 Bohr) occupying 0.404175 of unit cell:	Completed after 2 iterations at t[s]:  49080.33
	Linear fluid (dielectric constant: 78.4, screening length: 8.12261 Bohr) occupying 0.404175 of unit cell:	Completed after 0 iterations at t[s]:  49108.05
	FillingsUpdate:  mu: -0.097800000  nElectrons: 546.488251  magneticMoment: [ Abs: 0.00000  Tot: -0.00000 ]
	SubspaceRotationAdjust: set factor to 0.00608
ElecMinimize: Iter:  19  G: -2971.988102791156052  |grad|_K:  3.773e-08  alpha:  5.967e-01  linmin: -6.115e-04  t[s]:  49150.35
	Linear fluid (dielectric constant: 78.4, screening length: 8.12261 Bohr) occupying 0.404171 of unit cell:	Completed after 10 iterations at t[s]:  49189.67
	Linear fluid (dielectric constant: 78.4, screening length: 8.12261 Bohr) occupying 0.404172 of unit cell:	Completed after 2 iterations at t[s]:  49218.11
	FillingsUpdate:  mu: -0.097800000  nElectrons: 546.487836  magneticMoment: [ Abs: 0.00000  Tot: -0.00000 ]
	SubspaceRotationAdjust: set factor to 0.00626
ElecMinimize: Iter:  20  G: -2971.988103112040335  |grad|_K:  3.738e-08  alpha:  5.222e-01  linmin:  1.599e-04  t[s]:  49260.52
	Linear fluid (dielectric constant: 78.4, screening length: 8.12261 Bohr) occupying 0.404182 of unit cell:	Completed after 12 iterations at t[s]:  49300.11
	Linear fluid (dielectric constant: 78.4, screening length: 8.12261 Bohr) occupying 0.404179 of unit cell:	Completed after 5 iterations at t[s]:  49328.57
	FillingsUpdate:  mu: -0.097800000  nElectrons: 546.488243  magneticMoment: [ Abs: 0.00000  Tot: -0.00000 ]
	SubspaceRotationAdjust: set factor to 0.00628
ElecMinimize: Iter:  21  G: -2971.988103339165264  |grad|_K:  3.275e-08  alpha:  3.873e-01  linmin:  1.611e-04  t[s]:  49370.62
	Linear fluid (dielectric constant: 78.4, screening length: 8.12261 Bohr) occupying 0.404180 of unit cell:	Completed after 3 iterations at t[s]:  49408.70
	Linear fluid (dielectric constant: 78.4, screening length: 8.12261 Bohr) occupying 0.404180 of unit cell:	Completed after 3 iterations at t[s]:  49437.07
	FillingsUpdate:  mu: -0.097800000  nElectrons: 546.488159  magneticMoment: [ Abs: 0.00000  Tot: -0.00000 ]
	SubspaceRotationAdjust: set factor to 0.00772
ElecMinimize: Iter:  22  G: -2971.988103603269337  |grad|_K:  3.053e-08  alpha:  5.847e-01  linmin:  1.406e-04  t[s]:  49479.52
	Linear fluid (dielectric constant: 78.4, screening length: 8.12261 Bohr) occupying 0.404180 of unit cell:	Completed after 6 iterations at t[s]:  49518.13
	Linear fluid (dielectric constant: 78.4, screening length: 8.12261 Bohr) occupying 0.404181 of unit cell:	Completed after 0 iterations at t[s]:  49545.71
	FillingsUpdate:  mu: -0.097800000  nElectrons: 546.488179  magneticMoment: [ Abs: 0.00000  Tot: -0.00000 ]
	SubspaceRotationAdjust: set factor to 0.00888
ElecMinimize: Iter:  23  G: -2971.988103892656909  |grad|_K:  3.445e-08  alpha:  7.263e-01  linmin: -7.631e-04  t[s]:  49588.13
	Linear fluid (dielectric constant: 78.4, screening length: 8.12261 Bohr) occupying 0.404197 of unit cell:	Completed after 12 iterations at t[s]:  49627.71
	Linear fluid (dielectric constant: 78.4, screening length: 8.12261 Bohr) occupying 0.404193 of unit cell:	Completed after 5 iterations at t[s]:  49656.49
	FillingsUpdate:  mu: -0.097800000  nElectrons: 546.489011  magneticMoment: [ Abs: 0.00000  Tot: -0.00000 ]
	SubspaceRotationAdjust: set factor to 0.00824
ElecMinimize: Iter:  24  G: -2971.988104175956323  |grad|_K:  4.406e-08  alpha:  5.398e-01  linmin:  4.894e-04  t[s]:  49698.56
	Linear fluid (dielectric constant: 78.4, screening length: 8.12261 Bohr) occupying 0.404191 of unit cell:	Completed after 12 iterations at t[s]:  49738.17
	Linear fluid (dielectric constant: 78.4, screening length: 8.12261 Bohr) occupying 0.404191 of unit cell:	Completed after 3 iterations at t[s]:  49766.45
	FillingsUpdate:  mu: -0.097800000  nElectrons: 546.488912  magneticMoment: [ Abs: 0.00000  Tot: -0.00000 ]
	SubspaceRotationAdjust: set factor to 0.00696
ElecMinimize: Iter:  25  G: -2971.988104495767857  |grad|_K:  3.993e-08  alpha:  3.989e-01  linmin:  1.800e-04  t[s]:  49808.88
	Linear fluid (dielectric constant: 78.4, screening length: 8.12261 Bohr) occupying 0.404199 of unit cell:	Completed after 9 iterations at t[s]:  49848.17
	Linear fluid (dielectric constant: 78.4, screening length: 8.12261 Bohr) occupying 0.404201 of unit cell:	Completed after 2 iterations at t[s]:  49876.30
	FillingsUpdate:  mu: -0.097800000  nElectrons: 546.489630  magneticMoment: [ Abs: 0.00000  Tot: -0.00000 ]
	SubspaceRotationAdjust: set factor to 0.0069
ElecMinimize: Iter:  26  G: -2971.988104854253379  |grad|_K:  3.522e-08  alpha:  5.240e-01  linmin: -1.257e-03  t[s]:  49918.70
	Linear fluid (dielectric constant: 78.4, screening length: 8.12261 Bohr) occupying 0.404203 of unit cell:	Completed after 3 iterations at t[s]:  49957.06
	Linear fluid (dielectric constant: 78.4, screening length: 8.12261 Bohr) occupying 0.404203 of unit cell:	Completed after 2 iterations at t[s]:  49985.11
	FillingsUpdate:  mu: -0.097800000  nElectrons: 546.489849  magneticMoment: [ Abs: 0.00000  Tot: -0.00000 ]
	SubspaceRotationAdjust: set factor to 0.00731
ElecMinimize: Iter:  27  G: -2971.988105225861545  |grad|_K:  3.303e-08  alpha:  6.745e-01  linmin:  1.828e-04  t[s]:  50027.36
	Linear fluid (dielectric constant: 78.4, screening length: 8.12261 Bohr) occupying 0.404206 of unit cell:	Completed after 2 iterations at t[s]:  50065.33
	Linear fluid (dielectric constant: 78.4, screening length: 8.12261 Bohr) occupying 0.404206 of unit cell:	Completed after 0 iterations at t[s]:  50092.97
	FillingsUpdate:  mu: -0.097800000  nElectrons: 546.490070  magneticMoment: [ Abs: 0.00000  Tot: -0.00000 ]
	SubspaceRotationAdjust: set factor to 0.00823
ElecMinimize: Iter:  28  G: -2971.988105504042323  |grad|_K:  2.818e-08  alpha:  6.030e-01  linmin:  1.828e-04  t[s]:  50135.12
	Linear fluid (dielectric constant: 78.4, screening length: 8.12261 Bohr) occupying 0.404208 of unit cell:	Completed after 2 iterations at t[s]:  50173.58
	Linear fluid (dielectric constant: 78.4, screening length: 8.12261 Bohr) occupying 0.404208 of unit cell:	Completed after 0 iterations at t[s]:  50201.23
	FillingsUpdate:  mu: -0.097800000  nElectrons: 546.490253  magneticMoment: [ Abs: 0.00000  Tot: -0.00000 ]
	SubspaceRotationAdjust: set factor to 0.00972
ElecMinimize: Iter:  29  G: -2971.988105707052455  |grad|_K:  2.469e-08  alpha:  6.046e-01  linmin:  1.589e-04  t[s]:  50243.42
	Linear fluid (dielectric constant: 78.4, screening length: 8.12261 Bohr) occupying 0.404206 of unit cell:	Completed after 2 iterations at t[s]:  50281.82
	Linear fluid (dielectric constant: 78.4, screening length: 8.12261 Bohr) occupying 0.404206 of unit cell:	Completed after 0 iterations at t[s]:  50309.46
	FillingsUpdate:  mu: -0.097800000  nElectrons: 546.490093  magneticMoment: [ Abs: 0.00000  Tot: -0.00000 ]
	SubspaceRotationAdjust: set factor to 0.012
ElecMinimize: Iter:  30  G: -2971.988105870426352  |grad|_K:  2.323e-08  alpha:  6.324e-01  linmin: -2.068e-04  t[s]:  50351.73
	Linear fluid (dielectric constant: 78.4, screening length: 8.12261 Bohr) occupying 0.404202 of unit cell:	Completed after 2 iterations at t[s]:  50389.94
	Linear fluid (dielectric constant: 78.4, screening length: 8.12261 Bohr) occupying 0.404202 of unit cell:	Completed after 0 iterations at t[s]:  50417.57
	FillingsUpdate:  mu: -0.097800000  nElectrons: 546.489777  magneticMoment: [ Abs: 0.00000  Tot: -0.00000 ]
	SubspaceRotationAdjust: set factor to 0.0148
ElecMinimize: Iter:  31  G: -2971.988106016592155  |grad|_K:  2.263e-08  alpha:  6.330e-01  linmin: -4.895e-05  t[s]:  50459.91
	Linear fluid (dielectric constant: 78.4, screening length: 8.12261 Bohr) occupying 0.404201 of unit cell:	Completed after 5 iterations at t[s]:  50498.35
	Linear fluid (dielectric constant: 78.4, screening length: 8.12261 Bohr) occupying 0.404201 of unit cell:	Completed after 0 iterations at t[s]:  50526.11
	FillingsUpdate:  mu: -0.097800000  nElectrons: 546.489676  magneticMoment: [ Abs: 0.00000  Tot: -0.00000 ]
	SubspaceRotationAdjust: set factor to 0.015
ElecMinimize: Iter:  32  G: -2971.988106139399861  |grad|_K:  2.769e-08  alpha:  5.627e-01  linmin:  6.521e-04  t[s]:  50568.16
	Linear fluid (dielectric constant: 78.4, screening length: 8.12261 Bohr) occupying 0.404180 of unit cell:	Completed after 12 iterations at t[s]:  50607.92
	Linear fluid (dielectric constant: 78.4, screening length: 8.12261 Bohr) occupying 0.404193 of unit cell:	Completed after 10 iterations at t[s]:  50637.37
	FillingsUpdate:  mu: -0.097800000  nElectrons: 546.489080  magneticMoment: [ Abs: 0.00000  Tot: -0.00000 ]
	SubspaceRotationAdjust: set factor to 0.0115
ElecMinimize: Iter:  33  G: -2971.988106208639692  |grad|_K:  2.568e-08  alpha:  2.121e-01  linmin:  3.171e-04  t[s]:  50679.80
	Linear fluid (dielectric constant: 78.4, screening length: 8.12261 Bohr) occupying 0.404193 of unit cell:	Completed after 2 iterations at t[s]:  50718.04
	Linear fluid (dielectric constant: 78.4, screening length: 8.12261 Bohr) occupying 0.404193 of unit cell:	Completed after 7 iterations at t[s]:  50747.03
	FillingsUpdate:  mu: -0.097800000  nElectrons: 546.488920  magneticMoment: [ Abs: 0.00000  Tot: -0.00000 ]
	SubspaceRotationAdjust: set factor to 0.00988
ElecMinimize: Iter:  34  G: -2971.988106311952379  |grad|_K:  2.181e-08  alpha:  4.133e-01  linmin:  3.044e-03  t[s]:  50789.21
	Linear fluid (dielectric constant: 78.4, screening length: 8.12261 Bohr) occupying 0.404187 of unit cell:	Completed after 2 iterations at t[s]:  50827.46
	Linear fluid (dielectric constant: 78.4, screening length: 8.12261 Bohr) occupying 0.404186 of unit cell:	Completed after 0 iterations at t[s]:  50855.24
	FillingsUpdate:  mu: -0.097800000  nElectrons: 546.488400  magneticMoment: [ Abs: 0.00000  Tot: -0.00000 ]
	SubspaceRotationAdjust: set factor to 0.0102
ElecMinimize: Iter:  35  G: -2971.988106395150226  |grad|_K:  1.754e-08  alpha:  4.610e-01  linmin: -8.387e-04  t[s]:  50897.27
	Linear fluid (dielectric constant: 78.4, screening length: 8.12261 Bohr) occupying 0.404185 of unit cell:	Completed after 2 iterations at t[s]:  50935.58
	Linear fluid (dielectric constant: 78.4, screening length: 8.12261 Bohr) occupying 0.404184 of unit cell:	Completed after 0 iterations at t[s]:  50963.47
	FillingsUpdate:  mu: -0.097800000  nElectrons: 546.488190  magneticMoment: [ Abs: 0.00000  Tot: -0.00000 ]
	SubspaceRotationAdjust: set factor to 0.0114
ElecMinimize: Iter:  36  G: -2971.988106464457360  |grad|_K:  1.646e-08  alpha:  5.169e-01  linmin: -8.566e-04  t[s]:  51005.82
ElecMinimize: Converged (|Delta G|<1.000000e-07 for 2 iters).
Setting wave functions to eigenvectors of Hamiltonian
Converging empty states (this may take a while): |deigs|: 5.075e-08

Computing DFT-D3 correction:
# coordination-number Pt 7.016 9.343 5.928 7.107 9.343 9.533 9.566 9.228 9.561 9.594 9.554 9.358 9.597 9.564 9.245 7.080 7.490 9.246 9.566 7.487 9.357 9.553 9.594 9.228 9.566 9.595 9.533 9.343 7.105 9.561 9.344 7.016 7.082 5.928
# diagonal-C6 Pt 336.87 336.87 336.87 336.87 336.87 336.87 336.87 336.87 336.87 336.87 336.87 336.87 336.87 336.87 336.87 336.87 336.87 336.87 336.87 336.87 336.87 336.87 336.87 336.87 336.87 336.87 336.87 336.87 336.87 336.87 336.87 336.87 336.87 336.87
EvdW_6 =   -0.315887
EvdW_8 =   -0.498264

# Ionic positions in cartesian coordinates:
ion Pt  -0.000931405966181  12.480110898629940   1.322589818809876 1
ion Pt   5.231236301223839  16.579597890817983   5.124995929765213 1
ion Pt   5.232718591264481  21.874506567079461  29.770691921879308 1
ion Pt   5.231026917012628   3.792698726190821   2.909153069108586 1
ion Pt   5.231277654199533   7.601542032232505   6.741867422983750 1
ion Pt   5.231563352580813  11.442829969167622  10.398950542654744 1
ion Pt   0.000253416931303  18.994968199303745  17.491897580214772 1
ion Pt   5.231319119192658  20.411403840824416   8.472906986938915 1
ion Pt   5.231829153842296   2.552699686895336  12.036180092362320 1
ion Pt   5.232163460659015   6.336137570412903  15.654080479111640 1
ion Pt   0.000366025495746  10.153423714178874  19.299965535225212 1
ion Pt   0.000788708588726  13.965078587006456  23.021468348478241 1
ion Pt   5.231777779892171  15.245135531820379  13.965965195676045 1
ion Pt   5.232587720507111   1.196803862831977  20.980824923276053 1
ion Pt   0.000745398949885   5.078561968868454  24.572223526967992 1
ion Pt   0.000877291115035   8.972959801678485  28.373540872917001 1
ion Pt   5.232748093495000  17.711187587729000  26.878868305158168 1
ion Pt   2.615266112342841  12.051266031603847   5.935324273415352 1
ion Pt   2.615437458554734  15.935522750730408   9.526787735431290 1
ion Pt   2.615070443765594  20.990365102029092   3.627910208168397 1
ion Pt   2.615281530742899   3.165191491959507   7.485882132132337 1
ion Pt   2.615713162937717   6.979092026550577  11.207264629957349 1
ion Pt   2.615900877888547  10.797204091621625  14.853162180127223 1
ion Pt   2.616677851603590  18.291432167557623  22.034331719978834 1
ion Pt   2.615771313034420  19.709809479797336  13.015838766609068 1
ion Pt   2.616309635914002   1.888422936305564  16.541680833468540 1
ion Pt   2.616546851577062   5.690640058239678  20.108799101542786 1
ion Pt   2.616811498254573   9.529802340422098  23.765887832278853 1
ion Pt   2.616843282104843  13.337186667082452  27.598771235401259 1
ion Pt   2.616253304686799  14.580224387064517  18.471046414156493 1
ion Pt   2.616677636694881   0.549677096940248  25.382586002594792 1
ion Pt   2.616802950235931   4.646717083893050  29.184731793200392 1
ion Pt   2.615071054264166   8.155088402012048   2.134126405148026 1
ion Pt   2.615139456413337  16.823909450522148   0.737397184861193 1

# Forces in Cartesian coordinates:
force Pt  -0.000002807550358  -0.000105692086833  -0.000066957305912 1
force Pt  -0.000001545837891  -0.000210227578113  -0.000105757376643 1
force Pt   0.000003177721911   0.000233709624926   0.000142259454918 1
force Pt  -0.000003659660218  -0.000304795009446  -0.000054755120662 1
force Pt  -0.000001703381072  -0.000242484608571   0.000015094104905 1
force Pt  -0.000000809594271  -0.000157615062173  -0.000075209030226 1
force Pt   0.000000931219328  -0.000013212835530  -0.000152684496099 1
force Pt  -0.000001340443926  -0.000108501107447   0.000052262981819 1
force Pt  -0.000000109778950  -0.000117265228313   0.000102757505623 1
force Pt   0.000000704898521   0.000001822446370   0.000017642528900 1
force Pt   0.000001247383498   0.000129332049621   0.000022632032767 1
force Pt   0.000001887418443   0.000031196145608   0.000089253964996 1
force Pt   0.000000806889058   0.000073203495948   0.000055252100253 1
force Pt   0.000001976780232   0.000069319235928   0.000025899092390 1
force Pt   0.000001994400586   0.000109046581029   0.000044482505655 1
force Pt   0.000002855729994   0.000214952032558   0.000049067966344 1
force Pt   0.000004089642939   0.000007944341130   0.000017664210801 1
force Pt  -0.000002357605564  -0.000120310401057  -0.000035514859812 1
force Pt  -0.000001117070587  -0.000092083741797  -0.000047046985543 1
force Pt  -0.000003310088513  -0.000041154268929  -0.000020598534845 1
force Pt  -0.000001708113262  -0.000034253694501  -0.000070898643446 1
force Pt  -0.000000529547206  -0.000149615310261  -0.000032077364427 1
force Pt  -0.000000465510544  -0.000038539866122  -0.000020724701177 1
force Pt   0.000001877770329   0.000075176634834  -0.000039218842172 1
force Pt  -0.000000237302940   0.000018466423588   0.000150759539181 1
force Pt   0.000000642119038  -0.000062531021967  -0.000067765320350 1
force Pt   0.000001129508203   0.000126002397442   0.000045817486330 1
force Pt   0.000001767682364   0.000236369669449   0.000013912493729 1
force Pt   0.000003316834028   0.000275592287459   0.000038241009848 1
force Pt   0.000000333523451   0.000117496845022  -0.000085536559482 1
force Pt   0.000002571692190   0.000175012349955   0.000109139087009 1
force Pt   0.000002677965660   0.000114781907227   0.000071096424754 1
force Pt  -0.000003005851929  -0.000200254574391  -0.000065861279199 1
force Pt  -0.000002697657188  -0.000259619772197  -0.000139941802651 1

# Energy components:
   A_diel =       -1.3274833870990601
   Eewald =    18241.0042812678730115
       EH =    21045.0484869431784318
     Eloc =   -42834.1832964694549446
      Enl =      -35.8271821093351193
     EvdW =       -0.8141513428706481
      Exc =     -967.9915692976287573
 Exc_core =      557.3069540172787129
       KE =      971.5502607170053579
  MuShift =       -0.1950230876721477
-------------------------------------
     Etot =    -3025.4287227487261589
       TS =        0.0059286764171729
-------------------------------------
        F =    -3025.4346514251433291
      muN =      -53.4465449606859124
-------------------------------------
        G =    -2971.9881064644573598


Dumping 'jdft.fillings' ... done
Dumping 'jdft.wfns' ... done
Dumping 'jdft.fluidState' ... done
Dumping 'jdft.ionpos' ... done
Dumping 'jdft.lattice' ... done
Dumping 'jdft.eigenvals' ... done
Dumping 'jdft.eigStats' ... 
	eMin: -2.048118 at state 23 ( [ +0.000000 +0.500000 +0.000000 ] spin -1 )
	HOMO: -0.097993 at state 6 ( [ +0.272727 +0.000000 +0.000000 ] spin 1 )
	mu  : -0.097800
	LUMO: -0.097597 at state 23 ( [ +0.000000 +0.500000 +0.000000 ] spin -1 )
	eMax: +0.183789 at state 12 ( [ -0.454545 +0.000000 +0.000000 ] spin 1 )
	HOMO-LUMO gap: +0.000395
	Optical gap  : +0.000698 at state 32 ( [ +0.454545 +0.000000 +0.000000 ] spin -1 )
Dumping 'jdft.Ecomponents' ... done
IonicMinimize: Iter:  10  G: -2971.988106464457360  |grad|_K:  9.695e-05  alpha:  1.000e+00  linmin: -5.185e-01  t[s]:  51184.45
IonicMinimize: Converged (|grad|_K<1.000000e-04).

#--- Lowdin population analysis ---
# oxidation-state Pt -0.260 -0.019 -0.337 -0.218 +0.008 +0.011 +0.012 +0.015 +0.014 +0.009 +0.012 +0.005 +0.009 +0.009 +0.004 -0.238 -0.119 +0.005 +0.009 -0.120 +0.005 +0.013 +0.009 +0.015 +0.012 +0.009 +0.011 +0.008 -0.218 +0.014 -0.019 -0.260 -0.238 -0.337
# magnetic-moments Pt -0.000 -0.000 -0.000 -0.000 -0.000 -0.000 -0.000 -0.000 -0.000 -0.000 -0.000 -0.000 -0.000 -0.000 -0.000 -0.000 -0.000 -0.000 -0.000 -0.000 -0.000 -0.000 -0.000 -0.000 -0.000 -0.000 -0.000 -0.000 -0.000 -0.000 -0.000 -0.000 -0.000 -0.000


Dumping 'jdft.n_up' ... done
Dumping 'jdft.n_dn' ... done
Dumping 'jdft.tau_up' ... done
Dumping 'jdft.tau_dn' ... done
Dumping 'jdft.eigenvals' ... done
Dumping 'jdft.eigStats' ... 
	eMin: -2.048118 at state 23 ( [ +0.000000 +0.500000 +0.000000 ] spin -1 )
	HOMO: -0.097993 at state 6 ( [ +0.272727 +0.000000 +0.000000 ] spin 1 )
	mu  : -0.097800
	LUMO: -0.097597 at state 23 ( [ +0.000000 +0.500000 +0.000000 ] spin -1 )
	eMax: +0.183789 at state 12 ( [ -0.454545 +0.000000 +0.000000 ] spin 1 )
	HOMO-LUMO gap: +0.000395
	Optical gap  : +0.000698 at state 32 ( [ +0.454545 +0.000000 +0.000000 ] spin -1 )
Dumping 'jdft.kPts' ... done
Dumping 'jdft.dosUp' ... done.
Dumping 'jdft.dosDn' ... done.
End date and time: Thu Dec  9 20:00:39 2021  (Duration: 0-14:14:10.21)
Done!
