
*************** JDFTx 1.6.0  ***************

Start date and time: Mon Dec  6 16:49:06 2021
Executable /projects/musgravc/apps/jdftx-1.6.1/build/jdftx with command-line: -i in
Running on hosts (process indices):  shas0557.rc.int.colorado.edu (0-23)
Divided in process groups (process indices):  0 (0)  1 (1)  2 (2)  3 (3)  4 (4)  5 (5)  6 (6)  7 (7)  8 (8)  9 (9)  10 (10)  11 (11)  12 (12)  13 (13)  14 (14)  15 (15)  16 (16)  17 (17)  18 (18)  19 (19)  20 (20)  21 (21)  22 (22)  23 (23)
Resource initialization completed at t[s]:      0.00
Run totals: 24 processes, 24 threads, 0 GPUs


Input parsed successfully to the following command list (including defaults):

basis kpoint-dependent
converge-empty-states yes
coords-type Cartesian
core-overlap-check none
coulomb-interaction Periodic
davidson-band-ratio 1.1
density-of-states Etol 1.000000e-06 Esigma 1.000000e-03 \
		Complete \
	Total \
	OrthoOrbital Pt 1   s \
	OrthoOrbital Pt 1   p \
	OrthoOrbital Pt 1   px \
	OrthoOrbital Pt 1   py \
	OrthoOrbital Pt 1   pz \
	OrthoOrbital Pt 1   d \
	OrthoOrbital Pt 1   dxy \
	OrthoOrbital Pt 1   dyz \
	OrthoOrbital Pt 1   dz2 \
	OrthoOrbital Pt 1   dxz \
	OrthoOrbital Pt 1   dx2-y2 \
	OrthoOrbital Pt 2   s \
	OrthoOrbital Pt 2   p \
	OrthoOrbital Pt 2   px \
	OrthoOrbital Pt 2   py \
	OrthoOrbital Pt 2   pz \
	OrthoOrbital Pt 2   d \
	OrthoOrbital Pt 2   dxy \
	OrthoOrbital Pt 2   dyz \
	OrthoOrbital Pt 2   dz2 \
	OrthoOrbital Pt 2   dxz \
	OrthoOrbital Pt 2   dx2-y2 \
	OrthoOrbital Pt 3   s \
	OrthoOrbital Pt 3   p \
	OrthoOrbital Pt 3   px \
	OrthoOrbital Pt 3   py \
	OrthoOrbital Pt 3   pz \
	OrthoOrbital Pt 3   d \
	OrthoOrbital Pt 3   dxy \
	OrthoOrbital Pt 3   dyz \
	OrthoOrbital Pt 3   dz2 \
	OrthoOrbital Pt 3   dxz \
	OrthoOrbital Pt 3   dx2-y2 \
	OrthoOrbital Pt 4   s \
	OrthoOrbital Pt 4   p \
	OrthoOrbital Pt 4   px \
	OrthoOrbital Pt 4   py \
	OrthoOrbital Pt 4   pz \
	OrthoOrbital Pt 4   d \
	OrthoOrbital Pt 4   dxy \
	OrthoOrbital Pt 4   dyz \
	OrthoOrbital Pt 4   dz2 \
	OrthoOrbital Pt 4   dxz \
	OrthoOrbital Pt 4   dx2-y2 \
	OrthoOrbital Pt 5   s \
	OrthoOrbital Pt 5   p \
	OrthoOrbital Pt 5   px \
	OrthoOrbital Pt 5   py \
	OrthoOrbital Pt 5   pz \
	OrthoOrbital Pt 5   d \
	OrthoOrbital Pt 5   dxy \
	OrthoOrbital Pt 5   dyz \
	OrthoOrbital Pt 5   dz2 \
	OrthoOrbital Pt 5   dxz \
	OrthoOrbital Pt 5   dx2-y2 \
	OrthoOrbital Pt 6   s \
	OrthoOrbital Pt 6   p \
	OrthoOrbital Pt 6   px \
	OrthoOrbital Pt 6   py \
	OrthoOrbital Pt 6   pz \
	OrthoOrbital Pt 6   d \
	OrthoOrbital Pt 6   dxy \
	OrthoOrbital Pt 6   dyz \
	OrthoOrbital Pt 6   dz2 \
	OrthoOrbital Pt 6   dxz \
	OrthoOrbital Pt 6   dx2-y2 \
	OrthoOrbital Pt 7   s \
	OrthoOrbital Pt 7   p \
	OrthoOrbital Pt 7   px \
	OrthoOrbital Pt 7   py \
	OrthoOrbital Pt 7   pz \
	OrthoOrbital Pt 7   d \
	OrthoOrbital Pt 7   dxy \
	OrthoOrbital Pt 7   dyz \
	OrthoOrbital Pt 7   dz2 \
	OrthoOrbital Pt 7   dxz \
	OrthoOrbital Pt 7   dx2-y2 \
	OrthoOrbital Pt 8   s \
	OrthoOrbital Pt 8   p \
	OrthoOrbital Pt 8   px \
	OrthoOrbital Pt 8   py \
	OrthoOrbital Pt 8   pz \
	OrthoOrbital Pt 8   d \
	OrthoOrbital Pt 8   dxy \
	OrthoOrbital Pt 8   dyz \
	OrthoOrbital Pt 8   dz2 \
	OrthoOrbital Pt 8   dxz \
	OrthoOrbital Pt 8   dx2-y2 \
	OrthoOrbital Pt 9   s \
	OrthoOrbital Pt 9   p \
	OrthoOrbital Pt 9   px \
	OrthoOrbital Pt 9   py \
	OrthoOrbital Pt 9   pz \
	OrthoOrbital Pt 9   d \
	OrthoOrbital Pt 9   dxy \
	OrthoOrbital Pt 9   dyz \
	OrthoOrbital Pt 9   dz2 \
	OrthoOrbital Pt 9   dxz \
	OrthoOrbital Pt 9   dx2-y2 \
	OrthoOrbital Pt 10   s \
	OrthoOrbital Pt 10   p \
	OrthoOrbital Pt 10   px \
	OrthoOrbital Pt 10   py \
	OrthoOrbital Pt 10   pz \
	OrthoOrbital Pt 10   d \
	OrthoOrbital Pt 10   dxy \
	OrthoOrbital Pt 10   dyz \
	OrthoOrbital Pt 10   dz2 \
	OrthoOrbital Pt 10   dxz \
	OrthoOrbital Pt 10   dx2-y2 \
	OrthoOrbital Pt 11   s \
	OrthoOrbital Pt 11   p \
	OrthoOrbital Pt 11   px \
	OrthoOrbital Pt 11   py \
	OrthoOrbital Pt 11   pz \
	OrthoOrbital Pt 11   d \
	OrthoOrbital Pt 11   dxy \
	OrthoOrbital Pt 11   dyz \
	OrthoOrbital Pt 11   dz2 \
	OrthoOrbital Pt 11   dxz \
	OrthoOrbital Pt 11   dx2-y2 \
	OrthoOrbital Pt 12   s \
	OrthoOrbital Pt 12   p \
	OrthoOrbital Pt 12   px \
	OrthoOrbital Pt 12   py \
	OrthoOrbital Pt 12   pz \
	OrthoOrbital Pt 12   d \
	OrthoOrbital Pt 12   dxy \
	OrthoOrbital Pt 12   dyz \
	OrthoOrbital Pt 12   dz2 \
	OrthoOrbital Pt 12   dxz \
	OrthoOrbital Pt 12   dx2-y2 \
	OrthoOrbital Pt 13   s \
	OrthoOrbital Pt 13   p \
	OrthoOrbital Pt 13   px \
	OrthoOrbital Pt 13   py \
	OrthoOrbital Pt 13   pz \
	OrthoOrbital Pt 13   d \
	OrthoOrbital Pt 13   dxy \
	OrthoOrbital Pt 13   dyz \
	OrthoOrbital Pt 13   dz2 \
	OrthoOrbital Pt 13   dxz \
	OrthoOrbital Pt 13   dx2-y2 \
	OrthoOrbital Pt 14   s \
	OrthoOrbital Pt 14   p \
	OrthoOrbital Pt 14   px \
	OrthoOrbital Pt 14   py \
	OrthoOrbital Pt 14   pz \
	OrthoOrbital Pt 14   d \
	OrthoOrbital Pt 14   dxy \
	OrthoOrbital Pt 14   dyz \
	OrthoOrbital Pt 14   dz2 \
	OrthoOrbital Pt 14   dxz \
	OrthoOrbital Pt 14   dx2-y2 \
	OrthoOrbital Pt 15   s \
	OrthoOrbital Pt 15   p \
	OrthoOrbital Pt 15   px \
	OrthoOrbital Pt 15   py \
	OrthoOrbital Pt 15   pz \
	OrthoOrbital Pt 15   d \
	OrthoOrbital Pt 15   dxy \
	OrthoOrbital Pt 15   dyz \
	OrthoOrbital Pt 15   dz2 \
	OrthoOrbital Pt 15   dxz \
	OrthoOrbital Pt 15   dx2-y2 \
	OrthoOrbital Pt 16   s \
	OrthoOrbital Pt 16   p \
	OrthoOrbital Pt 16   px \
	OrthoOrbital Pt 16   py \
	OrthoOrbital Pt 16   pz \
	OrthoOrbital Pt 16   d \
	OrthoOrbital Pt 16   dxy \
	OrthoOrbital Pt 16   dyz \
	OrthoOrbital Pt 16   dz2 \
	OrthoOrbital Pt 16   dxz \
	OrthoOrbital Pt 16   dx2-y2 \
	OrthoOrbital Pt 17   s \
	OrthoOrbital Pt 17   p \
	OrthoOrbital Pt 17   px \
	OrthoOrbital Pt 17   py \
	OrthoOrbital Pt 17   pz \
	OrthoOrbital Pt 17   d \
	OrthoOrbital Pt 17   dxy \
	OrthoOrbital Pt 17   dyz \
	OrthoOrbital Pt 17   dz2 \
	OrthoOrbital Pt 17   dxz \
	OrthoOrbital Pt 17   dx2-y2 \
	OrthoOrbital Pt 18   s \
	OrthoOrbital Pt 18   p \
	OrthoOrbital Pt 18   px \
	OrthoOrbital Pt 18   py \
	OrthoOrbital Pt 18   pz \
	OrthoOrbital Pt 18   d \
	OrthoOrbital Pt 18   dxy \
	OrthoOrbital Pt 18   dyz \
	OrthoOrbital Pt 18   dz2 \
	OrthoOrbital Pt 18   dxz \
	OrthoOrbital Pt 18   dx2-y2 \
	OrthoOrbital Pt 19   s \
	OrthoOrbital Pt 19   p \
	OrthoOrbital Pt 19   px \
	OrthoOrbital Pt 19   py \
	OrthoOrbital Pt 19   pz \
	OrthoOrbital Pt 19   d \
	OrthoOrbital Pt 19   dxy \
	OrthoOrbital Pt 19   dyz \
	OrthoOrbital Pt 19   dz2 \
	OrthoOrbital Pt 19   dxz \
	OrthoOrbital Pt 19   dx2-y2
dump End ElecDensity KEdensity BandEigs EigStats RhoAtom DOS Kpoints
dump Ionic State IonicPositions Lattice EigStats Ecomponents
dump 
dump 
dump 
dump 
dump 
dump 
dump 
dump 
dump-name jdft.$VAR
elec-cutoff 20
elec-eigen-algo Davidson
elec-ex-corr gga-PBE
elec-initial-magnetization 0.000000 no
elec-n-bands 183
elec-smearing Fermi 0.001
electronic-minimize  \
	dirUpdateScheme      FletcherReeves \
	linminMethod         DirUpdateRecommended \
	nIterations          100 \
	history              15 \
	knormThreshold       0 \
	energyDiffThreshold  1e-07 \
	nEnergyDiff          2 \
	alphaTstart          1 \
	alphaTmin            1e-10 \
	updateTestStepSize   yes \
	alphaTreduceFactor   0.1 \
	alphaTincreaseFactor 3 \
	nAlphaAdjustMax      3 \
	wolfeEnergy          0.0001 \
	wolfeGradient        0.9 \
	fdTest               no
exchange-regularization WignerSeitzTruncated
fluid LinearPCM 298.000000 1.013250
fluid-anion F- 0.5 MeanFieldLJ \
	epsBulk 1 \
	pMol 0 \
	epsInf 1 \
	Pvap 0 \
	sigmaBulk 0 \
	Rvdw 2.24877 \
	Res 0 \
	tauNuc 343133
fluid-cation Na+ 0.5 MeanFieldLJ \
	epsBulk 1 \
	pMol 0 \
	epsInf 1 \
	Pvap 0 \
	sigmaBulk 0 \
	Rvdw 2.19208 \
	Res 0 \
	tauNuc 343133
fluid-ex-corr lda-TF lda-PZ
fluid-gummel-loop 10 1.000000e-05
fluid-minimize  \
	dirUpdateScheme      PolakRibiere \
	linminMethod         DirUpdateRecommended \
	nIterations          400 \
	history              15 \
	knormThreshold       1e-11 \
	energyDiffThreshold  0 \
	nEnergyDiff          2 \
	alphaTstart          1 \
	alphaTmin            1e-10 \
	updateTestStepSize   yes \
	alphaTreduceFactor   0.1 \
	alphaTincreaseFactor 3 \
	nAlphaAdjustMax      6 \
	wolfeEnergy          0.0001 \
	wolfeGradient        0.9 \
	fdTest               no
fluid-solvent H2O 55.338 ScalarEOS \
	epsBulk 78.4 \
	pMol 0.92466 \
	epsInf 1.77 \
	Pvap 1.06736e-10 \
	sigmaBulk 4.62e-05 \
	Rvdw 2.61727 \
	Res 1.42 \
	tauNuc 343133 \
	poleEl 15 7 1
forces-output-coords Positions
ion Pt  -0.000002000000000   7.201812000000000  63.655619000000002 1
ion Pt   2.615997999999999   3.000756000000000  61.958122000000003 1
ion Pt   2.615995999999999  10.202567999999999  60.260688999999999 1
ion Pt   0.000000000000000   0.000000000000000  33.100931999999993 1
ion Pt  -0.000000000000000   6.001512000000000  58.563191999999994 1
ion Pt   2.615994999999999   1.800456000000000  56.865694999999995 1
ion Pt   2.615998999999999   9.002268000000001  55.168197999999990 1
ion Pt  -0.000002000000000   4.801212000000000  53.470702000000003 1
ion Pt   2.615998000000000   0.600156000000000  51.773268999999999 1
ion Pt   2.615995999999999   7.801968000000000  50.075771999999994 1
ion Pt   0.000003000000000   3.600900000000000  48.378274999999995 1
ion Pt   0.000001000000000  10.802712000000000  46.680777999999997 1
ion Pt   2.616001000000000   6.601656000000000  44.983280999999998 1
ion Pt  -0.000000000000000   2.400600000000000  43.285848999999999 1
ion Pt   0.000003000000000   9.602411999999999  41.588351999999993 1
ion Pt   2.615997999999999   5.401356000000000  39.890854999999995 1
ion Pt   0.000003000000000   1.200300000000000  38.193358000000003 1
ion Pt   0.000000999999999   8.402112000000001  36.495860999999998 1
ion Pt   2.616000999999999   4.201056000000000  34.798428999999992 1
ion-species /projects/musgravc/apps/jdftx-1.6.0/build/pseudopotentials/GBRV_v1.5/$ID_pbe_v1.uspp
ion-species /projects/musgravc/apps/jdftx-1.6.0/build/pseudopotentials/GBRV_v1.5/$ID_pbe_v1.2.uspp
ion-species /projects/musgravc/apps/jdftx-1.6.0/build/pseudopotentials/GBRV_v1.5/$ID_pbe_v1.4.uspp
ion-species /projects/musgravc/apps/jdftx-1.6.0/build/pseudopotentials/GBRV_v1.5/$ID_pbe_v1.5.uspp
ion-width Ecut
ionic-minimize  \
	dirUpdateScheme      L-BFGS \
	linminMethod         DirUpdateRecommended \
	nIterations          100 \
	history              15 \
	knormThreshold       0.0001 \
	energyDiffThreshold  1e-06 \
	nEnergyDiff          2 \
	alphaTstart          1 \
	alphaTmin            1e-10 \
	updateTestStepSize   yes \
	alphaTreduceFactor   0.1 \
	alphaTincreaseFactor 3 \
	nAlphaAdjustMax      3 \
	wolfeEnergy          0.0001 \
	wolfeGradient        0.9 \
	fdTest               no
kpoint   0.000000000000   0.000000000000   0.000000000000  1.00000000000000
kpoint-folding 11 5 1 
latt-move-scale 0 0 0
latt-scale 1 1 1 
lattice  \
	   5.231996000000000   -2.615997000000000    0.000000000000000  \
	   0.000000000000000   11.402868000000000    0.000000000000000  \
	   0.000000000000000    0.000000000000000   64.504367000000002 
lattice-minimize  \
	dirUpdateScheme      L-BFGS \
	linminMethod         DirUpdateRecommended \
	nIterations          0 \
	history              15 \
	knormThreshold       0 \
	energyDiffThreshold  1e-06 \
	nEnergyDiff          2 \
	alphaTstart          1 \
	alphaTmin            1e-10 \
	updateTestStepSize   yes \
	alphaTreduceFactor   0.1 \
	alphaTincreaseFactor 3 \
	nAlphaAdjustMax      3 \
	wolfeEnergy          0.0001 \
	wolfeGradient        0.9 \
	fdTest               no
lcao-params 30 1e-06 0.001
pcm-variant CANDLE
spintype z-spin
subspace-rotation-factor 1 yes
symmetries none
symmetry-threshold 0.0001
target-mu -0.1713 no

van-der-waals D3


Applied RMS atom displacement 0 bohrs to make symmetries exact.

---------- Initializing the Grid ----------
R = 
[        5.232       -2.616            0  ]
[            0      11.4029            0  ]
[            0            0      64.5044  ]
unit cell volume = 3848.32
G =
[    1.20092   0.275509         -0  ]
[          0   0.551018          0  ]
[          0         -0  0.0974071  ]
Minimum fftbox size, Smin = [  24  48  260  ]
Chosen fftbox size, S = [  24  48  270  ]

---------- Exchange Correlation functional ----------
Initalized PBE GGA exchange.
Initalized PBE GGA correlation.

---------- Setting up pseudopotentials ----------
Width of ionic core gaussian charges (only for fluid interactions / plotting) set to 0.397384

Reading pseudopotential file '/projects/musgravc/apps/jdftx-1.6.0/build/pseudopotentials/GBRV_v1.5/pt_pbe_v1.4.uspp':
  Title: Pt.  Created by USPP 7.3.6 on 31-3-15
  Reference state energy: -105.002503.  16 valence electrons in orbitals:
    |510>  occupation: 6  eigenvalue: -2.158104
    |520>  occupation: 9.5  eigenvalue: -0.335376
    |600>  occupation: 0  eigenvalue: -0.319640
    |610>  occupation: 0  eigenvalue: -0.122947
  lMax: 2  lLocal: 3  QijEcut: 5.5
  6 projectors sampled on a log grid with 745 points:
    l: 0  eig: -0.319640  rCut: 2.45
    l: 0  eig: 1.500000  rCut: 2.45
    l: 1  eig: -2.158104  rCut: 1.6
    l: 1  eig: -0.122947  rCut: 1.6
    l: 2  eig: -0.500000  rCut: 1.6
    l: 2  eig: -0.335375  rCut: 1.6
  Partial core density with radius 1.1
  Transforming core density to a uniform radial grid of dG=0.02 with 1284 points.
  Transforming local potential to a uniform radial grid of dG=0.02 with 1284 points.
  Transforming nonlocal projectors to a uniform radial grid of dG=0.02 with 432 points.
  Transforming density augmentations to a uniform radial grid of dG=0.02 with 1284 points.
  Transforming atomic orbitals to a uniform radial grid of dG=0.02 with 432 points.
  Core radius for overlap checks: 2.45 bohrs.

Initialized 1 species with 19 total atoms.

Folded 1 k-points by 11x5x1 to 55 k-points.

---------- Setting up k-points, bands, fillings ----------
No reducable k-points. 
Computing the number of bands and number of electrons
Calculating initial fillings.
nElectrons: 304.000000   nBands: 183   nStates: 110

----- Setting up reduced wavefunction bases (one per k-point) -----
average nbasis = 16439.073 , ideal nbasis = 16440.295

----- Initializing Supercell corresponding to k-point mesh -----
Lattice vector linear combinations in supercell:
[  11   0   0  ]
[   0   5   0  ]
[   0   0   1  ]
Supercell lattice vectors:
[  57.552  -13.08  0  ]
[  0  57.0143  0  ]
[  0  0  64.5044  ]

Initializing DFT-D3 calculator:
	Parameters set for gga-PBE functional
	s6:  1.000  s_r6:  1.217
	s8:  0.722  s_r8:  1.000
	Per-atom parameters loaded for:
	Pt:  sqrtQ[a0]:  5.888  Rcov[a0]:  2.116  CN: [ 0.00 1.92 6.67 ]

Initializing DFT-D2 calculator for fluid / solvation:
	Pt:  C6:  815.23 Eh-a0^6  R0: 3.326 a0 (WARNING: beyond Grimme's data set)

---------- Setting up ewald sum ----------
Optimum gaussian width for ewald sums = 3.827143 bohr.
Real space sum over 1045 unit cells with max indices [  9  5  2  ]
Reciprocal space sum over 6435 terms with max indices [  4  6  27  ]

Computing DFT-D3 correction:
# coordination-number Pt 5.564 7.155 8.721 5.564 9.546 9.555 9.561 9.563 9.563 9.564 9.564 9.564 9.563 9.563 9.561 9.555 9.546 8.721 7.155
# diagonal-C6 Pt 336.87 336.87 336.87 336.87 336.87 336.87 336.87 336.87 336.87 336.87 336.87 336.87 336.87 336.87 336.87 336.87 336.87 336.87 336.87
EvdW_6 =   -0.179231
EvdW_8 =   -0.282349

---------- Allocating electronic variables ----------
Initializing wave functions:  linear combination of atomic orbitals
Pt pseudo-atom occupations:   s ( 0 )  p ( 6 0 )  d ( 10 )
	FillingsUpdate:  mu: -0.171300000  nElectrons: 304.000000  magneticMoment: [ Abs: 0.00247  Tot: +0.00020 ]
LCAOMinimize: Iter:   0  G: -1627.7114606923487372  |grad|_K:  1.631e-02  alpha:  1.000e+00
LCAOMinimize: 	Step increased G by 7.258130e+02, reducing alpha to 1.980387e-02.
LCAOMinimize: 	Step increased G by 2.579813e+00, reducing alpha to 1.980387e-03.
	FillingsUpdate:  mu: -0.171300000  nElectrons: 304.000000  magneticMoment: [ Abs: 0.00240  Tot: +0.00015 ]
LCAOMinimize: Iter:   1  G: -1630.5457053693612579  |grad|_K:  1.352e-02  alpha:  1.980e-03  linmin: -1.515e-01  cgtest:  9.582e-01  t[s]:    171.66
LCAOMinimize: Encountered beta<0, resetting CG.
LCAOMinimize: 	Predicted alpha/alphaT>3.000000, increasing alphaT to 5.941162e-03.
	FillingsUpdate:  mu: -0.171300000  nElectrons: 304.000000  magneticMoment: [ Abs: 0.00213  Tot: +0.00010 ]
LCAOMinimize: Iter:   2  G: -1635.2387404354490172  |grad|_K:  5.448e-03  alpha:  1.131e-02  linmin:  1.139e-01  cgtest: -7.913e-01  t[s]:    225.44
	FillingsUpdate:  mu: -0.171300000  nElectrons: 304.000000  magneticMoment: [ Abs: 0.00208  Tot: +0.00006 ]
LCAOMinimize: Iter:   3  G: -1635.2996638851416265  |grad|_K:  6.117e-03  alpha:  3.861e-03  linmin: -1.063e-03  cgtest:  9.776e-01  t[s]:    268.14
LCAOMinimize: 	Predicted alpha/alphaT>3.000000, increasing alphaT to 1.158316e-02.
	FillingsUpdate:  mu: -0.171300000  nElectrons: 304.000000  magneticMoment: [ Abs: 0.00201  Tot: +0.00006 ]
LCAOMinimize: Iter:   4  G: -1636.5091507947793161  |grad|_K:  2.589e-03  alpha:  1.102e-02  linmin:  5.871e-02  cgtest: -3.858e-01  t[s]:    321.68
	FillingsUpdate:  mu: -0.171300000  nElectrons: 304.000000  magneticMoment: [ Abs: 0.00181  Tot: +0.00002 ]
LCAOMinimize: Iter:   5  G: -1636.9458564461772312  |grad|_K:  2.565e-03  alpha:  3.127e-02  linmin:  2.013e-03  cgtest:  6.304e-01  t[s]:    364.32
	FillingsUpdate:  mu: -0.171300000  nElectrons: 304.000000  magneticMoment: [ Abs: 0.00177  Tot: +0.00002 ]
LCAOMinimize: Iter:   6  G: -1637.1242408362434162  |grad|_K:  1.508e-03  alpha:  9.026e-03  linmin: -8.897e-03  cgtest:  9.972e-02  t[s]:    407.02
LCAOMinimize: 	Predicted alpha/alphaT>3.000000, increasing alphaT to 2.707775e-02.
	FillingsUpdate:  mu: -0.171300000  nElectrons: 304.000000  magneticMoment: [ Abs: 0.00158  Tot: -0.00004 ]
LCAOMinimize: Iter:   7  G: -1637.5000402513628615  |grad|_K:  1.153e-03  alpha:  5.787e-02  linmin:  5.194e-03  cgtest: -1.602e-01  t[s]:    460.62
	FillingsUpdate:  mu: -0.171300000  nElectrons: 304.000000  magneticMoment: [ Abs: 0.00140  Tot: +0.00006 ]
LCAOMinimize: Iter:   8  G: -1637.6889281677981671  |grad|_K:  3.527e-03  alpha:  5.061e-02  linmin:  2.529e-04  cgtest:  3.767e-02  t[s]:    503.65
	FillingsUpdate:  mu: -0.171300000  nElectrons: 304.000000  magneticMoment: [ Abs: 0.00112  Tot: +0.00008 ]
LCAOMinimize: Iter:   9  G: -1637.7835042622566561  |grad|_K:  4.211e-03  alpha:  1.003e-02  linmin:  1.325e-02  cgtest: -6.685e-01  t[s]:    546.31
LCAOMinimize: 	Bad step direction: g.d > 0.
LCAOMinimize: 	Undoing step.
LCAOMinimize: 	Step failed: resetting search direction.
	FillingsUpdate:  mu: -0.171300000  nElectrons: 304.000000  magneticMoment: [ Abs: 0.00112  Tot: +0.00008 ]
LCAOMinimize: Iter:  10  G: -1637.7835042622566561  |grad|_K:  4.211e-03  alpha:  0.000e+00
	FillingsUpdate:  mu: -0.171300000  nElectrons: 304.000000  magneticMoment: [ Abs: 0.00111  Tot: +0.00009 ]
LCAOMinimize: Iter:  11  G: -1637.9446206704944871  |grad|_K:  1.595e-03  alpha:  2.964e-03  linmin: -1.969e-02  cgtest:  1.172e-01  t[s]:    620.55
	FillingsUpdate:  mu: -0.171300000  nElectrons: 304.000000  magneticMoment: [ Abs: 0.00111  Tot: +0.00008 ]
LCAOMinimize: Iter:  12  G: -1637.9908696908778438  |grad|_K:  4.569e-04  alpha:  6.143e-03  linmin:  7.620e-03  cgtest: -1.460e-01  t[s]:    663.32
	FillingsUpdate:  mu: -0.171300000  nElectrons: 304.000000  magneticMoment: [ Abs: 0.00110  Tot: +0.00008 ]
LCAOMinimize: Iter:  13  G: -1637.9972230726107227  |grad|_K:  7.673e-04  alpha:  1.075e-02  linmin:  1.089e-04  cgtest:  1.278e-02  t[s]:    706.04
	FillingsUpdate:  mu: -0.171300000  nElectrons: 304.000000  magneticMoment: [ Abs: 0.00106  Tot: +0.00007 ]
LCAOMinimize: Iter:  14  G: -1638.0433473484231399  |grad|_K:  8.112e-04  alpha:  2.762e-02  linmin:  1.686e-03  cgtest: -7.781e-02  t[s]:    748.75
	FillingsUpdate:  mu: -0.171300000  nElectrons: 304.000000  magneticMoment: [ Abs: 0.00105  Tot: +0.00006 ]
LCAOMinimize: Iter:  15  G: -1638.0550888279431092  |grad|_K:  5.374e-04  alpha:  6.740e-03  linmin:  2.318e-03  cgtest:  2.464e-02  t[s]:    792.00
	FillingsUpdate:  mu: -0.171300000  nElectrons: 304.000000  magneticMoment: [ Abs: 0.00105  Tot: +0.00006 ]
LCAOMinimize: Iter:  16  G: -1638.0590348099335642  |grad|_K:  3.662e-04  alpha:  4.924e-03  linmin:  2.132e-05  cgtest:  4.512e-02  t[s]:    834.66
LCAOMinimize: 	Predicted alpha/alphaT>3.000000, increasing alphaT to 1.477120e-02.
LCAOMinimize: 	Predicted alpha/alphaT>3.000000, increasing alphaT to 4.431361e-02.
	FillingsUpdate:  mu: -0.171300000  nElectrons: 304.000000  magneticMoment: [ Abs: 0.00100  Tot: +0.00008 ]
LCAOMinimize: Iter:  17  G: -1638.0828018146232807  |grad|_K:  1.115e-03  alpha:  6.137e-02  linmin: -8.386e-05  cgtest: -7.530e-02  t[s]:    899.57
	FillingsUpdate:  mu: -0.171300000  nElectrons: 304.000000  magneticMoment: [ Abs: 0.00096  Tot: +0.00009 ]
LCAOMinimize: Iter:  18  G: -1638.1056911000082437  |grad|_K:  6.092e-04  alpha:  5.467e-03  linmin: -4.818e-03  cgtest:  2.199e-01  t[s]:    942.18
	FillingsUpdate:  mu: -0.171300000  nElectrons: 304.000000  magneticMoment: [ Abs: 0.00096  Tot: +0.00008 ]
LCAOMinimize: Iter:  19  G: -1638.1135360714147282  |grad|_K:  2.851e-04  alpha:  6.757e-03  linmin:  1.067e-03  cgtest: -1.745e-01  t[s]:    985.04
	FillingsUpdate:  mu: -0.171300000  nElectrons: 304.000000  magneticMoment: [ Abs: 0.00095  Tot: +0.00008 ]
LCAOMinimize: Iter:  20  G: -1638.1151013640906058  |grad|_K:  3.330e-04  alpha:  6.768e-03  linmin: -1.574e-05  cgtest:  4.360e-02  t[s]:   1027.96
	FillingsUpdate:  mu: -0.171300000  nElectrons: 304.000000  magneticMoment: [ Abs: 0.00094  Tot: +0.00009 ]
LCAOMinimize: Iter:  21  G: -1638.1209743547178732  |grad|_K:  1.665e-04  alpha:  1.834e-02  linmin:  1.693e-04  cgtest: -8.786e-02  t[s]:   1070.90
	FillingsUpdate:  mu: -0.171300000  nElectrons: 304.000000  magneticMoment: [ Abs: 0.00094  Tot: +0.00009 ]
LCAOMinimize: Iter:  22  G: -1638.1216083794690803  |grad|_K:  1.984e-04  alpha:  7.981e-03  linmin: -3.242e-04  cgtest:  5.162e-03  t[s]:   1113.57
	FillingsUpdate:  mu: -0.171300000  nElectrons: 304.000000  magneticMoment: [ Abs: 0.00093  Tot: +0.00009 ]
LCAOMinimize: Iter:  23  G: -1638.1227978902841187  |grad|_K:  2.309e-04  alpha:  1.039e-02  linmin: -4.427e-04  cgtest:  2.893e-03  t[s]:   1156.27
	FillingsUpdate:  mu: -0.171300000  nElectrons: 304.000000  magneticMoment: [ Abs: 0.00092  Tot: +0.00010 ]
LCAOMinimize: Iter:  24  G: -1638.1256637929488988  |grad|_K:  1.432e-04  alpha:  1.817e-02  linmin: -1.891e-03  cgtest:  6.060e-02  t[s]:   1199.08
	FillingsUpdate:  mu: -0.171300000  nElectrons: 304.000000  magneticMoment: [ Abs: 0.00092  Tot: +0.00010 ]
LCAOMinimize: Iter:  25  G: -1638.1259741062499415  |grad|_K:  1.274e-04  alpha:  5.109e-03  linmin: -1.509e-05  cgtest: -3.633e-02  t[s]:   1241.68
	FillingsUpdate:  mu: -0.171300000  nElectrons: 304.000000  magneticMoment: [ Abs: 0.00092  Tot: +0.00011 ]
LCAOMinimize: Iter:  26  G: -1638.1264890462316544  |grad|_K:  1.131e-04  alpha:  1.100e-02  linmin:  1.270e-04  cgtest:  4.975e-02  t[s]:   1284.32
	FillingsUpdate:  mu: -0.171300000  nElectrons: 304.000000  magneticMoment: [ Abs: 0.00092  Tot: +0.00011 ]
LCAOMinimize: Iter:  27  G: -1638.1270207953884892  |grad|_K:  8.919e-05  alpha:  1.441e-02  linmin: -8.627e-04  cgtest:  1.681e-02  t[s]:   1326.83
	FillingsUpdate:  mu: -0.171300000  nElectrons: 304.000000  magneticMoment: [ Abs: 0.00092  Tot: +0.00012 ]
LCAOMinimize: Iter:  28  G: -1638.1275959189169953  |grad|_K:  2.204e-04  alpha:  2.475e-02  linmin: -6.779e-05  cgtest: -9.219e-03  t[s]:   1369.39
	FillingsUpdate:  mu: -0.171300000  nElectrons: 304.000000  magneticMoment: [ Abs: 0.00091  Tot: +0.00014 ]
LCAOMinimize: Iter:  29  G: -1638.1285409398303727  |grad|_K:  5.829e-05  alpha:  6.770e-03  linmin:  4.239e-04  cgtest:  7.849e-03  t[s]:   1412.80
	FillingsUpdate:  mu: -0.171300000  nElectrons: 304.000000  magneticMoment: [ Abs: 0.00091  Tot: +0.00014 ]
LCAOMinimize: Iter:  30  G: -1638.1286215202289895  |grad|_K:  3.051e-05  alpha:  8.280e-03  linmin:  1.709e-03  cgtest: -9.755e-03  t[s]:   1455.36
LCAOMinimize: None of the convergence criteria satisfied after 30 iterations.
----- createFluidSolver() ----- (Fluid-side solver setup)
   Initializing fluid molecule 'H2O'
     Initializing site 'O'
       Electron density: proportional to exp(-r/0.36935)*erfc((r-0.51523)/0.36823) with norm 6.826
       Charge density: gaussian nuclear width 0.478731 with net site charge 0.826
       Polarizability: cuspless exponential with width 0.32 and norm 3.73
       Hard sphere radius: 2.57003 bohrs
       Positions in reference frame:
         [ +0.000000 +0.000000 +0.000000 ]
     Initializing site 'H'
       Electron density: proportional to exp(-r/0.34641)*erfc((r-0)/0.390882) with norm 0.587
       Charge density: gaussian nuclear width 0.377945 with net site charge -0.413
       Polarizability: cuspless exponential with width 0.39 and norm 3.3
       Positions in reference frame:
         [ +0.000000 -1.441945 +1.122523 ]
         [ +0.000000 +1.441945 +1.122523 ]
     Net charge: 0   dipole magnitude: 0.927204
     Initializing spherical shell mfKernel with radius 2.61727 Bohr
     deltaS corrections:
       site 'O': -7.54299
       site 'H': -6.83917
   Initializing fluid molecule 'Na+'
     Initializing site 'Na'
       Electron density: proportional to exp(-r/0.19682)*erfc((r-0.71491)/0.41314) with norm 8.1383
       Charge density: gaussian nuclear width 0.365347 with net site charge -1
       Hard sphere radius: 1.86327 bohrs
       Positions in reference frame:
         [ +0.000000 +0.000000 +0.000000 ]
     Net charge: -1   dipole magnitude: 0
     Initializing gaussian mfKernel with width: 1.55004 Bohr
     deltaS corrections:
       site 'Na': -22.3555
   Initializing fluid molecule 'F-'
     Initializing site 'F'
       Electron density: proportional to exp(-r/0.38886)*erfc((r-0)/0.438782) with norm 8
       Charge density: gaussian nuclear width 0.374796 with net site charge 1
       Hard sphere radius: 2.39995 bohrs
       Positions in reference frame:
         [ +0.000000 +0.000000 +0.000000 ]
     Net charge: 1   dipole magnitude: 0
     Initializing gaussian mfKernel with width: 1.59012 Bohr
     deltaS corrections:
       site 'F': -9.04335

Correction to mu due to finite nuclear width = -0.0783795
   Cavity determined by nc: 0.00142 and sigma: 0.707107
   Nonlocal vdW cavity from gaussian model electron density with norm = 8 and sigma = 0.993594 bohr
   Charge asymmetry in cavity with sensitivity pCavity = 36.5 e-bohr/Eh
   Electrostatic cavity expanded by eta = 1.46 bohrs
   Weighted density cavitation model constrained by Nbulk: 0.0049383 bohr^-3, Pvap: 3.14029 kPa, Rvdw: 2.61727 bohr and sigmaBulk: 4.62e-05 Eh/bohr^2 at T: 298 K.
   Weighted density dispersion model using vdW pair potentials with single solvent site with sqrtC6eff: 0.77 SI.


---- Citations for features of the code used in this run ----

   Software package:
      R. Sundararaman, K. Letchworth-Weaver, K.A. Schwarz, D. Gunceler, Y. Ozhabes and T.A. Arias, 'JDFTx: software for joint density-functional theory', SoftwareX 6, 278 (2017)

   gga-PBE exchange-correlation functional:
      J.P. Perdew, K. Burke and M. Ernzerhof, Phys. Rev. Lett. 77, 3865 (1996)

   Pseudopotentials:
      KF Garrity, JW Bennett, KM Rabe and D Vanderbilt, Comput. Mater. Sci. 81, 446 (2014)

   DFT-D3 dispersion correction:
      S. Grimme, J. Antony, S. Ehrlich and H. Krieg, J. Chem. Phys. 132, 154104 (2010)

   DFT-D2 dispersion correction:
      S. Grimme, J. Comput. Chem. 27, 1787 (2006)

   Charge-asymmetric nonlocally-determined local-electric (CANDLE) solvation model:
      R. Sundararaman and W.A. Goddard III, J. Chem. Phys. 142, 064107 (2015)

   Total energy minimization with Auxiliary Hamiltonian:
      C. Freysoldt, S. Boeck, and J. Neugebauer, Phys. Rev. B 79, 241103(R) (2009)

   Grand-canonical (fixed-potential) DFT:
      R. Sundararaman, W. A. Goddard III and T. A. Arias, J. Chem. Phys. 146, 114104 (2017)

   Linear-tetrahedron sampling for density of states:
      G. Lehmann and M. Taut, Phys. status solidi (b) 54, 469 (1972)

This list may not be complete. Please suggest additional citations or
report any other bugs at https://github.com/shankar1729/jdftx/issues

Initialization completed successfully at t[s]:   1466.11


Computing DFT-D3 correction:
# coordination-number Pt 5.564 7.155 8.721 5.564 9.546 9.555 9.561 9.563 9.563 9.564 9.564 9.564 9.563 9.563 9.561 9.555 9.546 8.721 7.155
# diagonal-C6 Pt 336.87 336.87 336.87 336.87 336.87 336.87 336.87 336.87 336.87 336.87 336.87 336.87 336.87 336.87 336.87 336.87 336.87 336.87 336.87
EvdW_6 =   -0.179231
EvdW_8 =   -0.282349
Fluid solver invoked on fresh (random / LCAO) wavefunctions
Running a vacuum solve first:

-------- Initial electronic minimization -----------
	FillingsUpdate:  mu: +0.305779262  nElectrons: 304.000000  magneticMoment: [ Abs: 0.00091  Tot: +0.00014 ]
ElecMinimize: Iter:   0  G: -1638.132433417262291  |grad|_K:  3.800e-05  alpha:  1.000e+00
	FillingsUpdate:  mu: +0.369823470  nElectrons: 304.000000  magneticMoment: [ Abs: 0.00075  Tot: +0.00017 ]
	SubspaceRotationAdjust: set factor to 0.51
ElecMinimize: Iter:   1  G: -1638.303620496750455  |grad|_K:  1.404e-04  alpha:  3.566e-01  linmin:  4.419e-06  t[s]:   1563.07
ElecMinimize: 	Step increased G by 2.180568e-02, reducing alpha to 7.797183e-04.
	FillingsUpdate:  mu: +0.352386224  nElectrons: 304.000000  magneticMoment: [ Abs: 0.00075  Tot: +0.00017 ]
	SubspaceRotationAdjust: set factor to 0.271
ElecMinimize: Iter:   2  G: -1638.312621224822806  |grad|_K:  7.811e-05  alpha:  7.797e-04  linmin: -4.631e-03  t[s]:   1663.08
ElecMinimize: 	Predicted alpha/alphaT>3.000000, increasing alphaT to 2.339155e-03.
	FillingsUpdate:  mu: +0.343040498  nElectrons: 304.000000  magneticMoment: [ Abs: 0.00074  Tot: +0.00017 ]
	SubspaceRotationAdjust: set factor to 0.18
ElecMinimize: Iter:   3  G: -1638.325917263384554  |grad|_K:  3.557e-05  alpha:  3.727e-03  linmin:  4.033e-05  t[s]:   1739.34
ElecMinimize: 	Predicted alpha/alphaT>3.000000, increasing alphaT to 1.118153e-02.
	FillingsUpdate:  mu: +0.373291476  nElectrons: 304.000000  magneticMoment: [ Abs: 0.00073  Tot: +0.00016 ]
	SubspaceRotationAdjust: set factor to 0.113
	SubspaceRotationAdjust: resetting CG because factor has changed by 0.112776
ElecMinimize: 	State modified externally: resetting search direction.
ElecMinimize: Iter:   4  G: -1638.332944371749818  |grad|_K:  3.112e-05  alpha:  1.675e-02
	FillingsUpdate:  mu: +0.350175413  nElectrons: 304.000000  magneticMoment: [ Abs: 0.00072  Tot: +0.00016 ]
	SubspaceRotationAdjust: set factor to 0.0598
ElecMinimize: Iter:   5  G: -1638.342419519188979  |grad|_K:  2.030e-05  alpha:  2.936e-02  linmin: -3.796e-04  t[s]:   1908.44
ElecMinimize: 	Predicted alpha/alphaT>3.000000, increasing alphaT to 8.808449e-02.
	FillingsUpdate:  mu: +0.314443151  nElectrons: 304.000000  magneticMoment: [ Abs: 0.00063  Tot: +0.00017 ]
	SubspaceRotationAdjust: set factor to 0.0436
ElecMinimize: Iter:   6  G: -1638.368749641288332  |grad|_K:  1.536e-05  alpha:  1.914e-01  linmin:  2.178e-05  t[s]:   1984.34
	FillingsUpdate:  mu: +0.329987593  nElectrons: 304.000000  magneticMoment: [ Abs: 0.00054  Tot: +0.00016 ]
	SubspaceRotationAdjust: set factor to 0.0315
ElecMinimize: Iter:   7  G: -1638.383592946963972  |grad|_K:  1.053e-05  alpha:  1.891e-01  linmin: -8.127e-05  t[s]:   2045.22
	FillingsUpdate:  mu: +0.342247740  nElectrons: 304.000000  magneticMoment: [ Abs: 0.00043  Tot: +0.00016 ]
	SubspaceRotationAdjust: set factor to 0.0253
ElecMinimize: Iter:   8  G: -1638.395242792542831  |grad|_K:  7.447e-06  alpha:  3.148e-01  linmin: -1.792e-05  t[s]:   2106.13
	FillingsUpdate:  mu: +0.328284616  nElectrons: 304.000000  magneticMoment: [ Abs: 0.00040  Tot: +0.00016 ]
	SubspaceRotationAdjust: set factor to 0.0173
ElecMinimize: Iter:   9  G: -1638.397483941808787  |grad|_K:  4.352e-06  alpha:  1.216e-01  linmin:  4.628e-05  t[s]:   2167.03
	FillingsUpdate:  mu: +0.318817059  nElectrons: 304.000000  magneticMoment: [ Abs: 0.00037  Tot: +0.00016 ]
	SubspaceRotationAdjust: set factor to 0.0157
ElecMinimize: Iter:  10  G: -1638.398955765358096  |grad|_K:  2.879e-06  alpha:  2.339e-01  linmin: -5.340e-08  t[s]:   2227.96
	FillingsUpdate:  mu: +0.322235962  nElectrons: 304.000000  magneticMoment: [ Abs: 0.00034  Tot: +0.00016 ]
	SubspaceRotationAdjust: set factor to 0.0181
ElecMinimize: Iter:  11  G: -1638.399906933086413  |grad|_K:  2.413e-06  alpha:  3.448e-01  linmin:  1.870e-06  t[s]:   2288.77
	FillingsUpdate:  mu: +0.324868080  nElectrons: 304.000000  magneticMoment: [ Abs: 0.00033  Tot: +0.00016 ]
	SubspaceRotationAdjust: set factor to 0.0151
	SubspaceRotationAdjust: resetting CG because factor has changed by 0.134177
ElecMinimize: 	State modified externally: resetting search direction.
ElecMinimize: Iter:  12  G: -1638.400377927685668  |grad|_K:  1.653e-06  alpha:  2.432e-01
	FillingsUpdate:  mu: +0.322518946  nElectrons: 304.000000  magneticMoment: [ Abs: 0.00033  Tot: +0.00016 ]
	SubspaceRotationAdjust: set factor to 0.0133
ElecMinimize: Iter:  13  G: -1638.400627623002265  |grad|_K:  1.009e-06  alpha:  2.745e-01  linmin: -6.701e-06  t[s]:   2442.58
	FillingsUpdate:  mu: +0.322431205  nElectrons: 304.000000  magneticMoment: [ Abs: 0.00032  Tot: +0.00016 ]
	SubspaceRotationAdjust: set factor to 0.012
ElecMinimize: Iter:  14  G: -1638.400754543473113  |grad|_K:  9.542e-07  alpha:  3.745e-01  linmin: -1.832e-06  t[s]:   2503.32
	FillingsUpdate:  mu: +0.324051016  nElectrons: 304.000000  magneticMoment: [ Abs: 0.00031  Tot: +0.00015 ]
	SubspaceRotationAdjust: set factor to 0.013
ElecMinimize: Iter:  15  G: -1638.400921379888359  |grad|_K:  8.371e-07  alpha:  5.507e-01  linmin:  2.966e-06  t[s]:   2564.19
	FillingsUpdate:  mu: +0.322666773  nElectrons: 304.000000  magneticMoment: [ Abs: 0.00031  Tot: +0.00015 ]
	SubspaceRotationAdjust: set factor to 0.0155
ElecMinimize: Iter:  16  G: -1638.401110123212675  |grad|_K:  9.560e-07  alpha:  8.102e-01  linmin:  9.483e-06  t[s]:   2624.93
	FillingsUpdate:  mu: +0.322451293  nElectrons: 304.000000  magneticMoment: [ Abs: 0.00031  Tot: +0.00015 ]
	SubspaceRotationAdjust: set factor to 0.0142
ElecMinimize: Iter:  17  G: -1638.401296896221993  |grad|_K:  1.192e-06  alpha:  6.153e-01  linmin:  4.766e-06  t[s]:   2685.70
	FillingsUpdate:  mu: +0.322506231  nElectrons: 304.000000  magneticMoment: [ Abs: 0.00031  Tot: +0.00015 ]
	SubspaceRotationAdjust: set factor to 0.0113
ElecMinimize: Iter:  18  G: -1638.401472463163373  |grad|_K:  1.137e-06  alpha:  3.719e-01  linmin:  5.312e-06  t[s]:   2746.69
	FillingsUpdate:  mu: +0.322133544  nElectrons: 304.000000  magneticMoment: [ Abs: 0.00030  Tot: +0.00014 ]
	SubspaceRotationAdjust: set factor to 0.0125
ElecMinimize: Iter:  19  G: -1638.401815435982599  |grad|_K:  1.237e-06  alpha:  7.995e-01  linmin:  1.033e-05  t[s]:   2807.45
	FillingsUpdate:  mu: +0.320100271  nElectrons: 304.000000  magneticMoment: [ Abs: 0.00028  Tot: +0.00014 ]
	SubspaceRotationAdjust: set factor to 0.0126
ElecMinimize: Iter:  20  G: -1638.402158604312262  |grad|_K:  1.298e-06  alpha:  6.761e-01  linmin:  1.267e-06  t[s]:   2868.20
	FillingsUpdate:  mu: +0.319051735  nElectrons: 304.000000  magneticMoment: [ Abs: 0.00026  Tot: +0.00014 ]
	SubspaceRotationAdjust: set factor to 0.0102
ElecMinimize: Iter:  21  G: -1638.402454440617703  |grad|_K:  1.459e-06  alpha:  5.286e-01  linmin: -4.836e-06  t[s]:   2929.32
	FillingsUpdate:  mu: +0.317725102  nElectrons: 304.000000  magneticMoment: [ Abs: 0.00024  Tot: +0.00014 ]
	SubspaceRotationAdjust: set factor to 0.00903
ElecMinimize: Iter:  22  G: -1638.402762723861997  |grad|_K:  9.912e-07  alpha:  4.340e-01  linmin: -7.451e-06  t[s]:   2990.09
	FillingsUpdate:  mu: +0.317148427  nElectrons: 304.000000  magneticMoment: [ Abs: 0.00022  Tot: +0.00014 ]
	SubspaceRotationAdjust: set factor to 0.0105
ElecMinimize: Iter:  23  G: -1638.402935787283468  |grad|_K:  6.768e-07  alpha:  5.274e-01  linmin: -4.638e-06  t[s]:   3050.84
	FillingsUpdate:  mu: +0.316745024  nElectrons: 304.000000  magneticMoment: [ Abs: 0.00022  Tot: +0.00014 ]
	SubspaceRotationAdjust: set factor to 0.00983
ElecMinimize: Iter:  24  G: -1638.403007393971620  |grad|_K:  5.358e-07  alpha:  4.691e-01  linmin: -7.320e-07  t[s]:   3111.72
	FillingsUpdate:  mu: +0.316679649  nElectrons: 304.000000  magneticMoment: [ Abs: 0.00021  Tot: +0.00014 ]
	SubspaceRotationAdjust: set factor to 0.00934
ElecMinimize: Iter:  25  G: -1638.403052229539526  |grad|_K:  4.518e-07  alpha:  4.693e-01  linmin: -2.929e-07  t[s]:   3173.16
	FillingsUpdate:  mu: +0.316603068  nElectrons: 304.000000  magneticMoment: [ Abs: 0.00021  Tot: +0.00014 ]
	SubspaceRotationAdjust: set factor to 0.011
ElecMinimize: Iter:  26  G: -1638.403092884846274  |grad|_K:  3.915e-07  alpha:  5.986e-01  linmin:  1.281e-06  t[s]:   3234.25
	FillingsUpdate:  mu: +0.316171493  nElectrons: 304.000000  magneticMoment: [ Abs: 0.00021  Tot: +0.00014 ]
	SubspaceRotationAdjust: set factor to 0.013
ElecMinimize: Iter:  27  G: -1638.403124698849524  |grad|_K:  3.509e-07  alpha:  6.239e-01  linmin:  4.324e-07  t[s]:   3295.31
	FillingsUpdate:  mu: +0.316174141  nElectrons: 304.000000  magneticMoment: [ Abs: 0.00021  Tot: +0.00014 ]
	SubspaceRotationAdjust: set factor to 0.0125
ElecMinimize: Iter:  28  G: -1638.403148280536470  |grad|_K:  3.728e-07  alpha:  5.757e-01  linmin: -1.431e-07  t[s]:   3356.17
	FillingsUpdate:  mu: +0.316044346  nElectrons: 304.000000  magneticMoment: [ Abs: 0.00021  Tot: +0.00014 ]
	SubspaceRotationAdjust: set factor to 0.0107
ElecMinimize: Iter:  29  G: -1638.403167965979037  |grad|_K:  3.256e-07  alpha:  4.255e-01  linmin:  3.883e-07  t[s]:   3417.04
	FillingsUpdate:  mu: +0.315639242  nElectrons: 304.000000  magneticMoment: [ Abs: 0.00020  Tot: +0.00014 ]
	SubspaceRotationAdjust: set factor to 0.0116
ElecMinimize: Iter:  30  G: -1638.403188880819698  |grad|_K:  2.831e-07  alpha:  5.929e-01  linmin: -1.591e-07  t[s]:   3478.16
	FillingsUpdate:  mu: +0.315673482  nElectrons: 304.000000  magneticMoment: [ Abs: 0.00020  Tot: +0.00014 ]
	SubspaceRotationAdjust: set factor to 0.0129
ElecMinimize: Iter:  31  G: -1638.403207379615651  |grad|_K:  2.651e-07  alpha:  6.939e-01  linmin: -4.910e-08  t[s]:   3538.93
	FillingsUpdate:  mu: +0.315567358  nElectrons: 304.000000  magneticMoment: [ Abs: 0.00020  Tot: +0.00014 ]
	SubspaceRotationAdjust: set factor to 0.0126
ElecMinimize: Iter:  32  G: -1638.403221229257497  |grad|_K:  2.644e-07  alpha:  5.921e-01  linmin: -1.858e-07  t[s]:   3600.01
	FillingsUpdate:  mu: +0.315532015  nElectrons: 304.000000  magneticMoment: [ Abs: 0.00019  Tot: +0.00014 ]
	SubspaceRotationAdjust: set factor to 0.0108
ElecMinimize: Iter:  33  G: -1638.403230532491079  |grad|_K:  2.253e-07  alpha:  3.998e-01  linmin: -1.271e-07  t[s]:   3660.94
	FillingsUpdate:  mu: +0.315612252  nElectrons: 304.000000  magneticMoment: [ Abs: 0.00019  Tot: +0.00014 ]
	SubspaceRotationAdjust: set factor to 0.012
ElecMinimize: Iter:  34  G: -1638.403239342513416  |grad|_K:  1.856e-07  alpha:  5.214e-01  linmin:  4.031e-08  t[s]:   3721.81
	FillingsUpdate:  mu: +0.315539835  nElectrons: 304.000000  magneticMoment: [ Abs: 0.00019  Tot: +0.00014 ]
	SubspaceRotationAdjust: set factor to 0.0144
ElecMinimize: Iter:  35  G: -1638.403248146448504  |grad|_K:  1.966e-07  alpha:  7.679e-01  linmin: -1.108e-07  t[s]:   3782.69
	FillingsUpdate:  mu: +0.315717789  nElectrons: 304.000000  magneticMoment: [ Abs: 0.00020  Tot: +0.00014 ]
	SubspaceRotationAdjust: set factor to 0.0146
ElecMinimize: Iter:  36  G: -1638.403256991867465  |grad|_K:  2.351e-07  alpha:  6.877e-01  linmin: -4.738e-09  t[s]:   3843.37
	FillingsUpdate:  mu: +0.315932628  nElectrons: 304.000000  magneticMoment: [ Abs: 0.00020  Tot: +0.00013 ]
	SubspaceRotationAdjust: set factor to 0.012
ElecMinimize: Iter:  37  G: -1638.403264373031107  |grad|_K:  2.252e-07  alpha:  4.015e-01  linmin:  2.575e-07  t[s]:   3904.10
	FillingsUpdate:  mu: +0.316058440  nElectrons: 304.000000  magneticMoment: [ Abs: 0.00020  Tot: +0.00013 ]
	SubspaceRotationAdjust: set factor to 0.0121
ElecMinimize: Iter:  38  G: -1638.403273397677140  |grad|_K:  1.981e-07  alpha:  5.348e-01  linmin: -3.320e-07  t[s]:   3964.90
	FillingsUpdate:  mu: +0.316082596  nElectrons: 304.000000  magneticMoment: [ Abs: 0.00020  Tot: +0.00013 ]
	SubspaceRotationAdjust: set factor to 0.0136
ElecMinimize: Iter:  39  G: -1638.403282465578513  |grad|_K:  1.861e-07  alpha:  6.941e-01  linmin: -2.709e-07  t[s]:   4025.86
	FillingsUpdate:  mu: +0.316340167  nElectrons: 304.000000  magneticMoment: [ Abs: 0.00019  Tot: +0.00013 ]
	SubspaceRotationAdjust: set factor to 0.014
ElecMinimize: Iter:  40  G: -1638.403289697601849  |grad|_K:  1.888e-07  alpha:  6.277e-01  linmin: -1.138e-07  t[s]:   4086.45
	FillingsUpdate:  mu: +0.316387322  nElectrons: 304.000000  magneticMoment: [ Abs: 0.00018  Tot: +0.00013 ]
	SubspaceRotationAdjust: set factor to 0.0121
ElecMinimize: Iter:  41  G: -1638.403295066314968  |grad|_K:  1.901e-07  alpha:  4.528e-01  linmin: -1.167e-07  t[s]:   4147.31
	FillingsUpdate:  mu: +0.316346915  nElectrons: 304.000000  magneticMoment: [ Abs: 0.00018  Tot: +0.00013 ]
	SubspaceRotationAdjust: set factor to 0.0116
ElecMinimize: Iter:  42  G: -1638.403300435103574  |grad|_K:  1.564e-07  alpha:  4.463e-01  linmin: -7.039e-08  t[s]:   4208.15
	FillingsUpdate:  mu: +0.316530947  nElectrons: 304.000000  magneticMoment: [ Abs: 0.00017  Tot: +0.00013 ]
	SubspaceRotationAdjust: set factor to 0.0138
ElecMinimize: Iter:  43  G: -1638.403305766462154  |grad|_K:  1.369e-07  alpha:  6.546e-01  linmin: -5.423e-08  t[s]:   4268.87
	FillingsUpdate:  mu: +0.316568170  nElectrons: 304.000000  magneticMoment: [ Abs: 0.00017  Tot: +0.00013 ]
	SubspaceRotationAdjust: set factor to 0.0152
ElecMinimize: Iter:  44  G: -1638.403309967861333  |grad|_K:  1.432e-07  alpha:  6.737e-01  linmin:  5.059e-08  t[s]:   4329.66
	FillingsUpdate:  mu: +0.316588578  nElectrons: 304.000000  magneticMoment: [ Abs: 0.00016  Tot: +0.00013 ]
	SubspaceRotationAdjust: set factor to 0.0133
ElecMinimize: Iter:  45  G: -1638.403313345691458  |grad|_K:  1.621e-07  alpha:  4.951e-01  linmin: -3.234e-09  t[s]:   4390.40
	FillingsUpdate:  mu: +0.316638153  nElectrons: 304.000000  magneticMoment: [ Abs: 0.00016  Tot: +0.00013 ]
	SubspaceRotationAdjust: set factor to 0.012
ElecMinimize: Iter:  46  G: -1638.403317094832801  |grad|_K:  1.390e-07  alpha:  4.289e-01  linmin: -7.863e-08  t[s]:   4451.29
	FillingsUpdate:  mu: +0.316671371  nElectrons: 304.000000  magneticMoment: [ Abs: 0.00016  Tot: +0.00013 ]
	SubspaceRotationAdjust: set factor to 0.0135
ElecMinimize: Iter:  47  G: -1638.403321242741640  |grad|_K:  1.205e-07  alpha:  6.455e-01  linmin: -2.577e-07  t[s]:   4512.50
	FillingsUpdate:  mu: +0.316615137  nElectrons: 304.000000  magneticMoment: [ Abs: 0.00015  Tot: +0.00013 ]
	SubspaceRotationAdjust: set factor to 0.015
ElecMinimize: Iter:  48  G: -1638.403324423876256  |grad|_K:  1.109e-07  alpha:  6.582e-01  linmin: -6.979e-09  t[s]:   4573.66
	FillingsUpdate:  mu: +0.316626787  nElectrons: 304.000000  magneticMoment: [ Abs: 0.00015  Tot: +0.00013 ]
	SubspaceRotationAdjust: set factor to 0.014
ElecMinimize: Iter:  49  G: -1638.403326578618135  |grad|_K:  1.131e-07  alpha:  5.263e-01  linmin: -6.637e-08  t[s]:   4634.55
	FillingsUpdate:  mu: +0.316600465  nElectrons: 304.000000  magneticMoment: [ Abs: 0.00014  Tot: +0.00012 ]
	SubspaceRotationAdjust: set factor to 0.0113
ElecMinimize: Iter:  50  G: -1638.403328133693549  |grad|_K:  9.726e-08  alpha:  3.651e-01  linmin:  2.855e-08  t[s]:   4696.16
	FillingsUpdate:  mu: +0.316524765  nElectrons: 304.000000  magneticMoment: [ Abs: 0.00014  Tot: +0.00012 ]
	SubspaceRotationAdjust: set factor to 0.0123
ElecMinimize: Iter:  51  G: -1638.403329769803577  |grad|_K:  7.475e-08  alpha:  5.198e-01  linmin:  1.020e-07  t[s]:   4757.08
	FillingsUpdate:  mu: +0.316535188  nElectrons: 304.000000  magneticMoment: [ Abs: 0.00014  Tot: +0.00012 ]
	SubspaceRotationAdjust: set factor to 0.0139
ElecMinimize: Iter:  52  G: -1638.403330903574442  |grad|_K:  6.221e-08  alpha:  6.098e-01  linmin: -3.761e-07  t[s]:   4817.97
	FillingsUpdate:  mu: +0.316506882  nElectrons: 304.000000  magneticMoment: [ Abs: 0.00014  Tot: +0.00012 ]
	SubspaceRotationAdjust: set factor to 0.0132
ElecMinimize: Iter:  53  G: -1638.403331557043884  |grad|_K:  5.616e-08  alpha:  5.072e-01  linmin: -6.114e-08  t[s]:   4878.90
	FillingsUpdate:  mu: +0.316487974  nElectrons: 304.000000  magneticMoment: [ Abs: 0.00014  Tot: +0.00012 ]
	SubspaceRotationAdjust: set factor to 0.0106
ElecMinimize: Iter:  54  G: -1638.403331934729295  |grad|_K:  4.565e-08  alpha:  3.599e-01  linmin: -5.824e-07  t[s]:   4939.91
	FillingsUpdate:  mu: +0.316490345  nElectrons: 304.000000  magneticMoment: [ Abs: 0.00013  Tot: +0.00012 ]
	SubspaceRotationAdjust: set factor to 0.0112
ElecMinimize: Iter:  55  G: -1638.403332271091131  |grad|_K:  3.415e-08  alpha:  4.845e-01  linmin: -2.327e-06  t[s]:   5001.33
	FillingsUpdate:  mu: +0.316486786  nElectrons: 304.000000  magneticMoment: [ Abs: 0.00013  Tot: +0.00012 ]
	SubspaceRotationAdjust: set factor to 0.0131
ElecMinimize: Iter:  56  G: -1638.403332506066818  |grad|_K:  2.921e-08  alpha:  6.046e-01  linmin: -1.656e-06  t[s]:   5062.36
	FillingsUpdate:  mu: +0.316485743  nElectrons: 304.000000  magneticMoment: [ Abs: 0.00013  Tot: +0.00012 ]
	SubspaceRotationAdjust: set factor to 0.013
ElecMinimize: Iter:  57  G: -1638.403332650411130  |grad|_K:  2.760e-08  alpha:  5.078e-01  linmin: -3.263e-06  t[s]:   5123.34
	FillingsUpdate:  mu: +0.316488892  nElectrons: 304.000000  magneticMoment: [ Abs: 0.00013  Tot: +0.00012 ]
	SubspaceRotationAdjust: set factor to 0.012
ElecMinimize: Iter:  58  G: -1638.403332756524833  |grad|_K:  2.496e-08  alpha:  4.191e-01  linmin: -1.602e-06  t[s]:   5184.60
	FillingsUpdate:  mu: +0.316491732  nElectrons: 304.000000  magneticMoment: [ Abs: 0.00013  Tot: +0.00012 ]
	SubspaceRotationAdjust: set factor to 0.0136
ElecMinimize: Iter:  59  G: -1638.403332880840935  |grad|_K:  2.330e-08  alpha:  5.994e-01  linmin:  1.079e-05  t[s]:   5245.63
	FillingsUpdate:  mu: +0.316490934  nElectrons: 304.000000  magneticMoment: [ Abs: 0.00013  Tot: +0.00012 ]
	SubspaceRotationAdjust: set factor to 0.0157
ElecMinimize: Iter:  60  G: -1638.403333022596371  |grad|_K:  2.528e-08  alpha:  7.884e-01  linmin: -3.164e-06  t[s]:   5306.64
	FillingsUpdate:  mu: +0.316502209  nElectrons: 304.000000  magneticMoment: [ Abs: 0.00013  Tot: +0.00012 ]
	SubspaceRotationAdjust: set factor to 0.0157
ElecMinimize: Iter:  61  G: -1638.403333167098481  |grad|_K:  3.038e-08  alpha:  6.787e-01  linmin: -3.608e-07  t[s]:   5367.69
	FillingsUpdate:  mu: +0.316507476  nElectrons: 304.000000  magneticMoment: [ Abs: 0.00013  Tot: +0.00012 ]
	SubspaceRotationAdjust: set factor to 0.0124
ElecMinimize: Iter:  62  G: -1638.403333284996734  |grad|_K:  3.042e-08  alpha:  3.836e-01  linmin:  7.136e-07  t[s]:   5428.61
	FillingsUpdate:  mu: +0.316508411  nElectrons: 304.000000  magneticMoment: [ Abs: 0.00013  Tot: +0.00012 ]
	SubspaceRotationAdjust: set factor to 0.012
ElecMinimize: Iter:  63  G: -1638.403333437313677  |grad|_K:  2.488e-08  alpha:  4.958e-01  linmin:  3.732e-06  t[s]:   5489.62
	FillingsUpdate:  mu: +0.316518992  nElectrons: 304.000000  magneticMoment: [ Abs: 0.00013  Tot: +0.00012 ]
	SubspaceRotationAdjust: set factor to 0.0132
ElecMinimize: Iter:  64  G: -1638.403333568229073  |grad|_K:  2.157e-08  alpha:  6.369e-01  linmin:  6.579e-07  t[s]:   5550.90
	FillingsUpdate:  mu: +0.316520124  nElectrons: 304.000000  magneticMoment: [ Abs: 0.00012  Tot: +0.00012 ]
	SubspaceRotationAdjust: set factor to 0.0131
ElecMinimize: Iter:  65  G: -1638.403333654276366  |grad|_K:  1.994e-08  alpha:  5.566e-01  linmin:  2.099e-06  t[s]:   5611.91
	FillingsUpdate:  mu: +0.316521987  nElectrons: 304.000000  magneticMoment: [ Abs: 0.00012  Tot: +0.00011 ]
	SubspaceRotationAdjust: set factor to 0.0111
ElecMinimize: Iter:  66  G: -1638.403333708097080  |grad|_K:  1.786e-08  alpha:  4.080e-01  linmin:  2.129e-06  t[s]:   5672.92
ElecMinimize: Converged (|Delta G|<1.000000e-07 for 2 iters).
Setting wave functions to eigenvectors of Hamiltonian
Converging empty states (this may take a while): |deigs|: 5.323e-04
Vacuum energy after initial minimize, F = -1638.403333708097080

Shifting auxilliary hamiltonian by -0.487822 to set nElectrons=304.000000

-------- Electronic minimization -----------
	Linear fluid (dielectric constant: 78.4, screening length: 8.12261 Bohr) occupying 0.363863 of unit cell:	Completed after 28 iterations at t[s]:   5890.69
	FillingsUpdate:  mu: -0.171300000  nElectrons: 304.000000  magneticMoment: [ Abs: 0.00011  Tot: +0.00010 ]
ElecMinimize: Iter:   0  G: -1638.405799104015387  |grad|_K:  4.074e-06  alpha:  1.000e+00
	Linear fluid (dielectric constant: 78.4, screening length: 8.12261 Bohr) occupying 0.372169 of unit cell:	Completed after 26 iterations at t[s]:   5942.51
	Linear fluid (dielectric constant: 78.4, screening length: 8.12261 Bohr) occupying 0.363989 of unit cell:	Completed after 24 iterations at t[s]:   5960.55
	FillingsUpdate:  mu: -0.171300000  nElectrons: 304.039713  magneticMoment: [ Abs: 0.00011  Tot: +0.00010 ]
	SubspaceRotationAdjust: set factor to 0.00848
ElecMinimize: Iter:   1  G: -1638.406457320235631  |grad|_K:  2.330e-06  alpha:  1.271e-01  linmin:  2.089e-02  t[s]:   5985.84
	Linear fluid (dielectric constant: 78.4, screening length: 8.12261 Bohr) occupying 0.364018 of unit cell:	Completed after 22 iterations at t[s]:   6008.87
	Linear fluid (dielectric constant: 78.4, screening length: 8.12261 Bohr) occupying 0.364060 of unit cell:	Completed after 22 iterations at t[s]:   6026.80
	FillingsUpdate:  mu: -0.171300000  nElectrons: 304.042760  magneticMoment: [ Abs: 0.00011  Tot: +0.00010 ]
	SubspaceRotationAdjust: set factor to 0.00701
ElecMinimize: Iter:   2  G: -1638.406863429597706  |grad|_K:  1.070e-06  alpha:  2.393e-01  linmin:  5.987e-05  t[s]:   6052.31
	Linear fluid (dielectric constant: 78.4, screening length: 8.12261 Bohr) occupying 0.364180 of unit cell:	Completed after 17 iterations at t[s]:   6074.63
	Linear fluid (dielectric constant: 78.4, screening length: 8.12261 Bohr) occupying 0.364380 of unit cell:	Completed after 18 iterations at t[s]:   6092.21
	FillingsUpdate:  mu: -0.171300000  nElectrons: 304.064320  magneticMoment: [ Abs: 0.00011  Tot: +0.00010 ]
	SubspaceRotationAdjust: set factor to 0.0084
ElecMinimize: Iter:   3  G: -1638.407093718571105  |grad|_K:  7.331e-07  alpha:  6.033e-01  linmin: -1.296e-03  t[s]:   6117.61
	Linear fluid (dielectric constant: 78.4, screening length: 8.12261 Bohr) occupying 0.364602 of unit cell:	Completed after 19 iterations at t[s]:   6140.10
	Linear fluid (dielectric constant: 78.4, screening length: 8.12261 Bohr) occupying 0.364592 of unit cell:	Completed after 10 iterations at t[s]:   6157.15
	FillingsUpdate:  mu: -0.171300000  nElectrons: 304.076032  magneticMoment: [ Abs: 0.00011  Tot: +0.00010 ]
	SubspaceRotationAdjust: set factor to 0.00958
ElecMinimize: Iter:   4  G: -1638.407197404206045  |grad|_K:  5.751e-07  alpha:  5.775e-01  linmin: -1.031e-04  t[s]:   6182.18
	Linear fluid (dielectric constant: 78.4, screening length: 8.12261 Bohr) occupying 0.364629 of unit cell:	Completed after 15 iterations at t[s]:   6204.54
	Linear fluid (dielectric constant: 78.4, screening length: 8.12261 Bohr) occupying 0.364622 of unit cell:	Completed after 12 iterations at t[s]:   6221.53
	FillingsUpdate:  mu: -0.171300000  nElectrons: 304.076529  magneticMoment: [ Abs: 0.00011  Tot: +0.00010 ]
	SubspaceRotationAdjust: set factor to 0.0084
ElecMinimize: Iter:   5  G: -1638.407248617589858  |grad|_K:  6.254e-07  alpha:  4.651e-01  linmin: -1.269e-05  t[s]:   6246.78
	Linear fluid (dielectric constant: 78.4, screening length: 8.12261 Bohr) occupying 0.364773 of unit cell:	Completed after 19 iterations at t[s]:   6269.42
	Linear fluid (dielectric constant: 78.4, screening length: 8.12261 Bohr) occupying 0.364684 of unit cell:	Completed after 16 iterations at t[s]:   6286.73
	FillingsUpdate:  mu: -0.171300000  nElectrons: 304.085199  magneticMoment: [ Abs: 0.00011  Tot: +0.00010 ]
	SubspaceRotationAdjust: set factor to 0.00585
ElecMinimize: Iter:   6  G: -1638.407276546488447  |grad|_K:  4.670e-07  alpha:  2.148e-01  linmin:  5.864e-05  t[s]:   6312.03
	Linear fluid (dielectric constant: 78.4, screening length: 8.12261 Bohr) occupying 0.364661 of unit cell:	Completed after 12 iterations at t[s]:   6334.04
	Linear fluid (dielectric constant: 78.4, screening length: 8.12261 Bohr) occupying 0.364625 of unit cell:	Completed after 13 iterations at t[s]:   6351.20
	FillingsUpdate:  mu: -0.171300000  nElectrons: 304.088787  magneticMoment: [ Abs: 0.00011  Tot: +0.00010 ]
	SubspaceRotationAdjust: set factor to 0.00744
ElecMinimize: Iter:   7  G: -1638.407316259323579  |grad|_K:  3.533e-07  alpha:  5.476e-01  linmin:  2.936e-07  t[s]:   6376.52
	Linear fluid (dielectric constant: 78.4, screening length: 8.12261 Bohr) occupying 0.364528 of unit cell:	Completed after 15 iterations at t[s]:   6398.83
	Linear fluid (dielectric constant: 78.4, screening length: 8.12261 Bohr) occupying 0.364510 of unit cell:	Completed after 10 iterations at t[s]:   6415.89
	FillingsUpdate:  mu: -0.171300000  nElectrons: 304.090402  magneticMoment: [ Abs: 0.00011  Tot: +0.00010 ]
	SubspaceRotationAdjust: set factor to 0.00781
ElecMinimize: Iter:   8  G: -1638.407343162362849  |grad|_K:  3.373e-07  alpha:  6.479e-01  linmin:  8.005e-06  t[s]:   6441.27
	Linear fluid (dielectric constant: 78.4, screening length: 8.12261 Bohr) occupying 0.364459 of unit cell:	Completed after 15 iterations at t[s]:   6463.47
	Linear fluid (dielectric constant: 78.4, screening length: 8.12261 Bohr) occupying 0.364479 of unit cell:	Completed after 14 iterations at t[s]:   6480.71
	FillingsUpdate:  mu: -0.171300000  nElectrons: 304.095725  magneticMoment: [ Abs: 0.00011  Tot: +0.00010 ]
	SubspaceRotationAdjust: set factor to 0.00645
ElecMinimize: Iter:   9  G: -1638.407357390356765  |grad|_K:  3.760e-07  alpha:  3.759e-01  linmin:  1.488e-05  t[s]:   6506.08
	Linear fluid (dielectric constant: 78.4, screening length: 8.12261 Bohr) occupying 0.364352 of unit cell:	Completed after 15 iterations at t[s]:   6528.26
	Linear fluid (dielectric constant: 78.4, screening length: 8.12261 Bohr) occupying 0.364356 of unit cell:	Completed after 5 iterations at t[s]:   6544.85
	FillingsUpdate:  mu: -0.171300000  nElectrons: 304.095182  magneticMoment: [ Abs: 0.00011  Tot: +0.00010 ]
	SubspaceRotationAdjust: set factor to 0.00571
ElecMinimize: Iter:  10  G: -1638.407374429365973  |grad|_K:  2.813e-07  alpha:  3.623e-01  linmin:  6.512e-05  t[s]:   6570.17
	Linear fluid (dielectric constant: 78.4, screening length: 8.12261 Bohr) occupying 0.364315 of unit cell:	Completed after 12 iterations at t[s]:   6592.15
	Linear fluid (dielectric constant: 78.4, screening length: 8.12261 Bohr) occupying 0.364270 of unit cell:	Completed after 13 iterations at t[s]:   6609.42
	FillingsUpdate:  mu: -0.171300000  nElectrons: 304.098385  magneticMoment: [ Abs: 0.00011  Tot: +0.00010 ]
	SubspaceRotationAdjust: set factor to 0.00695
ElecMinimize: Iter:  11  G: -1638.407394292566096  |grad|_K:  2.709e-07  alpha:  7.541e-01  linmin: -1.179e-04  t[s]:   6634.61
	Linear fluid (dielectric constant: 78.4, screening length: 8.12261 Bohr) occupying 0.364239 of unit cell:	Completed after 14 iterations at t[s]:   6656.73
	Linear fluid (dielectric constant: 78.4, screening length: 8.12261 Bohr) occupying 0.364240 of unit cell:	Completed after 7 iterations at t[s]:   6673.48
	FillingsUpdate:  mu: -0.171300000  nElectrons: 304.102849  magneticMoment: [ Abs: 0.00010  Tot: +0.00010 ]
	SubspaceRotationAdjust: set factor to 0.00712
ElecMinimize: Iter:  12  G: -1638.407412028112958  |grad|_K:  3.228e-07  alpha:  7.243e-01  linmin: -1.238e-05  t[s]:   6698.65
	Linear fluid (dielectric constant: 78.4, screening length: 8.12261 Bohr) occupying 0.364102 of unit cell:	Completed after 15 iterations at t[s]:   6720.79
	Linear fluid (dielectric constant: 78.4, screening length: 8.12261 Bohr) occupying 0.364168 of unit cell:	Completed after 15 iterations at t[s]:   6738.09
	FillingsUpdate:  mu: -0.171300000  nElectrons: 304.101192  magneticMoment: [ Abs: 0.00010  Tot: +0.00010 ]
	SubspaceRotationAdjust: set factor to 0.00561
ElecMinimize: Iter:  13  G: -1638.407425037580424  |grad|_K:  3.491e-07  alpha:  3.748e-01  linmin: -6.853e-06  t[s]:   6763.29
	Linear fluid (dielectric constant: 78.4, screening length: 8.12261 Bohr) occupying 0.364166 of unit cell:	Completed after 14 iterations at t[s]:   6785.69
	Linear fluid (dielectric constant: 78.4, screening length: 8.12261 Bohr) occupying 0.364166 of unit cell:	Completed after 12 iterations at t[s]:   6802.77
	FillingsUpdate:  mu: -0.171300000  nElectrons: 304.106573  magneticMoment: [ Abs: 0.00010  Tot: +0.00010 ]
	SubspaceRotationAdjust: set factor to 0.00556
ElecMinimize: Iter:  14  G: -1638.407446569352487  |grad|_K:  3.059e-07  alpha:  5.304e-01  linmin: -4.116e-05  t[s]:   6828.06
	Linear fluid (dielectric constant: 78.4, screening length: 8.12261 Bohr) occupying 0.364149 of unit cell:	Completed after 13 iterations at t[s]:   6850.08
	Linear fluid (dielectric constant: 78.4, screening length: 8.12261 Bohr) occupying 0.364141 of unit cell:	Completed after 10 iterations at t[s]:   6867.07
	FillingsUpdate:  mu: -0.171300000  nElectrons: 304.110080  magneticMoment: [ Abs: 0.00010  Tot: +0.00010 ]
	SubspaceRotationAdjust: set factor to 0.00609
ElecMinimize: Iter:  15  G: -1638.407470663918502  |grad|_K:  3.044e-07  alpha:  7.727e-01  linmin: -1.491e-05  t[s]:   6892.33
	Linear fluid (dielectric constant: 78.4, screening length: 8.12261 Bohr) occupying 0.364083 of unit cell:	Completed after 14 iterations at t[s]:   6914.51
	Linear fluid (dielectric constant: 78.4, screening length: 8.12261 Bohr) occupying 0.364091 of unit cell:	Completed after 10 iterations at t[s]:   6931.46
	FillingsUpdate:  mu: -0.171300000  nElectrons: 304.111131  magneticMoment: [ Abs: 0.00010  Tot: +0.00010 ]
	SubspaceRotationAdjust: set factor to 0.00618
ElecMinimize: Iter:  16  G: -1638.407491296662556  |grad|_K:  3.068e-07  alpha:  6.685e-01  linmin:  2.304e-05  t[s]:   6956.77
	Linear fluid (dielectric constant: 78.4, screening length: 8.12261 Bohr) occupying 0.364116 of unit cell:	Completed after 15 iterations at t[s]:   6978.96
	Linear fluid (dielectric constant: 78.4, screening length: 8.12261 Bohr) occupying 0.364106 of unit cell:	Completed after 13 iterations at t[s]:   6996.10
	FillingsUpdate:  mu: -0.171300000  nElectrons: 304.115547  magneticMoment: [ Abs: 0.00010  Tot: +0.00010 ]
	SubspaceRotationAdjust: set factor to 0.00494
ElecMinimize: Iter:  17  G: -1638.407504781674561  |grad|_K:  3.031e-07  alpha:  4.312e-01  linmin:  3.096e-06  t[s]:   7021.50
	Linear fluid (dielectric constant: 78.4, screening length: 8.12261 Bohr) occupying 0.364034 of unit cell:	Completed after 14 iterations at t[s]:   7043.75
	Linear fluid (dielectric constant: 78.4, screening length: 8.12261 Bohr) occupying 0.364039 of unit cell:	Completed after 10 iterations at t[s]:   7060.72
	FillingsUpdate:  mu: -0.171300000  nElectrons: 304.114358  magneticMoment: [ Abs: 0.00010  Tot: +0.00010 ]
	SubspaceRotationAdjust: set factor to 0.00425
ElecMinimize: Iter:  18  G: -1638.407517091139425  |grad|_K:  2.319e-07  alpha:  4.028e-01  linmin:  2.355e-05  t[s]:   7085.90
	Linear fluid (dielectric constant: 78.4, screening length: 8.12261 Bohr) occupying 0.364017 of unit cell:	Completed after 11 iterations at t[s]:   7107.92
	Linear fluid (dielectric constant: 78.4, screening length: 8.12261 Bohr) occupying 0.364005 of unit cell:	Completed after 10 iterations at t[s]:   7124.87
	FillingsUpdate:  mu: -0.171300000  nElectrons: 304.115698  magneticMoment: [ Abs: 0.00010  Tot: +0.00010 ]
	SubspaceRotationAdjust: set factor to 0.00512
ElecMinimize: Iter:  19  G: -1638.407528355304066  |grad|_K:  2.050e-07  alpha:  6.298e-01  linmin:  1.238e-05  t[s]:   7150.13
	Linear fluid (dielectric constant: 78.4, screening length: 8.12261 Bohr) occupying 0.363989 of unit cell:	Completed after 13 iterations at t[s]:   7172.24
	Linear fluid (dielectric constant: 78.4, screening length: 8.12261 Bohr) occupying 0.363989 of unit cell:	Completed after 0 iterations at t[s]:   7188.28
	FillingsUpdate:  mu: -0.171300000  nElectrons: 304.117739  magneticMoment: [ Abs: 0.00010  Tot: +0.00010 ]
	SubspaceRotationAdjust: set factor to 0.00546
ElecMinimize: Iter:  20  G: -1638.407537196008889  |grad|_K:  2.090e-07  alpha:  6.326e-01  linmin: -2.451e-05  t[s]:   7213.54
	Linear fluid (dielectric constant: 78.4, screening length: 8.12261 Bohr) occupying 0.363914 of unit cell:	Completed after 14 iterations at t[s]:   7235.68
	Linear fluid (dielectric constant: 78.4, screening length: 8.12261 Bohr) occupying 0.363924 of unit cell:	Completed after 10 iterations at t[s]:   7252.65
	FillingsUpdate:  mu: -0.171300000  nElectrons: 304.116540  magneticMoment: [ Abs: 0.00010  Tot: +0.00010 ]
	SubspaceRotationAdjust: set factor to 0.0049
ElecMinimize: Iter:  21  G: -1638.407545160013797  |grad|_K:  2.378e-07  alpha:  5.472e-01  linmin:  2.427e-05  t[s]:   7277.87
	Linear fluid (dielectric constant: 78.4, screening length: 8.12261 Bohr) occupying 0.363908 of unit cell:	Completed after 13 iterations at t[s]:   7299.86
	Linear fluid (dielectric constant: 78.4, screening length: 8.12261 Bohr) occupying 0.363908 of unit cell:	Completed after 2 iterations at t[s]:   7316.28
	FillingsUpdate:  mu: -0.171300000  nElectrons: 304.119754  magneticMoment: [ Abs: 0.00010  Tot: +0.00009 ]
	SubspaceRotationAdjust: set factor to 0.00466
ElecMinimize: Iter:  22  G: -1638.407555668328996  |grad|_K:  2.371e-07  alpha:  5.592e-01  linmin: -8.974e-05  t[s]:   7341.63
	Linear fluid (dielectric constant: 78.4, screening length: 8.12261 Bohr) occupying 0.363857 of unit cell:	Completed after 10 iterations at t[s]:   7363.47
	Linear fluid (dielectric constant: 78.4, screening length: 8.12261 Bohr) occupying 0.363831 of unit cell:	Completed after 7 iterations at t[s]:   7380.14
	FillingsUpdate:  mu: -0.171300000  nElectrons: 304.121515  magneticMoment: [ Abs: 0.00010  Tot: +0.00009 ]
	SubspaceRotationAdjust: set factor to 0.00517
ElecMinimize: Iter:  23  G: -1638.407571476106114  |grad|_K:  2.736e-07  alpha:  8.424e-01  linmin:  2.139e-05  t[s]:   7405.46
	Linear fluid (dielectric constant: 78.4, screening length: 8.12261 Bohr) occupying 0.363703 of unit cell:	Completed after 14 iterations at t[s]:   7427.55
	Linear fluid (dielectric constant: 78.4, screening length: 8.12261 Bohr) occupying 0.363713 of unit cell:	Completed after 7 iterations at t[s]:   7444.24
	FillingsUpdate:  mu: -0.171300000  nElectrons: 304.122363  magneticMoment: [ Abs: 0.00010  Tot: +0.00009 ]
	SubspaceRotationAdjust: set factor to 0.00518
ElecMinimize: Iter:  24  G: -1638.407590737217106  |grad|_K:  3.225e-07  alpha:  7.739e-01  linmin:  1.077e-05  t[s]:   7469.80
	Linear fluid (dielectric constant: 78.4, screening length: 8.12261 Bohr) occupying 0.363656 of unit cell:	Completed after 14 iterations at t[s]:   7491.87
	Linear fluid (dielectric constant: 78.4, screening length: 8.12261 Bohr) occupying 0.363672 of unit cell:	Completed after 12 iterations at t[s]:   7509.05
	FillingsUpdate:  mu: -0.171300000  nElectrons: 304.127635  magneticMoment: [ Abs: 0.00010  Tot: +0.00009 ]
	SubspaceRotationAdjust: set factor to 0.00426
ElecMinimize: Iter:  25  G: -1638.407609551528367  |grad|_K:  3.441e-07  alpha:  5.454e-01  linmin: -8.643e-06  t[s]:   7534.31
	Linear fluid (dielectric constant: 78.4, screening length: 8.12261 Bohr) occupying 0.363516 of unit cell:	Completed after 14 iterations at t[s]:   7556.46
	Linear fluid (dielectric constant: 78.4, screening length: 8.12261 Bohr) occupying 0.363538 of unit cell:	Completed after 11 iterations at t[s]:   7573.58
	FillingsUpdate:  mu: -0.171300000  nElectrons: 304.127176  magneticMoment: [ Abs: 0.00010  Tot: +0.00009 ]
	SubspaceRotationAdjust: set factor to 0.00363
ElecMinimize: Iter:  26  G: -1638.407628089630180  |grad|_K:  2.816e-07  alpha:  4.698e-01  linmin:  2.568e-05  t[s]:   7598.88
	Linear fluid (dielectric constant: 78.4, screening length: 8.12261 Bohr) occupying 0.363485 of unit cell:	Completed after 12 iterations at t[s]:   7620.90
	Linear fluid (dielectric constant: 78.4, screening length: 8.12261 Bohr) occupying 0.363474 of unit cell:	Completed after 3 iterations at t[s]:   7637.22
	FillingsUpdate:  mu: -0.171300000  nElectrons: 304.129078  magneticMoment: [ Abs: 0.00009  Tot: +0.00009 ]
	SubspaceRotationAdjust: set factor to 0.00402
ElecMinimize: Iter:  27  G: -1638.407643184168364  |grad|_K:  2.246e-07  alpha:  5.729e-01  linmin: -8.352e-06  t[s]:   7662.35
	Linear fluid (dielectric constant: 78.4, screening length: 8.12261 Bohr) occupying 0.363466 of unit cell:	Completed after 13 iterations at t[s]:   7684.42
	Linear fluid (dielectric constant: 78.4, screening length: 8.12261 Bohr) occupying 0.363467 of unit cell:	Completed after 10 iterations at t[s]:   7701.33
	FillingsUpdate:  mu: -0.171300000  nElectrons: 304.131368  magneticMoment: [ Abs: 0.00009  Tot: +0.00009 ]
	SubspaceRotationAdjust: set factor to 0.00378
ElecMinimize: Iter:  28  G: -1638.407651554250378  |grad|_K:  1.748e-07  alpha:  4.991e-01  linmin: -7.545e-05  t[s]:   7726.50
	Linear fluid (dielectric constant: 78.4, screening length: 8.12261 Bohr) occupying 0.363433 of unit cell:	Completed after 12 iterations at t[s]:   7748.45
	Linear fluid (dielectric constant: 78.4, screening length: 8.12261 Bohr) occupying 0.363436 of unit cell:	Completed after 10 iterations at t[s]:   7765.42
	FillingsUpdate:  mu: -0.171300000  nElectrons: 304.130896  magneticMoment: [ Abs: 0.00009  Tot: +0.00009 ]
	SubspaceRotationAdjust: set factor to 0.00319
ElecMinimize: Iter:  29  G: -1638.407656112377481  |grad|_K:  1.323e-07  alpha:  4.468e-01  linmin:  1.972e-05  t[s]:   7790.74
	Linear fluid (dielectric constant: 78.4, screening length: 8.12261 Bohr) occupying 0.363444 of unit cell:	Completed after 12 iterations at t[s]:   7812.91
	Linear fluid (dielectric constant: 78.4, screening length: 8.12261 Bohr) occupying 0.363445 of unit cell:	Completed after 2 iterations at t[s]:   7829.26
	FillingsUpdate:  mu: -0.171300000  nElectrons: 304.131999  magneticMoment: [ Abs: 0.00009  Tot: +0.00009 ]
	SubspaceRotationAdjust: set factor to 0.00355
ElecMinimize: Iter:  30  G: -1638.407658903877291  |grad|_K:  9.711e-08  alpha:  4.791e-01  linmin: -2.065e-04  t[s]:   7854.48
	Linear fluid (dielectric constant: 78.4, screening length: 8.12261 Bohr) occupying 0.363451 of unit cell:	Completed after 10 iterations at t[s]:   7876.35
	Linear fluid (dielectric constant: 78.4, screening length: 8.12261 Bohr) occupying 0.363451 of unit cell:	Completed after 2 iterations at t[s]:   7892.65
	FillingsUpdate:  mu: -0.171300000  nElectrons: 304.132675  magneticMoment: [ Abs: 0.00009  Tot: +0.00009 ]
	SubspaceRotationAdjust: set factor to 0.00409
ElecMinimize: Iter:  31  G: -1638.407660551764593  |grad|_K:  8.045e-08  alpha:  5.225e-01  linmin: -2.203e-04  t[s]:   7917.91
	Linear fluid (dielectric constant: 78.4, screening length: 8.12261 Bohr) occupying 0.363443 of unit cell:	Completed after 11 iterations at t[s]:   7939.80
	Linear fluid (dielectric constant: 78.4, screening length: 8.12261 Bohr) occupying 0.363443 of unit cell:	Completed after 2 iterations at t[s]:   7956.25
	FillingsUpdate:  mu: -0.171300000  nElectrons: 304.132514  magneticMoment: [ Abs: 0.00009  Tot: +0.00009 ]
	SubspaceRotationAdjust: set factor to 0.0042
ElecMinimize: Iter:  32  G: -1638.407661751251226  |grad|_K:  7.598e-08  alpha:  5.535e-01  linmin: -1.142e-05  t[s]:   7981.45
	Linear fluid (dielectric constant: 78.4, screening length: 8.12261 Bohr) occupying 0.363449 of unit cell:	Completed after 12 iterations at t[s]:   8003.40
	Linear fluid (dielectric constant: 78.4, screening length: 8.12261 Bohr) occupying 0.363449 of unit cell:	Completed after 2 iterations at t[s]:   8019.74
	FillingsUpdate:  mu: -0.171300000  nElectrons: 304.133349  magneticMoment: [ Abs: 0.00009  Tot: +0.00009 ]
	SubspaceRotationAdjust: set factor to 0.00452
ElecMinimize: Iter:  33  G: -1638.407662928406126  |grad|_K:  7.880e-08  alpha:  6.129e-01  linmin: -2.555e-05  t[s]:   8044.87
	Linear fluid (dielectric constant: 78.4, screening length: 8.12261 Bohr) occupying 0.363444 of unit cell:	Completed after 6 iterations at t[s]:   8066.41
	Linear fluid (dielectric constant: 78.4, screening length: 8.12261 Bohr) occupying 0.363443 of unit cell:	Completed after 2 iterations at t[s]:   8082.77
	FillingsUpdate:  mu: -0.171300000  nElectrons: 304.133788  magneticMoment: [ Abs: 0.00009  Tot: +0.00009 ]
	SubspaceRotationAdjust: set factor to 0.00518
ElecMinimize: Iter:  34  G: -1638.407664428267708  |grad|_K:  8.962e-08  alpha:  7.249e-01  linmin: -1.104e-05  t[s]:   8107.97
	Linear fluid (dielectric constant: 78.4, screening length: 8.12261 Bohr) occupying 0.363420 of unit cell:	Completed after 12 iterations at t[s]:   8129.99
	Linear fluid (dielectric constant: 78.4, screening length: 8.12261 Bohr) occupying 0.363420 of unit cell:	Completed after 0 iterations at t[s]:   8146.02
	FillingsUpdate:  mu: -0.171300000  nElectrons: 304.133778  magneticMoment: [ Abs: 0.00009  Tot: +0.00009 ]
	SubspaceRotationAdjust: set factor to 0.00523
ElecMinimize: Iter:  35  G: -1638.407666345155576  |grad|_K:  1.121e-07  alpha:  7.168e-01  linmin:  3.884e-05  t[s]:   8171.34
	Linear fluid (dielectric constant: 78.4, screening length: 8.12261 Bohr) occupying 0.363425 of unit cell:	Completed after 13 iterations at t[s]:   8193.45
	Linear fluid (dielectric constant: 78.4, screening length: 8.12261 Bohr) occupying 0.363424 of unit cell:	Completed after 10 iterations at t[s]:   8210.33
	FillingsUpdate:  mu: -0.171300000  nElectrons: 304.135394  magneticMoment: [ Abs: 0.00009  Tot: +0.00009 ]
	SubspaceRotationAdjust: set factor to 0.00451
ElecMinimize: Iter:  36  G: -1638.407668489792059  |grad|_K:  1.219e-07  alpha:  5.159e-01  linmin: -7.493e-06  t[s]:   8235.47
	Linear fluid (dielectric constant: 78.4, screening length: 8.12261 Bohr) occupying 0.363394 of unit cell:	Completed after 12 iterations at t[s]:   8257.47
	Linear fluid (dielectric constant: 78.4, screening length: 8.12261 Bohr) occupying 0.363390 of unit cell:	Completed after 7 iterations at t[s]:   8274.41
	FillingsUpdate:  mu: -0.171300000  nElectrons: 304.135527  magneticMoment: [ Abs: 0.00009  Tot: +0.00009 ]
	SubspaceRotationAdjust: set factor to 0.00456
ElecMinimize: Iter:  37  G: -1638.407671453214107  |grad|_K:  1.173e-07  alpha:  5.988e-01  linmin:  9.928e-06  t[s]:   8299.42
	Linear fluid (dielectric constant: 78.4, screening length: 8.12261 Bohr) occupying 0.363363 of unit cell:	Completed after 12 iterations at t[s]:   8321.38
	Linear fluid (dielectric constant: 78.4, screening length: 8.12261 Bohr) occupying 0.363362 of unit cell:	Completed after 2 iterations at t[s]:   8337.76
	FillingsUpdate:  mu: -0.171300000  nElectrons: 304.135859  magneticMoment: [ Abs: 0.00009  Tot: +0.00009 ]
	SubspaceRotationAdjust: set factor to 0.00496
ElecMinimize: Iter:  38  G: -1638.407674317446435  |grad|_K:  1.123e-07  alpha:  6.263e-01  linmin: -1.184e-05  t[s]:   8363.02
	Linear fluid (dielectric constant: 78.4, screening length: 8.12261 Bohr) occupying 0.363364 of unit cell:	Completed after 12 iterations at t[s]:   8385.17
	Linear fluid (dielectric constant: 78.4, screening length: 8.12261 Bohr) occupying 0.363364 of unit cell:	Completed after 10 iterations at t[s]:   8402.16
	FillingsUpdate:  mu: -0.171300000  nElectrons: 304.137122  magneticMoment: [ Abs: 0.00009  Tot: +0.00009 ]
	SubspaceRotationAdjust: set factor to 0.00435
ElecMinimize: Iter:  39  G: -1638.407676369989758  |grad|_K:  1.033e-07  alpha:  4.882e-01  linmin:  2.283e-05  t[s]:   8427.63
	Linear fluid (dielectric constant: 78.4, screening length: 8.12261 Bohr) occupying 0.363336 of unit cell:	Completed after 12 iterations at t[s]:   8449.65
	Linear fluid (dielectric constant: 78.4, screening length: 8.12261 Bohr) occupying 0.363339 of unit cell:	Completed after 7 iterations at t[s]:   8466.39
	FillingsUpdate:  mu: -0.171300000  nElectrons: 304.136649  magneticMoment: [ Abs: 0.00009  Tot: +0.00009 ]
	SubspaceRotationAdjust: set factor to 0.00394
ElecMinimize: Iter:  40  G: -1638.407677924227528  |grad|_K:  8.134e-08  alpha:  4.382e-01  linmin:  4.051e-05  t[s]:   8491.63
	Linear fluid (dielectric constant: 78.4, screening length: 8.12261 Bohr) occupying 0.363333 of unit cell:	Completed after 7 iterations at t[s]:   8513.16
	Linear fluid (dielectric constant: 78.4, screening length: 8.12261 Bohr) occupying 0.363332 of unit cell:	Completed after 2 iterations at t[s]:   8529.54
	FillingsUpdate:  mu: -0.171300000  nElectrons: 304.136832  magneticMoment: [ Abs: 0.00009  Tot: +0.00009 ]
	SubspaceRotationAdjust: set factor to 0.00471
ElecMinimize: Iter:  41  G: -1638.407679109383480  |grad|_K:  6.607e-08  alpha:  5.395e-01  linmin: -3.322e-05  t[s]:   8554.73
	Linear fluid (dielectric constant: 78.4, screening length: 8.12261 Bohr) occupying 0.363332 of unit cell:	Completed after 10 iterations at t[s]:   8576.75
	Linear fluid (dielectric constant: 78.4, screening length: 8.12261 Bohr) occupying 0.363332 of unit cell:	Completed after 2 iterations at t[s]:   8593.13
	FillingsUpdate:  mu: -0.171300000  nElectrons: 304.137105  magneticMoment: [ Abs: 0.00009  Tot: +0.00008 ]
	SubspaceRotationAdjust: set factor to 0.00483
ElecMinimize: Iter:  42  G: -1638.407679841355503  |grad|_K:  6.020e-08  alpha:  5.037e-01  linmin: -4.747e-05  t[s]:   8618.32
	Linear fluid (dielectric constant: 78.4, screening length: 8.12261 Bohr) occupying 0.363314 of unit cell:	Completed after 12 iterations at t[s]:   8640.27
	Linear fluid (dielectric constant: 78.4, screening length: 8.12261 Bohr) occupying 0.363317 of unit cell:	Completed after 9 iterations at t[s]:   8657.07
	FillingsUpdate:  mu: -0.171300000  nElectrons: 304.136502  magneticMoment: [ Abs: 0.00009  Tot: +0.00008 ]
	SubspaceRotationAdjust: set factor to 0.00428
ElecMinimize: Iter:  43  G: -1638.407680325883348  |grad|_K:  5.150e-08  alpha:  4.022e-01  linmin: -7.210e-05  t[s]:   8682.37
	Linear fluid (dielectric constant: 78.4, screening length: 8.12261 Bohr) occupying 0.363316 of unit cell:	Completed after 10 iterations at t[s]:   8704.19
	Linear fluid (dielectric constant: 78.4, screening length: 8.12261 Bohr) occupying 0.363315 of unit cell:	Completed after 2 iterations at t[s]:   8720.58
	FillingsUpdate:  mu: -0.171300000  nElectrons: 304.136514  magneticMoment: [ Abs: 0.00009  Tot: +0.00008 ]
	SubspaceRotationAdjust: set factor to 0.00517
ElecMinimize: Iter:  44  G: -1638.407680787264326  |grad|_K:  4.320e-08  alpha:  5.200e-01  linmin: -5.085e-05  t[s]:   8745.67
	Linear fluid (dielectric constant: 78.4, screening length: 8.12261 Bohr) occupying 0.363314 of unit cell:	Completed after 10 iterations at t[s]:   8767.69
	Linear fluid (dielectric constant: 78.4, screening length: 8.12261 Bohr) occupying 0.363314 of unit cell:	Completed after 0 iterations at t[s]:   8783.82
	FillingsUpdate:  mu: -0.171300000  nElectrons: 304.136552  magneticMoment: [ Abs: 0.00009  Tot: +0.00008 ]
	SubspaceRotationAdjust: set factor to 0.00536
ElecMinimize: Iter:  45  G: -1638.407681105710026  |grad|_K:  4.331e-08  alpha:  5.110e-01  linmin: -7.693e-05  t[s]:   8809.04
	Linear fluid (dielectric constant: 78.4, screening length: 8.12261 Bohr) occupying 0.363297 of unit cell:	Completed after 12 iterations at t[s]:   8831.00
	Linear fluid (dielectric constant: 78.4, screening length: 8.12261 Bohr) occupying 0.363302 of unit cell:	Completed after 10 iterations at t[s]:   8848.03
	FillingsUpdate:  mu: -0.171300000  nElectrons: 304.136017  magneticMoment: [ Abs: 0.00009  Tot: +0.00008 ]
	SubspaceRotationAdjust: set factor to 0.00451
ElecMinimize: Iter:  46  G: -1638.407681331680124  |grad|_K:  3.727e-08  alpha:  3.592e-01  linmin: -1.572e-06  t[s]:   8873.40
	Linear fluid (dielectric constant: 78.4, screening length: 8.12261 Bohr) occupying 0.363299 of unit cell:	Completed after 5 iterations at t[s]:   8894.82
	Linear fluid (dielectric constant: 78.4, screening length: 8.12261 Bohr) occupying 0.363298 of unit cell:	Completed after 3 iterations at t[s]:   8911.14
	FillingsUpdate:  mu: -0.171300000  nElectrons: 304.135912  magneticMoment: [ Abs: 0.00009  Tot: +0.00008 ]
	SubspaceRotationAdjust: set factor to 0.00572
ElecMinimize: Iter:  47  G: -1638.407681560305946  |grad|_K:  3.141e-08  alpha:  4.954e-01  linmin:  2.078e-05  t[s]:   8936.45
	Linear fluid (dielectric constant: 78.4, screening length: 8.12261 Bohr) occupying 0.363299 of unit cell:	Completed after 10 iterations at t[s]:   8958.29
	Linear fluid (dielectric constant: 78.4, screening length: 8.12261 Bohr) occupying 0.363299 of unit cell:	Completed after 0 iterations at t[s]:   8974.43
	FillingsUpdate:  mu: -0.171300000  nElectrons: 304.136025  magneticMoment: [ Abs: 0.00009  Tot: +0.00008 ]
	SubspaceRotationAdjust: set factor to 0.00533
ElecMinimize: Iter:  48  G: -1638.407681702716218  |grad|_K:  3.500e-08  alpha:  4.336e-01  linmin:  2.147e-04  t[s]:   8999.68
	Linear fluid (dielectric constant: 78.4, screening length: 8.12261 Bohr) occupying 0.363288 of unit cell:	Completed after 10 iterations at t[s]:   9021.47
	Linear fluid (dielectric constant: 78.4, screening length: 8.12261 Bohr) occupying 0.363292 of unit cell:	Completed after 9 iterations at t[s]:   9038.41
	FillingsUpdate:  mu: -0.171300000  nElectrons: 304.135721  magneticMoment: [ Abs: 0.00009  Tot: +0.00008 ]
	SubspaceRotationAdjust: set factor to 0.00522
ElecMinimize: Iter:  49  G: -1638.407681805077800  |grad|_K:  2.500e-08  alpha:  2.730e-01  linmin: -1.218e-04  t[s]:   9063.60
	Linear fluid (dielectric constant: 78.4, screening length: 8.12261 Bohr) occupying 0.363290 of unit cell:	Completed after 3 iterations at t[s]:   9085.00
	Linear fluid (dielectric constant: 78.4, screening length: 8.12261 Bohr) occupying 0.363288 of unit cell:	Completed after 6 iterations at t[s]:   9101.60
	FillingsUpdate:  mu: -0.171300000  nElectrons: 304.135586  magneticMoment: [ Abs: 0.00009  Tot: +0.00008 ]
	SubspaceRotationAdjust: set factor to 0.0064
ElecMinimize: Iter:  50  G: -1638.407681915286048  |grad|_K:  2.582e-08  alpha:  5.314e-01  linmin:  1.158e-04  t[s]:   9126.90
	Linear fluid (dielectric constant: 78.4, screening length: 8.12261 Bohr) occupying 0.363291 of unit cell:	Completed after 11 iterations at t[s]:   9148.83
	Linear fluid (dielectric constant: 78.4, screening length: 8.12261 Bohr) occupying 0.363290 of unit cell:	Completed after 6 iterations at t[s]:   9165.44
	FillingsUpdate:  mu: -0.171300000  nElectrons: 304.135794  magneticMoment: [ Abs: 0.00009  Tot: +0.00008 ]
	SubspaceRotationAdjust: set factor to 0.00566
ElecMinimize: Iter:  51  G: -1638.407681999024135  |grad|_K:  2.666e-08  alpha:  3.820e-01  linmin:  8.737e-05  t[s]:   9190.62
	Linear fluid (dielectric constant: 78.4, screening length: 8.12261 Bohr) occupying 0.363285 of unit cell:	Completed after 7 iterations at t[s]:   9212.22
	Linear fluid (dielectric constant: 78.4, screening length: 8.12261 Bohr) occupying 0.363285 of unit cell:	Completed after 0 iterations at t[s]:   9228.34
	FillingsUpdate:  mu: -0.171300000  nElectrons: 304.135668  magneticMoment: [ Abs: 0.00009  Tot: +0.00008 ]
	SubspaceRotationAdjust: set factor to 0.00708
ElecMinimize: Iter:  52  G: -1638.407682105262211  |grad|_K:  2.371e-08  alpha:  4.522e-01  linmin: -3.332e-04  t[s]:   9253.60
[...]
	FillingsUpdate:  mu: -0.171300000  nElectrons: 304.123182  magneticMoment: [ Abs: 0.00000  Tot: +0.00000 ]
	SubspaceRotationAdjust: set factor to 0.00791
ElecMinimize: Iter:   5  G: -1638.419619401139016  |grad|_K:  2.264e-07  alpha:  3.736e-01  linmin:  5.767e-05  t[s]:  61379.93
	Linear fluid (dielectric constant: 78.4, screening length: 8.12261 Bohr) occupying 0.368406 of unit cell:	Completed after 14 iterations at t[s]:  61402.04
	Linear fluid (dielectric constant: 78.4, screening length: 8.12261 Bohr) occupying 0.368406 of unit cell:	Completed after 10 iterations at t[s]:  61419.12
	FillingsUpdate:  mu: -0.171300000  nElectrons: 304.122895  magneticMoment: [ Abs: 0.00000  Tot: +0.00000 ]
	SubspaceRotationAdjust: set factor to 0.00612
ElecMinimize: Iter:   6  G: -1638.419624644957821  |grad|_K:  1.542e-07  alpha:  3.076e-01  linmin: -4.612e-05  t[s]:  61444.38
	Linear fluid (dielectric constant: 78.4, screening length: 8.12261 Bohr) occupying 0.368417 of unit cell:	Completed after 10 iterations at t[s]:  61466.28
	Linear fluid (dielectric constant: 78.4, screening length: 8.12261 Bohr) occupying 0.368427 of unit cell:	Completed after 9 iterations at t[s]:  61483.24
	FillingsUpdate:  mu: -0.171300000  nElectrons: 304.124419  magneticMoment: [ Abs: 0.00000  Tot: +0.00000 ]
	SubspaceRotationAdjust: set factor to 0.00615
ElecMinimize: Iter:   7  G: -1638.419629474167778  |grad|_K:  1.131e-07  alpha:  6.089e-01  linmin: -5.241e-04  t[s]:  61508.33
	Linear fluid (dielectric constant: 78.4, screening length: 8.12261 Bohr) occupying 0.368417 of unit cell:	Completed after 12 iterations at t[s]:  61530.34
	Linear fluid (dielectric constant: 78.4, screening length: 8.12261 Bohr) occupying 0.368418 of unit cell:	Completed after 0 iterations at t[s]:  61546.42
	FillingsUpdate:  mu: -0.171300000  nElectrons: 304.124632  magneticMoment: [ Abs: 0.00000  Tot: +0.00000 ]
	SubspaceRotationAdjust: set factor to 0.00631
ElecMinimize: Iter:   8  G: -1638.419631984137823  |grad|_K:  8.628e-08  alpha:  5.883e-01  linmin:  4.107e-04  t[s]:  61571.56
	Linear fluid (dielectric constant: 78.4, screening length: 8.12261 Bohr) occupying 0.368417 of unit cell:	Completed after 12 iterations at t[s]:  61593.62
	Linear fluid (dielectric constant: 78.4, screening length: 8.12261 Bohr) occupying 0.368417 of unit cell:	Completed after 6 iterations at t[s]:  61610.25
	FillingsUpdate:  mu: -0.171300000  nElectrons: 304.125308  magneticMoment: [ Abs: 0.00000  Tot: +0.00000 ]
	SubspaceRotationAdjust: set factor to 0.00602
ElecMinimize: Iter:   9  G: -1638.419633250122843  |grad|_K:  7.094e-08  alpha:  5.126e-01  linmin: -1.769e-04  t[s]:  61635.45
	Linear fluid (dielectric constant: 78.4, screening length: 8.12261 Bohr) occupying 0.368393 of unit cell:	Completed after 12 iterations at t[s]:  61657.46
	Linear fluid (dielectric constant: 78.4, screening length: 8.12261 Bohr) occupying 0.368399 of unit cell:	Completed after 10 iterations at t[s]:  61674.53
	FillingsUpdate:  mu: -0.171300000  nElectrons: 304.124763  magneticMoment: [ Abs: 0.00000  Tot: +0.00000 ]
	SubspaceRotationAdjust: set factor to 0.00504
ElecMinimize: Iter:  10  G: -1638.419633887906230  |grad|_K:  5.911e-08  alpha:  3.811e-01  linmin: -2.076e-04  t[s]:  61699.65
	Linear fluid (dielectric constant: 78.4, screening length: 8.12261 Bohr) occupying 0.368397 of unit cell:	Completed after 10 iterations at t[s]:  61721.55
	Linear fluid (dielectric constant: 78.4, screening length: 8.12261 Bohr) occupying 0.368397 of unit cell:	Completed after 6 iterations at t[s]:  61738.33
	FillingsUpdate:  mu: -0.171300000  nElectrons: 304.125076  magneticMoment: [ Abs: 0.00000  Tot: +0.00000 ]
	SubspaceRotationAdjust: set factor to 0.00551
ElecMinimize: Iter:  11  G: -1638.419634426026960  |grad|_K:  4.512e-08  alpha:  4.622e-01  linmin: -3.220e-04  t[s]:  61763.50
	Linear fluid (dielectric constant: 78.4, screening length: 8.12261 Bohr) occupying 0.368393 of unit cell:	Completed after 2 iterations at t[s]:  61784.93
	Linear fluid (dielectric constant: 78.4, screening length: 8.12261 Bohr) occupying 0.368391 of unit cell:	Completed after 2 iterations at t[s]:  61801.26
	FillingsUpdate:  mu: -0.171300000  nElectrons: 304.124992  magneticMoment: [ Abs: 0.00000  Tot: +0.00000 ]
	SubspaceRotationAdjust: set factor to 0.00659
ElecMinimize: Iter:  12  G: -1638.419634847983843  |grad|_K:  4.125e-08  alpha:  6.219e-01  linmin:  7.793e-06  t[s]:  61826.77
	Linear fluid (dielectric constant: 78.4, screening length: 8.12261 Bohr) occupying 0.368384 of unit cell:	Completed after 10 iterations at t[s]:  61848.61
	Linear fluid (dielectric constant: 78.4, screening length: 8.12261 Bohr) occupying 0.368384 of unit cell:	Completed after 0 iterations at t[s]:  61864.77
	FillingsUpdate:  mu: -0.171300000  nElectrons: 304.124595  magneticMoment: [ Abs: 0.00000  Tot: +0.00000 ]
	SubspaceRotationAdjust: set factor to 0.00719
ElecMinimize: Iter:  13  G: -1638.419635207464808  |grad|_K:  4.425e-08  alpha:  6.349e-01  linmin: -9.505e-04  t[s]:  61890.30
	Linear fluid (dielectric constant: 78.4, screening length: 8.12261 Bohr) occupying 0.368390 of unit cell:	Completed after 10 iterations at t[s]:  61912.11
	Linear fluid (dielectric constant: 78.4, screening length: 8.12261 Bohr) occupying 0.368388 of unit cell:	Completed after 9 iterations at t[s]:  61928.97
	FillingsUpdate:  mu: -0.171300000  nElectrons: 304.124727  magneticMoment: [ Abs: 0.00000  Tot: +0.00000 ]
	SubspaceRotationAdjust: set factor to 0.00631
ElecMinimize: Iter:  14  G: -1638.419635500590857  |grad|_K:  4.781e-08  alpha:  4.445e-01  linmin:  1.613e-04  t[s]:  61954.21
	Linear fluid (dielectric constant: 78.4, screening length: 8.12261 Bohr) occupying 0.368379 of unit cell:	Completed after 10 iterations at t[s]:  61976.07
	Linear fluid (dielectric constant: 78.4, screening length: 8.12261 Bohr) occupying 0.368379 of unit cell:	Completed after 0 iterations at t[s]:  61992.37
	FillingsUpdate:  mu: -0.171300000  nElectrons: 304.123997  magneticMoment: [ Abs: 0.00000  Tot: +0.00000 ]
	SubspaceRotationAdjust: set factor to 0.00596
ElecMinimize: Iter:  15  G: -1638.419635849119913  |grad|_K:  3.978e-08  alpha:  4.592e-01  linmin: -1.166e-03  t[s]:  62017.61
	Linear fluid (dielectric constant: 78.4, screening length: 8.12261 Bohr) occupying 0.368377 of unit cell:	Completed after 6 iterations at t[s]:  62039.11
	Linear fluid (dielectric constant: 78.4, screening length: 8.12261 Bohr) occupying 0.368377 of unit cell:	Completed after 2 iterations at t[s]:  62055.43
	FillingsUpdate:  mu: -0.171300000  nElectrons: 304.123554  magneticMoment: [ Abs: 0.00000  Tot: +0.00000 ]
	SubspaceRotationAdjust: set factor to 0.00664
ElecMinimize: Iter:  16  G: -1638.419636208588372  |grad|_K:  3.543e-08  alpha:  6.685e-01  linmin: -1.328e-03  t[s]:  62080.65
	Linear fluid (dielectric constant: 78.4, screening length: 8.12261 Bohr) occupying 0.368381 of unit cell:	Completed after 10 iterations at t[s]:  62102.44
	Linear fluid (dielectric constant: 78.4, screening length: 8.12261 Bohr) occupying 0.368380 of unit cell:	Completed after 2 iterations at t[s]:  62118.76
	FillingsUpdate:  mu: -0.171300000  nElectrons: 304.123429  magneticMoment: [ Abs: 0.00000  Tot: +0.00000 ]
	SubspaceRotationAdjust: set factor to 0.00661
ElecMinimize: Iter:  17  G: -1638.419636459472940  |grad|_K:  3.370e-08  alpha:  5.915e-01  linmin:  4.042e-04  t[s]:  62144.07
	Linear fluid (dielectric constant: 78.4, screening length: 8.12261 Bohr) occupying 0.368374 of unit cell:	Completed after 11 iterations at t[s]:  62165.95
	Linear fluid (dielectric constant: 78.4, screening length: 8.12261 Bohr) occupying 0.368377 of unit cell:	Completed after 10 iterations at t[s]:  62182.87
	FillingsUpdate:  mu: -0.171300000  nElectrons: 304.123001  magneticMoment: [ Abs: 0.00000  Tot: +0.00000 ]
	SubspaceRotationAdjust: set factor to 0.00555
ElecMinimize: Iter:  18  G: -1638.419636594538360  |grad|_K:  3.033e-08  alpha:  3.634e-01  linmin: -1.588e-06  t[s]:  62208.10
	Linear fluid (dielectric constant: 78.4, screening length: 8.12261 Bohr) occupying 0.368381 of unit cell:	Completed after 9 iterations at t[s]:  62229.87
	Linear fluid (dielectric constant: 78.4, screening length: 8.12261 Bohr) occupying 0.368382 of unit cell:	Completed after 3 iterations at t[s]:  62246.31
	FillingsUpdate:  mu: -0.171300000  nElectrons: 304.123059  magneticMoment: [ Abs: 0.00000  Tot: +0.00000 ]
	SubspaceRotationAdjust: set factor to 0.0062
ElecMinimize: Iter:  19  G: -1638.419636738585268  |grad|_K:  2.368e-08  alpha:  4.710e-01  linmin: -1.081e-03  t[s]:  62271.62
	Linear fluid (dielectric constant: 78.4, screening length: 8.12261 Bohr) occupying 0.368385 of unit cell:	Completed after 6 iterations at t[s]:  62293.24
	Linear fluid (dielectric constant: 78.4, screening length: 8.12261 Bohr) occupying 0.368386 of unit cell:	Completed after 0 iterations at t[s]:  62309.36
	FillingsUpdate:  mu: -0.171300000  nElectrons: 304.123070  magneticMoment: [ Abs: 0.00000  Tot: +0.00000 ]
	SubspaceRotationAdjust: set factor to 0.0075
ElecMinimize: Iter:  20  G: -1638.419636856989882  |grad|_K:  2.413e-08  alpha:  6.215e-01  linmin: -1.862e-03  t[s]:  62334.52
	Linear fluid (dielectric constant: 78.4, screening length: 8.12261 Bohr) occupying 0.368384 of unit cell:	Completed after 10 iterations at t[s]:  62356.46
	Linear fluid (dielectric constant: 78.4, screening length: 8.12261 Bohr) occupying 0.368384 of unit cell:	Completed after 4 iterations at t[s]:  62372.99
	FillingsUpdate:  mu: -0.171300000  nElectrons: 304.122828  magneticMoment: [ Abs: 0.00000  Tot: +0.00000 ]
	SubspaceRotationAdjust: set factor to 0.00706
ElecMinimize: Iter:  21  G: -1638.419636960751632  |grad|_K:  2.920e-08  alpha:  5.143e-01  linmin:  1.467e-03  t[s]:  62398.30
	Linear fluid (dielectric constant: 78.4, screening length: 8.12261 Bohr) occupying 0.368391 of unit cell:	Completed after 10 iterations at t[s]:  62420.16
	Linear fluid (dielectric constant: 78.4, screening length: 8.12261 Bohr) occupying 0.368390 of unit cell:	Completed after 5 iterations at t[s]:  62436.70
	FillingsUpdate:  mu: -0.171300000  nElectrons: 304.123043  magneticMoment: [ Abs: 0.00000  Tot: +0.00000 ]
	SubspaceRotationAdjust: set factor to 0.00644
ElecMinimize: Iter:  22  G: -1638.419637069449209  |grad|_K:  2.621e-08  alpha:  3.997e-01  linmin: -2.598e-05  t[s]:  62461.91
	Linear fluid (dielectric constant: 78.4, screening length: 8.12261 Bohr) occupying 0.368390 of unit cell:	Completed after 6 iterations at t[s]:  62483.41
	Linear fluid (dielectric constant: 78.4, screening length: 8.12261 Bohr) occupying 0.368389 of unit cell:	Completed after 2 iterations at t[s]:  62499.74
	FillingsUpdate:  mu: -0.171300000  nElectrons: 304.122983  magneticMoment: [ Abs: 0.00000  Tot: +0.00000 ]
	SubspaceRotationAdjust: set factor to 0.00727
ElecMinimize: Iter:  23  G: -1638.419637231028446  |grad|_K:  2.753e-08  alpha:  7.001e-01  linmin: -8.870e-04  t[s]:  62524.93
	Linear fluid (dielectric constant: 78.4, screening length: 8.12261 Bohr) occupying 0.368386 of unit cell:	Completed after 10 iterations at t[s]:  62546.76
	Linear fluid (dielectric constant: 78.4, screening length: 8.12261 Bohr) occupying 0.368386 of unit cell:	Completed after 0 iterations at t[s]:  62562.95
	FillingsUpdate:  mu: -0.171300000  nElectrons: 304.122869  magneticMoment: [ Abs: 0.00000  Tot: +0.00000 ]
	SubspaceRotationAdjust: set factor to 0.00729
ElecMinimize: Iter:  24  G: -1638.419637406514539  |grad|_K:  3.444e-08  alpha:  6.839e-01  linmin: -3.633e-04  t[s]:  62588.15
	Linear fluid (dielectric constant: 78.4, screening length: 8.12261 Bohr) occupying 0.368396 of unit cell:	Completed after 12 iterations at t[s]:  62610.08
	Linear fluid (dielectric constant: 78.4, screening length: 8.12261 Bohr) occupying 0.368391 of unit cell:	Completed after 9 iterations at t[s]:  62626.88
	FillingsUpdate:  mu: -0.171300000  nElectrons: 304.123230  magneticMoment: [ Abs: 0.00000  Tot: +0.00000 ]
	SubspaceRotationAdjust: set factor to 0.00565
ElecMinimize: Iter:  25  G: -1638.419637533932018  |grad|_K:  3.202e-08  alpha:  3.203e-01  linmin:  8.695e-05  t[s]:  62652.02
	Linear fluid (dielectric constant: 78.4, screening length: 8.12261 Bohr) occupying 0.368389 of unit cell:	Completed after 6 iterations at t[s]:  62673.56
	Linear fluid (dielectric constant: 78.4, screening length: 8.12261 Bohr) occupying 0.368388 of unit cell:	Completed after 2 iterations at t[s]:  62689.86
	FillingsUpdate:  mu: -0.171300000  nElectrons: 304.123229  magneticMoment: [ Abs: 0.00000  Tot: +0.00000 ]
	SubspaceRotationAdjust: set factor to 0.00692
ElecMinimize: Iter:  26  G: -1638.419637699828399  |grad|_K:  2.603e-08  alpha:  4.882e-01  linmin: -1.140e-04  t[s]:  62714.97
	Linear fluid (dielectric constant: 78.4, screening length: 8.12261 Bohr) occupying 0.368382 of unit cell:	Completed after 10 iterations at t[s]:  62737.15
	Linear fluid (dielectric constant: 78.4, screening length: 8.12261 Bohr) occupying 0.368383 of unit cell:	Completed after 2 iterations at t[s]:  62753.43
	FillingsUpdate:  mu: -0.171300000  nElectrons: 304.123078  magneticMoment: [ Abs: 0.00000  Tot: +0.00000 ]
	SubspaceRotationAdjust: set factor to 0.00629
ElecMinimize: Iter:  27  G: -1638.419637789986837  |grad|_K:  2.998e-08  alpha:  4.042e-01  linmin: -1.636e-04  t[s]:  62778.73
	Linear fluid (dielectric constant: 78.4, screening length: 8.12261 Bohr) occupying 0.368387 of unit cell:	Completed after 10 iterations at t[s]:  62800.58
	Linear fluid (dielectric constant: 78.4, screening length: 8.12261 Bohr) occupying 0.368385 of unit cell:	Completed after 8 iterations at t[s]:  62817.55
	FillingsUpdate:  mu: -0.171300000  nElectrons: 304.123289  magneticMoment: [ Abs: 0.00000  Tot: +0.00000 ]
	SubspaceRotationAdjust: set factor to 0.00641
ElecMinimize: Iter:  28  G: -1638.419637865079721  |grad|_K:  1.973e-08  alpha:  2.563e-01  linmin: -7.079e-05  t[s]:  62842.62
ElecMinimize: Converged (|Delta G|<1.000000e-07 for 2 iters).
Setting wave functions to eigenvectors of Hamiltonian
Converging empty states (this may take a while): |deigs|: 8.503e-08

Computing DFT-D3 correction:
# coordination-number Pt 5.973 7.085 8.564 5.969 9.209 9.395 9.498 9.519 9.563 9.558 9.571 9.558 9.561 9.522 9.501 9.398 9.209 8.560 7.084
# diagonal-C6 Pt 336.87 336.87 336.87 336.87 336.87 336.87 336.87 336.87 336.87 336.87 336.87 336.87 336.87 336.87 336.87 336.87 336.87 336.87 336.87
EvdW_6 =   -0.179041
EvdW_8 =   -0.282276

# Ionic positions in cartesian coordinates:
ion Pt  -0.003857409608756   7.033389094787251  63.414241024061035 1
ion Pt   2.611553867869306   2.919708136595188  62.131206728629174 1
ion Pt   2.611877787439808  10.314641200014126  60.490064890903369 1
ion Pt   0.004169404598613   0.167514044407530  33.340984518080724 1
ion Pt  -0.007910246200227   6.055137447311255  58.452510292074635 1
ion Pt   2.606674827787488   1.788541342953377  56.914260071675962 1
ion Pt   2.605549954204153   9.070369510508003  55.153405351310866 1
ion Pt  -0.007984070592340   4.827959522131111  53.482797880992869 1
ion Pt   2.609813150219742   0.618842576929416  51.779777426686394 1
ion Pt   2.612540076847915   7.800276913586555  50.055572121648872 1
ion Pt  -0.000211617916765   3.601271461871651  48.378637818341161 1
ion Pt   0.003580186665216  10.804578211592789  46.700267454535251 1
ion Pt   2.621949194204258   6.584134313259269  44.976478514274184 1
ion Pt   0.007889388788832   2.373237735816415  43.271900735416253 1
ion Pt   0.010475678710149   9.535491328115709  41.603287109206164 1
ion Pt   2.625059100936375   5.412192387762794  39.842911799314926 1
ion Pt   0.008279748132311   1.147133604594218  38.306509757378542 1
ion Pt   0.003977093355829   8.289018341379615  36.266630421400542 1
ion Pt   2.620562884558081   4.282374826383746  34.625784084069018 1

# Forces in Cartesian coordinates:
force Pt  -0.000021092231663  -0.000045789973019   0.000190722130301 1
force Pt  -0.000024075454252  -0.000184305089346  -0.000216366585674 1
force Pt  -0.000021323155317   0.000091592763738  -0.000026114803223 1
force Pt   0.000020202819488   0.000121623688168   0.000058485237387 1
force Pt  -0.000025100932047  -0.000086528918145  -0.000421968781078 1
force Pt  -0.000021752732421   0.000021924720485  -0.000043540404350 1
force Pt  -0.000018630947989  -0.000230851609588  -0.000017944488437 1
force Pt  -0.000011756463272  -0.000007972975491   0.000247104915479 1
force Pt  -0.000012732558918  -0.000145958340569   0.000027198764011 1
force Pt  -0.000005280710358   0.000033411774069   0.000000667988422 1
force Pt  -0.000000152234380  -0.000052846570455  -0.000205636326855 1
force Pt   0.000003840103905   0.000126042051874   0.000011917768713 1
force Pt   0.000014110062907  -0.000047763709903  -0.000088240553802 1
force Pt   0.000013050334992   0.000226621961003   0.000239322382657 1
force Pt   0.000019036102453  -0.000091740948139   0.000038141882858 1
force Pt   0.000021331951551   0.000251470557465   0.000116207517172 1
force Pt   0.000023681568596  -0.000053060669721  -0.000093621244157 1
force Pt   0.000021628381408   0.000089675299032   0.000040745172431 1
force Pt   0.000023890641013  -0.000057616315145   0.000168208586701 1

# Energy components:
   A_diel =       -0.0571184821390542
   Eewald =    11604.2811510424671724
       EH =    13186.9896652390671079
     Eloc =   -26774.8641063117574959
      Enl =      -20.0284635782036879
     EvdW =       -0.4613178549053638
      Exc =     -540.6608766452261534
 Exc_core =      311.4362487362515139
       KE =      542.8617867727700741
  MuShift =       -0.0096633609656321
-------------------------------------
     Etot =    -1690.5126944426426689
       TS =        0.0032628918622668
-------------------------------------
        F =    -1690.5159573345049466
      muN =      -52.0963194694251897
-------------------------------------
        G =    -1638.4196378650797215


Dumping 'jdft.fillings' ... done
Dumping 'jdft.wfns' ... done
Dumping 'jdft.fluidState' ... done
Dumping 'jdft.ionpos' ... done
Dumping 'jdft.lattice' ... done
Dumping 'jdft.eigenvals' ... done
Dumping 'jdft.eigStats' ... 
	eMin: -2.121322 at state 2 ( [ +0.000000 +0.400000 +0.000000 ] spin 1 )
	HOMO: -0.171318 at state 72 ( [ +0.272727 +0.400000 +0.000000 ] spin -1 )
	mu  : -0.171300
	LUMO: -0.171272 at state 5 ( [ +0.090909 +0.000000 +0.000000 ] spin 1 )
	eMax: +0.147531 at state 93 ( [ -0.363636 -0.400000 +0.000000 ] spin -1 )
	HOMO-LUMO gap: +0.000046
	Optical gap  : +0.000983 at state 5 ( [ +0.090909 +0.000000 +0.000000 ] spin 1 )
Dumping 'jdft.Ecomponents' ... done
IonicMinimize: Iter:  14  G: -1638.419637865079721  |grad|_K:  1.183e-04  alpha:  1.000e+00  linmin:  1.685e-01  t[s]:  62910.77
IonicMinimize: Converged (|Delta G|<1.000000e-06 for 2 iters).

#--- Lowdin population analysis ---
# oxidation-state Pt +0.021 -0.002 -0.044 +0.020 +0.011 +0.008 +0.014 +0.010 +0.008 +0.004 +0.001 +0.006 +0.011 +0.012 +0.015 +0.009 +0.010 -0.046 -0.003
# magnetic-moments Pt +0.000 +0.000 +0.000 +0.000 +0.000 +0.000 +0.000 +0.000 +0.000 +0.000 +0.000 +0.000 +0.000 +0.000 +0.000 +0.000 +0.000 +0.000 +0.000


Dumping 'jdft.n_up' ... done
Dumping 'jdft.n_dn' ... done
Dumping 'jdft.tau_up' ... done
Dumping 'jdft.tau_dn' ... done
Dumping 'jdft.eigenvals' ... done
Dumping 'jdft.eigStats' ... 
	eMin: -2.121322 at state 2 ( [ +0.000000 +0.400000 +0.000000 ] spin 1 )
	HOMO: -0.171318 at state 72 ( [ +0.272727 +0.400000 +0.000000 ] spin -1 )
	mu  : -0.171300
	LUMO: -0.171272 at state 5 ( [ +0.090909 +0.000000 +0.000000 ] spin 1 )
	eMax: +0.147531 at state 93 ( [ -0.363636 -0.400000 +0.000000 ] spin -1 )
	HOMO-LUMO gap: +0.000046
	Optical gap  : +0.000983 at state 5 ( [ +0.090909 +0.000000 +0.000000 ] spin 1 )
Dumping 'jdft.kPts' ... done
Dumping 'jdft.dosUp' ... done.
Dumping 'jdft.dosDn' ... done.
End date and time: Tue Dec  7 10:18:18 2021  (Duration: 0-17:29:11.78)
Done!
