
*************** JDFTx 1.6.0  ***************

Start date and time: Mon Dec  6 15:03:52 2021
Executable /projects/musgravc/apps/jdftx-1.6.1/build/jdftx with command-line: -i in
Running on hosts (process indices):  shas0653.rc.int.colorado.edu (0-23)
Divided in process groups (process indices):  0 (0)  1 (1)  2 (2)  3 (3)  4 (4)  5 (5)  6 (6)  7 (7)  8 (8)  9 (9)  10 (10)  11 (11)  12 (12)  13 (13)  14 (14)  15 (15)  16 (16)  17 (17)  18 (18)  19 (19)  20 (20)  21 (21)  22 (22)  23 (23)
Resource initialization completed at t[s]:      0.00
Run totals: 24 processes, 24 threads, 0 GPUs


Input parsed successfully to the following command list (including defaults):

basis kpoint-dependent
converge-empty-states yes
coords-type Cartesian
core-overlap-check none
coulomb-interaction Periodic
davidson-band-ratio 1.1
density-of-states Etol 1.000000e-06 Esigma 1.000000e-03 \
		Complete \
	Total \
	OrthoOrbital Cu 1   s \
	OrthoOrbital Cu 1   p \
	OrthoOrbital Cu 1   px \
	OrthoOrbital Cu 1   py \
	OrthoOrbital Cu 1   pz \
	OrthoOrbital Cu 1   d \
	OrthoOrbital Cu 1   dxy \
	OrthoOrbital Cu 1   dyz \
	OrthoOrbital Cu 1   dz2 \
	OrthoOrbital Cu 1   dxz \
	OrthoOrbital Cu 1   dx2-y2 \
	OrthoOrbital Cu 2   s \
	OrthoOrbital Cu 2   p \
	OrthoOrbital Cu 2   px \
	OrthoOrbital Cu 2   py \
	OrthoOrbital Cu 2   pz \
	OrthoOrbital Cu 2   d \
	OrthoOrbital Cu 2   dxy \
	OrthoOrbital Cu 2   dyz \
	OrthoOrbital Cu 2   dz2 \
	OrthoOrbital Cu 2   dxz \
	OrthoOrbital Cu 2   dx2-y2 \
	OrthoOrbital Cu 3   s \
	OrthoOrbital Cu 3   p \
	OrthoOrbital Cu 3   px \
	OrthoOrbital Cu 3   py \
	OrthoOrbital Cu 3   pz \
	OrthoOrbital Cu 3   d \
	OrthoOrbital Cu 3   dxy \
	OrthoOrbital Cu 3   dyz \
	OrthoOrbital Cu 3   dz2 \
	OrthoOrbital Cu 3   dxz \
	OrthoOrbital Cu 3   dx2-y2 \
	OrthoOrbital Cu 4   s \
	OrthoOrbital Cu 4   p \
	OrthoOrbital Cu 4   px \
	OrthoOrbital Cu 4   py \
	OrthoOrbital Cu 4   pz \
	OrthoOrbital Cu 4   d \
	OrthoOrbital Cu 4   dxy \
	OrthoOrbital Cu 4   dyz \
	OrthoOrbital Cu 4   dz2 \
	OrthoOrbital Cu 4   dxz \
	OrthoOrbital Cu 4   dx2-y2 \
	OrthoOrbital Cu 5   s \
	OrthoOrbital Cu 5   p \
	OrthoOrbital Cu 5   px \
	OrthoOrbital Cu 5   py \
	OrthoOrbital Cu 5   pz \
	OrthoOrbital Cu 5   d \
	OrthoOrbital Cu 5   dxy \
	OrthoOrbital Cu 5   dyz \
	OrthoOrbital Cu 5   dz2 \
	OrthoOrbital Cu 5   dxz \
	OrthoOrbital Cu 5   dx2-y2 \
	OrthoOrbital Cu 6   s \
	OrthoOrbital Cu 6   p \
	OrthoOrbital Cu 6   px \
	OrthoOrbital Cu 6   py \
	OrthoOrbital Cu 6   pz \
	OrthoOrbital Cu 6   d \
	OrthoOrbital Cu 6   dxy \
	OrthoOrbital Cu 6   dyz \
	OrthoOrbital Cu 6   dz2 \
	OrthoOrbital Cu 6   dxz \
	OrthoOrbital Cu 6   dx2-y2 \
	OrthoOrbital Cu 7   s \
	OrthoOrbital Cu 7   p \
	OrthoOrbital Cu 7   px \
	OrthoOrbital Cu 7   py \
	OrthoOrbital Cu 7   pz \
	OrthoOrbital Cu 7   d \
	OrthoOrbital Cu 7   dxy \
	OrthoOrbital Cu 7   dyz \
	OrthoOrbital Cu 7   dz2 \
	OrthoOrbital Cu 7   dxz \
	OrthoOrbital Cu 7   dx2-y2 \
	OrthoOrbital Cu 8   s \
	OrthoOrbital Cu 8   p \
	OrthoOrbital Cu 8   px \
	OrthoOrbital Cu 8   py \
	OrthoOrbital Cu 8   pz \
	OrthoOrbital Cu 8   d \
	OrthoOrbital Cu 8   dxy \
	OrthoOrbital Cu 8   dyz \
	OrthoOrbital Cu 8   dz2 \
	OrthoOrbital Cu 8   dxz \
	OrthoOrbital Cu 8   dx2-y2 \
	OrthoOrbital Cu 9   s \
	OrthoOrbital Cu 9   p \
	OrthoOrbital Cu 9   px \
	OrthoOrbital Cu 9   py \
	OrthoOrbital Cu 9   pz \
	OrthoOrbital Cu 9   d \
	OrthoOrbital Cu 9   dxy \
	OrthoOrbital Cu 9   dyz \
	OrthoOrbital Cu 9   dz2 \
	OrthoOrbital Cu 9   dxz \
	OrthoOrbital Cu 9   dx2-y2 \
	OrthoOrbital Cu 10   s \
	OrthoOrbital Cu 10   p \
	OrthoOrbital Cu 10   px \
	OrthoOrbital Cu 10   py \
	OrthoOrbital Cu 10   pz \
	OrthoOrbital Cu 10   d \
	OrthoOrbital Cu 10   dxy \
	OrthoOrbital Cu 10   dyz \
	OrthoOrbital Cu 10   dz2 \
	OrthoOrbital Cu 10   dxz \
	OrthoOrbital Cu 10   dx2-y2 \
	OrthoOrbital Cu 11   s \
	OrthoOrbital Cu 11   p \
	OrthoOrbital Cu 11   px \
	OrthoOrbital Cu 11   py \
	OrthoOrbital Cu 11   pz \
	OrthoOrbital Cu 11   d \
	OrthoOrbital Cu 11   dxy \
	OrthoOrbital Cu 11   dyz \
	OrthoOrbital Cu 11   dz2 \
	OrthoOrbital Cu 11   dxz \
	OrthoOrbital Cu 11   dx2-y2 \
	OrthoOrbital Cu 12   s \
	OrthoOrbital Cu 12   p \
	OrthoOrbital Cu 12   px \
	OrthoOrbital Cu 12   py \
	OrthoOrbital Cu 12   pz \
	OrthoOrbital Cu 12   d \
	OrthoOrbital Cu 12   dxy \
	OrthoOrbital Cu 12   dyz \
	OrthoOrbital Cu 12   dz2 \
	OrthoOrbital Cu 12   dxz \
	OrthoOrbital Cu 12   dx2-y2 \
	OrthoOrbital Cu 13   s \
	OrthoOrbital Cu 13   p \
	OrthoOrbital Cu 13   px \
	OrthoOrbital Cu 13   py \
	OrthoOrbital Cu 13   pz \
	OrthoOrbital Cu 13   d \
	OrthoOrbital Cu 13   dxy \
	OrthoOrbital Cu 13   dyz \
	OrthoOrbital Cu 13   dz2 \
	OrthoOrbital Cu 13   dxz \
	OrthoOrbital Cu 13   dx2-y2 \
	OrthoOrbital Cu 14   s \
	OrthoOrbital Cu 14   p \
	OrthoOrbital Cu 14   px \
	OrthoOrbital Cu 14   py \
	OrthoOrbital Cu 14   pz \
	OrthoOrbital Cu 14   d \
	OrthoOrbital Cu 14   dxy \
	OrthoOrbital Cu 14   dyz \
	OrthoOrbital Cu 14   dz2 \
	OrthoOrbital Cu 14   dxz \
	OrthoOrbital Cu 14   dx2-y2 \
	OrthoOrbital Cu 15   s \
	OrthoOrbital Cu 15   p \
	OrthoOrbital Cu 15   px \
	OrthoOrbital Cu 15   py \
	OrthoOrbital Cu 15   pz \
	OrthoOrbital Cu 15   d \
	OrthoOrbital Cu 15   dxy \
	OrthoOrbital Cu 15   dyz \
	OrthoOrbital Cu 15   dz2 \
	OrthoOrbital Cu 15   dxz \
	OrthoOrbital Cu 15   dx2-y2 \
	OrthoOrbital Cu 16   s \
	OrthoOrbital Cu 16   p \
	OrthoOrbital Cu 16   px \
	OrthoOrbital Cu 16   py \
	OrthoOrbital Cu 16   pz \
	OrthoOrbital Cu 16   d \
	OrthoOrbital Cu 16   dxy \
	OrthoOrbital Cu 16   dyz \
	OrthoOrbital Cu 16   dz2 \
	OrthoOrbital Cu 16   dxz \
	OrthoOrbital Cu 16   dx2-y2 \
	OrthoOrbital Cu 17   s \
	OrthoOrbital Cu 17   p \
	OrthoOrbital Cu 17   px \
	OrthoOrbital Cu 17   py \
	OrthoOrbital Cu 17   pz \
	OrthoOrbital Cu 17   d \
	OrthoOrbital Cu 17   dxy \
	OrthoOrbital Cu 17   dyz \
	OrthoOrbital Cu 17   dz2 \
	OrthoOrbital Cu 17   dxz \
	OrthoOrbital Cu 17   dx2-y2 \
	OrthoOrbital Cu 18   s \
	OrthoOrbital Cu 18   p \
	OrthoOrbital Cu 18   px \
	OrthoOrbital Cu 18   py \
	OrthoOrbital Cu 18   pz \
	OrthoOrbital Cu 18   d \
	OrthoOrbital Cu 18   dxy \
	OrthoOrbital Cu 18   dyz \
	OrthoOrbital Cu 18   dz2 \
	OrthoOrbital Cu 18   dxz \
	OrthoOrbital Cu 18   dx2-y2 \
	OrthoOrbital Cu 19   s \
	OrthoOrbital Cu 19   p \
	OrthoOrbital Cu 19   px \
	OrthoOrbital Cu 19   py \
	OrthoOrbital Cu 19   pz \
	OrthoOrbital Cu 19   d \
	OrthoOrbital Cu 19   dxy \
	OrthoOrbital Cu 19   dyz \
	OrthoOrbital Cu 19   dz2 \
	OrthoOrbital Cu 19   dxz \
	OrthoOrbital Cu 19   dx2-y2 \
	OrthoOrbital Cu 20   s \
	OrthoOrbital Cu 20   p \
	OrthoOrbital Cu 20   px \
	OrthoOrbital Cu 20   py \
	OrthoOrbital Cu 20   pz \
	OrthoOrbital Cu 20   d \
	OrthoOrbital Cu 20   dxy \
	OrthoOrbital Cu 20   dyz \
	OrthoOrbital Cu 20   dz2 \
	OrthoOrbital Cu 20   dxz \
	OrthoOrbital Cu 20   dx2-y2
dump End ElecDensity KEdensity BandEigs EigStats RhoAtom DOS Kpoints
dump Ionic State IonicPositions Lattice EigStats Ecomponents
dump 
dump 
dump 
dump 
dump 
dump 
dump 
dump 
dump-name jdft.$VAR
elec-cutoff 20
elec-eigen-algo Davidson
elec-ex-corr gga-PBE
elec-initial-magnetization 0.000000 no
elec-n-bands 228
elec-smearing Fermi 0.001
electronic-minimize  \
	dirUpdateScheme      FletcherReeves \
	linminMethod         DirUpdateRecommended \
	nIterations          100 \
	history              15 \
	knormThreshold       0 \
	energyDiffThreshold  1e-07 \
	nEnergyDiff          2 \
	alphaTstart          1 \
	alphaTmin            1e-10 \
	updateTestStepSize   yes \
	alphaTreduceFactor   0.1 \
	alphaTincreaseFactor 3 \
	nAlphaAdjustMax      3 \
	wolfeEnergy          0.0001 \
	wolfeGradient        0.9 \
	fdTest               no
exchange-regularization WignerSeitzTruncated
fluid None
fluid-ex-corr lda-TF lda-PZ
fluid-gummel-loop 10 1.000000e-05
fluid-minimize  \
	dirUpdateScheme      PolakRibiere \
	linminMethod         DirUpdateRecommended \
	nIterations          100 \
	history              15 \
	knormThreshold       0 \
	energyDiffThreshold  0 \
	nEnergyDiff          2 \
	alphaTstart          1 \
	alphaTmin            1e-10 \
	updateTestStepSize   yes \
	alphaTreduceFactor   0.1 \
	alphaTincreaseFactor 3 \
	nAlphaAdjustMax      3 \
	wolfeEnergy          0.0001 \
	wolfeGradient        0.9 \
	fdTest               no
fluid-solvent H2O 55.338 ScalarEOS \
	epsBulk 78.4 \
	pMol 0.92466 \
	epsInf 1.77 \
	Pvap 1.06736e-10 \
	sigmaBulk 4.62e-05 \
	Rvdw 2.61727 \
	Res 1.42 \
	tauNuc 343133 \
	poleEl 15 7 1
forces-output-coords Positions
ion Cu   0.000000000000000   4.263398000000000  18.652386000000000 1
ion Cu   0.000000000000000   8.526795000000000  16.520644999999998 1
ion Cu   0.000000000000000   2.131699000000000  14.388966999999999 1
ion Cu   0.000000000000000   6.395095999999999  12.257289999999999 1
ion Cu   0.000000000000000  10.658493999999997  10.125548000000000 1
ion Cu   0.000000000000000   4.263398000000000   7.993871000000000 1
ion Cu   0.000000000000000   8.526795000000000   5.862193000000000 1
ion Cu   0.000000000000000   2.131699000000000   3.730452000000000 1
ion Cu   0.000000000000000   6.395095999999999   1.598774000000000 1
ion Cu   0.000000000000000   0.000000000000000  20.784063000000000 1
ion Cu   3.370512000000000   1.065849000000000  17.586514999999999 1
ion Cu   3.370512000000000   5.329246999999999  15.454837999999999 1
ion Cu   3.370512000000000   9.592643999999998  13.323096000000000 1
ion Cu   3.370512000000000   3.197547999999999  11.191419000000000 1
ion Cu   3.370512000000000   7.460945999999999   9.059741000000001 1
ion Cu   3.370512000000000   1.065849000000000   6.928000000000000 1
ion Cu   3.370512000000000   5.329246999999999   4.796322000000000 1
ion Cu   3.370512000000000   9.592643999999998   2.664645000000000 1
ion Cu   3.370512000000000   3.197547999999999   0.532903000000000 1
ion Cu   3.370512000000000   7.460945999999999  19.718192999999999 1
ion-species /projects/musgravc/apps/jdftx-1.6.0/build/pseudopotentials/GBRV_v1.5/$ID_pbe_v1.uspp
ion-species /projects/musgravc/apps/jdftx-1.6.0/build/pseudopotentials/GBRV_v1.5/$ID_pbe_v1.2.uspp
ion-species /projects/musgravc/apps/jdftx-1.6.0/build/pseudopotentials/GBRV_v1.5/$ID_pbe_v1.4.uspp
ion-species /projects/musgravc/apps/jdftx-1.6.0/build/pseudopotentials/GBRV_v1.5/$ID_pbe_v1.5.uspp
ion-width 0
ionic-minimize  \
	dirUpdateScheme      L-BFGS \
	linminMethod         DirUpdateRecommended \
	nIterations          100 \
	history              15 \
	knormThreshold       0.0001 \
	energyDiffThreshold  1e-06 \
	nEnergyDiff          2 \
	alphaTstart          1 \
	alphaTmin            1e-10 \
	updateTestStepSize   yes \
	alphaTreduceFactor   0.1 \
	alphaTincreaseFactor 3 \
	nAlphaAdjustMax      3 \
	wolfeEnergy          0.0001 \
	wolfeGradient        0.9 \
	fdTest               no
kpoint   0.000000000000   0.000000000000   0.000000000000  1.00000000000000
kpoint-folding 9 5 1 
latt-move-scale 0 0 0
latt-scale 1 1 1 
lattice  \
	   6.741023000000000    0.000000000000000    0.000000000000000  \
	   0.000000000000000   10.658493999999999    0.000000000000000  \
	   0.000000000000000    0.000000000000000   63.950963999999999 
lattice-minimize  \
	dirUpdateScheme      L-BFGS \
	linminMethod         DirUpdateRecommended \
	nIterations          0 \
	history              15 \
	knormThreshold       0 \
	energyDiffThreshold  1e-06 \
	nEnergyDiff          2 \
	alphaTstart          1 \
	alphaTmin            1e-10 \
	updateTestStepSize   yes \
	alphaTreduceFactor   0.1 \
	alphaTincreaseFactor 3 \
	nAlphaAdjustMax      3 \
	wolfeEnergy          0.0001 \
	wolfeGradient        0.9 \
	fdTest               no
lcao-params 30 1e-06 0.001
pcm-variant GLSSA13
spintype z-spin
subspace-rotation-factor 1 yes
symmetries none
symmetry-threshold 0.0001
van-der-waals D3


Applied RMS atom displacement 0 bohrs to make symmetries exact.

---------- Initializing the Grid ----------
R = 
[      6.74102            0            0  ]
[            0      10.6585            0  ]
[            0            0       63.951  ]
unit cell volume = 4594.82
G =
[   0.932082          0          0  ]
[          0     0.5895          0  ]
[          0          0    0.09825  ]
Minimum fftbox size, Smin = [  28  44  260  ]
Chosen fftbox size, S = [  28  48  270  ]

---------- Exchange Correlation functional ----------
Initalized PBE GGA exchange.
Initalized PBE GGA correlation.

---------- Setting up pseudopotentials ----------
Width of ionic core gaussian charges (only for fluid interactions / plotting) set to 0

Reading pseudopotential file '/projects/musgravc/apps/jdftx-1.6.0/build/pseudopotentials/GBRV_v1.5/cu_pbe_v1.2.uspp':
  Title: Cu.  Created by USPP 7.3.6 on 3-2-2014
  Reference state energy: -201.059491.  19 valence electrons in orbitals:
    |300>  occupation: 2  eigenvalue: -5.020764
    |310>  occupation: 6  eigenvalue: -3.445588
    |320>  occupation: 8  eigenvalue: -0.925168
    |400>  occupation: 2  eigenvalue: -0.567638
    |410>  occupation: 0  eigenvalue: -0.326154
  lMax: 2  lLocal: 3  QijEcut: 6
  6 projectors sampled on a log grid with 613 points:
    l: 0  eig: -5.020767  rCut: 1.4
    l: 0  eig: -0.567640  rCut: 1.4
    l: 1  eig: -3.445589  rCut: 1.55
    l: 1  eig: -0.326157  rCut: 1.55
    l: 2  eig: -0.925170  rCut: 1.5
    l: 2  eig: 1.500000  rCut: 1.5
  Partial core density with radius 0.8
  Transforming core density to a uniform radial grid of dG=0.02 with 1174 points.
  Transforming local potential to a uniform radial grid of dG=0.02 with 1174 points.
  Transforming nonlocal projectors to a uniform radial grid of dG=0.02 with 432 points.
  Transforming density augmentations to a uniform radial grid of dG=0.02 with 1174 points.
  Transforming atomic orbitals to a uniform radial grid of dG=0.02 with 432 points.
  Core radius for overlap checks: 1.55 bohrs.

Initialized 1 species with 20 total atoms.

Folded 1 k-points by 9x5x1 to 45 k-points.

---------- Setting up k-points, bands, fillings ----------
No reducable k-points. 
Computing the number of bands and number of electrons
Calculating initial fillings.
nElectrons: 380.000000   nBands: 228   nStates: 90

----- Setting up reduced wavefunction bases (one per k-point) -----
average nbasis = 19629.533 , ideal nbasis = 19629.432

----- Initializing Supercell corresponding to k-point mesh -----
Lattice vector linear combinations in supercell:
[   9   0   0  ]
[   0   5   0  ]
[   0   0   1  ]
Supercell lattice vectors:
[  60.6692  0  0  ]
[  0  53.2925  0  ]
[  0  0  63.951  ]

Initializing DFT-D3 calculator:
	Parameters set for gga-PBE functional
	s6:  1.000  s_r6:  1.217
	s8:  0.722  s_r8:  1.000
	Per-atom parameters loaded for:
	Cu:  sqrtQ[a0]:  5.226  Rcov[a0]:  1.909  CN: [ 0.00 0.96 ]

---------- Setting up ewald sum ----------
Optimum gaussian width for ewald sums = 4.025576 bohr.
Real space sum over 825 unit cells with max indices [  7  5  2  ]
Reciprocal space sum over 5049 terms with max indices [  4  5  25  ]

Computing DFT-D3 correction:
# coordination-number Cu 6.874 9.122 9.152 9.158 9.158 9.157 9.131 8.370 6.101 4.602 8.370 9.131 9.157 9.158 9.158 9.152 9.122 6.874 4.602 6.101
# diagonal-C6 Cu 175.00 175.00 175.00 175.00 175.00 175.00 175.00 175.00 175.00 175.00 175.00 175.00 175.00 175.00 175.00 175.00 175.00 175.00 175.00 175.00
EvdW_6 =   -0.118628
EvdW_8 =   -0.178658

---------- Allocating electronic variables ----------
Initializing wave functions:  linear combination of atomic orbitals
Cu pseudo-atom occupations:   s ( 2 1 )  p ( 6 0 )  d ( 10 )
	FillingsUpdate:  mu: -3.714675555  nElectrons: 380.000000  magneticMoment: [ Abs: 0.17386  Tot: -0.00113 ]
LCAOMinimize: Iter:   0  F: -3940.6742139416642203  |grad|_K:  2.798e-02  alpha:  1.000e+00
LCAOMinimize: 	Step increased F by 9.426014e+02, reducing alpha to 4.111135e-02.
LCAOMinimize: 	Step increased F by 1.089712e+02, reducing alpha to 4.111135e-03.
	FillingsUpdate:  mu: -3.121486096  nElectrons: 380.000000  magneticMoment: [ Abs: 0.17514  Tot: +0.00029 ]
LCAOMinimize: Iter:   1  F: -3955.6202867591227914  |grad|_K:  1.473e-02  alpha:  4.111e-03  linmin: -1.963e-01  cgtest:  9.274e-01  t[s]:    191.82
LCAOMinimize: Encountered beta<0, resetting CG.
	FillingsUpdate:  mu: -1.944032603  nElectrons: 380.000000  magneticMoment: [ Abs: 0.18110  Tot: +0.00327 ]
LCAOMinimize: Iter:   2  F: -3963.0916014889230610  |grad|_K:  1.157e-02  alpha:  1.186e-02  linmin:  6.183e-03  cgtest: -1.050e-01  t[s]:    239.58
LCAOMinimize: 	Predicted alpha/alphaT>3.000000, increasing alphaT to 3.557961e-02.
	FillingsUpdate:  mu: +2.480110090  nElectrons: 380.000000  magneticMoment: [ Abs: 0.00916  Tot: +0.00304 ]
LCAOMinimize: Iter:   3  F: -3973.3920763137457470  |grad|_K:  2.688e-02  alpha:  7.440e-02  linmin:  3.903e-02  cgtest:  5.255e-01  t[s]:    299.85
LCAOMinimize: 	Wrong curvature in test step, increasing alphaT to 2.232143e-01.
	FillingsUpdate:  mu: +1.695525780  nElectrons: 380.000000  magneticMoment: [ Abs: 0.00141  Tot: -0.00112 ]
LCAOMinimize: Iter:   4  F: -4013.9261811348037554  |grad|_K:  2.048e-03  alpha: -4.128e-02  linmin:  7.447e-02  cgtest:  1.981e+00  t[s]:    345.71
LCAOMinimize: Encountered beta<0, resetting CG.
	FillingsUpdate:  mu: +1.663820035  nElectrons: 380.000000  magneticMoment: [ Abs: 0.00080  Tot: -0.00043 ]
LCAOMinimize: Iter:   5  F: -4014.6573050154579505  |grad|_K:  2.025e-03  alpha:  2.789e-02  linmin: -9.101e-02  cgtest:  9.643e-01  t[s]:    393.64
LCAOMinimize: 	Wrong curvature in test step, increasing alphaT to 8.365859e-02.
	FillingsUpdate:  mu: +1.623397388  nElectrons: 380.000000  magneticMoment: [ Abs: 0.00066  Tot: -0.00015 ]
LCAOMinimize: Iter:   6  F: -4015.3829664882950965  |grad|_K:  2.005e-03  alpha: -1.507e+00  linmin: -1.333e-01  cgtest:  9.642e-01  t[s]:    439.37
	FillingsUpdate:  mu: +1.580084239  nElectrons: 380.000000  magneticMoment: [ Abs: 0.00066  Tot: -0.00020 ]
LCAOMinimize: Iter:   7  F: -4016.1678893643252195  |grad|_K:  2.012e-03  alpha:  3.019e-02  linmin: -1.001e-01  cgtest:  9.477e-01  t[s]:    487.33
LCAOMinimize: 	Wrong curvature in test step, increasing alphaT to 9.056548e-02.
	FillingsUpdate:  mu: +1.537338526  nElectrons: 380.000000  magneticMoment: [ Abs: 0.00080  Tot: -0.00048 ]
LCAOMinimize: Iter:   8  F: -4016.9935558568449778  |grad|_K:  2.035e-03  alpha: -3.860e-01  linmin: -6.752e-02  cgtest:  9.377e-01  t[s]:    533.44
	FillingsUpdate:  mu: +1.488272323  nElectrons: 380.000000  magneticMoment: [ Abs: 0.00082  Tot: -0.00049 ]
LCAOMinimize: Iter:   9  F: -4017.9377265761327180  |grad|_K:  2.005e-03  alpha:  3.370e-02  linmin: -9.348e-02  cgtest:  9.544e-01  t[s]:    581.40
LCAOMinimize: 	Wrong curvature in test step, increasing alphaT to 1.010861e-01.
	FillingsUpdate:  mu: +1.433528929  nElectrons: 380.000000  magneticMoment: [ Abs: 0.00077  Tot: -0.00041 ]
LCAOMinimize: Iter:  10  F: -4018.8108196810617301  |grad|_K:  1.991e-03  alpha: -1.062e+00  linmin: -1.068e-01  cgtest:  9.499e-01  t[s]:    627.33
	FillingsUpdate:  mu: +1.380276318  nElectrons: 380.000000  magneticMoment: [ Abs: 0.00077  Tot: -0.00042 ]
LCAOMinimize: Iter:  11  F: -4019.7433922780637658  |grad|_K:  2.002e-03  alpha:  3.527e-02  linmin: -8.074e-02  cgtest:  9.325e-01  t[s]:    675.08
LCAOMinimize: 	Wrong curvature in test step, increasing alphaT to 1.058022e-01.
	FillingsUpdate:  mu: +1.324489559  nElectrons: 380.000000  magneticMoment: [ Abs: 0.00068  Tot: -0.00023 ]
LCAOMinimize: Iter:  12  F: -4020.6983680453085981  |grad|_K:  1.977e-03  alpha: -9.866e-01  linmin: -1.689e-01  cgtest:  9.467e-01  t[s]:    721.18
	FillingsUpdate:  mu: +1.265377447  nElectrons: 380.000000  magneticMoment: [ Abs: 0.00065  Tot: -0.00017 ]
LCAOMinimize: Iter:  13  F: -4021.7482052953318998  |grad|_K:  1.973e-03  alpha:  4.038e-02  linmin: -1.751e-01  cgtest:  9.276e-01  t[s]:    769.24
LCAOMinimize: 	Wrong curvature in test step, increasing alphaT to 1.211427e-01.
	FillingsUpdate:  mu: +1.206530080  nElectrons: 380.000000  magneticMoment: [ Abs: 0.00072  Tot: -0.00033 ]
LCAOMinimize: Iter:  14  F: -4022.8304276180197121  |grad|_K:  1.970e-03  alpha: -5.066e-01  linmin: -1.744e-01  cgtest:  9.214e-01  t[s]:    815.04
	FillingsUpdate:  mu: +1.135509403  nElectrons: 380.000000  magneticMoment: [ Abs: 0.00092  Tot: -0.00061 ]
LCAOMinimize: Iter:  15  F: -4024.2703222379223007  |grad|_K:  1.958e-03  alpha:  5.249e-02  linmin: -1.523e-01  cgtest:  8.925e-01  t[s]:    863.04
LCAOMinimize: 	Wrong curvature in test step, increasing alphaT to 1.574554e-01.
	FillingsUpdate:  mu: +1.061129822  nElectrons: 380.000000  magneticMoment: [ Abs: 0.00093  Tot: -0.00056 ]
LCAOMinimize: Iter:  16  F: -4025.7133375176590562  |grad|_K:  1.906e-03  alpha: -6.395e-01  linmin: -1.764e-01  cgtest:  8.976e-01  t[s]:    908.95
	FillingsUpdate:  mu: +1.006486275  nElectrons: 380.000000  magneticMoment: [ Abs: 0.00094  Tot: -0.00047 ]
LCAOMinimize: Iter:  17  F: -4026.9360528251245341  |grad|_K:  1.837e-03  alpha:  4.871e-02  linmin: -1.814e-01  cgtest:  9.108e-01  t[s]:    957.10
LCAOMinimize: 	Wrong curvature in test step, increasing alphaT to 1.461160e-01.
	FillingsUpdate:  mu: +0.946279173  nElectrons: 380.000000  magneticMoment: [ Abs: 0.00102  Tot: -0.00044 ]
LCAOMinimize: Iter:  18  F: -4028.0252920832299424  |grad|_K:  1.747e-03  alpha: -1.496e+00  linmin: -2.023e-01  cgtest:  9.195e-01  t[s]:   1003.04
	FillingsUpdate:  mu: +0.908245333  nElectrons: 380.000000  magneticMoment: [ Abs: 0.00110  Tot: -0.00047 ]
LCAOMinimize: Iter:  19  F: -4028.6718294362372035  |grad|_K:  1.683e-03  alpha:  3.310e-02  linmin: -2.096e-01  cgtest:  9.483e-01  t[s]:   1051.08
LCAOMinimize: 	Wrong curvature in test step, increasing alphaT to 9.929216e-02.
	FillingsUpdate:  mu: +0.870038263  nElectrons: 380.000000  magneticMoment: [ Abs: 0.00117  Tot: -0.00045 ]
LCAOMinimize: Iter:  20  F: -4029.2592446361145448  |grad|_K:  1.617e-03  alpha: -3.190e+00  linmin: -2.172e-01  cgtest:  9.502e-01  t[s]:   1097.04
	FillingsUpdate:  mu: +0.837627805  nElectrons: 380.000000  magneticMoment: [ Abs: 0.00121  Tot: -0.00036 ]
LCAOMinimize: Iter:  21  F: -4029.7003628883348938  |grad|_K:  1.562e-03  alpha:  2.715e-02  linmin: -2.224e-01  cgtest:  9.600e-01  t[s]:   1144.87
LCAOMinimize: 	Wrong curvature in test step, increasing alphaT to 8.143892e-02.
	FillingsUpdate:  mu: +0.804800523  nElectrons: 380.000000  magneticMoment: [ Abs: 0.00126  Tot: -0.00026 ]
LCAOMinimize: Iter:  22  F: -4030.1097036749397375  |grad|_K:  1.507e-03  alpha: -6.751e+00  linmin: -2.261e-01  cgtest:  9.602e-01  t[s]:   1190.64
	FillingsUpdate:  mu: +0.774698284  nElectrons: 380.000000  magneticMoment: [ Abs: 0.00131  Tot: -0.00016 ]
LCAOMinimize: Iter:  23  F: -4030.4573715715500839  |grad|_K:  1.457e-03  alpha:  2.483e-02  linmin: -2.254e-01  cgtest:  9.635e-01  t[s]:   1238.84
LCAOMinimize: 	Wrong curvature in test step, increasing alphaT to 7.447865e-02.
	FillingsUpdate:  mu: +0.744147094  nElectrons: 380.000000  magneticMoment: [ Abs: 0.00138  Tot: -0.00009 ]
LCAOMinimize: Iter:  24  F: -4030.7819117482663387  |grad|_K:  1.407e-03  alpha: -1.167e+01  linmin: -2.204e-01  cgtest:  9.634e-01  t[s]:   1284.85
	FillingsUpdate:  mu: +0.714778555  nElectrons: 380.000000  magneticMoment: [ Abs: 0.00145  Tot: -0.00004 ]
LCAOMinimize: Iter:  25  F: -4031.0812520070835490  |grad|_K:  1.359e-03  alpha:  2.456e-02  linmin: -2.146e-01  cgtest:  9.639e-01  t[s]:   1332.86
LCAOMinimize: 	Predicted alpha/alphaT>3.000000, increasing alphaT to 7.369417e-02.
LCAOMinimize: 	Predicted alpha/alphaT>3.000000, increasing alphaT to 2.210825e-01.
LCAOMinimize: 	Step increased F by 6.240742e+01, reducing alpha to 5.773524e-02.
	FillingsUpdate:  mu: +0.644348691  nElectrons: 380.000000  magneticMoment: [ Abs: 0.00163  Tot: -0.00005 ]
LCAOMinimize: Iter:  26  F: -4031.7334636579812468  |grad|_K:  1.236e-03  alpha:  5.774e-02  linmin: -2.257e-01  cgtest:  9.122e-01  t[s]:   1440.98
LCAOMinimize: Encountered beta<0, resetting CG.
LCAOMinimize: 	Predicted alpha/alphaT>3.000000, increasing alphaT to 1.732057e-01.
LCAOMinimize: 	Predicted alpha/alphaT>3.000000, increasing alphaT to 5.196172e-01.
	FillingsUpdate:  mu: +0.625401131  nElectrons: 380.000000  magneticMoment: [ Abs: 0.00168  Tot: -0.00007 ]
LCAOMinimize: Iter:  27  F: -4031.9308218903506713  |grad|_K:  1.196e-03  alpha:  2.110e-02  linmin: -2.298e-01  cgtest:  9.700e-01  t[s]:   1514.07
LCAOMinimize: Encountered beta<0, resetting CG.
LCAOMinimize: 	Predicted alpha/alphaT>3.000000, increasing alphaT to 6.328503e-02.
LCAOMinimize: 	Predicted alpha/alphaT>3.000000, increasing alphaT to 1.898551e-01.
LCAOMinimize: 	Predicted alpha/alphaT>3.000000, increasing alphaT to 5.695652e-01.
LCAOMinimize: 	Step increased F by 9.853446e+01, reducing alpha to 6.576241e-02.
	FillingsUpdate:  mu: +0.570599117  nElectrons: 380.000000  magneticMoment: [ Abs: 0.00187  Tot: -0.00010 ]
LCAOMinimize: Iter:  28  F: -4032.5034610903926477  |grad|_K:  1.066e-03  alpha:  6.576e-02  linmin: -2.361e-01  cgtest:  8.963e-01  t[s]:   1622.56
LCAOMinimize: Encountered beta<0, resetting CG.
LCAOMinimize: 	Predicted alpha/alphaT>3.000000, increasing alphaT to 1.972872e-01.
LCAOMinimize: 	Step increased F by 4.087847e+01, reducing alpha to 4.306456e-02.
	FillingsUpdate:  mu: +0.531741551  nElectrons: 380.000000  magneticMoment: [ Abs: 0.00197  Tot: -0.00009 ]
LCAOMinimize: Iter:  29  F: -4032.8016815337737171  |grad|_K:  9.873e-04  alpha:  4.306e-02  linmin: -2.386e-01  cgtest:  9.353e-01  t[s]:   1718.68
LCAOMinimize: Encountered beta<0, resetting CG.
LCAOMinimize: 	Predicted alpha/alphaT>3.000000, increasing alphaT to 1.291937e-01.
LCAOMinimize: 	Predicted alpha/alphaT>3.000000, increasing alphaT to 3.875810e-01.
	FillingsUpdate:  mu: +0.520260944  nElectrons: 380.000000  magneticMoment: [ Abs: 0.00200  Tot: -0.00009 ]
LCAOMinimize: Iter:  30  F: -4032.8845958895931290  |grad|_K:  9.634e-04  alpha:  1.390e-02  linmin: -2.418e-01  cgtest:  9.797e-01  t[s]:   1791.77
LCAOMinimize: Encountered beta<0, resetting CG.
LCAOMinimize: None of the convergence criteria satisfied after 30 iterations.


---- Citations for features of the code used in this run ----

   Software package:
      R. Sundararaman, K. Letchworth-Weaver, K.A. Schwarz, D. Gunceler, Y. Ozhabes and T.A. Arias, 'JDFTx: software for joint density-functional theory', SoftwareX 6, 278 (2017)

   gga-PBE exchange-correlation functional:
      J.P. Perdew, K. Burke and M. Ernzerhof, Phys. Rev. Lett. 77, 3865 (1996)

   Pseudopotentials:
      KF Garrity, JW Bennett, KM Rabe and D Vanderbilt, Comput. Mater. Sci. 81, 446 (2014)

   DFT-D3 dispersion correction:
      S. Grimme, J. Antony, S. Ehrlich and H. Krieg, J. Chem. Phys. 132, 154104 (2010)

   Total energy minimization with Auxiliary Hamiltonian:
      C. Freysoldt, S. Boeck, and J. Neugebauer, Phys. Rev. B 79, 241103(R) (2009)

   Linear-tetrahedron sampling for density of states:
      G. Lehmann and M. Taut, Phys. status solidi (b) 54, 469 (1972)

This list may not be complete. Please suggest additional citations or
report any other bugs at https://github.com/shankar1729/jdftx/issues

Initialization completed successfully at t[s]:   1801.55


Computing DFT-D3 correction:
# coordination-number Cu 6.874 9.122 9.152 9.158 9.158 9.157 9.131 8.370 6.101 4.602 8.370 9.131 9.157 9.158 9.158 9.152 9.122 6.874 4.602 6.101
# diagonal-C6 Cu 175.00 175.00 175.00 175.00 175.00 175.00 175.00 175.00 175.00 175.00 175.00 175.00 175.00 175.00 175.00 175.00 175.00 175.00 175.00 175.00
EvdW_6 =   -0.118628
EvdW_8 =   -0.178658

-------- Electronic minimization -----------
	FillingsUpdate:  mu: +0.524527090  nElectrons: 380.000000  magneticMoment: [ Abs: 0.00200  Tot: -0.00009 ]
ElecMinimize: Iter:   0  F: -4032.884595889585853  |grad|_K:  2.875e-04  alpha:  1.000e+00
	FillingsUpdate:  mu: +0.189393295  nElectrons: 380.000000  magneticMoment: [ Abs: 0.00208  Tot: -0.00003 ]
	SubspaceRotationAdjust: set factor to 0.798
ElecMinimize: Iter:   1  F: -4035.575923039794361  |grad|_K:  9.253e-05  alpha:  9.070e-02  linmin:  1.043e-03  t[s]:   1920.23
	FillingsUpdate:  mu: +0.213926532  nElectrons: 380.000000  magneticMoment: [ Abs: 0.00173  Tot: +0.00002 ]
	SubspaceRotationAdjust: set factor to 0.715
ElecMinimize: Iter:   2  F: -4036.126675286718637  |grad|_K:  9.805e-05  alpha:  1.784e-01  linmin: -3.958e-05  t[s]:   1995.08
	FillingsUpdate:  mu: +0.293080884  nElectrons: 380.000000  magneticMoment: [ Abs: 0.00147  Tot: +0.00007 ]
	SubspaceRotationAdjust: set factor to 0.413
ElecMinimize: Iter:   3  F: -4036.545515844818510  |grad|_K:  7.297e-05  alpha:  1.018e-01  linmin: -1.133e-05  t[s]:   2069.50
	FillingsUpdate:  mu: +0.068839072  nElectrons: 380.000000  magneticMoment: [ Abs: 0.00122  Tot: +0.00010 ]
	SubspaceRotationAdjust: set factor to 0.337
ElecMinimize: Iter:   4  F: -4036.809565688562543  |grad|_K:  3.707e-05  alpha:  1.209e-01  linmin:  1.030e-05  t[s]:   2144.40
	FillingsUpdate:  mu: +0.074379564  nElectrons: 380.000000  magneticMoment: [ Abs: 0.00105  Tot: +0.00012 ]
	SubspaceRotationAdjust: set factor to 0.408
ElecMinimize: Iter:   5  F: -4036.897571800925562  |grad|_K:  2.761e-05  alpha:  1.602e-01  linmin: -1.747e-06  t[s]:   2219.26
	FillingsUpdate:  mu: +0.104396319  nElectrons: 380.000000  magneticMoment: [ Abs: 0.00086  Tot: +0.00011 ]
	SubspaceRotationAdjust: set factor to 0.375
ElecMinimize: Iter:   6  F: -4036.955833408878789  |grad|_K:  2.254e-05  alpha:  1.877e-01  linmin: -6.173e-06  t[s]:   2294.40
	FillingsUpdate:  mu: +0.104038362  nElectrons: 380.000000  magneticMoment: [ Abs: 0.00074  Tot: +0.00011 ]
	SubspaceRotationAdjust: set factor to 0.253
ElecMinimize: Iter:   7  F: -4036.977944617622597  |grad|_K:  1.913e-05  alpha:  1.099e-01  linmin:  7.522e-06  t[s]:   2369.40
	FillingsUpdate:  mu: +0.097470080  nElectrons: 380.000000  magneticMoment: [ Abs: 0.00063  Tot: +0.00010 ]
	SubspaceRotationAdjust: set factor to 0.197
ElecMinimize: Iter:   8  F: -4036.993599774215454  |grad|_K:  1.273e-05  alpha:  1.067e-01  linmin: -1.155e-05  t[s]:   2444.34
	FillingsUpdate:  mu: +0.102676275  nElectrons: 380.000000  magneticMoment: [ Abs: 0.00053  Tot: +0.00009 ]
	SubspaceRotationAdjust: set factor to 0.26
ElecMinimize: Iter:   9  F: -4037.003543379203620  |grad|_K:  9.115e-06  alpha:  1.483e-01  linmin:  2.090e-08  t[s]:   2519.21
	FillingsUpdate:  mu: +0.102372668  nElectrons: 380.000000  magneticMoment: [ Abs: 0.00046  Tot: +0.00008 ]
	SubspaceRotationAdjust: set factor to 0.225
ElecMinimize: Iter:  10  F: -4037.009341034366116  |grad|_K:  7.151e-06  alpha:  1.719e-01  linmin: -5.714e-06  t[s]:   2594.32
	FillingsUpdate:  mu: +0.104453223  nElectrons: 380.000000  magneticMoment: [ Abs: 0.00041  Tot: +0.00007 ]
	SubspaceRotationAdjust: set factor to 0.211
ElecMinimize: Iter:  11  F: -4037.012682199270785  |grad|_K:  5.489e-06  alpha:  1.600e-01  linmin: -1.889e-06  t[s]:   2669.16
	FillingsUpdate:  mu: +0.108173418  nElectrons: 380.000000  magneticMoment: [ Abs: 0.00036  Tot: +0.00006 ]
	SubspaceRotationAdjust: set factor to 0.239
ElecMinimize: Iter:  12  F: -4037.014931186549802  |grad|_K:  4.486e-06  alpha:  1.835e-01  linmin: -6.535e-08  t[s]:   2744.13
	FillingsUpdate:  mu: +0.105490723  nElectrons: 380.000000  magneticMoment: [ Abs: 0.00032  Tot: +0.00006 ]
	SubspaceRotationAdjust: set factor to 0.253
ElecMinimize: Iter:  13  F: -4037.016453302385344  |grad|_K:  3.586e-06  alpha:  1.867e-01  linmin: -5.165e-07  t[s]:   2818.83
	FillingsUpdate:  mu: +0.104232747  nElectrons: 380.000000  magneticMoment: [ Abs: 0.00029  Tot: +0.00005 ]
	SubspaceRotationAdjust: set factor to 0.275
ElecMinimize: Iter:  14  F: -4037.017337174452223  |grad|_K:  3.034e-06  alpha:  1.695e-01  linmin: -2.325e-07  t[s]:   2894.05
	FillingsUpdate:  mu: +0.104433793  nElectrons: 380.000000  magneticMoment: [ Abs: 0.00026  Tot: +0.00004 ]
	SubspaceRotationAdjust: set factor to 0.31
ElecMinimize: Iter:  15  F: -4037.018067425892241  |grad|_K:  2.626e-06  alpha:  1.957e-01  linmin: -1.449e-08  t[s]:   2968.89
	FillingsUpdate:  mu: +0.103686489  nElectrons: 380.000000  magneticMoment: [ Abs: 0.00023  Tot: +0.00003 ]
	SubspaceRotationAdjust: set factor to 0.356
ElecMinimize: Iter:  16  F: -4037.018559722928330  |grad|_K:  2.052e-06  alpha:  1.762e-01  linmin: -1.890e-08  t[s]:   3044.17
	FillingsUpdate:  mu: +0.104762682  nElectrons: 380.000000  magneticMoment: [ Abs: 0.00021  Tot: +0.00003 ]
	SubspaceRotationAdjust: set factor to 0.401
ElecMinimize: Iter:  17  F: -4037.018882133775151  |grad|_K:  1.855e-06  alpha:  1.890e-01  linmin:  1.202e-07  t[s]:   3119.38
	FillingsUpdate:  mu: +0.104983042  nElectrons: 380.000000  magneticMoment: [ Abs: 0.00017  Tot: +0.00002 ]
	SubspaceRotationAdjust: set factor to 0.459
ElecMinimize: Iter:  18  F: -4037.019156681619279  |grad|_K:  1.589e-06  alpha:  1.969e-01  linmin:  1.093e-07  t[s]:   3194.77
	FillingsUpdate:  mu: +0.103742831  nElectrons: 380.000000  magneticMoment: [ Abs: 0.00015  Tot: +0.00001 ]
	SubspaceRotationAdjust: set factor to 0.493
ElecMinimize: Iter:  19  F: -4037.019314402304644  |grad|_K:  1.262e-06  alpha:  1.543e-01  linmin:  3.204e-08  t[s]:   3269.95
	FillingsUpdate:  mu: +0.103813900  nElectrons: 380.000000  magneticMoment: [ Abs: 0.00012  Tot: +0.00001 ]
	SubspaceRotationAdjust: set factor to 0.403
ElecMinimize: Iter:  20  F: -4037.019413447243551  |grad|_K:  1.265e-06  alpha:  1.534e-01  linmin:  1.721e-07  t[s]:   3344.89
	FillingsUpdate:  mu: +0.103864515  nElectrons: 380.000000  magneticMoment: [ Abs: 0.00010  Tot: +0.00001 ]
	SubspaceRotationAdjust: set factor to 0.261
ElecMinimize: Iter:  21  F: -4037.019480501522594  |grad|_K:  9.703e-07  alpha:  1.034e-01  linmin: -1.352e-09  t[s]:   3419.50
	FillingsUpdate:  mu: +0.103420595  nElectrons: 380.000000  magneticMoment: [ Abs: 0.00008  Tot: +0.00000 ]
	SubspaceRotationAdjust: set factor to 0.306
ElecMinimize: Iter:  22  F: -4037.019528327990884  |grad|_K:  6.382e-07  alpha:  1.254e-01  linmin:  2.661e-07  t[s]:   3494.37
	FillingsUpdate:  mu: +0.103202149  nElectrons: 380.000000  magneticMoment: [ Abs: 0.00007  Tot: +0.00000 ]
	SubspaceRotationAdjust: set factor to 0.306
ElecMinimize: Iter:  23  F: -4037.019553668384106  |grad|_K:  4.914e-07  alpha:  1.537e-01  linmin:  2.728e-07  t[s]:   3569.25
	FillingsUpdate:  mu: +0.103310609  nElectrons: 380.000000  magneticMoment: [ Abs: 0.00006  Tot: +0.00000 ]
	SubspaceRotationAdjust: set factor to 0.267
ElecMinimize: Iter:  24  F: -4037.019568903130676  |grad|_K:  4.094e-07  alpha:  1.558e-01  linmin:  6.721e-08  t[s]:   3644.06
	FillingsUpdate:  mu: +0.103344742  nElectrons: 380.000000  magneticMoment: [ Abs: 0.00004  Tot: +0.00000 ]
	SubspaceRotationAdjust: set factor to 0.275
ElecMinimize: Iter:  25  F: -4037.019579239655741  |grad|_K:  3.108e-07  alpha:  1.522e-01  linmin: -4.259e-08  t[s]:   3718.87
	FillingsUpdate:  mu: +0.103333685  nElectrons: 380.000000  magneticMoment: [ Abs: 0.00004  Tot: +0.00000 ]
	SubspaceRotationAdjust: set factor to 0.295
ElecMinimize: Iter:  26  F: -4037.019585086366988  |grad|_K:  2.317e-07  alpha:  1.494e-01  linmin: -8.524e-08  t[s]:   3793.73
	FillingsUpdate:  mu: +0.103338086  nElectrons: 380.000000  magneticMoment: [ Abs: 0.00003  Tot: -0.00000 ]
	SubspaceRotationAdjust: set factor to 0.31
ElecMinimize: Iter:  27  F: -4037.019588483546613  |grad|_K:  1.936e-07  alpha:  1.562e-01  linmin: -1.446e-07  t[s]:   3868.39
	FillingsUpdate:  mu: +0.103277866  nElectrons: 380.000000  magneticMoment: [ Abs: 0.00002  Tot: -0.00000 ]
	SubspaceRotationAdjust: set factor to 0.327
ElecMinimize: Iter:  28  F: -4037.019591072778894  |grad|_K:  1.652e-07  alpha:  1.704e-01  linmin: -1.042e-07  t[s]:   3943.28
	FillingsUpdate:  mu: +0.103273156  nElectrons: 380.000000  magneticMoment: [ Abs: 0.00002  Tot: -0.00000 ]
	SubspaceRotationAdjust: set factor to 0.359
ElecMinimize: Iter:  29  F: -4037.019592767882841  |grad|_K:  1.310e-07  alpha:  1.534e-01  linmin:  6.708e-08  t[s]:   4017.96
	FillingsUpdate:  mu: +0.103359304  nElectrons: 380.000000  magneticMoment: [ Abs: 0.00002  Tot: -0.00000 ]
	SubspaceRotationAdjust: set factor to 0.396
ElecMinimize: Iter:  30  F: -4037.019593895925027  |grad|_K:  1.099e-07  alpha:  1.623e-01  linmin:  1.681e-07  t[s]:   4092.78
	FillingsUpdate:  mu: +0.103379429  nElectrons: 380.000000  magneticMoment: [ Abs: 0.00001  Tot: -0.00000 ]
	SubspaceRotationAdjust: set factor to 0.467
ElecMinimize: Iter:  31  F: -4037.019594751832301  |grad|_K:  9.645e-08  alpha:  1.750e-01  linmin:  8.989e-08  t[s]:   4167.66
	FillingsUpdate:  mu: +0.103331800  nElectrons: 380.000000  magneticMoment: [ Abs: 0.00001  Tot: -0.00000 ]
	SubspaceRotationAdjust: set factor to 0.478
ElecMinimize: Iter:  32  F: -4037.019595316095547  |grad|_K:  8.551e-08  alpha:  1.498e-01  linmin: -1.050e-08  t[s]:   4242.56
	FillingsUpdate:  mu: +0.103311676  nElectrons: 380.000000  magneticMoment: [ Abs: 0.00001  Tot: -0.00000 ]
	SubspaceRotationAdjust: set factor to 0.377
ElecMinimize: Iter:  33  F: -4037.019595672581090  |grad|_K:  7.774e-08  alpha:  1.203e-01  linmin: -2.065e-09  t[s]:   4317.34
	FillingsUpdate:  mu: +0.103317310  nElectrons: 380.000000  magneticMoment: [ Abs: 0.00001  Tot: -0.00000 ]
	SubspaceRotationAdjust: set factor to 0.337
ElecMinimize: Iter:  34  F: -4037.019595983476847  |grad|_K:  6.325e-08  alpha:  1.270e-01  linmin:  3.149e-08  t[s]:   4392.66
	FillingsUpdate:  mu: +0.103324223  nElectrons: 380.000000  magneticMoment: [ Abs: 0.00001  Tot: -0.00000 ]
	SubspaceRotationAdjust: set factor to 0.391
ElecMinimize: Iter:  35  F: -4037.019596226817612  |grad|_K:  4.950e-08  alpha:  1.503e-01  linmin:  1.698e-07  t[s]:   4467.33
	FillingsUpdate:  mu: +0.103337706  nElectrons: 380.000000  magneticMoment: [ Abs: 0.00001  Tot: -0.00000 ]
	SubspaceRotationAdjust: set factor to 0.405
ElecMinimize: Iter:  36  F: -4037.019596383010139  |grad|_K:  4.240e-08  alpha:  1.571e-01  linmin:  5.085e-08  t[s]:   4542.26
	FillingsUpdate:  mu: +0.103339877  nElectrons: 380.000000  magneticMoment: [ Abs: 0.00000  Tot: -0.00000 ]
	SubspaceRotationAdjust: set factor to 0.377
ElecMinimize: Iter:  37  F: -4037.019596493403697  |grad|_K:  3.816e-08  alpha:  1.518e-01  linmin: -1.236e-07  t[s]:   4617.24
	FillingsUpdate:  mu: +0.103329342  nElectrons: 380.000000  magneticMoment: [ Abs: 0.00000  Tot: -0.00000 ]
	SubspaceRotationAdjust: set factor to 0.328
ElecMinimize: Iter:  38  F: -4037.019596567279677  |grad|_K:  2.928e-08  alpha:  1.250e-01  linmin:  1.765e-07  t[s]:   4692.51
	FillingsUpdate:  mu: +0.103329736  nElectrons: 380.000000  magneticMoment: [ Abs: 0.00000  Tot: -0.00000 ]
	SubspaceRotationAdjust: set factor to 0.331
ElecMinimize: Iter:  39  F: -4037.019596615831233  |grad|_K:  2.305e-08  alpha:  1.402e-01  linmin:  3.143e-07  t[s]:   4767.26
ElecMinimize: Converged (|Delta F|<1.000000e-07 for 2 iters).
Setting wave functions to eigenvectors of Hamiltonian
Converging empty states (this may take a while): |deigs|: 1.625e-02

Computing DFT-D3 correction:
# coordination-number Cu 6.874 9.122 9.152 9.158 9.158 9.157 9.131 8.370 6.101 4.602 8.370 9.131 9.157 9.158 9.158 9.152 9.122 6.874 4.602 6.101
# diagonal-C6 Cu 175.00 175.00 175.00 175.00 175.00 175.00 175.00 175.00 175.00 175.00 175.00 175.00 175.00 175.00 175.00 175.00 175.00 175.00 175.00 175.00
EvdW_6 =   -0.118628
EvdW_8 =   -0.178658

# Ionic positions in cartesian coordinates:
ion Cu   0.000000000000000   4.263398000000000  18.652386000000000 1
ion Cu   0.000000000000000   8.526795000000000  16.520644999999998 1
ion Cu   0.000000000000000   2.131699000000000  14.388966999999999 1
ion Cu   0.000000000000000   6.395095999999999  12.257289999999999 1
ion Cu   0.000000000000000  10.658493999999997  10.125548000000000 1
ion Cu   0.000000000000000   4.263398000000000   7.993871000000000 1
ion Cu   0.000000000000000   8.526795000000000   5.862193000000000 1
ion Cu   0.000000000000000   2.131699000000000   3.730452000000000 1
ion Cu   0.000000000000000   6.395095999999999   1.598774000000000 1
ion Cu   0.000000000000000   0.000000000000000  20.784063000000000 1
ion Cu   3.370512000000000   1.065849000000000  17.586514999999999 1
ion Cu   3.370512000000000   5.329246999999999  15.454837999999999 1
ion Cu   3.370512000000000   9.592643999999998  13.323096000000000 1
ion Cu   3.370512000000000   3.197547999999999  11.191419000000000 1
ion Cu   3.370512000000000   7.460945999999999   9.059741000000001 1
ion Cu   3.370512000000000   1.065849000000000   6.928000000000000 1
ion Cu   3.370512000000000   5.329246999999999   4.796322000000000 1
ion Cu   3.370512000000000   9.592643999999998   2.664645000000000 1
ion Cu   3.370512000000000   3.197547999999999   0.532903000000000 1
ion Cu   3.370512000000000   7.460945999999999  19.718192999999999 1

# Forces in Cartesian coordinates:
force Cu   0.000001560799668  -0.000474664413390   0.003636798949510 1
force Cu  -0.000000266881041  -0.001383662679081   0.002874407741619 1
force Cu   0.000000613794095  -0.000203960503463  -0.002436736157142 1
force Cu  -0.000001490895239   0.000435917243239   0.000247532390811 1
force Cu   0.000000034780373  -0.000588199735410  -0.000305450841160 1
force Cu   0.000000726284221  -0.000042072757203   0.001271725069005 1
force Cu  -0.000000034252232   0.001209909176364  -0.000567116305993 1
force Cu   0.000000876726599  -0.003037902923086  -0.007235427906801 1
force Cu  -0.000001514849449   0.000252420797288   0.000392893964388 1
force Cu  -0.000000319670208  -0.000723977709326  -0.008069543120980 1
force Cu   0.000000516410745   0.003033595953805   0.007212408864502 1
force Cu   0.000001675093293  -0.001206371793887   0.000529337224241 1
force Cu  -0.000001746029177   0.000050408793320  -0.001310318061746 1
force Cu  -0.000002070810751   0.000593401382386   0.000244041733894 1
force Cu   0.000001760814938  -0.000442072647023  -0.000299003684207 1
force Cu   0.000000614270155   0.000197941990395   0.002393922912866 1
force Cu   0.000000949616785   0.001382632982741  -0.002899455547932 1
force Cu  -0.000002651919936   0.000480296623556  -0.003692669282076 1
force Cu  -0.000001624739236   0.000712180055206   0.007992803242303 1
force Cu   0.000000753261447  -0.000239101924358  -0.000448925789333 1

# Energy components:
   Eewald =    27544.0716845553179155
       EH =    31238.3828715383278904
     Eloc =   -63577.3206799979234347
      Enl =      732.4759263472660678
     EvdW =       -0.2972859703733427
      Exc =     -388.1092489466510642
 Exc_core =        0.9393602051649315
       KE =      412.8384795339081847
-------------------------------------
     Etot =    -4037.0188927349627193
       TS =        0.0007038808686858
-------------------------------------
        F =    -4037.0195966158312331


Dumping 'jdft.fillings' ... done
Dumping 'jdft.wfns' ... done
Dumping 'jdft.ionpos' ... done
Dumping 'jdft.lattice' ... done
Dumping 'jdft.eigenvals' ... done
Dumping 'jdft.eigStats' ... 
	eMin: -4.038550 at state 45 ( [ +0.000000 +0.000000 +0.000000 ] spin -1 )
	HOMO: +0.102935 at state 85 ( [ -0.111111 +0.000000 +0.000000 ] spin -1 )
	mu  : +0.103330
	LUMO: +0.103752 at state 11 ( [ +0.222222 +0.200000 +0.000000 ] spin 1 )
	eMax: +0.447020 at state 35 ( [ -0.222222 +0.000000 +0.000000 ] spin 1 )
	HOMO-LUMO gap: +0.000817
	Optical gap  : +0.006693 at state 28 ( [ -0.444444 -0.400000 +0.000000 ] spin 1 )
Dumping 'jdft.Ecomponents' ... done
IonicMinimize: Iter:   0  F: -4037.019596615831233  |grad|_K:  2.313e-03  t[s]:   5084.75

#--- Lowdin population analysis ---
# oxidation-state Cu +0.084 +0.036 +0.072 +0.075 +0.077 +0.072 +0.052 +0.024 +0.113 +0.245 +0.024 +0.052 +0.072 +0.077 +0.076 +0.072 +0.037 +0.084 +0.245 +0.113
# magnetic-moments Cu -0.000 -0.000 -0.000 -0.000 -0.000 -0.000 -0.000 -0.000 +0.000 -0.000 -0.000 -0.000 -0.000 -0.000 -0.000 -0.000 -0.000 -0.000 -0.000 -0.000


Computing DFT-D3 correction:
# coordination-number Cu 6.876 9.119 9.143 9.158 9.162 9.148 9.127 8.368 6.109 4.627 8.368 9.127 9.148 9.162 9.158 9.143 9.119 6.876 4.627 6.109
# diagonal-C6 Cu 175.00 175.00 175.00 175.00 175.00 175.00 175.00 175.00 175.00 175.00 175.00 175.00 175.00 175.00 175.00 175.00 175.00 175.00 175.00 175.00
EvdW_6 =   -0.118627
EvdW_8 =   -0.178640

-------- Electronic minimization -----------
	FillingsUpdate:  mu: +0.103708183  nElectrons: 380.000000  magneticMoment: [ Abs: 0.00000  Tot: -0.00000 ]
ElecMinimize: Iter:   0  F: -4037.019805878287571  |grad|_K:  6.923e-07  alpha:  1.000e+00
	FillingsUpdate:  mu: +0.103435687  nElectrons: 380.000000  magneticMoment: [ Abs: 0.00000  Tot: -0.00000 ]
	SubspaceRotationAdjust: set factor to 0.342
ElecMinimize: Iter:   1  F: -4037.019829291475617  |grad|_K:  5.013e-07  alpha:  1.205e-01  linmin: -1.293e-05  t[s]:   5222.65
	FillingsUpdate:  mu: +0.103087715  nElectrons: 380.000000  magneticMoment: [ Abs: 0.00000  Tot: -0.00000 ]
	SubspaceRotationAdjust: set factor to 0.313
ElecMinimize: Iter:   2  F: -4037.019856148873714  |grad|_K:  5.222e-07  alpha:  2.636e-01  linmin:  6.976e-07  t[s]:   5298.11
	FillingsUpdate:  mu: +0.103174461  nElectrons: 380.000000  magneticMoment: [ Abs: 0.00000  Tot: -0.00000 ]
	SubspaceRotationAdjust: set factor to 0.267
ElecMinimize: Iter:   3  F: -4037.019869954704063  |grad|_K:  3.743e-07  alpha:  1.250e-01  linmin: -4.635e-07  t[s]:   5373.35
	FillingsUpdate:  mu: +0.103470197  nElectrons: 380.000000  magneticMoment: [ Abs: 0.00000  Tot: -0.00000 ]
	SubspaceRotationAdjust: set factor to 0.292
ElecMinimize: Iter:   4  F: -4037.019881047594936  |grad|_K:  2.738e-07  alpha:  1.954e-01  linmin: -4.705e-07  t[s]:   5448.57
	FillingsUpdate:  mu: +0.103498156  nElectrons: 380.000000  magneticMoment: [ Abs: 0.00000  Tot: -0.00000 ]
	SubspaceRotationAdjust: set factor to 0.325
ElecMinimize: Iter:   5  F: -4037.019887223872956  |grad|_K:  3.041e-07  alpha:  2.034e-01  linmin:  6.576e-07  t[s]:   5523.63
	FillingsUpdate:  mu: +0.103295274  nElectrons: 380.000000  magneticMoment: [ Abs: 0.00000  Tot: -0.00000 ]
	SubspaceRotationAdjust: set factor to 0.348
ElecMinimize: Iter:   6  F: -4037.019897005040548  |grad|_K:  2.129e-07  alpha:  2.611e-01  linmin: -1.324e-06  t[s]:   5598.90
	FillingsUpdate:  mu: +0.103307786  nElectrons: 380.000000  magneticMoment: [ Abs: 0.00000  Tot: -0.00000 ]
	SubspaceRotationAdjust: set factor to 0.312
ElecMinimize: Iter:   7  F: -4037.019899185997019  |grad|_K:  1.539e-07  alpha:  1.187e-01  linmin:  7.720e-07  t[s]:   5673.97
	FillingsUpdate:  mu: +0.103388767  nElectrons: 380.000000  magneticMoment: [ Abs: 0.00000  Tot: -0.00000 ]
	SubspaceRotationAdjust: set factor to 0.261
ElecMinimize: Iter:   8  F: -4037.019901189816665  |grad|_K:  1.709e-07  alpha:  2.088e-01  linmin:  4.239e-06  t[s]:   5749.38
	FillingsUpdate:  mu: +0.103372694  nElectrons: 380.000000  magneticMoment: [ Abs: 0.00000  Tot: -0.00000 ]
	SubspaceRotationAdjust: set factor to 0.285
ElecMinimize: Iter:   9  F: -4037.019902992793050  |grad|_K:  9.234e-08  alpha:  1.525e-01  linmin:  8.235e-07  t[s]:   5824.28
	FillingsUpdate:  mu: +0.103254616  nElectrons: 380.000000  magneticMoment: [ Abs: 0.00000  Tot: -0.00000 ]
	SubspaceRotationAdjust: set factor to 0.294
ElecMinimize: Iter:  10  F: -4037.019903658497697  |grad|_K:  7.464e-08  alpha:  1.925e-01  linmin: -6.055e-06  t[s]:   5899.29
	FillingsUpdate:  mu: +0.103244468  nElectrons: 380.000000  magneticMoment: [ Abs: 0.00000  Tot: -0.00000 ]
	SubspaceRotationAdjust: set factor to 0.27
ElecMinimize: Iter:  11  F: -4037.019903970990981  |grad|_K:  6.041e-08  alpha:  1.383e-01  linmin: -6.912e-07  t[s]:   5974.15
	FillingsUpdate:  mu: +0.103322800  nElectrons: 380.000000  magneticMoment: [ Abs: 0.00000  Tot: -0.00000 ]
	SubspaceRotationAdjust: set factor to 0.24
ElecMinimize: Iter:  12  F: -4037.019904297108042  |grad|_K:  4.861e-08  alpha:  2.205e-01  linmin: -1.999e-05  t[s]:   6049.17
	FillingsUpdate:  mu: +0.103339184  nElectrons: 380.000000  magneticMoment: [ Abs: 0.00000  Tot: -0.00000 ]
	SubspaceRotationAdjust: set factor to 0.258
ElecMinimize: Iter:  13  F: -4037.019904420338662  |grad|_K:  2.778e-08  alpha:  1.281e-01  linmin:  6.466e-06  t[s]:   6124.17
	FillingsUpdate:  mu: +0.103322865  nElectrons: 380.000000  magneticMoment: [ Abs: 0.00000  Tot: -0.00000 ]
	SubspaceRotationAdjust: set factor to 0.264
ElecMinimize: Iter:  14  F: -4037.019904480349851  |grad|_K:  2.567e-08  alpha:  1.915e-01  linmin: -2.871e-05  t[s]:   6199.36
	FillingsUpdate:  mu: +0.103304962  nElectrons: 380.000000  magneticMoment: [ Abs: 0.00000  Tot: -0.00000 ]
	SubspaceRotationAdjust: set factor to 0.253
ElecMinimize: Iter:  15  F: -4037.019904518062503  |grad|_K:  1.533e-08  alpha:  1.423e-01  linmin: -1.087e-04  t[s]:   6274.47
ElecMinimize: Converged (|Delta F|<1.000000e-07 for 2 iters).
Setting wave functions to eigenvectors of Hamiltonian
Converging empty states (this may take a while): |deigs|: 2.281e-08

Computing DFT-D3 correction:
# coordination-number Cu 6.876 9.119 9.143 9.158 9.162 9.148 9.127 8.368 6.109 4.627 8.368 9.127 9.148 9.162 9.158 9.143 9.119 6.876 4.627 6.109
# diagonal-C6 Cu 175.00 175.00 175.00 175.00 175.00 175.00 175.00 175.00 175.00 175.00 175.00 175.00 175.00 175.00 175.00 175.00 175.00 175.00 175.00 175.00
EvdW_6 =   -0.118627
EvdW_8 =   -0.178640
IonicMinimize: 	Wolfe criterion not satisfied: alpha: 1  (E-E0)/|gdotd0|: -0.958866  gdotd/gdotd0: 0.930008 (taking cubic step)

Computing DFT-D3 correction:
# coordination-number Cu 6.881 9.111 9.125 9.158 9.170 9.131 9.119 8.363 6.125 4.677 8.363 9.119 9.131 9.170 9.158 9.125 9.111 6.881 4.677 6.125
# diagonal-C6 Cu 175.00 175.00 175.00 175.00 175.00 175.00 175.00 175.00 175.00 175.00 175.00 175.00 175.00 175.00 175.00 175.00 175.00 175.00 175.00 175.00
EvdW_6 =   -0.118624
EvdW_8 =   -0.178604

-------- Electronic minimization -----------
	FillingsUpdate:  mu: +0.103909500  nElectrons: 380.000000  magneticMoment: [ Abs: 0.00000  Tot: -0.00000 ]
ElecMinimize: Iter:   0  F: -4037.020050046759479  |grad|_K:  1.331e-06  alpha:  1.000e+00
	FillingsUpdate:  mu: +0.103589657  nElectrons: 380.000000  magneticMoment: [ Abs: 0.00000  Tot: -0.00000 ]
	SubspaceRotationAdjust: set factor to 0.285
ElecMinimize: Iter:   1  F: -4037.020140726156569  |grad|_K:  9.532e-07  alpha:  1.262e-01  linmin: -3.225e-05  t[s]:   6489.99
	FillingsUpdate:  mu: +0.102976363  nElectrons: 380.000000  magneticMoment: [ Abs: 0.00000  Tot: -0.00000 ]
	SubspaceRotationAdjust: set factor to 0.324
ElecMinimize: Iter:   2  F: -4037.020250732202385  |grad|_K:  8.310e-07  alpha:  2.986e-01  linmin: -2.970e-06  t[s]:   6565.19
	FillingsUpdate:  mu: +0.103239464  nElectrons: 380.000000  magneticMoment: [ Abs: 0.00000  Tot: -0.00000 ]
	SubspaceRotationAdjust: set factor to 0.378
ElecMinimize: Iter:   3  F: -4037.020301550781369  |grad|_K:  7.143e-07  alpha:  1.816e-01  linmin: -2.081e-07  t[s]:   6640.33
	FillingsUpdate:  mu: +0.103579231  nElectrons: 380.000000  magneticMoment: [ Abs: 0.00000  Tot: -0.00000 ]
	SubspaceRotationAdjust: set factor to 0.467
ElecMinimize: Iter:   4  F: -4037.020338705640825  |grad|_K:  5.452e-07  alpha:  1.797e-01  linmin: -1.075e-07  t[s]:   6715.35
	FillingsUpdate:  mu: +0.103454898  nElectrons: 380.000000  magneticMoment: [ Abs: 0.00000  Tot: -0.00000 ]
	SubspaceRotationAdjust: set factor to 0.466
ElecMinimize: Iter:   5  F: -4037.020380620077958  |grad|_K:  8.334e-07  alpha:  3.481e-01  linmin: -2.606e-07  t[s]:   6790.71
	FillingsUpdate:  mu: +0.103311221  nElectrons: 380.000000  magneticMoment: [ Abs: 0.00000  Tot: -0.00000 ]
	SubspaceRotationAdjust: set factor to 0.291
ElecMinimize: Iter:   6  F: -4037.020407775238255  |grad|_K:  5.441e-07  alpha:  9.650e-02  linmin:  3.206e-07  t[s]:   6865.73
	FillingsUpdate:  mu: +0.103286477  nElectrons: 380.000000  magneticMoment: [ Abs: 0.00000  Tot: -0.00000 ]
	SubspaceRotationAdjust: set factor to 0.239
ElecMinimize: Iter:   7  F: -4037.020419000625225  |grad|_K:  3.039e-07  alpha:  9.360e-02  linmin: -3.311e-07  t[s]:   6940.74
	FillingsUpdate:  mu: +0.103320299  nElectrons: 380.000000  magneticMoment: [ Abs: 0.00000  Tot: -0.00000 ]
	SubspaceRotationAdjust: set factor to 0.253
ElecMinimize: Iter:   8  F: -4037.020429275297374  |grad|_K:  3.709e-07  alpha:  2.745e-01  linmin: -1.291e-06  t[s]:   7015.88
	FillingsUpdate:  mu: +0.103278227  nElectrons: 380.000000  magneticMoment: [ Abs: 0.00000  Tot: -0.00000 ]
	SubspaceRotationAdjust: set factor to 0.244
ElecMinimize: Iter:   9  F: -4037.020436331586097  |grad|_K:  1.863e-07  alpha:  1.266e-01  linmin: -2.724e-07  t[s]:   7090.96
	FillingsUpdate:  mu: +0.103161195  nElectrons: 380.000000  magneticMoment: [ Abs: 0.00000  Tot: -0.00000 ]
	SubspaceRotationAdjust: set factor to 0.235
ElecMinimize: Iter:  10  F: -4037.020439034549781  |grad|_K:  1.536e-07  alpha:  1.922e-01  linmin: -1.140e-06  t[s]:   7166.02
	FillingsUpdate:  mu: +0.103157896  nElectrons: 380.000000  magneticMoment: [ Abs: 0.00000  Tot: -0.00000 ]
	SubspaceRotationAdjust: set factor to 0.237
ElecMinimize: Iter:  11  F: -4037.020440509564196  |grad|_K:  1.207e-07  alpha:  1.543e-01  linmin:  1.811e-06  t[s]:   7241.24
	FillingsUpdate:  mu: +0.103263227  nElectrons: 380.000000  magneticMoment: [ Abs: 0.00000  Tot: -0.00000 ]
	SubspaceRotationAdjust: set factor to 0.239
ElecMinimize: Iter:  12  F: -4037.020441793398277  |grad|_K:  1.008e-07  alpha:  2.177e-01  linmin: -3.400e-06  t[s]:   7316.17
	FillingsUpdate:  mu: +0.103297848  nElectrons: 380.000000  magneticMoment: [ Abs: 0.00000  Tot: -0.00000 ]
	SubspaceRotationAdjust: set factor to 0.243
ElecMinimize: Iter:  13  F: -4037.020442313169951  |grad|_K:  5.614e-08  alpha:  1.262e-01  linmin:  2.372e-06  t[s]:   7391.64
	FillingsUpdate:  mu: +0.103271978  nElectrons: 380.000000  magneticMoment: [ Abs: 0.00000  Tot: -0.00000 ]
	SubspaceRotationAdjust: set factor to 0.246
ElecMinimize: Iter:  14  F: -4037.020442554528927  |grad|_K:  5.421e-08  alpha:  1.896e-01  linmin:  3.963e-05  t[s]:   7466.78
	FillingsUpdate:  mu: +0.103247647  nElectrons: 380.000000  magneticMoment: [ Abs: 0.00000  Tot: -0.00000 ]
	SubspaceRotationAdjust: set factor to 0.257
ElecMinimize: Iter:  15  F: -4037.020442735582492  |grad|_K:  3.135e-08  alpha:  1.522e-01  linmin: -4.104e-05  t[s]:   7541.92
	FillingsUpdate:  mu: +0.103273193  nElectrons: 380.000000  magneticMoment: [ Abs: 0.00000  Tot: -0.00000 ]
	SubspaceRotationAdjust: set factor to 0.271
ElecMinimize: Iter:  16  F: -4037.020442821313736  |grad|_K:  3.093e-08  alpha:  2.151e-01  linmin: -1.157e-05  t[s]:   7616.88
	FillingsUpdate:  mu: +0.103298261  nElectrons: 380.000000  magneticMoment: [ Abs: 0.00000  Tot: -0.00000 ]
	SubspaceRotationAdjust: set factor to 0.293
ElecMinimize: Iter:  17  F: -4037.020442878339509  |grad|_K:  2.088e-08  alpha:  1.467e-01  linmin:  2.681e-06  t[s]:   7692.05
ElecMinimize: Converged (|Delta F|<1.000000e-07 for 2 iters).
Setting wave functions to eigenvectors of Hamiltonian
Converging empty states (this may take a while): |deigs|: 3.461e-07

Computing DFT-D3 correction:
# coordination-number Cu 6.881 9.111 9.125 9.158 9.170 9.131 9.119 8.363 6.125 4.677 8.363 9.119 9.131 9.170 9.158 9.125 9.111 6.881 4.677 6.125
# diagonal-C6 Cu 175.00 175.00 175.00 175.00 175.00 175.00 175.00 175.00 175.00 175.00 175.00 175.00 175.00 175.00 175.00 175.00 175.00 175.00 175.00 175.00
EvdW_6 =   -0.118624
EvdW_8 =   -0.178604

# Ionic positions in cartesian coordinates:
ion Cu   0.000004928128247   4.261972999073018  18.663366713039164 1
ion Cu  -0.000000554913880   8.522643004275945  16.529338539415491 1
ion Cu   0.000002087111527   2.131086110802798  14.381727107719207 1
ion Cu  -0.000004226956476   6.396402744042907  12.258102913363066 1
ion Cu   0.000000350070361  10.656728393106958  10.124701963667153 1
ion Cu   0.000002424581906   4.263270774041578   7.997756491397650 1
ion Cu   0.000000142972547   8.530423719842283   5.860561967272655 1
ion Cu   0.000002875909039   2.122584283543931   3.708816032470233 1
ion Cu  -0.000004298819105   6.395852254705051   1.600022998083799 1
ion Cu  -0.000000713281380  -0.002172940814790  20.759924686827695 1
ion Cu   3.370513794961477   1.074948780174603  17.608222542784137 1
ion Cu   3.370517271009122   5.325626876931527  15.456496327863357 1
ion Cu   3.370507007641710   9.592794218693149  13.319235362005397 1
ion Cu   3.370506033296990   3.199327196460346  11.192221441392316 1
ion Cu   3.370517528174057   7.459618774372118   9.058914305138014 1
ion Cu   3.370514088539706   1.066441818284374   6.935252084929232 1
ion Cu   3.370515094579597   5.333393891261410   4.787693949546839 1
ion Cu   3.370504289969436   9.594083882183856   2.653637308344408 1
ion Cu   3.370507371511537   3.199683532478808   0.556951725917543 1
ion Cu   3.370514505513584   7.460227686540114  19.716916538822634 1

# Forces in Cartesian coordinates:
force Cu   0.000002317795490  -0.000156502830664   0.002915529096563 1
force Cu   0.000000040530671  -0.001018906151151   0.001568892487333 1
force Cu   0.000000788383410  -0.000433757444486  -0.001379251890220 1
force Cu  -0.000001084751880   0.000477386323917   0.000470675321711 1
force Cu   0.000000328257289  -0.000518248653748  -0.000256653098247 1
force Cu   0.000000642526440  -0.000093766986120   0.000340729902667 1
force Cu  -0.000000326004539   0.001033447099624  -0.000459119024248 1
force Cu   0.000000141897818  -0.002585413642625  -0.005028441622877 1
force Cu  -0.000001439951706   0.000518291540463   0.000393249374649 1
force Cu   0.000004657032615  -0.000670359280594  -0.006293804272461 1
force Cu  -0.000001749830766   0.002586404410371   0.005018760267920 1
force Cu   0.000000948030460  -0.001032881595903   0.000441653356780 1
force Cu  -0.000001161452027   0.000099255674327  -0.000363183856147 1
force Cu  -0.000001530261821   0.000520645830745   0.000221884752431 1
force Cu   0.000001623284295  -0.000480804792662  -0.000499270725611 1
force Cu   0.000000979981116   0.000431530577757   0.001362434398453 1
force Cu   0.000001232034185   0.001022996494425  -0.001583195513692 1
force Cu  -0.000002936427112   0.000166132042435  -0.002934798663052 1
force Cu  -0.000001869384946   0.000666896352126   0.006283504466677 1
force Cu   0.000001056919741  -0.000514368622576  -0.000411266127662 1

# Energy components:
   Eewald =    27542.0510720622951339
       EH =    31236.3196117979532573
     Eloc =   -63573.2350887316861190
      Enl =      732.4742431895954269
     EvdW =       -0.2972280254084195
      Exc =     -388.1105773256575731
 Exc_core =        0.9393633067026654
       KE =      412.8388576996176766
-------------------------------------
     Etot =    -4037.0197460265835616
       TS =        0.0006968517559987
-------------------------------------
        F =    -4037.0204428783395088


Dumping 'jdft.fillings' ... done
Dumping 'jdft.wfns' ... done
Dumping 'jdft.ionpos' ... done
Dumping 'jdft.lattice' ... done
Dumping 'jdft.eigenvals' ... done
Dumping 'jdft.eigStats' ... 
	eMin: -4.038515 at state 45 ( [ +0.000000 +0.000000 +0.000000 ] spin -1 )
	HOMO: +0.102712 at state 40 ( [ -0.111111 +0.000000 +0.000000 ] spin 1 )
	mu  : +0.103298
	LUMO: +0.103725 at state 56 ( [ +0.222222 +0.200000 +0.000000 ] spin -1 )
	eMax: +0.447133 at state 35 ( [ -0.222222 +0.000000 +0.000000 ] spin 1 )
	HOMO-LUMO gap: +0.001013
	Optical gap  : +0.006848 at state 73 ( [ -0.444444 -0.400000 +0.000000 ] spin -1 )
Dumping 'jdft.Ecomponents' ... done
IonicMinimize: Iter:   1  F: -4037.020442878339509  |grad|_K:  1.720e-03  alpha:  3.000e+00  linmin: -9.908e-01  t[s]:   7801.68

#--- Lowdin population analysis ---
# oxidation-state Cu +0.084 +0.036 +0.073 +0.076 +0.076 +0.073 +0.052 +0.024 +0.114 +0.242 +0.024 +0.052 +0.073 +0.076 +0.076 +0.073 +0.036 +0.085 +0.242 +0.113
# magnetic-moments Cu +0.000 -0.000 +0.000 +0.000 -0.000 -0.000 -0.000 +0.000 -0.000 +0.000 -0.000 -0.000 -0.000 -0.000 +0.000 -0.000 -0.000 +0.000 -0.000 -0.000


Computing DFT-D3 correction:
# coordination-number Cu 6.911 9.102 9.055 9.130 9.150 9.066 9.104 8.345 6.186 4.894 8.344 9.103 9.066 9.150 9.130 9.055 9.103 6.912 4.895 6.186
# diagonal-C6 Cu 175.00 175.00 175.00 175.00 175.00 175.00 175.00 175.00 175.00 175.00 175.00 175.00 175.00 175.00 175.00 175.00 175.00 175.00 175.00 175.00
EvdW_6 =   -0.118608
EvdW_8 =   -0.178542

-------- Electronic minimization -----------
	FillingsUpdate:  mu: +0.100150099  nElectrons: 380.000000  magneticMoment: [ Abs: 0.00000  Tot: -0.00000 ]
ElecMinimize: Iter:   0  F: -4035.953108171204349  |grad|_K:  9.235e-05  alpha:  1.000e+00
	FillingsUpdate:  mu: +0.147690500  nElectrons: 380.000000  magneticMoment: [ Abs: 0.00000  Tot: +0.00000 ]
	SubspaceRotationAdjust: set factor to 0.293
ElecMinimize: Iter:   1  F: -4036.398866981755873  |grad|_K:  8.921e-05  alpha:  1.664e-01  linmin:  3.722e-03  t[s]:   7935.89
	FillingsUpdate:  mu: +0.067247757  nElectrons: 380.000000  magneticMoment: [ Abs: 0.00000  Tot: +0.00000 ]
	SubspaceRotationAdjust: set factor to 0.311
ElecMinimize: Iter:   2  F: -4036.852596499539231  |grad|_K:  4.330e-05  alpha:  1.781e-01  linmin:  1.519e-04  t[s]:   8010.61
	FillingsUpdate:  mu: +0.088602565  nElectrons: 380.000000  magneticMoment: [ Abs: 0.00000  Tot: +0.00000 ]
	SubspaceRotationAdjust: set factor to 0.383
ElecMinimize: Iter:   3  F: -4036.923407015860448  |grad|_K:  2.247e-05  alpha:  9.387e-02  linmin:  2.342e-06  t[s]:   8085.62
	FillingsUpdate:  mu: +0.123195951  nElectrons: 380.000000  magneticMoment: [ Abs: 0.00000  Tot: +0.00000 ]
	SubspaceRotationAdjust: set factor to 0.41
ElecMinimize: Iter:   4  F: -4036.959342315677986  |grad|_K:  1.781e-05  alpha:  1.753e-01  linmin: -2.567e-05  t[s]:   8160.18
	FillingsUpdate:  mu: +0.121577323  nElectrons: 380.000000  magneticMoment: [ Abs: 0.00000  Tot: +0.00000 ]
	SubspaceRotationAdjust: set factor to 0.554
ElecMinimize: Iter:   5  F: -4036.976446866533024  |grad|_K:  1.358e-05  alpha:  1.324e-01  linmin:  2.101e-06  t[s]:   8235.16
	FillingsUpdate:  mu: +0.093834057  nElectrons: 380.000000  magneticMoment: [ Abs: 0.00000  Tot: +0.00000 ]
	SubspaceRotationAdjust: set factor to 0.644
ElecMinimize: Iter:   6  F: -4036.989872800979356  |grad|_K:  1.109e-05  alpha:  1.791e-01  linmin: -2.619e-05  t[s]:   8310.09
	FillingsUpdate:  mu: +0.096385583  nElectrons: 380.000000  magneticMoment: [ Abs: 0.00000  Tot: +0.00000 ]
	SubspaceRotationAdjust: set factor to 0.844
ElecMinimize: Iter:   7  F: -4036.997922806511724  |grad|_K:  1.128e-05  alpha:  1.604e-01  linmin: -9.540e-06  t[s]:   8384.94
	FillingsUpdate:  mu: +0.120331854  nElectrons: 380.000000  magneticMoment: [ Abs: 0.00000  Tot: +0.00000 ]
	SubspaceRotationAdjust: set factor to 0.799
ElecMinimize: Iter:   8  F: -4037.008041513233366  |grad|_K:  1.312e-05  alpha:  1.975e-01  linmin:  4.784e-05  t[s]:   8459.96
	FillingsUpdate:  mu: +0.108158351  nElectrons: 380.000000  magneticMoment: [ Abs: 0.00000  Tot: +0.00000 ]
	SubspaceRotationAdjust: set factor to 0.893
ElecMinimize: Iter:   9  F: -4037.015117880264825  |grad|_K:  1.072e-05  alpha:  1.045e-01  linmin: -1.405e-05  t[s]:   8535.06
	FillingsUpdate:  mu: +0.099823572  nElectrons: 380.000000  magneticMoment: [ Abs: 0.00000  Tot: +0.00000 ]
	SubspaceRotationAdjust: set factor to 0.615
ElecMinimize: Iter:  10  F: -4037.017645532827828  |grad|_K:  7.965e-06  alpha:  5.377e-02  linmin:  2.686e-06  t[s]:   8610.20
	FillingsUpdate:  mu: +0.097730061  nElectrons: 380.000000  magneticMoment: [ Abs: 0.00000  Tot: +0.00000 ]
	SubspaceRotationAdjust: set factor to 0.468
ElecMinimize: Iter:  11  F: -4037.019195251230940  |grad|_K:  5.035e-06  alpha:  6.038e-02  linmin: -3.248e-06  t[s]:   8685.08
	FillingsUpdate:  mu: +0.103124455  nElectrons: 380.000000  magneticMoment: [ Abs: 0.00000  Tot: +0.00000 ]
	SubspaceRotationAdjust: set factor to 0.435
ElecMinimize: Iter:  12  F: -4037.020423478837529  |grad|_K:  3.710e-06  alpha:  1.195e-01  linmin:  5.590e-06  t[s]:   8759.92
	FillingsUpdate:  mu: +0.104023830  nElectrons: 380.000000  magneticMoment: [ Abs: 0.00000  Tot: +0.00000 ]
	SubspaceRotationAdjust: set factor to 0.495
ElecMinimize: Iter:  13  F: -4037.020941220660461  |grad|_K:  2.166e-06  alpha:  9.306e-02  linmin:  6.373e-07  t[s]:   8835.01
	FillingsUpdate:  mu: +0.102877142  nElectrons: 380.000000  magneticMoment: [ Abs: 0.00000  Tot: +0.00000 ]
	SubspaceRotationAdjust: set factor to 0.531
ElecMinimize: Iter:  14  F: -4037.021193157108883  |grad|_K:  2.018e-06  alpha:  1.325e-01  linmin: -3.189e-06  t[s]:   8909.98
	FillingsUpdate:  mu: +0.102420574  nElectrons: 380.000000  magneticMoment: [ Abs: 0.00000  Tot: +0.00000 ]
	SubspaceRotationAdjust: set factor to 0.538
ElecMinimize: Iter:  15  F: -4037.021373552258865  |grad|_K:  1.606e-06  alpha:  1.094e-01  linmin: -1.587e-06  t[s]:   8985.53
	FillingsUpdate:  mu: +0.102516661  nElectrons: 380.000000  magneticMoment: [ Abs: 0.00000  Tot: +0.00000 ]
	SubspaceRotationAdjust: set factor to 0.585
ElecMinimize: Iter:  16  F: -4037.021483681933660  |grad|_K:  1.377e-06  alpha:  1.054e-01  linmin: -4.362e-07  t[s]:   9060.75
	FillingsUpdate:  mu: +0.102564018  nElectrons: 380.000000  magneticMoment: [ Abs: 0.00000  Tot: +0.00000 ]
	SubspaceRotationAdjust: set factor to 0.652
ElecMinimize: Iter:  17  F: -4037.021587359591649  |grad|_K:  1.278e-06  alpha:  1.350e-01  linmin: -1.943e-07  t[s]:   9135.72
	FillingsUpdate:  mu: +0.103100148  nElectrons: 380.000000  magneticMoment: [ Abs: 0.00000  Tot: +0.00000 ]
	SubspaceRotationAdjust: set factor to 0.748
ElecMinimize: Iter:  18  F: -4037.021667018126664  |grad|_K:  1.020e-06  alpha:  1.204e-01  linmin: -4.898e-07  t[s]:   9210.62
	FillingsUpdate:  mu: +0.103672016  nElectrons: 380.000000  magneticMoment: [ Abs: 0.00000  Tot: +0.00000 ]
	SubspaceRotationAdjust: set factor to 0.792
ElecMinimize: Iter:  19  F: -4037.021720505462781  |grad|_K:  1.033e-06  alpha:  1.268e-01  linmin: -4.303e-07  t[s]:   9285.67
	FillingsUpdate:  mu: +0.103217566  nElectrons: 380.000000  magneticMoment: [ Abs: 0.00000  Tot: -0.00000 ]
	SubspaceRotationAdjust: set factor to 0.689
ElecMinimize: Iter:  20  F: -4037.021766140197542  |grad|_K:  1.073e-06  alpha:  1.056e-01  linmin: -4.188e-07  t[s]:   9360.63
	FillingsUpdate:  mu: +0.102751872  nElectrons: 380.000000  magneticMoment: [ Abs: 0.00000  Tot: -0.00000 ]
	SubspaceRotationAdjust: set factor to 0.489
ElecMinimize: Iter:  21  F: -4037.021793325276121  |grad|_K:  7.373e-07  alpha:  5.830e-02  linmin:  2.890e-07  t[s]:   9435.60
	FillingsUpdate:  mu: +0.102727181  nElectrons: 380.000000  magneticMoment: [ Abs: 0.00000  Tot: -0.00000 ]
	SubspaceRotationAdjust: set factor to 0.505
ElecMinimize: Iter:  22  F: -4037.021814447982251  |grad|_K:  5.658e-07  alpha:  9.592e-02  linmin: -1.996e-07  t[s]:   9510.59
	FillingsUpdate:  mu: +0.103161966  nElectrons: 380.000000  magneticMoment: [ Abs: 0.00000  Tot: -0.00000 ]
	SubspaceRotationAdjust: set factor to 0.505
ElecMinimize: Iter:  23  F: -4037.021832615662333  |grad|_K:  4.863e-07  alpha:  1.400e-01  linmin: -6.046e-08  t[s]:   9585.89
	FillingsUpdate:  mu: +0.103144462  nElectrons: 380.000000  magneticMoment: [ Abs: 0.00000  Tot: -0.00000 ]
	SubspaceRotationAdjust: set factor to 0.445
ElecMinimize: Iter:  24  F: -4037.021841201331881  |grad|_K:  3.533e-07  alpha:  8.961e-02  linmin: -6.520e-08  t[s]:   9661.01
	FillingsUpdate:  mu: +0.102878314  nElectrons: 380.000000  magneticMoment: [ Abs: 0.00000  Tot: -0.00000 ]
	SubspaceRotationAdjust: set factor to 0.396
ElecMinimize: Iter:  25  F: -4037.021845719997145  |grad|_K:  2.694e-07  alpha:  8.936e-02  linmin:  3.700e-07  t[s]:   9736.21
	FillingsUpdate:  mu: +0.102687846  nElectrons: 380.000000  magneticMoment: [ Abs: 0.00000  Tot: -0.00000 ]
	SubspaceRotationAdjust: set factor to 0.454
ElecMinimize: Iter:  26  F: -4037.021849787001429  |grad|_K:  2.400e-07  alpha:  1.384e-01  linmin:  1.674e-06  t[s]:   9811.14
	FillingsUpdate:  mu: +0.102901799  nElectrons: 380.000000  magneticMoment: [ Abs: 0.00000  Tot: -0.00000 ]
	SubspaceRotationAdjust: set factor to 0.47
ElecMinimize: Iter:  27  F: -4037.021852550484709  |grad|_K:  2.100e-07  alpha:  1.185e-01  linmin: -3.433e-07  t[s]:   9886.58
	FillingsUpdate:  mu: +0.103165877  nElectrons: 380.000000  magneticMoment: [ Abs: 0.00000  Tot: -0.00000 ]
	SubspaceRotationAdjust: set factor to 0.448
ElecMinimize: Iter:  28  F: -4037.021854372067537  |grad|_K:  1.658e-07  alpha:  1.020e-01  linmin:  2.879e-06  t[s]:   9961.78
	FillingsUpdate:  mu: +0.103170139  nElectrons: 380.000000  magneticMoment: [ Abs: 0.00000  Tot: -0.00000 ]
	SubspaceRotationAdjust: set factor to 0.598
ElecMinimize: Iter:  29  F: -4037.021855710244381  |grad|_K:  1.326e-07  alpha:  1.202e-01  linmin: -1.106e-07  t[s]:  10037.07
	FillingsUpdate:  mu: +0.102983241  nElectrons: 380.000000  magneticMoment: [ Abs: 0.00000  Tot: -0.00000 ]
	SubspaceRotationAdjust: set factor to 0.661
ElecMinimize: Iter:  30  F: -4037.021856622231553  |grad|_K:  1.259e-07  alpha:  1.280e-01  linmin: -9.802e-07  t[s]:  10112.06
	FillingsUpdate:  mu: +0.102888842  nElectrons: 380.000000  magneticMoment: [ Abs: 0.00000  Tot: -0.00000 ]
	SubspaceRotationAdjust: set factor to 0.631
ElecMinimize: Iter:  31  F: -4037.021857239364181  |grad|_K:  1.254e-07  alpha:  9.606e-02  linmin: -9.980e-07  t[s]:  10187.14
	FillingsUpdate:  mu: +0.102922376  nElectrons: 380.000000  magneticMoment: [ Abs: 0.00000  Tot: -0.00000 ]
	SubspaceRotationAdjust: set factor to 0.647
ElecMinimize: Iter:  32  F: -4037.021857834593902  |grad|_K:  1.048e-07  alpha:  9.341e-02  linmin: -6.679e-07  t[s]:  10262.27
	FillingsUpdate:  mu: +0.103018334  nElectrons: 380.000000  magneticMoment: [ Abs: 0.00000  Tot: -0.00000 ]
	SubspaceRotationAdjust: set factor to 0.693
ElecMinimize: Iter:  33  F: -4037.021858344192424  |grad|_K:  8.384e-08  alpha:  1.144e-01  linmin:  9.880e-07  t[s]:  10337.62
	FillingsUpdate:  mu: +0.103022231  nElectrons: 380.000000  magneticMoment: [ Abs: 0.00000  Tot: +0.00000 ]
	SubspaceRotationAdjust: set factor to 0.764
ElecMinimize: Iter:  34  F: -4037.021858727065592  |grad|_K:  7.963e-08  alpha:  1.344e-01  linmin: -2.193e-06  t[s]:  10412.49
	FillingsUpdate:  mu: +0.102983594  nElectrons: 380.000000  magneticMoment: [ Abs: 0.00000  Tot: +0.00000 ]
	SubspaceRotationAdjust: set factor to 0.752
ElecMinimize: Iter:  35  F: -4037.021859058766950  |grad|_K:  6.615e-08  alpha:  1.289e-01  linmin:  1.008e-08  t[s]:  10487.73
	FillingsUpdate:  mu: +0.102979201  nElectrons: 380.000000  magneticMoment: [ Abs: 0.00000  Tot: +0.00000 ]
	SubspaceRotationAdjust: set factor to 0.603
ElecMinimize: Iter:  36  F: -4037.021859195205707  |grad|_K:  5.702e-08  alpha:  7.691e-02  linmin:  9.588e-07  t[s]:  10562.93
	FillingsUpdate:  mu: +0.102985139  nElectrons: 380.000000  magneticMoment: [ Abs: 0.00000  Tot: +0.00000 ]
	SubspaceRotationAdjust: set factor to 0.464
ElecMinimize: Iter:  37  F: -4037.021859277581370  |grad|_K:  4.322e-08  alpha:  6.265e-02  linmin: -1.280e-06  t[s]:  10637.93
	FillingsUpdate:  mu: +0.102993193  nElectrons: 380.000000  magneticMoment: [ Abs: 0.00000  Tot: +0.00000 ]
	SubspaceRotationAdjust: set factor to 0.53
ElecMinimize: Iter:  38  F: -4037.021859369163849  |grad|_K:  3.779e-08  alpha:  1.206e-01  linmin: -8.784e-06  t[s]:  10713.01
ElecMinimize: Converged (|Delta F|<1.000000e-07 for 2 iters).
Setting wave functions to eigenvectors of Hamiltonian
Converging empty states (this may take a while): |deigs|: 6.182e-06

Computing DFT-D3 correction:
# coordination-number Cu 6.911 9.102 9.055 9.130 9.150 9.066 9.104 8.345 6.186 4.894 8.344 9.103 9.066 9.150 9.130 9.055 9.103 6.912 4.895 6.186
# diagonal-C6 Cu 175.00 175.00 175.00 175.00 175.00 175.00 175.00 175.00 175.00 175.00 175.00 175.00 175.00 175.00 175.00 175.00 175.00 175.00 175.00 175.00
EvdW_6 =   -0.118608
EvdW_8 =   -0.178542

# Ionic positions in cartesian coordinates:
ion Cu   0.000057845477343   4.264556586219816  18.708013611272452 1
ion Cu  -0.000000721599356   8.509012376394121  16.536885154560125 1
ion Cu   0.000014323666242   2.118361920126697  14.373363827803736 1
ion Cu  -0.000024870046570   6.406556507551104  12.271350790617173 1
ion Cu   0.000005621876663  10.647709123768808  10.120443994612129 1
ion Cu   0.000007144645046   4.260462105583760   7.987738412183139 1
ion Cu  -0.000018014834054   8.547662740762261   5.853362841583830 1
ion Cu  -0.000013977025294   2.079556952558053   3.648921722774887 1
ion Cu  -0.000037904402560   6.410838867440204   1.607744953998393 1
ion Cu   0.000174122147020  -0.014492341330135  20.667280569062832 1
ion Cu   3.370432079866813   1.118034973049651  17.668046645698428 1
ion Cu   3.370516494656191   5.308290013055008  15.463596444490888 1
ion Cu   3.370488047999524   9.595604609189339  13.328980955069120 1
ion Cu   3.370478992702240   3.208287837298080  11.196151792878124 1
ion Cu   3.370540673612119   7.449390779402559   9.045393335259634 1
ion Cu   3.370533540344215   1.079134249503293   6.943631070491450 1
ion Cu   3.370538035809894   5.347141473313157   4.779939258673399 1
ion Cu   3.370434653794747   9.591706613932786   2.609147815565908 1
ion Cu   3.370459545685848   3.212028206599883   0.650465684345166 1
ion Cu   3.370534365623929   7.445094405581542  19.709402119059174 1

# Forces in Cartesian coordinates:
force Cu  -0.000004403091214   0.000738230123007   0.001040597075805 1
force Cu  -0.000001552726936  -0.000499822021717  -0.000200519460181 1
force Cu  -0.000002136778374   0.000240982459113   0.000453765554430 1
force Cu  -0.000001163337692  -0.000389413142687  -0.000336711963352 1
force Cu   0.000001488623612   0.000070272979274   0.000029571397752 1
force Cu   0.000001176712329   0.000001309237147   0.000001092071298 1
force Cu   0.000000302246463   0.000314033619748  -0.000337164174858 1
force Cu  -0.000000429359097  -0.000352878781341  -0.000156939339216 1
force Cu  -0.000003263232457   0.000192533475668   0.000152426454495 1
force Cu  -0.000008869794531  -0.000985282578081  -0.000742355586908 1
force Cu   0.000017115370986   0.000340476051170   0.000153264668069 1
force Cu   0.000000587779590  -0.000301863963526   0.000283151058682 1
force Cu   0.000000283919042  -0.000002089883119  -0.000049899320031 1
force Cu   0.000000458164677  -0.000064471693284  -0.000095858511844 1
force Cu  -0.000001406153154   0.000386133874844   0.000273221011691 1
force Cu  -0.000004686203587  -0.000241176292724  -0.000523073567881 1
force Cu  -0.000002795622765   0.000505711603825   0.000197327682276 1
force Cu   0.000001920604838  -0.000740934377818  -0.001095691230659 1
force Cu   0.000000784038631   0.000970404714788   0.000636303033373 1
force Cu   0.000003893475346  -0.000162969484929  -0.000226288719389 1

# Energy components:
   Eewald =    27546.7924749959202018
       EH =    31240.8118590709163982
     Eloc =   -63582.4622364401220693
      Enl =      732.4644809200929103
     EvdW =       -0.2971499835775274
      Exc =     -388.1169309735806792
 Exc_core =        0.9393596386263360
       KE =      412.8469667352858892
-------------------------------------
     Etot =    -4037.0211760364350084
       TS =        0.0006833327288618
-------------------------------------
        F =    -4037.0218593691638489


Dumping 'jdft.fillings' ... done
Dumping 'jdft.wfns' ... done
Dumping 'jdft.ionpos' ... done
Dumping 'jdft.lattice' ... done
Dumping 'jdft.eigenvals' ... done
Dumping 'jdft.eigStats' ... 
	eMin: -4.038801 at state 0 ( [ +0.000000 +0.000000 +0.000000 ] spin 1 )
	HOMO: +0.101982 at state 1 ( [ +0.000000 +0.200000 +0.000000 ] spin 1 )
	mu  : +0.102993
	LUMO: +0.103361 at state 39 ( [ -0.222222 -0.200000 +0.000000 ] spin 1 )
	eMax: +0.448003 at state 10 ( [ +0.222222 +0.000000 +0.000000 ] spin 1 )
	HOMO-LUMO gap: +0.001380
	Optical gap  : +0.007648 at state 68 ( [ +0.444444 -0.400000 +0.000000 ] spin -1 )
Dumping 'jdft.Ecomponents' ... done
IonicMinimize: Iter:   2  F: -4037.021859369163849  |grad|_K:  3.815e-04  alpha:  1.000e+00  linmin: -5.390e-01  t[s]:  10918.38

#--- Lowdin population analysis ---
# oxidation-state Cu +0.086 +0.035 +0.076 +0.075 +0.076 +0.075 +0.053 +0.023 +0.118 +0.232 +0.023 +0.052 +0.075 +0.075 +0.075 +0.076 +0.035 +0.086 +0.232 +0.117
# magnetic-moments Cu +0.000 -0.000 -0.000 +0.000 -0.000 -0.000 -0.000 -0.000 -0.000 +0.000 +0.000 +0.000 +0.000 -0.000 +0.000 +0.000 +0.000 +0.000 +0.000 +0.000


Computing DFT-D3 correction:
# coordination-number Cu 6.903 9.100 9.037 9.126 9.141 9.048 9.106 8.327 6.223 4.924 8.326 9.104 9.046 9.141 9.127 9.039 9.101 6.904 4.923 6.225
# diagonal-C6 Cu 175.00 175.00 175.00 175.00 175.00 175.00 175.00 175.00 175.00 175.00 175.00 175.00 175.00 175.00 175.00 175.00 175.00 175.00 175.00 175.00
EvdW_6 =   -0.118600
EvdW_8 =   -0.178465

-------- Electronic minimization -----------
	FillingsUpdate:  mu: +0.107610203  nElectrons: 380.000000  magneticMoment: [ Abs: 0.00000  Tot: +0.00000 ]
ElecMinimize: Iter:   0  F: -4036.929650444876188  |grad|_K:  2.550e-05  alpha:  1.000e+00
	FillingsUpdate:  mu: +0.088150771  nElectrons: 380.000000  magneticMoment: [ Abs: 0.00000  Tot: -0.00000 ]
	SubspaceRotationAdjust: set factor to 0.521
ElecMinimize: Iter:   1  F: -4036.972761739019006  |grad|_K:  2.225e-05  alpha:  1.665e-01  linmin:  1.646e-04  t[s]:  11053.64
	FillingsUpdate:  mu: +0.100367622  nElectrons: 380.000000  magneticMoment: [ Abs: 0.00000  Tot: -0.00000 ]
	SubspaceRotationAdjust: set factor to 0.538
ElecMinimize: Iter:   2  F: -4037.011195706765648  |grad|_K:  1.002e-05  alpha:  1.947e-01  linmin:  3.301e-05  t[s]:  11128.93
	FillingsUpdate:  mu: +0.104064612  nElectrons: 380.000000  magneticMoment: [ Abs: 0.00000  Tot: -0.00000 ]
	SubspaceRotationAdjust: set factor to 0.422
ElecMinimize: Iter:   3  F: -4037.014664755636204  |grad|_K:  7.536e-06  alpha:  8.556e-02  linmin:  8.231e-06  t[s]:  11204.20
	FillingsUpdate:  mu: +0.107443787  nElectrons: 380.000000  magneticMoment: [ Abs: 0.00000  Tot: -0.00000 ]
	SubspaceRotationAdjust: set factor to 0.31
ElecMinimize: Iter:   4  F: -4037.016924453697811  |grad|_K:  6.310e-06  alpha:  9.830e-02  linmin: -1.467e-08  t[s]:  11279.07
	FillingsUpdate:  mu: +0.109097461  nElectrons: 380.000000  magneticMoment: [ Abs: 0.00000  Tot: -0.00000 ]
	SubspaceRotationAdjust: set factor to 0.453
ElecMinimize: Iter:   5  F: -4037.019228348263823  |grad|_K:  3.797e-06  alpha:  1.430e-01  linmin:  1.167e-05  t[s]:  11354.38
	FillingsUpdate:  mu: +0.103756348  nElectrons: 380.000000  magneticMoment: [ Abs: 0.00000  Tot: -0.00000 ]
	SubspaceRotationAdjust: set factor to 0.331
ElecMinimize: Iter:   6  F: -4037.020091493076052  |grad|_K:  3.234e-06  alpha:  1.482e-01  linmin: -5.463e-06  t[s]:  11429.46
	FillingsUpdate:  mu: +0.101178121  nElectrons: 380.000000  magneticMoment: [ Abs: 0.00000  Tot: -0.00000 ]
	SubspaceRotationAdjust: set factor to 0.25
ElecMinimize: Iter:   7  F: -4037.020467285328778  |grad|_K:  2.277e-06  alpha:  8.868e-02  linmin:  6.441e-07  t[s]:  11504.58
	FillingsUpdate:  mu: +0.101695108  nElectrons: 380.000000  magneticMoment: [ Abs: 0.00000  Tot: -0.00000 ]
	SubspaceRotationAdjust: set factor to 0.326
ElecMinimize: Iter:   8  F: -4037.020883989745016  |grad|_K:  2.399e-06  alpha:  1.986e-01  linmin:  2.739e-06  t[s]:  11579.86
	FillingsUpdate:  mu: +0.103678292  nElectrons: 380.000000  magneticMoment: [ Abs: 0.00000  Tot: -0.00000 ]
	SubspaceRotationAdjust: set factor to 0.301
ElecMinimize: Iter:   9  F: -4037.021363441724134  |grad|_K:  2.291e-06  alpha:  2.060e-01  linmin:  1.230e-06  t[s]:  11654.91
	FillingsUpdate:  mu: +0.103988767  nElectrons: 380.000000  magneticMoment: [ Abs: 0.00000  Tot: -0.00000 ]
	SubspaceRotationAdjust: set factor to 0.24
ElecMinimize: Iter:  10  F: -4037.021605223758797  |grad|_K:  1.520e-06  alpha:  1.138e-01  linmin: -1.047e-07  t[s]:  11730.15
	FillingsUpdate:  mu: +0.102887026  nElectrons: 380.000000  magneticMoment: [ Abs: 0.00000  Tot: -0.00000 ]
	SubspaceRotationAdjust: set factor to 0.28
ElecMinimize: Iter:  11  F: -4037.021768956804863  |grad|_K:  1.220e-06  alpha:  1.750e-01  linmin:  5.828e-07  t[s]:  11805.25
	FillingsUpdate:  mu: +0.102155289  nElectrons: 380.000000  magneticMoment: [ Abs: 0.00000  Tot: -0.00000 ]
	SubspaceRotationAdjust: set factor to 0.273
[...]
	FillingsUpdate:  mu: +0.102623963  nElectrons: 380.000000  magneticMoment: [ Abs: 0.00000  Tot: -0.00000 ]
	SubspaceRotationAdjust: set factor to 0.396
ElecMinimize: Iter:   3  F: -4037.021903747354372  |grad|_K:  6.853e-07  alpha:  1.826e-01  linmin: -7.816e-08  t[s]:  13418.77
	FillingsUpdate:  mu: +0.102909894  nElectrons: 380.000000  magneticMoment: [ Abs: 0.00000  Tot: -0.00000 ]
	SubspaceRotationAdjust: set factor to 0.297
ElecMinimize: Iter:   4  F: -4037.021924071266312  |grad|_K:  4.763e-07  alpha:  1.068e-01  linmin: -3.516e-07  t[s]:  13493.84
	FillingsUpdate:  mu: +0.102767060  nElectrons: 380.000000  magneticMoment: [ Abs: 0.00000  Tot: -0.00000 ]
	SubspaceRotationAdjust: set factor to 0.28
ElecMinimize: Iter:   5  F: -4037.021939748150089  |grad|_K:  4.909e-07  alpha:  1.706e-01  linmin:  7.286e-08  t[s]:  13569.03
	FillingsUpdate:  mu: +0.102358282  nElectrons: 380.000000  magneticMoment: [ Abs: 0.00000  Tot: -0.00000 ]
	SubspaceRotationAdjust: set factor to 0.337
ElecMinimize: Iter:   6  F: -4037.021963414905713  |grad|_K:  3.638e-07  alpha:  2.424e-01  linmin: -2.592e-07  t[s]:  13644.08
	FillingsUpdate:  mu: +0.102504401  nElectrons: 380.000000  magneticMoment: [ Abs: 0.00000  Tot: -0.00000 ]
	SubspaceRotationAdjust: set factor to 0.316
ElecMinimize: Iter:   7  F: -4037.021969614763293  |grad|_K:  2.325e-07  alpha:  1.156e-01  linmin: -4.777e-07  t[s]:  13719.93
	FillingsUpdate:  mu: +0.102877058  nElectrons: 380.000000  magneticMoment: [ Abs: 0.00000  Tot: -0.00000 ]
	SubspaceRotationAdjust: set factor to 0.259
ElecMinimize: Iter:   8  F: -4037.021974091457196  |grad|_K:  2.531e-07  alpha:  2.043e-01  linmin: -2.905e-06  t[s]:  13795.13
	FillingsUpdate:  mu: +0.102970924  nElectrons: 380.000000  magneticMoment: [ Abs: 0.00000  Tot: -0.00000 ]
	SubspaceRotationAdjust: set factor to 0.289
ElecMinimize: Iter:   9  F: -4037.021978080194003  |grad|_K:  1.654e-07  alpha:  1.536e-01  linmin: -1.715e-07  t[s]:  13870.36
	FillingsUpdate:  mu: +0.102719480  nElectrons: 380.000000  magneticMoment: [ Abs: 0.00000  Tot: -0.00000 ]
	SubspaceRotationAdjust: set factor to 0.325
ElecMinimize: Iter:  10  F: -4037.021979953313348  |grad|_K:  1.089e-07  alpha:  1.690e-01  linmin: -4.252e-06  t[s]:  13945.51
	FillingsUpdate:  mu: +0.102614334  nElectrons: 380.000000  magneticMoment: [ Abs: 0.00000  Tot: -0.00000 ]
	SubspaceRotationAdjust: set factor to 0.298
ElecMinimize: Iter:  11  F: -4037.021980574309055  |grad|_K:  8.624e-08  alpha:  1.294e-01  linmin:  8.555e-06  t[s]:  14021.17
	FillingsUpdate:  mu: +0.102636302  nElectrons: 380.000000  magneticMoment: [ Abs: 0.00000  Tot: -0.00000 ]
	SubspaceRotationAdjust: set factor to 0.294
ElecMinimize: Iter:  12  F: -4037.021981256343224  |grad|_K:  8.095e-08  alpha:  2.266e-01  linmin: -9.619e-07  t[s]:  14096.25
	FillingsUpdate:  mu: +0.102689973  nElectrons: 380.000000  magneticMoment: [ Abs: 0.00000  Tot: -0.00000 ]
	SubspaceRotationAdjust: set factor to 0.28
ElecMinimize: Iter:  13  F: -4037.021981587687605  |grad|_K:  4.440e-08  alpha:  1.247e-01  linmin:  7.269e-06  t[s]:  14171.53
	FillingsUpdate:  mu: +0.102697509  nElectrons: 380.000000  magneticMoment: [ Abs: 0.00000  Tot: -0.00000 ]
	SubspaceRotationAdjust: set factor to 0.287
ElecMinimize: Iter:  14  F: -4037.021981726811191  |grad|_K:  3.881e-08  alpha:  1.736e-01  linmin: -4.976e-05  t[s]:  14246.43
	FillingsUpdate:  mu: +0.102689521  nElectrons: 380.000000  magneticMoment: [ Abs: 0.00000  Tot: -0.00000 ]
	SubspaceRotationAdjust: set factor to 0.303
ElecMinimize: Iter:  15  F: -4037.021981811580190  |grad|_K:  2.398e-08  alpha:  1.389e-01  linmin: -1.516e-05  t[s]:  14321.60
	FillingsUpdate:  mu: +0.102685666  nElectrons: 380.000000  magneticMoment: [ Abs: 0.00000  Tot: -0.00000 ]
	SubspaceRotationAdjust: set factor to 0.302
ElecMinimize: Iter:  16  F: -4037.021981852100907  |grad|_K:  2.188e-08  alpha:  1.749e-01  linmin:  9.070e-05  t[s]:  14396.82
ElecMinimize: Converged (|Delta F|<1.000000e-07 for 2 iters).
Setting wave functions to eigenvectors of Hamiltonian
Converging empty states (this may take a while): |deigs|: 6.870e-08

Computing DFT-D3 correction:
# coordination-number Cu 6.873 9.101 9.034 9.119 9.129 9.051 9.092 8.329 6.226 4.933 8.328 9.093 9.052 9.129 9.119 9.033 9.101 6.872 4.935 6.225
# diagonal-C6 Cu 175.00 175.00 175.00 175.00 175.00 175.00 175.00 175.00 175.00 175.00 175.00 175.00 175.00 175.00 175.00 175.00 175.00 175.00 175.00 175.00
EvdW_6 =   -0.118578
EvdW_8 =   -0.178382

# Ionic positions in cartesian coordinates:
ion Cu   0.000129431867192   4.272650819873893  18.745029240035553 1
ion Cu   0.000087312321897   8.498814993907727  16.524835778947004 1
ion Cu   0.000090832514279   2.120477891861158  14.389025004421875 1
ion Cu  -0.000032834250193   6.398855210413121  12.268595688929690 1
ion Cu  -0.000007725476166  10.651923069633726  10.123024464690614 1
ion Cu  -0.000030963126103   4.261034754066179   7.983495047613445 1
ion Cu  -0.000049779924446   8.554606751367501   5.847689022566343 1
ion Cu  -0.000065381616712   2.070998579822663   3.640392759900565 1
ion Cu  -0.000088146402752   6.414004754755804   1.610986038821275 1
ion Cu   0.000139334256240  -0.040170588473375  20.648393950064364 1
ion Cu   3.370530982899241   1.127074803960018  17.676550969210499 1
ion Cu   3.370465110514310   5.301194761107773  15.469248901454369 1
ion Cu   3.370476204989169   9.594993434930783  13.333547747378162 1
ion Cu   3.370483627281878   3.204037901099205  11.193942448257509 1
ion Cu   3.370553085351996   7.457212111287619   9.048608981219694 1
ion Cu   3.370502824031157   1.076869078776264   6.928105103803035 1
ion Cu   3.370498724928162   5.357231636206658   4.791645781357442 1
ion Cu   3.370450101727540   9.583578113696284   2.571873599408800 1
ion Cu   3.370461032113720   3.237668696254709   0.669076997699231 1
ion Cu   3.370526225999592   7.441881225452273  19.705793474220513 1

# Forces in Cartesian coordinates:
force Cu  -0.000005529158222   0.000032836869925   0.000054769168696 1
force Cu  -0.000007742062518  -0.000198612645229   0.000202564056482 1
force Cu  -0.000006971032280   0.000113674749043   0.000036364557355 1
force Cu  -0.000001016049738  -0.000109405484938  -0.000260230067291 1
force Cu   0.000001184255271  -0.000024639668890  -0.000052171804455 1
force Cu   0.000002115543119  -0.000030987418686   0.000098881737596 1
force Cu   0.000002175487513   0.000151422054033  -0.000197845538292 1
force Cu   0.000001392611460   0.000106656950509   0.000055290746015 1
force Cu   0.000000039240976   0.000145052242198   0.000094737097187 1
force Cu  -0.000004137051276  -0.000288043285986   0.000248481508343 1
force Cu   0.000009723790909  -0.000151715858341  -0.000067709296747 1
force Cu   0.000007990678884  -0.000130378241342   0.000134688341508 1
force Cu   0.000005094698466   0.000034159914901  -0.000160856973081 1
force Cu   0.000000581987678   0.000032974106538  -0.000031000441113 1
force Cu  -0.000002618302482   0.000085006233232   0.000165450032554 1
force Cu  -0.000003063974235  -0.000109565140689  -0.000111173906842 1
force Cu  -0.000001599897808   0.000216521516718  -0.000187402089406 1
force Cu  -0.000002296670260  -0.000026366021161  -0.000099949065908 1
force Cu  -0.000001791823757   0.000268003913193  -0.000359270382226 1
force Cu   0.000006411229539  -0.000111617927595  -0.000159453393244 1

# Energy components:
   Eewald =    27532.9657248514704406
       EH =    31226.8595340097162989
     Eloc =   -63554.6807855991428369
      Enl =      732.4634599930507193
     EvdW =       -0.2969598129690352
      Exc =     -388.1159714399149152
 Exc_core =        0.9393589472982219
       KE =      412.8443407147021276
-------------------------------------
     Etot =    -4037.0212983357891972
       TS =        0.0006835163118158
-------------------------------------
        F =    -4037.0219818521009074


Dumping 'jdft.fillings' ... done
Dumping 'jdft.wfns' ... done
Dumping 'jdft.ionpos' ... done
Dumping 'jdft.lattice' ... done
Dumping 'jdft.eigenvals' ... done
Dumping 'jdft.eigStats' ... 
	eMin: -4.039051 at state 45 ( [ +0.000000 +0.000000 +0.000000 ] spin -1 )
	HOMO: +0.101644 at state 1 ( [ +0.000000 +0.200000 +0.000000 ] spin 1 )
	mu  : +0.102686
	LUMO: +0.103101 at state 39 ( [ -0.222222 -0.200000 +0.000000 ] spin 1 )
	eMax: +0.448292 at state 35 ( [ -0.222222 +0.000000 +0.000000 ] spin 1 )
	HOMO-LUMO gap: +0.001457
	Optical gap  : +0.007816 at state 54 ( [ +0.111111 -0.200000 +0.000000 ] spin -1 )
Dumping 'jdft.Ecomponents' ... done
IonicMinimize: Iter:   4  F: -4037.021981852100907  |grad|_K:  1.231e-04  alpha:  1.000e+00  linmin: -8.626e-02  t[s]:  14474.83

#--- Lowdin population analysis ---
# oxidation-state Cu +0.089 +0.035 +0.076 +0.075 +0.076 +0.075 +0.053 +0.024 +0.115 +0.229 +0.023 +0.052 +0.075 +0.076 +0.075 +0.076 +0.035 +0.090 +0.230 +0.115
# magnetic-moments Cu -0.000 +0.000 -0.000 -0.000 +0.000 -0.000 +0.000 +0.000 +0.000 -0.000 +0.000 +0.000 -0.000 +0.000 -0.000 +0.000 -0.000 -0.000 +0.000 +0.000


Computing DFT-D3 correction:
# coordination-number Cu 6.864 9.098 9.030 9.118 9.127 9.047 9.089 8.325 6.235 4.930 8.325 9.089 9.047 9.127 9.118 9.030 9.097 6.864 4.929 6.236
# diagonal-C6 Cu 175.00 175.00 175.00 175.00 175.00 175.00 175.00 175.00 175.00 175.00 175.00 175.00 175.00 175.00 175.00 175.00 175.00 175.00 175.00 175.00
EvdW_6 =   -0.118566
EvdW_8 =   -0.178323

-------- Electronic minimization -----------
	FillingsUpdate:  mu: +0.102840919  nElectrons: 380.000000  magneticMoment: [ Abs: 0.00000  Tot: -0.00000 ]
ElecMinimize: Iter:   0  F: -4037.021923833724031  |grad|_K:  6.540e-07  alpha:  1.000e+00
	FillingsUpdate:  mu: +0.102695081  nElectrons: 380.000000  magneticMoment: [ Abs: 0.00000  Tot: -0.00000 ]
	SubspaceRotationAdjust: set factor to 0.234
ElecMinimize: Iter:   1  F: -4037.021942191722701  |grad|_K:  4.303e-07  alpha:  1.060e-01  linmin:  1.206e-05  t[s]:  14612.37
	FillingsUpdate:  mu: +0.102512959  nElectrons: 380.000000  magneticMoment: [ Abs: 0.00000  Tot: -0.00000 ]
	SubspaceRotationAdjust: set factor to 0.202
ElecMinimize: Iter:   2  F: -4037.021960003582080  |grad|_K:  4.037e-07  alpha:  2.376e-01  linmin: -9.085e-07  t[s]:  14687.51
	FillingsUpdate:  mu: +0.102524075  nElectrons: 380.000000  magneticMoment: [ Abs: 0.00000  Tot: -0.00000 ]
	SubspaceRotationAdjust: set factor to 0.238
ElecMinimize: Iter:   3  F: -4037.021969697005716  |grad|_K:  2.710e-07  alpha:  1.468e-01  linmin: -7.014e-07  t[s]:  14762.44
	FillingsUpdate:  mu: +0.102622358  nElectrons: 380.000000  magneticMoment: [ Abs: 0.00000  Tot: -0.00000 ]
	SubspaceRotationAdjust: set factor to 0.281
ElecMinimize: Iter:   4  F: -4037.021975449407364  |grad|_K:  1.814e-07  alpha:  1.933e-01  linmin: -3.836e-06  t[s]:  14837.75
	FillingsUpdate:  mu: +0.102691776  nElectrons: 380.000000  magneticMoment: [ Abs: 0.00000  Tot: -0.00000 ]
	SubspaceRotationAdjust: set factor to 0.271
ElecMinimize: Iter:   5  F: -4037.021978698896874  |grad|_K:  2.258e-07  alpha:  2.437e-01  linmin: -1.353e-06  t[s]:  14912.52
	FillingsUpdate:  mu: +0.102726990  nElectrons: 380.000000  magneticMoment: [ Abs: 0.00000  Tot: -0.00000 ]
	SubspaceRotationAdjust: set factor to 0.289
ElecMinimize: Iter:   6  F: -4037.021983431794524  |grad|_K:  1.751e-07  alpha:  2.290e-01  linmin: -6.256e-07  t[s]:  14987.55
	FillingsUpdate:  mu: +0.102701653  nElectrons: 380.000000  magneticMoment: [ Abs: 0.00000  Tot: -0.00000 ]
	SubspaceRotationAdjust: set factor to 0.345
ElecMinimize: Iter:   7  F: -4037.021985018157920  |grad|_K:  1.225e-07  alpha:  1.278e-01  linmin: -5.592e-07  t[s]:  15062.44
ElecMinimize: 	Predicted alpha/alphaT>3.000000, increasing alphaT to 3.832654e-01.
	FillingsUpdate:  mu: +0.102597795  nElectrons: 380.000000  magneticMoment: [ Abs: 0.00000  Tot: -0.00000 ]
	SubspaceRotationAdjust: set factor to 0.364
ElecMinimize: Iter:   8  F: -4037.021987586432260  |grad|_K:  1.439e-07  alpha:  4.226e-01  linmin: -6.461e-07  t[s]:  15156.63
	FillingsUpdate:  mu: +0.102616129  nElectrons: 380.000000  magneticMoment: [ Abs: 0.00000  Tot: -0.00000 ]
	SubspaceRotationAdjust: set factor to 0.384
ElecMinimize: Iter:   9  F: -4037.021988627766405  |grad|_K:  8.725e-08  alpha:  1.240e-01  linmin:  4.300e-07  t[s]:  15231.98
	FillingsUpdate:  mu: +0.102711242  nElectrons: 380.000000  magneticMoment: [ Abs: 0.00000  Tot: -0.00000 ]
	SubspaceRotationAdjust: set factor to 0.355
ElecMinimize: Iter:  10  F: -4037.021989214097630  |grad|_K:  7.723e-08  alpha:  1.900e-01  linmin: -3.298e-06  t[s]:  15306.87
	FillingsUpdate:  mu: +0.102716905  nElectrons: 380.000000  magneticMoment: [ Abs: 0.00000  Tot: -0.00000 ]
	SubspaceRotationAdjust: set factor to 0.29
ElecMinimize: Iter:  11  F: -4037.021989531880081  |grad|_K:  6.394e-08  alpha:  1.314e-01  linmin: -9.512e-06  t[s]:  15381.78
	FillingsUpdate:  mu: +0.102662492  nElectrons: 380.000000  magneticMoment: [ Abs: 0.00000  Tot: -0.00000 ]
	SubspaceRotationAdjust: set factor to 0.223
ElecMinimize: Iter:  12  F: -4037.021989817867052  |grad|_K:  5.359e-08  alpha:  1.729e-01  linmin:  8.154e-06  t[s]:  15456.59
	FillingsUpdate:  mu: +0.102640769  nElectrons: 380.000000  magneticMoment: [ Abs: 0.00000  Tot: -0.00000 ]
	SubspaceRotationAdjust: set factor to 0.267
ElecMinimize: Iter:  13  F: -4037.021989978050442  |grad|_K:  2.811e-08  alpha:  1.380e-01  linmin:  3.068e-05  t[s]:  15531.81
	FillingsUpdate:  mu: +0.102650002  nElectrons: 380.000000  magneticMoment: [ Abs: 0.00000  Tot: -0.00000 ]
	SubspaceRotationAdjust: set factor to 0.246
ElecMinimize: Iter:  14  F: -4037.021990031265887  |grad|_K:  2.647e-08  alpha:  1.695e-01  linmin:  2.983e-04  t[s]:  15606.75
	FillingsUpdate:  mu: +0.102670252  nElectrons: 380.000000  magneticMoment: [ Abs: 0.00000  Tot: -0.00000 ]
	SubspaceRotationAdjust: set factor to 0.207
ElecMinimize: Iter:  15  F: -4037.021990076877501  |grad|_K:  1.593e-08  alpha:  1.645e-01  linmin:  1.737e-04  t[s]:  15681.94
ElecMinimize: Converged (|Delta F|<1.000000e-07 for 2 iters).
Setting wave functions to eigenvectors of Hamiltonian
Converging empty states (this may take a while): |deigs|: 1.912e-08

Computing DFT-D3 correction:
# coordination-number Cu 6.864 9.098 9.030 9.118 9.127 9.047 9.089 8.325 6.235 4.930 8.325 9.089 9.047 9.127 9.118 9.030 9.097 6.864 4.929 6.236
# diagonal-C6 Cu 175.00 175.00 175.00 175.00 175.00 175.00 175.00 175.00 175.00 175.00 175.00 175.00 175.00 175.00 175.00 175.00 175.00 175.00 175.00 175.00
EvdW_6 =   -0.118566
EvdW_8 =   -0.178323

# Ionic positions in cartesian coordinates:
ion Cu   0.000102656925265   4.271714702663765  18.751180111705111 1
ion Cu   0.000024906039865   8.495973781624288  16.524905839007552 1
ion Cu   0.000037163949743   2.121722513528006  14.392338025970709 1
ion Cu  -0.000042295734510   6.396779125247386  12.266026090409381 1
ion Cu  -0.000005410176892  10.652802776870072  10.123368521981442 1
ion Cu  -0.000023031728326   4.260904162930609   7.984077788770112 1
ion Cu  -0.000034020530153   8.556656885571888   5.845556611313212 1
ion Cu  -0.000061820923163   2.072519063211043   3.640646560630110 1
ion Cu  -0.000086498442083   6.415390947734746   1.612445975327032 1
ion Cu   0.000115478686770  -0.046483560953332  20.651760075293915 1
ion Cu   3.370598876067716   1.125203611071477  17.676628031350241 1
ion Cu   3.370545881779725   5.299306414665620  15.471331907672088 1
ion Cu   3.370534783508095   9.595159953949231  13.333017126492155 1
ion Cu   3.370490059858396   3.203227822654133  11.193487843135639 1
ion Cu   3.370530055774294   7.459041380486676   9.050935327867824 1
ion Cu   3.370477404055169   1.075634242456795   6.924719086239080 1
ion Cu   3.370479300584231   5.360233807881234   4.792154914116355 1
ion Cu   3.370417633741741   9.584595981656305   2.565820487391512 1
ion Cu   3.370435727673926   3.243795553895231   0.665214778331823 1
ion Cu   3.370583148890191   7.440758832854808  19.704245896994692 1

# Forces in Cartesian coordinates:
force Cu  -0.000002981147855  -0.000094641508427  -0.000069304154845 1
force Cu   0.000000646954805  -0.000111066196146   0.000144425567338 1
force Cu   0.000000295873166  -0.000022494871395  -0.000063874181024 1
force Cu   0.000002383589320   0.000008452002371   0.000022543349142 1
force Cu   0.000001586460669  -0.000055420499282   0.000010144698847 1
force Cu   0.000000697367781   0.000011995237078   0.000063134156060 1
force Cu  -0.000000163650361   0.000085840804277   0.000015300921803 1
force Cu  -0.000000934353200   0.000156287343756  -0.000048170560882 1
force Cu  -0.000000984698315   0.000150899026090   0.000076544967331 1
force Cu  -0.000001580803543  -0.000154848406051   0.000103992023015 1
force Cu   0.000003196426977  -0.000158989612111   0.000064425269800 1
force Cu  -0.000000227576481  -0.000087759304478   0.000038881308339 1
force Cu  -0.000001478897193  -0.000018052273068  -0.000021839422455 1
force Cu  -0.000000918498318   0.000051101115502   0.000068530976191 1
force Cu  -0.000000867191262  -0.000000993200021   0.000049714121432 1
force Cu  -0.000000955782623   0.000029389619363   0.000123224868106 1
force Cu  -0.000000609650415   0.000110273888542  -0.000126549537159 1
force Cu   0.000000138946728   0.000092688044058   0.000099155988014 1
force Cu  -0.000000274423528   0.000173013876569  -0.000047714380121 1
force Cu   0.000002058251190  -0.000158381901069  -0.000045106382729 1

# Energy components:
   Eewald =    27526.2819558115952532
       EH =    31220.1792166128070676
     Eloc =   -63541.3161463279466261
      Enl =      732.4637913307929011
     EvdW =       -0.2968893675992827
      Exc =     -388.1149471894793805
 Exc_core =        0.9393597315145258
       KE =      412.8423527273470199
-------------------------------------
     Etot =    -4037.0213066709684426
       TS =        0.0006834059090803
-------------------------------------
        F =    -4037.0219900768775005


Dumping 'jdft.fillings' ... done
Dumping 'jdft.wfns' ... done
Dumping 'jdft.ionpos' ... done
Dumping 'jdft.lattice' ... done
Dumping 'jdft.eigenvals' ... done
Dumping 'jdft.eigStats' ... 
	eMin: -4.039041 at state 0 ( [ +0.000000 +0.000000 +0.000000 ] spin 1 )
	HOMO: +0.101602 at state 40 ( [ -0.111111 +0.000000 +0.000000 ] spin 1 )
	mu  : +0.102670
	LUMO: +0.103120 at state 11 ( [ +0.222222 +0.200000 +0.000000 ] spin 1 )
	eMax: +0.448277 at state 35 ( [ -0.222222 +0.000000 +0.000000 ] spin 1 )
	HOMO-LUMO gap: +0.001518
	Optical gap  : +0.007736 at state 54 ( [ +0.111111 -0.200000 +0.000000 ] spin -1 )
Dumping 'jdft.Ecomponents' ... done
IonicMinimize: Iter:   5  F: -4037.021990076877501  |grad|_K:  7.280e-05  alpha:  1.000e+00  linmin: -3.238e-01  t[s]:  15760.59
IonicMinimize: Converged (|grad|_K<1.000000e-04).

#--- Lowdin population analysis ---
# oxidation-state Cu +0.090 +0.036 +0.076 +0.075 +0.076 +0.075 +0.052 +0.024 +0.114 +0.230 +0.024 +0.053 +0.075 +0.076 +0.075 +0.076 +0.035 +0.090 +0.229 +0.114
# magnetic-moments Cu -0.000 +0.000 +0.000 -0.000 -0.000 +0.000 +0.000 -0.000 -0.000 -0.000 -0.000 +0.000 -0.000 -0.000 +0.000 +0.000 +0.000 -0.000 +0.000 +0.000


Dumping 'jdft.n_up' ... done
Dumping 'jdft.n_dn' ... done
Dumping 'jdft.tau_up' ... done
Dumping 'jdft.tau_dn' ... done
Dumping 'jdft.eigenvals' ... done
Dumping 'jdft.eigStats' ... 
	eMin: -4.039041 at state 0 ( [ +0.000000 +0.000000 +0.000000 ] spin 1 )
	HOMO: +0.101602 at state 40 ( [ -0.111111 +0.000000 +0.000000 ] spin 1 )
	mu  : +0.102670
	LUMO: +0.103120 at state 11 ( [ +0.222222 +0.200000 +0.000000 ] spin 1 )
	eMax: +0.448277 at state 35 ( [ -0.222222 +0.000000 +0.000000 ] spin 1 )
	HOMO-LUMO gap: +0.001518
	Optical gap  : +0.007736 at state 54 ( [ +0.111111 -0.200000 +0.000000 ] spin -1 )
Dumping 'jdft.kPts' ... done
Dumping 'jdft.dosUp' ... done.
Dumping 'jdft.dosDn' ... done.
End date and time: Mon Dec  6 19:27:21 2021  (Duration: 0-4:23:28.90)
Done!
ipcrm: permission denied for id (66814461)
ipcrm: permission denied for id (73565010)
