
*************** JDFTx 1.6.0  ***************

Start date and time: Mon Dec  6 16:43:57 2021
Executable /projects/musgravc/apps/jdftx-1.6.1/build/jdftx with command-line: -i in
Running on hosts (process indices):  shas0620.rc.int.colorado.edu (0-23)
Divided in process groups (process indices):  0 (0)  1 (1)  2 (2)  3 (3)  4 (4)  5 (5)  6 (6)  7 (7)  8 (8)  9 (9)  10 (10)  11 (11)  12 (12)  13 (13)  14 (14)  15 (15)  16 (16)  17 (17)  18 (18)  19 (19)  20 (20)  21 (21)  22 (22)  23 (23)
Resource initialization completed at t[s]:      0.01
Run totals: 24 processes, 24 threads, 0 GPUs


Input parsed successfully to the following command list (including defaults):

basis kpoint-dependent
converge-empty-states yes
coords-type Cartesian
core-overlap-check none
coulomb-interaction Periodic
davidson-band-ratio 1.1
density-of-states Etol 1.000000e-06 Esigma 1.000000e-03 \
		Complete \
	Total \
	OrthoOrbital Pt 1   s \
	OrthoOrbital Pt 1   p \
	OrthoOrbital Pt 1   px \
	OrthoOrbital Pt 1   py \
	OrthoOrbital Pt 1   pz \
	OrthoOrbital Pt 1   d \
	OrthoOrbital Pt 1   dxy \
	OrthoOrbital Pt 1   dyz \
	OrthoOrbital Pt 1   dz2 \
	OrthoOrbital Pt 1   dxz \
	OrthoOrbital Pt 1   dx2-y2 \
	OrthoOrbital Pt 2   s \
	OrthoOrbital Pt 2   p \
	OrthoOrbital Pt 2   px \
	OrthoOrbital Pt 2   py \
	OrthoOrbital Pt 2   pz \
	OrthoOrbital Pt 2   d \
	OrthoOrbital Pt 2   dxy \
	OrthoOrbital Pt 2   dyz \
	OrthoOrbital Pt 2   dz2 \
	OrthoOrbital Pt 2   dxz \
	OrthoOrbital Pt 2   dx2-y2 \
	OrthoOrbital Pt 3   s \
	OrthoOrbital Pt 3   p \
	OrthoOrbital Pt 3   px \
	OrthoOrbital Pt 3   py \
	OrthoOrbital Pt 3   pz \
	OrthoOrbital Pt 3   d \
	OrthoOrbital Pt 3   dxy \
	OrthoOrbital Pt 3   dyz \
	OrthoOrbital Pt 3   dz2 \
	OrthoOrbital Pt 3   dxz \
	OrthoOrbital Pt 3   dx2-y2 \
	OrthoOrbital Pt 4   s \
	OrthoOrbital Pt 4   p \
	OrthoOrbital Pt 4   px \
	OrthoOrbital Pt 4   py \
	OrthoOrbital Pt 4   pz \
	OrthoOrbital Pt 4   d \
	OrthoOrbital Pt 4   dxy \
	OrthoOrbital Pt 4   dyz \
	OrthoOrbital Pt 4   dz2 \
	OrthoOrbital Pt 4   dxz \
	OrthoOrbital Pt 4   dx2-y2 \
	OrthoOrbital Pt 5   s \
	OrthoOrbital Pt 5   p \
	OrthoOrbital Pt 5   px \
	OrthoOrbital Pt 5   py \
	OrthoOrbital Pt 5   pz \
	OrthoOrbital Pt 5   d \
	OrthoOrbital Pt 5   dxy \
	OrthoOrbital Pt 5   dyz \
	OrthoOrbital Pt 5   dz2 \
	OrthoOrbital Pt 5   dxz \
	OrthoOrbital Pt 5   dx2-y2 \
	OrthoOrbital Pt 6   s \
	OrthoOrbital Pt 6   p \
	OrthoOrbital Pt 6   px \
	OrthoOrbital Pt 6   py \
	OrthoOrbital Pt 6   pz \
	OrthoOrbital Pt 6   d \
	OrthoOrbital Pt 6   dxy \
	OrthoOrbital Pt 6   dyz \
	OrthoOrbital Pt 6   dz2 \
	OrthoOrbital Pt 6   dxz \
	OrthoOrbital Pt 6   dx2-y2
dump End ElecDensity KEdensity BandEigs EigStats RhoAtom DOS Kpoints
dump Ionic State IonicPositions Lattice EigStats Ecomponents
dump 
dump 
dump 
dump 
dump 
dump 
dump 
dump 
dump-name jdft.$VAR
elec-cutoff 20
elec-eigen-algo Davidson
elec-ex-corr gga-PBE
elec-initial-magnetization 0.000000 no
elec-n-bands 58
elec-smearing Fermi 0.001
electronic-minimize  \
	dirUpdateScheme      FletcherReeves \
	linminMethod         DirUpdateRecommended \
	nIterations          100 \
	history              15 \
	knormThreshold       0 \
	energyDiffThreshold  1e-07 \
	nEnergyDiff          2 \
	alphaTstart          1 \
	alphaTmin            1e-10 \
	updateTestStepSize   yes \
	alphaTreduceFactor   0.1 \
	alphaTincreaseFactor 3 \
	nAlphaAdjustMax      3 \
	wolfeEnergy          0.0001 \
	wolfeGradient        0.9 \
	fdTest               no
exchange-regularization WignerSeitzTruncated
fluid LinearPCM 298.000000 1.013250
fluid-anion F- 0.5 MeanFieldLJ \
	epsBulk 1 \
	pMol 0 \
	epsInf 1 \
	Pvap 0 \
	sigmaBulk 0 \
	Rvdw 2.24877 \
	Res 0 \
	tauNuc 343133
fluid-cation Na+ 0.5 MeanFieldLJ \
	epsBulk 1 \
	pMol 0 \
	epsInf 1 \
	Pvap 0 \
	sigmaBulk 0 \
	Rvdw 2.19208 \
	Res 0 \
	tauNuc 343133
fluid-ex-corr lda-TF lda-PZ
fluid-gummel-loop 10 1.000000e-05
fluid-minimize  \
	dirUpdateScheme      PolakRibiere \
	linminMethod         DirUpdateRecommended \
	nIterations          400 \
	history              15 \
	knormThreshold       1e-11 \
	energyDiffThreshold  0 \
	nEnergyDiff          2 \
	alphaTstart          1 \
	alphaTmin            1e-10 \
	updateTestStepSize   yes \
	alphaTreduceFactor   0.1 \
	alphaTincreaseFactor 3 \
	nAlphaAdjustMax      6 \
	wolfeEnergy          0.0001 \
	wolfeGradient        0.9 \
	fdTest               no
fluid-solvent H2O 55.338 ScalarEOS \
	epsBulk 78.4 \
	pMol 0.92466 \
	epsInf 1.77 \
	Pvap 1.06736e-10 \
	sigmaBulk 4.62e-05 \
	Rvdw 2.61727 \
	Res 1.42 \
	tauNuc 343133 \
	poleEl 15 7 1
forces-output-coords Positions
ion Pt  -0.000002000000000   3.020694999999999   2.135931999999999 1
ion Pt   0.000000000000000   0.000000000000000  10.679786999999999 1
ion Pt   2.616001000000000   1.510345000000000   6.407858999999999 1
ion Pt  -0.000002000000000   3.020694999999999  14.951649999999999 1
ion Pt   0.000000000000000   0.000000000000000  23.495504999999998 1
ion Pt   2.616001000000000   1.510345000000000  19.223576999999999 1
ion-species /projects/musgravc/apps/jdftx-1.6.0/build/pseudopotentials/GBRV_v1.5/$ID_pbe_v1.uspp
ion-species /projects/musgravc/apps/jdftx-1.6.0/build/pseudopotentials/GBRV_v1.5/$ID_pbe_v1.2.uspp
ion-species /projects/musgravc/apps/jdftx-1.6.0/build/pseudopotentials/GBRV_v1.5/$ID_pbe_v1.4.uspp
ion-species /projects/musgravc/apps/jdftx-1.6.0/build/pseudopotentials/GBRV_v1.5/$ID_pbe_v1.5.uspp
ion-width Ecut
ionic-minimize  \
	dirUpdateScheme      L-BFGS \
	linminMethod         DirUpdateRecommended \
	nIterations          100 \
	history              15 \
	knormThreshold       0.0001 \
	energyDiffThreshold  1e-06 \
	nEnergyDiff          2 \
	alphaTstart          1 \
	alphaTmin            1e-10 \
	updateTestStepSize   yes \
	alphaTreduceFactor   0.1 \
	alphaTincreaseFactor 3 \
	nAlphaAdjustMax      3 \
	wolfeEnergy          0.0001 \
	wolfeGradient        0.9 \
	fdTest               no
kpoint   0.000000000000   0.000000000000   0.000000000000  1.00000000000000
kpoint-folding 12 12 1 
latt-move-scale 0 0 0
latt-scale 1 1 1 
lattice  \
	   5.231996000000000   -2.615997000000000    0.000000000000000  \
	   0.000000000000000    4.531040000000000    0.000000000000000  \
	   0.000000000000000    0.000000000000000   64.078591000000003 
lattice-minimize  \
	dirUpdateScheme      L-BFGS \
	linminMethod         DirUpdateRecommended \
	nIterations          0 \
	history              15 \
	knormThreshold       0 \
	energyDiffThreshold  1e-06 \
	nEnergyDiff          2 \
	alphaTstart          1 \
	alphaTmin            1e-10 \
	updateTestStepSize   yes \
	alphaTreduceFactor   0.1 \
	alphaTincreaseFactor 3 \
	nAlphaAdjustMax      3 \
	wolfeEnergy          0.0001 \
	wolfeGradient        0.9 \
	fdTest               no
lcao-params 30 1e-06 0.001
pcm-variant CANDLE
spintype z-spin
subspace-rotation-factor 1 yes
symmetries none
symmetry-threshold 0.0001
target-mu -0.0978 no

van-der-waals D3


Applied RMS atom displacement 0 bohrs to make symmetries exact.

---------- Initializing the Grid ----------
R = 
[        5.232       -2.616            0  ]
[            0      4.53104            0  ]
[            0            0      64.0786  ]
unit cell volume = 1519.07
G =
[    1.20092   0.693349         -0  ]
[          0     1.3867          0  ]
[          0         -0  0.0980544  ]
Minimum fftbox size, Smin = [  24  24  260  ]
Chosen fftbox size, S = [  24  24  270  ]

---------- Exchange Correlation functional ----------
Initalized PBE GGA exchange.
Initalized PBE GGA correlation.

---------- Setting up pseudopotentials ----------
Width of ionic core gaussian charges (only for fluid interactions / plotting) set to 0.397384

Reading pseudopotential file '/projects/musgravc/apps/jdftx-1.6.0/build/pseudopotentials/GBRV_v1.5/pt_pbe_v1.4.uspp':
  Title: Pt.  Created by USPP 7.3.6 on 31-3-15
  Reference state energy: -105.002503.  16 valence electrons in orbitals:
    |510>  occupation: 6  eigenvalue: -2.158104
    |520>  occupation: 9.5  eigenvalue: -0.335376
    |600>  occupation: 0  eigenvalue: -0.319640
    |610>  occupation: 0  eigenvalue: -0.122947
  lMax: 2  lLocal: 3  QijEcut: 5.5
  6 projectors sampled on a log grid with 745 points:
    l: 0  eig: -0.319640  rCut: 2.45
    l: 0  eig: 1.500000  rCut: 2.45
    l: 1  eig: -2.158104  rCut: 1.6
    l: 1  eig: -0.122947  rCut: 1.6
    l: 2  eig: -0.500000  rCut: 1.6
    l: 2  eig: -0.335375  rCut: 1.6
  Partial core density with radius 1.1
  Transforming core density to a uniform radial grid of dG=0.02 with 1591 points.
  Transforming local potential to a uniform radial grid of dG=0.02 with 1591 points.
  Transforming nonlocal projectors to a uniform radial grid of dG=0.02 with 432 points.
  Transforming density augmentations to a uniform radial grid of dG=0.02 with 1591 points.
  Transforming atomic orbitals to a uniform radial grid of dG=0.02 with 432 points.
  Core radius for overlap checks: 2.45 bohrs.

Initialized 1 species with 6 total atoms.

Folded 1 k-points by 12x12x1 to 144 k-points.

---------- Setting up k-points, bands, fillings ----------
No reducable k-points. 
Computing the number of bands and number of electrons
Calculating initial fillings.
nElectrons:  96.000000   nBands: 58   nStates: 288

----- Setting up reduced wavefunction bases (one per k-point) -----
average nbasis = 6489.604 , ideal nbasis = 6489.590

----- Initializing Supercell corresponding to k-point mesh -----
Lattice vector linear combinations in supercell:
[  12   0   0  ]
[   0  12   0  ]
[   0   0   1  ]
Supercell lattice vectors:
[  62.784  -31.392  0  ]
[  0  54.3725  0  ]
[  0  0  64.0786  ]

Initializing DFT-D3 calculator:
	Parameters set for gga-PBE functional
	s6:  1.000  s_r6:  1.217
	s8:  0.722  s_r8:  1.000
	Per-atom parameters loaded for:
	Pt:  sqrtQ[a0]:  5.888  Rcov[a0]:  2.116  CN: [ 0.00 1.92 6.67 ]

Initializing DFT-D2 calculator for fluid / solvation:
	Pt:  C6:  815.23 Eh-a0^6  R0: 3.326 a0 (WARNING: beyond Grimme's data set)

---------- Setting up ewald sum ----------
Optimum gaussian width for ewald sums = 3.402078 bohr.
Real space sum over 1805 unit cells with max indices [  9  9  2  ]
Reciprocal space sum over 4941 terms with max indices [  4  4  30  ]

Computing DFT-D3 correction:
# coordination-number Pt 7.130 9.562 9.550 9.562 7.130 9.550
# diagonal-C6 Pt 336.87 336.87 336.87 336.87 336.87 336.87
EvdW_6 =   -0.053664
EvdW_8 =   -0.085845

---------- Allocating electronic variables ----------
Initializing wave functions:  linear combination of atomic orbitals
Pt pseudo-atom occupations:   s ( 0 )  p ( 6 0 )  d ( 10 )
	FillingsUpdate:  mu: -0.097800000  nElectrons: 96.000000  magneticMoment: [ Abs: 0.00111  Tot: +0.00032 ]
LCAOMinimize: Iter:   0  G: -522.3432144531818722  |grad|_K:  1.022e-02  alpha:  1.000e+00
LCAOMinimize: 	Step increased G by 4.610360e+01, reducing alpha to 1.606295e-02.
	FillingsUpdate:  mu: -0.097800000  nElectrons: 96.000000  magneticMoment: [ Abs: 0.00094  Tot: -0.00009 ]
LCAOMinimize: Iter:   1  G: -523.7282305336898389  |grad|_K:  2.229e-03  alpha:  1.606e-02  linmin: -4.598e-02  cgtest:  2.358e-01  t[s]:     32.50
LCAOMinimize: Encountered beta<0, resetting CG.
LCAOMinimize: 	Predicted alpha/alphaT>3.000000, increasing alphaT to 4.818884e-02.
	FillingsUpdate:  mu: -0.097800000  nElectrons: 96.000000  magneticMoment: [ Abs: 0.00082  Tot: +0.00020 ]
LCAOMinimize: Iter:   2  G: -524.0380770964915200  |grad|_K:  1.293e-03  alpha:  8.276e-02  linmin:  2.500e-03  cgtest:  3.979e-02  t[s]:     45.60
	FillingsUpdate:  mu: -0.097800000  nElectrons: 96.000000  magneticMoment: [ Abs: 0.00062  Tot: -0.00005 ]
LCAOMinimize: Iter:   3  G: -524.2487172615344662  |grad|_K:  2.951e-03  alpha:  1.536e-01  linmin: -5.072e-03  cgtest: -5.120e-03  t[s]:     55.72
LCAOMinimize: 	Step increased G by 1.873475e-01, reducing alpha to 1.800576e-03.
	FillingsUpdate:  mu: -0.097800000  nElectrons: 96.000000  magneticMoment: [ Abs: 0.00061  Tot: -0.00019 ]
LCAOMinimize: Iter:   4  G: -524.2715450054497524  |grad|_K:  1.884e-03  alpha:  1.801e-03  linmin: -4.779e-02  cgtest:  9.930e-01  t[s]:     73.53
LCAOMinimize: Encountered beta<0, resetting CG.
	FillingsUpdate:  mu: -0.097800000  nElectrons: 96.000000  magneticMoment: [ Abs: 0.00061  Tot: -0.00020 ]
LCAOMinimize: Iter:   5  G: -524.2833905545616062  |grad|_K:  4.265e-04  alpha:  4.366e-03  linmin:  7.919e-03  cgtest: -4.610e-02  t[s]:     83.67
LCAOMinimize: 	Predicted alpha/alphaT>3.000000, increasing alphaT to 1.309670e-02.
LCAOMinimize: 	Predicted alpha/alphaT>3.000000, increasing alphaT to 3.929011e-02.
	FillingsUpdate:  mu: -0.097800000  nElectrons: 96.000000  magneticMoment: [ Abs: 0.00056  Tot: +0.00001 ]
LCAOMinimize: Iter:   6  G: -524.2945099969488183  |grad|_K:  8.074e-04  alpha:  7.643e-02  linmin: -4.427e-03  cgtest:  9.793e-02  t[s]:     99.47
	FillingsUpdate:  mu: -0.097800000  nElectrons: 96.000000  magneticMoment: [ Abs: 0.00050  Tot: +0.00001 ]
LCAOMinimize: Iter:   7  G: -524.3239055063650085  |grad|_K:  1.950e-03  alpha:  5.427e-02  linmin: -3.786e-05  cgtest: -1.524e-01  t[s]:    109.65
	FillingsUpdate:  mu: -0.097800000  nElectrons: 96.000000  magneticMoment: [ Abs: 0.00045  Tot: +0.00001 ]
LCAOMinimize: Iter:   8  G: -524.3432329340084834  |grad|_K:  7.085e-04  alpha:  7.464e-03  linmin:  5.603e-03  cgtest: -4.179e-02  t[s]:    119.82
	FillingsUpdate:  mu: -0.097800000  nElectrons: 96.000000  magneticMoment: [ Abs: 0.00043  Tot: -0.00002 ]
LCAOMinimize: Iter:   9  G: -524.3491708450671922  |grad|_K:  6.589e-04  alpha:  1.797e-02  linmin:  8.870e-04  cgtest:  2.172e-01  t[s]:    130.25
	FillingsUpdate:  mu: -0.097800000  nElectrons: 96.000000  magneticMoment: [ Abs: 0.00042  Tot: -0.00002 ]
LCAOMinimize: Iter:  10  G: -524.3506285591481628  |grad|_K:  1.675e-04  alpha:  4.208e-03  linmin: -1.326e-02  cgtest:  2.158e-01  t[s]:    140.47
LCAOMinimize: 	Predicted alpha/alphaT>3.000000, increasing alphaT to 1.262462e-02.
LCAOMinimize: 	Predicted alpha/alphaT>3.000000, increasing alphaT to 3.787386e-02.
	FillingsUpdate:  mu: -0.097800000  nElectrons: 96.000000  magneticMoment: [ Abs: 0.00043  Tot: -0.00001 ]
LCAOMinimize: Iter:  11  G: -524.3517033184223237  |grad|_K:  1.286e-04  alpha:  4.947e-02  linmin: -6.629e-04  cgtest: -2.257e-02  t[s]:    156.02
	FillingsUpdate:  mu: -0.097800000  nElectrons: 96.000000  magneticMoment: [ Abs: 0.00043  Tot: -0.00001 ]
LCAOMinimize: Iter:  12  G: -524.3519013157323343  |grad|_K:  1.113e-04  alpha:  1.568e-02  linmin: -3.105e-03  cgtest:  3.652e-02  t[s]:    166.18
	FillingsUpdate:  mu: -0.097800000  nElectrons: 96.000000  magneticMoment: [ Abs: 0.00043  Tot: -0.00000 ]
LCAOMinimize: Iter:  13  G: -524.3519546355319108  |grad|_K:  5.287e-05  alpha:  5.626e-03  linmin: -5.345e-03  cgtest: -1.202e-02  t[s]:    176.35
LCAOMinimize: 	Predicted alpha/alphaT>3.000000, increasing alphaT to 1.687664e-02.
LCAOMinimize: 	Predicted alpha/alphaT>3.000000, increasing alphaT to 5.062991e-02.
	FillingsUpdate:  mu: -0.097800000  nElectrons: 96.000000  magneticMoment: [ Abs: 0.00044  Tot: +0.00001 ]
LCAOMinimize: Iter:  14  G: -524.3522880200758891  |grad|_K:  5.809e-05  alpha:  1.379e-01  linmin: -1.250e-02  cgtest:  1.399e-01  t[s]:    193.14
	FillingsUpdate:  mu: -0.097800000  nElectrons: 96.000000  magneticMoment: [ Abs: 0.00044  Tot: +0.00002 ]
LCAOMinimize: Iter:  15  G: -524.3523158367024735  |grad|_K:  5.959e-05  alpha:  9.838e-03  linmin:  2.014e-03  cgtest: -1.805e-01  t[s]:    203.32
	FillingsUpdate:  mu: -0.097800000  nElectrons: 96.000000  magneticMoment: [ Abs: 0.00044  Tot: +0.00002 ]
LCAOMinimize: Iter:  16  G: -524.3523403810078207  |grad|_K:  3.471e-05  alpha:  9.373e-03  linmin: -7.859e-04  cgtest:  5.013e-01  t[s]:    213.54
	FillingsUpdate:  mu: -0.097800000  nElectrons: 96.000000  magneticMoment: [ Abs: 0.00044  Tot: +0.00002 ]
LCAOMinimize: Iter:  17  G: -524.3523470680891023  |grad|_K:  2.731e-05  alpha:  7.398e-03  linmin: -1.649e-02  cgtest:  1.108e-01  t[s]:    223.90
	FillingsUpdate:  mu: -0.097800000  nElectrons: 96.000000  magneticMoment: [ Abs: 0.00044  Tot: +0.00002 ]
LCAOMinimize: Iter:  18  G: -524.3523519111478208  |grad|_K:  9.341e-06  alpha:  7.790e-03  linmin: -9.857e-02  cgtest:  2.715e-01  t[s]:    234.08
LCAOMinimize: 	Predicted alpha/alphaT>3.000000, increasing alphaT to 2.336875e-02.
	FillingsUpdate:  mu: -0.097800000  nElectrons: 96.000000  magneticMoment: [ Abs: 0.00044  Tot: +0.00002 ]
LCAOMinimize: Iter:  19  G: -524.3523554844025512  |grad|_K:  1.178e-05  alpha:  4.454e-02  linmin: -2.449e-02  cgtest:  2.197e-01  t[s]:    247.01
	FillingsUpdate:  mu: -0.097800000  nElectrons: 96.000000  magneticMoment: [ Abs: 0.00044  Tot: +0.00002 ]
LCAOMinimize: Iter:  20  G: -524.3523563067608393  |grad|_K:  9.994e-06  alpha:  7.349e-03  linmin: -3.195e-03  cgtest: -3.219e-01  t[s]:    257.14
	FillingsUpdate:  mu: -0.097800000  nElectrons: 96.000000  magneticMoment: [ Abs: 0.00044  Tot: +0.00002 ]
LCAOMinimize: Iter:  21  G: -524.3523575011547564  |grad|_K:  1.275e-05  alpha:  1.145e-02  linmin: -2.351e-02  cgtest:  9.788e-01  t[s]:    267.32
	FillingsUpdate:  mu: -0.097800000  nElectrons: 96.000000  magneticMoment: [ Abs: 0.00044  Tot: +0.00002 ]
LCAOMinimize: Iter:  22  G: -524.3523582661781575  |grad|_K:  8.314e-06  alpha:  5.678e-03  linmin: -1.384e-02  cgtest: -1.773e-01  t[s]:    277.67
	FillingsUpdate:  mu: -0.097800000  nElectrons: 96.000000  magneticMoment: [ Abs: 0.00044  Tot: +0.00002 ]
LCAOMinimize: Iter:  23  G: -524.3523592376286615  |grad|_K:  8.211e-06  alpha:  1.120e-02  linmin: -5.504e-02  cgtest:  9.824e-01  t[s]:    287.81
LCAOMinimize: Converged (|Delta G|<1.000000e-06 for 2 iters).
----- createFluidSolver() ----- (Fluid-side solver setup)
   Initializing fluid molecule 'H2O'
     Initializing site 'O'
       Electron density: proportional to exp(-r/0.36935)*erfc((r-0.51523)/0.36823) with norm 6.826
       Charge density: gaussian nuclear width 0.478731 with net site charge 0.826
       Polarizability: cuspless exponential with width 0.32 and norm 3.73
       Hard sphere radius: 2.57003 bohrs
       Positions in reference frame:
         [ +0.000000 +0.000000 +0.000000 ]
     Initializing site 'H'
       Electron density: proportional to exp(-r/0.34641)*erfc((r-0)/0.390882) with norm 0.587
       Charge density: gaussian nuclear width 0.377945 with net site charge -0.413
       Polarizability: cuspless exponential with width 0.39 and norm 3.3
       Positions in reference frame:
         [ +0.000000 -1.441945 +1.122523 ]
         [ +0.000000 +1.441945 +1.122523 ]
     Net charge: 0   dipole magnitude: 0.927204
     Initializing spherical shell mfKernel with radius 2.61727 Bohr
     deltaS corrections:
       site 'O': -7.54299
       site 'H': -6.83917
   Initializing fluid molecule 'Na+'
     Initializing site 'Na'
       Electron density: proportional to exp(-r/0.19682)*erfc((r-0.71491)/0.41314) with norm 8.1383
       Charge density: gaussian nuclear width 0.365347 with net site charge -1
       Hard sphere radius: 1.86327 bohrs
       Positions in reference frame:
         [ +0.000000 +0.000000 +0.000000 ]
     Net charge: -1   dipole magnitude: 0
     Initializing gaussian mfKernel with width: 1.55004 Bohr
     deltaS corrections:
       site 'Na': -22.3555
   Initializing fluid molecule 'F-'
     Initializing site 'F'
       Electron density: proportional to exp(-r/0.38886)*erfc((r-0)/0.438782) with norm 8
       Charge density: gaussian nuclear width 0.374796 with net site charge 1
       Hard sphere radius: 2.39995 bohrs
       Positions in reference frame:
         [ +0.000000 +0.000000 +0.000000 ]
     Net charge: 1   dipole magnitude: 0
     Initializing gaussian mfKernel with width: 1.59012 Bohr
     deltaS corrections:
       site 'F': -9.04335

Correction to mu due to finite nuclear width = -0.0627036
   Cavity determined by nc: 0.00142 and sigma: 0.707107
   Nonlocal vdW cavity from gaussian model electron density with norm = 8 and sigma = 0.993594 bohr
   Charge asymmetry in cavity with sensitivity pCavity = 36.5 e-bohr/Eh
   Electrostatic cavity expanded by eta = 1.46 bohrs
   Weighted density cavitation model constrained by Nbulk: 0.0049383 bohr^-3, Pvap: 3.14029 kPa, Rvdw: 2.61727 bohr and sigmaBulk: 4.62e-05 Eh/bohr^2 at T: 298 K.
   Weighted density dispersion model using vdW pair potentials with single solvent site with sqrtC6eff: 0.77 SI.


---- Citations for features of the code used in this run ----

   Software package:
      R. Sundararaman, K. Letchworth-Weaver, K.A. Schwarz, D. Gunceler, Y. Ozhabes and T.A. Arias, 'JDFTx: software for joint density-functional theory', SoftwareX 6, 278 (2017)

   gga-PBE exchange-correlation functional:
      J.P. Perdew, K. Burke and M. Ernzerhof, Phys. Rev. Lett. 77, 3865 (1996)

   Pseudopotentials:
      KF Garrity, JW Bennett, KM Rabe and D Vanderbilt, Comput. Mater. Sci. 81, 446 (2014)

   DFT-D3 dispersion correction:
      S. Grimme, J. Antony, S. Ehrlich and H. Krieg, J. Chem. Phys. 132, 154104 (2010)

   DFT-D2 dispersion correction:
      S. Grimme, J. Comput. Chem. 27, 1787 (2006)

   Charge-asymmetric nonlocally-determined local-electric (CANDLE) solvation model:
      R. Sundararaman and W.A. Goddard III, J. Chem. Phys. 142, 064107 (2015)

   Total energy minimization with Auxiliary Hamiltonian:
      C. Freysoldt, S. Boeck, and J. Neugebauer, Phys. Rev. B 79, 241103(R) (2009)

   Grand-canonical (fixed-potential) DFT:
      R. Sundararaman, W. A. Goddard III and T. A. Arias, J. Chem. Phys. 146, 114104 (2017)

   Linear-tetrahedron sampling for density of states:
      G. Lehmann and M. Taut, Phys. status solidi (b) 54, 469 (1972)

This list may not be complete. Please suggest additional citations or
report any other bugs at https://github.com/shankar1729/jdftx/issues

Initialization completed successfully at t[s]:    291.55


Computing DFT-D3 correction:
# coordination-number Pt 7.130 9.562 9.550 9.562 7.130 9.550
# diagonal-C6 Pt 336.87 336.87 336.87 336.87 336.87 336.87
EvdW_6 =   -0.053664
EvdW_8 =   -0.085845
Fluid solver invoked on fresh (random / LCAO) wavefunctions
Running a vacuum solve first:

-------- Initial electronic minimization -----------
	FillingsUpdate:  mu: +0.192154363  nElectrons: 96.000000  magneticMoment: [ Abs: 0.00044  Tot: +0.00002 ]
ElecMinimize: Iter:   0  G: -524.353462748355582  |grad|_K:  3.736e-05  alpha:  1.000e+00
	FillingsUpdate:  mu: +0.246680546  nElectrons: 96.000000  magneticMoment: [ Abs: 0.00035  Tot: +0.00004 ]
	SubspaceRotationAdjust: set factor to 0.545
ElecMinimize: Iter:   1  G: -524.418125768904360  |grad|_K:  6.380e-05  alpha:  4.271e-01  linmin:  2.481e-05  t[s]:    311.60
	FillingsUpdate:  mu: +0.250892801  nElectrons: 96.000000  magneticMoment: [ Abs: 0.00035  Tot: +0.00004 ]
	SubspaceRotationAdjust: set factor to 0.243
ElecMinimize: Iter:   2  G: -524.418309643850080  |grad|_K:  5.484e-05  alpha:  8.018e-03  linmin:  7.351e-03  t[s]:    323.59
	FillingsUpdate:  mu: +0.258248195  nElectrons: 96.000000  magneticMoment: [ Abs: 0.00034  Tot: +0.00004 ]
	SubspaceRotationAdjust: set factor to 0.148
ElecMinimize: Iter:   3  G: -524.418474695861278  |grad|_K:  4.486e-05  alpha:  8.435e-03  linmin: -5.266e-07  t[s]:    335.81
	FillingsUpdate:  mu: +0.223523151  nElectrons: 96.000000  magneticMoment: [ Abs: 0.00034  Tot: +0.00005 ]
	SubspaceRotationAdjust: set factor to 0.0677
	SubspaceRotationAdjust: resetting CG because factor has changed by 0.0677264
ElecMinimize: 	State modified externally: resetting search direction.
ElecMinimize: Iter:   4  G: -524.423943307789727  |grad|_K:  1.915e-05  alpha:  2.476e-02
ElecMinimize: 	Predicted alpha/alphaT>3.000000, increasing alphaT to 7.427054e-02.
	FillingsUpdate:  mu: +0.244343090  nElectrons: 96.000000  magneticMoment: [ Abs: 0.00031  Tot: +0.00005 ]
	SubspaceRotationAdjust: set factor to 0.0449
ElecMinimize: Iter:   5  G: -524.430791013836597  |grad|_K:  2.014e-05  alpha:  1.718e-01  linmin:  4.532e-04  t[s]:    370.01
	FillingsUpdate:  mu: +0.216232337  nElectrons: 96.000000  magneticMoment: [ Abs: 0.00028  Tot: +0.00005 ]
	SubspaceRotationAdjust: set factor to 0.031
ElecMinimize: Iter:   6  G: -524.435441125014108  |grad|_K:  7.866e-06  alpha:  1.056e-01  linmin: -2.503e-05  t[s]:    381.99
ElecMinimize: 	Predicted alpha/alphaT>3.000000, increasing alphaT to 3.168378e-01.
	FillingsUpdate:  mu: +0.217549341  nElectrons: 96.000000  magneticMoment: [ Abs: 0.00023  Tot: +0.00006 ]
	SubspaceRotationAdjust: set factor to 0.0354
ElecMinimize: Iter:   7  G: -524.439132561824977  |grad|_K:  6.340e-06  alpha:  5.479e-01  linmin:  5.260e-06  t[s]:    397.20
	FillingsUpdate:  mu: +0.217002744  nElectrons: 96.000000  magneticMoment: [ Abs: 0.00021  Tot: +0.00006 ]
	SubspaceRotationAdjust: set factor to 0.0232
ElecMinimize: Iter:   8  G: -524.440052581411464  |grad|_K:  4.631e-06  alpha:  2.104e-01  linmin:  2.171e-05  t[s]:    409.18
	FillingsUpdate:  mu: +0.215842645  nElectrons: 96.000000  magneticMoment: [ Abs: 0.00020  Tot: +0.00006 ]
	SubspaceRotationAdjust: set factor to 0.019
ElecMinimize: Iter:   9  G: -524.440558946248416  |grad|_K:  1.929e-06  alpha:  2.169e-01  linmin:  5.465e-06  t[s]:    421.18
ElecMinimize: 	Predicted alpha/alphaT>3.000000, increasing alphaT to 6.507619e-01.
	FillingsUpdate:  mu: +0.213934090  nElectrons: 96.000000  magneticMoment: [ Abs: 0.00020  Tot: +0.00006 ]
	SubspaceRotationAdjust: set factor to 0.0231
ElecMinimize: Iter:  10  G: -524.440840222715565  |grad|_K:  1.573e-06  alpha:  6.945e-01  linmin:  1.688e-05  t[s]:    436.48
	FillingsUpdate:  mu: +0.214253874  nElectrons: 96.000000  magneticMoment: [ Abs: 0.00020  Tot: +0.00006 ]
	SubspaceRotationAdjust: set factor to 0.0214
ElecMinimize: Iter:  11  G: -524.440962833246999  |grad|_K:  1.300e-06  alpha:  4.555e-01  linmin: -6.742e-07  t[s]:    448.47
	FillingsUpdate:  mu: +0.213962717  nElectrons: 96.000000  magneticMoment: [ Abs: 0.00020  Tot: +0.00006 ]
	SubspaceRotationAdjust: set factor to 0.0189
ElecMinimize: Iter:  12  G: -524.441025967245537  |grad|_K:  1.154e-06  alpha:  3.433e-01  linmin: -1.682e-07  t[s]:    460.67
	FillingsUpdate:  mu: +0.212615632  nElectrons: 96.000000  magneticMoment: [ Abs: 0.00020  Tot: +0.00006 ]
	SubspaceRotationAdjust: set factor to 0.021
ElecMinimize: Iter:  13  G: -524.441127906830729  |grad|_K:  1.272e-06  alpha:  7.035e-01  linmin:  1.816e-05  t[s]:    472.67
	FillingsUpdate:  mu: +0.211897893  nElectrons: 96.000000  magneticMoment: [ Abs: 0.00021  Tot: +0.00006 ]
	SubspaceRotationAdjust: set factor to 0.0236
ElecMinimize: Iter:  14  G: -524.441268309380348  |grad|_K:  1.364e-06  alpha:  7.988e-01  linmin:  1.441e-05  t[s]:    485.95
	FillingsUpdate:  mu: +0.210746798  nElectrons: 96.000000  magneticMoment: [ Abs: 0.00022  Tot: +0.00005 ]
	SubspaceRotationAdjust: set factor to 0.0219
ElecMinimize: Iter:  15  G: -524.441395549174104  |grad|_K:  1.733e-06  alpha:  6.299e-01  linmin:  1.216e-07  t[s]:    498.31
	FillingsUpdate:  mu: +0.208836331  nElectrons: 96.000000  magneticMoment: [ Abs: 0.00021  Tot: +0.00005 ]
	SubspaceRotationAdjust: set factor to 0.0172
ElecMinimize: Iter:  16  G: -524.441541052904313  |grad|_K:  1.786e-06  alpha:  4.458e-01  linmin: -4.352e-06  t[s]:    510.30
	FillingsUpdate:  mu: +0.206857869  nElectrons: 96.000000  magneticMoment: [ Abs: 0.00020  Tot: +0.00006 ]
	SubspaceRotationAdjust: set factor to 0.0177
ElecMinimize: Iter:  17  G: -524.441725671644122  |grad|_K:  1.349e-06  alpha:  5.299e-01  linmin: -3.625e-05  t[s]:    522.67
	FillingsUpdate:  mu: +0.205571692  nElectrons: 96.000000  magneticMoment: [ Abs: 0.00018  Tot: +0.00008 ]
	SubspaceRotationAdjust: set factor to 0.0178
ElecMinimize: Iter:  18  G: -524.441838017750797  |grad|_K:  1.111e-06  alpha:  5.618e-01  linmin: -8.992e-06  t[s]:    534.68
	FillingsUpdate:  mu: +0.205277971  nElectrons: 96.000000  magneticMoment: [ Abs: 0.00016  Tot: +0.00010 ]
	SubspaceRotationAdjust: set factor to 0.0144
ElecMinimize: Iter:  19  G: -524.441902339909007  |grad|_K:  9.440e-07  alpha:  4.773e-01  linmin: -9.120e-07  t[s]:    546.84
	FillingsUpdate:  mu: +0.205138770  nElectrons: 96.000000  magneticMoment: [ Abs: 0.00016  Tot: +0.00011 ]
	SubspaceRotationAdjust: set factor to 0.0119
ElecMinimize: Iter:  20  G: -524.441936087395788  |grad|_K:  5.418e-07  alpha:  3.477e-01  linmin: -8.006e-07  t[s]:    558.82
	FillingsUpdate:  mu: +0.205025856  nElectrons: 96.000000  magneticMoment: [ Abs: 0.00015  Tot: +0.00011 ]
	SubspaceRotationAdjust: set factor to 0.0133
ElecMinimize: Iter:  21  G: -524.441952552520434  |grad|_K:  4.039e-07  alpha:  5.152e-01  linmin:  2.475e-06  t[s]:    570.77
	FillingsUpdate:  mu: +0.204918943  nElectrons: 96.000000  magneticMoment: [ Abs: 0.00015  Tot: +0.00011 ]
	SubspaceRotationAdjust: set factor to 0.0126
ElecMinimize: Iter:  22  G: -524.441961540327270  |grad|_K:  3.028e-07  alpha:  5.060e-01  linmin: -8.870e-08  t[s]:    582.92
	FillingsUpdate:  mu: +0.204974580  nElectrons: 96.000000  magneticMoment: [ Abs: 0.00015  Tot: +0.00012 ]
	SubspaceRotationAdjust: set factor to 0.0126
ElecMinimize: Iter:  23  G: -524.441965891327982  |grad|_K:  2.082e-07  alpha:  4.357e-01  linmin: -1.090e-06  t[s]:    594.89
	FillingsUpdate:  mu: +0.205028692  nElectrons: 96.000000  magneticMoment: [ Abs: 0.00015  Tot: +0.00012 ]
	SubspaceRotationAdjust: set factor to 0.0149
ElecMinimize: Iter:  24  G: -524.441968579989748  |grad|_K:  1.837e-07  alpha:  5.698e-01  linmin: -1.436e-06  t[s]:    607.05
	FillingsUpdate:  mu: +0.205078477  nElectrons: 96.000000  magneticMoment: [ Abs: 0.00015  Tot: +0.00012 ]
	SubspaceRotationAdjust: set factor to 0.0173
ElecMinimize: Iter:  25  G: -524.441970868819908  |grad|_K:  1.703e-07  alpha:  6.230e-01  linmin: -1.616e-06  t[s]:    619.08
	FillingsUpdate:  mu: +0.205181753  nElectrons: 96.000000  magneticMoment: [ Abs: 0.00015  Tot: +0.00012 ]
	SubspaceRotationAdjust: set factor to 0.0182
ElecMinimize: Iter:  26  G: -524.441972761169723  |grad|_K:  1.873e-07  alpha:  5.991e-01  linmin: -4.541e-07  t[s]:    631.12
	FillingsUpdate:  mu: +0.205296028  nElectrons: 96.000000  magneticMoment: [ Abs: 0.00015  Tot: +0.00012 ]
	SubspaceRotationAdjust: set factor to 0.0183
ElecMinimize: Iter:  27  G: -524.441975364868426  |grad|_K:  2.193e-07  alpha:  6.814e-01  linmin: -1.123e-06  t[s]:    643.38
	FillingsUpdate:  mu: +0.205399447  nElectrons: 96.000000  magneticMoment: [ Abs: 0.00015  Tot: +0.00011 ]
	SubspaceRotationAdjust: set factor to 0.0196
ElecMinimize: Iter:  28  G: -524.441979347290840  |grad|_K:  2.358e-07  alpha:  7.594e-01  linmin: -1.874e-06  t[s]:    655.37
	FillingsUpdate:  mu: +0.205650937  nElectrons: 96.000000  magneticMoment: [ Abs: 0.00015  Tot: +0.00011 ]
	SubspaceRotationAdjust: set factor to 0.0208
ElecMinimize: Iter:  29  G: -524.441984294964868  |grad|_K:  2.700e-07  alpha:  8.161e-01  linmin:  3.654e-07  t[s]:    667.57
	FillingsUpdate:  mu: +0.205862803  nElectrons: 96.000000  magneticMoment: [ Abs: 0.00013  Tot: +0.00010 ]
	SubspaceRotationAdjust: set factor to 0.0208
ElecMinimize: Iter:  30  G: -524.441990111909035  |grad|_K:  2.868e-07  alpha:  7.331e-01  linmin:  1.780e-06  t[s]:    679.57
	FillingsUpdate:  mu: +0.205993635  nElectrons: 96.000000  magneticMoment: [ Abs: 0.00012  Tot: +0.00010 ]
	SubspaceRotationAdjust: set factor to 0.0174
ElecMinimize: Iter:  31  G: -524.441994152705888  |grad|_K:  2.693e-07  alpha:  4.512e-01  linmin: -5.475e-08  t[s]:    691.54
	FillingsUpdate:  mu: +0.206075379  nElectrons: 96.000000  magneticMoment: [ Abs: 0.00011  Tot: +0.00009 ]
	SubspaceRotationAdjust: set factor to 0.0152
ElecMinimize: Iter:  32  G: -524.441997629242564  |grad|_K:  2.137e-07  alpha:  4.401e-01  linmin:  1.091e-06  t[s]:    703.71
	FillingsUpdate:  mu: +0.206080767  nElectrons: 96.000000  magneticMoment: [ Abs: 0.00009  Tot: +0.00008 ]
	SubspaceRotationAdjust: set factor to 0.0175
ElecMinimize: Iter:  33  G: -524.442000389036139  |grad|_K:  1.691e-07  alpha:  5.554e-01  linmin:  1.037e-06  t[s]:    715.67
	FillingsUpdate:  mu: +0.206061462  nElectrons: 96.000000  magneticMoment: [ Abs: 0.00009  Tot: +0.00008 ]
	SubspaceRotationAdjust: set factor to 0.0189
ElecMinimize: Iter:  34  G: -524.442002081293026  |grad|_K:  1.448e-07  alpha:  5.441e-01  linmin:  8.123e-08  t[s]:    727.76
	FillingsUpdate:  mu: +0.206025286  nElectrons: 96.000000  magneticMoment: [ Abs: 0.00008  Tot: +0.00008 ]
	SubspaceRotationAdjust: set factor to 0.0179
ElecMinimize: Iter:  35  G: -524.442003173605030  |grad|_K:  1.328e-07  alpha:  4.787e-01  linmin: -1.386e-07  t[s]:    739.76
	FillingsUpdate:  mu: +0.205989418  nElectrons: 96.000000  magneticMoment: [ Abs: 0.00008  Tot: +0.00008 ]
	SubspaceRotationAdjust: set factor to 0.0178
ElecMinimize: Iter:  36  G: -524.442004083748884  |grad|_K:  1.083e-07  alpha:  4.736e-01  linmin: -1.163e-07  t[s]:    751.72
	FillingsUpdate:  mu: +0.205970620  nElectrons: 96.000000  magneticMoment: [ Abs: 0.00008  Tot: +0.00007 ]
	SubspaceRotationAdjust: set factor to 0.0208
ElecMinimize: Iter:  37  G: -524.442004813437620  |grad|_K:  9.257e-08  alpha:  5.709e-01  linmin: -3.014e-08  t[s]:    763.88
	FillingsUpdate:  mu: +0.205907837  nElectrons: 96.000000  magneticMoment: [ Abs: 0.00008  Tot: +0.00007 ]
	SubspaceRotationAdjust: set factor to 0.0229
ElecMinimize: Iter:  38  G: -524.442005400106041  |grad|_K:  8.352e-08  alpha:  6.287e-01  linmin:  3.293e-07  t[s]:    775.86
	FillingsUpdate:  mu: +0.205860171  nElectrons: 96.000000  magneticMoment: [ Abs: 0.00008  Tot: +0.00007 ]
	SubspaceRotationAdjust: set factor to 0.0202
ElecMinimize: Iter:  39  G: -524.442005748408292  |grad|_K:  7.889e-08  alpha:  4.587e-01  linmin:  6.138e-08  t[s]:    788.83
	FillingsUpdate:  mu: +0.205843064  nElectrons: 96.000000  magneticMoment: [ Abs: 0.00008  Tot: +0.00007 ]
	SubspaceRotationAdjust: set factor to 0.0164
ElecMinimize: Iter:  40  G: -524.442005990641860  |grad|_K:  5.998e-08  alpha:  3.575e-01  linmin:  4.643e-07  t[s]:    800.82
	FillingsUpdate:  mu: +0.205841855  nElectrons: 96.000000  magneticMoment: [ Abs: 0.00007  Tot: +0.00007 ]
	SubspaceRotationAdjust: set factor to 0.0176
ElecMinimize: Iter:  41  G: -524.442006198192985  |grad|_K:  4.505e-08  alpha:  5.298e-01  linmin: -1.128e-06  t[s]:    812.76
	FillingsUpdate:  mu: +0.205822639  nElectrons: 96.000000  magneticMoment: [ Abs: 0.00007  Tot: +0.00007 ]
	SubspaceRotationAdjust: set factor to 0.0185
ElecMinimize: Iter:  42  G: -524.442006309359044  |grad|_K:  3.379e-08  alpha:  5.026e-01  linmin: -3.726e-07  t[s]:    824.97
	FillingsUpdate:  mu: +0.205825435  nElectrons: 96.000000  magneticMoment: [ Abs: 0.00007  Tot: +0.00007 ]
	SubspaceRotationAdjust: set factor to 0.0166
ElecMinimize: Iter:  43  G: -524.442006366940518  |grad|_K:  2.856e-08  alpha:  4.633e-01  linmin: -3.692e-07  t[s]:    836.91
	FillingsUpdate:  mu: +0.205827565  nElectrons: 96.000000  magneticMoment: [ Abs: 0.00007  Tot: +0.00007 ]
	SubspaceRotationAdjust: set factor to 0.0156
ElecMinimize: Iter:  44  G: -524.442006403709001  |grad|_K:  2.142e-08  alpha:  4.134e-01  linmin: -2.595e-06  t[s]:    849.08
ElecMinimize: Converged (|Delta G|<1.000000e-07 for 2 iters).
Setting wave functions to eigenvectors of Hamiltonian
Converging empty states (this may take a while): |deigs|: 9.539e-04
Vacuum energy after initial minimize, F = -524.442006403709001

Shifting auxilliary hamiltonian by -0.303628 to set nElectrons=96.000000

-------- Electronic minimization -----------
	Linear fluid (dielectric constant: 78.4, screening length: 8.12261 Bohr) occupying 0.477968 of unit cell:	Completed after 23 iterations at t[s]:    882.07
	FillingsUpdate:  mu: -0.097800000  nElectrons: 96.000000  magneticMoment: [ Abs: 0.00006  Tot: +0.00006 ]
ElecMinimize: Iter:   0  G: -524.443306641752883  |grad|_K:  1.709e-05  alpha:  1.000e+00
	Linear fluid (dielectric constant: 78.4, screening length: 8.12261 Bohr) occupying 0.534650 of unit cell:	Completed after 38 iterations at t[s]:    893.39
	Linear fluid (dielectric constant: 78.4, screening length: 8.12261 Bohr) occupying 0.486016 of unit cell:	Completed after 25 iterations at t[s]:    897.69
	FillingsUpdate:  mu: -0.097800000  nElectrons: 96.096397  magneticMoment: [ Abs: 0.00006  Tot: +0.00005 ]
	SubspaceRotationAdjust: set factor to 0.00873
ElecMinimize: Iter:   1  G: -524.445608414595767  |grad|_K:  1.411e-05  alpha:  1.668e-01  linmin:  1.038e-01  t[s]:    903.06
	Linear fluid (dielectric constant: 78.4, screening length: 8.12261 Bohr) occupying 0.488968 of unit cell:	Completed after 21 iterations at t[s]:    907.97
	Linear fluid (dielectric constant: 78.4, screening length: 8.12261 Bohr) occupying 0.494410 of unit cell:	Completed after 23 iterations at t[s]:    912.20
	FillingsUpdate:  mu: -0.097800000  nElectrons: 96.138027  magneticMoment: [ Abs: 0.00006  Tot: +0.00005 ]
	SubspaceRotationAdjust: set factor to 0.00645
ElecMinimize: Iter:   2  G: -524.450703072944862  |grad|_K:  5.806e-06  alpha:  4.612e-01  linmin:  6.991e-03  t[s]:    917.52
	Linear fluid (dielectric constant: 78.4, screening length: 8.12261 Bohr) occupying 0.499792 of unit cell:	Completed after 24 iterations at t[s]:    922.32
	Linear fluid (dielectric constant: 78.4, screening length: 8.12261 Bohr) occupying 0.499708 of unit cell:	Completed after 13 iterations at t[s]:    926.16
	FillingsUpdate:  mu: -0.097800000  nElectrons: 96.163823  magneticMoment: [ Abs: 0.00005  Tot: +0.00005 ]
	SubspaceRotationAdjust: set factor to 0.00663
ElecMinimize: Iter:   3  G: -524.452351612933398  |grad|_K:  4.312e-06  alpha:  4.538e-01  linmin: -6.332e-04  t[s]:    931.51
	Linear fluid (dielectric constant: 78.4, screening length: 8.12261 Bohr) occupying 0.499818 of unit cell:	Completed after 22 iterations at t[s]:    936.53
	Linear fluid (dielectric constant: 78.4, screening length: 8.12261 Bohr) occupying 0.499835 of unit cell:	Completed after 14 iterations at t[s]:    940.52
	FillingsUpdate:  mu: -0.097800000  nElectrons: 96.167733  magneticMoment: [ Abs: 0.00005  Tot: +0.00005 ]
	SubspaceRotationAdjust: set factor to 0.00571
ElecMinimize: Iter:   4  G: -524.453574013335924  |grad|_K:  3.969e-06  alpha:  6.037e-01  linmin:  6.406e-04  t[s]:    945.83
	Linear fluid (dielectric constant: 78.4, screening length: 8.12261 Bohr) occupying 0.506737 of unit cell:	Completed after 23 iterations at t[s]:    950.60
	Linear fluid (dielectric constant: 78.4, screening length: 8.12261 Bohr) occupying 0.508683 of unit cell:	Completed after 23 iterations at t[s]:    954.83
	FillingsUpdate:  mu: -0.097800000  nElectrons: 96.218543  magneticMoment: [ Abs: 0.00005  Tot: +0.00005 ]
	SubspaceRotationAdjust: set factor to 0.00516
ElecMinimize: Iter:   5  G: -524.454958553834786  |grad|_K:  3.584e-06  alpha:  8.045e-01  linmin: -4.308e-03  t[s]:    960.14
	Linear fluid (dielectric constant: 78.4, screening length: 8.12261 Bohr) occupying 0.511550 of unit cell:	Completed after 24 iterations at t[s]:    965.11
	Linear fluid (dielectric constant: 78.4, screening length: 8.12261 Bohr) occupying 0.511069 of unit cell:	Completed after 20 iterations at t[s]:    969.30
	FillingsUpdate:  mu: -0.097800000  nElectrons: 96.237730  magneticMoment: [ Abs: 0.00005  Tot: +0.00005 ]
	SubspaceRotationAdjust: set factor to 0.00521
ElecMinimize: Iter:   6  G: -524.455904155886174  |grad|_K:  3.231e-06  alpha:  6.512e-01  linmin:  3.808e-04  t[s]:    974.60
	Linear fluid (dielectric constant: 78.4, screening length: 8.12261 Bohr) occupying 0.514931 of unit cell:	Completed after 25 iterations at t[s]:    979.45
	Linear fluid (dielectric constant: 78.4, screening length: 8.12261 Bohr) occupying 0.515475 of unit cell:	Completed after 17 iterations at t[s]:    983.46
	FillingsUpdate:  mu: -0.097800000  nElectrons: 96.271404  magneticMoment: [ Abs: 0.00005  Tot: +0.00004 ]
	SubspaceRotationAdjust: set factor to 0.00501
ElecMinimize: Iter:   7  G: -524.456763129349611  |grad|_K:  3.088e-06  alpha:  7.575e-01  linmin: -7.044e-04  t[s]:    988.78
	Linear fluid (dielectric constant: 78.4, screening length: 8.12261 Bohr) occupying 0.516867 of unit cell:	Completed after 23 iterations at t[s]:    993.68
	Linear fluid (dielectric constant: 78.4, screening length: 8.12261 Bohr) occupying 0.517000 of unit cell:	Completed after 16 iterations at t[s]:    997.74
	FillingsUpdate:  mu: -0.097800000  nElectrons: 96.286095  magneticMoment: [ Abs: 0.00005  Tot: +0.00004 ]
	SubspaceRotationAdjust: set factor to 0.00511
ElecMinimize: Iter:   8  G: -524.457644103886651  |grad|_K:  3.373e-06  alpha:  8.411e-01  linmin:  5.586e-04  t[s]:   1003.06
	Linear fluid (dielectric constant: 78.4, screening length: 8.12261 Bohr) occupying 0.519287 of unit cell:	Completed after 25 iterations at t[s]:   1007.90
	Linear fluid (dielectric constant: 78.4, screening length: 8.12261 Bohr) occupying 0.519268 of unit cell:	Completed after 10 iterations at t[s]:   1011.67
	FillingsUpdate:  mu: -0.097800000  nElectrons: 96.307494  magneticMoment: [ Abs: 0.00004  Tot: +0.00004 ]
	SubspaceRotationAdjust: set factor to 0.00527
ElecMinimize: Iter:   9  G: -524.458669962708655  |grad|_K:  3.277e-06  alpha:  8.330e-01  linmin: -1.005e-04  t[s]:   1016.99
	Linear fluid (dielectric constant: 78.4, screening length: 8.12261 Bohr) occupying 0.520081 of unit cell:	Completed after 24 iterations at t[s]:   1021.84
	Linear fluid (dielectric constant: 78.4, screening length: 8.12261 Bohr) occupying 0.519949 of unit cell:	Completed after 16 iterations at t[s]:   1025.98
	FillingsUpdate:  mu: -0.097800000  nElectrons: 96.315172  magneticMoment: [ Abs: 0.00004  Tot: +0.00004 ]
	SubspaceRotationAdjust: set factor to 0.00546
ElecMinimize: Iter:  10  G: -524.459462783366575  |grad|_K:  2.706e-06  alpha:  6.759e-01  linmin:  1.716e-04  t[s]:   1031.37
	Linear fluid (dielectric constant: 78.4, screening length: 8.12261 Bohr) occupying 0.520764 of unit cell:	Completed after 23 iterations at t[s]:   1036.14
	Linear fluid (dielectric constant: 78.4, screening length: 8.12261 Bohr) occupying 0.520725 of unit cell:	Completed after 12 iterations at t[s]:   1039.98
	FillingsUpdate:  mu: -0.097800000  nElectrons: 96.323443  magneticMoment: [ Abs: 0.00004  Tot: +0.00004 ]
	SubspaceRotationAdjust: set factor to 0.00604
ElecMinimize: Iter:  11  G: -524.459972804459312  |grad|_K:  2.175e-06  alpha:  6.410e-01  linmin: -1.703e-04  t[s]:   1045.29
	Linear fluid (dielectric constant: 78.4, screening length: 8.12261 Bohr) occupying 0.520884 of unit cell:	Completed after 22 iterations at t[s]:   1050.01
	Linear fluid (dielectric constant: 78.4, screening length: 8.12261 Bohr) occupying 0.520898 of unit cell:	Completed after 14 iterations at t[s]:   1054.06
	FillingsUpdate:  mu: -0.097800000  nElectrons: 96.326132  magneticMoment: [ Abs: 0.00004  Tot: +0.00004 ]
	SubspaceRotationAdjust: set factor to 0.00694
ElecMinimize: Iter:  12  G: -524.460337788098172  |grad|_K:  2.019e-06  alpha:  7.078e-01  linmin:  4.404e-05  t[s]:   1059.37
	Linear fluid (dielectric constant: 78.4, screening length: 8.12261 Bohr) occupying 0.521340 of unit cell:	Completed after 23 iterations at t[s]:   1064.16
	Linear fluid (dielectric constant: 78.4, screening length: 8.12261 Bohr) occupying 0.521397 of unit cell:	Completed after 14 iterations at t[s]:   1068.05
	FillingsUpdate:  mu: -0.097800000  nElectrons: 96.332735  magneticMoment: [ Abs: 0.00004  Tot: +0.00004 ]
	SubspaceRotationAdjust: set factor to 0.00777
ElecMinimize: Iter:  13  G: -524.460694956483280  |grad|_K:  2.161e-06  alpha:  8.046e-01  linmin: -9.753e-05  t[s]:   1073.36
	Linear fluid (dielectric constant: 78.4, screening length: 8.12261 Bohr) occupying 0.521057 of unit cell:	Completed after 23 iterations at t[s]:   1078.14
	Linear fluid (dielectric constant: 78.4, screening length: 8.12261 Bohr) occupying 0.521053 of unit cell:	Completed after 10 iterations at t[s]:   1082.47
	FillingsUpdate:  mu: -0.097800000  nElectrons: 96.331983  magneticMoment: [ Abs: 0.00004  Tot: +0.00004 ]
	SubspaceRotationAdjust: set factor to 0.00789
ElecMinimize: Iter:  14  G: -524.461108407169604  |grad|_K:  2.533e-06  alpha:  8.121e-01  linmin:  3.166e-06  t[s]:   1088.41
	Linear fluid (dielectric constant: 78.4, screening length: 8.12261 Bohr) occupying 0.522385 of unit cell:	Completed after 26 iterations at t[s]:   1093.29
	Linear fluid (dielectric constant: 78.4, screening length: 8.12261 Bohr) occupying 0.522259 of unit cell:	Completed after 16 iterations at t[s]:   1097.27
	FillingsUpdate:  mu: -0.097800000  nElectrons: 96.349309  magneticMoment: [ Abs: 0.00004  Tot: +0.00004 ]
	SubspaceRotationAdjust: set factor to 0.00699
ElecMinimize: Iter:  15  G: -524.461617320998357  |grad|_K:  2.955e-06  alpha:  7.302e-01  linmin: -2.544e-04  t[s]:   1102.57
	Linear fluid (dielectric constant: 78.4, screening length: 8.12261 Bohr) occupying 0.521975 of unit cell:	Completed after 23 iterations at t[s]:   1107.32
	Linear fluid (dielectric constant: 78.4, screening length: 8.12261 Bohr) occupying 0.521969 of unit cell:	Completed after 13 iterations at t[s]:   1111.22
	FillingsUpdate:  mu: -0.097800000  nElectrons: 96.354002  magneticMoment: [ Abs: 0.00004  Tot: +0.00004 ]
	SubspaceRotationAdjust: set factor to 0.00644
ElecMinimize: Iter:  16  G: -524.462339430200132  |grad|_K:  3.210e-06  alpha:  7.527e-01  linmin: -5.728e-04  t[s]:   1116.72
	Linear fluid (dielectric constant: 78.4, screening length: 8.12261 Bohr) occupying 0.522996 of unit cell:	Completed after 25 iterations at t[s]:   1121.56
	Linear fluid (dielectric constant: 78.4, screening length: 8.12261 Bohr) occupying 0.523323 of unit cell:	Completed after 19 iterations at t[s]:   1125.65
	FillingsUpdate:  mu: -0.097800000  nElectrons: 96.386435  magneticMoment: [ Abs: 0.00004  Tot: +0.00004 ]
	SubspaceRotationAdjust: set factor to 0.00621
ElecMinimize: Iter:  17  G: -524.463397740106871  |grad|_K:  3.941e-06  alpha:  9.357e-01  linmin:  1.165e-03  t[s]:   1130.94
	Linear fluid (dielectric constant: 78.4, screening length: 8.12261 Bohr) occupying 0.524610 of unit cell:	Completed after 26 iterations at t[s]:   1135.84
	Linear fluid (dielectric constant: 78.4, screening length: 8.12261 Bohr) occupying 0.524538 of unit cell:	Completed after 15 iterations at t[s]:   1139.79
	FillingsUpdate:  mu: -0.097800000  nElectrons: 96.433588  magneticMoment: [ Abs: 0.00004  Tot: +0.00004 ]
	SubspaceRotationAdjust: set factor to 0.00652
ElecMinimize: Iter:  18  G: -524.464814097937960  |grad|_K:  3.991e-06  alpha:  8.647e-01  linmin:  1.037e-03  t[s]:   1145.30
	Linear fluid (dielectric constant: 78.4, screening length: 8.12261 Bohr) occupying 0.524730 of unit cell:	Completed after 25 iterations at t[s]:   1150.15
	Linear fluid (dielectric constant: 78.4, screening length: 8.12261 Bohr) occupying 0.524715 of unit cell:	Completed after 23 iterations at t[s]:   1154.42
	FillingsUpdate:  mu: -0.097800000  nElectrons: 96.457955  magneticMoment: [ Abs: 0.00004  Tot: +0.00003 ]
	SubspaceRotationAdjust: set factor to 0.00656
ElecMinimize: Iter:  19  G: -524.465703727850837  |grad|_K:  3.038e-06  alpha:  5.268e-01  linmin: -5.233e-05  t[s]:   1159.74
	Linear fluid (dielectric constant: 78.4, screening length: 8.12261 Bohr) occupying 0.524936 of unit cell:	Completed after 25 iterations at t[s]:   1164.64
	Linear fluid (dielectric constant: 78.4, screening length: 8.12261 Bohr) occupying 0.524937 of unit cell:	Completed after 9 iterations at t[s]:   1168.37
	FillingsUpdate:  mu: -0.097800000  nElectrons: 96.478652  magneticMoment: [ Abs: 0.00004  Tot: +0.00003 ]
	SubspaceRotationAdjust: set factor to 0.00645
ElecMinimize: Iter:  20  G: -524.466238266473169  |grad|_K:  2.579e-06  alpha:  5.310e-01  linmin: -2.780e-04  t[s]:   1173.78
	Linear fluid (dielectric constant: 78.4, screening length: 8.12261 Bohr) occupying 0.524515 of unit cell:	Completed after 23 iterations at t[s]:   1178.64
	Linear fluid (dielectric constant: 78.4, screening length: 8.12261 Bohr) occupying 0.524471 of unit cell:	Completed after 14 iterations at t[s]:   1182.55
	FillingsUpdate:  mu: -0.097800000  nElectrons: 96.484487  magneticMoment: [ Abs: 0.00004  Tot: +0.00003 ]
	SubspaceRotationAdjust: set factor to 0.0067
ElecMinimize: Iter:  21  G: -524.466664086005380  |grad|_K:  2.240e-06  alpha:  5.841e-01  linmin:  3.014e-04  t[s]:   1187.85
	Linear fluid (dielectric constant: 78.4, screening length: 8.12261 Bohr) occupying 0.524240 of unit cell:	Completed after 17 iterations at t[s]:   1192.41
	Linear fluid (dielectric constant: 78.4, screening length: 8.12261 Bohr) occupying 0.524219 of unit cell:	Completed after 11 iterations at t[s]:   1196.21
	FillingsUpdate:  mu: -0.097800000  nElectrons: 96.494813  magneticMoment: [ Abs: 0.00004  Tot: +0.00003 ]
	SubspaceRotationAdjust: set factor to 0.00795
ElecMinimize: Iter:  22  G: -524.467008382161566  |grad|_K:  1.958e-06  alpha:  6.341e-01  linmin: -6.163e-05  t[s]:   1201.54
	Linear fluid (dielectric constant: 78.4, screening length: 8.12261 Bohr) occupying 0.524006 of unit cell:	Completed after 20 iterations at t[s]:   1206.39
	Linear fluid (dielectric constant: 78.4, screening length: 8.12261 Bohr) occupying 0.524017 of unit cell:	Completed after 6 iterations at t[s]:   1210.09
	FillingsUpdate:  mu: -0.097800000  nElectrons: 96.503071  magneticMoment: [ Abs: 0.00004  Tot: +0.00003 ]
	SubspaceRotationAdjust: set factor to 0.00979
ElecMinimize: Iter:  23  G: -524.467260752022298  |grad|_K:  1.767e-06  alpha:  6.038e-01  linmin: -1.695e-05  t[s]:   1215.39
	Linear fluid (dielectric constant: 78.4, screening length: 8.12261 Bohr) occupying 0.523732 of unit cell:	Completed after 21 iterations at t[s]:   1220.12
	Linear fluid (dielectric constant: 78.4, screening length: 8.12261 Bohr) occupying 0.523685 of unit cell:	Completed after 14 iterations at t[s]:   1224.03
	FillingsUpdate:  mu: -0.097800000  nElectrons: 96.507384  magneticMoment: [ Abs: 0.00003  Tot: +0.00003 ]
	SubspaceRotationAdjust: set factor to 0.0112
ElecMinimize: Iter:  24  G: -524.467497964760241  |grad|_K:  1.997e-06  alpha:  6.977e-01  linmin:  6.111e-05  t[s]:   1229.38
	Linear fluid (dielectric constant: 78.4, screening length: 8.12261 Bohr) occupying 0.523688 of unit cell:	Completed after 23 iterations at t[s]:   1234.33
	Linear fluid (dielectric constant: 78.4, screening length: 8.12261 Bohr) occupying 0.523694 of unit cell:	Completed after 15 iterations at t[s]:   1238.29
	FillingsUpdate:  mu: -0.097800000  nElectrons: 96.521728  magneticMoment: [ Abs: 0.00003  Tot: +0.00003 ]
	SubspaceRotationAdjust: set factor to 0.0111
ElecMinimize: Iter:  25  G: -524.467752422922672  |grad|_K:  2.304e-06  alpha:  5.880e-01  linmin: -5.904e-05  t[s]:   1243.59
	Linear fluid (dielectric constant: 78.4, screening length: 8.12261 Bohr) occupying 0.523103 of unit cell:	Completed after 23 iterations at t[s]:   1248.40
	Linear fluid (dielectric constant: 78.4, screening length: 8.12261 Bohr) occupying 0.523209 of unit cell:	Completed after 16 iterations at t[s]:   1252.38
	FillingsUpdate:  mu: -0.097800000  nElectrons: 96.524371  magneticMoment: [ Abs: 0.00003  Tot: +0.00003 ]
	SubspaceRotationAdjust: set factor to 0.0105
ElecMinimize: Iter:  26  G: -524.468035974755139  |grad|_K:  2.165e-06  alpha:  4.883e-01  linmin:  1.153e-04  t[s]:   1257.69
	Linear fluid (dielectric constant: 78.4, screening length: 8.12261 Bohr) occupying 0.523118 of unit cell:	Completed after 21 iterations at t[s]:   1262.39
	Linear fluid (dielectric constant: 78.4, screening length: 8.12261 Bohr) occupying 0.523087 of unit cell:	Completed after 14 iterations at t[s]:   1266.51
	FillingsUpdate:  mu: -0.097800000  nElectrons: 96.538264  magneticMoment: [ Abs: 0.00003  Tot: +0.00003 ]
	SubspaceRotationAdjust: set factor to 0.0107
ElecMinimize: Iter:  27  G: -524.468347077963358  |grad|_K:  2.016e-06  alpha:  6.115e-01  linmin: -1.267e-04  t[s]:   1271.89
	Linear fluid (dielectric constant: 78.4, screening length: 8.12261 Bohr) occupying 0.522817 of unit cell:	Completed after 21 iterations at t[s]:   1276.59
	Linear fluid (dielectric constant: 78.4, screening length: 8.12261 Bohr) occupying 0.522766 of unit cell:	Completed after 14 iterations at t[s]:   1280.49
	FillingsUpdate:  mu: -0.097800000  nElectrons: 96.545142  magneticMoment: [ Abs: 0.00003  Tot: +0.00003 ]
	SubspaceRotationAdjust: set factor to 0.0108
ElecMinimize: Iter:  28  G: -524.468663855856676  |grad|_K:  2.120e-06  alpha:  7.147e-01  linmin:  2.745e-04  t[s]:   1285.84
	Linear fluid (dielectric constant: 78.4, screening length: 8.12261 Bohr) occupying 0.522683 of unit cell:	Completed after 23 iterations at t[s]:   1290.60
	Linear fluid (dielectric constant: 78.4, screening length: 8.12261 Bohr) occupying 0.522712 of unit cell:	Completed after 14 iterations at t[s]:   1294.68
	FillingsUpdate:  mu: -0.097800000  nElectrons: 96.556279  magneticMoment: [ Abs: 0.00003  Tot: +0.00003 ]
	SubspaceRotationAdjust: set factor to 0.0106
ElecMinimize: Iter:  29  G: -524.468933824266287  |grad|_K:  1.777e-06  alpha:  5.582e-01  linmin: -1.269e-04  t[s]:   1300.11
	Linear fluid (dielectric constant: 78.4, screening length: 8.12261 Bohr) occupying 0.522523 of unit cell:	Completed after 22 iterations at t[s]:   1304.86
	Linear fluid (dielectric constant: 78.4, screening length: 8.12261 Bohr) occupying 0.522544 of unit cell:	Completed after 14 iterations at t[s]:   1308.79
	FillingsUpdate:  mu: -0.097800000  nElectrons: 96.556923  magneticMoment: [ Abs: 0.00003  Tot: +0.00003 ]
	SubspaceRotationAdjust: set factor to 0.00991
ElecMinimize: Iter:  30  G: -524.469106671243594  |grad|_K:  1.569e-06  alpha:  5.007e-01  linmin:  1.439e-04  t[s]:   1314.11
	Linear fluid (dielectric constant: 78.4, screening length: 8.12261 Bohr) occupying 0.522687 of unit cell:	Completed after 23 iterations at t[s]:   1318.92
	Linear fluid (dielectric constant: 78.4, screening length: 8.12261 Bohr) occupying 0.522671 of unit cell:	Completed after 14 iterations at t[s]:   1322.82
	FillingsUpdate:  mu: -0.097800000  nElectrons: 96.563211  magneticMoment: [ Abs: 0.00003  Tot: +0.00003 ]
	SubspaceRotationAdjust: set factor to 0.00885
ElecMinimize: Iter:  31  G: -524.469223862409308  |grad|_K:  1.309e-06  alpha:  4.396e-01  linmin: -1.848e-04  t[s]:   1328.35
	Linear fluid (dielectric constant: 78.4, screening length: 8.12261 Bohr) occupying 0.522651 of unit cell:	Completed after 16 iterations at t[s]:   1332.92
	Linear fluid (dielectric constant: 78.4, screening length: 8.12261 Bohr) occupying 0.522647 of unit cell:	Completed after 14 iterations at t[s]:   1336.83
	FillingsUpdate:  mu: -0.097800000  nElectrons: 96.561787  magneticMoment: [ Abs: 0.00003  Tot: +0.00003 ]
	SubspaceRotationAdjust: set factor to 0.00908
ElecMinimize: Iter:  32  G: -524.469322413268628  |grad|_K:  1.096e-06  alpha:  5.260e-01  linmin:  1.448e-04  t[s]:   1342.16
	Linear fluid (dielectric constant: 78.4, screening length: 8.12261 Bohr) occupying 0.522713 of unit cell:	Completed after 14 iterations at t[s]:   1346.66
	Linear fluid (dielectric constant: 78.4, screening length: 8.12261 Bohr) occupying 0.522718 of unit cell:	Completed after 7 iterations at t[s]:   1350.30
	FillingsUpdate:  mu: -0.097800000  nElectrons: 96.561635  magneticMoment: [ Abs: 0.00003  Tot: +0.00003 ]
	SubspaceRotationAdjust: set factor to 0.0104
ElecMinimize: Iter:  33  G: -524.469396829468224  |grad|_K:  8.628e-07  alpha:  5.705e-01  linmin:  5.699e-06  t[s]:   1355.81
	Linear fluid (dielectric constant: 78.4, screening length: 8.12261 Bohr) occupying 0.522784 of unit cell:	Completed after 14 iterations at t[s]:   1360.29
	Linear fluid (dielectric constant: 78.4, screening length: 8.12261 Bohr) occupying 0.522784 of unit cell:	Completed after 2 iterations at t[s]:   1363.77
	FillingsUpdate:  mu: -0.097800000  nElectrons: 96.560849  magneticMoment: [ Abs: 0.00003  Tot: +0.00003 ]
	SubspaceRotationAdjust: set factor to 0.0123
ElecMinimize: Iter:  34  G: -524.469442549293603  |grad|_K:  7.396e-07  alpha:  5.641e-01  linmin:  5.776e-06  t[s]:   1369.09
	Linear fluid (dielectric constant: 78.4, screening length: 8.12261 Bohr) occupying 0.522773 of unit cell:	Completed after 15 iterations at t[s]:   1373.57
	Linear fluid (dielectric constant: 78.4, screening length: 8.12261 Bohr) occupying 0.522773 of unit cell:	Completed after 2 iterations at t[s]:   1377.04
	FillingsUpdate:  mu: -0.097800000  nElectrons: 96.557552  magneticMoment: [ Abs: 0.00003  Tot: +0.00003 ]
	SubspaceRotationAdjust: set factor to 0.0139
ElecMinimize: Iter:  35  G: -524.469476525199070  |grad|_K:  7.392e-07  alpha:  5.705e-01  linmin: -1.306e-06  t[s]:   1383.26
	Linear fluid (dielectric constant: 78.4, screening length: 8.12261 Bohr) occupying 0.522851 of unit cell:	Completed after 18 iterations at t[s]:   1388.08
	Linear fluid (dielectric constant: 78.4, screening length: 8.12261 Bohr) occupying 0.522835 of unit cell:	Completed after 14 iterations at t[s]:   1391.98
	FillingsUpdate:  mu: -0.097800000  nElectrons: 96.557146  magneticMoment: [ Abs: 0.00003  Tot: +0.00003 ]
	SubspaceRotationAdjust: set factor to 0.0136
ElecMinimize: Iter:  36  G: -524.469503378876766  |grad|_K:  7.612e-07  alpha:  4.511e-01  linmin:  1.162e-05  t[s]:   1397.30
	Linear fluid (dielectric constant: 78.4, screening length: 8.12261 Bohr) occupying 0.522715 of unit cell:	Completed after 20 iterations at t[s]:   1401.98
	Linear fluid (dielectric constant: 78.4, screening length: 8.12261 Bohr) occupying 0.522724 of unit cell:	Completed after 12 iterations at t[s]:   1405.83
	FillingsUpdate:  mu: -0.097800000  nElectrons: 96.551399  magneticMoment: [ Abs: 0.00003  Tot: +0.00003 ]
	SubspaceRotationAdjust: set factor to 0.0133
ElecMinimize: Iter:  37  G: -524.469529640025030  |grad|_K:  6.341e-07  alpha:  4.161e-01  linmin:  1.266e-04  t[s]:   1411.16
	Linear fluid (dielectric constant: 78.4, screening length: 8.12261 Bohr) occupying 0.522689 of unit cell:	Completed after 16 iterations at t[s]:   1415.88
	Linear fluid (dielectric constant: 78.4, screening length: 8.12261 Bohr) occupying 0.522682 of unit cell:	Completed after 13 iterations at t[s]:   1419.84
	FillingsUpdate:  mu: -0.097800000  nElectrons: 96.548675  magneticMoment: [ Abs: 0.00003  Tot: +0.00003 ]
	SubspaceRotationAdjust: set factor to 0.0148
ElecMinimize: Iter:  38  G: -524.469551152157578  |grad|_K:  5.390e-07  alpha:  4.939e-01  linmin:  3.768e-05  t[s]:   1425.15
	Linear fluid (dielectric constant: 78.4, screening length: 8.12261 Bohr) occupying 0.522581 of unit cell:	Completed after 18 iterations at t[s]:   1429.74
	Linear fluid (dielectric constant: 78.4, screening length: 8.12261 Bohr) occupying 0.522567 of unit cell:	Completed after 11 iterations at t[s]:   1433.54
	FillingsUpdate:  mu: -0.097800000  nElectrons: 96.544506  magneticMoment: [ Abs: 0.00003  Tot: +0.00003 ]
	SubspaceRotationAdjust: set factor to 0.0153
ElecMinimize: Iter:  39  G: -524.469568910590056  |grad|_K:  5.370e-07  alpha:  5.630e-01  linmin:  1.638e-04  t[s]:   1438.89
	Linear fluid (dielectric constant: 78.4, screening length: 8.12261 Bohr) occupying 0.522562 of unit cell:	Completed after 17 iterations at t[s]:   1443.56
	Linear fluid (dielectric constant: 78.4, screening length: 8.12261 Bohr) occupying 0.522564 of unit cell:	Completed after 13 iterations at t[s]:   1447.55
	FillingsUpdate:  mu: -0.097800000  nElectrons: 96.544162  magneticMoment: [ Abs: 0.00003  Tot: +0.00003 ]
	SubspaceRotationAdjust: set factor to 0.0136
ElecMinimize: Iter:  40  G: -524.469581865306168  |grad|_K:  5.419e-07  alpha:  4.159e-01  linmin: -6.048e-06  t[s]:   1452.86
	Linear fluid (dielectric constant: 78.4, screening length: 8.12261 Bohr) occupying 0.522449 of unit cell:	Completed after 17 iterations at t[s]:   1457.42
	Linear fluid (dielectric constant: 78.4, screening length: 8.12261 Bohr) occupying 0.522471 of unit cell:	Completed after 14 iterations at t[s]:   1461.32
	FillingsUpdate:  mu: -0.097800000  nElectrons: 96.541350  magneticMoment: [ Abs: 0.00003  Tot: +0.00003 ]
	SubspaceRotationAdjust: set factor to 0.0123
ElecMinimize: Iter:  41  G: -524.469592656255031  |grad|_K:  4.556e-07  alpha:  3.368e-01  linmin:  5.261e-05  t[s]:   1466.64
	Linear fluid (dielectric constant: 78.4, screening length: 8.12261 Bohr) occupying 0.522466 of unit cell:	Completed after 13 iterations at t[s]:   1471.09
	Linear fluid (dielectric constant: 78.4, screening length: 8.12261 Bohr) occupying 0.522463 of unit cell:	Completed after 12 iterations at t[s]:   1475.13
	FillingsUpdate:  mu: -0.097800000  nElectrons: 96.541147  magneticMoment: [ Abs: 0.00003  Tot: +0.00003 ]
	SubspaceRotationAdjust: set factor to 0.0137
ElecMinimize: Iter:  42  G: -524.469603822043609  |grad|_K:  3.965e-07  alpha:  4.948e-01  linmin: -3.319e-05  t[s]:   1480.56
	Linear fluid (dielectric constant: 78.4, screening length: 8.12261 Bohr) occupying 0.522431 of unit cell:	Completed after 14 iterations at t[s]:   1485.02
	Linear fluid (dielectric constant: 78.4, screening length: 8.12261 Bohr) occupying 0.522422 of unit cell:	Completed after 10 iterations at t[s]:   1488.77
	FillingsUpdate:  mu: -0.097800000  nElectrons: 96.540109  magneticMoment: [ Abs: 0.00003  Tot: +0.00002 ]
	SubspaceRotationAdjust: set factor to 0.0164
ElecMinimize: Iter:  43  G: -524.469614578950655  |grad|_K:  3.977e-07  alpha:  6.280e-01  linmin:  2.375e-05  t[s]:   1494.11
	Linear fluid (dielectric constant: 78.4, screening length: 8.12261 Bohr) occupying 0.522420 of unit cell:	Completed after 14 iterations at t[s]:   1498.54
	Linear fluid (dielectric constant: 78.4, screening length: 8.12261 Bohr) occupying 0.522420 of unit cell:	Completed after 2 iterations at t[s]:   1502.00
	FillingsUpdate:  mu: -0.097800000  nElectrons: 96.540298  magneticMoment: [ Abs: 0.00003  Tot: +0.00002 ]
	SubspaceRotationAdjust: set factor to 0.0194
ElecMinimize: Iter:  44  G: -524.469625825850812  |grad|_K:  4.378e-07  alpha:  6.536e-01  linmin: -2.693e-05  t[s]:   1507.48
	Linear fluid (dielectric constant: 78.4, screening length: 8.12261 Bohr) occupying 0.522346 of unit cell:	Completed after 17 iterations at t[s]:   1512.03
	Linear fluid (dielectric constant: 78.4, screening length: 8.12261 Bohr) occupying 0.522359 of unit cell:	Completed after 13 iterations at t[s]:   1515.90
	FillingsUpdate:  mu: -0.097800000  nElectrons: 96.538889  magneticMoment: [ Abs: 0.00003  Tot: +0.00002 ]
	SubspaceRotationAdjust: set factor to 0.0197
ElecMinimize: Iter:  45  G: -524.469637080034886  |grad|_K:  5.647e-07  alpha:  5.380e-01  linmin:  2.405e-05  t[s]:   1521.22
	Linear fluid (dielectric constant: 78.4, screening length: 8.12261 Bohr) occupying 0.522466 of unit cell:	Completed after 21 iterations at t[s]:   1525.91
	Linear fluid (dielectric constant: 78.4, screening length: 8.12261 Bohr) occupying 0.522412 of unit cell:	Completed after 15 iterations at t[s]:   1529.86
	FillingsUpdate:  mu: -0.097800000  nElectrons: 96.540694  magneticMoment: [ Abs: 0.00003  Tot: +0.00002 ]
	SubspaceRotationAdjust: set factor to 0.0168
ElecMinimize: Iter:  46  G: -524.469646252822031  |grad|_K:  5.497e-07  alpha:  2.657e-01  linmin:  3.123e-05  t[s]:   1535.36
	Linear fluid (dielectric constant: 78.4, screening length: 8.12261 Bohr) occupying 0.522381 of unit cell:	Completed after 14 iterations at t[s]:   1539.82
	Linear fluid (dielectric constant: 78.4, screening length: 8.12261 Bohr) occupying 0.522358 of unit cell:	Completed after 14 iterations at t[s]:   1543.72
	FillingsUpdate:  mu: -0.097800000  nElectrons: 96.539518  magneticMoment: [ Abs: 0.00002  Tot: +0.00002 ]
	SubspaceRotationAdjust: set factor to 0.0166
ElecMinimize: Iter:  47  G: -524.469661409916284  |grad|_K:  5.268e-07  alpha:  4.621e-01  linmin:  3.746e-05  t[s]:   1549.04
	Linear fluid (dielectric constant: 78.4, screening length: 8.12261 Bohr) occupying 0.522382 of unit cell:	Completed after 14 iterations at t[s]:   1553.49
	Linear fluid (dielectric constant: 78.4, screening length: 8.12261 Bohr) occupying 0.522387 of unit cell:	Completed after 13 iterations at t[s]:   1557.35
	FillingsUpdate:  mu: -0.097800000  nElectrons: 96.540606  magneticMoment: [ Abs: 0.00002  Tot: +0.00002 ]
	SubspaceRotationAdjust: set factor to 0.0163
ElecMinimize: Iter:  48  G: -524.469678496907704  |grad|_K:  5.590e-07  alpha:  5.665e-01  linmin: -2.272e-05  t[s]:   1562.67
	Linear fluid (dielectric constant: 78.4, screening length: 8.12261 Bohr) occupying 0.522316 of unit cell:	Completed after 18 iterations at t[s]:   1567.56
	Linear fluid (dielectric constant: 78.4, screening length: 8.12261 Bohr) occupying 0.522334 of unit cell:	Completed after 14 iterations at t[s]:   1571.47
	FillingsUpdate:  mu: -0.097800000  nElectrons: 96.539028  magneticMoment: [ Abs: 0.00002  Tot: +0.00002 ]
	SubspaceRotationAdjust: set factor to 0.0138
ElecMinimize: Iter:  49  G: -524.469692914465554  |grad|_K:  6.182e-07  alpha:  4.226e-01  linmin:  7.889e-06  t[s]:   1576.80
	Linear fluid (dielectric constant: 78.4, screening length: 8.12261 Bohr) occupying 0.522439 of unit cell:	Completed after 20 iterations at t[s]:   1581.49
	Linear fluid (dielectric constant: 78.4, screening length: 8.12261 Bohr) occupying 0.522411 of unit cell:	Completed after 14 iterations at t[s]:   1585.40
	FillingsUpdate:  mu: -0.097800000  nElectrons: 96.540862  magneticMoment: [ Abs: 0.00002  Tot: +0.00002 ]
	SubspaceRotationAdjust: set factor to 0.0109
ElecMinimize: Iter:  50  G: -524.469705680060770  |grad|_K:  5.068e-07  alpha:  3.075e-01  linmin: -7.402e-06  t[s]:   1590.73
	Linear fluid (dielectric constant: 78.4, screening length: 8.12261 Bohr) occupying 0.522418 of unit cell:	Completed after 14 iterations at t[s]:   1595.34
	Linear fluid (dielectric constant: 78.4, screening length: 8.12261 Bohr) occupying 0.522422 of unit cell:	Completed after 13 iterations at t[s]:   1599.29
	FillingsUpdate:  mu: -0.097800000  nElectrons: 96.540328  magneticMoment: [ Abs: 0.00002  Tot: +0.00002 ]
	SubspaceRotationAdjust: set factor to 0.0108
ElecMinimize: Iter:  51  G: -524.469719413203848  |grad|_K:  4.325e-07  alpha:  4.913e-01  linmin:  5.687e-05  t[s]:   1604.60
	Linear fluid (dielectric constant: 78.4, screening length: 8.12261 Bohr) occupying 0.522447 of unit cell:	Completed after 10 iterations at t[s]:   1608.91
	Linear fluid (dielectric constant: 78.4, screening length: 8.12261 Bohr) occupying 0.522450 of unit cell:	Completed after 5 iterations at t[s]:   1612.49
	FillingsUpdate:  mu: -0.097800000  nElectrons: 96.539936  magneticMoment: [ Abs: 0.00002  Tot: +0.00002 ]
	SubspaceRotationAdjust: set factor to 0.0111
ElecMinimize: Iter:  52  G: -524.469730625000807  |grad|_K:  3.894e-07  alpha:  5.519e-01  linmin:  2.326e-05  t[s]:   1617.82
	Linear fluid (dielectric constant: 78.4, screening length: 8.12261 Bohr) occupying 0.522521 of unit cell:	Completed after 14 iterations at t[s]:   1622.25
	Linear fluid (dielectric constant: 78.4, screening length: 8.12261 Bohr) occupying 0.522510 of unit cell:	Completed after 11 iterations at t[s]:   1626.35
	FillingsUpdate:  mu: -0.097800000  nElectrons: 96.540447  magneticMoment: [ Abs: 0.00002  Tot: +0.00002 ]
	SubspaceRotationAdjust: set factor to 0.0106
ElecMinimize: Iter:  53  G: -524.469738200358734  |grad|_K:  3.488e-07  alpha:  4.593e-01  linmin: -2.122e-06  t[s]:   1631.74
	Linear fluid (dielectric constant: 78.4, screening length: 8.12261 Bohr) occupying 0.522506 of unit cell:	Completed after 15 iterations at t[s]:   1636.22
	Linear fluid (dielectric constant: 78.4, screening length: 8.12261 Bohr) occupying 0.522507 of unit cell:	Completed after 11 iterations at t[s]:   1640.01
	FillingsUpdate:  mu: -0.097800000  nElectrons: 96.539282  magneticMoment: [ Abs: 0.00002  Tot: +0.00002 ]
	SubspaceRotationAdjust: set factor to 0.00991
ElecMinimize: Iter:  54  G: -524.469743356080699  |grad|_K:  2.947e-07  alpha:  3.889e-01  linmin:  2.580e-05  t[s]:   1645.33
	Linear fluid (dielectric constant: 78.4, screening length: 8.12261 Bohr) occupying 0.522534 of unit cell:	Completed after 14 iterations at t[s]:   1649.77
	Linear fluid (dielectric constant: 78.4, screening length: 8.12261 Bohr) occupying 0.522539 of unit cell:	Completed after 9 iterations at t[s]:   1653.62
	FillingsUpdate:  mu: -0.097800000  nElectrons: 96.539060  magneticMoment: [ Abs: 0.00002  Tot: +0.00002 ]
	SubspaceRotationAdjust: set factor to 0.0113
ElecMinimize: Iter:  55  G: -524.469747607718432  |grad|_K:  2.309e-07  alpha:  4.500e-01  linmin: -1.524e-05  t[s]:   1658.95
	Linear fluid (dielectric constant: 78.4, screening length: 8.12261 Bohr) occupying 0.522553 of unit cell:	Completed after 11 iterations at t[s]:   1663.29
	Linear fluid (dielectric constant: 78.4, screening length: 8.12261 Bohr) occupying 0.522555 of unit cell:	Completed after 2 iterations at t[s]:   1666.76
	FillingsUpdate:  mu: -0.097800000  nElectrons: 96.538466  magneticMoment: [ Abs: 0.00002  Tot: +0.00002 ]
	SubspaceRotationAdjust: set factor to 0.0136
ElecMinimize: Iter:  56  G: -524.469750702240958  |grad|_K:  2.092e-07  alpha:  5.329e-01  linmin: -1.558e-05  t[s]:   1672.11
	Linear fluid (dielectric constant: 78.4, screening length: 8.12261 Bohr) occupying 0.522550 of unit cell:	Completed after 14 iterations at t[s]:   1676.58
	Linear fluid (dielectric constant: 78.4, screening length: 8.12261 Bohr) occupying 0.522550 of unit cell:	Completed after 7 iterations at t[s]:   1680.24
	FillingsUpdate:  mu: -0.097800000  nElectrons: 96.537327  magneticMoment: [ Abs: 0.00002  Tot: +0.00002 ]
	SubspaceRotationAdjust: set factor to 0.0153
ElecMinimize: Iter:  57  G: -524.469753036239013  |grad|_K:  2.120e-07  alpha:  4.892e-01  linmin:  5.403e-05  t[s]:   1686.15
	Linear fluid (dielectric constant: 78.4, screening length: 8.12261 Bohr) occupying 0.522585 of unit cell:	Completed after 14 iterations at t[s]:   1691.08
	Linear fluid (dielectric constant: 78.4, screening length: 8.12261 Bohr) occupying 0.522575 of unit cell:	Completed after 13 iterations at t[s]:   1694.96
	FillingsUpdate:  mu: -0.097800000  nElectrons: 96.537225  magneticMoment: [ Abs: 0.00002  Tot: +0.00002 ]
	SubspaceRotationAdjust: set factor to 0.0157
ElecMinimize: Iter:  58  G: -524.469754758493764  |grad|_K:  1.992e-07  alpha:  3.534e-01  linmin: -5.569e-06  t[s]:   1700.30
	Linear fluid (dielectric constant: 78.4, screening length: 8.12261 Bohr) occupying 0.522565 of unit cell:	Completed after 13 iterations at t[s]:   1704.72
	Linear fluid (dielectric constant: 78.4, screening length: 8.12261 Bohr) occupying 0.522563 of unit cell:	Completed after 9 iterations at t[s]:   1708.46
	FillingsUpdate:  mu: -0.097800000  nElectrons: 96.535917  magneticMoment: [ Abs: 0.00002  Tot: +0.00002 ]
	SubspaceRotationAdjust: set factor to 0.0175
ElecMinimize: Iter:  59  G: -524.469756560516771  |grad|_K:  1.751e-07  alpha:  4.169e-01  linmin:  1.665e-05  t[s]:   1713.91
	Linear fluid (dielectric constant: 78.4, screening length: 8.12261 Bohr) occupying 0.522568 of unit cell:	Completed after 12 iterations at t[s]:   1718.37
	Linear fluid (dielectric constant: 78.4, screening length: 8.12261 Bohr) occupying 0.522569 of unit cell:	Completed after 8 iterations at t[s]:   1722.04
	FillingsUpdate:  mu: -0.097800000  nElectrons: 96.535177  magneticMoment: [ Abs: 0.00002  Tot: +0.00002 ]
	SubspaceRotationAdjust: set factor to 0.0198
ElecMinimize: Iter:  60  G: -524.469758203071365  |grad|_K:  1.640e-07  alpha:  4.921e-01  linmin: -3.394e-05  t[s]:   1727.38
	Linear fluid (dielectric constant: 78.4, screening length: 8.12261 Bohr) occupying 0.522548 of unit cell:	Completed after 13 iterations at t[s]:   1731.78
	Linear fluid (dielectric constant: 78.4, screening length: 8.12261 Bohr) occupying 0.522549 of unit cell:	Completed after 2 iterations at t[s]:   1735.26
	FillingsUpdate:  mu: -0.097800000  nElectrons: 96.533818  magneticMoment: [ Abs: 0.00002  Tot: +0.00002 ]
	SubspaceRotationAdjust: set factor to 0.0201
ElecMinimize: Iter:  61  G: -524.469759580470850  |grad|_K:  1.759e-07  alpha:  4.693e-01  linmin:  6.533e-05  t[s]:   1740.59
	Linear fluid (dielectric constant: 78.4, screening length: 8.12261 Bohr) occupying 0.522570 of unit cell:	Completed after 14 iterations at t[s]:   1745.23
	Linear fluid (dielectric constant: 78.4, screening length: 8.12261 Bohr) occupying 0.522560 of unit cell:	Completed after 13 iterations at t[s]:   1749.15
	FillingsUpdate:  mu: -0.097800000  nElectrons: 96.533639  magneticMoment: [ Abs: 0.00002  Tot: +0.00002 ]
	SubspaceRotationAdjust: set factor to 0.0167
ElecMinimize: Iter:  62  G: -524.469760460272028  |grad|_K:  1.713e-07  alpha:  2.639e-01  linmin: -4.883e-06  t[s]:   1754.47
	Linear fluid (dielectric constant: 78.4, screening length: 8.12261 Bohr) occupying 0.522541 of unit cell:	Completed after 14 iterations at t[s]:   1758.92
	Linear fluid (dielectric constant: 78.4, screening length: 8.12261 Bohr) occupying 0.522538 of unit cell:	Completed after 8 iterations at t[s]:   1762.62
	FillingsUpdate:  mu: -0.097800000  nElectrons: 96.532448  magneticMoment: [ Abs: 0.00002  Tot: +0.00002 ]
	SubspaceRotationAdjust: set factor to 0.015
ElecMinimize: Iter:  63  G: -524.469761447237033  |grad|_K:  1.359e-07  alpha:  3.089e-01  linmin:  2.659e-05  t[s]:   1767.96
	Linear fluid (dielectric constant: 78.4, screening length: 8.12261 Bohr) occupying 0.522537 of unit cell:	Completed after 11 iterations at t[s]:   1772.28
	Linear fluid (dielectric constant: 78.4, screening length: 8.12261 Bohr) occupying 0.522537 of unit cell:	Completed after 9 iterations at t[s]:   1776.33
	FillingsUpdate:  mu: -0.097800000  nElectrons: 96.531864  magneticMoment: [ Abs: 0.00002  Tot: +0.00002 ]
	SubspaceRotationAdjust: set factor to 0.0165
ElecMinimize: Iter:  64  G: -524.469762437054669  |grad|_K:  1.228e-07  alpha:  4.926e-01  linmin: -5.204e-05  t[s]:   1781.69
	Linear fluid (dielectric constant: 78.4, screening length: 8.12261 Bohr) occupying 0.522532 of unit cell:	Completed after 10 iterations at t[s]:   1786.03
	Linear fluid (dielectric constant: 78.4, screening length: 8.12261 Bohr) occupying 0.522532 of unit cell:	Completed after 0 iterations at t[s]:   1789.42
	FillingsUpdate:  mu: -0.097800000  nElectrons: 96.531275  magneticMoment: [ Abs: 0.00002  Tot: +0.00002 ]
	SubspaceRotationAdjust: set factor to 0.0191
ElecMinimize: Iter:  65  G: -524.469763288756440  |grad|_K:  1.130e-07  alpha:  5.174e-01  linmin: -5.378e-05  t[s]:   1794.76
	Linear fluid (dielectric constant: 78.4, screening length: 8.12261 Bohr) occupying 0.522539 of unit cell:	Completed after 11 iterations at t[s]:   1799.10
	Linear fluid (dielectric constant: 78.4, screening length: 8.12261 Bohr) occupying 0.522539 of unit cell:	Completed after 0 iterations at t[s]:   1802.47
	FillingsUpdate:  mu: -0.097800000  nElectrons: 96.531107  magneticMoment: [ Abs: 0.00002  Tot: +0.00002 ]
	SubspaceRotationAdjust: set factor to 0.0225
ElecMinimize: Iter:  66  G: -524.469764029802718  |grad|_K:  1.126e-07  alpha:  5.312e-01  linmin: -3.093e-05  t[s]:   1807.93
	Linear fluid (dielectric constant: 78.4, screening length: 8.12261 Bohr) occupying 0.522531 of unit cell:	Completed after 13 iterations at t[s]:   1812.34
	Linear fluid (dielectric constant: 78.4, screening length: 8.12261 Bohr) occupying 0.522532 of unit cell:	Completed after 9 iterations at t[s]:   1816.06
	FillingsUpdate:  mu: -0.097800000  nElectrons: 96.530679  magneticMoment: [ Abs: 0.00002  Tot: +0.00002 ]
	SubspaceRotationAdjust: set factor to 0.0236
ElecMinimize: Iter:  67  G: -524.469764641639813  |grad|_K:  1.309e-07  alpha:  4.424e-01  linmin:  1.684e-05  t[s]:   1821.38
	Linear fluid (dielectric constant: 78.4, screening length: 8.12261 Bohr) occupying 0.522568 of unit cell:	Completed after 15 iterations at t[s]:   1825.89
	Linear fluid (dielectric constant: 78.4, screening length: 8.12261 Bohr) occupying 0.522550 of unit cell:	Completed after 13 iterations at t[s]:   1829.78
	FillingsUpdate:  mu: -0.097800000  nElectrons: 96.531024  magneticMoment: [ Abs: 0.00002  Tot: +0.00002 ]
	SubspaceRotationAdjust: set factor to 0.0211
ElecMinimize: Iter:  68  G: -524.469765054185018  |grad|_K:  1.248e-07  alpha:  2.217e-01  linmin:  9.379e-06  t[s]:   1835.32
	Linear fluid (dielectric constant: 78.4, screening length: 8.12261 Bohr) occupying 0.522548 of unit cell:	Completed after 12 iterations at t[s]:   1839.71
	Linear fluid (dielectric constant: 78.4, screening length: 8.12261 Bohr) occupying 0.522547 of unit cell:	Completed after 10 iterations at t[s]:   1843.48
	FillingsUpdate:  mu: -0.097800000  nElectrons: 96.530784  magneticMoment: [ Abs: 0.00002  Tot: +0.00002 ]
	SubspaceRotationAdjust: set factor to 0.0225
ElecMinimize: Iter:  69  G: -524.469765631009068  |grad|_K:  1.088e-07  alpha:  3.402e-01  linmin:  9.878e-06  t[s]:   1848.82
	Linear fluid (dielectric constant: 78.4, screening length: 8.12261 Bohr) occupying 0.522558 of unit cell:	Completed after 12 iterations at t[s]:   1853.18
	Linear fluid (dielectric constant: 78.4, screening length: 8.12261 Bohr) occupying 0.522562 of unit cell:	Completed after 9 iterations at t[s]:   1856.92
	FillingsUpdate:  mu: -0.097800000  nElectrons: 96.531089  magneticMoment: [ Abs: 0.00002  Tot: +0.00001 ]
	SubspaceRotationAdjust: set factor to 0.0236
ElecMinimize: Iter:  70  G: -524.469766212021568  |grad|_K:  1.125e-07  alpha:  4.507e-01  linmin: -3.194e-05  t[s]:   1862.23
	Linear fluid (dielectric constant: 78.4, screening length: 8.12261 Bohr) occupying 0.522550 of unit cell:	Completed after 14 iterations at t[s]:   1866.90
	Linear fluid (dielectric constant: 78.4, screening length: 8.12261 Bohr) occupying 0.522554 of unit cell:	Completed after 11 iterations at t[s]:   1870.69
	FillingsUpdate:  mu: -0.097800000  nElectrons: 96.530845  magneticMoment: [ Abs: 0.00002  Tot: +0.00001 ]
	SubspaceRotationAdjust: set factor to 0.0207
ElecMinimize: Iter:  71  G: -524.469766624724571  |grad|_K:  1.289e-07  alpha:  2.986e-01  linmin:  6.738e-07  t[s]:   1876.00
	Linear fluid (dielectric constant: 78.4, screening length: 8.12261 Bohr) occupying 0.522575 of unit cell:	Completed after 14 iterations at t[s]:   1880.48
	Linear fluid (dielectric constant: 78.4, screening length: 8.12261 Bohr) occupying 0.522571 of unit cell:	Completed after 10 iterations at t[s]:   1884.24
	FillingsUpdate:  mu: -0.097800000  nElectrons: 96.531318  magneticMoment: [ Abs: 0.00002  Tot: +0.00001 ]
	SubspaceRotationAdjust: set factor to 0.0178
ElecMinimize: Iter:  72  G: -524.469767066838585  |grad|_K:  1.051e-07  alpha:  2.443e-01  linmin:  2.371e-06  t[s]:   1889.56
	Linear fluid (dielectric constant: 78.4, screening length: 8.12261 Bohr) occupying 0.522572 of unit cell:	Completed after 11 iterations at t[s]:   1894.03
	Linear fluid (dielectric constant: 78.4, screening length: 8.12261 Bohr) occupying 0.522572 of unit cell:	Completed after 11 iterations at t[s]:   1897.90
	FillingsUpdate:  mu: -0.097800000  nElectrons: 96.531363  magneticMoment: [ Abs: 0.00002  Tot: +0.00001 ]
	SubspaceRotationAdjust: set factor to 0.0186
ElecMinimize: Iter:  73  G: -524.469767602199227  |grad|_K:  9.863e-08  alpha:  4.463e-01  linmin:  4.568e-05  t[s]:   1903.19
	Linear fluid (dielectric constant: 78.4, screening length: 8.12261 Bohr) occupying 0.522584 of unit cell:	Completed after 11 iterations at t[s]:   1907.55
	Linear fluid (dielectric constant: 78.4, screening length: 8.12261 Bohr) occupying 0.522586 of unit cell:	Completed after 2 iterations at t[s]:   1911.02
	FillingsUpdate:  mu: -0.097800000  nElectrons: 96.531759  magneticMoment: [ Abs: 0.00001  Tot: +0.00001 ]
	SubspaceRotationAdjust: set factor to 0.0193
ElecMinimize: Iter:  74  G: -524.469768133767616  |grad|_K:  1.024e-07  alpha:  5.031e-01  linmin: -6.734e-05  t[s]:   1916.35
	Linear fluid (dielectric constant: 78.4, screening length: 8.12261 Bohr) occupying 0.522583 of unit cell:	Completed after 12 iterations at t[s]:   1920.75
	Linear fluid (dielectric constant: 78.4, screening length: 8.12261 Bohr) occupying 0.522583 of unit cell:	Completed after 9 iterations at t[s]:   1924.64
	FillingsUpdate:  mu: -0.097800000  nElectrons: 96.531675  magneticMoment: [ Abs: 0.00001  Tot: +0.00001 ]
	SubspaceRotationAdjust: set factor to 0.0181
[...]

#--- Lowdin population analysis ---
# oxidation-state Pt -0.266 +0.014 +0.005 +0.016 -0.267 +0.006
# magnetic-moments Pt -0.000 -0.000 +0.000 -0.000 -0.000 +0.000


Computing DFT-D3 correction:
# coordination-number Pt 6.956 9.610 9.376 9.608 6.954 9.374
# diagonal-C6 Pt 336.87 336.87 336.87 336.87 336.87 336.87
EvdW_6 =   -0.053489
EvdW_8 =   -0.085283
Shifting auxilliary hamiltonian by -0.000071 to set nElectrons=96.546064

-------- Electronic minimization -----------
	Linear fluid (dielectric constant: 78.4, screening length: 8.12261 Bohr) occupying 0.520092 of unit cell:	Completed after 18 iterations at t[s]:  10070.56
	FillingsUpdate:  mu: -0.097800000  nElectrons: 96.546064  magneticMoment: [ Abs: 0.00000  Tot: -0.00000 ]
ElecMinimize: Iter:   0  G: -524.470696907576780  |grad|_K:  4.995e-07  alpha:  1.000e+00
	Linear fluid (dielectric constant: 78.4, screening length: 8.12261 Bohr) occupying 0.520265 of unit cell:	Completed after 23 iterations at t[s]:  10082.16
	Linear fluid (dielectric constant: 78.4, screening length: 8.12261 Bohr) occupying 0.520133 of unit cell:	Completed after 23 iterations at t[s]:  10086.67
	FillingsUpdate:  mu: -0.097800000  nElectrons: 96.547345  magneticMoment: [ Abs: 0.00000  Tot: -0.00000 ]
	SubspaceRotationAdjust: set factor to 0.00586
ElecMinimize: Iter:   1  G: -524.470703192717224  |grad|_K:  1.435e-07  alpha:  2.313e-01  linmin: -5.020e-04  t[s]:  10092.32
	Linear fluid (dielectric constant: 78.4, screening length: 8.12261 Bohr) occupying 0.520130 of unit cell:	Completed after 12 iterations at t[s]:  10096.74
	Linear fluid (dielectric constant: 78.4, screening length: 8.12261 Bohr) occupying 0.520128 of unit cell:	Completed after 11 iterations at t[s]:  10100.55
	FillingsUpdate:  mu: -0.097800000  nElectrons: 96.547321  magneticMoment: [ Abs: 0.00000  Tot: -0.00000 ]
	SubspaceRotationAdjust: set factor to 0.00776
ElecMinimize: Iter:   2  G: -524.470704134734660  |grad|_K:  7.498e-08  alpha:  4.200e-01  linmin:  2.421e-05  t[s]:  10105.87
	Linear fluid (dielectric constant: 78.4, screening length: 8.12261 Bohr) occupying 0.520125 of unit cell:	Completed after 6 iterations at t[s]:  10110.04
	Linear fluid (dielectric constant: 78.4, screening length: 8.12261 Bohr) occupying 0.520124 of unit cell:	Completed after 3 iterations at t[s]:  10113.67
	FillingsUpdate:  mu: -0.097800000  nElectrons: 96.547324  magneticMoment: [ Abs: 0.00000  Tot: -0.00000 ]
	SubspaceRotationAdjust: set factor to 0.00997
ElecMinimize: Iter:   3  G: -524.470704484030307  |grad|_K:  5.856e-08  alpha:  5.707e-01  linmin: -3.903e-05  t[s]:  10119.04
	Linear fluid (dielectric constant: 78.4, screening length: 8.12261 Bohr) occupying 0.520117 of unit cell:	Completed after 8 iterations at t[s]:  10123.27
	Linear fluid (dielectric constant: 78.4, screening length: 8.12261 Bohr) occupying 0.520114 of unit cell:	Completed after 5 iterations at t[s]:  10126.86
	FillingsUpdate:  mu: -0.097800000  nElectrons: 96.547225  magneticMoment: [ Abs: 0.00000  Tot: -0.00000 ]
	SubspaceRotationAdjust: set factor to 0.0122
ElecMinimize: Iter:   4  G: -524.470704766365657  |grad|_K:  5.983e-08  alpha:  7.549e-01  linmin: -8.146e-04  t[s]:  10132.19
	Linear fluid (dielectric constant: 78.4, screening length: 8.12261 Bohr) occupying 0.520098 of unit cell:	Completed after 10 iterations at t[s]:  10136.46
	Linear fluid (dielectric constant: 78.4, screening length: 8.12261 Bohr) occupying 0.520099 of unit cell:	Completed after 2 iterations at t[s]:  10139.93
	FillingsUpdate:  mu: -0.097800000  nElectrons: 96.546912  magneticMoment: [ Abs: 0.00000  Tot: -0.00000 ]
	SubspaceRotationAdjust: set factor to 0.0127
ElecMinimize: Iter:   5  G: -524.470705038088340  |grad|_K:  6.493e-08  alpha:  6.949e-01  linmin: -7.056e-06  t[s]:  10145.44
	Linear fluid (dielectric constant: 78.4, screening length: 8.12261 Bohr) occupying 0.520101 of unit cell:	Completed after 12 iterations at t[s]:  10149.85
	Linear fluid (dielectric constant: 78.4, screening length: 8.12261 Bohr) occupying 0.520100 of unit cell:	Completed after 11 iterations at t[s]:  10153.65
	FillingsUpdate:  mu: -0.097800000  nElectrons: 96.546994  magneticMoment: [ Abs: 0.00000  Tot: -0.00000 ]
	SubspaceRotationAdjust: set factor to 0.0103
ElecMinimize: Iter:   6  G: -524.470705212589792  |grad|_K:  6.793e-08  alpha:  3.827e-01  linmin: -3.932e-05  t[s]:  10158.98
	Linear fluid (dielectric constant: 78.4, screening length: 8.12261 Bohr) occupying 0.520090 of unit cell:	Completed after 11 iterations at t[s]:  10163.29
	Linear fluid (dielectric constant: 78.4, screening length: 8.12261 Bohr) occupying 0.520089 of unit cell:	Completed after 2 iterations at t[s]:  10166.76
	FillingsUpdate:  mu: -0.097800000  nElectrons: 96.546630  magneticMoment: [ Abs: 0.00000  Tot: -0.00000 ]
	SubspaceRotationAdjust: set factor to 0.00965
ElecMinimize: Iter:   7  G: -524.470705415916314  |grad|_K:  4.986e-08  alpha:  4.046e-01  linmin: -7.128e-04  t[s]:  10172.06
	Linear fluid (dielectric constant: 78.4, screening length: 8.12261 Bohr) occupying 0.520088 of unit cell:	Completed after 4 iterations at t[s]:  10176.40
	Linear fluid (dielectric constant: 78.4, screening length: 8.12261 Bohr) occupying 0.520087 of unit cell:	Completed after 4 iterations at t[s]:  10179.96
	FillingsUpdate:  mu: -0.097800000  nElectrons: 96.546394  magneticMoment: [ Abs: 0.00000  Tot: -0.00000 ]
	SubspaceRotationAdjust: set factor to 0.0105
ElecMinimize: Iter:   8  G: -524.470705597984761  |grad|_K:  4.144e-08  alpha:  6.693e-01  linmin: -1.442e-05  t[s]:  10185.28
	Linear fluid (dielectric constant: 78.4, screening length: 8.12261 Bohr) occupying 0.520092 of unit cell:	Completed after 12 iterations at t[s]:  10189.65
	Linear fluid (dielectric constant: 78.4, screening length: 8.12261 Bohr) occupying 0.520091 of unit cell:	Completed after 5 iterations at t[s]:  10193.23
	FillingsUpdate:  mu: -0.097800000  nElectrons: 96.546354  magneticMoment: [ Abs: 0.00000  Tot: -0.00000 ]
	SubspaceRotationAdjust: set factor to 0.00993
ElecMinimize: Iter:   9  G: -524.470705694660751  |grad|_K:  3.897e-08  alpha:  5.163e-01  linmin:  4.798e-04  t[s]:  10198.53
	Linear fluid (dielectric constant: 78.4, screening length: 8.12261 Bohr) occupying 0.520088 of unit cell:	Completed after 12 iterations at t[s]:  10202.88
	Linear fluid (dielectric constant: 78.4, screening length: 8.12261 Bohr) occupying 0.520089 of unit cell:	Completed after 10 iterations at t[s]:  10206.99
	FillingsUpdate:  mu: -0.097800000  nElectrons: 96.546175  magneticMoment: [ Abs: 0.00000  Tot: -0.00000 ]
	SubspaceRotationAdjust: set factor to 0.00792
ElecMinimize: Iter:  10  G: -524.470705744478209  |grad|_K:  2.930e-08  alpha:  3.072e-01  linmin: -1.919e-05  t[s]:  10212.31
ElecMinimize: Converged (|Delta G|<1.000000e-07 for 2 iters).
Setting wave functions to eigenvectors of Hamiltonian
Converging empty states (this may take a while): |deigs|: 3.487e-08

Computing DFT-D3 correction:
# coordination-number Pt 6.956 9.610 9.376 9.608 6.954 9.374
# diagonal-C6 Pt 336.87 336.87 336.87 336.87 336.87 336.87
EvdW_6 =   -0.053489
EvdW_8 =   -0.085283
IonicMinimize: 	Wolfe criterion not satisfied: alpha: 1  (E-E0)/|gdotd0|: -0.826316  gdotd/gdotd0: 1.97913 (taking cubic step)

Computing DFT-D3 correction:
# coordination-number Pt 6.952 9.609 9.374 9.608 6.951 9.372
# diagonal-C6 Pt 336.87 336.87 336.87 336.87 336.87 336.87
EvdW_6 =   -0.053486
EvdW_8 =   -0.085274
Shifting auxilliary hamiltonian by 0.000110 to set nElectrons=96.546175

-------- Electronic minimization -----------
	Linear fluid (dielectric constant: 78.4, screening length: 8.12261 Bohr) occupying 0.520057 of unit cell:	Completed after 22 iterations at t[s]:  10229.85
	FillingsUpdate:  mu: -0.097800000  nElectrons: 96.546175  magneticMoment: [ Abs: 0.00000  Tot: -0.00000 ]
ElecMinimize: Iter:   0  G: -524.470679932540747  |grad|_K:  7.202e-07  alpha:  1.000e+00
	Linear fluid (dielectric constant: 78.4, screening length: 8.12261 Bohr) occupying 0.519889 of unit cell:	Completed after 24 iterations at t[s]:  10240.83
	Linear fluid (dielectric constant: 78.4, screening length: 8.12261 Bohr) occupying 0.520010 of unit cell:	Completed after 23 iterations at t[s]:  10245.05
	FillingsUpdate:  mu: -0.097800000  nElectrons: 96.544715  magneticMoment: [ Abs: 0.00000  Tot: -0.00000 ]
	SubspaceRotationAdjust: set factor to 0.00798
ElecMinimize: Iter:   1  G: -524.470695938940253  |grad|_K:  3.197e-07  alpha:  2.836e-01  linmin:  3.383e-04  t[s]:  10250.36
	Linear fluid (dielectric constant: 78.4, screening length: 8.12261 Bohr) occupying 0.520034 of unit cell:	Completed after 20 iterations at t[s]:  10255.04
	Linear fluid (dielectric constant: 78.4, screening length: 8.12261 Bohr) occupying 0.520040 of unit cell:	Completed after 14 iterations at t[s]:  10258.94
	FillingsUpdate:  mu: -0.097800000  nElectrons: 96.545506  magneticMoment: [ Abs: 0.00000  Tot: -0.00000 ]
	SubspaceRotationAdjust: set factor to 0.00792
ElecMinimize: Iter:   2  G: -524.470699854658392  |grad|_K:  2.021e-07  alpha:  3.520e-01  linmin: -2.374e-04  t[s]:  10264.43
	Linear fluid (dielectric constant: 78.4, screening length: 8.12261 Bohr) occupying 0.520034 of unit cell:	Completed after 14 iterations at t[s]:  10268.94
	Linear fluid (dielectric constant: 78.4, screening length: 8.12261 Bohr) occupying 0.520032 of unit cell:	Completed after 13 iterations at t[s]:  10272.81
	FillingsUpdate:  mu: -0.097800000  nElectrons: 96.545187  magneticMoment: [ Abs: 0.00000  Tot: -0.00000 ]
	SubspaceRotationAdjust: set factor to 0.0089
ElecMinimize: Iter:   3  G: -524.470702077405576  |grad|_K:  1.377e-07  alpha:  5.006e-01  linmin:  1.506e-03  t[s]:  10278.13
	Linear fluid (dielectric constant: 78.4, screening length: 8.12261 Bohr) occupying 0.520039 of unit cell:	Completed after 12 iterations at t[s]:  10282.49
	Linear fluid (dielectric constant: 78.4, screening length: 8.12261 Bohr) occupying 0.520041 of unit cell:	Completed after 9 iterations at t[s]:  10286.21
	FillingsUpdate:  mu: -0.097800000  nElectrons: 96.545366  magneticMoment: [ Abs: 0.00000  Tot: -0.00000 ]
	SubspaceRotationAdjust: set factor to 0.01
ElecMinimize: Iter:   4  G: -524.470703441792807  |grad|_K:  1.159e-07  alpha:  6.643e-01  linmin:  8.427e-04  t[s]:  10291.52
	Linear fluid (dielectric constant: 78.4, screening length: 8.12261 Bohr) occupying 0.520046 of unit cell:	Completed after 11 iterations at t[s]:  10296.04
	Linear fluid (dielectric constant: 78.4, screening length: 8.12261 Bohr) occupying 0.520045 of unit cell:	Completed after 2 iterations at t[s]:  10299.56
	FillingsUpdate:  mu: -0.097800000  nElectrons: 96.545425  magneticMoment: [ Abs: 0.00000  Tot: -0.00000 ]
	SubspaceRotationAdjust: set factor to 0.011
ElecMinimize: Iter:   5  G: -524.470704275948265  |grad|_K:  8.815e-08  alpha:  5.719e-01  linmin:  5.924e-04  t[s]:  10304.86
	Linear fluid (dielectric constant: 78.4, screening length: 8.12261 Bohr) occupying 0.520047 of unit cell:	Completed after 8 iterations at t[s]:  10309.14
	Linear fluid (dielectric constant: 78.4, screening length: 8.12261 Bohr) occupying 0.520047 of unit cell:	Completed after 2 iterations at t[s]:  10312.62
	FillingsUpdate:  mu: -0.097800000  nElectrons: 96.545458  magneticMoment: [ Abs: 0.00000  Tot: -0.00000 ]
	SubspaceRotationAdjust: set factor to 0.0122
ElecMinimize: Iter:   6  G: -524.470704816725060  |grad|_K:  6.660e-08  alpha:  6.404e-01  linmin: -2.813e-05  t[s]:  10317.92
	Linear fluid (dielectric constant: 78.4, screening length: 8.12261 Bohr) occupying 0.520050 of unit cell:	Completed after 8 iterations at t[s]:  10322.14
	Linear fluid (dielectric constant: 78.4, screening length: 8.12261 Bohr) occupying 0.520050 of unit cell:	Completed after 0 iterations at t[s]:  10325.72
	FillingsUpdate:  mu: -0.097800000  nElectrons: 96.545569  magneticMoment: [ Abs: 0.00000  Tot: -0.00000 ]
	SubspaceRotationAdjust: set factor to 0.0137
ElecMinimize: Iter:   7  G: -524.470705132146122  |grad|_K:  5.673e-08  alpha:  6.530e-01  linmin: -2.655e-04  t[s]:  10331.06
	Linear fluid (dielectric constant: 78.4, screening length: 8.12261 Bohr) occupying 0.520045 of unit cell:	Completed after 12 iterations at t[s]:  10335.41
	Linear fluid (dielectric constant: 78.4, screening length: 8.12261 Bohr) occupying 0.520045 of unit cell:	Completed after 4 iterations at t[s]:  10338.95
	FillingsUpdate:  mu: -0.097800000  nElectrons: 96.545463  magneticMoment: [ Abs: 0.00000  Tot: -0.00000 ]
	SubspaceRotationAdjust: set factor to 0.0133
ElecMinimize: Iter:   8  G: -524.470705329929046  |grad|_K:  6.116e-08  alpha:  5.633e-01  linmin:  6.722e-04  t[s]:  10344.23
	Linear fluid (dielectric constant: 78.4, screening length: 8.12261 Bohr) occupying 0.520060 of unit cell:	Completed after 14 iterations at t[s]:  10348.65
	Linear fluid (dielectric constant: 78.4, screening length: 8.12261 Bohr) occupying 0.520053 of unit cell:	Completed after 12 iterations at t[s]:  10352.48
	FillingsUpdate:  mu: -0.097800000  nElectrons: 96.545708  magneticMoment: [ Abs: 0.00000  Tot: -0.00000 ]
	SubspaceRotationAdjust: set factor to 0.0106
ElecMinimize: Iter:   9  G: -524.470705441985160  |grad|_K:  5.250e-08  alpha:  2.816e-01  linmin:  4.424e-05  t[s]:  10357.99
	Linear fluid (dielectric constant: 78.4, screening length: 8.12261 Bohr) occupying 0.520051 of unit cell:	Completed after 9 iterations at t[s]:  10362.23
	Linear fluid (dielectric constant: 78.4, screening length: 8.12261 Bohr) occupying 0.520050 of unit cell:	Completed after 9 iterations at t[s]:  10365.95
	FillingsUpdate:  mu: -0.097800000  nElectrons: 96.545675  magneticMoment: [ Abs: 0.00000  Tot: -0.00000 ]
	SubspaceRotationAdjust: set factor to 0.0115
ElecMinimize: Iter:  10  G: -524.470705617659291  |grad|_K:  4.400e-08  alpha:  5.871e-01  linmin:  4.791e-04  t[s]:  10371.25
	Linear fluid (dielectric constant: 78.4, screening length: 8.12261 Bohr) occupying 0.520050 of unit cell:	Completed after 2 iterations at t[s]:  10375.30
	Linear fluid (dielectric constant: 78.4, screening length: 8.12261 Bohr) occupying 0.520051 of unit cell:	Completed after 2 iterations at t[s]:  10378.77
	FillingsUpdate:  mu: -0.097800000  nElectrons: 96.545762  magneticMoment: [ Abs: 0.00000  Tot: -0.00000 ]
	SubspaceRotationAdjust: set factor to 0.0129
ElecMinimize: Iter:  11  G: -524.470705778300726  |grad|_K:  4.204e-08  alpha:  7.644e-01  linmin: -2.760e-04  t[s]:  10385.16
	Linear fluid (dielectric constant: 78.4, screening length: 8.12261 Bohr) occupying 0.520054 of unit cell:	Completed after 10 iterations at t[s]:  10390.01
	Linear fluid (dielectric constant: 78.4, screening length: 8.12261 Bohr) occupying 0.520053 of unit cell:	Completed after 0 iterations at t[s]:  10393.40
	FillingsUpdate:  mu: -0.097800000  nElectrons: 96.545913  magneticMoment: [ Abs: 0.00000  Tot: -0.00000 ]
	SubspaceRotationAdjust: set factor to 0.0135
ElecMinimize: Iter:  12  G: -524.470705917219334  |grad|_K:  4.362e-08  alpha:  7.204e-01  linmin:  3.063e-04  t[s]:  10398.72
	Linear fluid (dielectric constant: 78.4, screening length: 8.12261 Bohr) occupying 0.520045 of unit cell:	Completed after 13 iterations at t[s]:  10403.13
	Linear fluid (dielectric constant: 78.4, screening length: 8.12261 Bohr) occupying 0.520049 of unit cell:	Completed after 12 iterations at t[s]:  10406.96
	FillingsUpdate:  mu: -0.097800000  nElectrons: 96.545820  magneticMoment: [ Abs: 0.00000  Tot: -0.00000 ]
	SubspaceRotationAdjust: set factor to 0.0109
ElecMinimize: Iter:  13  G: -524.470705995038884  |grad|_K:  4.747e-08  alpha:  3.823e-01  linmin: -3.356e-05  t[s]:  10412.28
	Linear fluid (dielectric constant: 78.4, screening length: 8.12261 Bohr) occupying 0.520055 of unit cell:	Completed after 12 iterations at t[s]:  10416.92
	Linear fluid (dielectric constant: 78.4, screening length: 8.12261 Bohr) occupying 0.520054 of unit cell:	Completed after 2 iterations at t[s]:  10420.39
	FillingsUpdate:  mu: -0.097800000  nElectrons: 96.546018  magneticMoment: [ Abs: 0.00000  Tot: -0.00000 ]
	SubspaceRotationAdjust: set factor to 0.00872
ElecMinimize: Iter:  14  G: -524.470706079164188  |grad|_K:  3.355e-08  alpha:  3.423e-01  linmin:  1.398e-03  t[s]:  10425.71
ElecMinimize: Converged (|Delta G|<1.000000e-07 for 2 iters).
Setting wave functions to eigenvectors of Hamiltonian
Converging empty states (this may take a while): |deigs|: 1.763e-08

Computing DFT-D3 correction:
# coordination-number Pt 6.952 9.609 9.374 9.608 6.951 9.372
# diagonal-C6 Pt 336.87 336.87 336.87 336.87 336.87 336.87
EvdW_6 =   -0.053486
EvdW_8 =   -0.085274

# Ionic positions in cartesian coordinates:
ion Pt   0.000087390656136   3.020845876999738   2.038760099297091 1
ion Pt   0.000071514565678   0.000125300727768  10.696158707508999 1
ion Pt   2.616140227210134   1.510532449737749   6.424610015052446 1
ion Pt  -0.000069773044245   3.020567575747257  14.934785626355824 1
ion Pt  -0.000087183698587  -0.000153034028709  23.593324110371828 1
ion Pt   2.615855824310885   1.510161830816195  19.206671441413807 1

# Forces in Cartesian coordinates:
force Pt   0.000002548392794   0.000003657086460   0.000094168145239 1
force Pt   0.000000284987451   0.000000151847796  -0.000038795148727 1
force Pt   0.000001495865468   0.000001999242365  -0.000261814541332 1
force Pt  -0.000000349873072  -0.000000159503200  -0.000140986297592 1
force Pt  -0.000002578895160  -0.000003649946034   0.000123802741208 1
force Pt  -0.000001460874624  -0.000002044268817   0.000226155274512 1

# Energy components:
   A_diel =       -0.2629381014273660
   Eewald =     4273.0463563104658533
       EH =     4774.7161387846726939
     Eloc =    -9673.8727483018774365
      Enl =       -6.3422165695754362
     EvdW =       -0.1387600479441818
      Exc =     -170.8275479881573347
 Exc_core =       98.3482823947643681
       KE =      171.4556413723159096
  MuShift =       -0.0342373277642967
-------------------------------------
     Etot =     -533.9120294745274578
       TS =        0.0008772049066094
-------------------------------------
        F =     -533.9129066794340588
      muN =       -9.4422006002699010
-------------------------------------
        G =     -524.4707060791641879


Dumping 'jdft.fillings' ... done
Dumping 'jdft.wfns' ... done
Dumping 'jdft.fluidState' ... done
Dumping 'jdft.ionpos' ... done
Dumping 'jdft.lattice' ... done
Dumping 'jdft.eigenvals' ... done
Dumping 'jdft.eigStats' ... 
	eMin: -2.048160 at state 150 ( [ +0.000000 +0.500000 +0.000000 ] spin -1 )
	HOMO: -0.097814 at state 0 ( [ +0.000000 +0.000000 +0.000000 ] spin 1 )
	mu  : -0.097800
	LUMO: -0.097698 at state 239 ( [ -0.416667 -0.083333 +0.000000 ] spin -1 )
	eMax: +0.184879 at state 52 ( [ +0.333333 +0.333333 +0.000000 ] spin 1 )
	HOMO-LUMO gap: +0.000117
	Optical gap  : +0.004157 at state 60 ( [ +0.416667 +0.000000 +0.000000 ] spin 1 )
Dumping 'jdft.Ecomponents' ... done
IonicMinimize: Iter:  12  G: -524.470706079164188  |grad|_K:  9.584e-05  alpha:  3.000e+00  linmin:  3.227e-01  t[s]:  10438.25
IonicMinimize: Converged (|grad|_K<1.000000e-04).

#--- Lowdin population analysis ---
# oxidation-state Pt -0.267 +0.015 +0.006 +0.015 -0.266 +0.007
# magnetic-moments Pt -0.000 -0.000 +0.000 -0.000 +0.000 +0.000


Dumping 'jdft.n_up' ... done
Dumping 'jdft.n_dn' ... done
Dumping 'jdft.tau_up' ... done
Dumping 'jdft.tau_dn' ... done
Dumping 'jdft.eigenvals' ... done
Dumping 'jdft.eigStats' ... 
	eMin: -2.048160 at state 150 ( [ +0.000000 +0.500000 +0.000000 ] spin -1 )
	HOMO: -0.097814 at state 0 ( [ +0.000000 +0.000000 +0.000000 ] spin 1 )
	mu  : -0.097800
	LUMO: -0.097698 at state 239 ( [ -0.416667 -0.083333 +0.000000 ] spin -1 )
	eMax: +0.184879 at state 52 ( [ +0.333333 +0.333333 +0.000000 ] spin 1 )
	HOMO-LUMO gap: +0.000117
	Optical gap  : +0.004157 at state 60 ( [ +0.416667 +0.000000 +0.000000 ] spin 1 )
Dumping 'jdft.kPts' ... done
Dumping 'jdft.dosUp' ... done.
Dumping 'jdft.dosDn' ... done.
End date and time: Mon Dec  6 19:38:04 2021  (Duration: 0-2:54:07.37)
Done!
