
*************** JDFTx 1.6.0  ***************

Start date and time: Thu Feb 17 03:59:11 2022
Executable /projects/musgravc/apps/jdftx-1.6.1/build/jdftx with command-line: -i in
Running on hosts (process indices):  shas0353.rc.int.colorado.edu (0-23)
Divided in process groups (process indices):  0 (0)  1 (1)  2 (2)  3 (3)  4 (4)  5 (5)  6 (6)  7 (7)  8 (8)  9 (9)  10 (10)  11 (11)  12 (12)  13 (13)  14 (14)  15 (15)  16 (16)  17 (17)  18 (18)  19 (19)  20 (20)  21 (21)  22 (22)  23 (23)
Resource initialization completed at t[s]:      0.00
Run totals: 24 processes, 24 threads, 0 GPUs


Input parsed successfully to the following command list (including defaults):

basis kpoint-dependent
converge-empty-states yes
coords-type Cartesian
core-overlap-check none
coulomb-interaction Periodic
davidson-band-ratio 1.1
density-of-states Etol 1.000000e-06 Esigma 1.000000e-03 \
		Complete \
	Total \
	OrthoOrbital Pt 1   s \
	OrthoOrbital Pt 1   p \
	OrthoOrbital Pt 1   px \
	OrthoOrbital Pt 1   py \
	OrthoOrbital Pt 1   pz \
	OrthoOrbital Pt 1   d \
	OrthoOrbital Pt 1   dxy \
	OrthoOrbital Pt 1   dyz \
	OrthoOrbital Pt 1   dz2 \
	OrthoOrbital Pt 1   dxz \
	OrthoOrbital Pt 1   dx2-y2 \
	OrthoOrbital Pt 2   s \
	OrthoOrbital Pt 2   p \
	OrthoOrbital Pt 2   px \
	OrthoOrbital Pt 2   py \
	OrthoOrbital Pt 2   pz \
	OrthoOrbital Pt 2   d \
	OrthoOrbital Pt 2   dxy \
	OrthoOrbital Pt 2   dyz \
	OrthoOrbital Pt 2   dz2 \
	OrthoOrbital Pt 2   dxz \
	OrthoOrbital Pt 2   dx2-y2 \
	OrthoOrbital Pt 3   s \
	OrthoOrbital Pt 3   p \
	OrthoOrbital Pt 3   px \
	OrthoOrbital Pt 3   py \
	OrthoOrbital Pt 3   pz \
	OrthoOrbital Pt 3   d \
	OrthoOrbital Pt 3   dxy \
	OrthoOrbital Pt 3   dyz \
	OrthoOrbital Pt 3   dz2 \
	OrthoOrbital Pt 3   dxz \
	OrthoOrbital Pt 3   dx2-y2 \
	OrthoOrbital Pt 4   s \
	OrthoOrbital Pt 4   p \
	OrthoOrbital Pt 4   px \
	OrthoOrbital Pt 4   py \
	OrthoOrbital Pt 4   pz \
	OrthoOrbital Pt 4   d \
	OrthoOrbital Pt 4   dxy \
	OrthoOrbital Pt 4   dyz \
	OrthoOrbital Pt 4   dz2 \
	OrthoOrbital Pt 4   dxz \
	OrthoOrbital Pt 4   dx2-y2 \
	OrthoOrbital Pt 5   s \
	OrthoOrbital Pt 5   p \
	OrthoOrbital Pt 5   px \
	OrthoOrbital Pt 5   py \
	OrthoOrbital Pt 5   pz \
	OrthoOrbital Pt 5   d \
	OrthoOrbital Pt 5   dxy \
	OrthoOrbital Pt 5   dyz \
	OrthoOrbital Pt 5   dz2 \
	OrthoOrbital Pt 5   dxz \
	OrthoOrbital Pt 5   dx2-y2 \
	OrthoOrbital Pt 6   s \
	OrthoOrbital Pt 6   p \
	OrthoOrbital Pt 6   px \
	OrthoOrbital Pt 6   py \
	OrthoOrbital Pt 6   pz \
	OrthoOrbital Pt 6   d \
	OrthoOrbital Pt 6   dxy \
	OrthoOrbital Pt 6   dyz \
	OrthoOrbital Pt 6   dz2 \
	OrthoOrbital Pt 6   dxz \
	OrthoOrbital Pt 6   dx2-y2 \
	OrthoOrbital Pt 7   s \
	OrthoOrbital Pt 7   p \
	OrthoOrbital Pt 7   px \
	OrthoOrbital Pt 7   py \
	OrthoOrbital Pt 7   pz \
	OrthoOrbital Pt 7   d \
	OrthoOrbital Pt 7   dxy \
	OrthoOrbital Pt 7   dyz \
	OrthoOrbital Pt 7   dz2 \
	OrthoOrbital Pt 7   dxz \
	OrthoOrbital Pt 7   dx2-y2 \
	OrthoOrbital Pt 8   s \
	OrthoOrbital Pt 8   p \
	OrthoOrbital Pt 8   px \
	OrthoOrbital Pt 8   py \
	OrthoOrbital Pt 8   pz \
	OrthoOrbital Pt 8   d \
	OrthoOrbital Pt 8   dxy \
	OrthoOrbital Pt 8   dyz \
	OrthoOrbital Pt 8   dz2 \
	OrthoOrbital Pt 8   dxz \
	OrthoOrbital Pt 8   dx2-y2 \
	OrthoOrbital Pt 9   s \
	OrthoOrbital Pt 9   p \
	OrthoOrbital Pt 9   px \
	OrthoOrbital Pt 9   py \
	OrthoOrbital Pt 9   pz \
	OrthoOrbital Pt 9   d \
	OrthoOrbital Pt 9   dxy \
	OrthoOrbital Pt 9   dyz \
	OrthoOrbital Pt 9   dz2 \
	OrthoOrbital Pt 9   dxz \
	OrthoOrbital Pt 9   dx2-y2 \
	OrthoOrbital Pt 10   s \
	OrthoOrbital Pt 10   p \
	OrthoOrbital Pt 10   px \
	OrthoOrbital Pt 10   py \
	OrthoOrbital Pt 10   pz \
	OrthoOrbital Pt 10   d \
	OrthoOrbital Pt 10   dxy \
	OrthoOrbital Pt 10   dyz \
	OrthoOrbital Pt 10   dz2 \
	OrthoOrbital Pt 10   dxz \
	OrthoOrbital Pt 10   dx2-y2 \
	OrthoOrbital Pt 11   s \
	OrthoOrbital Pt 11   p \
	OrthoOrbital Pt 11   px \
	OrthoOrbital Pt 11   py \
	OrthoOrbital Pt 11   pz \
	OrthoOrbital Pt 11   d \
	OrthoOrbital Pt 11   dxy \
	OrthoOrbital Pt 11   dyz \
	OrthoOrbital Pt 11   dz2 \
	OrthoOrbital Pt 11   dxz \
	OrthoOrbital Pt 11   dx2-y2 \
	OrthoOrbital Pt 12   s \
	OrthoOrbital Pt 12   p \
	OrthoOrbital Pt 12   px \
	OrthoOrbital Pt 12   py \
	OrthoOrbital Pt 12   pz \
	OrthoOrbital Pt 12   d \
	OrthoOrbital Pt 12   dxy \
	OrthoOrbital Pt 12   dyz \
	OrthoOrbital Pt 12   dz2 \
	OrthoOrbital Pt 12   dxz \
	OrthoOrbital Pt 12   dx2-y2 \
	OrthoOrbital Pt 13   s \
	OrthoOrbital Pt 13   p \
	OrthoOrbital Pt 13   px \
	OrthoOrbital Pt 13   py \
	OrthoOrbital Pt 13   pz \
	OrthoOrbital Pt 13   d \
	OrthoOrbital Pt 13   dxy \
	OrthoOrbital Pt 13   dyz \
	OrthoOrbital Pt 13   dz2 \
	OrthoOrbital Pt 13   dxz \
	OrthoOrbital Pt 13   dx2-y2 \
	OrthoOrbital Pt 14   s \
	OrthoOrbital Pt 14   p \
	OrthoOrbital Pt 14   px \
	OrthoOrbital Pt 14   py \
	OrthoOrbital Pt 14   pz \
	OrthoOrbital Pt 14   d \
	OrthoOrbital Pt 14   dxy \
	OrthoOrbital Pt 14   dyz \
	OrthoOrbital Pt 14   dz2 \
	OrthoOrbital Pt 14   dxz \
	OrthoOrbital Pt 14   dx2-y2 \
	OrthoOrbital Pt 15   s \
	OrthoOrbital Pt 15   p \
	OrthoOrbital Pt 15   px \
	OrthoOrbital Pt 15   py \
	OrthoOrbital Pt 15   pz \
	OrthoOrbital Pt 15   d \
	OrthoOrbital Pt 15   dxy \
	OrthoOrbital Pt 15   dyz \
	OrthoOrbital Pt 15   dz2 \
	OrthoOrbital Pt 15   dxz \
	OrthoOrbital Pt 15   dx2-y2 \
	OrthoOrbital Pt 16   s \
	OrthoOrbital Pt 16   p \
	OrthoOrbital Pt 16   px \
	OrthoOrbital Pt 16   py \
	OrthoOrbital Pt 16   pz \
	OrthoOrbital Pt 16   d \
	OrthoOrbital Pt 16   dxy \
	OrthoOrbital Pt 16   dyz \
	OrthoOrbital Pt 16   dz2 \
	OrthoOrbital Pt 16   dxz \
	OrthoOrbital Pt 16   dx2-y2 \
	OrthoOrbital Pt 17   s \
	OrthoOrbital Pt 17   p \
	OrthoOrbital Pt 17   px \
	OrthoOrbital Pt 17   py \
	OrthoOrbital Pt 17   pz \
	OrthoOrbital Pt 17   d \
	OrthoOrbital Pt 17   dxy \
	OrthoOrbital Pt 17   dyz \
	OrthoOrbital Pt 17   dz2 \
	OrthoOrbital Pt 17   dxz \
	OrthoOrbital Pt 17   dx2-y2 \
	OrthoOrbital Pt 18   s \
	OrthoOrbital Pt 18   p \
	OrthoOrbital Pt 18   px \
	OrthoOrbital Pt 18   py \
	OrthoOrbital Pt 18   pz \
	OrthoOrbital Pt 18   d \
	OrthoOrbital Pt 18   dxy \
	OrthoOrbital Pt 18   dyz \
	OrthoOrbital Pt 18   dz2 \
	OrthoOrbital Pt 18   dxz \
	OrthoOrbital Pt 18   dx2-y2 \
	OrthoOrbital Pt 19   s \
	OrthoOrbital Pt 19   p \
	OrthoOrbital Pt 19   px \
	OrthoOrbital Pt 19   py \
	OrthoOrbital Pt 19   pz \
	OrthoOrbital Pt 19   d \
	OrthoOrbital Pt 19   dxy \
	OrthoOrbital Pt 19   dyz \
	OrthoOrbital Pt 19   dz2 \
	OrthoOrbital Pt 19   dxz \
	OrthoOrbital Pt 19   dx2-y2 \
	OrthoOrbital Pt 20   s \
	OrthoOrbital Pt 20   p \
	OrthoOrbital Pt 20   px \
	OrthoOrbital Pt 20   py \
	OrthoOrbital Pt 20   pz \
	OrthoOrbital Pt 20   d \
	OrthoOrbital Pt 20   dxy \
	OrthoOrbital Pt 20   dyz \
	OrthoOrbital Pt 20   dz2 \
	OrthoOrbital Pt 20   dxz \
	OrthoOrbital Pt 20   dx2-y2 \
	OrthoOrbital Pt 21   s \
	OrthoOrbital Pt 21   p \
	OrthoOrbital Pt 21   px \
	OrthoOrbital Pt 21   py \
	OrthoOrbital Pt 21   pz \
	OrthoOrbital Pt 21   d \
	OrthoOrbital Pt 21   dxy \
	OrthoOrbital Pt 21   dyz \
	OrthoOrbital Pt 21   dz2 \
	OrthoOrbital Pt 21   dxz \
	OrthoOrbital Pt 21   dx2-y2 \
	OrthoOrbital Pt 22   s \
	OrthoOrbital Pt 22   p \
	OrthoOrbital Pt 22   px \
	OrthoOrbital Pt 22   py \
	OrthoOrbital Pt 22   pz \
	OrthoOrbital Pt 22   d \
	OrthoOrbital Pt 22   dxy \
	OrthoOrbital Pt 22   dyz \
	OrthoOrbital Pt 22   dz2 \
	OrthoOrbital Pt 22   dxz \
	OrthoOrbital Pt 22   dx2-y2 \
	OrthoOrbital Pt 23   s \
	OrthoOrbital Pt 23   p \
	OrthoOrbital Pt 23   px \
	OrthoOrbital Pt 23   py \
	OrthoOrbital Pt 23   pz \
	OrthoOrbital Pt 23   d \
	OrthoOrbital Pt 23   dxy \
	OrthoOrbital Pt 23   dyz \
	OrthoOrbital Pt 23   dz2 \
	OrthoOrbital Pt 23   dxz \
	OrthoOrbital Pt 23   dx2-y2 \
	OrthoOrbital Pt 24   s \
	OrthoOrbital Pt 24   p \
	OrthoOrbital Pt 24   px \
	OrthoOrbital Pt 24   py \
	OrthoOrbital Pt 24   pz \
	OrthoOrbital Pt 24   d \
	OrthoOrbital Pt 24   dxy \
	OrthoOrbital Pt 24   dyz \
	OrthoOrbital Pt 24   dz2 \
	OrthoOrbital Pt 24   dxz \
	OrthoOrbital Pt 24   dx2-y2 \
	OrthoOrbital Pt 25   s \
	OrthoOrbital Pt 25   p \
	OrthoOrbital Pt 25   px \
	OrthoOrbital Pt 25   py \
	OrthoOrbital Pt 25   pz \
	OrthoOrbital Pt 25   d \
	OrthoOrbital Pt 25   dxy \
	OrthoOrbital Pt 25   dyz \
	OrthoOrbital Pt 25   dz2 \
	OrthoOrbital Pt 25   dxz \
	OrthoOrbital Pt 25   dx2-y2 \
	OrthoOrbital Pt 26   s \
	OrthoOrbital Pt 26   p \
	OrthoOrbital Pt 26   px \
	OrthoOrbital Pt 26   py \
	OrthoOrbital Pt 26   pz \
	OrthoOrbital Pt 26   d \
	OrthoOrbital Pt 26   dxy \
	OrthoOrbital Pt 26   dyz \
	OrthoOrbital Pt 26   dz2 \
	OrthoOrbital Pt 26   dxz \
	OrthoOrbital Pt 26   dx2-y2 \
	OrthoOrbital Pt 27   s \
	OrthoOrbital Pt 27   p \
	OrthoOrbital Pt 27   px \
	OrthoOrbital Pt 27   py \
	OrthoOrbital Pt 27   pz \
	OrthoOrbital Pt 27   d \
	OrthoOrbital Pt 27   dxy \
	OrthoOrbital Pt 27   dyz \
	OrthoOrbital Pt 27   dz2 \
	OrthoOrbital Pt 27   dxz \
	OrthoOrbital Pt 27   dx2-y2 \
	OrthoOrbital Pt 28   s \
	OrthoOrbital Pt 28   p \
	OrthoOrbital Pt 28   px \
	OrthoOrbital Pt 28   py \
	OrthoOrbital Pt 28   pz \
	OrthoOrbital Pt 28   d \
	OrthoOrbital Pt 28   dxy \
	OrthoOrbital Pt 28   dyz \
	OrthoOrbital Pt 28   dz2 \
	OrthoOrbital Pt 28   dxz \
	OrthoOrbital Pt 28   dx2-y2 \
	OrthoOrbital Pt 29   s \
	OrthoOrbital Pt 29   p \
	OrthoOrbital Pt 29   px \
	OrthoOrbital Pt 29   py \
	OrthoOrbital Pt 29   pz \
	OrthoOrbital Pt 29   d \
	OrthoOrbital Pt 29   dxy \
	OrthoOrbital Pt 29   dyz \
	OrthoOrbital Pt 29   dz2 \
	OrthoOrbital Pt 29   dxz \
	OrthoOrbital Pt 29   dx2-y2 \
	OrthoOrbital Pt 30   s \
	OrthoOrbital Pt 30   p \
	OrthoOrbital Pt 30   px \
	OrthoOrbital Pt 30   py \
	OrthoOrbital Pt 30   pz \
	OrthoOrbital Pt 30   d \
	OrthoOrbital Pt 30   dxy \
	OrthoOrbital Pt 30   dyz \
	OrthoOrbital Pt 30   dz2 \
	OrthoOrbital Pt 30   dxz \
	OrthoOrbital Pt 30   dx2-y2 \
	OrthoOrbital Pt 31   s \
	OrthoOrbital Pt 31   p \
	OrthoOrbital Pt 31   px \
	OrthoOrbital Pt 31   py \
	OrthoOrbital Pt 31   pz \
	OrthoOrbital Pt 31   d \
	OrthoOrbital Pt 31   dxy \
	OrthoOrbital Pt 31   dyz \
	OrthoOrbital Pt 31   dz2 \
	OrthoOrbital Pt 31   dxz \
	OrthoOrbital Pt 31   dx2-y2 \
	OrthoOrbital Pt 32   s \
	OrthoOrbital Pt 32   p \
	OrthoOrbital Pt 32   px \
	OrthoOrbital Pt 32   py \
	OrthoOrbital Pt 32   pz \
	OrthoOrbital Pt 32   d \
	OrthoOrbital Pt 32   dxy \
	OrthoOrbital Pt 32   dyz \
	OrthoOrbital Pt 32   dz2 \
	OrthoOrbital Pt 32   dxz \
	OrthoOrbital Pt 32   dx2-y2 \
	OrthoOrbital C 1   s \
	OrthoOrbital C 1   p \
	OrthoOrbital C 1   px \
	OrthoOrbital C 1   py \
	OrthoOrbital C 1   pz \
	OrthoOrbital O 1   s \
	OrthoOrbital O 1   p \
	OrthoOrbital O 1   px \
	OrthoOrbital O 1   py \
	OrthoOrbital O 1   pz
dump End ElecDensity KEdensity BandEigs EigStats RhoAtom DOS Kpoints
dump Ionic State IonicPositions Lattice EigStats Ecomponents
dump 
dump 
dump 
dump 
dump 
dump 
dump 
dump 
dump-name jdft.$VAR
elec-cutoff 20
elec-eigen-algo Davidson
elec-ex-corr gga-PBE
elec-initial-magnetization 0.000000 no
elec-n-bands 314
elec-smearing Fermi 0.001
electronic-minimize  \
	dirUpdateScheme      FletcherReeves \
	linminMethod         DirUpdateRecommended \
	nIterations          100 \
	history              15 \
	knormThreshold       0 \
	energyDiffThreshold  1e-07 \
	nEnergyDiff          2 \
	alphaTstart          1 \
	alphaTmin            1e-10 \
	updateTestStepSize   yes \
	alphaTreduceFactor   0.1 \
	alphaTincreaseFactor 3 \
	nAlphaAdjustMax      3 \
	wolfeEnergy          0.0001 \
	wolfeGradient        0.9 \
	fdTest               no
exchange-regularization WignerSeitzTruncated
fluid LinearPCM 298.000000 1.013250
fluid-anion F- 0.5 MeanFieldLJ \
	epsBulk 1 \
	pMol 0 \
	epsInf 1 \
	Pvap 0 \
	sigmaBulk 0 \
	Rvdw 2.24877 \
	Res 0 \
	tauNuc 343133
fluid-cation Na+ 0.5 MeanFieldLJ \
	epsBulk 1 \
	pMol 0 \
	epsInf 1 \
	Pvap 0 \
	sigmaBulk 0 \
	Rvdw 2.19208 \
	Res 0 \
	tauNuc 343133
fluid-ex-corr lda-TF lda-PZ
fluid-gummel-loop 10 1.000000e-05
fluid-minimize  \
	dirUpdateScheme      PolakRibiere \
	linminMethod         DirUpdateRecommended \
	nIterations          400 \
	history              15 \
	knormThreshold       1e-11 \
	energyDiffThreshold  0 \
	nEnergyDiff          2 \
	alphaTstart          1 \
	alphaTmin            1e-10 \
	updateTestStepSize   yes \
	alphaTreduceFactor   0.1 \
	alphaTincreaseFactor 3 \
	nAlphaAdjustMax      6 \
	wolfeEnergy          0.0001 \
	wolfeGradient        0.9 \
	fdTest               no
fluid-solvent H2O 55.338 ScalarEOS \
	epsBulk 78.4 \
	pMol 0.92466 \
	epsInf 1.77 \
	Pvap 1.06736e-10 \
	sigmaBulk 4.62e-05 \
	Rvdw 2.61727 \
	Res 1.42 \
	tauNuc 343133 \
	poleEl 15 7 1
forces-output-coords Positions
ion Pt   0.000010000000000   7.399025000000001  48.561914000000009 0
ion Pt   0.000010000000000  14.798198000000001  48.561914000000009 0
ion Pt   5.232006000000000   7.399025000000001  48.561914000000009 0
ion Pt   5.232006000000000  14.798198000000001  48.561914000000009 0
ion Pt   0.000000000000000   0.000074000000000  43.164379000000004 0
ion Pt   0.000000000000000   7.399232000000001  43.164379000000004 0
ion Pt   5.231996000000000   0.000074000000000  43.164379000000004 0
ion Pt   5.231996000000000   7.399232000000001  43.164379000000004 0
ion Pt   2.615956000000000   3.699298000000001  50.876444000000006 0
ion Pt   2.615956000000000  11.098456000000002  50.876444000000006 0
ion Pt   7.847942000000001   3.699298000000001  50.876444000000006 0
ion Pt   7.847942000000001  11.098456000000002  50.876444000000006 0
ion Pt   2.616040000000000   3.699683000000001  45.754477999999999 0
ion Pt   2.616040000000000  11.098841000000002  45.754477999999999 0
ion Pt   7.848036000000000   3.699683000000001  45.754477999999999 0
ion Pt   7.848036000000000  11.098841000000002  45.754477999999999 0
ion Pt   5.231944000000000   0.000000000000000  37.958072999999999 0
ion Pt   5.231944000000000   7.399158000000001  37.958072999999999 0
ion Pt  10.463950000000001   0.000000000000000  37.958072999999999 0
ion Pt  10.463950000000001   7.399158000000001  37.958072999999999 0
ion Pt   0.000031000000000   0.000118000000000  32.835321000000000 0
ion Pt   0.000031000000000   7.399277000000001  32.835321000000000 0
ion Pt   5.232038000000001   0.000118000000000  32.835321000000000 0
ion Pt   5.232038000000001   7.399277000000001  32.835321000000000 0
ion Pt   2.615946000000000   3.699624000000000  40.547072999999997 0
ion Pt   2.615946000000000  11.098782000000002  40.547072999999997 0
ion Pt   7.847942000000001   3.699624000000000  40.547072999999997 0
ion Pt   7.847942000000001  11.098782000000002  40.547072999999997 0
ion Pt   2.616050000000000   3.699653000000000  35.149956000000003 0
ion Pt   2.616050000000000  11.098796999999999  35.149956000000003 0
ion Pt   7.848046000000001   3.699653000000000  35.149956000000003 0
ion Pt   7.848046000000001  11.098796999999999  35.149956000000003 0
ion C   5.231954000000000   3.699298000000001   0.766330000000000 1  Linear 0 0 1
ion O   5.292038000000001   3.699298000000001   2.921703000000000 1  Linear 0 0 1
ion-species /projects/musgravc/apps/jdftx-1.6.0/build/pseudopotentials/GBRV_v1.5/$ID_pbe_v1.uspp
ion-species /projects/musgravc/apps/jdftx-1.6.0/build/pseudopotentials/GBRV_v1.5/$ID_pbe_v1.2.uspp
ion-species /projects/musgravc/apps/jdftx-1.6.0/build/pseudopotentials/GBRV_v1.5/$ID_pbe_v1.4.uspp
ion-species /projects/musgravc/apps/jdftx-1.6.0/build/pseudopotentials/GBRV_v1.5/$ID_pbe_v1.5.uspp
ion-width Ecut
ionic-minimize  \
	dirUpdateScheme      L-BFGS \
	linminMethod         DirUpdateRecommended \
	nIterations          100 \
	history              15 \
	knormThreshold       0.0001 \
	energyDiffThreshold  1e-06 \
	nEnergyDiff          2 \
	alphaTstart          1 \
	alphaTmin            1e-10 \
	updateTestStepSize   yes \
	alphaTreduceFactor   0.1 \
	alphaTincreaseFactor 3 \
	nAlphaAdjustMax      3 \
	wolfeEnergy          0.0001 \
	wolfeGradient        0.9 \
	fdTest               no
kpoint   0.000000000000   0.000000000000   0.000000000000  1.00000000000000
kpoint-folding 5 4 1 
latt-move-scale 0 0 0
latt-scale 1 1 1 
lattice  \
	  10.463991999999999    0.000000000000000    0.000000000000000  \
	   0.000000000000000   14.798317000000001    0.000000000000000  \
	   0.000000000000000    0.000000000000000   52.319952000000001 
lattice-minimize  \
	dirUpdateScheme      L-BFGS \
	linminMethod         DirUpdateRecommended \
	nIterations          0 \
	history              15 \
	knormThreshold       0 \
	energyDiffThreshold  1e-06 \
	nEnergyDiff          2 \
	alphaTstart          1 \
	alphaTmin            1e-10 \
	updateTestStepSize   yes \
	alphaTreduceFactor   0.1 \
	alphaTincreaseFactor 3 \
	nAlphaAdjustMax      3 \
	wolfeEnergy          0.0001 \
	wolfeGradient        0.9 \
	fdTest               no
lcao-params 30 1e-06 0.001
pcm-variant CANDLE
spintype z-spin
subspace-rotation-factor 1 yes
symmetries automatic
symmetry-threshold 0.0001
van-der-waals D3



---------- Setting up symmetries ----------

Found 8 point-group symmetries of the bravais lattice
Found 1 space-group symmetries with basis
Applied RMS atom displacement 0 bohrs to make symmetries exact.

---------- Initializing the Grid ----------
R = 
[       10.464            0            0  ]
[            0      14.7983            0  ]
[            0            0        52.32  ]
unit cell volume = 8101.72
G =
[   0.600458          0          0  ]
[          0   0.424588          0  ]
[          0          0   0.120092  ]
Minimum fftbox size, Smin = [  44  60  212  ]
Chosen fftbox size, S = [  48  60  216  ]

---------- Exchange Correlation functional ----------
Initalized PBE GGA exchange.
Initalized PBE GGA correlation.

---------- Setting up pseudopotentials ----------
Width of ionic core gaussian charges (only for fluid interactions / plotting) set to 0.397384

Reading pseudopotential file '/projects/musgravc/apps/jdftx-1.6.0/build/pseudopotentials/GBRV_v1.5/pt_pbe_v1.4.uspp':
  Title: Pt.  Created by USPP 7.3.6 on 31-3-15
  Reference state energy: -105.002503.  16 valence electrons in orbitals:
    |510>  occupation: 6  eigenvalue: -2.158104
    |520>  occupation: 9.5  eigenvalue: -0.335376
    |600>  occupation: 0  eigenvalue: -0.319640
    |610>  occupation: 0  eigenvalue: -0.122947
  lMax: 2  lLocal: 3  QijEcut: 5.5
  6 projectors sampled on a log grid with 745 points:
    l: 0  eig: -0.319640  rCut: 2.45
    l: 0  eig: 1.500000  rCut: 2.45
    l: 1  eig: -2.158104  rCut: 1.6
    l: 1  eig: -0.122947  rCut: 1.6
    l: 2  eig: -0.500000  rCut: 1.6
    l: 2  eig: -0.335375  rCut: 1.6
  Partial core density with radius 1.1
  Transforming core density to a uniform radial grid of dG=0.02 with 1165 points.
  Transforming local potential to a uniform radial grid of dG=0.02 with 1165 points.
  Transforming nonlocal projectors to a uniform radial grid of dG=0.02 with 432 points.
  Transforming density augmentations to a uniform radial grid of dG=0.02 with 1165 points.
  Transforming atomic orbitals to a uniform radial grid of dG=0.02 with 432 points.
  Core radius for overlap checks: 2.45 bohrs.

Reading pseudopotential file '/projects/musgravc/apps/jdftx-1.6.0/build/pseudopotentials/GBRV_v1.5/c_pbe_v1.2.uspp':
  Title: C.  Created by USPP 7.3.6 on 3-2-2014
  Reference state energy: -5.406344.  4 valence electrons in orbitals:
    |200>  occupation: 2  eigenvalue: -0.504890
    |210>  occupation: 2  eigenvalue: -0.194356
  lMax: 1  lLocal: 2  QijEcut: 5
  4 projectors sampled on a log grid with 503 points:
    l: 0  eig: -0.504890  rCut: 1.3
    l: 0  eig: 0.000000  rCut: 1.3
    l: 1  eig: -0.194357  rCut: 1.3
    l: 1  eig: 0.000000  rCut: 1.3
  Partial core density with radius 1.1
  Transforming core density to a uniform radial grid of dG=0.02 with 1165 points.
  Transforming local potential to a uniform radial grid of dG=0.02 with 1165 points.
  Transforming nonlocal projectors to a uniform radial grid of dG=0.02 with 432 points.
  Transforming density augmentations to a uniform radial grid of dG=0.02 with 1165 points.
  Transforming atomic orbitals to a uniform radial grid of dG=0.02 with 432 points.
  Core radius for overlap checks: 1.30 bohrs.

Reading pseudopotential file '/projects/musgravc/apps/jdftx-1.6.0/build/pseudopotentials/GBRV_v1.5/o_pbe_v1.2.uspp':
  Title: O.  Created by USPP 7.3.6 on 3-2-2014
  Reference state energy: -15.894388.  6 valence electrons in orbitals:
    |200>  occupation: 2  eigenvalue: -0.878823
    |210>  occupation: 4  eigenvalue: -0.332131
  lMax: 2  lLocal: 2  QijEcut: 6
  5 projectors sampled on a log grid with 511 points:
    l: 0  eig: -0.878823  rCut: 1.25
    l: 0  eig: 0.000000  rCut: 1.25
    l: 1  eig: -0.332132  rCut: 1.25
    l: 1  eig: 0.000000  rCut: 1.25
    l: 2  eig: 1.000000  rCut: 1.25
  Partial core density with radius 0.7
  Transforming core density to a uniform radial grid of dG=0.02 with 1165 points.
  Transforming local potential to a uniform radial grid of dG=0.02 with 1165 points.
  Transforming nonlocal projectors to a uniform radial grid of dG=0.02 with 432 points.
  Transforming density augmentations to a uniform radial grid of dG=0.02 with 1165 points.
  Transforming atomic orbitals to a uniform radial grid of dG=0.02 with 432 points.
  Core radius for overlap checks: 1.25 bohrs.

Initialized 3 species with 34 total atoms.

Folded 1 k-points by 5x4x1 to 20 k-points.

---------- Setting up k-points, bands, fillings ----------
Adding inversion symmetry to k-mesh for non-inversion-symmetric unit cell.
Reduced to 11 k-points under symmetry. 
Computing the number of bands and number of electrons
Calculating initial fillings.
nElectrons: 522.000000   nBands: 314   nStates: 22

----- Setting up reduced wavefunction bases (one per k-point) -----
average nbasis = 34616.150 , ideal nbasis = 34611.152

----- Initializing Supercell corresponding to k-point mesh -----
Lattice vector linear combinations in supercell:
[   5   0   0  ]
[   0   4   0  ]
[   0   0   1  ]
Supercell lattice vectors:
[  52.32  0  0  ]
[  0  59.1933  0  ]
[  0  0  52.32  ]

Initializing DFT-D3 calculator:
	Parameters set for gga-PBE functional
	s6:  1.000  s_r6:  1.217
	s8:  0.722  s_r8:  1.000
	Per-atom parameters loaded for:
	Pt:  sqrtQ[a0]:  5.888  Rcov[a0]:  2.116  CN: [ 0.00 1.92 6.67 ]
	 C:  sqrtQ[a0]:  3.105  Rcov[a0]:  1.417  CN: [ 0.00 0.99 2.00 3.00 3.98 ]
	 O:  sqrtQ[a0]:  2.594  Rcov[a0]:  1.191  CN: [ 0.00 0.99 1.99 ]

Initializing DFT-D2 calculator for fluid / solvation:
	Pt:  C6:  815.23 Eh-a0^6  R0: 3.326 a0 (WARNING: beyond Grimme's data set)
	 C:  C6:   30.35 Eh-a0^6  R0: 2.744 a0
	 O:  C6:   12.14 Eh-a0^6  R0: 2.536 a0

---------- Setting up ewald sum ----------
Optimum gaussian width for ewald sums = 4.451666 bohr.
Real space sum over 585 unit cells with max indices [  6  4  2  ]
Reciprocal space sum over 6435 terms with max indices [  5  7  19  ]

Computing DFT-D3 correction:
# coordination-number Pt 8.660 8.660 8.701 8.701 9.490 9.490 9.490 9.490 7.044 5.950 7.060 5.950 9.420 9.418 9.420 9.418 9.418 9.418 9.418 9.418 5.947 5.947 5.947 5.947 9.491 9.491 9.491 9.491 8.656 8.656 8.656 8.656
# coordination-number C 3.104
# coordination-number O 1.220
# diagonal-C6 Pt 336.87 336.87 336.87 336.87 336.87 336.87 336.87 336.87 336.87 336.87 336.87 336.87 336.87 336.87 336.87 336.87 336.87 336.87 336.87 336.87 336.87 336.87 336.87 336.87 336.87 336.87 336.87 336.87 336.87 336.87 336.87 336.87
# diagonal-C6 C 25.43
# diagonal-C6 O 12.55
EvdW_6 =   -0.273053
EvdW_8 =   -0.445755

---------- Allocating electronic variables ----------
Initializing wave functions:  linear combination of atomic orbitals
Pt pseudo-atom occupations:   s ( 0 )  p ( 6 0 )  d ( 10 )
C pseudo-atom occupations:   s ( 2 )  p ( 2 )
O pseudo-atom occupations:   s ( 2 )  p ( 4 )
	FillingsUpdate:  mu: -0.995293893  nElectrons: 522.000000  magneticMoment: [ Abs: 0.00525  Tot: -0.00066 ]
LCAOMinimize: Iter:   0  F: -2852.2823954542218416  |grad|_K:  1.580e-02  alpha:  1.000e+00
LCAOMinimize: 	Step increased F by 2.437491e+02, reducing alpha to 2.068575e-02.
	FillingsUpdate:  mu: -0.202778219  nElectrons: 522.000000  magneticMoment: [ Abs: 0.00416  Tot: -0.00030 ]
LCAOMinimize: Iter:   1  F: -2862.5234671841358249  |grad|_K:  4.956e-03  alpha:  2.069e-02  linmin: -2.402e-02  cgtest:  1.326e-01  t[s]:    120.62
	FillingsUpdate:  mu: +0.021388808  nElectrons: 522.000000  magneticMoment: [ Abs: 0.00378  Tot: +0.00006 ]
LCAOMinimize: Iter:   2  F: -2863.5939441174755302  |grad|_K:  7.669e-03  alpha:  2.575e-02  linmin:  6.534e-03  cgtest: -3.882e-02  t[s]:    157.18
	FillingsUpdate:  mu: +0.316783111  nElectrons: 522.000000  magneticMoment: [ Abs: 0.00315  Tot: -0.00022 ]
LCAOMinimize: Iter:   3  F: -2866.4532730681462454  |grad|_K:  4.949e-03  alpha:  3.245e-02  linmin:  5.856e-03  cgtest:  7.196e-01  t[s]:    193.48
LCAOMinimize: Encountered beta<0, resetting CG.
	FillingsUpdate:  mu: +0.262115006  nElectrons: 522.000000  magneticMoment: [ Abs: 0.00314  Tot: -0.00024 ]
LCAOMinimize: Iter:   4  F: -2866.7616084940382279  |grad|_K:  2.452e-03  alpha:  7.663e-03  linmin:  1.537e-02  cgtest: -8.429e-02  t[s]:    230.03
LCAOMinimize: 	Predicted alpha/alphaT>3.000000, increasing alphaT to 2.298817e-02.
	FillingsUpdate:  mu: +0.119012054  nElectrons: 522.000000  magneticMoment: [ Abs: 0.00306  Tot: -0.00021 ]
LCAOMinimize: Iter:   5  F: -2867.3865522089158731  |grad|_K:  1.716e-03  alpha:  6.374e-02  linmin: -4.140e-03  cgtest: -9.662e-02  t[s]:    277.84
	FillingsUpdate:  mu: +0.177850492  nElectrons: 522.000000  magneticMoment: [ Abs: 0.00298  Tot: +0.00003 ]
LCAOMinimize: Iter:   6  F: -2867.5202521156311377  |grad|_K:  1.523e-03  alpha:  2.786e-02  linmin:  3.947e-03  cgtest: -9.034e-02  t[s]:    314.29
	FillingsUpdate:  mu: +0.192238142  nElectrons: 522.000000  magneticMoment: [ Abs: 0.00295  Tot: +0.00012 ]
LCAOMinimize: Iter:   7  F: -2867.5731757137132263  |grad|_K:  1.506e-03  alpha:  1.343e-02  linmin: -1.593e-03  cgtest:  1.259e-01  t[s]:    350.62
LCAOMinimize: 	Predicted alpha/alphaT>3.000000, increasing alphaT to 4.028960e-02.
	FillingsUpdate:  mu: +0.166636919  nElectrons: 522.000000  magneticMoment: [ Abs: 0.00276  Tot: -0.00008 ]
LCAOMinimize: Iter:   8  F: -2867.7956915933982600  |grad|_K:  1.001e-03  alpha:  5.503e-02  linmin: -9.125e-03  cgtest: -2.115e-01  t[s]:    396.60
	FillingsUpdate:  mu: +0.231756288  nElectrons: 522.000000  magneticMoment: [ Abs: 0.00266  Tot: -0.00001 ]
LCAOMinimize: Iter:   9  F: -2867.8703252621385218  |grad|_K:  1.983e-03  alpha:  3.976e-02  linmin: -6.937e-05  cgtest: -6.285e-02  t[s]:    432.97
	FillingsUpdate:  mu: +0.237787842  nElectrons: 522.000000  magneticMoment: [ Abs: 0.00249  Tot: +0.00007 ]
LCAOMinimize: Iter:  10  F: -2867.9917836109989366  |grad|_K:  5.145e-04  alpha:  1.867e-02  linmin:  1.236e-03  cgtest:  4.504e-01  t[s]:    469.60
LCAOMinimize: Encountered beta<0, resetting CG.
	FillingsUpdate:  mu: +0.246916254  nElectrons: 522.000000  magneticMoment: [ Abs: 0.00249  Tot: +0.00007 ]
LCAOMinimize: Iter:  11  F: -2868.0055852262289591  |grad|_K:  8.851e-04  alpha:  3.074e-02  linmin:  2.402e-04  cgtest: -2.398e-03  t[s]:    506.15
	FillingsUpdate:  mu: +0.217142382  nElectrons: 522.000000  magneticMoment: [ Abs: 0.00248  Tot: +0.00008 ]
LCAOMinimize: Iter:  12  F: -2868.0301384198519372  |grad|_K:  3.057e-04  alpha:  1.858e-02  linmin:  1.939e-04  cgtest: -6.019e-02  t[s]:    542.51
LCAOMinimize: 	Predicted alpha/alphaT>3.000000, increasing alphaT to 5.573721e-02.
	FillingsUpdate:  mu: +0.202845371  nElectrons: 522.000000  magneticMoment: [ Abs: 0.00248  Tot: +0.00010 ]
LCAOMinimize: Iter:  13  F: -2868.0452041753242156  |grad|_K:  2.032e-04  alpha:  9.624e-02  linmin:  3.969e-03  cgtest:  1.053e-01  t[s]:    588.97
	FillingsUpdate:  mu: +0.204233092  nElectrons: 522.000000  magneticMoment: [ Abs: 0.00248  Tot: +0.00011 ]
LCAOMinimize: Iter:  14  F: -2868.0472667069152521  |grad|_K:  3.289e-04  alpha:  2.893e-02  linmin: -1.711e-03  cgtest:  4.264e-02  t[s]:    625.29
	FillingsUpdate:  mu: +0.198255123  nElectrons: 522.000000  magneticMoment: [ Abs: 0.00247  Tot: +0.00010 ]
LCAOMinimize: Iter:  15  F: -2868.0507009314760580  |grad|_K:  1.121e-04  alpha:  1.830e-02  linmin:  2.405e-04  cgtest: -2.770e-01  t[s]:    661.59
	FillingsUpdate:  mu: +0.198954559  nElectrons: 522.000000  magneticMoment: [ Abs: 0.00247  Tot: +0.00011 ]
LCAOMinimize: Iter:  16  F: -2868.0516052617399509  |grad|_K:  1.930e-04  alpha:  4.258e-02  linmin:  1.574e-04  cgtest:  1.687e-02  t[s]:    697.90
	FillingsUpdate:  mu: +0.197523846  nElectrons: 522.000000  magneticMoment: [ Abs: 0.00248  Tot: +0.00012 ]
LCAOMinimize: Iter:  17  F: -2868.0525662820100479  |grad|_K:  1.218e-04  alpha:  1.511e-02  linmin: -4.576e-04  cgtest:  2.050e-02  t[s]:    734.27
	FillingsUpdate:  mu: +0.196223563  nElectrons: 522.000000  magneticMoment: [ Abs: 0.00248  Tot: +0.00014 ]
LCAOMinimize: Iter:  18  F: -2868.0536282876923906  |grad|_K:  1.549e-04  alpha:  4.217e-02  linmin:  4.821e-04  cgtest: -2.083e-02  t[s]:    770.64
	FillingsUpdate:  mu: +0.195411102  nElectrons: 522.000000  magneticMoment: [ Abs: 0.00249  Tot: +0.00015 ]
LCAOMinimize: Iter:  19  F: -2868.0540639624723553  |grad|_K:  8.988e-05  alpha:  1.090e-02  linmin:  3.475e-04  cgtest:  3.543e-02  t[s]:    807.05
LCAOMinimize: 	Predicted alpha/alphaT>3.000000, increasing alphaT to 3.269992e-02.
	FillingsUpdate:  mu: +0.197194781  nElectrons: 522.000000  magneticMoment: [ Abs: 0.00249  Tot: +0.00016 ]
LCAOMinimize: Iter:  20  F: -2868.0545603313207721  |grad|_K:  8.112e-05  alpha:  3.636e-02  linmin:  2.681e-04  cgtest: -1.090e-02  t[s]:    853.34
	FillingsUpdate:  mu: +0.197086651  nElectrons: 522.000000  magneticMoment: [ Abs: 0.00250  Tot: +0.00017 ]
LCAOMinimize: Iter:  21  F: -2868.0546867400203155  |grad|_K:  5.809e-05  alpha:  1.139e-02  linmin:  1.700e-04  cgtest:  8.782e-04  t[s]:    889.98
	FillingsUpdate:  mu: +0.196469819  nElectrons: 522.000000  magneticMoment: [ Abs: 0.00250  Tot: +0.00018 ]
LCAOMinimize: Iter:  22  F: -2868.0548416250026094  |grad|_K:  4.085e-05  alpha:  2.705e-02  linmin: -1.490e-04  cgtest: -8.942e-04  t[s]:    926.37
	FillingsUpdate:  mu: +0.196939157  nElectrons: 522.000000  magneticMoment: [ Abs: 0.00250  Tot: +0.00019 ]
LCAOMinimize: Iter:  23  F: -2868.0549068949953835  |grad|_K:  5.439e-05  alpha:  2.299e-02  linmin: -3.873e-05  cgtest: -1.203e-03  t[s]:    962.82
	FillingsUpdate:  mu: +0.198416874  nElectrons: 522.000000  magneticMoment: [ Abs: 0.00251  Tot: +0.00020 ]
LCAOMinimize: Iter:  24  F: -2868.0550145436204730  |grad|_K:  3.745e-05  alpha:  2.140e-02  linmin:  5.508e-05  cgtest: -1.043e-02  t[s]:    999.28
	FillingsUpdate:  mu: +0.199177541  nElectrons: 522.000000  magneticMoment: [ Abs: 0.00252  Tot: +0.00022 ]
LCAOMinimize: Iter:  25  F: -2868.0551085687588966  |grad|_K:  5.462e-05  alpha:  3.939e-02  linmin: -1.716e-04  cgtest: -1.125e-03  t[s]:   1035.66
	FillingsUpdate:  mu: +0.199584148  nElectrons: 522.000000  magneticMoment: [ Abs: 0.00253  Tot: +0.00024 ]
LCAOMinimize: Iter:  26  F: -2868.0551688655173166  |grad|_K:  2.662e-05  alpha:  1.178e-02  linmin: -3.557e-04  cgtest: -1.356e-02  t[s]:   1072.21
LCAOMinimize: 	Predicted alpha/alphaT>3.000000, increasing alphaT to 3.535112e-02.
	FillingsUpdate:  mu: +0.199895191  nElectrons: 522.000000  magneticMoment: [ Abs: 0.00254  Tot: +0.00025 ]
LCAOMinimize: Iter:  27  F: -2868.0552129119946585  |grad|_K:  2.800e-05  alpha:  3.644e-02  linmin: -4.184e-05  cgtest: -1.981e-03  t[s]:   1118.25
	FillingsUpdate:  mu: +0.200062146  nElectrons: 522.000000  magneticMoment: [ Abs: 0.00254  Tot: +0.00026 ]
LCAOMinimize: Iter:  28  F: -2868.0552264316111177  |grad|_K:  1.557e-05  alpha:  1.012e-02  linmin: -1.958e-04  cgtest:  4.418e-03  t[s]:   1154.96
LCAOMinimize: 	Predicted alpha/alphaT>3.000000, increasing alphaT to 3.037012e-02.
	FillingsUpdate:  mu: +0.200165429  nElectrons: 522.000000  magneticMoment: [ Abs: 0.00255  Tot: +0.00027 ]
LCAOMinimize: Iter:  29  F: -2868.0552403709693863  |grad|_K:  1.267e-05  alpha:  3.379e-02  linmin: -1.564e-05  cgtest: -3.061e-03  t[s]:   1201.04
	FillingsUpdate:  mu: +0.200117268  nElectrons: 522.000000  magneticMoment: [ Abs: 0.00255  Tot: +0.00027 ]
LCAOMinimize: Iter:  30  F: -2868.0552435512504417  |grad|_K:  9.650e-06  alpha:  1.165e-02  linmin:  1.091e-05  cgtest:  6.336e-04  t[s]:   1237.69
LCAOMinimize: None of the convergence criteria satisfied after 30 iterations.
----- createFluidSolver() ----- (Fluid-side solver setup)
   Initializing fluid molecule 'H2O'
     Initializing site 'O'
       Electron density: proportional to exp(-r/0.36935)*erfc((r-0.51523)/0.36823) with norm 6.826
       Charge density: gaussian nuclear width 0.478731 with net site charge 0.826
       Polarizability: cuspless exponential with width 0.32 and norm 3.73
       Hard sphere radius: 2.57003 bohrs
       Positions in reference frame:
         [ +0.000000 +0.000000 +0.000000 ]
     Initializing site 'H'
       Electron density: proportional to exp(-r/0.34641)*erfc((r-0)/0.390882) with norm 0.587
       Charge density: gaussian nuclear width 0.377945 with net site charge -0.413
       Polarizability: cuspless exponential with width 0.39 and norm 3.3
       Positions in reference frame:
         [ +0.000000 -1.441945 +1.122523 ]
         [ +0.000000 +1.441945 +1.122523 ]
     Net charge: 0   dipole magnitude: 0.927204
     Initializing spherical shell mfKernel with radius 2.61727 Bohr
     deltaS corrections:
       site 'O': -7.54299
       site 'H': -6.83917
   Initializing fluid molecule 'Na+'
     Initializing site 'Na'
       Electron density: proportional to exp(-r/0.19682)*erfc((r-0.71491)/0.41314) with norm 8.1383
       Charge density: gaussian nuclear width 0.365347 with net site charge -1
       Hard sphere radius: 1.86327 bohrs
       Positions in reference frame:
         [ +0.000000 +0.000000 +0.000000 ]
     Net charge: -1   dipole magnitude: 0
     Initializing gaussian mfKernel with width: 1.55004 Bohr
     deltaS corrections:
       site 'Na': -22.3555
   Initializing fluid molecule 'F-'
     Initializing site 'F'
       Electron density: proportional to exp(-r/0.38886)*erfc((r-0)/0.438782) with norm 8
       Charge density: gaussian nuclear width 0.374796 with net site charge 1
       Hard sphere radius: 2.39995 bohrs
       Positions in reference frame:
         [ +0.000000 +0.000000 +0.000000 ]
     Net charge: 1   dipole magnitude: 0
     Initializing gaussian mfKernel with width: 1.59012 Bohr
     deltaS corrections:
       site 'F': -9.04335

Correction to mu due to finite nuclear width = -0.0639283
   Cavity determined by nc: 0.00142 and sigma: 0.707107
   Nonlocal vdW cavity from gaussian model electron density with norm = 8 and sigma = 0.993594 bohr
   Charge asymmetry in cavity with sensitivity pCavity = 36.5 e-bohr/Eh
   Electrostatic cavity expanded by eta = 1.46 bohrs
   Weighted density cavitation model constrained by Nbulk: 0.0049383 bohr^-3, Pvap: 3.14029 kPa, Rvdw: 2.61727 bohr and sigmaBulk: 4.62e-05 Eh/bohr^2 at T: 298 K.
   Weighted density dispersion model using vdW pair potentials with single solvent site with sqrtC6eff: 0.77 SI.


---- Citations for features of the code used in this run ----

   Software package:
      R. Sundararaman, K. Letchworth-Weaver, K.A. Schwarz, D. Gunceler, Y. Ozhabes and T.A. Arias, 'JDFTx: software for joint density-functional theory', SoftwareX 6, 278 (2017)

   gga-PBE exchange-correlation functional:
      J.P. Perdew, K. Burke and M. Ernzerhof, Phys. Rev. Lett. 77, 3865 (1996)

   Pseudopotentials:
      KF Garrity, JW Bennett, KM Rabe and D Vanderbilt, Comput. Mater. Sci. 81, 446 (2014)

   DFT-D3 dispersion correction:
      S. Grimme, J. Antony, S. Ehrlich and H. Krieg, J. Chem. Phys. 132, 154104 (2010)

   DFT-D2 dispersion correction:
      S. Grimme, J. Comput. Chem. 27, 1787 (2006)

   Charge-asymmetric nonlocally-determined local-electric (CANDLE) solvation model:
      R. Sundararaman and W.A. Goddard III, J. Chem. Phys. 142, 064107 (2015)

   Total energy minimization with Auxiliary Hamiltonian:
      C. Freysoldt, S. Boeck, and J. Neugebauer, Phys. Rev. B 79, 241103(R) (2009)

   Linear-tetrahedron sampling for density of states:
      G. Lehmann and M. Taut, Phys. status solidi (b) 54, 469 (1972)

This list may not be complete. Please suggest additional citations or
report any other bugs at https://github.com/shankar1729/jdftx/issues

Initialization completed successfully at t[s]:   1248.99


Computing DFT-D3 correction:
# coordination-number Pt 8.660 8.660 8.701 8.701 9.490 9.490 9.490 9.490 7.044 5.950 7.060 5.950 9.420 9.418 9.420 9.418 9.418 9.418 9.418 9.418 5.947 5.947 5.947 5.947 9.491 9.491 9.491 9.491 8.656 8.656 8.656 8.656
# coordination-number C 3.104
# coordination-number O 1.220
# diagonal-C6 Pt 336.87 336.87 336.87 336.87 336.87 336.87 336.87 336.87 336.87 336.87 336.87 336.87 336.87 336.87 336.87 336.87 336.87 336.87 336.87 336.87 336.87 336.87 336.87 336.87 336.87 336.87 336.87 336.87 336.87 336.87 336.87 336.87
# diagonal-C6 C 25.43
# diagonal-C6 O 12.55
EvdW_6 =   -0.273053
EvdW_8 =   -0.445755
Fluid solver invoked on fresh (random / LCAO) wavefunctions
Running a vacuum solve first:

-------- Initial electronic minimization -----------
	FillingsUpdate:  mu: +0.200117298  nElectrons: 522.000000  magneticMoment: [ Abs: 0.00255  Tot: +0.00027 ]
ElecMinimize: Iter:   0  F: -2868.055243551251351  |grad|_K:  6.917e-05  alpha:  1.000e+00
	FillingsUpdate:  mu: +0.236937377  nElectrons: 522.000000  magneticMoment: [ Abs: 0.00202  Tot: +0.00032 ]
	SubspaceRotationAdjust: set factor to 0.723
ElecMinimize: Iter:   1  F: -2868.549120527619834  |grad|_K:  5.751e-05  alpha:  4.341e-01  linmin:  5.103e-05  t[s]:   1339.05
	FillingsUpdate:  mu: +0.236512120  nElectrons: 522.000000  magneticMoment: [ Abs: 0.00200  Tot: +0.00032 ]
	SubspaceRotationAdjust: set factor to 0.401
ElecMinimize: Iter:   2  F: -2868.555341283060443  |grad|_K:  5.120e-05  alpha:  1.120e-02  linmin:  1.085e-03  t[s]:   1396.51
ElecMinimize: 	Predicted alpha/alphaT>3.000000, increasing alphaT to 3.359435e-02.
ElecMinimize: 	Predicted alpha/alphaT>3.000000, increasing alphaT to 1.007830e-01.
	FillingsUpdate:  mu: +0.244394634  nElectrons: 522.000000  magneticMoment: [ Abs: 0.00166  Tot: +0.00030 ]
	SubspaceRotationAdjust: set factor to 0.212
ElecMinimize: Iter:   3  F: -2868.626939359368862  |grad|_K:  8.428e-05  alpha:  1.609e-01  linmin:  3.070e-05  t[s]:   1483.35
	FillingsUpdate:  mu: +0.206405591  nElectrons: 522.000000  magneticMoment: [ Abs: 0.00156  Tot: +0.00031 ]
	SubspaceRotationAdjust: set factor to 0.102
	SubspaceRotationAdjust: resetting CG because factor has changed by 0.101648
ElecMinimize: 	State modified externally: resetting search direction.
ElecMinimize: Iter:   4  F: -2868.656388941228670  |grad|_K:  2.048e-05  alpha:  1.893e-02
ElecMinimize: 	Predicted alpha/alphaT>3.000000, increasing alphaT to 5.679302e-02.
ElecMinimize: 	Predicted alpha/alphaT>3.000000, increasing alphaT to 1.703791e-01.
	FillingsUpdate:  mu: +0.232626895  nElectrons: 522.000000  magneticMoment: [ Abs: 0.00142  Tot: +0.00030 ]
	SubspaceRotationAdjust: set factor to 0.0655
ElecMinimize: Iter:   5  F: -2868.678523655322351  |grad|_K:  2.130e-05  alpha:  2.201e-01  linmin:  2.296e-04  t[s]:   1656.21
	FillingsUpdate:  mu: +0.225795300  nElectrons: 522.000000  magneticMoment: [ Abs: 0.00132  Tot: +0.00029 ]
	SubspaceRotationAdjust: set factor to 0.0421
ElecMinimize: Iter:   6  F: -2868.688901252984124  |grad|_K:  9.747e-06  alpha:  9.527e-02  linmin: -9.600e-05  t[s]:   1713.70
ElecMinimize: 	Predicted alpha/alphaT>3.000000, increasing alphaT to 2.858151e-01.
	FillingsUpdate:  mu: +0.212910326  nElectrons: 522.000000  magneticMoment: [ Abs: 0.00113  Tot: +0.00029 ]
	SubspaceRotationAdjust: set factor to 0.0425
ElecMinimize: Iter:   7  F: -2868.696785170857765  |grad|_K:  6.831e-06  alpha:  3.448e-01  linmin:  4.290e-05  t[s]:   1786.80
	FillingsUpdate:  mu: +0.215240043  nElectrons: 522.000000  magneticMoment: [ Abs: 0.00098  Tot: +0.00029 ]
	SubspaceRotationAdjust: set factor to 0.0348
ElecMinimize: Iter:   8  F: -2868.700343053447341  |grad|_K:  6.488e-06  alpha:  3.178e-01  linmin:  5.059e-06  t[s]:   1844.35
	FillingsUpdate:  mu: +0.218278855  nElectrons: 522.000000  magneticMoment: [ Abs: 0.00089  Tot: +0.00029 ]
	SubspaceRotationAdjust: set factor to 0.0332
ElecMinimize: Iter:   9  F: -2868.702771944500455  |grad|_K:  3.101e-06  alpha:  2.402e-01  linmin:  1.636e-06  t[s]:   1902.00
	FillingsUpdate:  mu: +0.218251983  nElectrons: 522.000000  magneticMoment: [ Abs: 0.00084  Tot: +0.00029 ]
	SubspaceRotationAdjust: set factor to 0.0362
ElecMinimize: Iter:  10  F: -2868.703572769292805  |grad|_K:  2.177e-06  alpha:  3.467e-01  linmin: -1.065e-06  t[s]:   1959.50
	FillingsUpdate:  mu: +0.217367572  nElectrons: 522.000000  magneticMoment: [ Abs: 0.00082  Tot: +0.00029 ]
	SubspaceRotationAdjust: set factor to 0.03
ElecMinimize: Iter:  11  F: -2868.703893352308569  |grad|_K:  1.716e-06  alpha:  2.815e-01  linmin:  6.324e-07  t[s]:   2016.84
	FillingsUpdate:  mu: +0.216852351  nElectrons: 522.000000  magneticMoment: [ Abs: 0.00079  Tot: +0.00029 ]
	SubspaceRotationAdjust: set factor to 0.0357
ElecMinimize: Iter:  12  F: -2868.704191818999789  |grad|_K:  1.403e-06  alpha:  4.222e-01  linmin:  3.974e-06  t[s]:   2074.97
	FillingsUpdate:  mu: +0.217304477  nElectrons: 522.000000  magneticMoment: [ Abs: 0.00078  Tot: +0.00029 ]
	SubspaceRotationAdjust: set factor to 0.0395
ElecMinimize: Iter:  13  F: -2868.704406229663618  |grad|_K:  1.236e-06  alpha:  4.535e-01  linmin:  2.372e-06  t[s]:   2132.48
	FillingsUpdate:  mu: +0.217232442  nElectrons: 522.000000  magneticMoment: [ Abs: 0.00077  Tot: +0.00029 ]
	SubspaceRotationAdjust: set factor to 0.0361
ElecMinimize: Iter:  14  F: -2868.704520215952016  |grad|_K:  1.150e-06  alpha:  3.106e-01  linmin:  1.409e-07  t[s]:   2190.18
	FillingsUpdate:  mu: +0.216455686  nElectrons: 522.000000  magneticMoment: [ Abs: 0.00075  Tot: +0.00029 ]
	SubspaceRotationAdjust: set factor to 0.0425
ElecMinimize: Iter:  15  F: -2868.704685636229897  |grad|_K:  1.091e-06  alpha:  5.206e-01  linmin:  2.165e-06  t[s]:   2247.71
	FillingsUpdate:  mu: +0.216753376  nElectrons: 522.000000  magneticMoment: [ Abs: 0.00072  Tot: +0.00029 ]
	SubspaceRotationAdjust: set factor to 0.0458
ElecMinimize: Iter:  16  F: -2868.704873384060193  |grad|_K:  1.365e-06  alpha:  6.568e-01  linmin:  2.225e-06  t[s]:   2305.31
	FillingsUpdate:  mu: +0.216770922  nElectrons: 522.000000  magneticMoment: [ Abs: 0.00070  Tot: +0.00029 ]
	SubspaceRotationAdjust: set factor to 0.0376
ElecMinimize: Iter:  17  F: -2868.705023473994515  |grad|_K:  1.422e-06  alpha:  3.351e-01  linmin: -1.060e-06  t[s]:   2363.05
	FillingsUpdate:  mu: +0.215948570  nElectrons: 522.000000  magneticMoment: [ Abs: 0.00066  Tot: +0.00029 ]
	SubspaceRotationAdjust: set factor to 0.0356
ElecMinimize: Iter:  18  F: -2868.705209068032218  |grad|_K:  1.216e-06  alpha:  3.817e-01  linmin: -8.147e-07  t[s]:   2420.58
	FillingsUpdate:  mu: +0.215283802  nElectrons: 522.000000  magneticMoment: [ Abs: 0.00061  Tot: +0.00029 ]
	SubspaceRotationAdjust: set factor to 0.0387
ElecMinimize: Iter:  19  F: -2868.705413211529958  |grad|_K:  1.136e-06  alpha:  5.742e-01  linmin: -6.734e-07  t[s]:   2478.23
	FillingsUpdate:  mu: +0.215255756  nElectrons: 522.000000  magneticMoment: [ Abs: 0.00057  Tot: +0.00028 ]
	SubspaceRotationAdjust: set factor to 0.0327
ElecMinimize: Iter:  20  F: -2868.705540046956230  |grad|_K:  1.104e-06  alpha:  4.084e-01  linmin: -3.402e-07  t[s]:   2535.82
	FillingsUpdate:  mu: +0.214959133  nElectrons: 522.000000  magneticMoment: [ Abs: 0.00054  Tot: +0.00028 ]
	SubspaceRotationAdjust: set factor to 0.0263
ElecMinimize: Iter:  21  F: -2868.705627719839867  |grad|_K:  7.769e-07  alpha:  2.996e-01  linmin: -8.151e-07  t[s]:   2593.35
	FillingsUpdate:  mu: +0.214586501  nElectrons: 522.000000  magneticMoment: [ Abs: 0.00051  Tot: +0.00028 ]
	SubspaceRotationAdjust: set factor to 0.0296
ElecMinimize: Iter:  22  F: -2868.705692397497387  |grad|_K:  5.807e-07  alpha:  4.457e-01  linmin: -1.366e-06  t[s]:   2651.74
	FillingsUpdate:  mu: +0.214737947  nElectrons: 522.000000  magneticMoment: [ Abs: 0.00049  Tot: +0.00028 ]
	SubspaceRotationAdjust: set factor to 0.0282
ElecMinimize: Iter:  23  F: -2868.705726957532988  |grad|_K:  4.802e-07  alpha:  4.263e-01  linmin: -8.462e-08  t[s]:   2709.32
	FillingsUpdate:  mu: +0.214811320  nElectrons: 522.000000  magneticMoment: [ Abs: 0.00048  Tot: +0.00028 ]
	SubspaceRotationAdjust: set factor to 0.0256
ElecMinimize: Iter:  24  F: -2868.705746831870783  |grad|_K:  3.590e-07  alpha:  3.588e-01  linmin: -2.700e-07  t[s]:   2766.83
	FillingsUpdate:  mu: +0.214723589  nElectrons: 522.000000  magneticMoment: [ Abs: 0.00047  Tot: +0.00028 ]
	SubspaceRotationAdjust: set factor to 0.0303
ElecMinimize: Iter:  25  F: -2868.705759970112922  |grad|_K:  2.681e-07  alpha:  4.242e-01  linmin: -2.333e-07  t[s]:   2824.43
	FillingsUpdate:  mu: +0.214723759  nElectrons: 522.000000  magneticMoment: [ Abs: 0.00046  Tot: +0.00028 ]
	SubspaceRotationAdjust: set factor to 0.0346
ElecMinimize: Iter:  26  F: -2868.705768096281190  |grad|_K:  2.365e-07  alpha:  4.706e-01  linmin: -4.178e-08  t[s]:   2881.94
	FillingsUpdate:  mu: +0.214791140  nElectrons: 522.000000  magneticMoment: [ Abs: 0.00046  Tot: +0.00028 ]
	SubspaceRotationAdjust: set factor to 0.0347
ElecMinimize: Iter:  27  F: -2868.705773819800925  |grad|_K:  2.345e-07  alpha:  4.260e-01  linmin:  1.873e-07  t[s]:   2939.41
	FillingsUpdate:  mu: +0.214854781  nElectrons: 522.000000  magneticMoment: [ Abs: 0.00045  Tot: +0.00028 ]
	SubspaceRotationAdjust: set factor to 0.038
ElecMinimize: Iter:  28  F: -2868.705779745958807  |grad|_K:  2.117e-07  alpha:  4.487e-01  linmin:  1.666e-07  t[s]:   2997.46
	FillingsUpdate:  mu: +0.214856329  nElectrons: 522.000000  magneticMoment: [ Abs: 0.00044  Tot: +0.00028 ]
	SubspaceRotationAdjust: set factor to 0.0441
ElecMinimize: Iter:  29  F: -2868.705786415643615  |grad|_K:  2.167e-07  alpha:  6.193e-01  linmin:  8.360e-09  t[s]:   3054.88
	FillingsUpdate:  mu: +0.215022780  nElectrons: 522.000000  magneticMoment: [ Abs: 0.00043  Tot: +0.00028 ]
	SubspaceRotationAdjust: set factor to 0.0458
ElecMinimize: Iter:  30  F: -2868.705792595820185  |grad|_K:  2.362e-07  alpha:  5.480e-01  linmin:  2.485e-07  t[s]:   3112.46
	FillingsUpdate:  mu: +0.215160349  nElectrons: 522.000000  magneticMoment: [ Abs: 0.00042  Tot: +0.00028 ]
	SubspaceRotationAdjust: set factor to 0.0378
ElecMinimize: Iter:  31  F: -2868.705797312880350  |grad|_K:  2.419e-07  alpha:  3.520e-01  linmin:  5.462e-10  t[s]:   3170.02
	FillingsUpdate:  mu: +0.215200469  nElectrons: 522.000000  magneticMoment: [ Abs: 0.00041  Tot: +0.00028 ]
	SubspaceRotationAdjust: set factor to 0.0332
ElecMinimize: Iter:  32  F: -2868.705802031291114  |grad|_K:  1.893e-07  alpha:  3.356e-01  linmin: -2.237e-07  t[s]:   3227.60
	FillingsUpdate:  mu: +0.215243340  nElectrons: 522.000000  magneticMoment: [ Abs: 0.00040  Tot: +0.00028 ]
	SubspaceRotationAdjust: set factor to 0.037
ElecMinimize: Iter:  33  F: -2868.705806321463569  |grad|_K:  1.545e-07  alpha:  4.985e-01  linmin: -3.114e-07  t[s]:   3285.45
	FillingsUpdate:  mu: +0.215336539  nElectrons: 522.000000  magneticMoment: [ Abs: 0.00039  Tot: +0.00028 ]
	SubspaceRotationAdjust: set factor to 0.0369
ElecMinimize: Iter:  34  F: -2868.705808933911158  |grad|_K:  1.387e-07  alpha:  4.555e-01  linmin: -1.568e-07  t[s]:   3343.18
	FillingsUpdate:  mu: +0.215360801  nElectrons: 522.000000  magneticMoment: [ Abs: 0.00039  Tot: +0.00028 ]
	SubspaceRotationAdjust: set factor to 0.0322
ElecMinimize: Iter:  35  F: -2868.705810549956823  |grad|_K:  1.185e-07  alpha:  3.494e-01  linmin:  8.335e-08  t[s]:   3401.15
	FillingsUpdate:  mu: +0.215367595  nElectrons: 522.000000  magneticMoment: [ Abs: 0.00038  Tot: +0.00028 ]
	SubspaceRotationAdjust: set factor to 0.0339
ElecMinimize: Iter:  36  F: -2868.705811802835342  |grad|_K:  9.068e-08  alpha:  3.715e-01  linmin:  8.442e-07  t[s]:   3458.89
	FillingsUpdate:  mu: +0.215394045  nElectrons: 522.000000  magneticMoment: [ Abs: 0.00038  Tot: +0.00028 ]
	SubspaceRotationAdjust: set factor to 0.0416
ElecMinimize: Iter:  37  F: -2868.705812752788006  |grad|_K:  7.568e-08  alpha:  4.807e-01  linmin: -1.247e-06  t[s]:   3516.48
	FillingsUpdate:  mu: +0.215412833  nElectrons: 522.000000  magneticMoment: [ Abs: 0.00037  Tot: +0.00028 ]
	SubspaceRotationAdjust: set factor to 0.0451
ElecMinimize: Iter:  38  F: -2868.705813412591397  |grad|_K:  7.647e-08  alpha:  4.793e-01  linmin: -5.643e-07  t[s]:   3574.87
	FillingsUpdate:  mu: +0.215418231  nElectrons: 522.000000  magneticMoment: [ Abs: 0.00037  Tot: +0.00028 ]
	SubspaceRotationAdjust: set factor to 0.0415
ElecMinimize: Iter:  39  F: -2868.705813867184588  |grad|_K:  7.184e-08  alpha:  3.235e-01  linmin:  3.182e-07  t[s]:   3632.42
	FillingsUpdate:  mu: +0.215409902  nElectrons: 522.000000  magneticMoment: [ Abs: 0.00037  Tot: +0.00028 ]
	SubspaceRotationAdjust: set factor to 0.0427
ElecMinimize: Iter:  40  F: -2868.705814375213322  |grad|_K:  6.163e-08  alpha:  4.102e-01  linmin: -3.649e-07  t[s]:   3690.05
	FillingsUpdate:  mu: +0.215422989  nElectrons: 522.000000  magneticMoment: [ Abs: 0.00036  Tot: +0.00028 ]
	SubspaceRotationAdjust: set factor to 0.0475
ElecMinimize: Iter:  41  F: -2868.705814827348149  |grad|_K:  5.446e-08  alpha:  4.956e-01  linmin:  1.950e-06  t[s]:   3747.69
	FillingsUpdate:  mu: +0.215413050  nElectrons: 522.000000  magneticMoment: [ Abs: 0.00036  Tot: +0.00028 ]
	SubspaceRotationAdjust: set factor to 0.0522
ElecMinimize: Iter:  42  F: -2868.705815211575555  |grad|_K:  4.838e-08  alpha:  5.401e-01  linmin:  8.619e-07  t[s]:   3805.26
	FillingsUpdate:  mu: +0.215401270  nElectrons: 522.000000  magneticMoment: [ Abs: 0.00035  Tot: +0.00028 ]
	SubspaceRotationAdjust: set factor to 0.0515
ElecMinimize: Iter:  43  F: -2868.705815469654226  |grad|_K:  4.618e-08  alpha:  4.590e-01  linmin: -9.082e-07  t[s]:   3862.71
	FillingsUpdate:  mu: +0.215407397  nElectrons: 522.000000  magneticMoment: [ Abs: 0.00035  Tot: +0.00028 ]
	SubspaceRotationAdjust: set factor to 0.0403
ElecMinimize: Iter:  44  F: -2868.705815610038826  |grad|_K:  4.303e-08  alpha:  2.731e-01  linmin: -2.119e-06  t[s]:   3920.17
	FillingsUpdate:  mu: +0.215407466  nElectrons: 522.000000  magneticMoment: [ Abs: 0.00035  Tot: +0.00028 ]
	SubspaceRotationAdjust: set factor to 0.037
ElecMinimize: Iter:  45  F: -2868.705815740293019  |grad|_K:  3.080e-08  alpha:  2.925e-01  linmin: -3.421e-06  t[s]:   3977.49
	FillingsUpdate:  mu: +0.215394868  nElectrons: 522.000000  magneticMoment: [ Abs: 0.00034  Tot: +0.00028 ]
	SubspaceRotationAdjust: set factor to 0.0436
ElecMinimize: Iter:  46  F: -2868.705815846507903  |grad|_K:  2.463e-08  alpha:  4.629e-01  linmin: -6.569e-06  t[s]:   4035.00
	FillingsUpdate:  mu: +0.215391973  nElectrons: 522.000000  magneticMoment: [ Abs: 0.00034  Tot: +0.00028 ]
	SubspaceRotationAdjust: set factor to 0.0453
ElecMinimize: Iter:  47  F: -2868.705815910238925  |grad|_K:  2.360e-08  alpha:  4.343e-01  linmin:  3.470e-06  t[s]:   4092.47
	FillingsUpdate:  mu: +0.215391624  nElectrons: 522.000000  magneticMoment: [ Abs: 0.00034  Tot: +0.00028 ]
	SubspaceRotationAdjust: set factor to 0.0406
ElecMinimize: Iter:  48  F: -2868.705815949046155  |grad|_K:  2.070e-08  alpha:  2.905e-01  linmin: -1.242e-07  t[s]:   4150.63
ElecMinimize: Converged (|Delta F|<1.000000e-07 for 2 iters).
Setting wave functions to eigenvectors of Hamiltonian
Converging empty states (this may take a while): |deigs|: 2.247e-03
Vacuum energy after initial minimize, F = -2868.705815949046155


-------- Electronic minimization -----------
	Linear fluid (dielectric constant: 78.4, screening length: 8.12261 Bohr) occupying 0.416705 of unit cell:	Completed after 27 iterations at t[s]:   4462.82
	FillingsUpdate:  mu: -0.196690796  nElectrons: 522.000000  magneticMoment: [ Abs: 0.00032  Tot: +0.00029 ]
ElecMinimize: Iter:   0  F: -2868.712049731445859  |grad|_K:  2.009e-06  alpha:  1.000e+00
	Linear fluid (dielectric constant: 78.4, screening length: 8.12261 Bohr) occupying 0.417660 of unit cell:	Completed after 21 iterations at t[s]:   4513.75
	Linear fluid (dielectric constant: 78.4, screening length: 8.12261 Bohr) occupying 0.416932 of unit cell:	Completed after 20 iterations at t[s]:   4533.02
	FillingsUpdate:  mu: -0.195586647  nElectrons: 522.000000  magneticMoment: [ Abs: 0.00032  Tot: +0.00029 ]
	SubspaceRotationAdjust: set factor to 0.034
ElecMinimize: Iter:   1  F: -2868.712310749896005  |grad|_K:  1.151e-06  alpha:  2.696e-01  linmin:  2.405e-06  t[s]:   4555.87
	Linear fluid (dielectric constant: 78.4, screening length: 8.12261 Bohr) occupying 0.417143 of unit cell:	Completed after 12 iterations at t[s]:   4579.35
	Linear fluid (dielectric constant: 78.4, screening length: 8.12261 Bohr) occupying 0.417540 of unit cell:	Completed after 14 iterations at t[s]:   4597.64
	FillingsUpdate:  mu: -0.195571073  nElectrons: 522.000000  magneticMoment: [ Abs: 0.00032  Tot: +0.00029 ]
	SubspaceRotationAdjust: set factor to 0.0423
ElecMinimize: Iter:   2  F: -2868.712555643925043  |grad|_K:  9.618e-07  alpha:  7.696e-01  linmin: -7.254e-07  t[s]:   4620.55
	Linear fluid (dielectric constant: 78.4, screening length: 8.12261 Bohr) occupying 0.418103 of unit cell:	Completed after 13 iterations at t[s]:   4644.13
	Linear fluid (dielectric constant: 78.4, screening length: 8.12261 Bohr) occupying 0.418003 of unit cell:	Completed after 10 iterations at t[s]:   4661.90
	FillingsUpdate:  mu: -0.195091077  nElectrons: 522.000000  magneticMoment: [ Abs: 0.00032  Tot: +0.00029 ]
	SubspaceRotationAdjust: set factor to 0.0504
ElecMinimize: Iter:   3  F: -2868.712696284341746  |grad|_K:  7.912e-07  alpha:  6.323e-01  linmin: -1.582e-07  t[s]:   4684.77
	Linear fluid (dielectric constant: 78.4, screening length: 8.12261 Bohr) occupying 0.418331 of unit cell:	Completed after 12 iterations at t[s]:   4708.11
	Linear fluid (dielectric constant: 78.4, screening length: 8.12261 Bohr) occupying 0.418344 of unit cell:	Completed after 3 iterations at t[s]:   4724.81
	FillingsUpdate:  mu: -0.194935305  nElectrons: 522.000000  magneticMoment: [ Abs: 0.00032  Tot: +0.00029 ]
	SubspaceRotationAdjust: set factor to 0.0597
ElecMinimize: Iter:   4  F: -2868.712795098977040  |grad|_K:  7.476e-07  alpha:  6.567e-01  linmin: -1.617e-07  t[s]:   4747.59
	Linear fluid (dielectric constant: 78.4, screening length: 8.12261 Bohr) occupying 0.418648 of unit cell:	Completed after 14 iterations at t[s]:   4771.56
	Linear fluid (dielectric constant: 78.4, screening length: 8.12261 Bohr) occupying 0.418700 of unit cell:	Completed after 8 iterations at t[s]:   4788.96
	FillingsUpdate:  mu: -0.194121138  nElectrons: 522.000000  magneticMoment: [ Abs: 0.00032  Tot: +0.00029 ]
	SubspaceRotationAdjust: set factor to 0.0664
ElecMinimize: Iter:   5  F: -2868.712898360290637  |grad|_K:  7.656e-07  alpha:  7.680e-01  linmin: -3.476e-07  t[s]:   4811.78
	Linear fluid (dielectric constant: 78.4, screening length: 8.12261 Bohr) occupying 0.418971 of unit cell:	Completed after 14 iterations at t[s]:   4835.48
	Linear fluid (dielectric constant: 78.4, screening length: 8.12261 Bohr) occupying 0.418902 of unit cell:	Completed after 11 iterations at t[s]:   4853.42
	FillingsUpdate:  mu: -0.194334520  nElectrons: 522.000000  magneticMoment: [ Abs: 0.00032  Tot: +0.00029 ]
	SubspaceRotationAdjust: set factor to 0.0601
ElecMinimize: Iter:   6  F: -2868.712978680153356  |grad|_K:  8.746e-07  alpha:  5.691e-01  linmin: -2.646e-08  t[s]:   4876.26
	Linear fluid (dielectric constant: 78.4, screening length: 8.12261 Bohr) occupying 0.419223 of unit cell:	Completed after 15 iterations at t[s]:   4900.19
	Linear fluid (dielectric constant: 78.4, screening length: 8.12261 Bohr) occupying 0.419117 of unit cell:	Completed after 11 iterations at t[s]:   4918.01
	FillingsUpdate:  mu: -0.193830985  nElectrons: 522.000000  magneticMoment: [ Abs: 0.00032  Tot: +0.00029 ]
	SubspaceRotationAdjust: set factor to 0.0463
ElecMinimize: Iter:   7  F: -2868.713048509112923  |grad|_K:  6.965e-07  alpha:  3.805e-01  linmin:  4.445e-09  t[s]:   4940.94
	Linear fluid (dielectric constant: 78.4, screening length: 8.12261 Bohr) occupying 0.419190 of unit cell:	Completed after 11 iterations at t[s]:   4964.26
	Linear fluid (dielectric constant: 78.4, screening length: 8.12261 Bohr) occupying 0.419225 of unit cell:	Completed after 10 iterations at t[s]:   4981.98
	FillingsUpdate:  mu: -0.193982886  nElectrons: 522.000000  magneticMoment: [ Abs: 0.00032  Tot: +0.00029 ]
	SubspaceRotationAdjust: set factor to 0.0465
ElecMinimize: Iter:   8  F: -2868.713114702934945  |grad|_K:  5.608e-07  alpha:  5.680e-01  linmin: -3.321e-08  t[s]:   5004.82
	Linear fluid (dielectric constant: 78.4, screening length: 8.12261 Bohr) occupying 0.419277 of unit cell:	Completed after 10 iterations at t[s]:   5027.95
	Linear fluid (dielectric constant: 78.4, screening length: 8.12261 Bohr) occupying 0.419277 of unit cell:	Completed after 0 iterations at t[s]:   5043.93
	FillingsUpdate:  mu: -0.194114803  nElectrons: 522.000000  magneticMoment: [ Abs: 0.00032  Tot: +0.00029 ]
	SubspaceRotationAdjust: set factor to 0.0513
ElecMinimize: Iter:   9  F: -2868.713157138041879  |grad|_K:  4.508e-07  alpha:  5.614e-01  linmin:  6.434e-08  t[s]:   5066.93
	Linear fluid (dielectric constant: 78.4, screening length: 8.12261 Bohr) occupying 0.419294 of unit cell:	Completed after 9 iterations at t[s]:   5090.05
	Linear fluid (dielectric constant: 78.4, screening length: 8.12261 Bohr) occupying 0.419292 of unit cell:	Completed after 2 iterations at t[s]:   5106.38
	FillingsUpdate:  mu: -0.194047593  nElectrons: 522.000000  magneticMoment: [ Abs: 0.00032  Tot: +0.00030 ]
	SubspaceRotationAdjust: set factor to 0.0581
ElecMinimize: Iter:  10  F: -2868.713181141996756  |grad|_K:  3.622e-07  alpha:  4.920e-01  linmin:  6.382e-08  t[s]:   5129.24
	Linear fluid (dielectric constant: 78.4, screening length: 8.12261 Bohr) occupying 0.419293 of unit cell:	Completed after 9 iterations at t[s]:   5152.37
	Linear fluid (dielectric constant: 78.4, screening length: 8.12261 Bohr) occupying 0.419293 of unit cell:	Completed after 1 iterations at t[s]:   5168.66
	FillingsUpdate:  mu: -0.194062912  nElectrons: 522.000000  magneticMoment: [ Abs: 0.00032  Tot: +0.00030 ]
	SubspaceRotationAdjust: set factor to 0.0671
ElecMinimize: Iter:  11  F: -2868.713197378250243  |grad|_K:  2.910e-07  alpha:  5.155e-01  linmin: -2.549e-07  t[s]:   5191.71
	Linear fluid (dielectric constant: 78.4, screening length: 8.12261 Bohr) occupying 0.419313 of unit cell:	Completed after 10 iterations at t[s]:   5214.94
	Linear fluid (dielectric constant: 78.4, screening length: 8.12261 Bohr) occupying 0.419314 of unit cell:	Completed after 2 iterations at t[s]:   5231.35
	FillingsUpdate:  mu: -0.193898274  nElectrons: 522.000000  magneticMoment: [ Abs: 0.00032  Tot: +0.00030 ]
	SubspaceRotationAdjust: set factor to 0.0703
ElecMinimize: Iter:  12  F: -2868.713208537424180  |grad|_K:  2.740e-07  alpha:  5.473e-01  linmin:  3.748e-08  t[s]:   5254.39
	Linear fluid (dielectric constant: 78.4, screening length: 8.12261 Bohr) occupying 0.419318 of unit cell:	Completed after 11 iterations at t[s]:   5277.72
	Linear fluid (dielectric constant: 78.4, screening length: 8.12261 Bohr) occupying 0.419317 of unit cell:	Completed after 7 iterations at t[s]:   5294.99
	FillingsUpdate:  mu: -0.193853673  nElectrons: 522.000000  magneticMoment: [ Abs: 0.00032  Tot: +0.00030 ]
	SubspaceRotationAdjust: set factor to 0.0611
ElecMinimize: Iter:  13  F: -2868.713215650562688  |grad|_K:  2.554e-07  alpha:  3.939e-01  linmin:  1.698e-07  t[s]:   5317.81
	Linear fluid (dielectric constant: 78.4, screening length: 8.12261 Bohr) occupying 0.419350 of unit cell:	Completed after 10 iterations at t[s]:   5341.00
	Linear fluid (dielectric constant: 78.4, screening length: 8.12261 Bohr) occupying 0.419353 of unit cell:	Completed after 2 iterations at t[s]:   5357.86
	FillingsUpdate:  mu: -0.193665068  nElectrons: 522.000000  magneticMoment: [ Abs: 0.00032  Tot: +0.00030 ]
	SubspaceRotationAdjust: set factor to 0.0561
ElecMinimize: Iter:  14  F: -2868.713222305148975  |grad|_K:  1.972e-07  alpha:  4.254e-01  linmin: -2.573e-07  t[s]:   5380.96
	Linear fluid (dielectric constant: 78.4, screening length: 8.12261 Bohr) occupying 0.419375 of unit cell:	Completed after 8 iterations at t[s]:   5403.81
	Linear fluid (dielectric constant: 78.4, screening length: 8.12261 Bohr) occupying 0.419383 of unit cell:	Completed after 5 iterations at t[s]:   5420.84
	FillingsUpdate:  mu: -0.193619475  nElectrons: 522.000000  magneticMoment: [ Abs: 0.00032  Tot: +0.00030 ]
	SubspaceRotationAdjust: set factor to 0.0604
ElecMinimize: Iter:  15  F: -2868.713227816512699  |grad|_K:  1.666e-07  alpha:  5.887e-01  linmin:  1.876e-07  t[s]:   5443.76
	Linear fluid (dielectric constant: 78.4, screening length: 8.12261 Bohr) occupying 0.419420 of unit cell:	Completed after 10 iterations at t[s]:   5466.94
	Linear fluid (dielectric constant: 78.4, screening length: 8.12261 Bohr) occupying 0.419420 of unit cell:	Completed after 0 iterations at t[s]:   5482.96
	FillingsUpdate:  mu: -0.193413807  nElectrons: 522.000000  magneticMoment: [ Abs: 0.00032  Tot: +0.00030 ]
	SubspaceRotationAdjust: set factor to 0.0663
ElecMinimize: Iter:  16  F: -2868.713231709026331  |grad|_K:  1.417e-07  alpha:  5.853e-01  linmin: -1.111e-07  t[s]:   5505.91
	Linear fluid (dielectric constant: 78.4, screening length: 8.12261 Bohr) occupying 0.419449 of unit cell:	Completed after 8 iterations at t[s]:   5528.73
	Linear fluid (dielectric constant: 78.4, screening length: 8.12261 Bohr) occupying 0.419448 of unit cell:	Completed after 0 iterations at t[s]:   5544.68
	FillingsUpdate:  mu: -0.193454850  nElectrons: 522.000000  magneticMoment: [ Abs: 0.00032  Tot: +0.00030 ]
	SubspaceRotationAdjust: set factor to 0.0708
ElecMinimize: Iter:  17  F: -2868.713234472239492  |grad|_K:  1.280e-07  alpha:  5.720e-01  linmin:  1.158e-07  t[s]:   5567.75
	Linear fluid (dielectric constant: 78.4, screening length: 8.12261 Bohr) occupying 0.419483 of unit cell:	Completed after 9 iterations at t[s]:   5590.85
	Linear fluid (dielectric constant: 78.4, screening length: 8.12261 Bohr) occupying 0.419476 of unit cell:	Completed after 3 iterations at t[s]:   5607.45
	FillingsUpdate:  mu: -0.193261286  nElectrons: 522.000000  magneticMoment: [ Abs: 0.00032  Tot: +0.00030 ]
	SubspaceRotationAdjust: set factor to 0.0669
ElecMinimize: Iter:  18  F: -2868.713236266027252  |grad|_K:  1.177e-07  alpha:  4.568e-01  linmin:  2.279e-07  t[s]:   5630.39
	Linear fluid (dielectric constant: 78.4, screening length: 8.12261 Bohr) occupying 0.419489 of unit cell:	Completed after 8 iterations at t[s]:   5654.04
	Linear fluid (dielectric constant: 78.4, screening length: 8.12261 Bohr) occupying 0.419487 of unit cell:	Completed after 4 iterations at t[s]:   5670.82
	FillingsUpdate:  mu: -0.193305270  nElectrons: 522.000000  magneticMoment: [ Abs: 0.00032  Tot: +0.00030 ]
	SubspaceRotationAdjust: set factor to 0.0548
ElecMinimize: Iter:  19  F: -2868.713237491482687  |grad|_K:  1.035e-07  alpha:  3.706e-01  linmin: -1.179e-07  t[s]:   5693.57
	Linear fluid (dielectric constant: 78.4, screening length: 8.12261 Bohr) occupying 0.419502 of unit cell:	Completed after 7 iterations at t[s]:   5716.16
	Linear fluid (dielectric constant: 78.4, screening length: 8.12261 Bohr) occupying 0.419502 of unit cell:	Completed after 0 iterations at t[s]:   5732.12
	FillingsUpdate:  mu: -0.193282320  nElectrons: 522.000000  magneticMoment: [ Abs: 0.00032  Tot: +0.00030 ]
	SubspaceRotationAdjust: set factor to 0.0523
ElecMinimize: Iter:  20  F: -2868.713238468065356  |grad|_K:  7.568e-08  alpha:  3.792e-01  linmin: -1.374e-06  t[s]:   5754.99
	Linear fluid (dielectric constant: 78.4, screening length: 8.12261 Bohr) occupying 0.419508 of unit cell:	Completed after 2 iterations at t[s]:   5776.68
	Linear fluid (dielectric constant: 78.4, screening length: 8.12261 Bohr) occupying 0.419510 of unit cell:	Completed after 2 iterations at t[s]:   5793.19
	FillingsUpdate:  mu: -0.193235201  nElectrons: 522.000000  magneticMoment: [ Abs: 0.00032  Tot: +0.00031 ]
	SubspaceRotationAdjust: set factor to 0.0625
ElecMinimize: Iter:  21  F: -2868.713239222359334  |grad|_K:  6.181e-08  alpha:  5.412e-01  linmin:  2.769e-08  t[s]:   5816.09
	Linear fluid (dielectric constant: 78.4, screening length: 8.12261 Bohr) occupying 0.419511 of unit cell:	Completed after 7 iterations at t[s]:   5838.71
	Linear fluid (dielectric constant: 78.4, screening length: 8.12261 Bohr) occupying 0.419511 of unit cell:	Completed after 0 iterations at t[s]:   5854.72
	FillingsUpdate:  mu: -0.193245954  nElectrons: 522.000000  magneticMoment: [ Abs: 0.00032  Tot: +0.00031 ]
	SubspaceRotationAdjust: set factor to 0.0609
ElecMinimize: Iter:  22  F: -2868.713239668561073  |grad|_K:  5.952e-08  alpha:  4.844e-01  linmin:  2.929e-06  t[s]:   5877.65
	Linear fluid (dielectric constant: 78.4, screening length: 8.12261 Bohr) occupying 0.419515 of unit cell:	Completed after 8 iterations at t[s]:   5900.61
	Linear fluid (dielectric constant: 78.4, screening length: 8.12261 Bohr) occupying 0.419514 of unit cell:	Completed after 3 iterations at t[s]:   5917.08
	FillingsUpdate:  mu: -0.193222192  nElectrons: 522.000000  magneticMoment: [ Abs: 0.00032  Tot: +0.00031 ]
	SubspaceRotationAdjust: set factor to 0.0487
ElecMinimize: Iter:  23  F: -2868.713239923783021  |grad|_K:  5.022e-08  alpha:  3.143e-01  linmin:  1.036e-06  t[s]:   5939.90
	Linear fluid (dielectric constant: 78.4, screening length: 8.12261 Bohr) occupying 0.419512 of unit cell:	Completed after 5 iterations at t[s]:   5962.38
	Linear fluid (dielectric constant: 78.4, screening length: 8.12261 Bohr) occupying 0.419511 of unit cell:	Completed after 0 iterations at t[s]:   5978.42
	FillingsUpdate:  mu: -0.193246160  nElectrons: 522.000000  magneticMoment: [ Abs: 0.00033  Tot: +0.00031 ]
	SubspaceRotationAdjust: set factor to 0.0619
ElecMinimize: Iter:  24  F: -2868.713240174379735  |grad|_K:  3.654e-08  alpha:  4.070e-01  linmin: -1.038e-05  t[s]:   6001.32
	Linear fluid (dielectric constant: 78.4, screening length: 8.12261 Bohr) occupying 0.419508 of unit cell:	Completed after 5 iterations at t[s]:   6023.66
	Linear fluid (dielectric constant: 78.4, screening length: 8.12261 Bohr) occupying 0.419508 of unit cell:	Completed after 0 iterations at t[s]:   6039.63
	FillingsUpdate:  mu: -0.193263576  nElectrons: 522.000000  magneticMoment: [ Abs: 0.00033  Tot: +0.00031 ]
	SubspaceRotationAdjust: set factor to 0.0647
ElecMinimize: Iter:  25  F: -2868.713240319744273  |grad|_K:  3.684e-08  alpha:  4.207e-01  linmin: -1.441e-05  t[s]:   6062.63
	Linear fluid (dielectric constant: 78.4, screening length: 8.12261 Bohr) occupying 0.419506 of unit cell:	Completed after 5 iterations at t[s]:   6085.16
	Linear fluid (dielectric constant: 78.4, screening length: 8.12261 Bohr) occupying 0.419507 of unit cell:	Completed after 2 iterations at t[s]:   6101.59
	FillingsUpdate:  mu: -0.193262600  nElectrons: 522.000000  magneticMoment: [ Abs: 0.00033  Tot: +0.00031 ]
	SubspaceRotationAdjust: set factor to 0.0552
ElecMinimize: Iter:  26  F: -2868.713240432829480  |grad|_K:  3.298e-08  alpha:  3.245e-01  linmin:  8.821e-06  t[s]:   6124.60
	Linear fluid (dielectric constant: 78.4, screening length: 8.12261 Bohr) occupying 0.419504 of unit cell:	Completed after 2 iterations at t[s]:   6146.55
	Linear fluid (dielectric constant: 78.4, screening length: 8.12261 Bohr) occupying 0.419503 of unit cell:	Completed after 0 iterations at t[s]:   6162.52
	FillingsUpdate:  mu: -0.193278492  nElectrons: 522.000000  magneticMoment: [ Abs: 0.00033  Tot: +0.00031 ]
	SubspaceRotationAdjust: set factor to 0.0753
ElecMinimize: Iter:  27  F: -2868.713240534516899  |grad|_K:  2.600e-08  alpha:  4.067e-01  linmin: -6.318e-06  t[s]:   6185.61
	Linear fluid (dielectric constant: 78.4, screening length: 8.12261 Bohr) occupying 0.419499 of unit cell:	Completed after 3 iterations at t[s]:   6207.72
	Linear fluid (dielectric constant: 78.4, screening length: 8.12261 Bohr) occupying 0.419499 of unit cell:	Completed after 2 iterations at t[s]:   6224.23
	FillingsUpdate:  mu: -0.193315428  nElectrons: 522.000000  magneticMoment: [ Abs: 0.00033  Tot: +0.00031 ]
	SubspaceRotationAdjust: set factor to 0.0701
ElecMinimize: Iter:  28  F: -2868.713240589650923  |grad|_K:  2.638e-08  alpha:  3.529e-01  linmin: -1.852e-05  t[s]:   6247.19
	Linear fluid (dielectric constant: 78.4, screening length: 8.12261 Bohr) occupying 0.419497 of unit cell:	Completed after 3 iterations at t[s]:   6269.83
	Linear fluid (dielectric constant: 78.4, screening length: 8.12261 Bohr) occupying 0.419498 of unit cell:	Completed after 0 iterations at t[s]:   6285.89
	FillingsUpdate:  mu: -0.193315460  nElectrons: 522.000000  magneticMoment: [ Abs: 0.00033  Tot: +0.00031 ]
	SubspaceRotationAdjust: set factor to 0.0701
ElecMinimize: Iter:  29  F: -2868.713240644014604  |grad|_K:  1.983e-08  alpha:  3.054e-01  linmin:  1.838e-05  t[s]:   6308.96
ElecMinimize: Converged (|Delta F|<1.000000e-07 for 2 iters).
Setting wave functions to eigenvectors of Hamiltonian
Converging empty states (this may take a while): |deigs|: 7.443e-05
Single-point solvation energy estimate, DeltaF = -0.007424694968449

Computing DFT-D3 correction:
# coordination-number Pt 8.660 8.660 8.701 8.701 9.490 9.490 9.490 9.490 7.044 5.950 7.060 5.950 9.420 9.418 9.420 9.418 9.418 9.418 9.418 9.418 5.947 5.947 5.947 5.947 9.491 9.491 9.491 9.491 8.656 8.656 8.656 8.656
# coordination-number C 3.104
# coordination-number O 1.220
# diagonal-C6 Pt 336.87 336.87 336.87 336.87 336.87 336.87 336.87 336.87 336.87 336.87 336.87 336.87 336.87 336.87 336.87 336.87 336.87 336.87 336.87 336.87 336.87 336.87 336.87 336.87 336.87 336.87 336.87 336.87 336.87 336.87 336.87 336.87
# diagonal-C6 C 25.43
# diagonal-C6 O 12.55
EvdW_6 =   -0.273053
EvdW_8 =   -0.445755

# Ionic positions in cartesian coordinates:
ion Pt   0.000010000000000   7.399025000000001  48.561914000000009 0
ion Pt   0.000010000000000  14.798198000000001  48.561914000000009 0
ion Pt   5.232006000000000   7.399025000000001  48.561914000000009 0
ion Pt   5.232006000000000  14.798198000000001  48.561914000000009 0
ion Pt   0.000000000000000   0.000074000000000  43.164379000000004 0
ion Pt   0.000000000000000   7.399232000000001  43.164379000000004 0
ion Pt   5.231996000000000   0.000074000000000  43.164379000000004 0
ion Pt   5.231996000000000   7.399232000000001  43.164379000000004 0
ion Pt   2.615956000000000   3.699298000000001  50.876444000000006 0
ion Pt   2.615956000000000  11.098456000000002  50.876444000000006 0
ion Pt   7.847942000000001   3.699298000000001  50.876444000000006 0
ion Pt   7.847942000000001  11.098456000000002  50.876444000000006 0
ion Pt   2.616040000000000   3.699683000000001  45.754477999999999 0
ion Pt   2.616040000000000  11.098841000000002  45.754477999999999 0
ion Pt   7.848036000000000   3.699683000000001  45.754477999999999 0
ion Pt   7.848036000000000  11.098841000000002  45.754477999999999 0
ion Pt   5.231944000000000   0.000000000000000  37.958072999999999 0
ion Pt   5.231944000000000   7.399158000000001  37.958072999999999 0
ion Pt  10.463950000000001   0.000000000000000  37.958072999999999 0
ion Pt  10.463950000000001   7.399158000000001  37.958072999999999 0
ion Pt   0.000031000000000   0.000118000000000  32.835321000000000 0
ion Pt   0.000031000000000   7.399277000000001  32.835321000000000 0
ion Pt   5.232038000000001   0.000118000000000  32.835321000000000 0
ion Pt   5.232038000000001   7.399277000000001  32.835321000000000 0
ion Pt   2.615946000000000   3.699624000000000  40.547072999999997 0
ion Pt   2.615946000000000  11.098782000000002  40.547072999999997 0
ion Pt   7.847942000000001   3.699624000000000  40.547072999999997 0
ion Pt   7.847942000000001  11.098782000000002  40.547072999999997 0
ion Pt   2.616050000000000   3.699653000000000  35.149956000000003 0
ion Pt   2.616050000000000  11.098796999999999  35.149956000000003 0
ion Pt   7.848046000000001   3.699653000000000  35.149956000000003 0
ion Pt   7.848046000000001  11.098796999999999  35.149956000000003 0
ion C   5.231954000000000   3.699298000000001   0.766330000000000 1  Linear 0 0 1
ion O   5.292038000000001   3.699298000000001   2.921703000000000 1  Linear 0 0 1

# Forces in Cartesian coordinates:
force Pt   0.000038012819254   0.004419565137319  -0.003061683013211 0
force Pt   0.000037884751738  -0.004420049426295  -0.003062508274720 0
force Pt  -0.000084593652518   0.007911536809468  -0.009255658089433 0
force Pt  -0.000085622253337  -0.007923580685793  -0.009263552623118 0
force Pt   0.000031793076993   0.000850383209430   0.000071671011610 0
force Pt   0.000032012324408  -0.000845157418802   0.000071695941644 0
force Pt  -0.000018166274358   0.001764032131121  -0.000359764349996 0
force Pt  -0.000017611923288  -0.001764407776627  -0.000358037370606 0
force Pt  -0.057619155628894   0.000003610129948  -0.040339958696738 0
force Pt  -0.000686909329180  -0.000002436175743   0.000203288025609 0
force Pt   0.059614298349788   0.000003482680311  -0.043225991437579 0
force Pt   0.000722386265163  -0.000002152725947   0.000187426320446 0
force Pt  -0.001238222850393  -0.000005098511736  -0.004920083047858 0
force Pt   0.001320504012637  -0.000005695532009  -0.002680953232370 0
force Pt   0.001095875140689  -0.000005245359517  -0.004860303465304 0
force Pt  -0.001381078023625  -0.000005895698978  -0.002643699365683 0
force Pt   0.000006371696533   0.000514441466253   0.000403101574210 0
force Pt   0.000006626478617  -0.000506878954084   0.000403261995041 0
force Pt  -0.000004642545580   0.000798151390235   0.000717955729630 0
force Pt  -0.000004379689761  -0.000786768718155   0.000718128995157 0
force Pt   0.000017399905236   0.000192845817081  -0.000077492787823 0
force Pt   0.000017579136893  -0.000174139399859  -0.000078661323360 0
force Pt  -0.000000991651890   0.000132684006925   0.000240563906820 0
force Pt  -0.000000634987134  -0.000115488343029   0.000239428756668 0
force Pt   0.000452590623867  -0.000003977567135  -0.003487840960738 0
force Pt   0.000044186723425  -0.000003649339510   0.001308984040942 0
force Pt  -0.000463077664449  -0.000003941344110  -0.003222521100656 0
force Pt  -0.000034644815619  -0.000003764173181   0.001281097465302 0
force Pt   0.000355264280483  -0.000004187706178  -0.001363336172119 0
force Pt   0.000175380700700  -0.000001578169552   0.000183602608871 0
force Pt  -0.000367859098451  -0.000004304872708  -0.001322351835838 0
force Pt  -0.000186709517453  -0.000001716173871   0.000179777742616 0
force C  -0.003344363331934  -0.000002368810619  -0.003383741119451 1  Linear 0 0 1
force O   0.001573791517379   0.000004794025862   0.130518204037953 1  Linear 0 0 1

# Energy components:
   A_diel =       -0.0101870162321408
   Eewald =    14388.1566341195866698
       EH =    17026.0621338006640144
     Eloc =   -34785.6919886640243931
      Enl =      -30.5361476726216807
     EvdW =       -0.7188088042399199
      Exc =     -915.9701831881645830
 Exc_core =      524.6228961353332352
       KE =      925.3787072283048474
-------------------------------------
     Etot =    -2868.7069440613945517
       TS =        0.0062965826199796
-------------------------------------
        F =    -2868.7132406440146042


Dumping 'jdft.fillings' ... done
Dumping 'jdft.wfns' ... done
Dumping 'jdft.fluidState' ... done
Dumping 'jdft.ionpos' ... done
Dumping 'jdft.lattice' ... done
Dumping 'jdft.eigenvals' ... done
Dumping 'jdft.eigStats' ... 
	eMin: -2.152780 at state 0 ( [ +0.000000 +0.000000 +0.000000 ] spin 1 )
	HOMO: -0.193388 at state 21 ( [ +0.400000 -0.250000 +0.000000 ] spin -1 )
	mu  : -0.193315
	LUMO: -0.193201 at state 3 ( [ +0.200000 +0.000000 +0.000000 ] spin 1 )
	eMax: +0.108336 at state 18 ( [ +0.400000 +0.000000 +0.000000 ] spin -1 )
	HOMO-LUMO gap: +0.000187
	Optical gap  : +0.000542 at state 10 ( [ +0.400000 -0.250000 +0.000000 ] spin 1 )
Dumping 'jdft.Ecomponents' ... done
IonicMinimize: Iter:   0  F: -2868.713240644014604  |grad|_K:  9.232e-02  t[s]:   6596.66

#--- Lowdin population analysis ---
# oxidation-state Pt -0.075 -0.075 -0.051 -0.051 +0.010 +0.010 +0.011 +0.011 +0.018 +0.085 +0.019 +0.085 -0.012 +0.006 -0.011 +0.006 +0.008 +0.008 +0.008 +0.008 +0.088 +0.088 +0.088 +0.088 +0.006 +0.009 +0.006 +0.009 -0.043 -0.044 -0.042 -0.044
# magnetic-moments Pt +0.000 +0.000 +0.000 +0.000 +0.000 +0.000 +0.000 +0.000 +0.000 +0.000 +0.000 +0.000 +0.000 +0.000 +0.000 +0.000 +0.000 +0.000 +0.000 +0.000 +0.000 +0.000 +0.000 +0.000 +0.000 +0.000 +0.000 +0.000 +0.000 +0.000 +0.000 +0.000
# oxidation-state C +0.393
# magnetic-moments C -0.000
# oxidation-state O -0.171
# magnetic-moments O +0.000


Computing DFT-D3 correction:
# coordination-number Pt 8.660 8.660 8.701 8.701 9.490 9.490 9.490 9.490 7.026 5.950 7.039 5.950 9.420 9.418 9.420 9.418 9.418 9.418 9.418 9.418 5.947 5.947 5.947 5.947 9.491 9.491 9.491 9.491 8.656 8.656 8.656 8.656
# coordination-number C 3.105
# coordination-number O 1.180
# diagonal-C6 Pt 336.87 336.87 336.87 336.87 336.87 336.87 336.87 336.87 336.87 336.87 336.87 336.87 336.87 336.87 336.87 336.87 336.87 336.87 336.87 336.87 336.87 336.87 336.87 336.87 336.87 336.87 336.87 336.87 336.87 336.87 336.87 336.87
# diagonal-C6 C 25.43
# diagonal-C6 O 12.62
EvdW_6 =   -0.273003
EvdW_8 =   -0.445773

-------- Electronic minimization -----------
	Linear fluid (dielectric constant: 78.4, screening length: 8.12261 Bohr) occupying 0.418940 of unit cell:	Completed after 22 iterations at t[s]:   6622.87
	FillingsUpdate:  mu: -0.184476352  nElectrons: 522.000000  magneticMoment: [ Abs: 0.00034  Tot: +0.00032 ]
ElecMinimize: Iter:   0  F: -2868.636374640186204  |grad|_K:  2.898e-05  alpha:  1.000e+00
	Linear fluid (dielectric constant: 78.4, screening length: 8.12261 Bohr) occupying 0.419032 of unit cell:	Completed after 24 iterations at t[s]:   6674.09
	Linear fluid (dielectric constant: 78.4, screening length: 8.12261 Bohr) occupying 0.418848 of unit cell:	Completed after 23 iterations at t[s]:   6693.81
	FillingsUpdate:  mu: -0.189570582  nElectrons: 522.000000  magneticMoment: [ Abs: 0.00034  Tot: +0.00032 ]
	SubspaceRotationAdjust: set factor to 0.0654
ElecMinimize: Iter:   1  F: -2868.711308413186089  |grad|_K:  9.157e-06  alpha:  3.777e-01  linmin:  8.039e-03  t[s]:   6716.64
	Linear fluid (dielectric constant: 78.4, screening length: 8.12261 Bohr) occupying 0.419131 of unit cell:	Completed after 21 iterations at t[s]:   6741.64
	Linear fluid (dielectric constant: 78.4, screening length: 8.12261 Bohr) occupying 0.418999 of unit cell:	Completed after 16 iterations at t[s]:   6760.26
	FillingsUpdate:  mu: -0.189102640  nElectrons: 522.000000  magneticMoment: [ Abs: 0.00034  Tot: +0.00032 ]
	SubspaceRotationAdjust: set factor to 0.0436
ElecMinimize: Iter:   2  F: -2868.716361168120784  |grad|_K:  4.988e-06  alpha:  2.550e-01  linmin: -1.191e-04  t[s]:   6783.04
	Linear fluid (dielectric constant: 78.4, screening length: 8.12261 Bohr) occupying 0.418853 of unit cell:	Completed after 19 iterations at t[s]:   6807.51
	Linear fluid (dielectric constant: 78.4, screening length: 8.12261 Bohr) occupying 0.418845 of unit cell:	Completed after 10 iterations at t[s]:   6825.30
	FillingsUpdate:  mu: -0.192703715  nElectrons: 522.000000  magneticMoment: [ Abs: 0.00034  Tot: +0.00032 ]
	SubspaceRotationAdjust: set factor to 0.031
ElecMinimize: Iter:   3  F: -2868.717974061102268  |grad|_K:  2.898e-06  alpha:  2.697e-01  linmin:  2.424e-05  t[s]:   6848.16
[...]
	Linear fluid (dielectric constant: 78.4, screening length: 8.12261 Bohr) occupying 0.413680 of unit cell:	Completed after 0 iterations at t[s]:  24973.47
	FillingsUpdate:  mu: -0.193282644  nElectrons: 522.000000  magneticMoment: [ Abs: 0.00154  Tot: +0.00146 ]
	SubspaceRotationAdjust: set factor to 0.0384
ElecMinimize: Iter:  12  F: -2868.748936298093213  |grad|_K:  2.878e-08  alpha:  3.450e-01  linmin: -1.127e-04  t[s]:  24996.66
	Linear fluid (dielectric constant: 78.4, screening length: 8.12261 Bohr) occupying 0.413681 of unit cell:	Completed after 2 iterations at t[s]:  25018.60
	Linear fluid (dielectric constant: 78.4, screening length: 8.12261 Bohr) occupying 0.413682 of unit cell:	Completed after 0 iterations at t[s]:  25034.64
	FillingsUpdate:  mu: -0.193289532  nElectrons: 522.000000  magneticMoment: [ Abs: 0.00155  Tot: +0.00147 ]
	SubspaceRotationAdjust: set factor to 0.0488
ElecMinimize: Iter:  13  F: -2868.748936402304025  |grad|_K:  2.024e-08  alpha:  5.058e-01  linmin: -1.974e-03  t[s]:  25057.64
	Linear fluid (dielectric constant: 78.4, screening length: 8.12261 Bohr) occupying 0.413683 of unit cell:	Completed after 2 iterations at t[s]:  25079.53
	Linear fluid (dielectric constant: 78.4, screening length: 8.12261 Bohr) occupying 0.413683 of unit cell:	Completed after 0 iterations at t[s]:  25095.67
	FillingsUpdate:  mu: -0.193294551  nElectrons: 522.000000  magneticMoment: [ Abs: 0.00155  Tot: +0.00148 ]
	SubspaceRotationAdjust: set factor to 0.0513
ElecMinimize: Iter:  14  F: -2868.748936449831035  |grad|_K:  1.876e-08  alpha:  4.661e-01  linmin: -1.380e-03  t[s]:  25118.72
	Linear fluid (dielectric constant: 78.4, screening length: 8.12261 Bohr) occupying 0.413685 of unit cell:	Completed after 2 iterations at t[s]:  25140.60
	Linear fluid (dielectric constant: 78.4, screening length: 8.12261 Bohr) occupying 0.413684 of unit cell:	Completed after 0 iterations at t[s]:  25156.72
	FillingsUpdate:  mu: -0.193275096  nElectrons: 522.000000  magneticMoment: [ Abs: 0.00156  Tot: +0.00148 ]
	SubspaceRotationAdjust: set factor to 0.0506
ElecMinimize: Iter:  15  F: -2868.748936483754733  |grad|_K:  1.553e-08  alpha:  3.825e-01  linmin:  6.976e-04  t[s]:  25179.82
ElecMinimize: Converged (|Delta F|<1.000000e-07 for 2 iters).
Setting wave functions to eigenvectors of Hamiltonian
Converging empty states (this may take a while): |deigs|: 7.084e-09

Computing DFT-D3 correction:
# coordination-number Pt 8.659 8.659 8.675 8.675 9.490 9.490 9.490 9.490 6.956 5.950 6.959 5.950 9.419 9.418 9.419 9.418 9.418 9.418 9.418 9.418 5.947 5.947 5.947 5.947 9.491 9.491 9.491 9.491 8.656 8.656 8.656 8.656
# coordination-number C 3.012
# coordination-number O 1.066
# diagonal-C6 Pt 336.87 336.87 336.87 336.87 336.87 336.87 336.87 336.87 336.87 336.87 336.87 336.87 336.87 336.87 336.87 336.87 336.87 336.87 336.87 336.87 336.87 336.87 336.87 336.87 336.87 336.87 336.87 336.87 336.87 336.87 336.87 336.87
# diagonal-C6 C 25.65
# diagonal-C6 O 12.76
EvdW_6 =   -0.272544
EvdW_8 =   -0.445479
IonicMinimize: 	Wolfe criterion not satisfied: alpha: 1  (E-E0)/|gdotd0|: 0.0765694  gdotd/gdotd0: -0.393168 (taking cubic step)

Computing DFT-D3 correction:
# coordination-number Pt 8.659 8.659 8.675 8.675 9.490 9.490 9.490 9.490 6.956 5.950 6.960 5.950 9.419 9.418 9.419 9.418 9.418 9.418 9.418 9.418 5.947 5.947 5.947 5.947 9.491 9.491 9.491 9.491 8.656 8.656 8.656 8.656
# coordination-number C 3.013
# coordination-number O 1.067
# diagonal-C6 Pt 336.87 336.87 336.87 336.87 336.87 336.87 336.87 336.87 336.87 336.87 336.87 336.87 336.87 336.87 336.87 336.87 336.87 336.87 336.87 336.87 336.87 336.87 336.87 336.87 336.87 336.87 336.87 336.87 336.87 336.87 336.87 336.87
# diagonal-C6 C 25.65
# diagonal-C6 O 12.76
EvdW_6 =   -0.272548
EvdW_8 =   -0.445482

-------- Electronic minimization -----------
	Linear fluid (dielectric constant: 78.4, screening length: 8.12261 Bohr) occupying 0.413708 of unit cell:	Completed after 11 iterations at t[s]:  25269.36
	FillingsUpdate:  mu: -0.193299072  nElectrons: 522.000000  magneticMoment: [ Abs: 0.00166  Tot: +0.00158 ]
ElecMinimize: Iter:   0  F: -2868.748920421770890  |grad|_K:  5.599e-07  alpha:  1.000e+00
	Linear fluid (dielectric constant: 78.4, screening length: 8.12261 Bohr) occupying 0.413855 of unit cell:	Completed after 15 iterations at t[s]:  25319.64
	Linear fluid (dielectric constant: 78.4, screening length: 8.12261 Bohr) occupying 0.413732 of unit cell:	Completed after 14 iterations at t[s]:  25338.25
	FillingsUpdate:  mu: -0.193093065  nElectrons: 522.000000  magneticMoment: [ Abs: 0.00166  Tot: +0.00158 ]
	SubspaceRotationAdjust: set factor to 0.0397
ElecMinimize: Iter:   1  F: -2868.748933446043793  |grad|_K:  1.318e-07  alpha:  1.735e-01  linmin:  4.340e-04  t[s]:  25361.35
	Linear fluid (dielectric constant: 78.4, screening length: 8.12261 Bohr) occupying 0.413733 of unit cell:	Completed after 2 iterations at t[s]:  25383.19
	Linear fluid (dielectric constant: 78.4, screening length: 8.12261 Bohr) occupying 0.413733 of unit cell:	Completed after 2 iterations at t[s]:  25399.84
	FillingsUpdate:  mu: -0.193157911  nElectrons: 522.000000  magneticMoment: [ Abs: 0.00167  Tot: +0.00158 ]
	SubspaceRotationAdjust: set factor to 0.047
ElecMinimize: Iter:   2  F: -2868.748935115055247  |grad|_K:  5.791e-08  alpha:  3.987e-01  linmin: -1.191e-03  t[s]:  25422.72
	Linear fluid (dielectric constant: 78.4, screening length: 8.12261 Bohr) occupying 0.413733 of unit cell:	Completed after 2 iterations at t[s]:  25444.56
	Linear fluid (dielectric constant: 78.4, screening length: 8.12261 Bohr) occupying 0.413733 of unit cell:	Completed after 0 iterations at t[s]:  25461.30
	FillingsUpdate:  mu: -0.193193144  nElectrons: 522.000000  magneticMoment: [ Abs: 0.00167  Tot: +0.00159 ]
	SubspaceRotationAdjust: set factor to 0.0596
ElecMinimize: Iter:   3  F: -2868.748935493282261  |grad|_K:  4.057e-08  alpha:  4.632e-01  linmin: -2.681e-03  t[s]:  25484.28
	Linear fluid (dielectric constant: 78.4, screening length: 8.12261 Bohr) occupying 0.413733 of unit cell:	Completed after 5 iterations at t[s]:  25506.57
	Linear fluid (dielectric constant: 78.4, screening length: 8.12261 Bohr) occupying 0.413733 of unit cell:	Completed after 0 iterations at t[s]:  25522.78
	FillingsUpdate:  mu: -0.193231737  nElectrons: 522.000000  magneticMoment: [ Abs: 0.00168  Tot: +0.00159 ]
	SubspaceRotationAdjust: set factor to 0.0717
ElecMinimize: Iter:   4  F: -2868.748935735792656  |grad|_K:  3.490e-08  alpha:  5.802e-01  linmin: -3.642e-03  t[s]:  25545.85
	Linear fluid (dielectric constant: 78.4, screening length: 8.12261 Bohr) occupying 0.413731 of unit cell:	Completed after 3 iterations at t[s]:  25567.88
	Linear fluid (dielectric constant: 78.4, screening length: 8.12261 Bohr) occupying 0.413731 of unit cell:	Completed after 2 iterations at t[s]:  25584.46
	FillingsUpdate:  mu: -0.193231242  nElectrons: 522.000000  magneticMoment: [ Abs: 0.00169  Tot: +0.00160 ]
	SubspaceRotationAdjust: set factor to 0.0767
ElecMinimize: Iter:   5  F: -2868.748935990920018  |grad|_K:  5.043e-08  alpha:  8.142e-01  linmin:  3.478e-04  t[s]:  25607.47
	Linear fluid (dielectric constant: 78.4, screening length: 8.12261 Bohr) occupying 0.413733 of unit cell:	Completed after 8 iterations at t[s]:  25630.32
	Linear fluid (dielectric constant: 78.4, screening length: 8.12261 Bohr) occupying 0.413732 of unit cell:	Completed after 7 iterations at t[s]:  25647.55
	FillingsUpdate:  mu: -0.193273237  nElectrons: 522.000000  magneticMoment: [ Abs: 0.00170  Tot: +0.00161 ]
	SubspaceRotationAdjust: set factor to 0.0696
ElecMinimize: Iter:   6  F: -2868.748936243911430  |grad|_K:  4.886e-08  alpha:  4.168e-01  linmin:  5.507e-05  t[s]:  25670.64
	Linear fluid (dielectric constant: 78.4, screening length: 8.12261 Bohr) occupying 0.413729 of unit cell:	Completed after 3 iterations at t[s]:  25692.65
	Linear fluid (dielectric constant: 78.4, screening length: 8.12261 Bohr) occupying 0.413729 of unit cell:	Completed after 3 iterations at t[s]:  25709.33
	FillingsUpdate:  mu: -0.193320349  nElectrons: 522.000000  magneticMoment: [ Abs: 0.00172  Tot: +0.00163 ]
	SubspaceRotationAdjust: set factor to 0.0664
ElecMinimize: Iter:   7  F: -2868.748936553306521  |grad|_K:  4.913e-08  alpha:  5.507e-01  linmin:  2.419e-04  t[s]:  25732.37
	Linear fluid (dielectric constant: 78.4, screening length: 8.12261 Bohr) occupying 0.413729 of unit cell:	Completed after 5 iterations at t[s]:  25755.19
	Linear fluid (dielectric constant: 78.4, screening length: 8.12261 Bohr) occupying 0.413729 of unit cell:	Completed after 0 iterations at t[s]:  25771.36
	FillingsUpdate:  mu: -0.193240939  nElectrons: 522.000000  magneticMoment: [ Abs: 0.00175  Tot: +0.00166 ]
	SubspaceRotationAdjust: set factor to 0.0582
ElecMinimize: Iter:   8  F: -2868.748936835790118  |grad|_K:  4.955e-08  alpha:  4.958e-01  linmin:  3.305e-04  t[s]:  25794.42
	Linear fluid (dielectric constant: 78.4, screening length: 8.12261 Bohr) occupying 0.413727 of unit cell:	Completed after 5 iterations at t[s]:  25816.71
	Linear fluid (dielectric constant: 78.4, screening length: 8.12261 Bohr) occupying 0.413728 of unit cell:	Completed after 2 iterations at t[s]:  25833.23
	FillingsUpdate:  mu: -0.193317735  nElectrons: 522.000000  magneticMoment: [ Abs: 0.00177  Tot: +0.00168 ]
	SubspaceRotationAdjust: set factor to 0.0532
ElecMinimize: Iter:   9  F: -2868.748937061746346  |grad|_K:  3.816e-08  alpha:  3.971e-01  linmin: -1.817e-04  t[s]:  25856.27
	Linear fluid (dielectric constant: 78.4, screening length: 8.12261 Bohr) occupying 0.413728 of unit cell:	Completed after 2 iterations at t[s]:  25878.22
	Linear fluid (dielectric constant: 78.4, screening length: 8.12261 Bohr) occupying 0.413728 of unit cell:	Completed after 0 iterations at t[s]:  25894.31
	FillingsUpdate:  mu: -0.193311667  nElectrons: 522.000000  magneticMoment: [ Abs: 0.00179  Tot: +0.00170 ]
	SubspaceRotationAdjust: set factor to 0.0566
ElecMinimize: Iter:  10  F: -2868.748937234662662  |grad|_K:  2.847e-08  alpha:  4.849e-01  linmin: -4.806e-04  t[s]:  25917.32
	Linear fluid (dielectric constant: 78.4, screening length: 8.12261 Bohr) occupying 0.413728 of unit cell:	Completed after 2 iterations at t[s]:  25939.32
	Linear fluid (dielectric constant: 78.4, screening length: 8.12261 Bohr) occupying 0.413728 of unit cell:	Completed after 0 iterations at t[s]:  25955.32
	FillingsUpdate:  mu: -0.193283776  nElectrons: 522.000000  magneticMoment: [ Abs: 0.00180  Tot: +0.00171 ]
	SubspaceRotationAdjust: set factor to 0.0629
ElecMinimize: Iter:  11  F: -2868.748937330965418  |grad|_K:  2.391e-08  alpha:  4.829e-01  linmin: -4.655e-04  t[s]:  25978.43
	Linear fluid (dielectric constant: 78.4, screening length: 8.12261 Bohr) occupying 0.413727 of unit cell:	Completed after 2 iterations at t[s]:  26000.46
	Linear fluid (dielectric constant: 78.4, screening length: 8.12261 Bohr) occupying 0.413727 of unit cell:	Completed after 0 iterations at t[s]:  26016.42
	FillingsUpdate:  mu: -0.193288728  nElectrons: 522.000000  magneticMoment: [ Abs: 0.00182  Tot: +0.00172 ]
	SubspaceRotationAdjust: set factor to 0.0588
ElecMinimize: Iter:  12  F: -2868.748937389309503  |grad|_K:  2.086e-08  alpha:  4.126e-01  linmin:  1.671e-03  t[s]:  26039.54
ElecMinimize: Converged (|Delta F|<1.000000e-07 for 2 iters).
Setting wave functions to eigenvectors of Hamiltonian
Converging empty states (this may take a while): |deigs|: 3.595e-09

Computing DFT-D3 correction:
# coordination-number Pt 8.659 8.659 8.675 8.675 9.490 9.490 9.490 9.490 6.956 5.950 6.960 5.950 9.419 9.418 9.419 9.418 9.418 9.418 9.418 9.418 5.947 5.947 5.947 5.947 9.491 9.491 9.491 9.491 8.656 8.656 8.656 8.656
# coordination-number C 3.013
# coordination-number O 1.067
# diagonal-C6 Pt 336.87 336.87 336.87 336.87 336.87 336.87 336.87 336.87 336.87 336.87 336.87 336.87 336.87 336.87 336.87 336.87 336.87 336.87 336.87 336.87 336.87 336.87 336.87 336.87 336.87 336.87 336.87 336.87 336.87 336.87 336.87 336.87
# diagonal-C6 C 25.65
# diagonal-C6 O 12.76
EvdW_6 =   -0.272548
EvdW_8 =   -0.445482

# Ionic positions in cartesian coordinates:
ion Pt   0.000010000000000   7.399025000000001  48.561914000000009 0
ion Pt   0.000010000000000  14.798198000000001  48.561914000000009 0
ion Pt   5.232006000000000   7.399025000000001  48.561914000000009 0
ion Pt   5.232006000000000  14.798198000000001  48.561914000000009 0
ion Pt   0.000000000000000   0.000074000000000  43.164379000000004 0
ion Pt   0.000000000000000   7.399232000000001  43.164379000000004 0
ion Pt   5.231996000000000   0.000074000000000  43.164379000000004 0
ion Pt   5.231996000000000   7.399232000000001  43.164379000000004 0
ion Pt   2.615956000000000   3.699298000000001  50.876444000000006 0
ion Pt   2.615956000000000  11.098456000000002  50.876444000000006 0
ion Pt   7.847942000000001   3.699298000000001  50.876444000000006 0
ion Pt   7.847942000000001  11.098456000000002  50.876444000000006 0
ion Pt   2.616040000000000   3.699683000000001  45.754477999999999 0
ion Pt   2.616040000000000  11.098841000000002  45.754477999999999 0
ion Pt   7.848036000000000   3.699683000000001  45.754477999999999 0
ion Pt   7.848036000000000  11.098841000000002  45.754477999999999 0
ion Pt   5.231944000000000   0.000000000000000  37.958072999999999 0
ion Pt   5.231944000000000   7.399158000000001  37.958072999999999 0
ion Pt  10.463950000000001   0.000000000000000  37.958072999999999 0
ion Pt  10.463950000000001   7.399158000000001  37.958072999999999 0
ion Pt   0.000031000000000   0.000118000000000  32.835321000000000 0
ion Pt   0.000031000000000   7.399277000000001  32.835321000000000 0
ion Pt   5.232038000000001   0.000118000000000  32.835321000000000 0
ion Pt   5.232038000000001   7.399277000000001  32.835321000000000 0
ion Pt   2.615946000000000   3.699624000000000  40.547072999999997 0
ion Pt   2.615946000000000  11.098782000000002  40.547072999999997 0
ion Pt   7.847942000000001   3.699624000000000  40.547072999999997 0
ion Pt   7.847942000000001  11.098782000000002  40.547072999999997 0
ion Pt   2.616050000000000   3.699653000000000  35.149956000000003 0
ion Pt   2.616050000000000  11.098796999999999  35.149956000000003 0
ion Pt   7.848046000000001   3.699653000000000  35.149956000000003 0
ion Pt   7.848046000000001  11.098796999999999  35.149956000000003 0
ion C   5.231954000000000   3.699298000000001   1.306677999233023 1  Linear 0 0 1
ion O   5.292038000000001   3.699298000000001   3.544567628129282 1  Linear 0 0 1

# Forces in Cartesian coordinates:
force Pt   0.000016079714937   0.000745724320302  -0.000843360976343 0
force Pt   0.000015622376036  -0.000742408401584  -0.000843945417202 0
force Pt   0.000004396682555   0.005230801704248  -0.007457104119761 0
force Pt   0.000004510830617  -0.005233183633865  -0.007466061230830 0
force Pt   0.000015322064929   0.001225257663566  -0.000135859694996 0
force Pt   0.000015685934843  -0.001219144286493  -0.000135451929744 0
force Pt  -0.000009524929894   0.002017710348415  -0.000833762962301 0
force Pt  -0.000009198667610  -0.002014437663634  -0.000829753640550 0
force Pt   0.002761505847563   0.000000824751901   0.017513256511373 0
force Pt  -0.000691832013751  -0.000002898636168   0.000174759805954 0
force Pt  -0.001722784058957   0.000000823265523   0.015781283306456 0
force Pt   0.000732557680177  -0.000002194510799   0.000117087263586 0
force Pt  -0.001921946123957  -0.000005291506809  -0.001491335653731 0
force Pt   0.001243483633229  -0.000005571885899  -0.002517088642359 0
force Pt   0.001749064399081  -0.000005222985005  -0.001835094578951 0
force Pt  -0.001277569053065  -0.000005744691225  -0.002512415441748 0
force Pt   0.000007386692920   0.001053345216156   0.000304665513223 0
force Pt   0.000007224653994  -0.001046650619448   0.000304632005517 0
force Pt   0.000005183578150   0.000917430981323   0.000406166641441 0
force Pt   0.000005465437145  -0.000906041716535   0.000406475171457 0
force Pt   0.000013160265492   0.000276168719143   0.000106513636198 0
force Pt   0.000013297876861  -0.000256955837265   0.000105298136095 0
force Pt  -0.000002370886707   0.000051896821942   0.000471538936232 0
force Pt  -0.000001754577868  -0.000034257291455   0.000470140361538 0
force Pt   0.000432395018358  -0.000003946070551  -0.004353967044507 0
force Pt   0.000140288134889  -0.000003755682775   0.000932929879147 0
force Pt  -0.000437029682612  -0.000003848292837  -0.004256100425867 0
force Pt  -0.000140530786304  -0.000003731271644   0.000906894269008 0
force Pt   0.000355077299112  -0.000004217311757  -0.001863973208307 0
force Pt   0.000123852951914  -0.000001703742230   0.000459815682747 0
force Pt  -0.000376724406245  -0.000004245463995  -0.001818977351421 0
force Pt  -0.000127092725802  -0.000001769894369   0.000437931688423 0
force C   0.000504633354014  -0.000001533768200   0.000082661400355 1  Linear 0 0 1
force O  -0.001437791359805   0.000013896447221   0.000004562810276 1  Linear 0 0 1

# Energy components:
   A_diel =       -0.0098539745870657
   Eewald =    14325.1991871516838728
       EH =    16963.1378287424995506
     Eloc =   -34659.4021967526641674
      Enl =      -30.6515263181868640
     EvdW =       -0.7180299388164233
      Exc =     -915.7719553808794899
 Exc_core =      524.6228871168341357
       KE =      924.8511479536988418
-------------------------------------
     Etot =    -2868.7425114004195166
       TS =        0.0064259888898144
-------------------------------------
        F =    -2868.7489373893095035


Dumping 'jdft.fillings' ... done
Dumping 'jdft.wfns' ... done
Dumping 'jdft.fluidState' ... done
Dumping 'jdft.ionpos' ... done
Dumping 'jdft.lattice' ... done
Dumping 'jdft.eigenvals' ... done
Dumping 'jdft.eigStats' ... 
	eMin: -2.142703 at state 0 ( [ +0.000000 +0.000000 +0.000000 ] spin 1 )
	HOMO: -0.193345 at state 17 ( [ +0.200000 -0.250000 +0.000000 ] spin -1 )
	mu  : -0.193289
	LUMO: -0.193244 at state 3 ( [ +0.200000 +0.000000 +0.000000 ] spin 1 )
	eMax: +0.107401 at state 18 ( [ +0.400000 +0.000000 +0.000000 ] spin -1 )
	HOMO-LUMO gap: +0.000101
	Optical gap  : +0.000524 at state 6 ( [ +0.200000 -0.250000 +0.000000 ] spin 1 )
Dumping 'jdft.Ecomponents' ... done
IonicMinimize: Iter:   9  F: -2868.748937389309503  |grad|_K:  5.854e-05  alpha:  3.470e-01  linmin: -2.169e-03  t[s]:  26102.52
IonicMinimize: Converged (|grad|_K<1.000000e-04).

#--- Lowdin population analysis ---
# oxidation-state Pt -0.061 -0.061 -0.042 -0.042 +0.009 +0.009 +0.009 +0.009 -0.021 +0.084 -0.019 +0.084 -0.013 +0.004 -0.013 +0.004 +0.010 +0.010 +0.009 +0.009 +0.091 +0.091 +0.091 +0.091 +0.004 +0.009 +0.004 +0.008 -0.041 -0.043 -0.040 -0.043
# magnetic-moments Pt +0.000 +0.000 +0.000 +0.000 +0.000 +0.000 +0.000 +0.000 +0.000 +0.000 +0.000 +0.000 +0.000 +0.000 +0.000 +0.000 +0.000 +0.000 +0.000 +0.000 +0.000 +0.000 +0.000 +0.000 +0.000 +0.000 +0.000 +0.000 +0.000 +0.000 +0.000 +0.000
# oxidation-state C +0.404
# magnetic-moments C -0.000
# oxidation-state O -0.172
# magnetic-moments O +0.000


Dumping 'jdft.n_up' ... done
Dumping 'jdft.n_dn' ... done
Dumping 'jdft.tau_up' ... done
Dumping 'jdft.tau_dn' ... done
Dumping 'jdft.eigenvals' ... done
Dumping 'jdft.eigStats' ... 
	eMin: -2.142703 at state 0 ( [ +0.000000 +0.000000 +0.000000 ] spin 1 )
	HOMO: -0.193345 at state 17 ( [ +0.200000 -0.250000 +0.000000 ] spin -1 )
	mu  : -0.193289
	LUMO: -0.193244 at state 3 ( [ +0.200000 +0.000000 +0.000000 ] spin 1 )
	eMax: +0.107401 at state 18 ( [ +0.400000 +0.000000 +0.000000 ] spin -1 )
	HOMO-LUMO gap: +0.000101
	Optical gap  : +0.000524 at state 6 ( [ +0.200000 -0.250000 +0.000000 ] spin 1 )
Dumping 'jdft.kPts' ... done
Dumping 'jdft.kMap' ... done
Dumping 'jdft.dosUp' ... done.
Dumping 'jdft.dosDn' ... done.
End date and time: Thu Feb 17 11:14:50 2022  (Duration: 0-7:15:39.67)
Done!
