
*************** JDFTx 1.6.0  ***************

Start date and time: Sat Feb 26 10:21:11 2022
Executable /projects/musgravc/apps/jdftx-1.6.1/build/jdftx with command-line: -i in
Running on hosts (process indices):  shas0543.rc.int.colorado.edu (0-23)
Divided in process groups (process indices):  0 (0)  1 (1)  2 (2)  3 (3)  4 (4)  5 (5)  6 (6)  7 (7)  8 (8)  9 (9)  10 (10)  11 (11)  12 (12)  13 (13)  14 (14)  15 (15)  16 (16)  17 (17)  18 (18)  19 (19)  20 (20)  21 (21)  22 (22)  23 (23)
Resource initialization completed at t[s]:      0.00
Run totals: 24 processes, 24 threads, 0 GPUs


Input parsed successfully to the following command list (including defaults):

basis kpoint-dependent
converge-empty-states yes
coords-type Cartesian
core-overlap-check none
coulomb-interaction Periodic
davidson-band-ratio 1.1
density-of-states Etol 1.000000e-06 Esigma 1.000000e-03 \
		Complete \
	Total \
	OrthoOrbital Ni 1   s \
	OrthoOrbital Ni 1   p \
	OrthoOrbital Ni 1   px \
	OrthoOrbital Ni 1   py \
	OrthoOrbital Ni 1   pz \
	OrthoOrbital Ni 1   d \
	OrthoOrbital Ni 1   dxy \
	OrthoOrbital Ni 1   dyz \
	OrthoOrbital Ni 1   dz2 \
	OrthoOrbital Ni 1   dxz \
	OrthoOrbital Ni 1   dx2-y2 \
	OrthoOrbital Ni 2   s \
	OrthoOrbital Ni 2   p \
	OrthoOrbital Ni 2   px \
	OrthoOrbital Ni 2   py \
	OrthoOrbital Ni 2   pz \
	OrthoOrbital Ni 2   d \
	OrthoOrbital Ni 2   dxy \
	OrthoOrbital Ni 2   dyz \
	OrthoOrbital Ni 2   dz2 \
	OrthoOrbital Ni 2   dxz \
	OrthoOrbital Ni 2   dx2-y2 \
	OrthoOrbital Au 1   s \
	OrthoOrbital Au 1   p \
	OrthoOrbital Au 1   px \
	OrthoOrbital Au 1   py \
	OrthoOrbital Au 1   pz \
	OrthoOrbital Au 1   d \
	OrthoOrbital Au 1   dxy \
	OrthoOrbital Au 1   dyz \
	OrthoOrbital Au 1   dz2 \
	OrthoOrbital Au 1   dxz \
	OrthoOrbital Au 1   dx2-y2 \
	OrthoOrbital Au 2   s \
	OrthoOrbital Au 2   p \
	OrthoOrbital Au 2   px \
	OrthoOrbital Au 2   py \
	OrthoOrbital Au 2   pz \
	OrthoOrbital Au 2   d \
	OrthoOrbital Au 2   dxy \
	OrthoOrbital Au 2   dyz \
	OrthoOrbital Au 2   dz2 \
	OrthoOrbital Au 2   dxz \
	OrthoOrbital Au 2   dx2-y2 \
	OrthoOrbital Au 3   s \
	OrthoOrbital Au 3   p \
	OrthoOrbital Au 3   px \
	OrthoOrbital Au 3   py \
	OrthoOrbital Au 3   pz \
	OrthoOrbital Au 3   d \
	OrthoOrbital Au 3   dxy \
	OrthoOrbital Au 3   dyz \
	OrthoOrbital Au 3   dz2 \
	OrthoOrbital Au 3   dxz \
	OrthoOrbital Au 3   dx2-y2 \
	OrthoOrbital Au 4   s \
	OrthoOrbital Au 4   p \
	OrthoOrbital Au 4   px \
	OrthoOrbital Au 4   py \
	OrthoOrbital Au 4   pz \
	OrthoOrbital Au 4   d \
	OrthoOrbital Au 4   dxy \
	OrthoOrbital Au 4   dyz \
	OrthoOrbital Au 4   dz2 \
	OrthoOrbital Au 4   dxz \
	OrthoOrbital Au 4   dx2-y2 \
	OrthoOrbital Au 5   s \
	OrthoOrbital Au 5   p \
	OrthoOrbital Au 5   px \
	OrthoOrbital Au 5   py \
	OrthoOrbital Au 5   pz \
	OrthoOrbital Au 5   d \
	OrthoOrbital Au 5   dxy \
	OrthoOrbital Au 5   dyz \
	OrthoOrbital Au 5   dz2 \
	OrthoOrbital Au 5   dxz \
	OrthoOrbital Au 5   dx2-y2 \
	OrthoOrbital Au 6   s \
	OrthoOrbital Au 6   p \
	OrthoOrbital Au 6   px \
	OrthoOrbital Au 6   py \
	OrthoOrbital Au 6   pz \
	OrthoOrbital Au 6   d \
	OrthoOrbital Au 6   dxy \
	OrthoOrbital Au 6   dyz \
	OrthoOrbital Au 6   dz2 \
	OrthoOrbital Au 6   dxz \
	OrthoOrbital Au 6   dx2-y2 \
	OrthoOrbital Ni 1   s \
	OrthoOrbital Ni 1   p \
	OrthoOrbital Ni 1   px \
	OrthoOrbital Ni 1   py \
	OrthoOrbital Ni 1   pz \
	OrthoOrbital Ni 1   d \
	OrthoOrbital Ni 1   dxy \
	OrthoOrbital Ni 1   dyz \
	OrthoOrbital Ni 1   dz2 \
	OrthoOrbital Ni 1   dxz \
	OrthoOrbital Ni 1   dx2-y2 \
	OrthoOrbital Ni 2   s \
	OrthoOrbital Ni 2   p \
	OrthoOrbital Ni 2   px \
	OrthoOrbital Ni 2   py \
	OrthoOrbital Ni 2   pz \
	OrthoOrbital Ni 2   d \
	OrthoOrbital Ni 2   dxy \
	OrthoOrbital Ni 2   dyz \
	OrthoOrbital Ni 2   dz2 \
	OrthoOrbital Ni 2   dxz \
	OrthoOrbital Ni 2   dx2-y2 \
	OrthoOrbital Au 1   s \
	OrthoOrbital Au 1   p \
	OrthoOrbital Au 1   px \
	OrthoOrbital Au 1   py \
	OrthoOrbital Au 1   pz \
	OrthoOrbital Au 1   d \
	OrthoOrbital Au 1   dxy \
	OrthoOrbital Au 1   dyz \
	OrthoOrbital Au 1   dz2 \
	OrthoOrbital Au 1   dxz \
	OrthoOrbital Au 1   dx2-y2 \
	OrthoOrbital Au 2   s \
	OrthoOrbital Au 2   p \
	OrthoOrbital Au 2   px \
	OrthoOrbital Au 2   py \
	OrthoOrbital Au 2   pz \
	OrthoOrbital Au 2   d \
	OrthoOrbital Au 2   dxy \
	OrthoOrbital Au 2   dyz \
	OrthoOrbital Au 2   dz2 \
	OrthoOrbital Au 2   dxz \
	OrthoOrbital Au 2   dx2-y2 \
	OrthoOrbital Au 3   s \
	OrthoOrbital Au 3   p \
	OrthoOrbital Au 3   px \
	OrthoOrbital Au 3   py \
	OrthoOrbital Au 3   pz \
	OrthoOrbital Au 3   d \
	OrthoOrbital Au 3   dxy \
	OrthoOrbital Au 3   dyz \
	OrthoOrbital Au 3   dz2 \
	OrthoOrbital Au 3   dxz \
	OrthoOrbital Au 3   dx2-y2 \
	OrthoOrbital Au 4   s \
	OrthoOrbital Au 4   p \
	OrthoOrbital Au 4   px \
	OrthoOrbital Au 4   py \
	OrthoOrbital Au 4   pz \
	OrthoOrbital Au 4   d \
	OrthoOrbital Au 4   dxy \
	OrthoOrbital Au 4   dyz \
	OrthoOrbital Au 4   dz2 \
	OrthoOrbital Au 4   dxz \
	OrthoOrbital Au 4   dx2-y2 \
	OrthoOrbital Au 5   s \
	OrthoOrbital Au 5   p \
	OrthoOrbital Au 5   px \
	OrthoOrbital Au 5   py \
	OrthoOrbital Au 5   pz \
	OrthoOrbital Au 5   d \
	OrthoOrbital Au 5   dxy \
	OrthoOrbital Au 5   dyz \
	OrthoOrbital Au 5   dz2 \
	OrthoOrbital Au 5   dxz \
	OrthoOrbital Au 5   dx2-y2 \
	OrthoOrbital Au 6   s \
	OrthoOrbital Au 6   p \
	OrthoOrbital Au 6   px \
	OrthoOrbital Au 6   py \
	OrthoOrbital Au 6   pz \
	OrthoOrbital Au 6   d \
	OrthoOrbital Au 6   dxy \
	OrthoOrbital Au 6   dyz \
	OrthoOrbital Au 6   dz2 \
	OrthoOrbital Au 6   dxz \
	OrthoOrbital Au 6   dx2-y2
dump End ElecDensity KEdensity BandEigs EigStats RhoAtom DOS Kpoints
dump Ionic State IonicPositions Lattice EigStats Ecomponents
dump 
dump 
dump 
dump 
dump 
dump 
dump 
dump 
dump-name jdft.$VAR
elec-cutoff 20
elec-eigen-algo Davidson
elec-ex-corr gga-PBE
elec-initial-magnetization 0.000000 no
elec-n-bands 123
elec-smearing Fermi 0.001
electronic-minimize  \
	dirUpdateScheme      FletcherReeves \
	linminMethod         DirUpdateRecommended \
	nIterations          100 \
	history              15 \
	knormThreshold       0 \
	energyDiffThreshold  1e-07 \
	nEnergyDiff          2 \
	alphaTstart          1 \
	alphaTmin            1e-10 \
	updateTestStepSize   yes \
	alphaTreduceFactor   0.1 \
	alphaTincreaseFactor 3 \
	nAlphaAdjustMax      3 \
	wolfeEnergy          0.0001 \
	wolfeGradient        0.9 \
	fdTest               no
exchange-regularization WignerSeitzTruncated
fluid LinearPCM 298.000000 1.013250
fluid-anion F- 0.5 MeanFieldLJ \
	epsBulk 1 \
	pMol 0 \
	epsInf 1 \
	Pvap 0 \
	sigmaBulk 0 \
	Rvdw 2.24877 \
	Res 0 \
	tauNuc 343133
fluid-cation Na+ 0.5 MeanFieldLJ \
	epsBulk 1 \
	pMol 0 \
	epsInf 1 \
	Pvap 0 \
	sigmaBulk 0 \
	Rvdw 2.19208 \
	Res 0 \
	tauNuc 343133
fluid-ex-corr lda-TF lda-PZ
fluid-gummel-loop 10 1.000000e-05
fluid-minimize  \
	dirUpdateScheme      PolakRibiere \
	linminMethod         DirUpdateRecommended \
	nIterations          400 \
	history              15 \
	knormThreshold       1e-11 \
	energyDiffThreshold  0 \
	nEnergyDiff          2 \
	alphaTstart          1 \
	alphaTmin            1e-10 \
	updateTestStepSize   yes \
	alphaTreduceFactor   0.1 \
	alphaTincreaseFactor 3 \
	nAlphaAdjustMax      6 \
	wolfeEnergy          0.0001 \
	wolfeGradient        0.9 \
	fdTest               no
fluid-solvent H2O 55.338 ScalarEOS \
	epsBulk 78.4 \
	pMol 0.92466 \
	epsInf 1.77 \
	Pvap 1.06736e-10 \
	sigmaBulk 4.62e-05 \
	Rvdw 2.61727 \
	Res 1.42 \
	tauNuc 343133 \
	poleEl 15 7 1
forces-output-coords Positions
ion Ni   0.000000000000000   5.274699999999999   3.956025000000000 1
ion Ni   0.000000000000000   0.000000000000000   9.230725000000000 1
ion Ni   0.000000000000000   5.274699999999999  14.505424999999999 1
ion Ni   0.000000000000000   0.000000000000000  19.780125000000002 1
ion Au   3.729776000000000   7.912049999999999   1.318675000000000 1
ion Au   3.729776000000000   2.637350000000000   6.593374999999999 1
ion Au   3.729776000000000   2.637350000000000   1.318675000000000 1
ion Au   3.729776000000000   7.912049999999999   6.593374999999999 1
ion Au   0.000000000000000   5.274699999999999   9.230725000000000 1
ion Au   0.000000000000000   0.000000000000000   3.956025000000000 1
ion Au   3.729776000000000   7.912049999999999  11.868074999999999 1
ion Au   3.729776000000000   2.637350000000000  17.142775000000000 1
ion Au   3.729776000000000   2.637350000000000  11.868074999999999 1
ion Au   3.729776000000000   7.912049999999999  17.142775000000000 1
ion Au   0.000000000000000   5.274699999999999  19.780125000000002 1
ion Au   0.000000000000000   0.000000000000000  14.505424999999999 1
ion-species /projects/musgravc/apps/jdftx-1.6.0/build/pseudopotentials/GBRV_v1.5/$ID_pbe_v1.uspp
ion-species /projects/musgravc/apps/jdftx-1.6.0/build/pseudopotentials/GBRV_v1.5/$ID_pbe_v1.2.uspp
ion-species /projects/musgravc/apps/jdftx-1.6.0/build/pseudopotentials/GBRV_v1.5/$ID_pbe_v1.4.uspp
ion-species /projects/musgravc/apps/jdftx-1.6.0/build/pseudopotentials/GBRV_v1.5/$ID_pbe_v1.5.uspp
ion-width Ecut
ionic-minimize  \
	dirUpdateScheme      L-BFGS \
	linminMethod         DirUpdateRecommended \
	nIterations          100 \
	history              15 \
	knormThreshold       0.0001 \
	energyDiffThreshold  1e-06 \
	nEnergyDiff          2 \
	alphaTstart          1 \
	alphaTmin            1e-10 \
	updateTestStepSize   yes \
	alphaTreduceFactor   0.1 \
	alphaTincreaseFactor 3 \
	nAlphaAdjustMax      3 \
	wolfeEnergy          0.0001 \
	wolfeGradient        0.9 \
	fdTest               no
kpoint   0.000000000000   0.000000000000   0.000000000000  1.00000000000000
kpoint-folding 8 6 1 
latt-move-scale 0 0 0
latt-scale 1 1 1 
lattice  \
	   7.459552000000000    0.000000000000000    0.000000000000000  \
	   0.000000000000000   10.549400000000000    0.000000000000000  \
	   0.000000000000000    0.000000000000000   52.746999000000002 
lattice-minimize  \
	dirUpdateScheme      L-BFGS \
	linminMethod         DirUpdateRecommended \
	nIterations          0 \
	history              15 \
	knormThreshold       0 \
	energyDiffThreshold  1e-06 \
	nEnergyDiff          2 \
	alphaTstart          1 \
	alphaTmin            1e-10 \
	updateTestStepSize   yes \
	alphaTreduceFactor   0.1 \
	alphaTincreaseFactor 3 \
	nAlphaAdjustMax      3 \
	wolfeEnergy          0.0001 \
	wolfeGradient        0.9 \
	fdTest               no
lcao-params 30 1e-06 0.001
pcm-variant CANDLE
spintype z-spin
subspace-rotation-factor 1 yes
symmetries automatic
symmetry-threshold 0.0001
van-der-waals D3



---------- Setting up symmetries ----------

Found 8 point-group symmetries of the bravais lattice
Found 4 space-group symmetries with basis
Applied RMS atom displacement 2.19604e-16 bohrs to make symmetries exact.

---------- Initializing the Grid ----------
R = 
[      7.45955            0            0  ]
[            0      10.5494            0  ]
[            0            0       52.747  ]
unit cell volume = 4150.86
G =
[   0.842301          0          0  ]
[          0   0.595596          0  ]
[          0          0   0.119119  ]
Minimum fftbox size, Smin = [  32  44  216  ]
Chosen fftbox size, S = [  32  48  216  ]

---------- Exchange Correlation functional ----------
Initalized PBE GGA exchange.
Initalized PBE GGA correlation.

---------- Setting up pseudopotentials ----------
Width of ionic core gaussian charges (only for fluid interactions / plotting) set to 0.397384

Reading pseudopotential file '/projects/musgravc/apps/jdftx-1.6.0/build/pseudopotentials/GBRV_v1.5/ni_pbe_v1.4.uspp':
  Title: Ni.  Created by USPP 7.3.6 on 1-4-15
  Reference state energy: -170.398381.  18 valence electrons in orbitals:
    |300>  occupation: 2  eigenvalue: -4.804705
    |310>  occupation: 6  eigenvalue: -3.347751
    |320>  occupation: 8  eigenvalue: -1.042415
    |400>  occupation: 0  eigenvalue: -0.795539
    |410>  occupation: 0  eigenvalue: -0.551375
  lMax: 2  lLocal: 3  QijEcut: 6.5
  6 projectors sampled on a log grid with 611 points:
    l: 0  eig: -4.804708  rCut: 1.44
    l: 0  eig: -0.795541  rCut: 1.44
    l: 1  eig: -3.347753  rCut: 1.55
    l: 1  eig: 0.500000  rCut: 1.55
    l: 2  eig: -1.042418  rCut: 1.5
    l: 2  eig: -0.450000  rCut: 1.5
  Partial core density with radius 0.65
  Transforming core density to a uniform radial grid of dG=0.02 with 1180 points.
  Transforming local potential to a uniform radial grid of dG=0.02 with 1180 points.
  Transforming nonlocal projectors to a uniform radial grid of dG=0.02 with 432 points.
  Transforming density augmentations to a uniform radial grid of dG=0.02 with 1180 points.
  Transforming atomic orbitals to a uniform radial grid of dG=0.02 with 432 points.
  Core radius for overlap checks: 1.55 bohrs.

Reading pseudopotential file '/projects/musgravc/apps/jdftx-1.6.0/build/pseudopotentials/GBRV_v1.5/au_pbe_v1.uspp':
  Title: Au.  Created by USPP 7.3.6 on 14-9-2013
  Reference state energy: -57.375295.  11 valence electrons in orbitals:
    |520>  occupation: 10  eigenvalue: -0.252742
    |600>  occupation: 1  eigenvalue: -0.211744
    |610>  occupation: 0  eigenvalue: -0.028291
  lMax: 3  lLocal: -1  QijEcut: 5
  7 projectors sampled on a log grid with 755 points:
    l: 0  eig: -0.211744  rCut: 2.3
    l: 0  eig: 0.500000  rCut: 2.3
    l: 1  eig: -0.028291  rCut: 2.35
    l: 1  eig: 0.850000  rCut: 2.35
    l: 2  eig: -0.252741  rCut: 2.1
    l: 2  eig: 1.000000  rCut: 2.1
    l: 3  eig: 0.000000  rCut: 2.5
  Partial core density with radius 1
  Transforming core density to a uniform radial grid of dG=0.02 with 1180 points.
  Transforming local potential to a uniform radial grid of dG=0.02 with 1180 points.
  Transforming nonlocal projectors to a uniform radial grid of dG=0.02 with 432 points.
  Transforming density augmentations to a uniform radial grid of dG=0.02 with 1180 points.
  Transforming atomic orbitals to a uniform radial grid of dG=0.02 with 432 points.
  Core radius for overlap checks: 2.50 bohrs.

Initialized 2 species with 16 total atoms.

Folded 1 k-points by 8x6x1 to 48 k-points.

---------- Setting up k-points, bands, fillings ----------
Reduced to 20 k-points under symmetry. 
Computing the number of bands and number of electrons
Calculating initial fillings.
nElectrons: 204.000000   nBands: 123   nStates: 40

----- Setting up reduced wavefunction bases (one per k-point) -----
average nbasis = 17729.688 , ideal nbasis = 17732.797

----- Initializing Supercell corresponding to k-point mesh -----
Lattice vector linear combinations in supercell:
[   8   0   0  ]
[   0   6   0  ]
[   0   0   1  ]
Supercell lattice vectors:
[  59.6764  0  0  ]
[  0  63.2964  0  ]
[  0  0  52.747  ]

Initializing DFT-D3 calculator:
	Parameters set for gga-PBE functional
	s6:  1.000  s_r6:  1.217
	s8:  0.722  s_r8:  1.000
	Per-atom parameters loaded for:
	Ni:  sqrtQ[a0]:  5.285  Rcov[a0]:  1.871  CN: [ 0.00 1.79 6.55 6.29 ]
	Au:  sqrtQ[a0]:  5.707  Rcov[a0]:  2.135  CN: [ 0.00 0.98 ]

Initializing DFT-D2 calculator for fluid / solvation:
	Ni:  C6:  187.33 Eh-a0^6  R0: 2.952 a0
	Au:  C6:  815.23 Eh-a0^6  R0: 3.326 a0 (WARNING: beyond Grimme's data set)

---------- Setting up ewald sum ----------
Optimum gaussian width for ewald sums = 4.038959 bohr.
Real space sum over 825 unit cells with max indices [  7  5  2  ]
Reciprocal space sum over 4257 terms with max indices [  4  5  21  ]

Computing DFT-D3 correction:
# coordination-number Ni 6.110 6.680 6.674 3.901
# coordination-number Au 5.140 8.646 5.140 8.646 8.655 8.043 8.655 7.812 8.655 7.812 4.907 8.644
# diagonal-C6 Ni 137.12 133.43 133.46 178.09
# diagonal-C6 Au 317.16 317.16 317.16 317.16 317.16 317.16 317.16 317.16 317.16 317.16 317.16 317.16
EvdW_6 =   -0.118899
EvdW_8 =   -0.209340

---------- Allocating electronic variables ----------
Initializing wave functions:  linear combination of atomic orbitals
Ni pseudo-atom occupations:   s ( 2 0 )  p ( 6 0 )  d ( 10 )
Au pseudo-atom occupations:   s ( 1 )  p ( 0 )  d ( 10 )
	FillingsUpdate:  mu: -1.580113918  nElectrons: 204.000000  magneticMoment: [ Abs: 0.01272  Tot: -0.00546 ]
LCAOMinimize: Iter:   0  F: -979.7305400252928393  |grad|_K:  2.934e-02  alpha:  1.000e+00
LCAOMinimize: 	Step increased F by 5.956961e+02, reducing alpha to 1.972641e-02.
	FillingsUpdate:  mu: -0.930213353  nElectrons: 204.000000  magneticMoment: [ Abs: 0.01125  Tot: +0.00557 ]
LCAOMinimize: Iter:   1  F: -992.9416028589529333  |grad|_K:  2.013e-02  alpha:  1.973e-02  linmin: -6.925e-02  cgtest:  8.452e-01  t[s]:     41.72
LCAOMinimize: Encountered beta<0, resetting CG.
LCAOMinimize: 	Predicted alpha/alphaT>3.000000, increasing alphaT to 5.917923e-02.
LCAOMinimize: 	Predicted alpha/alphaT>3.000000, increasing alphaT to 1.775377e-01.
	FillingsUpdate:  mu: -0.377889258  nElectrons: 204.000000  magneticMoment: [ Abs: 0.00974  Tot: +0.00575 ]
LCAOMinimize: Iter:   2  F: -1001.2268271914580282  |grad|_K:  1.642e-02  alpha:  2.239e-02  linmin: -1.014e-01  cgtest:  7.907e-01  t[s]:     62.20
LCAOMinimize: 	Wrong curvature in test step, increasing alphaT to 6.716103e-02.
	FillingsUpdate:  mu: -0.104209096  nElectrons: 204.000000  magneticMoment: [ Abs: 0.00640  Tot: +0.00191 ]
LCAOMinimize: Iter:   3  F: -1008.3732284761928213  |grad|_K:  1.792e-02  alpha: -9.778e-02  linmin: -1.343e-01  cgtest:  7.790e-01  t[s]:     75.75
LCAOMinimize: 	Step increased F by 6.655569e+01, reducing alpha to 3.245423e-02.
	FillingsUpdate:  mu: +0.647808132  nElectrons: 204.000000  magneticMoment: [ Abs: 0.00858  Tot: -0.00434 ]
LCAOMinimize: Iter:   4  F: -1042.5945268389461944  |grad|_K:  3.180e-02  alpha:  3.245e-02  linmin: -1.912e-01  cgtest:  3.641e-01  t[s]:     98.04
	FillingsUpdate:  mu: +3.255665079  nElectrons: 204.000000  magneticMoment: [ Abs: 0.00227  Tot: +0.00068 ]
LCAOMinimize: Iter:   5  F: -1065.1557814109594347  |grad|_K:  7.069e-02  alpha:  1.823e-02  linmin:  2.895e-03  cgtest: -1.753e-01  t[s]:    111.04
	FillingsUpdate:  mu: +2.886478854  nElectrons: 204.000000  magneticMoment: [ Abs: 0.00210  Tot: +0.00038 ]
LCAOMinimize: Iter:   6  F: -1068.3330359869337371  |grad|_K:  5.842e-02  alpha:  1.190e-03  linmin: -5.807e-03  cgtest:  1.049e+00  t[s]:    124.01
LCAOMinimize: Encountered beta<0, resetting CG.
LCAOMinimize: 	Wrong curvature in test step, increasing alphaT to 3.570840e-03.
	FillingsUpdate:  mu: +2.581604591  nElectrons: 204.000000  magneticMoment: [ Abs: 0.00203  Tot: +0.00021 ]
LCAOMinimize: Iter:   7  F: -1072.6155385378015126  |grad|_K:  5.631e-02  alpha: -3.524e-02  linmin: -7.458e-02  cgtest:  9.195e-01  t[s]:    136.69
LCAOMinimize: 	Step increased F by 7.500343e+02, reducing alpha to 3.982074e-02.
LCAOMinimize: 	Step increased F by 1.205509e+01, reducing alpha to 3.982074e-03.
	FillingsUpdate:  mu: +1.831593589  nElectrons: 204.000000  magneticMoment: [ Abs: 0.00198  Tot: +0.00031 ]
LCAOMinimize: Iter:   8  F: -1082.8920191430559044  |grad|_K:  3.259e-02  alpha:  3.982e-03  linmin: -8.077e-02  cgtest:  9.203e-01  t[s]:    168.42
LCAOMinimize: Encountered beta<0, resetting CG.
	FillingsUpdate:  mu: +1.316021342  nElectrons: 204.000000  magneticMoment: [ Abs: 0.00180  Tot: -0.00006 ]
LCAOMinimize: Iter:   9  F: -1087.8352478128854273  |grad|_K:  1.610e-02  alpha:  7.594e-03  linmin: -7.958e-02  cgtest:  1.117e+00  t[s]:    181.44
LCAOMinimize: Encountered beta<0, resetting CG.
LCAOMinimize: 	Predicted alpha/alphaT>3.000000, increasing alphaT to 2.278260e-02.
	FillingsUpdate:  mu: +0.467607635  nElectrons: 204.000000  magneticMoment: [ Abs: 0.00179  Tot: +0.00019 ]
LCAOMinimize: Iter:  10  F: -1093.2732504456171228  |grad|_K:  7.951e-03  alpha:  3.752e-02  linmin: -4.385e-02  cgtest:  3.376e-01  t[s]:    198.17
	FillingsUpdate:  mu: +0.660647729  nElectrons: 204.000000  magneticMoment: [ Abs: 0.00174  Tot: +0.00002 ]
LCAOMinimize: Iter:  11  F: -1095.6607278155713630  |grad|_K:  1.363e-02  alpha:  6.513e-02  linmin: -7.260e-03  cgtest: -1.386e-01  t[s]:    211.24
	FillingsUpdate:  mu: +0.451912715  nElectrons: 204.000000  magneticMoment: [ Abs: 0.00186  Tot: +0.00014 ]
LCAOMinimize: Iter:  12  F: -1097.1967989773413592  |grad|_K:  1.126e-02  alpha:  5.975e-03  linmin: -4.141e-02  cgtest:  1.078e+00  t[s]:    224.25
LCAOMinimize: Encountered beta<0, resetting CG.
LCAOMinimize: 	Predicted alpha/alphaT>3.000000, increasing alphaT to 1.792441e-02.
	FillingsUpdate:  mu: +0.453880549  nElectrons: 204.000000  magneticMoment: [ Abs: 0.00209  Tot: +0.00042 ]
LCAOMinimize: Iter:  13  F: -1099.2100894595173486  |grad|_K:  6.688e-03  alpha:  3.188e-02  linmin:  6.358e-02  cgtest: -3.312e-01  t[s]:    240.99
	FillingsUpdate:  mu: +0.528293808  nElectrons: 204.000000  magneticMoment: [ Abs: 0.00210  Tot: +0.00021 ]
LCAOMinimize: Iter:  14  F: -1099.3293580007841683  |grad|_K:  8.243e-03  alpha:  7.251e-03  linmin: -1.178e-02  cgtest:  9.147e-01  t[s]:    254.01
LCAOMinimize: 	Predicted alpha/alphaT>3.000000, increasing alphaT to 2.175228e-02.
	FillingsUpdate:  mu: +0.327716163  nElectrons: 204.000000  magneticMoment: [ Abs: 0.00229  Tot: +0.00018 ]
LCAOMinimize: Iter:  15  F: -1100.1491718472434513  |grad|_K:  7.492e-03  alpha:  2.717e-02  linmin:  6.535e-02  cgtest: -8.347e-01  t[s]:    270.72
LCAOMinimize: 	Bad step direction: g.d > 0.
LCAOMinimize: 	Undoing step.
LCAOMinimize: 	Step failed: resetting search direction.
	FillingsUpdate:  mu: +0.327716163  nElectrons: 204.000000  magneticMoment: [ Abs: 0.00229  Tot: +0.00018 ]
LCAOMinimize: Iter:  16  F: -1100.1491718472434513  |grad|_K:  7.492e-03  alpha:  0.000e+00
	FillingsUpdate:  mu: +0.285548084  nElectrons: 204.000000  magneticMoment: [ Abs: 0.00244  Tot: +0.00039 ]
LCAOMinimize: Iter:  17  F: -1100.5111583135133060  |grad|_K:  3.584e-03  alpha:  7.472e-03  linmin: -1.648e-01  cgtest:  7.358e-01  t[s]:    293.01
LCAOMinimize: Encountered beta<0, resetting CG.
	FillingsUpdate:  mu: +0.297700172  nElectrons: 204.000000  magneticMoment: [ Abs: 0.00260  Tot: +0.00037 ]
LCAOMinimize: Iter:  18  F: -1100.5891453509548228  |grad|_K:  2.976e-03  alpha:  1.435e-02  linmin:  6.799e-02  cgtest: -3.077e-01  t[s]:    306.07
	FillingsUpdate:  mu: +0.303280564  nElectrons: 204.000000  magneticMoment: [ Abs: 0.00292  Tot: +0.00024 ]
LCAOMinimize: Iter:  19  F: -1100.6248061924131889  |grad|_K:  4.267e-03  alpha:  1.602e-02  linmin:  1.042e-04  cgtest:  8.241e-01  t[s]:    319.09
	FillingsUpdate:  mu: +0.214101888  nElectrons: 204.000000  magneticMoment: [ Abs: 0.00301  Tot: +0.00070 ]
LCAOMinimize: Iter:  20  F: -1100.6852532616308054  |grad|_K:  1.223e-03  alpha:  5.056e-03  linmin: -1.032e-01  cgtest:  7.439e-01  t[s]:    332.13
LCAOMinimize: Encountered beta<0, resetting CG.
	FillingsUpdate:  mu: +0.194714181  nElectrons: 204.000000  magneticMoment: [ Abs: 0.00296  Tot: +0.00080 ]
LCAOMinimize: Iter:  21  F: -1100.6953917191160599  |grad|_K:  9.775e-04  alpha:  1.301e-02  linmin: -1.698e-03  cgtest: -2.476e-02  t[s]:    345.15
	FillingsUpdate:  mu: +0.169728752  nElectrons: 204.000000  magneticMoment: [ Abs: 0.00293  Tot: +0.00066 ]
LCAOMinimize: Iter:  22  F: -1100.7032392798248566  |grad|_K:  7.293e-04  alpha:  1.551e-02  linmin: -1.073e-02  cgtest:  1.673e-01  t[s]:    358.17
LCAOMinimize: 	Predicted alpha/alphaT>3.000000, increasing alphaT to 4.652433e-02.
	FillingsUpdate:  mu: +0.178696831  nElectrons: 204.000000  magneticMoment: [ Abs: 0.00311  Tot: +0.00050 ]
LCAOMinimize: Iter:  23  F: -1100.7202492060414443  |grad|_K:  1.573e-03  alpha:  6.152e-02  linmin:  4.761e-03  cgtest: -1.471e-02  t[s]:    375.17
	FillingsUpdate:  mu: +0.189299131  nElectrons: 204.000000  magneticMoment: [ Abs: 0.00322  Tot: +0.00064 ]
LCAOMinimize: Iter:  24  F: -1100.7324248544591683  |grad|_K:  1.067e-03  alpha:  7.880e-03  linmin: -2.045e-02  cgtest:  6.994e-01  t[s]:    388.29
LCAOMinimize: Encountered beta<0, resetting CG.
	FillingsUpdate:  mu: +0.149382499  nElectrons: 204.000000  magneticMoment: [ Abs: 0.00313  Tot: +0.00070 ]
LCAOMinimize: Iter:  25  F: -1100.7415886468754707  |grad|_K:  5.619e-04  alpha:  1.527e-02  linmin: -1.082e-02  cgtest:  5.631e-03  t[s]:    401.31
	FillingsUpdate:  mu: +0.143162457  nElectrons: 204.000000  magneticMoment: [ Abs: 0.00311  Tot: +0.00061 ]
LCAOMinimize: Iter:  26  F: -1100.7433123807809352  |grad|_K:  4.259e-04  alpha:  1.032e-02  linmin: -6.152e-05  cgtest: -5.826e-04  t[s]:    414.32
LCAOMinimize: 	Predicted alpha/alphaT>3.000000, increasing alphaT to 3.097420e-02.
	FillingsUpdate:  mu: +0.175218584  nElectrons: 204.000000  magneticMoment: [ Abs: 0.00319  Tot: +0.00073 ]
LCAOMinimize: Iter:  27  F: -1100.7507086483210514  |grad|_K:  6.015e-04  alpha:  7.836e-02  linmin: -3.742e-04  cgtest: -5.277e-03  t[s]:    431.02
	FillingsUpdate:  mu: +0.162858833  nElectrons: 204.000000  magneticMoment: [ Abs: 0.00334  Tot: +0.00071 ]
LCAOMinimize: Iter:  28  F: -1100.7616935153137092  |grad|_K:  5.285e-04  alpha:  5.838e-02  linmin: -1.146e-04  cgtest: -4.711e-02  t[s]:    444.15
	FillingsUpdate:  mu: +0.158762980  nElectrons: 204.000000  magneticMoment: [ Abs: 0.00340  Tot: +0.00082 ]
LCAOMinimize: Iter:  29  F: -1100.7631720980480168  |grad|_K:  4.008e-04  alpha:  1.035e-02  linmin:  1.348e-03  cgtest:  1.133e-02  t[s]:    457.20
LCAOMinimize: 	Predicted alpha/alphaT>3.000000, increasing alphaT to 3.105756e-02.
	FillingsUpdate:  mu: +0.128744718  nElectrons: 204.000000  magneticMoment: [ Abs: 0.00362  Tot: +0.00081 ]
LCAOMinimize: Iter:  30  F: -1100.7669611199189603  |grad|_K:  1.647e-04  alpha:  4.572e-02  linmin: -5.377e-03  cgtest:  1.651e-01  t[s]:    474.01
LCAOMinimize: None of the convergence criteria satisfied after 30 iterations.
----- createFluidSolver() ----- (Fluid-side solver setup)
   Initializing fluid molecule 'H2O'
     Initializing site 'O'
       Electron density: proportional to exp(-r/0.36935)*erfc((r-0.51523)/0.36823) with norm 6.826
       Charge density: gaussian nuclear width 0.478731 with net site charge 0.826
       Polarizability: cuspless exponential with width 0.32 and norm 3.73
       Hard sphere radius: 2.57003 bohrs
       Positions in reference frame:
         [ +0.000000 +0.000000 +0.000000 ]
     Initializing site 'H'
       Electron density: proportional to exp(-r/0.34641)*erfc((r-0)/0.390882) with norm 0.587
       Charge density: gaussian nuclear width 0.377945 with net site charge -0.413
       Polarizability: cuspless exponential with width 0.39 and norm 3.3
       Positions in reference frame:
         [ +0.000000 -1.441945 +1.122523 ]
         [ +0.000000 +1.441945 +1.122523 ]
     Net charge: 0   dipole magnitude: 0.927204
     Initializing spherical shell mfKernel with radius 2.61727 Bohr
     deltaS corrections:
       site 'O': -7.54299
       site 'H': -6.83917
   Initializing fluid molecule 'Na+'
     Initializing site 'Na'
       Electron density: proportional to exp(-r/0.19682)*erfc((r-0.71491)/0.41314) with norm 8.1383
       Charge density: gaussian nuclear width 0.365347 with net site charge -1
       Hard sphere radius: 1.86327 bohrs
       Positions in reference frame:
         [ +0.000000 +0.000000 +0.000000 ]
     Net charge: -1   dipole magnitude: 0
     Initializing gaussian mfKernel with width: 1.55004 Bohr
     deltaS corrections:
       site 'Na': -22.3555
   Initializing fluid molecule 'F-'
     Initializing site 'F'
       Electron density: proportional to exp(-r/0.38886)*erfc((r-0)/0.438782) with norm 8
       Charge density: gaussian nuclear width 0.374796 with net site charge 1
       Hard sphere radius: 2.39995 bohrs
       Positions in reference frame:
         [ +0.000000 +0.000000 +0.000000 ]
     Net charge: 1   dipole magnitude: 0
     Initializing gaussian mfKernel with width: 1.59012 Bohr
     deltaS corrections:
       site 'F': -9.04335

Correction to mu due to finite nuclear width = -0.0487631
   Cavity determined by nc: 0.00142 and sigma: 0.707107
   Nonlocal vdW cavity from gaussian model electron density with norm = 8 and sigma = 0.993594 bohr
   Charge asymmetry in cavity with sensitivity pCavity = 36.5 e-bohr/Eh
   Electrostatic cavity expanded by eta = 1.46 bohrs
   Weighted density cavitation model constrained by Nbulk: 0.0049383 bohr^-3, Pvap: 3.14029 kPa, Rvdw: 2.61727 bohr and sigmaBulk: 4.62e-05 Eh/bohr^2 at T: 298 K.
   Weighted density dispersion model using vdW pair potentials with single solvent site with sqrtC6eff: 0.77 SI.


---- Citations for features of the code used in this run ----

   Software package:
      R. Sundararaman, K. Letchworth-Weaver, K.A. Schwarz, D. Gunceler, Y. Ozhabes and T.A. Arias, 'JDFTx: software for joint density-functional theory', SoftwareX 6, 278 (2017)

   gga-PBE exchange-correlation functional:
      J.P. Perdew, K. Burke and M. Ernzerhof, Phys. Rev. Lett. 77, 3865 (1996)

   Pseudopotentials:
      KF Garrity, JW Bennett, KM Rabe and D Vanderbilt, Comput. Mater. Sci. 81, 446 (2014)

   DFT-D3 dispersion correction:
      S. Grimme, J. Antony, S. Ehrlich and H. Krieg, J. Chem. Phys. 132, 154104 (2010)

   DFT-D2 dispersion correction:
      S. Grimme, J. Comput. Chem. 27, 1787 (2006)

   Charge-asymmetric nonlocally-determined local-electric (CANDLE) solvation model:
      R. Sundararaman and W.A. Goddard III, J. Chem. Phys. 142, 064107 (2015)

   Total energy minimization with Auxiliary Hamiltonian:
      C. Freysoldt, S. Boeck, and J. Neugebauer, Phys. Rev. B 79, 241103(R) (2009)

   Linear-tetrahedron sampling for density of states:
      G. Lehmann and M. Taut, Phys. status solidi (b) 54, 469 (1972)

This list may not be complete. Please suggest additional citations or
report any other bugs at https://github.com/shankar1729/jdftx/issues

Initialization completed successfully at t[s]:    479.16


Computing DFT-D3 correction:
# coordination-number Ni 6.110 6.680 6.674 3.901
# coordination-number Au 5.140 8.646 5.140 8.646 8.655 8.043 8.655 7.812 8.655 7.812 4.907 8.644
# diagonal-C6 Ni 137.12 133.43 133.46 178.09
# diagonal-C6 Au 317.16 317.16 317.16 317.16 317.16 317.16 317.16 317.16 317.16 317.16 317.16 317.16
EvdW_6 =   -0.118899
EvdW_8 =   -0.209340
Fluid solver invoked on fresh (random / LCAO) wavefunctions
Running a vacuum solve first:

-------- Initial electronic minimization -----------
	FillingsUpdate:  mu: +0.128750044  nElectrons: 204.000000  magneticMoment: [ Abs: 0.00362  Tot: +0.00081 ]
ElecMinimize: Iter:   0  F: -1100.766961119918960  |grad|_K:  7.791e-05  alpha:  1.000e+00
	FillingsUpdate:  mu: +0.183778302  nElectrons: 204.000000  magneticMoment: [ Abs: 0.00418  Tot: +0.00134 ]
	SubspaceRotationAdjust: set factor to 0.559
ElecMinimize: Iter:   1  F: -1100.879671501289749  |grad|_K:  1.726e-04  alpha:  2.148e-01  linmin:  3.886e-05  t[s]:    508.59
	FillingsUpdate:  mu: +0.132455882  nElectrons: 204.000000  magneticMoment: [ Abs: 0.00318  Tot: +0.00023 ]
	SubspaceRotationAdjust: set factor to 0.337
ElecMinimize: Iter:   2  F: -1100.935309219396686  |grad|_K:  1.284e-04  alpha:  4.172e-02  linmin:  6.310e-04  t[s]:    526.97
	FillingsUpdate:  mu: +0.169335687  nElectrons: 204.000000  magneticMoment: [ Abs: 0.00303  Tot: +0.00070 ]
	SubspaceRotationAdjust: set factor to 0.39
ElecMinimize: Iter:   3  F: -1100.982748599659089  |grad|_K:  8.833e-05  alpha:  5.123e-02  linmin: -9.382e-05  t[s]:    545.40
	FillingsUpdate:  mu: +0.176921360  nElectrons: 204.000000  magneticMoment: [ Abs: 0.00306  Tot: +0.00099 ]
	SubspaceRotationAdjust: set factor to 0.276
ElecMinimize: Iter:   4  F: -1101.026838072188639  |grad|_K:  5.733e-05  alpha:  6.058e-02  linmin: -1.146e-04  t[s]:    563.86
	FillingsUpdate:  mu: +0.199514237  nElectrons: 204.000000  magneticMoment: [ Abs: 0.00289  Tot: +0.00102 ]
	SubspaceRotationAdjust: set factor to 0.258
ElecMinimize: Iter:   5  F: -1101.052698528076007  |grad|_K:  4.578e-05  alpha:  8.481e-02  linmin: -1.534e-04  t[s]:    582.32
	FillingsUpdate:  mu: +0.185315709  nElectrons: 204.000000  magneticMoment: [ Abs: 0.00283  Tot: +0.00077 ]
	SubspaceRotationAdjust: set factor to 0.224
ElecMinimize: Iter:   6  F: -1101.072715574648100  |grad|_K:  4.213e-05  alpha:  1.054e-01  linmin:  3.122e-05  t[s]:    600.81
	FillingsUpdate:  mu: +0.132883411  nElectrons: 204.000000  magneticMoment: [ Abs: 0.00294  Tot: +0.00108 ]
	SubspaceRotationAdjust: set factor to 0.199
ElecMinimize: Iter:   7  F: -1101.089230830389170  |grad|_K:  2.370e-05  alpha:  1.073e-01  linmin:  1.800e-04  t[s]:    619.27
	FillingsUpdate:  mu: +0.117669357  nElectrons: 204.000000  magneticMoment: [ Abs: 0.00302  Tot: +0.00124 ]
	SubspaceRotationAdjust: set factor to 0.184
ElecMinimize: Iter:   8  F: -1101.094370236736040  |grad|_K:  1.879e-05  alpha:  1.085e-01  linmin:  4.418e-05  t[s]:    637.76
	FillingsUpdate:  mu: +0.125132715  nElectrons: 204.000000  magneticMoment: [ Abs: 0.00292  Tot: +0.00126 ]
	SubspaceRotationAdjust: set factor to 0.209
ElecMinimize: Iter:   9  F: -1101.100156792274902  |grad|_K:  1.687e-05  alpha:  1.881e-01  linmin: -2.581e-05  t[s]:    656.32
	FillingsUpdate:  mu: +0.127986920  nElectrons: 204.000000  magneticMoment: [ Abs: 0.00278  Tot: +0.00112 ]
	SubspaceRotationAdjust: set factor to 0.188
ElecMinimize: Iter:  10  F: -1101.103176176693978  |grad|_K:  1.178e-05  alpha:  1.227e-01  linmin:  3.540e-06  t[s]:    675.73
	FillingsUpdate:  mu: +0.136151253  nElectrons: 204.000000  magneticMoment: [ Abs: 0.00272  Tot: +0.00114 ]
	SubspaceRotationAdjust: set factor to 0.2
ElecMinimize: Iter:  11  F: -1101.104887468086190  |grad|_K:  9.553e-06  alpha:  1.409e-01  linmin: -1.605e-05  t[s]:    694.18
	FillingsUpdate:  mu: +0.133858262  nElectrons: 204.000000  magneticMoment: [ Abs: 0.00271  Tot: +0.00119 ]
	SubspaceRotationAdjust: set factor to 0.164
ElecMinimize: Iter:  12  F: -1101.106026636085517  |grad|_K:  8.829e-06  alpha:  1.424e-01  linmin:  1.132e-05  t[s]:    712.64
	FillingsUpdate:  mu: +0.130628729  nElectrons: 204.000000  magneticMoment: [ Abs: 0.00268  Tot: +0.00122 ]
	SubspaceRotationAdjust: set factor to 0.153
ElecMinimize: Iter:  13  F: -1101.106973944718447  |grad|_K:  6.311e-06  alpha:  1.390e-01  linmin: -2.753e-05  t[s]:    731.09
	FillingsUpdate:  mu: +0.127551583  nElectrons: 204.000000  magneticMoment: [ Abs: 0.00264  Tot: +0.00121 ]
	SubspaceRotationAdjust: set factor to 0.148
ElecMinimize: Iter:  14  F: -1101.107496755326792  |grad|_K:  5.165e-06  alpha:  1.497e-01  linmin: -2.146e-06  t[s]:    749.58
	FillingsUpdate:  mu: +0.128273581  nElectrons: 204.000000  magneticMoment: [ Abs: 0.00262  Tot: +0.00124 ]
	SubspaceRotationAdjust: set factor to 0.164
ElecMinimize: Iter:  15  F: -1101.107972965639874  |grad|_K:  4.287e-06  alpha:  2.039e-01  linmin: -1.269e-05  t[s]:    768.11
	FillingsUpdate:  mu: +0.127168026  nElectrons: 204.000000  magneticMoment: [ Abs: 0.00263  Tot: +0.00128 ]
	SubspaceRotationAdjust: set factor to 0.175
ElecMinimize: Iter:  16  F: -1101.108260059803342  |grad|_K:  3.573e-06  alpha:  1.784e-01  linmin:  5.460e-06  t[s]:    786.53
	FillingsUpdate:  mu: +0.126593843  nElectrons: 204.000000  magneticMoment: [ Abs: 0.00263  Tot: +0.00132 ]
	SubspaceRotationAdjust: set factor to 0.184
ElecMinimize: Iter:  17  F: -1101.108482373039806  |grad|_K:  3.359e-06  alpha:  1.991e-01  linmin:  5.742e-06  t[s]:    805.07
	FillingsUpdate:  mu: +0.128757469  nElectrons: 204.000000  magneticMoment: [ Abs: 0.00263  Tot: +0.00136 ]
	SubspaceRotationAdjust: set factor to 0.166
ElecMinimize: Iter:  18  F: -1101.108626170633215  |grad|_K:  2.800e-06  alpha:  1.458e-01  linmin: -5.304e-06  t[s]:    823.59
	FillingsUpdate:  mu: +0.128851610  nElectrons: 204.000000  magneticMoment: [ Abs: 0.00264  Tot: +0.00140 ]
	SubspaceRotationAdjust: set factor to 0.162
ElecMinimize: Iter:  19  F: -1101.108720844117215  |grad|_K:  2.424e-06  alpha:  1.380e-01  linmin: -2.014e-06  t[s]:    842.06
	FillingsUpdate:  mu: +0.128378590  nElectrons: 204.000000  magneticMoment: [ Abs: 0.00265  Tot: +0.00146 ]
	SubspaceRotationAdjust: set factor to 0.181
ElecMinimize: Iter:  20  F: -1101.108832964668863  |grad|_K:  2.120e-06  alpha:  2.181e-01  linmin:  2.947e-06  t[s]:    860.52
	FillingsUpdate:  mu: +0.127060485  nElectrons: 204.000000  magneticMoment: [ Abs: 0.00266  Tot: +0.00150 ]
	SubspaceRotationAdjust: set factor to 0.183
ElecMinimize: Iter:  21  F: -1101.108891999312618  |grad|_K:  1.595e-06  alpha:  1.501e-01  linmin:  3.077e-08  t[s]:    879.06
	FillingsUpdate:  mu: +0.127311847  nElectrons: 204.000000  magneticMoment: [ Abs: 0.00269  Tot: +0.00158 ]
	SubspaceRotationAdjust: set factor to 0.195
ElecMinimize: Iter:  22  F: -1101.108941555960655  |grad|_K:  1.716e-06  alpha:  2.225e-01  linmin: -1.316e-06  t[s]:    897.49
	FillingsUpdate:  mu: +0.128538235  nElectrons: 204.000000  magneticMoment: [ Abs: 0.00272  Tot: +0.00164 ]
	SubspaceRotationAdjust: set factor to 0.153
ElecMinimize: Iter:  23  F: -1101.108970841482915  |grad|_K:  1.273e-06  alpha:  1.137e-01  linmin:  7.610e-07  t[s]:    915.99
	FillingsUpdate:  mu: +0.128818255  nElectrons: 204.000000  magneticMoment: [ Abs: 0.00276  Tot: +0.00171 ]
	SubspaceRotationAdjust: set factor to 0.175
ElecMinimize: Iter:  24  F: -1101.108995055437390  |grad|_K:  1.132e-06  alpha:  1.709e-01  linmin:  1.878e-06  t[s]:    934.50
	FillingsUpdate:  mu: +0.128022373  nElectrons: 204.000000  magneticMoment: [ Abs: 0.00280  Tot: +0.00180 ]
	SubspaceRotationAdjust: set factor to 0.177
ElecMinimize: Iter:  25  F: -1101.109017416644747  |grad|_K:  8.591e-07  alpha:  1.996e-01  linmin:  2.197e-06  t[s]:    952.99
	FillingsUpdate:  mu: +0.127480159  nElectrons: 204.000000  magneticMoment: [ Abs: 0.00285  Tot: +0.00188 ]
	SubspaceRotationAdjust: set factor to 0.192
ElecMinimize: Iter:  26  F: -1101.109029581033838  |grad|_K:  7.381e-07  alpha:  1.884e-01  linmin:  1.384e-06  t[s]:    971.76
	FillingsUpdate:  mu: +0.127612877  nElectrons: 204.000000  magneticMoment: [ Abs: 0.00291  Tot: +0.00197 ]
	SubspaceRotationAdjust: set factor to 0.182
ElecMinimize: Iter:  27  F: -1101.109038431997760  |grad|_K:  7.277e-07  alpha:  1.857e-01  linmin:  1.449e-06  t[s]:    990.25
	FillingsUpdate:  mu: +0.128174911  nElectrons: 204.000000  magneticMoment: [ Abs: 0.00295  Tot: +0.00205 ]
	SubspaceRotationAdjust: set factor to 0.152
ElecMinimize: Iter:  28  F: -1101.109044172731728  |grad|_K:  5.824e-07  alpha:  1.240e-01  linmin: -5.115e-08  t[s]:   1008.67
	FillingsUpdate:  mu: +0.128095866  nElectrons: 204.000000  magneticMoment: [ Abs: 0.00302  Tot: +0.00215 ]
	SubspaceRotationAdjust: set factor to 0.146
ElecMinimize: Iter:  29  F: -1101.109049088942356  |grad|_K:  4.799e-07  alpha:  1.656e-01  linmin: -3.546e-07  t[s]:   1027.19
	FillingsUpdate:  mu: +0.127850517  nElectrons: 204.000000  magneticMoment: [ Abs: 0.00309  Tot: +0.00225 ]
	SubspaceRotationAdjust: set factor to 0.161
ElecMinimize: Iter:  30  F: -1101.109052692678233  |grad|_K:  3.523e-07  alpha:  1.788e-01  linmin:  8.598e-07  t[s]:   1045.76
	FillingsUpdate:  mu: +0.127892026  nElectrons: 204.000000  magneticMoment: [ Abs: 0.00317  Tot: +0.00234 ]
	SubspaceRotationAdjust: set factor to 0.157
ElecMinimize: Iter:  31  F: -1101.109054824504483  |grad|_K:  3.443e-07  alpha:  1.963e-01  linmin: -8.622e-07  t[s]:   1064.28
	FillingsUpdate:  mu: +0.127878128  nElectrons: 204.000000  magneticMoment: [ Abs: 0.00325  Tot: +0.00244 ]
	SubspaceRotationAdjust: set factor to 0.129
	SubspaceRotationAdjust: resetting CG because factor has changed by 0.129344
ElecMinimize: 	State modified externally: resetting search direction.
ElecMinimize: Iter:  32  F: -1101.109056316895021  |grad|_K:  2.704e-07  alpha:  1.439e-01
	FillingsUpdate:  mu: +0.128007718  nElectrons: 204.000000  magneticMoment: [ Abs: 0.00327  Tot: +0.00246 ]
	SubspaceRotationAdjust: set factor to 0.112
ElecMinimize: Iter:  33  F: -1101.109057389055124  |grad|_K:  1.972e-07  alpha:  1.676e-01  linmin: -3.249e-06  t[s]:   1110.90
	FillingsUpdate:  mu: +0.127926781  nElectrons: 204.000000  magneticMoment: [ Abs: 0.00331  Tot: +0.00250 ]
	SubspaceRotationAdjust: set factor to 0.0877
ElecMinimize: Iter:  34  F: -1101.109057885235416  |grad|_K:  1.442e-07  alpha:  1.458e-01  linmin: -2.066e-06  t[s]:   1129.38
	FillingsUpdate:  mu: +0.127940601  nElectrons: 204.000000  magneticMoment: [ Abs: 0.00339  Tot: +0.00258 ]
	SubspaceRotationAdjust: set factor to 0.108
ElecMinimize: Iter:  35  F: -1101.109058403248582  |grad|_K:  9.929e-08  alpha:  2.841e-01  linmin: -1.281e-05  t[s]:   1147.85
	FillingsUpdate:  mu: +0.127901141  nElectrons: 204.000000  magneticMoment: [ Abs: 0.00351  Tot: +0.00269 ]
	SubspaceRotationAdjust: set factor to 0.105
ElecMinimize: Iter:  36  F: -1101.109058786819787  |grad|_K:  1.146e-07  alpha:  4.432e-01  linmin: -5.589e-06  t[s]:   1166.43
	FillingsUpdate:  mu: +0.127866840  nElectrons: 204.000000  magneticMoment: [ Abs: 0.00364  Tot: +0.00281 ]
	SubspaceRotationAdjust: set factor to 0.0941
ElecMinimize: Iter:  37  F: -1101.109059053821966  |grad|_K:  1.080e-07  alpha:  2.317e-01  linmin: -5.822e-07  t[s]:   1185.00
	FillingsUpdate:  mu: +0.127961605  nElectrons: 204.000000  magneticMoment: [ Abs: 0.00380  Tot: +0.00295 ]
	SubspaceRotationAdjust: set factor to 0.0796
ElecMinimize: Iter:  38  F: -1101.109059301883917  |grad|_K:  9.191e-08  alpha:  2.428e-01  linmin: -1.456e-06  t[s]:   1203.51
	FillingsUpdate:  mu: +0.127948139  nElectrons: 204.000000  magneticMoment: [ Abs: 0.00395  Tot: +0.00309 ]
	SubspaceRotationAdjust: set factor to 0.0778
ElecMinimize: Iter:  39  F: -1101.109059471723867  |grad|_K:  6.386e-08  alpha:  2.295e-01  linmin: -7.453e-07  t[s]:   1222.01
	FillingsUpdate:  mu: +0.127924928  nElectrons: 204.000000  magneticMoment: [ Abs: 0.00410  Tot: +0.00322 ]
	SubspaceRotationAdjust: set factor to 0.0883
ElecMinimize: Iter:  40  F: -1101.109059586429112  |grad|_K:  5.491e-08  alpha:  3.214e-01  linmin:  2.756e-06  t[s]:   1240.51
	FillingsUpdate:  mu: +0.127946263  nElectrons: 204.000000  magneticMoment: [ Abs: 0.00422  Tot: +0.00332 ]
	SubspaceRotationAdjust: set factor to 0.0741
ElecMinimize: Iter:  41  F: -1101.109059648701532  |grad|_K:  4.947e-08  alpha:  2.355e-01  linmin: -2.265e-06  t[s]:   1258.99
	FillingsUpdate:  mu: +0.127918994  nElectrons: 204.000000  magneticMoment: [ Abs: 0.00438  Tot: +0.00346 ]
	SubspaceRotationAdjust: set factor to 0.0707
ElecMinimize: Iter:  42  F: -1101.109059706085418  |grad|_K:  4.025e-08  alpha:  2.671e-01  linmin: -7.574e-06  t[s]:   1278.46
ElecMinimize: Converged (|Delta F|<1.000000e-07 for 2 iters).
Setting wave functions to eigenvectors of Hamiltonian
Converging empty states (this may take a while): |deigs|: 3.399e-03
Vacuum energy after initial minimize, F = -1101.109059706085418


-------- Electronic minimization -----------
	Linear fluid (dielectric constant: 78.4, screening length: 8.12261 Bohr) occupying 0.438979 of unit cell:	Completed after 24 iterations at t[s]:   1362.59
	FillingsUpdate:  mu: -0.167429471  nElectrons: 204.000000  magneticMoment: [ Abs: 0.00648  Tot: +0.00533 ]
ElecMinimize: Iter:   0  F: -1101.111909289903224  |grad|_K:  2.864e-06  alpha:  1.000e+00
	Linear fluid (dielectric constant: 78.4, screening length: 8.12261 Bohr) occupying 0.440083 of unit cell:	Completed after 21 iterations at t[s]:   1379.40
	Linear fluid (dielectric constant: 78.4, screening length: 8.12261 Bohr) occupying 0.439162 of unit cell:	Completed after 20 iterations at t[s]:   1386.52
	FillingsUpdate:  mu: -0.170715147  nElectrons: 204.000000  magneticMoment: [ Abs: 0.00670  Tot: +0.00552 ]
	SubspaceRotationAdjust: set factor to 0.0696
ElecMinimize: Iter:   1  F: -1101.112068314979069  |grad|_K:  2.139e-06  alpha:  2.230e-01  linmin:  7.933e-06  t[s]:   1393.65
	Linear fluid (dielectric constant: 78.4, screening length: 8.12261 Bohr) occupying 0.439431 of unit cell:	Completed after 15 iterations at t[s]:   1401.61
	Linear fluid (dielectric constant: 78.4, screening length: 8.12261 Bohr) occupying 0.439501 of unit cell:	Completed after 10 iterations at t[s]:   1407.96
	FillingsUpdate:  mu: -0.170755325  nElectrons: 204.000000  magneticMoment: [ Abs: 0.00692  Tot: +0.00570 ]
	SubspaceRotationAdjust: set factor to 0.085
ElecMinimize: Iter:   2  F: -1101.112179705391100  |grad|_K:  1.658e-06  alpha:  2.796e-01  linmin: -1.840e-06  t[s]:   1415.15
	Linear fluid (dielectric constant: 78.4, screening length: 8.12261 Bohr) occupying 0.439860 of unit cell:	Completed after 12 iterations at t[s]:   1422.90
	Linear fluid (dielectric constant: 78.4, screening length: 8.12261 Bohr) occupying 0.440240 of unit cell:	Completed after 12 iterations at t[s]:   1429.64
	FillingsUpdate:  mu: -0.171684094  nElectrons: 204.000000  magneticMoment: [ Abs: 0.00736  Tot: +0.00603 ]
	SubspaceRotationAdjust: set factor to 0.0973
ElecMinimize: Iter:   3  F: -1101.112318053341369  |grad|_K:  1.434e-06  alpha:  5.737e-01  linmin: -2.186e-07  t[s]:   1436.78
	Linear fluid (dielectric constant: 78.4, screening length: 8.12261 Bohr) occupying 0.440942 of unit cell:	Completed after 14 iterations at t[s]:   1444.73
	Linear fluid (dielectric constant: 78.4, screening length: 8.12261 Bohr) occupying 0.440662 of unit cell:	Completed after 11 iterations at t[s]:   1451.18
	FillingsUpdate:  mu: -0.170479288  nElectrons: 204.000000  magneticMoment: [ Abs: 0.00764  Tot: +0.00625 ]
	SubspaceRotationAdjust: set factor to 0.101
ElecMinimize: Iter:   4  F: -1101.112379902300063  |grad|_K:  1.629e-06  alpha:  3.439e-01  linmin:  4.744e-08  t[s]:   1458.45
	Linear fluid (dielectric constant: 78.4, screening length: 8.12261 Bohr) occupying 0.441266 of unit cell:	Completed after 17 iterations at t[s]:   1466.54
	Linear fluid (dielectric constant: 78.4, screening length: 8.12261 Bohr) occupying 0.441175 of unit cell:	Completed after 11 iterations at t[s]:   1472.98
	FillingsUpdate:  mu: -0.168658388  nElectrons: 204.000000  magneticMoment: [ Abs: 0.00814  Tot: +0.00667 ]
	SubspaceRotationAdjust: set factor to 0.0984
ElecMinimize: Iter:   5  F: -1101.112447733856698  |grad|_K:  1.107e-06  alpha:  2.924e-01  linmin: -7.402e-08  t[s]:   1480.22
	Linear fluid (dielectric constant: 78.4, screening length: 8.12261 Bohr) occupying 0.441386 of unit cell:	Completed after 11 iterations at t[s]:   1487.92
	Linear fluid (dielectric constant: 78.4, screening length: 8.12261 Bohr) occupying 0.441570 of unit cell:	Completed after 12 iterations at t[s]:   1494.49
	FillingsUpdate:  mu: -0.169093953  nElectrons: 204.000000  magneticMoment: [ Abs: 0.00875  Tot: +0.00717 ]
	SubspaceRotationAdjust: set factor to 0.0964
ElecMinimize: Iter:   6  F: -1101.112507024769684  |grad|_K:  1.249e-06  alpha:  5.515e-01  linmin: -4.740e-07  t[s]:   1501.71
	Linear fluid (dielectric constant: 78.4, screening length: 8.12261 Bohr) occupying 0.442060 of unit cell:	Completed after 17 iterations at t[s]:   1509.84
	Linear fluid (dielectric constant: 78.4, screening length: 8.12261 Bohr) occupying 0.441811 of unit cell:	Completed after 16 iterations at t[s]:   1516.65
	FillingsUpdate:  mu: -0.169273039  nElectrons: 204.000000  magneticMoment: [ Abs: 0.00934  Tot: +0.00767 ]
	SubspaceRotationAdjust: set factor to 0.0931
ElecMinimize: Iter:   7  F: -1101.112544024465251  |grad|_K:  1.194e-06  alpha:  2.707e-01  linmin:  1.059e-07  t[s]:   1523.84
	Linear fluid (dielectric constant: 78.4, screening length: 8.12261 Bohr) occupying 0.441966 of unit cell:	Completed after 15 iterations at t[s]:   1531.85
	Linear fluid (dielectric constant: 78.4, screening length: 8.12261 Bohr) occupying 0.441998 of unit cell:	Completed after 9 iterations at t[s]:   1538.13
	FillingsUpdate:  mu: -0.168337464  nElectrons: 204.000000  magneticMoment: [ Abs: 0.01011  Tot: +0.00832 ]
	SubspaceRotationAdjust: set factor to 0.0943
ElecMinimize: Iter:   8  F: -1101.112584911887552  |grad|_K:  9.115e-07  alpha:  3.280e-01  linmin: -2.254e-07  t[s]:   1545.37
	Linear fluid (dielectric constant: 78.4, screening length: 8.12261 Bohr) occupying 0.442066 of unit cell:	Completed after 11 iterations at t[s]:   1553.09
	Linear fluid (dielectric constant: 78.4, screening length: 8.12261 Bohr) occupying 0.442092 of unit cell:	Completed after 8 iterations at t[s]:   1559.28
	FillingsUpdate:  mu: -0.168238050  nElectrons: 204.000000  magneticMoment: [ Abs: 0.01100  Tot: +0.00908 ]
	SubspaceRotationAdjust: set factor to 0.101
ElecMinimize: Iter:   9  F: -1101.112618043075827  |grad|_K:  9.026e-07  alpha:  4.544e-01  linmin: -2.285e-07  t[s]:   1566.59
	Linear fluid (dielectric constant: 78.4, screening length: 8.12261 Bohr) occupying 0.442108 of unit cell:	Completed after 12 iterations at t[s]:   1575.47
	Linear fluid (dielectric constant: 78.4, screening length: 8.12261 Bohr) occupying 0.442105 of unit cell:	Completed after 10 iterations at t[s]:   1581.81
	FillingsUpdate:  mu: -0.168641590  nElectrons: 204.000000  magneticMoment: [ Abs: 0.01179  Tot: +0.00973 ]
	SubspaceRotationAdjust: set factor to 0.0916
ElecMinimize: Iter:  10  F: -1101.112641865380056  |grad|_K:  7.133e-07  alpha:  3.337e-01  linmin: -4.659e-08  t[s]:   1589.02
	Linear fluid (dielectric constant: 78.4, screening length: 8.12261 Bohr) occupying 0.442106 of unit cell:	Completed after 11 iterations at t[s]:   1596.73
	Linear fluid (dielectric constant: 78.4, screening length: 8.12261 Bohr) occupying 0.442106 of unit cell:	Completed after 6 iterations at t[s]:   1602.81
	FillingsUpdate:  mu: -0.168523308  nElectrons: 204.000000  magneticMoment: [ Abs: 0.01249  Tot: +0.01031 ]
	SubspaceRotationAdjust: set factor to 0.0859
ElecMinimize: Iter:  11  F: -1101.112655045677002  |grad|_K:  6.489e-07  alpha:  2.960e-01  linmin: -4.466e-08  t[s]:   1610.06
	Linear fluid (dielectric constant: 78.4, screening length: 8.12261 Bohr) occupying 0.442084 of unit cell:	Completed after 8 iterations at t[s]:   1617.50
	Linear fluid (dielectric constant: 78.4, screening length: 8.12261 Bohr) occupying 0.442085 of unit cell:	Completed after 2 iterations at t[s]:   1623.29
	FillingsUpdate:  mu: -0.168305215  nElectrons: 204.000000  magneticMoment: [ Abs: 0.01319  Tot: +0.01090 ]
	SubspaceRotationAdjust: set factor to 0.0875
ElecMinimize: Iter:  12  F: -1101.112665405200460  |grad|_K:  4.727e-07  alpha:  2.811e-01  linmin: -4.710e-08  t[s]:   1630.49
	Linear fluid (dielectric constant: 78.4, screening length: 8.12261 Bohr) occupying 0.442076 of unit cell:	Completed after 8 iterations at t[s]:   1637.99
	Linear fluid (dielectric constant: 78.4, screening length: 8.12261 Bohr) occupying 0.442073 of unit cell:	Completed after 3 iterations at t[s]:   1643.91
	FillingsUpdate:  mu: -0.168383171  nElectrons: 204.000000  magneticMoment: [ Abs: 0.01395  Tot: +0.01152 ]
	SubspaceRotationAdjust: set factor to 0.0884
ElecMinimize: Iter:  13  F: -1101.112672434030628  |grad|_K:  4.153e-07  alpha:  3.593e-01  linmin: -8.062e-08  t[s]:   1651.16
	Linear fluid (dielectric constant: 78.4, screening length: 8.12261 Bohr) occupying 0.442054 of unit cell:	Completed after 11 iterations at t[s]:   1658.84
	Linear fluid (dielectric constant: 78.4, screening length: 8.12261 Bohr) occupying 0.442057 of unit cell:	Completed after 5 iterations at t[s]:   1664.88
	FillingsUpdate:  mu: -0.168429736  nElectrons: 204.000000  magneticMoment: [ Abs: 0.01463  Tot: +0.01208 ]
	SubspaceRotationAdjust: set factor to 0.0918
ElecMinimize: Iter:  14  F: -1101.112677012533823  |grad|_K:  3.091e-07  alpha:  3.030e-01  linmin:  2.006e-07  t[s]:   1672.06
	Linear fluid (dielectric constant: 78.4, screening length: 8.12261 Bohr) occupying 0.442058 of unit cell:	Completed after 7 iterations at t[s]:   1679.47
	Linear fluid (dielectric constant: 78.4, screening length: 8.12261 Bohr) occupying 0.442058 of unit cell:	Completed after 0 iterations at t[s]:   1685.04
	FillingsUpdate:  mu: -0.168527572  nElectrons: 204.000000  magneticMoment: [ Abs: 0.01527  Tot: +0.01261 ]
	SubspaceRotationAdjust: set factor to 0.0906
ElecMinimize: Iter:  15  F: -1101.112679558617856  |grad|_K:  2.831e-07  alpha:  3.047e-01  linmin: -4.956e-07  t[s]:   1692.27
	Linear fluid (dielectric constant: 78.4, screening length: 8.12261 Bohr) occupying 0.442056 of unit cell:	Completed after 7 iterations at t[s]:   1699.84
	Linear fluid (dielectric constant: 78.4, screening length: 8.12261 Bohr) occupying 0.442055 of unit cell:	Completed after 2 iterations at t[s]:   1705.58
	FillingsUpdate:  mu: -0.168376430  nElectrons: 204.000000  magneticMoment: [ Abs: 0.01618  Tot: +0.01335 ]
	SubspaceRotationAdjust: set factor to 0.0978
ElecMinimize: Iter:  16  F: -1101.112682029035795  |grad|_K:  2.136e-07  alpha:  3.516e-01  linmin:  3.801e-07  t[s]:   1712.81
	Linear fluid (dielectric constant: 78.4, screening length: 8.12261 Bohr) occupying 0.442060 of unit cell:	Completed after 6 iterations at t[s]:   1720.16
	Linear fluid (dielectric constant: 78.4, screening length: 8.12261 Bohr) occupying 0.442060 of unit cell:	Completed after 2 iterations at t[s]:   1725.96
	FillingsUpdate:  mu: -0.168294790  nElectrons: 204.000000  magneticMoment: [ Abs: 0.01713  Tot: +0.01414 ]
	SubspaceRotationAdjust: set factor to 0.109
ElecMinimize: Iter:  17  F: -1101.112683625092586  |grad|_K:  1.737e-07  alpha:  4.005e-01  linmin: -4.212e-07  t[s]:   1733.19
	Linear fluid (dielectric constant: 78.4, screening length: 8.12261 Bohr) occupying 0.442063 of unit cell:	Completed after 6 iterations at t[s]:   1740.53
	Linear fluid (dielectric constant: 78.4, screening length: 8.12261 Bohr) occupying 0.442063 of unit cell:	Completed after 1 iterations at t[s]:   1746.23
	FillingsUpdate:  mu: -0.168343167  nElectrons: 204.000000  magneticMoment: [ Abs: 0.01809  Tot: +0.01493 ]
	SubspaceRotationAdjust: set factor to 0.114
ElecMinimize: Iter:  18  F: -1101.112684608217705  |grad|_K:  1.757e-07  alpha:  3.718e-01  linmin:  7.551e-07  t[s]:   1753.54
	Linear fluid (dielectric constant: 78.4, screening length: 8.12261 Bohr) occupying 0.442069 of unit cell:	Completed after 7 iterations at t[s]:   1760.95
	Linear fluid (dielectric constant: 78.4, screening length: 8.12261 Bohr) occupying 0.442067 of unit cell:	Completed after 2 iterations at t[s]:   1766.75
	FillingsUpdate:  mu: -0.168427032  nElectrons: 204.000000  magneticMoment: [ Abs: 0.01920  Tot: +0.01586 ]
	SubspaceRotationAdjust: set factor to 0.114
ElecMinimize: Iter:  19  F: -1101.112685385150826  |grad|_K:  1.451e-07  alpha:  2.888e-01  linmin: -2.782e-07  t[s]:   1773.99
	Linear fluid (dielectric constant: 78.4, screening length: 8.12261 Bohr) occupying 0.442067 of unit cell:	Completed after 6 iterations at t[s]:   1781.31
	Linear fluid (dielectric constant: 78.4, screening length: 8.12261 Bohr) occupying 0.442067 of unit cell:	Completed after 2 iterations at t[s]:   1787.09
	FillingsUpdate:  mu: -0.168415526  nElectrons: 204.000000  magneticMoment: [ Abs: 0.02053  Tot: +0.01696 ]
	SubspaceRotationAdjust: set factor to 0.115
ElecMinimize: Iter:  20  F: -1101.112686013357688  |grad|_K:  1.273e-07  alpha:  3.402e-01  linmin: -2.004e-06  t[s]:   1794.26
	Linear fluid (dielectric constant: 78.4, screening length: 8.12261 Bohr) occupying 0.442071 of unit cell:	Completed after 7 iterations at t[s]:   1801.65
	Linear fluid (dielectric constant: 78.4, screening length: 8.12261 Bohr) occupying 0.442070 of unit cell:	Completed after 2 iterations at t[s]:   1807.44
	FillingsUpdate:  mu: -0.168404710  nElectrons: 204.000000  magneticMoment: [ Abs: 0.02177  Tot: +0.01799 ]
	SubspaceRotationAdjust: set factor to 0.105
ElecMinimize: Iter:  21  F: -1101.112686403724410  |grad|_K:  1.205e-07  alpha:  2.737e-01  linmin:  2.541e-06  t[s]:   1814.68
	Linear fluid (dielectric constant: 78.4, screening length: 8.12261 Bohr) occupying 0.442069 of unit cell:	Completed after 5 iterations at t[s]:   1822.00
	Linear fluid (dielectric constant: 78.4, screening length: 8.12261 Bohr) occupying 0.442068 of unit cell:	Completed after 2 iterations at t[s]:   1827.80
	FillingsUpdate:  mu: -0.168403254  nElectrons: 204.000000  magneticMoment: [ Abs: 0.02344  Tot: +0.01938 ]
	SubspaceRotationAdjust: set factor to 0.103
ElecMinimize: Iter:  22  F: -1101.112686788678957  |grad|_K:  1.062e-07  alpha:  3.044e-01  linmin: -3.883e-06  t[s]:   1835.05
	Linear fluid (dielectric constant: 78.4, screening length: 8.12261 Bohr) occupying 0.442068 of unit cell:	Completed after 2 iterations at t[s]:   1842.10
	Linear fluid (dielectric constant: 78.4, screening length: 8.12261 Bohr) occupying 0.442067 of unit cell:	Completed after 0 iterations at t[s]:   1847.69
	FillingsUpdate:  mu: -0.168433024  nElectrons: 204.000000  magneticMoment: [ Abs: 0.02544  Tot: +0.02104 ]
	SubspaceRotationAdjust: set factor to 0.117
ElecMinimize: Iter:  23  F: -1101.112687128965717  |grad|_K:  8.431e-08  alpha:  3.426e-01  linmin: -7.195e-05  t[s]:   1854.95
	Linear fluid (dielectric constant: 78.4, screening length: 8.12261 Bohr) occupying 0.442065 of unit cell:	Completed after 2 iterations at t[s]:   1861.98
	Linear fluid (dielectric constant: 78.4, screening length: 8.12261 Bohr) occupying 0.442064 of unit cell:	Completed after 2 iterations at t[s]:   1867.77
	FillingsUpdate:  mu: -0.168495101  nElectrons: 204.000000  magneticMoment: [ Abs: 0.02791  Tot: +0.02308 ]
	SubspaceRotationAdjust: set factor to 0.132
ElecMinimize: Iter:  24  F: -1101.112687426642651  |grad|_K:  9.359e-08  alpha:  4.695e-01  linmin: -1.825e-05  t[s]:   1875.08
	Linear fluid (dielectric constant: 78.4, screening length: 8.12261 Bohr) occupying 0.442057 of unit cell:	Completed after 6 iterations at t[s]:   1882.47
	Linear fluid (dielectric constant: 78.4, screening length: 8.12261 Bohr) occupying 0.442059 of unit cell:	Completed after 2 iterations at t[s]:   1888.27
	FillingsUpdate:  mu: -0.168516265  nElectrons: 204.000000  magneticMoment: [ Abs: 0.03094  Tot: +0.02558 ]
	SubspaceRotationAdjust: set factor to 0.138
ElecMinimize: Iter:  25  F: -1101.112687702280709  |grad|_K:  1.127e-07  alpha:  3.573e-01  linmin: -2.069e-06  t[s]:   1895.52
	Linear fluid (dielectric constant: 78.4, screening length: 8.12261 Bohr) occupying 0.442057 of unit cell:	Completed after 8 iterations at t[s]:   1902.98
	Linear fluid (dielectric constant: 78.4, screening length: 8.12261 Bohr) occupying 0.442057 of unit cell:	Completed after 3 iterations at t[s]:   1908.97
	FillingsUpdate:  mu: -0.168500767  nElectrons: 204.000000  magneticMoment: [ Abs: 0.03478  Tot: +0.02877 ]
	SubspaceRotationAdjust: set factor to 0.131
ElecMinimize: Iter:  26  F: -1101.112687990665563  |grad|_K:  1.206e-07  alpha:  2.584e-01  linmin:  1.515e-06  t[s]:   1916.23
	Linear fluid (dielectric constant: 78.4, screening length: 8.12261 Bohr) occupying 0.442051 of unit cell:	Completed after 5 iterations at t[s]:   1923.47
	Linear fluid (dielectric constant: 78.4, screening length: 8.12261 Bohr) occupying 0.442046 of unit cell:	Completed after 3 iterations at t[s]:   1929.34
	FillingsUpdate:  mu: -0.168561545  nElectrons: 204.000000  magneticMoment: [ Abs: 0.04405  Tot: +0.03646 ]
	SubspaceRotationAdjust: set factor to 0.141
ElecMinimize: Iter:  27  F: -1101.112688594511610  |grad|_K:  1.705e-07  alpha:  4.691e-01  linmin: -6.000e-06  t[s]:   1936.58
	Linear fluid (dielectric constant: 78.4, screening length: 8.12261 Bohr) occupying 0.442030 of unit cell:	Completed after 8 iterations at t[s]:   1944.11
	Linear fluid (dielectric constant: 78.4, screening length: 8.12261 Bohr) occupying 0.442030 of unit cell:	Completed after 2 iterations at t[s]:   1949.90
	FillingsUpdate:  mu: -0.168638777  nElectrons: 204.000000  magneticMoment: [ Abs: 0.06353  Tot: +0.05259 ]
	SubspaceRotationAdjust: set factor to 0.143
ElecMinimize: Iter:  28  F: -1101.112689779367201  |grad|_K:  2.598e-07  alpha:  4.530e-01  linmin:  3.753e-07  t[s]:   1957.11
	Linear fluid (dielectric constant: 78.4, screening length: 8.12261 Bohr) occupying 0.442005 of unit cell:	Completed after 11 iterations at t[s]:   1964.80
	Linear fluid (dielectric constant: 78.4, screening length: 8.12261 Bohr) occupying 0.442001 of unit cell:	Completed after 9 iterations at t[s]:   1971.12
	FillingsUpdate:  mu: -0.168530592  nElectrons: 204.000000  magneticMoment: [ Abs: 0.12305  Tot: +0.10176 ]
	SubspaceRotationAdjust: set factor to 0.135
ElecMinimize: Iter:  29  F: -1101.112692477888231  |grad|_K:  7.221e-07  alpha:  5.692e-01  linmin:  4.536e-05  t[s]:   1978.32
	Linear fluid (dielectric constant: 78.4, screening length: 8.12261 Bohr) occupying 0.442778 of unit cell:	Completed after 21 iterations at t[s]:   1986.77
	Linear fluid (dielectric constant: 78.4, screening length: 8.12261 Bohr) occupying 0.442000 of unit cell:	Completed after 21 iterations at t[s]:   1993.93
	FillingsUpdate:  mu: -0.168522498  nElectrons: 204.000000  magneticMoment: [ Abs: 0.12395  Tot: +0.10251 ]
	SubspaceRotationAdjust: set factor to 0.13
ElecMinimize: Iter:  30  F: -1101.112692506610529  |grad|_K:  7.183e-07  alpha:  1.118e-03  linmin: -1.757e-05  t[s]:   2001.16
	Linear fluid (dielectric constant: 78.4, screening length: 8.12261 Bohr) occupying 0.442000 of unit cell:	Completed after 0 iterations at t[s]:   2007.96
ElecMinimize: 	Predicted alpha/alphaT>3.000000, increasing alphaT to 3.353109e-03.
	Linear fluid (dielectric constant: 78.4, screening length: 8.12261 Bohr) occupying 0.441998 of unit cell:	Completed after 2 iterations at t[s]:   2013.73
ElecMinimize: 	Predicted alpha/alphaT>3.000000, increasing alphaT to 1.005933e-02.
	Linear fluid (dielectric constant: 78.4, screening length: 8.12261 Bohr) occupying 0.441995 of unit cell:	Completed after 2 iterations at t[s]:   2019.48
ElecMinimize: 	Predicted alpha/alphaT>3.000000, increasing alphaT to 3.017798e-02.
	Linear fluid (dielectric constant: 78.4, screening length: 8.12261 Bohr) occupying 0.441966 of unit cell:	Completed after 11 iterations at t[s]:   2025.90
	FillingsUpdate:  mu: -0.168448313  nElectrons: 204.000000  magneticMoment: [ Abs: 0.19711  Tot: +0.16228 ]
	SubspaceRotationAdjust: set factor to 0.0959
ElecMinimize: Iter:  31  F: -1101.112695026645724  |grad|_K:  1.192e-06  alpha:  9.195e-02  linmin:  6.588e-05  t[s]:   2033.13
ElecMinimize: 	Bad step direction: g.d > 0.
ElecMinimize: 	Undoing step.
	Linear fluid (dielectric constant: 78.4, screening length: 8.12261 Bohr) occupying 0.441966 of unit cell:	Completed after 0 iterations at t[s]:   2039.93
ElecMinimize: 	Step failed: resetting search direction.
	FillingsUpdate:  mu: -0.168448313  nElectrons: 204.000000  magneticMoment: [ Abs: 0.19711  Tot: +0.16228 ]
	SubspaceRotationAdjust: set factor to 0.0786
ElecMinimize: Iter:  32  F: -1101.112695026649590  |grad|_K:  1.079e-06  alpha:  0.000e+00
	Linear fluid (dielectric constant: 78.4, screening length: 8.12261 Bohr) occupying 0.441943 of unit cell:	Completed after 14 iterations at t[s]:   2055.01
	Linear fluid (dielectric constant: 78.4, screening length: 8.12261 Bohr) occupying 0.441932 of unit cell:	Completed after 11 iterations at t[s]:   2061.47
	FillingsUpdate:  mu: -0.168862694  nElectrons: 204.000000  magneticMoment: [ Abs: 0.19732  Tot: +0.16212 ]
	SubspaceRotationAdjust: set factor to 0.0724
ElecMinimize: Iter:  33  F: -1101.112709613958486  |grad|_K:  6.102e-07  alpha:  1.430e-01  linmin: -1.321e-05  t[s]:   2068.62
	Linear fluid (dielectric constant: 78.4, screening length: 8.12261 Bohr) occupying 0.441927 of unit cell:	Completed after 10 iterations at t[s]:   2076.22
	Linear fluid (dielectric constant: 78.4, screening length: 8.12261 Bohr) occupying 0.441921 of unit cell:	Completed after 10 iterations at t[s]:   2082.63
	FillingsUpdate:  mu: -0.169243894  nElectrons: 204.000000  magneticMoment: [ Abs: 0.20057  Tot: +0.16443 ]
	SubspaceRotationAdjust: set factor to 0.0872
ElecMinimize: Iter:  34  F: -1101.112720393267637  |grad|_K:  5.615e-07  alpha:  3.305e-01  linmin:  2.478e-06  t[s]:   2089.86
	Linear fluid (dielectric constant: 78.4, screening length: 8.12261 Bohr) occupying 0.441928 of unit cell:	Completed after 10 iterations at t[s]:   2097.54
	Linear fluid (dielectric constant: 78.4, screening length: 8.12261 Bohr) occupying 0.441933 of unit cell:	Completed after 9 iterations at t[s]:   2103.83
	FillingsUpdate:  mu: -0.168718487  nElectrons: 204.000000  magneticMoment: [ Abs: 0.20989  Tot: +0.17144 ]
	SubspaceRotationAdjust: set factor to 0.101
ElecMinimize: Iter:  35  F: -1101.112735843640394  |grad|_K:  5.888e-07  alpha:  5.604e-01  linmin: -7.147e-07  t[s]:   2111.09
	Linear fluid (dielectric constant: 78.4, screening length: 8.12261 Bohr) occupying 0.441982 of unit cell:	Completed after 15 iterations at t[s]:   2119.30
	Linear fluid (dielectric constant: 78.4, screening length: 8.12261 Bohr) occupying 0.441963 of unit cell:	Completed after 11 iterations at t[s]:   2125.70
	FillingsUpdate:  mu: -0.168369510  nElectrons: 204.000000  magneticMoment: [ Abs: 0.21983  Tot: +0.17921 ]
	SubspaceRotationAdjust: set factor to 0.108
ElecMinimize: Iter:  36  F: -1101.112746228123115  |grad|_K:  6.104e-07  alpha:  3.412e-01  linmin: -4.657e-07  t[s]:   2132.98
	Linear fluid (dielectric constant: 78.4, screening length: 8.12261 Bohr) occupying 0.441977 of unit cell:	Completed after 10 iterations at t[s]:   2140.61
	Linear fluid (dielectric constant: 78.4, screening length: 8.12261 Bohr) occupying 0.441982 of unit cell:	Completed after 6 iterations at t[s]:   2146.68
	FillingsUpdate:  mu: -0.168372569  nElectrons: 204.000000  magneticMoment: [ Abs: 0.23798  Tot: +0.19332 ]
	SubspaceRotationAdjust: set factor to 0.121
ElecMinimize: Iter:  37  F: -1101.112760849747701  |grad|_K:  6.069e-07  alpha:  4.482e-01  linmin: -2.473e-07  t[s]:   2153.84
	Linear fluid (dielectric constant: 78.4, screening length: 8.12261 Bohr) occupying 0.442003 of unit cell:	Completed after 11 iterations at t[s]:   2161.54
	Linear fluid (dielectric constant: 78.4, screening length: 8.12261 Bohr) occupying 0.442000 of unit cell:	Completed after 5 iterations at t[s]:   2167.52
	FillingsUpdate:  mu: -0.168690077  nElectrons: 204.000000  magneticMoment: [ Abs: 0.25682  Tot: +0.20796 ]
	SubspaceRotationAdjust: set factor to 0.131
ElecMinimize: Iter:  38  F: -1101.112772828155357  |grad|_K:  6.877e-07  alpha:  3.717e-01  linmin: -3.269e-07  t[s]:   2175.59
	Linear fluid (dielectric constant: 78.4, screening length: 8.12261 Bohr) occupying 0.442027 of unit cell:	Completed after 11 iterations at t[s]:   2183.31
	Linear fluid (dielectric constant: 78.4, screening length: 8.12261 Bohr) occupying 0.442051 of unit cell:	Completed after 11 iterations at t[s]:   2189.75
	FillingsUpdate:  mu: -0.168090848  nElectrons: 204.000000  magneticMoment: [ Abs: 0.30735  Tot: +0.24705 ]
	SubspaceRotationAdjust: set factor to 0.139
ElecMinimize: Iter:  39  F: -1101.112799653256388  |grad|_K:  8.954e-07  alpha:  6.580e-01  linmin:  1.274e-05  t[s]:   2197.01
	Linear fluid (dielectric constant: 78.4, screening length: 8.12261 Bohr) occupying 0.442128 of unit cell:	Completed after 15 iterations at t[s]:   2205.02
	Linear fluid (dielectric constant: 78.4, screening length: 8.12261 Bohr) occupying 0.442092 of unit cell:	Completed after 12 iterations at t[s]:   2211.54
	FillingsUpdate:  mu: -0.167546997  nElectrons: 204.000000  magneticMoment: [ Abs: 0.35928  Tot: +0.28623 ]
	SubspaceRotationAdjust: set factor to 0.145
ElecMinimize: Iter:  40  F: -1101.112824776954085  |grad|_K:  1.060e-06  alpha:  3.794e-01  linmin:  4.590e-07  t[s]:   2218.78
	Linear fluid (dielectric constant: 78.4, screening length: 8.12261 Bohr) occupying 0.442161 of unit cell:	Completed after 17 iterations at t[s]:   2226.93
	Linear fluid (dielectric constant: 78.4, screening length: 8.12261 Bohr) occupying 0.442155 of unit cell:	Completed after 9 iterations at t[s]:   2233.21
	FillingsUpdate:  mu: -0.166789332  nElectrons: 204.000000  magneticMoment: [ Abs: 0.42958  Tot: +0.33826 ]
	SubspaceRotationAdjust: set factor to 0.143
ElecMinimize: Iter:  41  F: -1101.112859717532501  |grad|_K:  1.470e-06  alpha:  3.495e-01  linmin:  2.513e-05  t[s]:   2240.47
	Linear fluid (dielectric constant: 78.4, screening length: 8.12261 Bohr) occupying 0.442194 of unit cell:	Completed after 11 iterations at t[s]:   2248.19
	Linear fluid (dielectric constant: 78.4, screening length: 8.12261 Bohr) occupying 0.442177 of unit cell:	Completed after 11 iterations at t[s]:   2254.62
	FillingsUpdate:  mu: -0.166515656  nElectrons: 204.000000  magneticMoment: [ Abs: 0.51637  Tot: +0.39948 ]
	SubspaceRotationAdjust: set factor to 0.196
ElecMinimize: Iter:  42  F: -1101.112900244100501  |grad|_K:  1.436e-06  alpha:  2.400e-01  linmin: -3.761e-06  t[s]:   2261.89
	Linear fluid (dielectric constant: 78.4, screening length: 8.12261 Bohr) occupying 0.442186 of unit cell:	Completed after 12 iterations at t[s]:   2269.88
	Linear fluid (dielectric constant: 78.4, screening length: 8.12261 Bohr) occupying 0.442185 of unit cell:	Completed after 2 iterations at t[s]:   2275.58
	FillingsUpdate:  mu: -0.166735092  nElectrons: 204.000000  magneticMoment: [ Abs: 0.59300  Tot: +0.45164 ]
	SubspaceRotationAdjust: set factor to 0.197
ElecMinimize: Iter:  43  F: -1101.112942245658132  |grad|_K:  1.527e-06  alpha:  2.310e-01  linmin: -1.472e-05  t[s]:   2282.86
	Linear fluid (dielectric constant: 78.4, screening length: 8.12261 Bohr) occupying 0.442233 of unit cell:	Completed after 17 iterations at t[s]:   2291.06
	Linear fluid (dielectric constant: 78.4, screening length: 8.12261 Bohr) occupying 0.442230 of unit cell:	Completed after 7 iterations at t[s]:   2297.20
	FillingsUpdate:  mu: -0.166589996  nElectrons: 204.000000  magneticMoment: [ Abs: 0.67739  Tot: +0.50893 ]
	SubspaceRotationAdjust: set factor to 0.151
ElecMinimize: Iter:  44  F: -1101.112989909312546  |grad|_K:  1.993e-06  alpha:  2.181e-01  linmin:  4.186e-05  t[s]:   2304.36
	Linear fluid (dielectric constant: 78.4, screening length: 8.12261 Bohr) occupying 0.442178 of unit cell:	Completed after 11 iterations at t[s]:   2312.08
	Linear fluid (dielectric constant: 78.4, screening length: 8.12261 Bohr) occupying 0.442195 of unit cell:	Completed after 11 iterations at t[s]:   2318.47
	FillingsUpdate:  mu: -0.166482021  nElectrons: 204.000000  magneticMoment: [ Abs: 0.75411  Tot: +0.55856 ]
	SubspaceRotationAdjust: set factor to 0.159
ElecMinimize: Iter:  45  F: -1101.113029352482727  |grad|_K:  1.737e-06  alpha:  1.279e-01  linmin: -2.607e-06  t[s]:   2325.74
	Linear fluid (dielectric constant: 78.4, screening length: 8.12261 Bohr) occupying 0.442133 of unit cell:	Completed after 17 iterations at t[s]:   2333.86
	Linear fluid (dielectric constant: 78.4, screening length: 8.12261 Bohr) occupying 0.442134 of unit cell:	Completed after 2 iterations at t[s]:   2339.64
	FillingsUpdate:  mu: -0.166135117  nElectrons: 204.000000  magneticMoment: [ Abs: 0.80583  Tot: +0.59051 ]
	SubspaceRotationAdjust: set factor to 0.161
ElecMinimize: Iter:  46  F: -1101.113062453264092  |grad|_K:  1.529e-06  alpha:  1.250e-01  linmin: -2.429e-05  t[s]:   2346.87
	Linear fluid (dielectric constant: 78.4, screening length: 8.12261 Bohr) occupying 0.442120 of unit cell:	Completed after 8 iterations at t[s]:   2354.41
	Linear fluid (dielectric constant: 78.4, screening length: 8.12261 Bohr) occupying 0.442110 of unit cell:	Completed after 9 iterations at t[s]:   2360.75
	FillingsUpdate:  mu: -0.166205906  nElectrons: 204.000000  magneticMoment: [ Abs: 0.88714  Tot: +0.64112 ]
	SubspaceRotationAdjust: set factor to 0.19
ElecMinimize: Iter:  47  F: -1101.113116549083998  |grad|_K:  1.482e-06  alpha:  2.522e-01  linmin:  7.359e-06  t[s]:   2368.00
	Linear fluid (dielectric constant: 78.4, screening length: 8.12261 Bohr) occupying 0.442123 of unit cell:	Completed after 16 iterations at t[s]:   2376.09
	Linear fluid (dielectric constant: 78.4, screening length: 8.12261 Bohr) occupying 0.442119 of unit cell:	Completed after 11 iterations at t[s]:   2382.48
	FillingsUpdate:  mu: -0.166240759  nElectrons: 204.000000  magneticMoment: [ Abs: 0.94502  Tot: +0.67683 ]
	SubspaceRotationAdjust: set factor to 0.166
ElecMinimize: Iter:  48  F: -1101.113154892360626  |grad|_K:  1.752e-06  alpha:  1.966e-01  linmin:  3.153e-05  t[s]:   2389.78
	Linear fluid (dielectric constant: 78.4, screening length: 8.12261 Bohr) occupying 0.442064 of unit cell:	Completed after 17 iterations at t[s]:   2397.92
	Linear fluid (dielectric constant: 78.4, screening length: 8.12261 Bohr) occupying 0.442081 of unit cell:	Completed after 10 iterations at t[s]:   2404.23
	FillingsUpdate:  mu: -0.166331820  nElectrons: 204.000000  magneticMoment: [ Abs: 0.99158  Tot: +0.70368 ]
	SubspaceRotationAdjust: set factor to 0.204
ElecMinimize: Iter:  49  F: -1101.113188480574991  |grad|_K:  1.238e-06  alpha:  1.307e-01  linmin: -8.659e-06  t[s]:   2411.54
	Linear fluid (dielectric constant: 78.4, screening length: 8.12261 Bohr) occupying 0.442074 of unit cell:	Completed after 11 iterations at t[s]:   2419.51
	Linear fluid (dielectric constant: 78.4, screening length: 8.12261 Bohr) occupying 0.442072 of unit cell:	Completed after 10 iterations at t[s]:   2425.81
	FillingsUpdate:  mu: -0.166220811  nElectrons: 204.000000  magneticMoment: [ Abs: 1.01923  Tot: +0.71913 ]
	SubspaceRotationAdjust: set factor to 0.185
ElecMinimize: Iter:  50  F: -1101.113211383138150  |grad|_K:  1.295e-06  alpha:  1.694e-01  linmin: -2.551e-05  t[s]:   2433.05
	Linear fluid (dielectric constant: 78.4, screening length: 8.12261 Bohr) occupying 0.442117 of unit cell:	Completed after 14 iterations at t[s]:   2440.99
	Linear fluid (dielectric constant: 78.4, screening length: 8.12261 Bohr) occupying 0.442109 of unit cell:	Completed after 9 iterations at t[s]:   2447.27
	FillingsUpdate:  mu: -0.166487708  nElectrons: 204.000000  magneticMoment: [ Abs: 1.04641  Tot: +0.73494 ]
	SubspaceRotationAdjust: set factor to 0.194
ElecMinimize: Iter:  51  F: -1101.113232641170043  |grad|_K:  1.250e-06  alpha:  1.410e-01  linmin:  4.282e-06  t[s]:   2454.50
	Linear fluid (dielectric constant: 78.4, screening length: 8.12261 Bohr) occupying 0.442110 of unit cell:	Completed after 10 iterations at t[s]:   2462.14
	Linear fluid (dielectric constant: 78.4, screening length: 8.12261 Bohr) occupying 0.442110 of unit cell:	Completed after 9 iterations at t[s]:   2468.44
	FillingsUpdate:  mu: -0.166282270  nElectrons: 204.000000  magneticMoment: [ Abs: 1.07710  Tot: +0.75086 ]
	SubspaceRotationAdjust: set factor to 0.198
ElecMinimize: Iter:  52  F: -1101.113260002859533  |grad|_K:  1.220e-06  alpha:  2.020e-01  linmin:  2.041e-06  t[s]:   2476.79
	Linear fluid (dielectric constant: 78.4, screening length: 8.12261 Bohr) occupying 0.442078 of unit cell:	Completed after 17 iterations at t[s]:   2484.98
	Linear fluid (dielectric constant: 78.4, screening length: 8.12261 Bohr) occupying 0.442090 of unit cell:	Completed after 14 iterations at t[s]:   2491.61
	FillingsUpdate:  mu: -0.166219808  nElectrons: 204.000000  magneticMoment: [ Abs: 1.09123  Tot: +0.75679 ]
	SubspaceRotationAdjust: set factor to 0.177
ElecMinimize: Iter:  53  F: -1101.113275862056298  |grad|_K:  1.121e-06  alpha:  1.237e-01  linmin:  7.746e-07  t[s]:   2498.90
	Linear fluid (dielectric constant: 78.4, screening length: 8.12261 Bohr) occupying 0.442115 of unit cell:	Completed after 10 iterations at t[s]:   2506.56
	Linear fluid (dielectric constant: 78.4, screening length: 8.12261 Bohr) occupying 0.442123 of unit cell:	Completed after 7 iterations at t[s]:   2512.69
	FillingsUpdate:  mu: -0.166736822  nElectrons: 204.000000  magneticMoment: [ Abs: 1.10840  Tot: +0.76489 ]
	SubspaceRotationAdjust: set factor to 0.234
ElecMinimize: Iter:  54  F: -1101.113293488269392  |grad|_K:  9.037e-07  alpha:  1.608e-01  linmin:  6.609e-07  t[s]:   2519.90
	Linear fluid (dielectric constant: 78.4, screening length: 8.12261 Bohr) occupying 0.442151 of unit cell:	Completed after 14 iterations at t[s]:   2527.83
	Linear fluid (dielectric constant: 78.4, screening length: 8.12261 Bohr) occupying 0.442155 of unit cell:	Completed after 7 iterations at t[s]:   2533.95
	FillingsUpdate:  mu: -0.166657616  nElectrons: 204.000000  magneticMoment: [ Abs: 1.12002  Tot: +0.76983 ]
	SubspaceRotationAdjust: set factor to 0.188
ElecMinimize: Iter:  55  F: -1101.113306660500939  |grad|_K:  1.076e-06  alpha:  1.849e-01  linmin:  8.051e-07  t[s]:   2541.22
	Linear fluid (dielectric constant: 78.4, screening length: 8.12261 Bohr) occupying 0.442128 of unit cell:	Completed after 13 iterations at t[s]:   2549.06
	Linear fluid (dielectric constant: 78.4, screening length: 8.12261 Bohr) occupying 0.442139 of unit cell:	Completed after 10 iterations at t[s]:   2555.39
	FillingsUpdate:  mu: -0.166306383  nElectrons: 204.000000  magneticMoment: [ Abs: 1.12524  Tot: +0.76970 ]
	SubspaceRotationAdjust: set factor to 0.214
ElecMinimize: Iter:  56  F: -1101.113318063588622  |grad|_K:  8.234e-07  alpha:  1.131e-01  linmin:  1.877e-07  t[s]:   2562.66
	Linear fluid (dielectric constant: 78.4, screening length: 8.12261 Bohr) occupying 0.442136 of unit cell:	Completed after 10 iterations at t[s]:   2570.34
	Linear fluid (dielectric constant: 78.4, screening length: 8.12261 Bohr) occupying 0.442133 of unit cell:	Completed after 10 iterations at t[s]:   2576.71
	FillingsUpdate:  mu: -0.166403190  nElectrons: 204.000000  magneticMoment: [ Abs: 1.12982  Tot: +0.76843 ]
	SubspaceRotationAdjust: set factor to 0.188
ElecMinimize: Iter:  57  F: -1101.113331090441534  |grad|_K:  8.723e-07  alpha:  2.195e-01  linmin: -5.238e-07  t[s]:   2583.89
	Linear fluid (dielectric constant: 78.4, screening length: 8.12261 Bohr) occupying 0.442173 of unit cell:	Completed after 16 iterations at t[s]:   2592.01
	Linear fluid (dielectric constant: 78.4, screening length: 8.12261 Bohr) occupying 0.442151 of unit cell:	Completed after 13 iterations at t[s]:   2598.66
	FillingsUpdate:  mu: -0.166716765  nElectrons: 204.000000  magneticMoment: [ Abs: 1.13304  Tot: +0.76849 ]
	SubspaceRotationAdjust: set factor to 0.197
ElecMinimize: Iter:  58  F: -1101.113337803605418  |grad|_K:  6.878e-07  alpha:  1.006e-01  linmin: -8.952e-08  t[s]:   2605.92
	Linear fluid (dielectric constant: 78.4, screening length: 8.12261 Bohr) occupying 0.442146 of unit cell:	Completed after 4 iterations at t[s]:   2613.11
	Linear fluid (dielectric constant: 78.4, screening length: 8.12261 Bohr) occupying 0.442140 of unit cell:	Completed after 4 iterations at t[s]:   2619.05
	FillingsUpdate:  mu: -0.166688845  nElectrons: 204.000000  magneticMoment: [ Abs: 1.13296  Tot: +0.76464 ]
	SubspaceRotationAdjust: set factor to 0.208
ElecMinimize: Iter:  59  F: -1101.113346636807819  |grad|_K:  6.990e-07  alpha:  2.134e-01  linmin:  2.958e-07  t[s]:   2626.28
	Linear fluid (dielectric constant: 78.4, screening length: 8.12261 Bohr) occupying 0.442091 of unit cell:	Completed after 13 iterations at t[s]:   2634.12
	Linear fluid (dielectric constant: 78.4, screening length: 8.12261 Bohr) occupying 0.442109 of unit cell:	Completed after 11 iterations at t[s]:   2640.57
	FillingsUpdate:  mu: -0.166607680  nElectrons: 204.000000  magneticMoment: [ Abs: 1.12992  Tot: +0.75944 ]
	SubspaceRotationAdjust: set factor to 0.204
ElecMinimize: Iter:  60  F: -1101.113352507448553  |grad|_K:  7.614e-07  alpha:  1.375e-01  linmin:  1.766e-07  t[s]:   2647.69
	Linear fluid (dielectric constant: 78.4, screening length: 8.12261 Bohr) occupying 0.442097 of unit cell:	Completed after 9 iterations at t[s]:   2655.26
	Linear fluid (dielectric constant: 78.4, screening length: 8.12261 Bohr) occupying 0.442093 of unit cell:	Completed after 7 iterations at t[s]:   2661.40
	FillingsUpdate:  mu: -0.166988923  nElectrons: 204.000000  magneticMoment: [ Abs: 1.12612  Tot: +0.75217 ]
	SubspaceRotationAdjust: set factor to 0.248
ElecMinimize: Iter:  61  F: -1101.113361887456222  |grad|_K:  6.687e-07  alpha:  1.852e-01  linmin:  5.969e-07  t[s]:   2668.63
	Linear fluid (dielectric constant: 78.4, screening length: 8.12261 Bohr) occupying 0.442079 of unit cell:	Completed after 11 iterations at t[s]:   2676.34
	Linear fluid (dielectric constant: 78.4, screening length: 8.12261 Bohr) occupying 0.442082 of unit cell:	Completed after 6 iterations at t[s]:   2682.40
	FillingsUpdate:  mu: -0.167104863  nElectrons: 204.000000  magneticMoment: [ Abs: 1.12310  Tot: +0.74686 ]
	SubspaceRotationAdjust: set factor to 0.181
[...]
	FillingsUpdate:  mu: -0.168996751  nElectrons: 204.000000  magneticMoment: [ Abs: 0.88981  Tot: +0.60258 ]
	SubspaceRotationAdjust: set factor to 0.0896
ElecMinimize: Iter:  12  F: -1101.121215373722180  |grad|_K:  8.679e-08  alpha:  2.584e-01  linmin: -1.232e-04  t[s]:  10937.92
	Linear fluid (dielectric constant: 78.4, screening length: 8.12261 Bohr) occupying 0.442200 of unit cell:	Completed after 2 iterations at t[s]:  10944.97
	Linear fluid (dielectric constant: 78.4, screening length: 8.12261 Bohr) occupying 0.442200 of unit cell:	Completed after 2 iterations at t[s]:  10950.74
	FillingsUpdate:  mu: -0.169004443  nElectrons: 204.000000  magneticMoment: [ Abs: 0.88965  Tot: +0.60247 ]
	SubspaceRotationAdjust: set factor to 0.0855
ElecMinimize: Iter:  13  F: -1101.121215564781096  |grad|_K:  6.524e-08  alpha:  2.899e-01  linmin:  1.095e-04  t[s]:  10957.96
	Linear fluid (dielectric constant: 78.4, screening length: 8.12261 Bohr) occupying 0.442199 of unit cell:	Completed after 2 iterations at t[s]:  10965.02
	Linear fluid (dielectric constant: 78.4, screening length: 8.12261 Bohr) occupying 0.442199 of unit cell:	Completed after 0 iterations at t[s]:  10970.57
	FillingsUpdate:  mu: -0.169011192  nElectrons: 204.000000  magneticMoment: [ Abs: 0.88965  Tot: +0.60252 ]
	SubspaceRotationAdjust: set factor to 0.0858
ElecMinimize: Iter:  14  F: -1101.121215677825830  |grad|_K:  4.696e-08  alpha:  3.047e-01  linmin: -4.584e-04  t[s]:  10977.74
	Linear fluid (dielectric constant: 78.4, screening length: 8.12261 Bohr) occupying 0.442198 of unit cell:	Completed after 2 iterations at t[s]:  10984.76
	Linear fluid (dielectric constant: 78.4, screening length: 8.12261 Bohr) occupying 0.442198 of unit cell:	Completed after 0 iterations at t[s]:  10990.34
	FillingsUpdate:  mu: -0.168977540  nElectrons: 204.000000  magneticMoment: [ Abs: 0.88957  Tot: +0.60248 ]
	SubspaceRotationAdjust: set factor to 0.0888
ElecMinimize: Iter:  15  F: -1101.121215735876376  |grad|_K:  4.044e-08  alpha:  2.971e-01  linmin: -3.090e-04  t[s]:  10997.52
	Linear fluid (dielectric constant: 78.4, screening length: 8.12261 Bohr) occupying 0.442198 of unit cell:	Completed after 1 iterations at t[s]:  11004.49
	Linear fluid (dielectric constant: 78.4, screening length: 8.12261 Bohr) occupying 0.442198 of unit cell:	Completed after 0 iterations at t[s]:  11010.06
	FillingsUpdate:  mu: -0.168992101  nElectrons: 204.000000  magneticMoment: [ Abs: 0.88951  Tot: +0.60246 ]
	SubspaceRotationAdjust: set factor to 0.0984
ElecMinimize: Iter:  16  F: -1101.121215777149018  |grad|_K:  2.991e-08  alpha:  2.866e-01  linmin: -5.267e-04  t[s]:  11017.23
ElecMinimize: Converged (|Delta F|<1.000000e-07 for 2 iters).
Setting wave functions to eigenvectors of Hamiltonian
Converging empty states (this may take a while): |deigs|: 1.297e-08

Computing DFT-D3 correction:
# coordination-number Ni 6.001 6.498 6.451 4.848
# coordination-number Au 5.058 8.347 5.058 8.347 8.442 7.664 8.487 7.927 8.487 7.927 5.124 8.678
# diagonal-C6 Ni 137.77 134.59 134.90 141.33
# diagonal-C6 Au 317.16 317.16 317.16 317.16 317.16 317.16 317.16 317.16 317.16 317.16 317.16 317.16
EvdW_6 =   -0.117680
EvdW_8 =   -0.206482

# Ionic positions in cartesian coordinates:
ion Ni   0.000000000000000   5.274699999999999   3.883023659891684 1
ion Ni   0.000000000000000  -0.000000000000000   9.268057648120434 1
ion Ni   0.000000000000000   5.274699999999999  14.614284363709057 1
ion Ni   0.000000000000000  -0.000000000000000  19.449264637634009 1
ion Au   3.729776000000000   7.806682178838262   1.216836187131330 1
ion Au   3.729776000000000   2.621361487501763   6.595591282897701 1
ion Au   3.729776000000000   2.742717821161736   1.216836187131330 1
ion Au   3.729776000000000   7.928038512498235   6.595591282897701 1
ion Au   0.000000000000000   5.274699999999999   9.263847572424730 1
ion Au   0.000000000000000  -0.000000000000000   3.807933316587093 1
ion Au   3.729776000000000   7.895927226425182  11.929216484428704 1
ion Au   3.729776000000000   2.635001088414573  17.362196192697304 1
ion Au   3.729776000000000   2.653472773574818  11.929216484428704 1
ion Au   3.729776000000000   7.914398911585428  17.362196192697304 1
ion Au   0.000000000000000   5.274699999999999  19.816823107464067 1
ion Au   0.000000000000000  -0.000000000000000  14.479485399858845 1

# Forces in Cartesian coordinates:
force Ni   0.000000000000000   0.000000000000000   0.000111109819001 1
force Ni   0.000000000000000   0.000000000000000   0.000215855093505 1
force Ni   0.000000000000000   0.000000000000000   0.000279994224178 1
force Ni   0.000000000000000   0.000000000000000   0.000068397130377 1
force Au   0.000000000000000  -0.000078254082171   0.000187436631927 1
force Au   0.000000000000000   0.000250709236245   0.000305733885005 1
force Au   0.000000000000000   0.000078254082171   0.000187436631927 1
force Au   0.000000000000000  -0.000250709236245   0.000305733884997 1
force Au   0.000000000000000   0.000000000000000  -0.000060474227802 1
force Au   0.000000000000000   0.000000000000000   0.000145312340604 1
force Au   0.000000000000000   0.000315030867434   0.000274104063920 1
force Au   0.000000000000000  -0.000294364437480   0.000105919992494 1
force Au   0.000000000000000  -0.000315030867434   0.000274104063923 1
force Au   0.000000000000000   0.000294364437480   0.000105919992502 1
force Au   0.000000000000000   0.000000000000000   0.000082472039686 1
force Au   0.000000000000000   0.000000000000000   0.000191113070944 1

# Energy components:
   A_diel =       -0.0065186734892039
   Eewald =     4478.2690549977569390
       EH =     5529.1186037364350341
     Eloc =   -11236.4373877511407045
      Enl =       53.4741859752015927
     EvdW =       -0.3241614660355457
      Exc =     -444.6186009117527647
 Exc_core =      275.5231601153498104
       KE =      243.8816027943101972
-------------------------------------
     Etot =    -1101.1200611833646690
       TS =        0.0011545937842856
-------------------------------------
        F =    -1101.1212157771490183


Dumping 'jdft.fillings' ... done
Dumping 'jdft.wfns' ... done
Dumping 'jdft.fluidState' ... done
Dumping 'jdft.ionpos' ... done
Dumping 'jdft.lattice' ... done
Dumping 'jdft.eigenvals' ... done
Dumping 'jdft.eigStats' ... 
	eMin: -3.934488 at state 4 ( [ +0.125000 +0.000000 +0.000000 ] spin 1 )
	HOMO: -0.169019 at state 13 ( [ +0.375000 +0.166667 +0.000000 ] spin 1 )
	mu  : -0.168992
	LUMO: -0.168802 at state 30 ( [ +0.250000 +0.333333 +0.000000 ] spin -1 )
	eMax: +0.121394 at state 39 ( [ +0.500000 +0.500000 +0.000000 ] spin -1 )
	HOMO-LUMO gap: +0.000217
	Optical gap  : +0.001119 at state 19 ( [ +0.500000 +0.500000 +0.000000 ] spin 1 )
Dumping 'jdft.Ecomponents' ... done
IonicMinimize: Iter:   9  F: -1101.121215777149018  |grad|_K:  1.179e-04  alpha:  1.000e+00  linmin:  2.328e-01  t[s]:  11035.94

#--- Lowdin population analysis ---
# oxidation-state Ni +0.228 +0.197 +0.208 +0.316
# magnetic-moments Ni -0.029 +0.045 +0.137 +0.516
# oxidation-state Au -0.004 -0.060 -0.004 -0.060 -0.049 -0.114 -0.044 -0.125 -0.044 -0.125 +0.041 -0.056
# magnetic-moments Au -0.003 -0.002 -0.003 -0.002 -0.004 +0.001 -0.007 -0.006 -0.007 -0.006 -0.016 -0.005


Computing DFT-D3 correction:
# coordination-number Ni 6.003 6.498 6.447 4.850
# coordination-number Au 5.058 8.346 5.058 8.346 8.442 7.660 8.487 7.928 8.487 7.928 5.126 8.682
# diagonal-C6 Ni 137.76 134.59 134.92 141.32
# diagonal-C6 Au 317.16 317.16 317.16 317.16 317.16 317.16 317.16 317.16 317.16 317.16 317.16 317.16
EvdW_6 =   -0.117682
EvdW_8 =   -0.206487

-------- Electronic minimization -----------
	Linear fluid (dielectric constant: 78.4, screening length: 8.12261 Bohr) occupying 0.442201 of unit cell:	Completed after 10 iterations at t[s]:  11044.46
	FillingsUpdate:  mu: -0.168812753  nElectrons: 204.000000  magneticMoment: [ Abs: 0.88742  Tot: +0.60083 ]
ElecMinimize: Iter:   0  F: -1101.121212065470672  |grad|_K:  4.696e-07  alpha:  1.000e+00
	Linear fluid (dielectric constant: 78.4, screening length: 8.12261 Bohr) occupying 0.442327 of unit cell:	Completed after 18 iterations at t[s]:  11061.16
	Linear fluid (dielectric constant: 78.4, screening length: 8.12261 Bohr) occupying 0.442215 of unit cell:	Completed after 19 iterations at t[s]:  11068.14
	FillingsUpdate:  mu: -0.169020829  nElectrons: 204.000000  magneticMoment: [ Abs: 0.88828  Tot: +0.60174 ]
	SubspaceRotationAdjust: set factor to 0.11
ElecMinimize: Iter:   1  F: -1101.121214307496984  |grad|_K:  1.835e-07  alpha:  1.166e-01  linmin:  2.834e-04  t[s]:  11075.35
	Linear fluid (dielectric constant: 78.4, screening length: 8.12261 Bohr) occupying 0.442218 of unit cell:	Completed after 7 iterations at t[s]:  11082.76
	Linear fluid (dielectric constant: 78.4, screening length: 8.12261 Bohr) occupying 0.442221 of unit cell:	Completed after 7 iterations at t[s]:  11089.02
	FillingsUpdate:  mu: -0.168992297  nElectrons: 204.000000  magneticMoment: [ Abs: 0.88850  Tot: +0.60204 ]
	SubspaceRotationAdjust: set factor to 0.127
ElecMinimize: Iter:   2  F: -1101.121215118203281  |grad|_K:  1.160e-07  alpha:  2.745e-01  linmin: -6.309e-04  t[s]:  11096.29
	Linear fluid (dielectric constant: 78.4, screening length: 8.12261 Bohr) occupying 0.442221 of unit cell:	Completed after 4 iterations at t[s]:  11103.48
	Linear fluid (dielectric constant: 78.4, screening length: 8.12261 Bohr) occupying 0.442221 of unit cell:	Completed after 2 iterations at t[s]:  11109.27
	FillingsUpdate:  mu: -0.168979866  nElectrons: 204.000000  magneticMoment: [ Abs: 0.88843  Tot: +0.60202 ]
	SubspaceRotationAdjust: set factor to 0.148
ElecMinimize: Iter:   3  F: -1101.121215543209473  |grad|_K:  1.120e-07  alpha:  3.588e-01  linmin: -8.613e-05  t[s]:  11116.47
	Linear fluid (dielectric constant: 78.4, screening length: 8.12261 Bohr) occupying 0.442219 of unit cell:	Completed after 6 iterations at t[s]:  11123.78
	Linear fluid (dielectric constant: 78.4, screening length: 8.12261 Bohr) occupying 0.442219 of unit cell:	Completed after 3 iterations at t[s]:  11129.66
	FillingsUpdate:  mu: -0.169022172  nElectrons: 204.000000  magneticMoment: [ Abs: 0.88825  Tot: +0.60192 ]
	SubspaceRotationAdjust: set factor to 0.155
ElecMinimize: Iter:   4  F: -1101.121215809787600  |grad|_K:  1.061e-07  alpha:  2.435e-01  linmin:  6.164e-06  t[s]:  11136.90
	Linear fluid (dielectric constant: 78.4, screening length: 8.12261 Bohr) occupying 0.442222 of unit cell:	Completed after 6 iterations at t[s]:  11144.18
	Linear fluid (dielectric constant: 78.4, screening length: 8.12261 Bohr) occupying 0.442225 of unit cell:	Completed after 7 iterations at t[s]:  11150.40
	FillingsUpdate:  mu: -0.168991513  nElectrons: 204.000000  magneticMoment: [ Abs: 0.88833  Tot: +0.60217 ]
	SubspaceRotationAdjust: set factor to 0.148
ElecMinimize: Iter:   5  F: -1101.121216336689031  |grad|_K:  1.287e-07  alpha:  5.257e-01  linmin: -3.807e-04  t[s]:  11157.59
	Linear fluid (dielectric constant: 78.4, screening length: 8.12261 Bohr) occupying 0.442219 of unit cell:	Completed after 9 iterations at t[s]:  11165.13
	Linear fluid (dielectric constant: 78.4, screening length: 8.12261 Bohr) occupying 0.442223 of unit cell:	Completed after 9 iterations at t[s]:  11172.59
	FillingsUpdate:  mu: -0.168933102  nElectrons: 204.000000  magneticMoment: [ Abs: 0.88799  Tot: +0.60193 ]
	SubspaceRotationAdjust: set factor to 0.136
ElecMinimize: Iter:   6  F: -1101.121216595973920  |grad|_K:  1.085e-07  alpha:  1.742e-01  linmin:  6.327e-06  t[s]:  11179.82
	Linear fluid (dielectric constant: 78.4, screening length: 8.12261 Bohr) occupying 0.442224 of unit cell:	Completed after 2 iterations at t[s]:  11186.84
	Linear fluid (dielectric constant: 78.4, screening length: 8.12261 Bohr) occupying 0.442226 of unit cell:	Completed after 6 iterations at t[s]:  11192.93
	FillingsUpdate:  mu: -0.169008590  nElectrons: 204.000000  magneticMoment: [ Abs: 0.88783  Tot: +0.60195 ]
	SubspaceRotationAdjust: set factor to 0.13
ElecMinimize: Iter:   7  F: -1101.121216966330394  |grad|_K:  9.744e-08  alpha:  3.611e-01  linmin: -3.075e-06  t[s]:  11200.20
	Linear fluid (dielectric constant: 78.4, screening length: 8.12261 Bohr) occupying 0.442226 of unit cell:	Completed after 2 iterations at t[s]:  11207.22
	Linear fluid (dielectric constant: 78.4, screening length: 8.12261 Bohr) occupying 0.442226 of unit cell:	Completed after 1 iterations at t[s]:  11212.97
	FillingsUpdate:  mu: -0.169053958  nElectrons: 204.000000  magneticMoment: [ Abs: 0.88765  Tot: +0.60189 ]
	SubspaceRotationAdjust: set factor to 0.139
ElecMinimize: Iter:   8  F: -1101.121217216175410  |grad|_K:  8.223e-08  alpha:  3.014e-01  linmin:  3.455e-05  t[s]:  11220.12
	Linear fluid (dielectric constant: 78.4, screening length: 8.12261 Bohr) occupying 0.442225 of unit cell:	Completed after 6 iterations at t[s]:  11227.45
	Linear fluid (dielectric constant: 78.4, screening length: 8.12261 Bohr) occupying 0.442225 of unit cell:	Completed after 2 iterations at t[s]:  11233.26
	FillingsUpdate:  mu: -0.168933422  nElectrons: 204.000000  magneticMoment: [ Abs: 0.88747  Tot: +0.60178 ]
	SubspaceRotationAdjust: set factor to 0.126
ElecMinimize: Iter:   9  F: -1101.121217373888157  |grad|_K:  6.240e-08  alpha:  2.686e-01  linmin: -5.518e-05  t[s]:  11240.50
	Linear fluid (dielectric constant: 78.4, screening length: 8.12261 Bohr) occupying 0.442227 of unit cell:	Completed after 5 iterations at t[s]:  11247.75
	Linear fluid (dielectric constant: 78.4, screening length: 8.12261 Bohr) occupying 0.442227 of unit cell:	Completed after 0 iterations at t[s]:  11253.30
	FillingsUpdate:  mu: -0.168964020  nElectrons: 204.000000  magneticMoment: [ Abs: 0.88746  Tot: +0.60184 ]
	SubspaceRotationAdjust: set factor to 0.111
ElecMinimize: Iter:  10  F: -1101.121217465636391  |grad|_K:  6.068e-08  alpha:  2.685e-01  linmin: -1.919e-05  t[s]:  11260.55
	Linear fluid (dielectric constant: 78.4, screening length: 8.12261 Bohr) occupying 0.442225 of unit cell:	Completed after 6 iterations at t[s]:  11267.87
	Linear fluid (dielectric constant: 78.4, screening length: 8.12261 Bohr) occupying 0.442225 of unit cell:	Completed after 2 iterations at t[s]:  11273.68
	FillingsUpdate:  mu: -0.169013920  nElectrons: 204.000000  magneticMoment: [ Abs: 0.88731  Tot: +0.60175 ]
	SubspaceRotationAdjust: set factor to 0.0944
ElecMinimize: Iter:  11  F: -1101.121217528572515  |grad|_K:  3.349e-08  alpha:  1.947e-01  linmin:  1.274e-04  t[s]:  11280.93
ElecMinimize: Converged (|Delta F|<1.000000e-07 for 2 iters).
Setting wave functions to eigenvectors of Hamiltonian
Converging empty states (this may take a while): |deigs|: 6.395e-09

Computing DFT-D3 correction:
# coordination-number Ni 6.003 6.498 6.447 4.850
# coordination-number Au 5.058 8.346 5.058 8.346 8.442 7.660 8.487 7.928 8.487 7.928 5.126 8.682
# diagonal-C6 Ni 137.76 134.59 134.92 141.32
# diagonal-C6 Au 317.16 317.16 317.16 317.16 317.16 317.16 317.16 317.16 317.16 317.16 317.16 317.16
EvdW_6 =   -0.117682
EvdW_8 =   -0.206487

# Ionic positions in cartesian coordinates:
ion Ni   0.000000000000000   5.274699999999999   3.882077881003589 1
ion Ni   0.000000000000000  -0.000000000000000   9.268434672332470 1
ion Ni   0.000000000000000   5.274699999999999  14.614111403780383 1
ion Ni   0.000000000000000  -0.000000000000000  19.449502621219175 1
ion Au   3.729776000000000   7.805941594043080   1.216971890172033 1
ion Au   3.729776000000000   2.622847229501954   6.596412296046490 1
ion Au   3.729776000000000   2.743458405956918   1.216971890172033 1
ion Au   3.729776000000000   7.926552770498043   6.596412296046490 1
ion Au   0.000000000000000   5.274699999999999   9.262778161713557 1
ion Au   0.000000000000000  -0.000000000000000   3.807940376772214 1
ion Au   3.729776000000000   7.897515189321471  11.929780974028207 1
ion Au   3.729776000000000   2.633312054099171  17.362399966700956 1
ion Au   3.729776000000000   2.651884810678530  11.929780974028207 1
ion Au   3.729776000000000   7.916087945900830  17.362399966700956 1
ion Au   0.000000000000000   5.274699999999999  19.814919161219152 1
ion Au   0.000000000000000  -0.000000000000000  14.479505468064092 1

# Forces in Cartesian coordinates:
force Ni   0.000000000000000   0.000000000000000   0.000128211225962 1
force Ni   0.000000000000000   0.000000000000000   0.000063799104983 1
force Ni   0.000000000000000   0.000000000000000   0.000370187106100 1
force Ni   0.000000000000000   0.000000000000000   0.000284794228871 1
force Au   0.000000000000000   0.000080788674756   0.000156396864998 1
force Au   0.000000000000000  -0.000048178797076   0.000161204815348 1
force Au   0.000000000000000  -0.000080788674756   0.000156396864998 1
force Au   0.000000000000000   0.000048178797076   0.000161204815348 1
force Au   0.000000000000000   0.000000000000000   0.000115871846897 1
force Au   0.000000000000000   0.000000000000000   0.000158686676499 1
force Au   0.000000000000000  -0.000003305331360   0.000178641299007 1
force Au   0.000000000000000   0.000014928129736   0.000155730420268 1
force Au   0.000000000000000   0.000003305331360   0.000178641299010 1
force Au   0.000000000000000  -0.000014928129736   0.000155730420259 1
force Au   0.000000000000000   0.000000000000000   0.000154790983757 1
force Au   0.000000000000000   0.000000000000000   0.000315584052353 1

# Energy components:
   A_diel =       -0.0065210239420020
   Eewald =     4478.3656774591472640
       EH =     5529.2099722348129944
     Eloc =   -11236.6254576033697958
      Enl =       53.4743945262991360
     EvdW =       -0.3241684911472641
      Exc =     -444.6188239806088518
 Exc_core =      275.5231599771083211
       KE =      243.8817038420648942
-------------------------------------
     Etot =    -1101.1200630596349583
       TS =        0.0011544689375131
-------------------------------------
        F =    -1101.1212175285725152


Dumping 'jdft.fillings' ... done
Dumping 'jdft.wfns' ... done
Dumping 'jdft.fluidState' ... done
Dumping 'jdft.ionpos' ... done
Dumping 'jdft.lattice' ... done
Dumping 'jdft.eigenvals' ... done
Dumping 'jdft.eigStats' ... 
	eMin: -3.934449 at state 4 ( [ +0.125000 +0.000000 +0.000000 ] spin 1 )
	HOMO: -0.169046 at state 13 ( [ +0.375000 +0.166667 +0.000000 ] spin 1 )
	mu  : -0.169014
	LUMO: -0.168819 at state 30 ( [ +0.250000 +0.333333 +0.000000 ] spin -1 )
	eMax: +0.121402 at state 39 ( [ +0.500000 +0.500000 +0.000000 ] spin -1 )
	HOMO-LUMO gap: +0.000226
	Optical gap  : +0.001121 at state 19 ( [ +0.500000 +0.500000 +0.000000 ] spin 1 )
Dumping 'jdft.Ecomponents' ... done
IonicMinimize: Iter:  10  F: -1101.121217528572515  |grad|_K:  4.745e-05  alpha:  1.000e+00  linmin:  6.539e-02  t[s]:  11299.59
IonicMinimize: Converged (|grad|_K<1.000000e-04).

#--- Lowdin population analysis ---
# oxidation-state Ni +0.227 +0.195 +0.207 +0.318
# magnetic-moments Ni -0.029 +0.044 +0.136 +0.517
# oxidation-state Au -0.004 -0.060 -0.004 -0.060 -0.049 -0.114 -0.044 -0.125 -0.044 -0.125 +0.041 -0.057
# magnetic-moments Au -0.003 -0.002 -0.003 -0.002 -0.004 +0.001 -0.007 -0.006 -0.007 -0.006 -0.016 -0.005


Dumping 'jdft.n_up' ... done
Dumping 'jdft.n_dn' ... done
Dumping 'jdft.tau_up' ... done
Dumping 'jdft.tau_dn' ... done
Dumping 'jdft.eigenvals' ... done
Dumping 'jdft.eigStats' ... 
	eMin: -3.934449 at state 4 ( [ +0.125000 +0.000000 +0.000000 ] spin 1 )
	HOMO: -0.169046 at state 13 ( [ +0.375000 +0.166667 +0.000000 ] spin 1 )
	mu  : -0.169014
	LUMO: -0.168819 at state 30 ( [ +0.250000 +0.333333 +0.000000 ] spin -1 )
	eMax: +0.121402 at state 39 ( [ +0.500000 +0.500000 +0.000000 ] spin -1 )
	HOMO-LUMO gap: +0.000226
	Optical gap  : +0.001121 at state 19 ( [ +0.500000 +0.500000 +0.000000 ] spin 1 )
Dumping 'jdft.kPts' ... done
Dumping 'jdft.kMap' ... done
Dumping 'jdft.dosUp' ... done.
Dumping 'jdft.dosDn' ... done.
End date and time: Sat Feb 26 13:29:45 2022  (Duration: 0-3:08:33.33)
Done!
