
*************** JDFTx 1.6.0  ***************

Start date and time: Mon Dec  6 16:59:02 2021
Executable /projects/musgravc/apps/jdftx-1.6.1/build/jdftx with command-line: -i in
Running on hosts (process indices):  shas0625.rc.int.colorado.edu (0-23)
Divided in process groups (process indices):  0 (0)  1 (1)  2 (2)  3 (3)  4 (4)  5 (5)  6 (6)  7 (7)  8 (8)  9 (9)  10 (10)  11 (11)  12 (12)  13 (13)  14 (14)  15 (15)  16 (16)  17 (17)  18 (18)  19 (19)  20 (20)  21 (21)  22 (22)  23 (23)
Resource initialization completed at t[s]:      0.01
Run totals: 24 processes, 24 threads, 0 GPUs


Input parsed successfully to the following command list (including defaults):

basis kpoint-dependent
converge-empty-states yes
coords-type Cartesian
core-overlap-check none
coulomb-interaction Periodic
davidson-band-ratio 1.1
density-of-states Etol 1.000000e-06 Esigma 1.000000e-03 \
		Complete \
	Total \
	OrthoOrbital Ag 1   s \
	OrthoOrbital Ag 1   p \
	OrthoOrbital Ag 1   px \
	OrthoOrbital Ag 1   py \
	OrthoOrbital Ag 1   pz \
	OrthoOrbital Ag 1   d \
	OrthoOrbital Ag 1   dxy \
	OrthoOrbital Ag 1   dyz \
	OrthoOrbital Ag 1   dz2 \
	OrthoOrbital Ag 1   dxz \
	OrthoOrbital Ag 1   dx2-y2 \
	OrthoOrbital Ag 2   s \
	OrthoOrbital Ag 2   p \
	OrthoOrbital Ag 2   px \
	OrthoOrbital Ag 2   py \
	OrthoOrbital Ag 2   pz \
	OrthoOrbital Ag 2   d \
	OrthoOrbital Ag 2   dxy \
	OrthoOrbital Ag 2   dyz \
	OrthoOrbital Ag 2   dz2 \
	OrthoOrbital Ag 2   dxz \
	OrthoOrbital Ag 2   dx2-y2 \
	OrthoOrbital Ag 3   s \
	OrthoOrbital Ag 3   p \
	OrthoOrbital Ag 3   px \
	OrthoOrbital Ag 3   py \
	OrthoOrbital Ag 3   pz \
	OrthoOrbital Ag 3   d \
	OrthoOrbital Ag 3   dxy \
	OrthoOrbital Ag 3   dyz \
	OrthoOrbital Ag 3   dz2 \
	OrthoOrbital Ag 3   dxz \
	OrthoOrbital Ag 3   dx2-y2 \
	OrthoOrbital Ag 4   s \
	OrthoOrbital Ag 4   p \
	OrthoOrbital Ag 4   px \
	OrthoOrbital Ag 4   py \
	OrthoOrbital Ag 4   pz \
	OrthoOrbital Ag 4   d \
	OrthoOrbital Ag 4   dxy \
	OrthoOrbital Ag 4   dyz \
	OrthoOrbital Ag 4   dz2 \
	OrthoOrbital Ag 4   dxz \
	OrthoOrbital Ag 4   dx2-y2 \
	OrthoOrbital Ag 5   s \
	OrthoOrbital Ag 5   p \
	OrthoOrbital Ag 5   px \
	OrthoOrbital Ag 5   py \
	OrthoOrbital Ag 5   pz \
	OrthoOrbital Ag 5   d \
	OrthoOrbital Ag 5   dxy \
	OrthoOrbital Ag 5   dyz \
	OrthoOrbital Ag 5   dz2 \
	OrthoOrbital Ag 5   dxz \
	OrthoOrbital Ag 5   dx2-y2 \
	OrthoOrbital Ag 6   s \
	OrthoOrbital Ag 6   p \
	OrthoOrbital Ag 6   px \
	OrthoOrbital Ag 6   py \
	OrthoOrbital Ag 6   pz \
	OrthoOrbital Ag 6   d \
	OrthoOrbital Ag 6   dxy \
	OrthoOrbital Ag 6   dyz \
	OrthoOrbital Ag 6   dz2 \
	OrthoOrbital Ag 6   dxz \
	OrthoOrbital Ag 6   dx2-y2 \
	OrthoOrbital Ag 7   s \
	OrthoOrbital Ag 7   p \
	OrthoOrbital Ag 7   px \
	OrthoOrbital Ag 7   py \
	OrthoOrbital Ag 7   pz \
	OrthoOrbital Ag 7   d \
	OrthoOrbital Ag 7   dxy \
	OrthoOrbital Ag 7   dyz \
	OrthoOrbital Ag 7   dz2 \
	OrthoOrbital Ag 7   dxz \
	OrthoOrbital Ag 7   dx2-y2 \
	OrthoOrbital Ag 8   s \
	OrthoOrbital Ag 8   p \
	OrthoOrbital Ag 8   px \
	OrthoOrbital Ag 8   py \
	OrthoOrbital Ag 8   pz \
	OrthoOrbital Ag 8   d \
	OrthoOrbital Ag 8   dxy \
	OrthoOrbital Ag 8   dyz \
	OrthoOrbital Ag 8   dz2 \
	OrthoOrbital Ag 8   dxz \
	OrthoOrbital Ag 8   dx2-y2 \
	OrthoOrbital Ag 9   s \
	OrthoOrbital Ag 9   p \
	OrthoOrbital Ag 9   px \
	OrthoOrbital Ag 9   py \
	OrthoOrbital Ag 9   pz \
	OrthoOrbital Ag 9   d \
	OrthoOrbital Ag 9   dxy \
	OrthoOrbital Ag 9   dyz \
	OrthoOrbital Ag 9   dz2 \
	OrthoOrbital Ag 9   dxz \
	OrthoOrbital Ag 9   dx2-y2 \
	OrthoOrbital Ag 10   s \
	OrthoOrbital Ag 10   p \
	OrthoOrbital Ag 10   px \
	OrthoOrbital Ag 10   py \
	OrthoOrbital Ag 10   pz \
	OrthoOrbital Ag 10   d \
	OrthoOrbital Ag 10   dxy \
	OrthoOrbital Ag 10   dyz \
	OrthoOrbital Ag 10   dz2 \
	OrthoOrbital Ag 10   dxz \
	OrthoOrbital Ag 10   dx2-y2 \
	OrthoOrbital Ag 11   s \
	OrthoOrbital Ag 11   p \
	OrthoOrbital Ag 11   px \
	OrthoOrbital Ag 11   py \
	OrthoOrbital Ag 11   pz \
	OrthoOrbital Ag 11   d \
	OrthoOrbital Ag 11   dxy \
	OrthoOrbital Ag 11   dyz \
	OrthoOrbital Ag 11   dz2 \
	OrthoOrbital Ag 11   dxz \
	OrthoOrbital Ag 11   dx2-y2 \
	OrthoOrbital Ag 12   s \
	OrthoOrbital Ag 12   p \
	OrthoOrbital Ag 12   px \
	OrthoOrbital Ag 12   py \
	OrthoOrbital Ag 12   pz \
	OrthoOrbital Ag 12   d \
	OrthoOrbital Ag 12   dxy \
	OrthoOrbital Ag 12   dyz \
	OrthoOrbital Ag 12   dz2 \
	OrthoOrbital Ag 12   dxz \
	OrthoOrbital Ag 12   dx2-y2 \
	OrthoOrbital Ag 13   s \
	OrthoOrbital Ag 13   p \
	OrthoOrbital Ag 13   px \
	OrthoOrbital Ag 13   py \
	OrthoOrbital Ag 13   pz \
	OrthoOrbital Ag 13   d \
	OrthoOrbital Ag 13   dxy \
	OrthoOrbital Ag 13   dyz \
	OrthoOrbital Ag 13   dz2 \
	OrthoOrbital Ag 13   dxz \
	OrthoOrbital Ag 13   dx2-y2 \
	OrthoOrbital Ag 14   s \
	OrthoOrbital Ag 14   p \
	OrthoOrbital Ag 14   px \
	OrthoOrbital Ag 14   py \
	OrthoOrbital Ag 14   pz \
	OrthoOrbital Ag 14   d \
	OrthoOrbital Ag 14   dxy \
	OrthoOrbital Ag 14   dyz \
	OrthoOrbital Ag 14   dz2 \
	OrthoOrbital Ag 14   dxz \
	OrthoOrbital Ag 14   dx2-y2 \
	OrthoOrbital Ag 15   s \
	OrthoOrbital Ag 15   p \
	OrthoOrbital Ag 15   px \
	OrthoOrbital Ag 15   py \
	OrthoOrbital Ag 15   pz \
	OrthoOrbital Ag 15   d \
	OrthoOrbital Ag 15   dxy \
	OrthoOrbital Ag 15   dyz \
	OrthoOrbital Ag 15   dz2 \
	OrthoOrbital Ag 15   dxz \
	OrthoOrbital Ag 15   dx2-y2 \
	OrthoOrbital Ag 16   s \
	OrthoOrbital Ag 16   p \
	OrthoOrbital Ag 16   px \
	OrthoOrbital Ag 16   py \
	OrthoOrbital Ag 16   pz \
	OrthoOrbital Ag 16   d \
	OrthoOrbital Ag 16   dxy \
	OrthoOrbital Ag 16   dyz \
	OrthoOrbital Ag 16   dz2 \
	OrthoOrbital Ag 16   dxz \
	OrthoOrbital Ag 16   dx2-y2 \
	OrthoOrbital Ag 17   s \
	OrthoOrbital Ag 17   p \
	OrthoOrbital Ag 17   px \
	OrthoOrbital Ag 17   py \
	OrthoOrbital Ag 17   pz \
	OrthoOrbital Ag 17   d \
	OrthoOrbital Ag 17   dxy \
	OrthoOrbital Ag 17   dyz \
	OrthoOrbital Ag 17   dz2 \
	OrthoOrbital Ag 17   dxz \
	OrthoOrbital Ag 17   dx2-y2 \
	OrthoOrbital Ag 18   s \
	OrthoOrbital Ag 18   p \
	OrthoOrbital Ag 18   px \
	OrthoOrbital Ag 18   py \
	OrthoOrbital Ag 18   pz \
	OrthoOrbital Ag 18   d \
	OrthoOrbital Ag 18   dxy \
	OrthoOrbital Ag 18   dyz \
	OrthoOrbital Ag 18   dz2 \
	OrthoOrbital Ag 18   dxz \
	OrthoOrbital Ag 18   dx2-y2 \
	OrthoOrbital Ag 19   s \
	OrthoOrbital Ag 19   p \
	OrthoOrbital Ag 19   px \
	OrthoOrbital Ag 19   py \
	OrthoOrbital Ag 19   pz \
	OrthoOrbital Ag 19   d \
	OrthoOrbital Ag 19   dxy \
	OrthoOrbital Ag 19   dyz \
	OrthoOrbital Ag 19   dz2 \
	OrthoOrbital Ag 19   dxz \
	OrthoOrbital Ag 19   dx2-y2 \
	OrthoOrbital Ag 20   s \
	OrthoOrbital Ag 20   p \
	OrthoOrbital Ag 20   px \
	OrthoOrbital Ag 20   py \
	OrthoOrbital Ag 20   pz \
	OrthoOrbital Ag 20   d \
	OrthoOrbital Ag 20   dxy \
	OrthoOrbital Ag 20   dyz \
	OrthoOrbital Ag 20   dz2 \
	OrthoOrbital Ag 20   dxz \
	OrthoOrbital Ag 20   dx2-y2 \
	OrthoOrbital Ag 21   s \
	OrthoOrbital Ag 21   p \
	OrthoOrbital Ag 21   px \
	OrthoOrbital Ag 21   py \
	OrthoOrbital Ag 21   pz \
	OrthoOrbital Ag 21   d \
	OrthoOrbital Ag 21   dxy \
	OrthoOrbital Ag 21   dyz \
	OrthoOrbital Ag 21   dz2 \
	OrthoOrbital Ag 21   dxz \
	OrthoOrbital Ag 21   dx2-y2 \
	OrthoOrbital Ag 22   s \
	OrthoOrbital Ag 22   p \
	OrthoOrbital Ag 22   px \
	OrthoOrbital Ag 22   py \
	OrthoOrbital Ag 22   pz \
	OrthoOrbital Ag 22   d \
	OrthoOrbital Ag 22   dxy \
	OrthoOrbital Ag 22   dyz \
	OrthoOrbital Ag 22   dz2 \
	OrthoOrbital Ag 22   dxz \
	OrthoOrbital Ag 22   dx2-y2 \
	OrthoOrbital Ag 23   s \
	OrthoOrbital Ag 23   p \
	OrthoOrbital Ag 23   px \
	OrthoOrbital Ag 23   py \
	OrthoOrbital Ag 23   pz \
	OrthoOrbital Ag 23   d \
	OrthoOrbital Ag 23   dxy \
	OrthoOrbital Ag 23   dyz \
	OrthoOrbital Ag 23   dz2 \
	OrthoOrbital Ag 23   dxz \
	OrthoOrbital Ag 23   dx2-y2 \
	OrthoOrbital Ag 24   s \
	OrthoOrbital Ag 24   p \
	OrthoOrbital Ag 24   px \
	OrthoOrbital Ag 24   py \
	OrthoOrbital Ag 24   pz \
	OrthoOrbital Ag 24   d \
	OrthoOrbital Ag 24   dxy \
	OrthoOrbital Ag 24   dyz \
	OrthoOrbital Ag 24   dz2 \
	OrthoOrbital Ag 24   dxz \
	OrthoOrbital Ag 24   dx2-y2 \
	OrthoOrbital Ag 25   s \
	OrthoOrbital Ag 25   p \
	OrthoOrbital Ag 25   px \
	OrthoOrbital Ag 25   py \
	OrthoOrbital Ag 25   pz \
	OrthoOrbital Ag 25   d \
	OrthoOrbital Ag 25   dxy \
	OrthoOrbital Ag 25   dyz \
	OrthoOrbital Ag 25   dz2 \
	OrthoOrbital Ag 25   dxz \
	OrthoOrbital Ag 25   dx2-y2 \
	OrthoOrbital Ag 26   s \
	OrthoOrbital Ag 26   p \
	OrthoOrbital Ag 26   px \
	OrthoOrbital Ag 26   py \
	OrthoOrbital Ag 26   pz \
	OrthoOrbital Ag 26   d \
	OrthoOrbital Ag 26   dxy \
	OrthoOrbital Ag 26   dyz \
	OrthoOrbital Ag 26   dz2 \
	OrthoOrbital Ag 26   dxz \
	OrthoOrbital Ag 26   dx2-y2 \
	OrthoOrbital Ag 27   s \
	OrthoOrbital Ag 27   p \
	OrthoOrbital Ag 27   px \
	OrthoOrbital Ag 27   py \
	OrthoOrbital Ag 27   pz \
	OrthoOrbital Ag 27   d \
	OrthoOrbital Ag 27   dxy \
	OrthoOrbital Ag 27   dyz \
	OrthoOrbital Ag 27   dz2 \
	OrthoOrbital Ag 27   dxz \
	OrthoOrbital Ag 27   dx2-y2 \
	OrthoOrbital Ag 28   s \
	OrthoOrbital Ag 28   p \
	OrthoOrbital Ag 28   px \
	OrthoOrbital Ag 28   py \
	OrthoOrbital Ag 28   pz \
	OrthoOrbital Ag 28   d \
	OrthoOrbital Ag 28   dxy \
	OrthoOrbital Ag 28   dyz \
	OrthoOrbital Ag 28   dz2 \
	OrthoOrbital Ag 28   dxz \
	OrthoOrbital Ag 28   dx2-y2
dump End ElecDensity KEdensity BandEigs EigStats RhoAtom DOS Kpoints
dump Ionic State IonicPositions Lattice EigStats Ecomponents
dump 
dump 
dump 
dump 
dump 
dump 
dump 
dump 
dump-name jdft.$VAR
elec-cutoff 20
elec-eigen-algo Davidson
elec-ex-corr gga-PBE
elec-initial-magnetization 0.000000 no
elec-n-bands 320
elec-smearing Fermi 0.001
electronic-minimize  \
	dirUpdateScheme      FletcherReeves \
	linminMethod         DirUpdateRecommended \
	nIterations          100 \
	history              15 \
	knormThreshold       0 \
	energyDiffThreshold  1e-07 \
	nEnergyDiff          2 \
	alphaTstart          1 \
	alphaTmin            1e-10 \
	updateTestStepSize   yes \
	alphaTreduceFactor   0.1 \
	alphaTincreaseFactor 3 \
	nAlphaAdjustMax      3 \
	wolfeEnergy          0.0001 \
	wolfeGradient        0.9 \
	fdTest               no
exchange-regularization WignerSeitzTruncated
fluid None
fluid-ex-corr lda-TF lda-PZ
fluid-gummel-loop 10 1.000000e-05
fluid-minimize  \
	dirUpdateScheme      PolakRibiere \
	linminMethod         DirUpdateRecommended \
	nIterations          100 \
	history              15 \
	knormThreshold       0 \
	energyDiffThreshold  0 \
	nEnergyDiff          2 \
	alphaTstart          1 \
	alphaTmin            1e-10 \
	updateTestStepSize   yes \
	alphaTreduceFactor   0.1 \
	alphaTincreaseFactor 3 \
	nAlphaAdjustMax      3 \
	wolfeEnergy          0.0001 \
	wolfeGradient        0.9 \
	fdTest               no
fluid-solvent H2O 55.338 ScalarEOS \
	epsBulk 78.4 \
	pMol 0.92466 \
	epsInf 1.77 \
	Pvap 1.06736e-10 \
	sigmaBulk 4.62e-05 \
	Rvdw 2.61727 \
	Res 1.42 \
	tauNuc 343133 \
	poleEl 15 7 1
forces-output-coords Positions
ion Ag   9.388487999999999   0.000000000000000  28.170096000000001 1
ion Ag   6.258991999999999   6.691149000000000   1.536568000000000 1
ion Ag   6.258994999999999   1.672784000000000   3.585288000000000 1
ion Ag   3.129499000000000   8.363934000000000   5.634008000000000 1
ion Ag   3.129493000000000   3.345569000000000   7.682785000000000 1
ion Ag  -0.000003000000000  10.036718000000002   9.731503999999999 1
ion Ag   0.000000000000000   5.018353000000001  11.780224000000000 1
ion Ag   6.258991999999999   6.691149000000000  15.877720999999999 1
ion Ag   0.000000000000000   0.000000000000000  13.828944000000000 1
ion Ag   6.258994999999999   1.672784000000000  17.926439999999999 1
ion Ag   3.129499000000000   8.363934000000000  19.975159999999995 1
ion Ag   3.129493000000000   3.345569000000000  22.023937000000000 1
ion Ag  -0.000003000000000  10.036718000000002  24.072657000000000 1
ion Ag   0.000000000000000   5.018353000000001  26.121376000000001 1
ion Ag   1.564745000000000   4.181967000000000   2.560928000000000 1
ion Ag  -1.564748000000000  10.873105000000002   4.609648000000000 1
ion Ag   7.823739999999999   5.854751000000001   6.658368000000000 1
ion Ag   7.823739999999999   0.836398000000000   8.707145000000001 1
ion Ag   4.694246999999999   7.527536000000000  10.755864000000001 1
ion Ag   4.694246999999999   2.509183000000000  12.804584000000000 1
ion Ag   1.564744999999999   9.200320000000001  14.853361000000000 1
ion Ag  -1.564748000000000  10.873105000000002  18.950800000000001 1
ion Ag   1.564745000000000   4.181967000000000  16.902080999999999 1
ion Ag   7.823739999999999   5.854751000000001  20.999520000000000 1
ion Ag   7.823739999999999   0.836398000000000  23.048297000000002 1
ion Ag   4.694246999999999   7.527536000000000  25.097016999999997 1
ion Ag   4.694246999999999   2.509183000000000  27.145735999999999 1
ion Ag   1.564744999999999   9.200320000000001   0.512209000000000 1
ion-species /projects/musgravc/apps/jdftx-1.6.0/build/pseudopotentials/GBRV_v1.5/$ID_pbe_v1.uspp
ion-species /projects/musgravc/apps/jdftx-1.6.0/build/pseudopotentials/GBRV_v1.5/$ID_pbe_v1.2.uspp
ion-species /projects/musgravc/apps/jdftx-1.6.0/build/pseudopotentials/GBRV_v1.5/$ID_pbe_v1.4.uspp
ion-species /projects/musgravc/apps/jdftx-1.6.0/build/pseudopotentials/GBRV_v1.5/$ID_pbe_v1.5.uspp
ion-width 0
ionic-minimize  \
	dirUpdateScheme      L-BFGS \
	linminMethod         DirUpdateRecommended \
	nIterations          100 \
	history              15 \
	knormThreshold       0.0001 \
	energyDiffThreshold  1e-06 \
	nEnergyDiff          2 \
	alphaTstart          1 \
	alphaTmin            1e-10 \
	updateTestStepSize   yes \
	alphaTreduceFactor   0.1 \
	alphaTincreaseFactor 3 \
	nAlphaAdjustMax      3 \
	wolfeEnergy          0.0001 \
	wolfeGradient        0.9 \
	fdTest               no
kpoint   0.000000000000   0.000000000000   0.000000000000  1.00000000000000
kpoint-folding 6 5 1 
latt-move-scale 0 0 0
latt-scale 1 1 1 
lattice  \
	   9.388488000000001   -3.129496000000000    0.000000000000000  \
	   0.000000000000000   11.709503000000000    0.000000000000000  \
	   0.000000000000000    0.000000000000000   57.364609000000002 
lattice-minimize  \
	dirUpdateScheme      L-BFGS \
	linminMethod         DirUpdateRecommended \
	nIterations          0 \
	history              15 \
	knormThreshold       0 \
	energyDiffThreshold  1e-06 \
	nEnergyDiff          2 \
	alphaTstart          1 \
	alphaTmin            1e-10 \
	updateTestStepSize   yes \
	alphaTreduceFactor   0.1 \
	alphaTincreaseFactor 3 \
	nAlphaAdjustMax      3 \
	wolfeEnergy          0.0001 \
	wolfeGradient        0.9 \
	fdTest               no
lcao-params 30 1e-06 0.001
pcm-variant GLSSA13
spintype z-spin
subspace-rotation-factor 1 yes
symmetries none
symmetry-threshold 0.0001
van-der-waals D3


Applied RMS atom displacement 0 bohrs to make symmetries exact.

---------- Initializing the Grid ----------
R = 
[      9.38849      -3.1295            0  ]
[            0      11.7095            0  ]
[            0            0      57.3646  ]
unit cell volume = 6306.35
G =
[   0.669244   0.178863         -0  ]
[          0   0.536589          0  ]
[          0         -0   0.109531  ]
Minimum fftbox size, Smin = [  40  52  232  ]
Chosen fftbox size, S = [  40  54  240  ]

---------- Exchange Correlation functional ----------
Initalized PBE GGA exchange.
Initalized PBE GGA correlation.

---------- Setting up pseudopotentials ----------
Width of ionic core gaussian charges (only for fluid interactions / plotting) set to 0

Reading pseudopotential file '/projects/musgravc/apps/jdftx-1.6.0/build/pseudopotentials/GBRV_v1.5/ag_pbe_v1.4.uspp':
  Title: Ag.  Created by USPP 7.3.6 on 1-4-15
  Reference state energy: -147.606242.  19 valence electrons in orbitals:
    |400>  occupation: 2  eigenvalue: -3.637437
    |410>  occupation: 6  eigenvalue: -2.297267
    |420>  occupation: 10  eigenvalue: -0.417763
    |500>  occupation: 0.5  eigenvalue: -0.283525
    |510>  occupation: 0  eigenvalue: -0.122889
  lMax: 2  lLocal: 0  QijEcut: 5.5
  6 projectors sampled on a log grid with 717 points:
    l: 0  eig: -0.283528  rCut: 1.5
    l: 0  eig: -3.637440  rCut: 1.5
    l: 1  eig: -0.122892  rCut: 1.5
    l: 1  eig: -2.297267  rCut: 1.5
    l: 2  eig: -0.417762  rCut: 1.7
    l: 2  eig: -1.000000  rCut: 1.7
  Partial core density with radius 1.2
  Transforming core density to a uniform radial grid of dG=0.02 with 1308 points.
  Transforming local potential to a uniform radial grid of dG=0.02 with 1308 points.
  Transforming nonlocal projectors to a uniform radial grid of dG=0.02 with 432 points.
  Transforming density augmentations to a uniform radial grid of dG=0.02 with 1308 points.
  Transforming atomic orbitals to a uniform radial grid of dG=0.02 with 432 points.
  Core radius for overlap checks: 1.70 bohrs.

Initialized 1 species with 28 total atoms.

Folded 1 k-points by 6x5x1 to 30 k-points.

---------- Setting up k-points, bands, fillings ----------
No reducable k-points. 
Computing the number of bands and number of electrons
Calculating initial fillings.
nElectrons: 532.000000   nBands: 320   nStates: 60

----- Setting up reduced wavefunction bases (one per k-point) -----
average nbasis = 26935.233 , ideal nbasis = 26941.213

----- Initializing Supercell corresponding to k-point mesh -----
Lattice vector linear combinations in supercell:
[   6   0   0  ]
[   0   5   0  ]
[   0   0   1  ]
Supercell lattice vectors:
[  56.3309  -15.6475  0  ]
[  0  58.5475  0  ]
[  0  0  57.3646  ]

Initializing DFT-D3 calculator:
	Parameters set for gga-PBE functional
	s6:  1.000  s_r6:  1.217
	s8:  0.722  s_r8:  1.000
	Per-atom parameters loaded for:
	Ag:  sqrtQ[a0]:  5.443  Rcov[a0]:  2.173  CN: [ 0.00 0.97 ]

---------- Setting up ewald sum ----------
Optimum gaussian width for ewald sums = 4.229702 bohr.
Real space sum over 715 unit cells with max indices [  6  5  2  ]
Reciprocal space sum over 6435 terms with max indices [  5  6  22  ]

Computing DFT-D3 correction:
# coordination-number Ag 4.611 6.116 7.649 9.176 9.204 9.210 9.211 9.211 9.212 9.211 9.207 9.199 8.421 6.891 6.891 8.421 9.199 9.207 9.211 9.211 9.212 9.210 9.211 9.204 9.176 7.649 6.116 4.611
# diagonal-C6 Ag 268.61 268.61 268.61 268.61 268.61 268.61 268.61 268.61 268.61 268.61 268.61 268.61 268.61 268.61 268.61 268.61 268.61 268.61 268.61 268.61 268.61 268.61 268.61 268.61 268.61 268.61 268.61 268.61
EvdW_6 =   -0.185551
EvdW_8 =   -0.247994

---------- Allocating electronic variables ----------
Initializing wave functions:  linear combination of atomic orbitals
Ag pseudo-atom occupations:   s ( 2 1 )  p ( 6 0 )  d ( 10 )
	FillingsUpdate:  mu: +0.138477882  nElectrons: 532.000000  magneticMoment: [ Abs: 0.00203  Tot: +0.00005 ]
LCAOMinimize: Iter:   0  F: -4132.5946115052602181  |grad|_K:  8.170e-04  alpha:  1.000e+00
	FillingsUpdate:  mu: +0.283132541  nElectrons: 532.000000  magneticMoment: [ Abs: 0.00185  Tot: -0.00000 ]
LCAOMinimize: Iter:   1  F: -4132.7167593838939865  |grad|_K:  6.320e-04  alpha:  7.290e-02  linmin:  5.377e-02  cgtest: -4.429e-01  t[s]:    182.65
	FillingsUpdate:  mu: +0.360807992  nElectrons: 532.000000  magneticMoment: [ Abs: 0.00145  Tot: +0.00002 ]
LCAOMinimize: Iter:   2  F: -4132.8392366646976370  |grad|_K:  7.246e-04  alpha:  1.451e-01  linmin: -6.086e-03  cgtest:  9.376e-01  t[s]:    253.50
	FillingsUpdate:  mu: +0.249804583  nElectrons: 532.000000  magneticMoment: [ Abs: 0.00144  Tot: +0.00005 ]
LCAOMinimize: Iter:   3  F: -4132.9501526816866317  |grad|_K:  1.696e-04  alpha:  5.340e-02  linmin:  1.564e-02  cgtest: -2.210e-01  t[s]:    324.48
LCAOMinimize: 	Predicted alpha/alphaT>3.000000, increasing alphaT to 1.602016e-01.
	FillingsUpdate:  mu: +0.232515056  nElectrons: 532.000000  magneticMoment: [ Abs: 0.00135  Tot: +0.00002 ]
LCAOMinimize: Iter:   4  F: -4132.9758486033115332  |grad|_K:  1.022e-04  alpha:  2.322e-01  linmin: -2.779e-03  cgtest:  2.411e-01  t[s]:    414.12
	FillingsUpdate:  mu: +0.254584144  nElectrons: 532.000000  magneticMoment: [ Abs: 0.00132  Tot: +0.00001 ]
LCAOMinimize: Iter:   5  F: -4132.9797995503731727  |grad|_K:  8.815e-05  alpha:  9.562e-02  linmin:  1.544e-03  cgtest: -2.173e-02  t[s]:    485.01
	FillingsUpdate:  mu: +0.252402160  nElectrons: 532.000000  magneticMoment: [ Abs: 0.00128  Tot: +0.00000 ]
LCAOMinimize: Iter:   6  F: -4132.9841697110232417  |grad|_K:  4.361e-05  alpha:  1.417e-01  linmin: -2.283e-03  cgtest:  5.179e-02  t[s]:    555.97
	FillingsUpdate:  mu: +0.251178032  nElectrons: 532.000000  magneticMoment: [ Abs: 0.00127  Tot: +0.00000 ]
LCAOMinimize: Iter:   7  F: -4132.9844233832282043  |grad|_K:  2.492e-05  alpha:  3.295e-02  linmin:  1.472e-04  cgtest: -2.989e-02  t[s]:    626.76
LCAOMinimize: 	Predicted alpha/alphaT>3.000000, increasing alphaT to 9.884836e-02.
	FillingsUpdate:  mu: +0.246688951  nElectrons: 532.000000  magneticMoment: [ Abs: 0.00127  Tot: +0.00000 ]
LCAOMinimize: Iter:   8  F: -4132.9848264856364040  |grad|_K:  1.881e-05  alpha:  1.626e-01  linmin:  2.414e-05  cgtest:  3.756e-02  t[s]:    716.34
	FillingsUpdate:  mu: +0.249209332  nElectrons: 532.000000  magneticMoment: [ Abs: 0.00127  Tot: -0.00000 ]
LCAOMinimize: Iter:   9  F: -4132.9849126354465625  |grad|_K:  5.760e-06  alpha:  6.081e-02  linmin: -5.096e-04  cgtest: -9.097e-04  t[s]:    788.09
LCAOMinimize: 	Predicted alpha/alphaT>3.000000, increasing alphaT to 1.824162e-01.
	FillingsUpdate:  mu: +0.249842259  nElectrons: 532.000000  magneticMoment: [ Abs: 0.00126  Tot: -0.00000 ]
LCAOMinimize: Iter:  10  F: -4132.9849404608448822  |grad|_K:  7.956e-06  alpha:  2.095e-01  linmin: -4.099e-05  cgtest: -1.655e-03  t[s]:    877.33
	FillingsUpdate:  mu: +0.249874601  nElectrons: 532.000000  magneticMoment: [ Abs: 0.00126  Tot: -0.00000 ]
LCAOMinimize: Iter:  11  F: -4132.9849484104588555  |grad|_K:  2.016e-06  alpha:  3.137e-02  linmin: -3.210e-04  cgtest: -1.501e-03  t[s]:    948.48
LCAOMinimize: 	Predicted alpha/alphaT>3.000000, increasing alphaT to 9.410458e-02.
	FillingsUpdate:  mu: +0.249352030  nElectrons: 532.000000  magneticMoment: [ Abs: 0.00126  Tot: -0.00000 ]
LCAOMinimize: Iter:  12  F: -4132.9849510169797213  |grad|_K:  2.185e-06  alpha:  1.604e-01  linmin:  9.443e-06  cgtest: -1.144e-03  t[s]:   1037.69
	FillingsUpdate:  mu: +0.249547146  nElectrons: 532.000000  magneticMoment: [ Abs: 0.00126  Tot: -0.00000 ]
LCAOMinimize: Iter:  13  F: -4132.9849527425003544  |grad|_K:  6.843e-07  alpha:  9.041e-02  linmin: -1.400e-05  cgtest:  1.717e-03  t[s]:   1109.66
	FillingsUpdate:  mu: +0.249589836  nElectrons: 532.000000  magneticMoment: [ Abs: 0.00126  Tot: -0.00000 ]
LCAOMinimize: Iter:  14  F: -4132.9849529065240858  |grad|_K:  9.911e-07  alpha:  8.761e-02  linmin:  1.812e-05  cgtest: -2.268e-04  t[s]:   1180.46
	FillingsUpdate:  mu: +0.249651717  nElectrons: 532.000000  magneticMoment: [ Abs: 0.00126  Tot: -0.00000 ]
LCAOMinimize: Iter:  15  F: -4132.9849532660737168  |grad|_K:  3.573e-07  alpha:  9.161e-02  linmin: -6.732e-05  cgtest:  3.226e-03  t[s]:   1251.39
LCAOMinimize: Converged (|Delta F|<1.000000e-06 for 2 iters).


---- Citations for features of the code used in this run ----

   Software package:
      R. Sundararaman, K. Letchworth-Weaver, K.A. Schwarz, D. Gunceler, Y. Ozhabes and T.A. Arias, 'JDFTx: software for joint density-functional theory', SoftwareX 6, 278 (2017)

   gga-PBE exchange-correlation functional:
      J.P. Perdew, K. Burke and M. Ernzerhof, Phys. Rev. Lett. 77, 3865 (1996)

   Pseudopotentials:
      KF Garrity, JW Bennett, KM Rabe and D Vanderbilt, Comput. Mater. Sci. 81, 446 (2014)

   DFT-D3 dispersion correction:
      S. Grimme, J. Antony, S. Ehrlich and H. Krieg, J. Chem. Phys. 132, 154104 (2010)

   Total energy minimization with Auxiliary Hamiltonian:
      C. Freysoldt, S. Boeck, and J. Neugebauer, Phys. Rev. B 79, 241103(R) (2009)

   Linear-tetrahedron sampling for density of states:
      G. Lehmann and M. Taut, Phys. status solidi (b) 54, 469 (1972)

This list may not be complete. Please suggest additional citations or
report any other bugs at https://github.com/shankar1729/jdftx/issues

Initialization completed successfully at t[s]:   1268.69


Computing DFT-D3 correction:
# coordination-number Ag 4.611 6.116 7.649 9.176 9.204 9.210 9.211 9.211 9.212 9.211 9.207 9.199 8.421 6.891 6.891 8.421 9.199 9.207 9.211 9.211 9.212 9.210 9.211 9.204 9.176 7.649 6.116 4.611
# diagonal-C6 Ag 268.61 268.61 268.61 268.61 268.61 268.61 268.61 268.61 268.61 268.61 268.61 268.61 268.61 268.61 268.61 268.61 268.61 268.61 268.61 268.61 268.61 268.61 268.61 268.61 268.61 268.61 268.61 268.61
EvdW_6 =   -0.185551
EvdW_8 =   -0.247994

-------- Electronic minimization -----------
	FillingsUpdate:  mu: +0.249651718  nElectrons: 532.000000  magneticMoment: [ Abs: 0.00126  Tot: -0.00000 ]
ElecMinimize: Iter:   0  F: -4132.984953266072807  |grad|_K:  2.295e-05  alpha:  1.000e+00
	FillingsUpdate:  mu: +0.256504051  nElectrons: 532.000000  magneticMoment: [ Abs: 0.00098  Tot: -0.00000 ]
	SubspaceRotationAdjust: set factor to 1
ElecMinimize: Iter:   1  F: -4133.102348108231126  |grad|_K:  1.569e-05  alpha:  4.299e-01  linmin:  2.356e-05  t[s]:   1455.68
	FillingsUpdate:  mu: +0.241979354  nElectrons: 532.000000  magneticMoment: [ Abs: 0.00076  Tot: +0.00000 ]
	SubspaceRotationAdjust: set factor to 0.908
ElecMinimize: Iter:   2  F: -4133.137519457616690  |grad|_K:  8.602e-06  alpha:  2.741e-01  linmin: -8.608e-06  t[s]:   1574.99
	FillingsUpdate:  mu: +0.261478676  nElectrons: 532.000000  magneticMoment: [ Abs: 0.00068  Tot: +0.00000 ]
	SubspaceRotationAdjust: set factor to 0.611
ElecMinimize: Iter:   3  F: -4133.141947426241131  |grad|_K:  8.782e-06  alpha:  1.142e-01  linmin: -2.448e-05  t[s]:   1694.27
	FillingsUpdate:  mu: +0.254215613  nElectrons: 532.000000  magneticMoment: [ Abs: 0.00051  Tot: -0.00000 ]
	SubspaceRotationAdjust: set factor to 0.392
ElecMinimize: Iter:   4  F: -4133.148841734263442  |grad|_K:  6.744e-06  alpha:  1.712e-01  linmin:  1.123e-05  t[s]:   1813.51
	FillingsUpdate:  mu: +0.251930094  nElectrons: 532.000000  magneticMoment: [ Abs: 0.00047  Tot: -0.00000 ]
	SubspaceRotationAdjust: set factor to 0.226
ElecMinimize: Iter:   5  F: -4133.150130237979283  |grad|_K:  3.410e-06  alpha:  5.456e-02  linmin:  4.064e-06  t[s]:   1933.04
ElecMinimize: 	Predicted alpha/alphaT>3.000000, increasing alphaT to 1.636899e-01.
	FillingsUpdate:  mu: +0.247439967  nElectrons: 532.000000  magneticMoment: [ Abs: 0.00035  Tot: -0.00000 ]
	SubspaceRotationAdjust: set factor to 0.165
ElecMinimize: Iter:   6  F: -4133.152104370758934  |grad|_K:  3.226e-06  alpha:  3.269e-01  linmin:  3.236e-05  t[s]:   2083.14
	FillingsUpdate:  mu: +0.250033051  nElectrons: 532.000000  magneticMoment: [ Abs: 0.00029  Tot: -0.00001 ]
	SubspaceRotationAdjust: set factor to 0.139
ElecMinimize: Iter:   7  F: -4133.152908642809052  |grad|_K:  2.019e-06  alpha:  1.489e-01  linmin: -3.981e-06  t[s]:   2202.49
	FillingsUpdate:  mu: +0.254380030  nElectrons: 532.000000  magneticMoment: [ Abs: 0.00023  Tot: -0.00001 ]
	SubspaceRotationAdjust: set factor to 0.143
ElecMinimize: Iter:   8  F: -4133.153505408183264  |grad|_K:  1.587e-06  alpha:  2.812e-01  linmin:  2.663e-06  t[s]:   2322.72
	FillingsUpdate:  mu: +0.254919311  nElectrons: 532.000000  magneticMoment: [ Abs: 0.00020  Tot: -0.00001 ]
	SubspaceRotationAdjust: set factor to 0.141
ElecMinimize: Iter:   9  F: -4133.153782154718101  |grad|_K:  1.090e-06  alpha:  2.112e-01  linmin:  3.729e-07  t[s]:   2442.33
	FillingsUpdate:  mu: +0.252608243  nElectrons: 532.000000  magneticMoment: [ Abs: 0.00018  Tot: -0.00001 ]
	SubspaceRotationAdjust: set factor to 0.164
ElecMinimize: Iter:  10  F: -4133.153953145651030  |grad|_K:  8.848e-07  alpha:  2.770e-01  linmin:  2.152e-05  t[s]:   2561.65
	FillingsUpdate:  mu: +0.252144759  nElectrons: 532.000000  magneticMoment: [ Abs: 0.00016  Tot: -0.00001 ]
	SubspaceRotationAdjust: set factor to 0.156
ElecMinimize: Iter:  11  F: -4133.154048503090962  |grad|_K:  7.021e-07  alpha:  2.344e-01  linmin:  4.245e-06  t[s]:   2681.06
	FillingsUpdate:  mu: +0.253545033  nElectrons: 532.000000  magneticMoment: [ Abs: 0.00015  Tot: -0.00001 ]
	SubspaceRotationAdjust: set factor to 0.206
ElecMinimize: Iter:  12  F: -4133.154119877370249  |grad|_K:  5.590e-07  alpha:  2.784e-01  linmin:  3.991e-06  t[s]:   2800.37
	FillingsUpdate:  mu: +0.254222486  nElectrons: 532.000000  magneticMoment: [ Abs: 0.00014  Tot: -0.00001 ]
	SubspaceRotationAdjust: set factor to 0.186
ElecMinimize: Iter:  13  F: -4133.154158014977838  |grad|_K:  4.968e-07  alpha:  2.347e-01  linmin:  2.139e-06  t[s]:   2919.62
	FillingsUpdate:  mu: +0.253739061  nElectrons: 532.000000  magneticMoment: [ Abs: 0.00013  Tot: -0.00000 ]
	SubspaceRotationAdjust: set factor to 0.267
ElecMinimize: Iter:  14  F: -4133.154195835751125  |grad|_K:  3.878e-07  alpha:  2.950e-01  linmin:  1.208e-05  t[s]:   3039.17
	FillingsUpdate:  mu: +0.253331479  nElectrons: 532.000000  magneticMoment: [ Abs: 0.00012  Tot: -0.00000 ]
	SubspaceRotationAdjust: set factor to 0.212
ElecMinimize: Iter:  15  F: -4133.154218480897725  |grad|_K:  4.442e-07  alpha:  2.905e-01  linmin:  5.513e-06  t[s]:   3159.07
	FillingsUpdate:  mu: +0.253575493  nElectrons: 532.000000  magneticMoment: [ Abs: 0.00011  Tot: -0.00000 ]
	SubspaceRotationAdjust: set factor to 0.226
ElecMinimize: Iter:  16  F: -4133.154240075581583  |grad|_K:  3.045e-07  alpha:  2.105e-01  linmin:  1.191e-06  t[s]:   3278.70
	FillingsUpdate:  mu: +0.254332411  nElectrons: 532.000000  magneticMoment: [ Abs: 0.00009  Tot: -0.00000 ]
	SubspaceRotationAdjust: set factor to 0.24
ElecMinimize: Iter:  17  F: -4133.154256831152452  |grad|_K:  2.770e-07  alpha:  3.480e-01  linmin:  3.643e-06  t[s]:   3398.54
	FillingsUpdate:  mu: +0.254191698  nElectrons: 532.000000  magneticMoment: [ Abs: 0.00008  Tot: -0.00000 ]
	SubspaceRotationAdjust: set factor to 0.212
ElecMinimize: Iter:  18  F: -4133.154266656832988  |grad|_K:  2.588e-07  alpha:  2.462e-01  linmin:  4.850e-07  t[s]:   3518.17
	FillingsUpdate:  mu: +0.253806549  nElectrons: 532.000000  magneticMoment: [ Abs: 0.00006  Tot: -0.00000 ]
	SubspaceRotationAdjust: set factor to 0.183
ElecMinimize: Iter:  19  F: -4133.154273996718985  |grad|_K:  1.628e-07  alpha:  2.106e-01  linmin:  2.175e-06  t[s]:   3637.78
	FillingsUpdate:  mu: +0.253931454  nElectrons: 532.000000  magneticMoment: [ Abs: 0.00005  Tot: -0.00000 ]
	SubspaceRotationAdjust: set factor to 0.208
ElecMinimize: Iter:  20  F: -4133.154278318828801  |grad|_K:  1.388e-07  alpha:  3.142e-01  linmin:  6.365e-07  t[s]:   3757.28
	FillingsUpdate:  mu: +0.254092594  nElectrons: 532.000000  magneticMoment: [ Abs: 0.00004  Tot: -0.00000 ]
	SubspaceRotationAdjust: set factor to 0.165
ElecMinimize: Iter:  21  F: -4133.154280653242495  |grad|_K:  1.043e-07  alpha:  2.331e-01  linmin: -1.687e-07  t[s]:   3877.05
	FillingsUpdate:  mu: +0.254089038  nElectrons: 532.000000  magneticMoment: [ Abs: 0.00003  Tot: -0.00000 ]
	SubspaceRotationAdjust: set factor to 0.187
ElecMinimize: Iter:  22  F: -4133.154282229234923  |grad|_K:  7.612e-08  alpha:  2.784e-01  linmin: -3.403e-07  t[s]:   3996.59
	FillingsUpdate:  mu: +0.254000572  nElectrons: 532.000000  magneticMoment: [ Abs: 0.00002  Tot: -0.00000 ]
	SubspaceRotationAdjust: set factor to 0.193
ElecMinimize: Iter:  23  F: -4133.154283218737874  |grad|_K:  6.166e-08  alpha:  3.282e-01  linmin:  9.743e-08  t[s]:   4116.15
	FillingsUpdate:  mu: +0.253992501  nElectrons: 532.000000  magneticMoment: [ Abs: 0.00002  Tot: -0.00000 ]
	SubspaceRotationAdjust: set factor to 0.177
ElecMinimize: Iter:  24  F: -4133.154283725977621  |grad|_K:  5.111e-08  alpha:  2.565e-01  linmin: -9.580e-08  t[s]:   4235.83
	FillingsUpdate:  mu: +0.254030011  nElectrons: 532.000000  magneticMoment: [ Abs: 0.00001  Tot: -0.00000 ]
	SubspaceRotationAdjust: set factor to 0.22
ElecMinimize: Iter:  25  F: -4133.154284148328770  |grad|_K:  3.751e-08  alpha:  3.111e-01  linmin:  5.932e-07  t[s]:   4355.62
	FillingsUpdate:  mu: +0.254021391  nElectrons: 532.000000  magneticMoment: [ Abs: 0.00001  Tot: -0.00000 ]
	SubspaceRotationAdjust: set factor to 0.254
ElecMinimize: Iter:  26  F: -4133.154284415019902  |grad|_K:  3.630e-08  alpha:  3.650e-01  linmin:  7.456e-07  t[s]:   4475.42
	FillingsUpdate:  mu: +0.253999164  nElectrons: 532.000000  magneticMoment: [ Abs: 0.00001  Tot: -0.00000 ]
	SubspaceRotationAdjust: set factor to 0.24
ElecMinimize: Iter:  27  F: -4133.154284585581991  |grad|_K:  3.324e-08  alpha:  2.492e-01  linmin:  2.547e-07  t[s]:   4595.17
	FillingsUpdate:  mu: +0.253986236  nElectrons: 532.000000  magneticMoment: [ Abs: 0.00001  Tot: -0.00000 ]
	SubspaceRotationAdjust: set factor to 0.262
ElecMinimize: Iter:  28  F: -4133.154284751616615  |grad|_K:  2.842e-08  alpha:  2.893e-01  linmin:  6.244e-07  t[s]:   4714.85
	FillingsUpdate:  mu: +0.253990783  nElectrons: 532.000000  magneticMoment: [ Abs: 0.00001  Tot: -0.00000 ]
	SubspaceRotationAdjust: set factor to 0.312
ElecMinimize: Iter:  29  F: -4133.154284901094798  |grad|_K:  2.302e-08  alpha:  3.569e-01  linmin:  4.004e-07  t[s]:   4834.62
	FillingsUpdate:  mu: +0.253980413  nElectrons: 532.000000  magneticMoment: [ Abs: 0.00001  Tot: -0.00000 ]
	SubspaceRotationAdjust: set factor to 0.329
ElecMinimize: Iter:  30  F: -4133.154284996301612  |grad|_K:  2.185e-08  alpha:  3.455e-01  linmin:  5.607e-08  t[s]:   4953.95
	FillingsUpdate:  mu: +0.253977126  nElectrons: 532.000000  magneticMoment: [ Abs: 0.00001  Tot: +0.00000 ]
	SubspaceRotationAdjust: set factor to 0.266
ElecMinimize: Iter:  31  F: -4133.154285047960002  |grad|_K:  2.131e-08  alpha:  2.083e-01  linmin: -3.314e-07  t[s]:   5073.76
ElecMinimize: Converged (|Delta F|<1.000000e-07 for 2 iters).
Setting wave functions to eigenvectors of Hamiltonian
Converging empty states (this may take a while): |deigs|: 7.078e-03

Computing DFT-D3 correction:
# coordination-number Ag 4.611 6.116 7.649 9.176 9.204 9.210 9.211 9.211 9.212 9.211 9.207 9.199 8.421 6.891 6.891 8.421 9.199 9.207 9.211 9.211 9.212 9.210 9.211 9.204 9.176 7.649 6.116 4.611
# diagonal-C6 Ag 268.61 268.61 268.61 268.61 268.61 268.61 268.61 268.61 268.61 268.61 268.61 268.61 268.61 268.61 268.61 268.61 268.61 268.61 268.61 268.61 268.61 268.61 268.61 268.61 268.61 268.61 268.61 268.61
EvdW_6 =   -0.185551
EvdW_8 =   -0.247994

# Ionic positions in cartesian coordinates:
ion Ag   9.388487999999999   0.000000000000000  28.170096000000001 1
ion Ag   6.258991999999999   6.691149000000000   1.536568000000000 1
ion Ag   6.258994999999999   1.672784000000000   3.585288000000000 1
ion Ag   3.129499000000000   8.363934000000000   5.634008000000000 1
ion Ag   3.129493000000000   3.345569000000000   7.682785000000000 1
ion Ag  -0.000003000000000  10.036718000000002   9.731503999999999 1
ion Ag   0.000000000000000   5.018353000000001  11.780224000000000 1
ion Ag   6.258991999999999   6.691149000000000  15.877720999999999 1
ion Ag   0.000000000000000   0.000000000000000  13.828944000000000 1
ion Ag   6.258994999999999   1.672784000000000  17.926439999999999 1
ion Ag   3.129499000000000   8.363934000000000  19.975159999999995 1
ion Ag   3.129493000000000   3.345569000000000  22.023937000000000 1
ion Ag  -0.000003000000000  10.036718000000002  24.072657000000000 1
ion Ag   0.000000000000000   5.018353000000001  26.121376000000001 1
ion Ag   1.564745000000000   4.181967000000000   2.560928000000000 1
ion Ag  -1.564748000000000  10.873105000000002   4.609648000000000 1
ion Ag   7.823739999999999   5.854751000000001   6.658368000000000 1
ion Ag   7.823739999999999   0.836398000000000   8.707145000000001 1
ion Ag   4.694246999999999   7.527536000000000  10.755864000000001 1
ion Ag   4.694246999999999   2.509183000000000  12.804584000000000 1
ion Ag   1.564744999999999   9.200320000000001  14.853361000000000 1
ion Ag  -1.564748000000000  10.873105000000002  18.950800000000001 1
ion Ag   1.564745000000000   4.181967000000000  16.902080999999999 1
ion Ag   7.823739999999999   5.854751000000001  20.999520000000000 1
ion Ag   7.823739999999999   0.836398000000000  23.048297000000002 1
ion Ag   4.694246999999999   7.527536000000000  25.097016999999997 1
ion Ag   4.694246999999999   2.509183000000000  27.145735999999999 1
ion Ag   1.564744999999999   9.200320000000001   0.512209000000000 1

# Forces in Cartesian coordinates:
force Ag  -0.000059816139916  -0.001086536002609  -0.004567884797451 1
force Ag  -0.000200633489428   0.000939958210371  -0.001370616611417 1
force Ag   0.001201106233526  -0.000801726687410  -0.005138010675469 1
force Ag   0.000396500954472   0.001275359780321  -0.000608156851554 1
force Ag  -0.000610421206506  -0.000294366527173   0.002068933133585 1
force Ag   0.000202808377670  -0.000753453560208   0.000717573013894 1
force Ag   0.000224530071192  -0.000119197062822   0.000237377427622 1
force Ag  -0.000173295930947   0.000464996915298  -0.000681506857569 1
force Ag   0.000346392895331  -0.000243843569202   0.000240364487220 1
force Ag   0.000042738863092   0.000221648456910   0.000281812808428 1
force Ag  -0.000378907282024   0.000764673513426  -0.001203902906309 1
force Ag   0.000433552647906   0.000141243145316  -0.001473294746207 1
force Ag   0.001249667021412  -0.002252650606737   0.005005854311058 1
force Ag  -0.000412645873936   0.002622778134483   0.003934313024913 1
force Ag   0.000428197758424  -0.002712579984314  -0.003958233501329 1
force Ag  -0.001233630451747   0.002221613328178  -0.005050681390181 1
force Ag  -0.000462520385851  -0.000179535593160   0.001387254525663 1
force Ag   0.000365644154827  -0.000712067158702   0.001059805381106 1
force Ag   0.000010193281588  -0.000150937740104  -0.000472224004729 1
force Ag   0.000159173686685  -0.000441684315185   0.000463528189657 1
force Ag  -0.000375797247837   0.000233385912325  -0.000446298046056 1
force Ag  -0.000184456076979   0.000712395808073  -0.000864802464762 1
force Ag  -0.000201755942454   0.000084599497291  -0.000475150540087 1
force Ag   0.000602816521782   0.000250742820632  -0.002173277539252 1
force Ag  -0.000416679077964  -0.001238795803556   0.000548184899741 1
force Ag  -0.001142515904341   0.000875305546911   0.005089404067934 1
force Ag   0.000187782382477  -0.000922226710713   0.001356869609060 1
force Ag   0.000029856986967   0.001078613149352   0.004619648822599 1

# Energy components:
   Eewald =    16392.5782773926512164
       EH =    20193.9515799868095201
     Eloc =   -41368.9352596211247146
      Enl =      110.4225626170842531
     EvdW =       -0.4335451827211857
      Exc =     -405.8247485890624375
 Exc_core =        5.8287727497397848
       KE =      939.2588669395519219
-------------------------------------
     Etot =    -4133.1534937070746309
       TS =        0.0007913408857106
-------------------------------------
        F =    -4133.1542850479600020


Dumping 'jdft.fillings' ... done
Dumping 'jdft.wfns' ... done
Dumping 'jdft.ionpos' ... done
Dumping 'jdft.lattice' ... done
Dumping 'jdft.eigenvals' ... done
Dumping 'jdft.eigStats' ... 
	eMin: -3.130732 at state 30 ( [ +0.000000 +0.000000 +0.000000 ] spin -1 )
	HOMO: +0.252725 at state 14 ( [ +0.333333 -0.200000 +0.000000 ] spin 1 )
	mu  : +0.253977
	LUMO: +0.254109 at state 19 ( [ +0.500000 -0.200000 +0.000000 ] spin 1 )
	eMax: +0.609142 at state 45 ( [ +0.500000 +0.000000 +0.000000 ] spin -1 )
	HOMO-LUMO gap: +0.001384
	Optical gap  : +0.002928 at state 56 ( [ -0.166667 +0.200000 +0.000000 ] spin -1 )
Dumping 'jdft.Ecomponents' ... done
IonicMinimize: Iter:   0  F: -4133.154285047960002  |grad|_K:  1.702e-03  t[s]:   5532.39

#--- Lowdin population analysis ---
# oxidation-state Ag +0.160 +0.026 -0.039 -0.041 +0.002 +0.003 +0.004 +0.000 -0.003 +0.002 +0.004 -0.006 -0.052 +0.009 +0.010 -0.051 -0.005 +0.005 +0.003 +0.001 -0.003 +0.002 +0.004 +0.001 -0.042 -0.040 +0.024 +0.161
# magnetic-moments Ag +0.000 +0.000 +0.000 +0.000 -0.000 -0.000 +0.000 +0.000 -0.000 -0.000 +0.000 +0.000 -0.000 -0.000 -0.000 +0.000 +0.000 -0.000 -0.000 -0.000 -0.000 -0.000 +0.000 +0.000 -0.000 -0.000 +0.000 -0.000


Computing DFT-D3 correction:
# coordination-number Ag 4.623 6.115 7.646 9.171 9.196 9.208 9.214 9.213 9.214 9.212 9.203 9.189 8.419 6.884 6.884 8.419 9.189 9.203 9.213 9.213 9.214 9.208 9.213 9.196 9.171 7.646 6.115 4.623
# diagonal-C6 Ag 268.61 268.61 268.61 268.61 268.61 268.61 268.61 268.61 268.61 268.61 268.61 268.61 268.61 268.61 268.61 268.61 268.61 268.61 268.61 268.61 268.61 268.61 268.61 268.61 268.61 268.61 268.61 268.61
EvdW_6 =   -0.185537
EvdW_8 =   -0.247972

-------- Electronic minimization -----------
	FillingsUpdate:  mu: +0.253995436  nElectrons: 532.000000  magneticMoment: [ Abs: 0.00000  Tot: +0.00000 ]
ElecMinimize: Iter:   0  F: -4133.154444871712258  |grad|_K:  5.865e-07  alpha:  1.000e+00
	FillingsUpdate:  mu: +0.253976986  nElectrons: 532.000000  magneticMoment: [ Abs: 0.00000  Tot: +0.00000 ]
	SubspaceRotationAdjust: set factor to 0.171
ElecMinimize: Iter:   1  F: -4133.154461330684171  |grad|_K:  2.119e-07  alpha:  9.197e-02  linmin:  4.602e-06  t[s]:   5753.39
ElecMinimize: 	Predicted alpha/alphaT>3.000000, increasing alphaT to 2.759013e-01.
ElecMinimize: 	Predicted alpha/alphaT>3.000000, increasing alphaT to 8.277040e-01.
	FillingsUpdate:  mu: +0.253614253  nElectrons: 532.000000  magneticMoment: [ Abs: 0.00000  Tot: +0.00000 ]
	SubspaceRotationAdjust: set factor to 0.217
ElecMinimize: Iter:   2  F: -4133.154487326964045  |grad|_K:  2.626e-07  alpha:  1.113e+00  linmin:  9.988e-07  t[s]:   5933.20
	FillingsUpdate:  mu: +0.254314947  nElectrons: 532.000000  magneticMoment: [ Abs: 0.00000  Tot: +0.00000 ]
	SubspaceRotationAdjust: set factor to 0.208
ElecMinimize: Iter:   3  F: -4133.154506908534131  |grad|_K:  2.265e-07  alpha:  5.459e-01  linmin:  5.499e-07  t[s]:   6053.00
	FillingsUpdate:  mu: +0.253885052  nElectrons: 532.000000  magneticMoment: [ Abs: 0.00000  Tot: +0.00000 ]
	SubspaceRotationAdjust: set factor to 0.194
ElecMinimize: Iter:   4  F: -4133.154517017312173  |grad|_K:  1.210e-07  alpha:  3.786e-01  linmin: -4.926e-08  t[s]:   6172.79
	FillingsUpdate:  mu: +0.253956356  nElectrons: 532.000000  magneticMoment: [ Abs: 0.00000  Tot: +0.00000 ]
	SubspaceRotationAdjust: set factor to 0.208
ElecMinimize: Iter:   5  F: -4133.154520181761654  |grad|_K:  6.945e-08  alpha:  4.155e-01  linmin: -3.060e-07  t[s]:   6292.40
	FillingsUpdate:  mu: +0.253980229  nElectrons: 532.000000  magneticMoment: [ Abs: 0.00000  Tot: +0.00000 ]
	SubspaceRotationAdjust: set factor to 0.181
ElecMinimize: Iter:   6  F: -4133.154521023741836  |grad|_K:  4.851e-08  alpha:  3.357e-01  linmin:  3.639e-06  t[s]:   6412.07
	FillingsUpdate:  mu: +0.253963719  nElectrons: 532.000000  magneticMoment: [ Abs: 0.00000  Tot: +0.00000 ]
	SubspaceRotationAdjust: set factor to 0.115
ElecMinimize: Iter:   7  F: -4133.154521318438128  |grad|_K:  3.577e-08  alpha:  2.407e-01  linmin:  1.564e-05  t[s]:   6532.11
	FillingsUpdate:  mu: +0.253947366  nElectrons: 532.000000  magneticMoment: [ Abs: 0.00000  Tot: +0.00000 ]
	SubspaceRotationAdjust: set factor to 0.119
ElecMinimize: Iter:   8  F: -4133.154521504179684  |grad|_K:  1.955e-08  alpha:  2.794e-01  linmin: -7.310e-06  t[s]:   6651.82
	FillingsUpdate:  mu: +0.253950885  nElectrons: 532.000000  magneticMoment: [ Abs: 0.00000  Tot: +0.00000 ]
	SubspaceRotationAdjust: set factor to 0.139
ElecMinimize: Iter:   9  F: -4133.154521587021009  |grad|_K:  1.403e-08  alpha:  4.148e-01  linmin: -1.023e-04  t[s]:   6771.69
	FillingsUpdate:  mu: +0.253955420  nElectrons: 532.000000  magneticMoment: [ Abs: 0.00000  Tot: +0.00000 ]
	SubspaceRotationAdjust: set factor to 0.115
ElecMinimize: Iter:  10  F: -4133.154521621958338  |grad|_K:  1.004e-08  alpha:  3.390e-01  linmin: -2.061e-05  t[s]:   6891.85
ElecMinimize: Converged (|Delta F|<1.000000e-07 for 2 iters).
Setting wave functions to eigenvectors of Hamiltonian
Converging empty states (this may take a while): |deigs|: 6.944e-09

Computing DFT-D3 correction:
# coordination-number Ag 4.623 6.115 7.646 9.171 9.196 9.208 9.214 9.213 9.214 9.212 9.203 9.189 8.419 6.884 6.884 8.419 9.189 9.203 9.213 9.213 9.214 9.208 9.213 9.196 9.171 7.646 6.115 4.623
# diagonal-C6 Ag 268.61 268.61 268.61 268.61 268.61 268.61 268.61 268.61 268.61 268.61 268.61 268.61 268.61 268.61 268.61 268.61 268.61 268.61 268.61 268.61 268.61 268.61 268.61 268.61 268.61 268.61 268.61 268.61
EvdW_6 =   -0.185537
EvdW_8 =   -0.247972
IonicMinimize: 	Wolfe criterion not satisfied: alpha: 1  (E-E0)/|gdotd0|: -0.972084  gdotd/gdotd0: 0.944001 (taking cubic step)

Computing DFT-D3 correction:
# coordination-number Ag 4.646 6.112 7.640 9.162 9.181 9.205 9.218 9.216 9.219 9.216 9.195 9.169 8.414 6.871 6.871 8.414 9.170 9.196 9.216 9.216 9.218 9.204 9.218 9.180 9.161 7.640 6.112 4.646
# diagonal-C6 Ag 268.61 268.61 268.61 268.61 268.61 268.61 268.61 268.61 268.61 268.61 268.61 268.61 268.61 268.61 268.61 268.61 268.61 268.61 268.61 268.61 268.61 268.61 268.61 268.61 268.61 268.61 268.61 268.61
EvdW_6 =   -0.185510
EvdW_8 =   -0.247931

-------- Electronic minimization -----------
	FillingsUpdate:  mu: +0.253877685  nElectrons: 532.000000  magneticMoment: [ Abs: 0.00000  Tot: +0.00000 ]
ElecMinimize: Iter:   0  F: -4133.154690811262299  |grad|_K:  4.036e-07  alpha:  1.000e+00
	FillingsUpdate:  mu: +0.253809626  nElectrons: 532.000000  magneticMoment: [ Abs: 0.00000  Tot: +0.00000 ]
	SubspaceRotationAdjust: set factor to 0.0743
ElecMinimize: Iter:   1  F: -4133.154721638436968  |grad|_K:  3.620e-07  alpha:  3.639e-01  linmin:  1.444e-06  t[s]:   7238.84
	FillingsUpdate:  mu: +0.253851616  nElectrons: 532.000000  magneticMoment: [ Abs: 0.00000  Tot: +0.00000 ]
	SubspaceRotationAdjust: set factor to 0.085
ElecMinimize: Iter:   2  F: -4133.154774122507661  |grad|_K:  3.881e-07  alpha:  7.700e-01  linmin:  2.723e-08  t[s]:   7358.37
	FillingsUpdate:  mu: +0.254078206  nElectrons: 532.000000  magneticMoment: [ Abs: 0.00000  Tot: +0.00000 ]
	SubspaceRotationAdjust: set factor to 0.0937
ElecMinimize: Iter:   3  F: -4133.154847512935703  |grad|_K:  4.485e-07  alpha:  9.367e-01  linmin: -4.738e-08  t[s]:   7477.83
	FillingsUpdate:  mu: +0.253984189  nElectrons: 532.000000  magneticMoment: [ Abs: 0.00000  Tot: +0.00000 ]
	SubspaceRotationAdjust: set factor to 0.0947
ElecMinimize: Iter:   4  F: -4133.154897633342443  |grad|_K:  3.700e-07  alpha:  4.790e-01  linmin:  4.266e-09  t[s]:   7597.51
	FillingsUpdate:  mu: +0.253908867  nElectrons: 532.000000  magneticMoment: [ Abs: 0.00000  Tot: +0.00000 ]
	SubspaceRotationAdjust: set factor to 0.101
ElecMinimize: Iter:   5  F: -4133.154929912205262  |grad|_K:  2.341e-07  alpha:  4.532e-01  linmin:  2.554e-07  t[s]:   7717.24
	FillingsUpdate:  mu: +0.254019535  nElectrons: 532.000000  magneticMoment: [ Abs: 0.00000  Tot: +0.00000 ]
	SubspaceRotationAdjust: set factor to 0.104
ElecMinimize: Iter:   6  F: -4133.154943524930786  |grad|_K:  1.544e-07  alpha:  4.775e-01  linmin:  4.424e-07  t[s]:   7837.13
	FillingsUpdate:  mu: +0.253972745  nElectrons: 532.000000  magneticMoment: [ Abs: 0.00000  Tot: +0.00000 ]
	SubspaceRotationAdjust: set factor to 0.0987
ElecMinimize: Iter:   7  F: -4133.154948564494589  |grad|_K:  9.635e-08  alpha:  4.061e-01  linmin: -1.223e-06  t[s]:   7956.65
	FillingsUpdate:  mu: +0.253914120  nElectrons: 532.000000  magneticMoment: [ Abs: 0.00000  Tot: +0.00000 ]
	SubspaceRotationAdjust: set factor to 0.0958
ElecMinimize: Iter:   8  F: -4133.154950752985314  |grad|_K:  5.810e-08  alpha:  4.531e-01  linmin: -6.206e-06  t[s]:   8076.42
	FillingsUpdate:  mu: +0.253928414  nElectrons: 532.000000  magneticMoment: [ Abs: 0.00000  Tot: +0.00000 ]
	SubspaceRotationAdjust: set factor to 0.104
ElecMinimize: Iter:   9  F: -4133.154951566010823  |grad|_K:  3.973e-08  alpha:  4.628e-01  linmin:  1.557e-05  t[s]:   8195.84
	FillingsUpdate:  mu: +0.253921362  nElectrons: 532.000000  magneticMoment: [ Abs: 0.00000  Tot: +0.00000 ]
	SubspaceRotationAdjust: set factor to 0.124
ElecMinimize: Iter:  10  F: -4133.154951943343804  |grad|_K:  2.846e-08  alpha:  4.602e-01  linmin: -5.813e-06  t[s]:   8315.39
	FillingsUpdate:  mu: +0.253900560  nElectrons: 532.000000  magneticMoment: [ Abs: 0.00000  Tot: +0.00000 ]
	SubspaceRotationAdjust: set factor to 0.15
ElecMinimize: Iter:  11  F: -4133.154952161174151  |grad|_K:  2.311e-08  alpha:  5.175e-01  linmin:  1.080e-05  t[s]:   8434.90
	FillingsUpdate:  mu: +0.253899532  nElectrons: 532.000000  magneticMoment: [ Abs: 0.00000  Tot: +0.00000 ]
	SubspaceRotationAdjust: set factor to 0.168
ElecMinimize: Iter:  12  F: -4133.154952315537230  |grad|_K:  2.125e-08  alpha:  5.553e-01  linmin:  3.429e-06  t[s]:   8554.36
	FillingsUpdate:  mu: +0.253895622  nElectrons: 532.000000  magneticMoment: [ Abs: 0.00000  Tot: +0.00000 ]
	SubspaceRotationAdjust: set factor to 0.161
ElecMinimize: Iter:  13  F: -4133.154952422423776  |grad|_K:  1.951e-08  alpha:  4.551e-01  linmin: -2.652e-05  t[s]:   8673.84
	FillingsUpdate:  mu: +0.253885892  nElectrons: 532.000000  magneticMoment: [ Abs: 0.00000  Tot: +0.00000 ]
	SubspaceRotationAdjust: set factor to 0.129
ElecMinimize: Iter:  14  F: -4133.154952497170598  |grad|_K:  1.646e-08  alpha:  3.756e-01  linmin:  1.436e-05  t[s]:   8793.83
	FillingsUpdate:  mu: +0.253884171  nElectrons: 532.000000  magneticMoment: [ Abs: 0.00000  Tot: +0.00000 ]
	SubspaceRotationAdjust: set factor to 0.116
ElecMinimize: Iter:  15  F: -4133.154952550185044  |grad|_K:  1.231e-08  alpha:  3.759e-01  linmin: -6.247e-05  t[s]:   8913.22
ElecMinimize: Converged (|Delta F|<1.000000e-07 for 2 iters).
Setting wave functions to eigenvectors of Hamiltonian
Converging empty states (this may take a while): |deigs|: 1.430e-08

Computing DFT-D3 correction:
# coordination-number Ag 4.646 6.112 7.640 9.162 9.181 9.205 9.218 9.216 9.219 9.216 9.195 9.169 8.414 6.871 6.871 8.414 9.170 9.196 9.216 9.216 9.218 9.204 9.218 9.180 9.161 7.640 6.112 4.646
# diagonal-C6 Ag 268.61 268.61 268.61 268.61 268.61 268.61 268.61 268.61 268.61 268.61 268.61 268.61 268.61 268.61 268.61 268.61 268.61 268.61 268.61 268.61 268.61 268.61 268.61 268.61 268.61 268.61 268.61 268.61
EvdW_6 =   -0.185510
EvdW_8 =   -0.247931

# Ionic positions in cartesian coordinates:
ion Ag   9.388305563705885  -0.003257220103933  28.156550179596564 1
ion Ag   6.258387111657350   6.693971262535007   1.532613984154665 1
ion Ag   6.262595330826212   1.670381207841665   3.570031801962509 1
ion Ag   3.130685514989048   8.367762467244859   5.632341363434255 1
ion Ag   3.127658748506114   3.344688288322373   7.689149633389672 1
ion Ag   0.000602437258645  10.034460027223272   9.733814553030598 1
ion Ag   0.000670602339210   5.017997796715427  11.781093966271785 1
ion Ag   6.258469124332791   6.692546378649790  15.875834313416210 1
ion Ag   0.001036190811625  -0.000729142803712  13.829822927450575 1
ion Ag   6.259120228714908   1.673451333274624  17.927443272414198 1
ion Ag   3.128359290279561   8.366230408444173  19.971706125269986 1
ion Ag   3.130790670069352   3.345995117339842  22.019674949750296 1
ion Ag   0.003743013189870  10.029962436083684  24.087832396922089 1
ion Ag  -0.001240925496174   5.026223722307344  26.133336773063654 1
ion Ag   1.566026605400906   4.173831647950951   2.549211133484930 1
ion Ag  -1.568451879229607  10.879772227888427   4.594653789818375 1
ion Ag   7.822349450968081   5.854214781124414   6.662687597565907 1
ion Ag   7.824833944590113   0.834264186427789   8.710482250132236 1
ion Ag   4.694274591970397   7.527085574683582  10.754605161974732 1
ion Ag   4.694721533185686   2.507860334958338  12.806132418557890 1
ion Ag   1.563614620382123   9.201022545640869  14.852179939850750 1
ion Ag  -1.565304356105303  10.875244575328114  18.948363426594632 1
ion Ag   1.564136744298272   4.182223186395767  16.900813382368653 1
ion Ag   7.825545461690978   5.855505616365791  20.993158001371164 1
ion Ag   7.822486974891739   0.832684000493226  23.050099388688142 1
ion Ag   4.690816464412610   7.530164304544628  25.112443046192716 1
ion Ag   4.694807359273065   2.506418707771755  27.149964442816092 1
ion Ag   1.564831583086532   9.203558227351950   0.526225780456715 1

# Forces in Cartesian coordinates:
force Ag  -0.000051371425323  -0.000855128199594  -0.003940629286485 1
force Ag  -0.000121346102527   0.000748905408631  -0.001174149350771 1
force Ag   0.001017485852474  -0.000282313548787  -0.004371413709571 1
force Ag   0.000213599018887   0.000902288806243  -0.000383740656050 1
force Ag  -0.000442041364150  -0.000369536274796   0.001427764077424 1
force Ag   0.000132816283766  -0.000629076162445   0.000406611285125 1
force Ag   0.000153067560531  -0.000161142809188   0.000477107661387 1
force Ag  -0.000216375686443   0.000394020761526  -0.000556793022640 1
force Ag   0.000229563308638  -0.000204622373278   0.000335374819298 1
force Ag   0.000053276930667   0.000216067925398   0.000281423256241 1
force Ag  -0.000298875108736   0.000657983140853  -0.000711073846299 1
force Ag   0.000294347275750   0.000170892362801  -0.000809790311515 1
force Ag   0.001106595942722  -0.001983489343740   0.004076884409966 1
force Ag  -0.000415139319288   0.002155141335217   0.003456841039956 1
force Ag   0.000441514900828  -0.002179374568081  -0.003460925726902 1
force Ag  -0.001083782827331   0.001937523079323  -0.004078596986548 1
force Ag  -0.000317522722798  -0.000193663409152   0.000840651759609 1
force Ag   0.000290388197999  -0.000636080102391   0.000750314939841 1
force Ag  -0.000010988440396  -0.000156914076920  -0.000216251553572 1
force Ag   0.000202018472663  -0.000364377594126   0.000638412164935 1
force Ag  -0.000253216585253   0.000179152289197  -0.000242492588659 1
force Ag  -0.000110130742998   0.000592924687849  -0.000368485208991 1
force Ag  -0.000134252088163   0.000123839020276  -0.000390378483913 1
force Ag   0.000409526627955   0.000347323645605  -0.001383845168520 1
force Ag  -0.000225023103918  -0.000872580583739   0.000392891545080 1
force Ag  -0.000972725584375   0.000336430470739   0.004378756053258 1
force Ag   0.000104820004963  -0.000705124439074   0.001174468595275 1
force Ag   0.000019818878966   0.000837556925886   0.003966930900261 1

# Energy components:
   Eewald =    16382.7777497935567226
       EH =    20184.1282509778175154
     Eloc =   -41349.3094766828071442
      Enl =      110.4235444453964874
     EvdW =       -0.4334408968243914
      Exc =     -405.8225670394615463
 Exc_core =        5.8287726447583292
       KE =      939.2530076302239195
-------------------------------------
     Etot =    -4133.1541591273444283
       TS =        0.0007934228409378
-------------------------------------
        F =    -4133.1549525501850439


Dumping 'jdft.fillings' ... done
Dumping 'jdft.wfns' ... done
Dumping 'jdft.ionpos' ... done
Dumping 'jdft.lattice' ... done
Dumping 'jdft.eigenvals' ... done
Dumping 'jdft.eigStats' ... 
	eMin: -3.130725 at state 30 ( [ +0.000000 +0.000000 +0.000000 ] spin -1 )
	HOMO: +0.252615 at state 43 ( [ +0.333333 -0.400000 +0.000000 ] spin -1 )
	mu  : +0.253884
	LUMO: +0.254101 at state 19 ( [ +0.500000 -0.200000 +0.000000 ] spin 1 )
	eMax: +0.609231 at state 15 ( [ +0.500000 +0.000000 +0.000000 ] spin 1 )
	HOMO-LUMO gap: +0.001486
	Optical gap  : +0.002947 at state 9 ( [ +0.166667 -0.200000 +0.000000 ] spin 1 )
Dumping 'jdft.Ecomponents' ... done
IonicMinimize: Iter:   1  F: -4133.154952550185044  |grad|_K:  1.412e-03  alpha:  3.000e+00  linmin: -9.952e-01  t[s]:   9040.96

#--- Lowdin population analysis ---
# oxidation-state Ag +0.159 +0.026 -0.040 -0.041 +0.002 +0.002 +0.004 +0.001 -0.003 +0.002 +0.005 -0.005 -0.052 +0.011 +0.010 -0.053 -0.005 +0.005 +0.002 +0.001 -0.003 +0.002 +0.004 +0.002 -0.041 -0.040 +0.026 +0.159
# magnetic-moments Ag -0.000 +0.000 -0.000 -0.000 -0.000 +0.000 -0.000 +0.000 +0.000 +0.000 -0.000 -0.000 +0.000 +0.000 -0.000 +0.000 +0.000 -0.000 +0.000 +0.000 -0.000 +0.000 -0.000 +0.000 -0.000 +0.000 +0.000 +0.000


Computing DFT-D3 correction:
# coordination-number Ag 4.831 6.112 7.584 9.066 9.034 9.141 9.216 9.233 9.237 9.223 9.127 9.025 8.371 6.793 6.784 8.359 9.005 9.105 9.207 9.221 9.240 9.161 9.230 9.059 9.080 7.598 6.115 4.830
# diagonal-C6 Ag 268.61 268.61 268.61 268.61 268.61 268.61 268.61 268.61 268.61 268.61 268.61 268.61 268.61 268.61 268.61 268.61 268.61 268.61 268.61 268.61 268.61 268.61 268.61 268.61 268.61 268.61 268.61 268.61
EvdW_6 =   -0.185160
EvdW_8 =   -0.247539

-------- Electronic minimization -----------
	FillingsUpdate:  mu: +0.348539486  nElectrons: 532.000000  magneticMoment: [ Abs: 0.00000  Tot: +0.00000 ]
ElecMinimize: Iter:   0  F: -4130.383848445185322  |grad|_K:  1.349e-04  alpha:  1.000e+00
	FillingsUpdate:  mu: +0.209813487  nElectrons: 532.000000  magneticMoment: [ Abs: 0.00000  Tot: -0.00000 ]
	SubspaceRotationAdjust: set factor to 0.108
ElecMinimize: Iter:   1  F: -4132.828511756908483  |grad|_K:  4.208e-05  alpha:  2.789e-01  linmin:  1.328e-02  t[s]:   9256.82
	FillingsUpdate:  mu: +0.231267910  nElectrons: 532.000000  magneticMoment: [ Abs: 0.00000  Tot: -0.00000 ]
	SubspaceRotationAdjust: set factor to 0.142
ElecMinimize: Iter:   2  F: -4133.048957074869577  |grad|_K:  1.282e-05  alpha:  2.565e-01  linmin: -1.089e-04  t[s]:   9376.64
	FillingsUpdate:  mu: +0.252249865  nElectrons: 532.000000  magneticMoment: [ Abs: 0.00000  Tot: -0.00000 ]
	SubspaceRotationAdjust: set factor to 0.182
ElecMinimize: Iter:   3  F: -4133.078056520927930  |grad|_K:  7.587e-06  alpha:  3.398e-01  linmin: -3.099e-05  t[s]:   9496.95
	FillingsUpdate:  mu: +0.253037842  nElectrons: 532.000000  magneticMoment: [ Abs: 0.00000  Tot: -0.00000 ]
	SubspaceRotationAdjust: set factor to 0.238
ElecMinimize: Iter:   4  F: -4133.094258962913045  |grad|_K:  7.932e-06  alpha:  5.405e-01  linmin:  5.489e-07  t[s]:   9616.96
	FillingsUpdate:  mu: +0.250848275  nElectrons: 532.000000  magneticMoment: [ Abs: 0.00000  Tot: -0.00000 ]
	SubspaceRotationAdjust: set factor to 0.295
ElecMinimize: Iter:   5  F: -4133.115643929556427  |grad|_K:  7.870e-06  alpha:  6.516e-01  linmin: -4.489e-05  t[s]:   9736.86
	FillingsUpdate:  mu: +0.263989480  nElectrons: 532.000000  magneticMoment: [ Abs: 0.00000  Tot: -0.00000 ]
	SubspaceRotationAdjust: set factor to 0.299
ElecMinimize: Iter:   6  F: -4133.132533361799688  |grad|_K:  8.779e-06  alpha:  5.170e-01  linmin:  7.691e-06  t[s]:   9857.17
	FillingsUpdate:  mu: +0.255213948  nElectrons: 532.000000  magneticMoment: [ Abs: 0.00000  Tot: -0.00000 ]
	SubspaceRotationAdjust: set factor to 0.238
ElecMinimize: Iter:   7  F: -4133.142496270050287  |grad|_K:  8.404e-06  alpha:  2.497e-01  linmin:  2.698e-09  t[s]:   9976.96
	FillingsUpdate:  mu: +0.247905795  nElectrons: 532.000000  magneticMoment: [ Abs: 0.00000  Tot: -0.00000 ]
	SubspaceRotationAdjust: set factor to 0.153
ElecMinimize: Iter:   8  F: -4133.148923842554723  |grad|_K:  5.252e-06  alpha:  1.751e-01  linmin: -1.090e-06  t[s]:  10096.90
	FillingsUpdate:  mu: +0.255013542  nElectrons: 532.000000  magneticMoment: [ Abs: 0.00000  Tot: -0.00000 ]
	SubspaceRotationAdjust: set factor to 0.157
ElecMinimize: Iter:   9  F: -4133.153453683838052  |grad|_K:  3.002e-06  alpha:  3.163e-01  linmin:  2.813e-05  t[s]:  10217.03
	FillingsUpdate:  mu: +0.255473133  nElectrons: 532.000000  magneticMoment: [ Abs: 0.00000  Tot: -0.00000 ]
	SubspaceRotationAdjust: set factor to 0.154
ElecMinimize: Iter:  10  F: -4133.155035651583603  |grad|_K:  2.161e-06  alpha:  3.393e-01  linmin:  2.559e-06  t[s]:  10337.05
	FillingsUpdate:  mu: +0.253333025  nElectrons: 532.000000  magneticMoment: [ Abs: 0.00000  Tot: -0.00000 ]
	SubspaceRotationAdjust: set factor to 0.129
ElecMinimize: Iter:  11  F: -4133.155765060623708  |grad|_K:  1.454e-06  alpha:  3.002e-01  linmin:  2.690e-07  t[s]:  10457.54
	FillingsUpdate:  mu: +0.252844009  nElectrons: 532.000000  magneticMoment: [ Abs: 0.00000  Tot: -0.00000 ]
	SubspaceRotationAdjust: set factor to 0.144
ElecMinimize: Iter:  12  F: -4133.156101023470910  |grad|_K:  9.446e-07  alpha:  3.054e-01  linmin: -2.517e-06  t[s]:  10577.81
	FillingsUpdate:  mu: +0.253591060  nElectrons: 532.000000  magneticMoment: [ Abs: 0.00000  Tot: -0.00000 ]
	SubspaceRotationAdjust: set factor to 0.188
ElecMinimize: Iter:  13  F: -4133.156281740500162  |grad|_K:  7.253e-07  alpha:  3.893e-01  linmin: -1.906e-06  t[s]:  10697.82
	FillingsUpdate:  mu: +0.253449203  nElectrons: 532.000000  magneticMoment: [ Abs: 0.00000  Tot: -0.00000 ]
	SubspaceRotationAdjust: set factor to 0.181
ElecMinimize: Iter:  14  F: -4133.156392255720675  |grad|_K:  7.337e-07  alpha:  4.038e-01  linmin: -2.515e-07  t[s]:  10817.80
	FillingsUpdate:  mu: +0.252954780  nElectrons: 532.000000  magneticMoment: [ Abs: 0.00000  Tot: -0.00000 ]
	SubspaceRotationAdjust: set factor to 0.194
ElecMinimize: Iter:  15  F: -4133.156486451509409  |grad|_K:  6.661e-07  alpha:  3.364e-01  linmin: -7.346e-07  t[s]:  10937.87
	FillingsUpdate:  mu: +0.253094020  nElectrons: 532.000000  magneticMoment: [ Abs: 0.00000  Tot: -0.00000 ]
	SubspaceRotationAdjust: set factor to 0.23
ElecMinimize: Iter:  16  F: -4133.156595978784026  |grad|_K:  6.383e-07  alpha:  4.743e-01  linmin: -2.953e-06  t[s]:  11057.75
	FillingsUpdate:  mu: +0.253765507  nElectrons: 532.000000  magneticMoment: [ Abs: 0.00000  Tot: -0.00000 ]
	SubspaceRotationAdjust: set factor to 0.25
ElecMinimize: Iter:  17  F: -4133.156690775545030  |grad|_K:  5.717e-07  alpha:  4.469e-01  linmin: -6.455e-07  t[s]:  11177.84
	FillingsUpdate:  mu: +0.253305821  nElectrons: 532.000000  magneticMoment: [ Abs: 0.00000  Tot: -0.00000 ]
	SubspaceRotationAdjust: set factor to 0.222
ElecMinimize: Iter:  18  F: -4133.156752987131767  |grad|_K:  5.698e-07  alpha:  3.659e-01  linmin: -1.090e-06  t[s]:  11297.96
	FillingsUpdate:  mu: +0.253148778  nElectrons: 532.000000  magneticMoment: [ Abs: 0.00000  Tot: -0.00000 ]
	SubspaceRotationAdjust: set factor to 0.153
ElecMinimize: Iter:  19  F: -4133.156786509520316  |grad|_K:  4.104e-07  alpha:  1.985e-01  linmin:  6.074e-07  t[s]:  11418.08
	FillingsUpdate:  mu: +0.253401520  nElectrons: 532.000000  magneticMoment: [ Abs: 0.00000  Tot: -0.00000 ]
	SubspaceRotationAdjust: set factor to 0.16
ElecMinimize: Iter:  20  F: -4133.156813620092180  |grad|_K:  2.777e-07  alpha:  3.094e-01  linmin:  5.114e-08  t[s]:  11538.31
	FillingsUpdate:  mu: +0.253407524  nElectrons: 532.000000  magneticMoment: [ Abs: 0.00000  Tot: +0.00000 ]
	SubspaceRotationAdjust: set factor to 0.167
ElecMinimize: Iter:  21  F: -4133.156827914083806  |grad|_K:  2.116e-07  alpha:  3.563e-01  linmin:  3.550e-08  t[s]:  11658.89
	FillingsUpdate:  mu: +0.253311770  nElectrons: 532.000000  magneticMoment: [ Abs: 0.00000  Tot: +0.00000 ]
	SubspaceRotationAdjust: set factor to 0.15
ElecMinimize: Iter:  22  F: -4133.156834448092923  |grad|_K:  1.576e-07  alpha:  2.806e-01  linmin: -9.511e-08  t[s]:  11779.12
	FillingsUpdate:  mu: +0.253306313  nElectrons: 532.000000  magneticMoment: [ Abs: 0.00000  Tot: +0.00000 ]
	SubspaceRotationAdjust: set factor to 0.191
ElecMinimize: Iter:  23  F: -4133.156838729157244  |grad|_K:  1.149e-07  alpha:  3.312e-01  linmin: -5.444e-07  t[s]:  11899.54
	FillingsUpdate:  mu: +0.253390855  nElectrons: 532.000000  magneticMoment: [ Abs: 0.00000  Tot: +0.00000 ]
	SubspaceRotationAdjust: set factor to 0.217
ElecMinimize: Iter:  24  F: -4133.156841520954913  |grad|_K:  1.036e-07  alpha:  4.066e-01  linmin:  4.981e-07  t[s]:  12019.40
	FillingsUpdate:  mu: +0.253374532  nElectrons: 532.000000  magneticMoment: [ Abs: 0.00000  Tot: +0.00000 ]
	SubspaceRotationAdjust: set factor to 0.2
ElecMinimize: Iter:  25  F: -4133.156843423801547  |grad|_K:  1.101e-07  alpha:  3.408e-01  linmin: -6.365e-07  t[s]:  12139.06
	FillingsUpdate:  mu: +0.253317975  nElectrons: 532.000000  magneticMoment: [ Abs: 0.00000  Tot: +0.00000 ]
	SubspaceRotationAdjust: set factor to 0.211
ElecMinimize: Iter:  26  F: -4133.156845279615482  |grad|_K:  9.248e-08  alpha:  2.945e-01  linmin: -8.861e-07  t[s]:  12258.93
	FillingsUpdate:  mu: +0.253347645  nElectrons: 532.000000  magneticMoment: [ Abs: 0.00000  Tot: +0.00000 ]
	SubspaceRotationAdjust: set factor to 0.253
ElecMinimize: Iter:  27  F: -4133.156847200378252  |grad|_K:  8.133e-08  alpha:  4.317e-01  linmin:  1.424e-06  t[s]:  12378.80
	FillingsUpdate:  mu: +0.253392178  nElectrons: 532.000000  magneticMoment: [ Abs: 0.00000  Tot: +0.00000 ]
	SubspaceRotationAdjust: set factor to 0.246
ElecMinimize: Iter:  28  F: -4133.156848509869633  |grad|_K:  8.260e-08  alpha:  3.806e-01  linmin: -3.803e-07  t[s]:  12498.87
	FillingsUpdate:  mu: +0.253374421  nElectrons: 532.000000  magneticMoment: [ Abs: 0.00000  Tot: +0.00000 ]
	SubspaceRotationAdjust: set factor to 0.186
ElecMinimize: Iter:  29  F: -4133.156849265717938  |grad|_K:  6.812e-08  alpha:  2.130e-01  linmin:  1.779e-07  t[s]:  12619.19
	FillingsUpdate:  mu: +0.253340651  nElectrons: 532.000000  magneticMoment: [ Abs: 0.00000  Tot: +0.00000 ]
	SubspaceRotationAdjust: set factor to 0.185
ElecMinimize: Iter:  30  F: -4133.156849935531682  |grad|_K:  4.697e-08  alpha:  2.775e-01  linmin: -8.667e-07  t[s]:  12739.53
	FillingsUpdate:  mu: +0.253375279  nElectrons: 532.000000  magneticMoment: [ Abs: 0.00000  Tot: +0.00000 ]
	SubspaceRotationAdjust: set factor to 0.211
ElecMinimize: Iter:  31  F: -4133.156850373150519  |grad|_K:  3.790e-08  alpha:  3.814e-01  linmin:  2.910e-06  t[s]:  12859.90
	FillingsUpdate:  mu: +0.253382612  nElectrons: 532.000000  magneticMoment: [ Abs: 0.00000  Tot: +0.00000 ]
	SubspaceRotationAdjust: set factor to 0.202
ElecMinimize: Iter:  32  F: -4133.156850591421971  |grad|_K:  3.308e-08  alpha:  2.922e-01  linmin: -6.038e-07  t[s]:  12979.66
	FillingsUpdate:  mu: +0.253367086  nElectrons: 532.000000  magneticMoment: [ Abs: 0.00000  Tot: +0.00000 ]
	SubspaceRotationAdjust: set factor to 0.214
ElecMinimize: Iter:  33  F: -4133.156850745539487  |grad|_K:  2.532e-08  alpha:  2.712e-01  linmin:  2.512e-05  t[s]:  13100.39
	FillingsUpdate:  mu: +0.253363016  nElectrons: 532.000000  magneticMoment: [ Abs: 0.00000  Tot: +0.00000 ]
	SubspaceRotationAdjust: set factor to 0.288
ElecMinimize: Iter:  34  F: -4133.156850875327109  |grad|_K:  2.138e-08  alpha:  3.917e-01  linmin:  1.067e-04  t[s]:  13220.55
	FillingsUpdate:  mu: +0.253383279  nElectrons: 532.000000  magneticMoment: [ Abs: 0.00000  Tot: +0.00000 ]
	SubspaceRotationAdjust: set factor to 0.331
ElecMinimize: Iter:  35  F: -4133.156850970576670  |grad|_K:  2.105e-08  alpha:  4.034e-01  linmin: -2.790e-05  t[s]:  13340.28
	FillingsUpdate:  mu: +0.253374936  nElectrons: 532.000000  magneticMoment: [ Abs: 0.00000  Tot: +0.00000 ]
	SubspaceRotationAdjust: set factor to 0.289
ElecMinimize: Iter:  36  F: -4133.156851026094955  |grad|_K:  2.253e-08  alpha:  2.405e-01  linmin: -2.441e-05  t[s]:  13460.45
ElecMinimize: Converged (|Delta F|<1.000000e-07 for 2 iters).
Setting wave functions to eigenvectors of Hamiltonian
Converging empty states (this may take a while): |deigs|: 5.245e-06

Computing DFT-D3 correction:
# coordination-number Ag 4.831 6.112 7.584 9.066 9.034 9.141 9.216 9.233 9.237 9.223 9.127 9.025 8.371 6.793 6.784 8.359 9.005 9.105 9.207 9.221 9.240 9.161 9.230 9.059 9.080 7.598 6.115 4.830
# diagonal-C6 Ag 268.61 268.61 268.61 268.61 268.61 268.61 268.61 268.61 268.61 268.61 268.61 268.61 268.61 268.61 268.61 268.61 268.61 268.61 268.61 268.61 268.61 268.61 268.61 268.61 268.61 268.61 268.61 268.61
EvdW_6 =   -0.185160
EvdW_8 =   -0.247539

# Ionic positions in cartesian coordinates:
ion Ag   9.387194101647092  -0.017649552862975  28.066292762283318 1
ion Ag   6.258508373875917   6.707011142596401   1.503473864119757 1
ion Ag   6.283909356809632   1.686127463997080   3.473606868913707 1
ion Ag   3.128471069691194   8.376861158230474   5.627663450987301 1
ion Ag   3.122510067750716   3.330318213629144   7.697445351321740 1
ion Ag   0.001253813350566  10.021732210175047   9.727486101498640 1
ion Ag   0.001847383433429   5.011275679977880  11.802357186277176 1
ion Ag   6.250133178339738   6.700750397166833  15.861462907804142 1
ion Ag   0.002352212827826  -0.004963422364150  13.840223990061649 1
ion Ag   6.261173020540689   1.679470777167202  17.931841090602493 1
ion Ag   3.123311732631602   8.380515704760992  19.969875495545971 1
ion Ag   3.132968345271719   3.352323428071143  22.022862030182733 1
ion Ag   0.029548362956678   9.984247981838179  24.160433314618771 1
ion Ag  -0.013521357181686   5.067660011714210  26.208691972227520 1
ion Ag   1.579587393809441   4.134614695043627   2.466990456202452 1
ion Ag  -1.593268879298267  10.923337837439798   4.516335924965731 1
ion Ag   7.819766587567357   5.847828896392198   6.658158459382292 1
ion Ag   7.829859735641351   0.819088117009006   8.714295884754781 1
ion Ag   4.692973515836909   7.522154639829787  10.756299005646310 1
ion Ag   4.702631378772836   2.500708983640147  12.829117717553912 1
ion Ag   1.561877494692428   9.203704852072313  14.850686641743913 1
ion Ag  -1.565084372735459  10.887030612892255  18.956735688934309 1
ion Ag   1.563333549284392   4.187616898178453  16.889468191606849 1
ion Ag   7.828592119723247   5.870107479871541  20.985356598880994 1
ion Ag   7.824777943852250   0.824028676779024  23.050584287381472 1
ion Ag   4.670178906520190   7.514992513702130  25.204011326921982 1
ion Ag   4.694036976699664   2.495759873295446  27.172100735790650 1
ion Ag   1.564949987688533   9.216878729756834   0.608408693789433 1

# Forces in Cartesian coordinates:
force Ag  -0.000114213909750   0.000304579883456  -0.000080963405615 1
force Ag   0.000116545799993   0.000350871076540  -0.000421649777611 1
force Ag   0.000137849551469   0.000585781911637  -0.000920076962423 1
force Ag   0.000079074030411  -0.000019355621654   0.000260182461073 1
force Ag   0.000204058687745  -0.000143372402112  -0.000316866556740 1
force Ag  -0.000252463545347  -0.000192435773552  -0.000391259651322 1
force Ag   0.000092406293944  -0.000230019270083  -0.001221904299191 1
force Ag   0.000085759877983   0.000348443105647   0.000488062791333 1
force Ag   0.000360817647055  -0.000166152993814  -0.000368942658387 1
force Ag   0.000028282752098   0.000441655463363   0.000449967981455 1
force Ag   0.000148880986008  -0.000056541474856   0.000400559561748 1
force Ag  -0.000162722759412   0.000091658706481   0.000485021732361 1
force Ag   0.000634334852228  -0.000057926440407   0.000207541945986 1
force Ag  -0.000485077721194  -0.000372353101019   0.001769835735525 1
force Ag   0.000429235649519   0.000188877243443  -0.001619351567071 1
force Ag  -0.000637019868618   0.000276835732031  -0.000065920216753 1
force Ag   0.000114021051045  -0.000140752088234  -0.000435116103951 1
force Ag  -0.000165184316803   0.000173538231614  -0.000524658477188 1
force Ag  -0.000010660634789  -0.000492966980904  -0.000835649390731 1
force Ag  -0.000099906088144  -0.000462830751897  -0.000961472207270 1
force Ag  -0.000370963338987   0.000234830978038  -0.000163081511493 1
force Ag   0.000252186718862   0.000181157170152   0.000296369300393 1
force Ag  -0.000103121407154   0.000225263973429   0.000686447551536 1
force Ag  -0.000133120099453   0.000081470949776   0.000277966362210 1
force Ag  -0.000076799168191   0.000053724878913  -0.000143474651870 1
force Ag  -0.000113198223531  -0.000540324903720   0.000971797450478 1
force Ag  -0.000095974907261  -0.000457435785536   0.000490677332344 1
force Ag   0.000129125598104  -0.000165993536773   0.000178081439340 1

# Energy components:
   Eewald =    16306.8985483733340516
       EH =    20108.1057569921576942
     Eloc =   -41197.3937422537928796
      Enl =      110.4221764851282899
     EvdW =       -0.4326993205129455
      Exc =     -405.8106742558934457
 Exc_core =        5.8287713621497481
       KE =      939.2258200450123695
-------------------------------------
     Etot =    -4133.1560425724137531
       TS =        0.0008084536814425
-------------------------------------
        F =    -4133.1568510260949552


Dumping 'jdft.fillings' ... done
Dumping 'jdft.wfns' ... done
Dumping 'jdft.ionpos' ... done
Dumping 'jdft.lattice' ... done
Dumping 'jdft.eigenvals' ... done
Dumping 'jdft.eigStats' ... 
	eMin: -3.130990 at state 0 ( [ +0.000000 +0.000000 +0.000000 ] spin 1 )
	HOMO: +0.252183 at state 43 ( [ +0.333333 -0.400000 +0.000000 ] spin -1 )
	mu  : +0.253375
	LUMO: +0.253989 at state 16 ( [ +0.500000 +0.200000 +0.000000 ] spin 1 )
	eMax: +0.609803 at state 15 ( [ +0.500000 +0.000000 +0.000000 ] spin 1 )
	HOMO-LUMO gap: +0.001806
	Optical gap  : +0.002994 at state 39 ( [ +0.166667 -0.200000 +0.000000 ] spin -1 )
Dumping 'jdft.Ecomponents' ... done
IonicMinimize: Iter:   2  F: -4133.156851026094955  |grad|_K:  4.616e-04  alpha:  9.337e-01  linmin: -4.571e-01  t[s]:  13820.95

#--- Lowdin population analysis ---
# oxidation-state Ag +0.147 +0.030 -0.040 -0.038 +0.006 +0.003 +0.004 +0.000 -0.003 +0.000 +0.005 -0.001 -0.056 +0.014 +0.015 -0.055 -0.000 +0.006 +0.001 +0.001 -0.003 +0.002 +0.003 +0.005 -0.039 -0.041 +0.029 +0.148
# magnetic-moments Ag -0.000 +0.000 +0.000 +0.000 -0.000 +0.000 +0.000 -0.000 +0.000 +0.000 +0.000 -0.000 -0.000 -0.000 -0.000 -0.000 +0.000 +0.000 -0.000 -0.000 +0.000 +0.000 +0.000 +0.000 +0.000 +0.000 +0.000 -0.000


Computing DFT-D3 correction:
# coordination-number Ag 4.882 6.123 7.549 9.037 9.023 9.144 9.189 9.185 9.200 9.193 9.107 8.994 8.340 6.739 6.731 8.332 8.986 9.107 9.192 9.188 9.198 9.145 9.187 9.026 9.051 7.553 6.133 4.874
# diagonal-C6 Ag 268.61 268.61 268.61 268.61 268.61 268.61 268.61 268.61 268.61 268.61 268.61 268.61 268.61 268.61 268.61 268.61 268.61 268.61 268.61 268.61 268.61 268.61 268.61 268.61 268.61 268.61 268.61 268.61
EvdW_6 =   -0.184903
EvdW_8 =   -0.247237

-------- Electronic minimization -----------
	FillingsUpdate:  mu: +0.324330749  nElectrons: 532.000000  magneticMoment: [ Abs: 0.00000  Tot: +0.00000 ]
ElecMinimize: Iter:   0  F: -4132.550619012911739  |grad|_K:  6.680e-05  alpha:  1.000e+00
	FillingsUpdate:  mu: +0.212475093  nElectrons: 532.000000  magneticMoment: [ Abs: 0.00000  Tot: +0.00000 ]
	SubspaceRotationAdjust: set factor to 0.17
ElecMinimize: Iter:   1  F: -4133.036920297259712  |grad|_K:  2.865e-05  alpha:  2.120e-01  linmin:  9.355e-04  t[s]:  14036.54
	FillingsUpdate:  mu: +0.248887696  nElectrons: 532.000000  magneticMoment: [ Abs: 0.00000  Tot: +0.00000 ]
	SubspaceRotationAdjust: set factor to 0.119
ElecMinimize: Iter:   2  F: -4133.124571516103060  |grad|_K:  1.163e-05  alpha:  2.077e-01  linmin:  2.232e-04  t[s]:  14156.31
	FillingsUpdate:  mu: +0.255117816  nElectrons: 532.000000  magneticMoment: [ Abs: 0.00000  Tot: +0.00000 ]
	SubspaceRotationAdjust: set factor to 0.0765
ElecMinimize: Iter:   3  F: -4133.138653401698321  |grad|_K:  5.331e-06  alpha:  2.014e-01  linmin:  2.543e-05  t[s]:  14277.06
	FillingsUpdate:  mu: +0.248966591  nElectrons: 532.000000  magneticMoment: [ Abs: 0.00000  Tot: +0.00000 ]
	SubspaceRotationAdjust: set factor to 0.103
ElecMinimize: Iter:   4  F: -4133.143708510493525  |grad|_K:  3.227e-06  alpha:  3.421e-01  linmin: -9.760e-06  t[s]:  14396.85
	FillingsUpdate:  mu: +0.248517643  nElectrons: 532.000000  magneticMoment: [ Abs: 0.00000  Tot: +0.00000 ]
	SubspaceRotationAdjust: set factor to 0.125
ElecMinimize: Iter:   5  F: -4133.145868809129752  |grad|_K:  2.870e-06  alpha:  3.986e-01  linmin:  1.051e-06  t[s]:  14516.46
	FillingsUpdate:  mu: +0.254982572  nElectrons: 532.000000  magneticMoment: [ Abs: 0.00000  Tot: +0.00000 ]
	SubspaceRotationAdjust: set factor to 0.146
ElecMinimize: Iter:   6  F: -4133.148193910113150  |grad|_K:  2.795e-06  alpha:  5.425e-01  linmin: -1.163e-07  t[s]:  14636.37
	FillingsUpdate:  mu: +0.255472675  nElectrons: 532.000000  magneticMoment: [ Abs: 0.00000  Tot: +0.00000 ]
	SubspaceRotationAdjust: set factor to 0.172
ElecMinimize: Iter:   7  F: -4133.150423264114579  |grad|_K:  3.206e-06  alpha:  5.486e-01  linmin: -1.557e-06  t[s]:  14755.84
	FillingsUpdate:  mu: +0.252094901  nElectrons: 532.000000  magneticMoment: [ Abs: 0.00000  Tot: +0.00000 ]
	SubspaceRotationAdjust: set factor to 0.184
ElecMinimize: Iter:   8  F: -4133.153117985071731  |grad|_K:  3.045e-06  alpha:  5.038e-01  linmin: -2.375e-06  t[s]:  14876.67
	FillingsUpdate:  mu: +0.254756334  nElectrons: 532.000000  magneticMoment: [ Abs: 0.00000  Tot: +0.00000 ]
	SubspaceRotationAdjust: set factor to 0.166
ElecMinimize: Iter:   9  F: -4133.154932150708191  |grad|_K:  2.636e-06  alpha:  3.756e-01  linmin:  8.653e-07  t[s]:  14996.63
	FillingsUpdate:  mu: +0.256036064  nElectrons: 532.000000  magneticMoment: [ Abs: 0.00000  Tot: +0.00000 ]
	SubspaceRotationAdjust: set factor to 0.144
ElecMinimize: Iter:  10  F: -4133.155998803105831  |grad|_K:  1.868e-06  alpha:  2.952e-01  linmin:  2.933e-07  t[s]:  15116.40
	FillingsUpdate:  mu: +0.253671297  nElectrons: 532.000000  magneticMoment: [ Abs: 0.00000  Tot: +0.00000 ]
	SubspaceRotationAdjust: set factor to 0.143
ElecMinimize: Iter:  11  F: -4133.156608797963599  |grad|_K:  1.267e-06  alpha:  3.362e-01  linmin: -1.024e-06  t[s]:  15236.42
	FillingsUpdate:  mu: +0.252702538  nElectrons: 532.000000  magneticMoment: [ Abs: 0.00000  Tot: +0.00000 ]
	SubspaceRotationAdjust: set factor to 0.146
ElecMinimize: Iter:  12  F: -4133.156890596142148  |grad|_K:  7.868e-07  alpha:  3.373e-01  linmin:  1.252e-07  t[s]:  15356.21
	FillingsUpdate:  mu: +0.253531201  nElectrons: 532.000000  magneticMoment: [ Abs: 0.00000  Tot: +0.00000 ]
	SubspaceRotationAdjust: set factor to 0.131
ElecMinimize: Iter:  13  F: -4133.156991207201827  |grad|_K:  5.389e-07  alpha:  3.124e-01  linmin: -3.487e-08  t[s]:  15476.45
	FillingsUpdate:  mu: +0.253809707  nElectrons: 532.000000  magneticMoment: [ Abs: 0.00000  Tot: +0.00000 ]
	SubspaceRotationAdjust: set factor to 0.128
ElecMinimize: Iter:  14  F: -4133.157038818707406  |grad|_K:  3.492e-07  alpha:  3.152e-01  linmin: -7.428e-08  t[s]:  15596.17
	FillingsUpdate:  mu: +0.253289962  nElectrons: 532.000000  magneticMoment: [ Abs: 0.00000  Tot: -0.00000 ]
	SubspaceRotationAdjust: set factor to 0.15
ElecMinimize: Iter:  15  F: -4133.157061072294709  |grad|_K:  2.346e-07  alpha:  3.509e-01  linmin:  3.257e-07  t[s]:  15715.62
	FillingsUpdate:  mu: +0.253100411  nElectrons: 532.000000  magneticMoment: [ Abs: 0.00000  Tot: -0.00000 ]
	SubspaceRotationAdjust: set factor to 0.168
ElecMinimize: Iter:  16  F: -4133.157071116203952  |grad|_K:  1.854e-07  alpha:  3.507e-01  linmin: -8.120e-07  t[s]:  15835.07
	FillingsUpdate:  mu: +0.253280435  nElectrons: 532.000000  magneticMoment: [ Abs: 0.00000  Tot: -0.00000 ]
	SubspaceRotationAdjust: set factor to 0.183
ElecMinimize: Iter:  17  F: -4133.157077814490549  |grad|_K:  1.551e-07  alpha:  3.746e-01  linmin: -3.007e-07  t[s]:  15954.54
	FillingsUpdate:  mu: +0.253282651  nElectrons: 532.000000  magneticMoment: [ Abs: 0.00000  Tot: -0.00000 ]
	SubspaceRotationAdjust: set factor to 0.221
ElecMinimize: Iter:  18  F: -4133.157082498497402  |grad|_K:  1.362e-07  alpha:  3.742e-01  linmin:  5.347e-07  t[s]:  16074.64
	FillingsUpdate:  mu: +0.252998116  nElectrons: 532.000000  magneticMoment: [ Abs: 0.00000  Tot: -0.00000 ]
	SubspaceRotationAdjust: set factor to 0.253
ElecMinimize: Iter:  19  F: -4133.157087006942675  |grad|_K:  1.313e-07  alpha:  4.674e-01  linmin: -6.200e-07  t[s]:  16194.99
	FillingsUpdate:  mu: +0.253152987  nElectrons: 532.000000  magneticMoment: [ Abs: 0.00000  Tot: -0.00000 ]
	SubspaceRotationAdjust: set factor to 0.292
ElecMinimize: Iter:  20  F: -4133.157090797484670  |grad|_K:  1.164e-07  alpha:  4.225e-01  linmin: -4.108e-08  t[s]:  16314.64
	FillingsUpdate:  mu: +0.253234801  nElectrons: 532.000000  magneticMoment: [ Abs: 0.00000  Tot: -0.00000 ]
	SubspaceRotationAdjust: set factor to 0.275
ElecMinimize: Iter:  21  F: -4133.157093407249704  |grad|_K:  1.206e-07  alpha:  3.701e-01  linmin: -5.247e-08  t[s]:  16434.58
	FillingsUpdate:  mu: +0.253144054  nElectrons: 532.000000  magneticMoment: [ Abs: 0.00000  Tot: -0.00000 ]
	SubspaceRotationAdjust: set factor to 0.193
[...]
	SubspaceRotationAdjust: set factor to 0.185
ElecMinimize: Iter:  17  F: -4133.157422831482108  |grad|_K:  4.390e-08  alpha:  5.153e-01  linmin:  3.072e-06  t[s]:  30300.26
	FillingsUpdate:  mu: +0.253313792  nElectrons: 532.000000  magneticMoment: [ Abs: 0.00000  Tot: +0.00000 ]
	SubspaceRotationAdjust: set factor to 0.175
ElecMinimize: Iter:  18  F: -4133.157423227225991  |grad|_K:  4.292e-08  alpha:  3.947e-01  linmin:  3.771e-06  t[s]:  30420.59
	FillingsUpdate:  mu: +0.253296581  nElectrons: 532.000000  magneticMoment: [ Abs: 0.00000  Tot: +0.00000 ]
	SubspaceRotationAdjust: set factor to 0.158
ElecMinimize: Iter:  19  F: -4133.157423645508061  |grad|_K:  3.749e-08  alpha:  4.366e-01  linmin: -1.530e-06  t[s]:  30541.19
	FillingsUpdate:  mu: +0.253320651  nElectrons: 532.000000  magneticMoment: [ Abs: 0.00000  Tot: +0.00000 ]
	SubspaceRotationAdjust: set factor to 0.143
ElecMinimize: Iter:  20  F: -4133.157423941884190  |grad|_K:  2.948e-08  alpha:  4.050e-01  linmin: -7.232e-06  t[s]:  30661.08
	FillingsUpdate:  mu: +0.253327764  nElectrons: 532.000000  magneticMoment: [ Abs: 0.00000  Tot: +0.00000 ]
	SubspaceRotationAdjust: set factor to 0.134
ElecMinimize: Iter:  21  F: -4133.157424138325041  |grad|_K:  2.150e-08  alpha:  4.337e-01  linmin:  4.942e-06  t[s]:  30781.08
	FillingsUpdate:  mu: +0.253318033  nElectrons: 532.000000  magneticMoment: [ Abs: 0.00000  Tot: -0.00000 ]
	SubspaceRotationAdjust: set factor to 0.131
ElecMinimize: Iter:  22  F: -4133.157424239343527  |grad|_K:  1.537e-08  alpha:  4.216e-01  linmin: -3.286e-06  t[s]:  30901.34
	FillingsUpdate:  mu: +0.253323480  nElectrons: 532.000000  magneticMoment: [ Abs: 0.00000  Tot: -0.00000 ]
	SubspaceRotationAdjust: set factor to 0.138
ElecMinimize: Iter:  23  F: -4133.157424290493509  |grad|_K:  1.070e-08  alpha:  4.166e-01  linmin:  1.617e-05  t[s]:  31022.05
	FillingsUpdate:  mu: +0.253327563  nElectrons: 532.000000  magneticMoment: [ Abs: 0.00000  Tot: -0.00000 ]
	SubspaceRotationAdjust: set factor to 0.158
ElecMinimize: Iter:  24  F: -4133.157424315108074  |grad|_K:  7.808e-09  alpha:  4.149e-01  linmin:  7.413e-05  t[s]:  31142.19
ElecMinimize: Converged (|Delta F|<1.000000e-07 for 2 iters).
Setting wave functions to eigenvectors of Hamiltonian
Converging empty states (this may take a while): |deigs|: 1.058e-06

Computing DFT-D3 correction:
# coordination-number Ag 4.856 6.104 7.528 8.976 8.947 9.066 9.120 9.126 9.131 9.118 9.039 8.926 8.321 6.662 6.657 8.317 8.915 9.032 9.113 9.121 9.133 9.070 9.124 8.957 8.984 7.533 6.111 4.852
# diagonal-C6 Ag 268.61 268.61 268.61 268.61 268.61 268.61 268.61 268.61 268.61 268.61 268.61 268.61 268.61 268.61 268.61 268.61 268.61 268.61 268.61 268.61 268.61 268.61 268.61 268.61 268.61 268.61 268.61 268.61
EvdW_6 =   -0.184078
EvdW_8 =   -0.246083

# Ionic positions in cartesian coordinates:
ion Ag   9.376290653934532  -0.040674383946676  28.111804412761632 1
ion Ag   6.272308194138229   6.749069104236714   1.438069010697150 1
ion Ag   6.297774451628231   1.720335823828530   3.396117997431013 1
ion Ag   3.131414425719386   8.383964888059484   5.587130718456399 1
ion Ag   3.125481422288324   3.325918388132842   7.638901646339996 1
ion Ag  -0.012424475827614  10.013298977305100   9.698464672904295 1
ion Ag   0.001768958161979   5.001813012058392  11.768422611868020 1
ion Ag   6.257205888610253   6.705206949200988  15.872632722115760 1
ion Ag   0.001676573110076  -0.006264580957099  13.839356463665986 1
ion Ag   6.263453449984473   1.696776745349111  17.959683854899932 1
ion Ag   3.134669650680768   8.381756541184833  20.005446182102407 1
ion Ag   3.117610839604995   3.355948071832114  22.088541890201210 1
ion Ag   0.037624548648957   9.958395369446094  24.201337266456402 1
ion Ag  -0.037329806955785   5.056393465404736  26.350020265234260 1
ion Ag   1.604456224857789   4.145224626375295   2.330373758141907 1
ion Ag  -1.600324085336509  10.951525486623254   4.479514200601038 1
ion Ag   7.834623018060805   5.845280727655311   6.594748267758132 1
ion Ag   7.817361475302045   0.819064847515261   8.677920203025137 1
ion Ag   4.690630983146856   7.503876118859321  10.724772773937902 1
ion Ag   4.694813185709869   2.494821867238203  12.812194556774164 1
ion Ag   1.561849197368568   9.204916361714732  14.846158216917411 1
ion Ag  -1.552886328898905  10.895075472372026  18.984877920866239 1
ion Ag   1.563557979751176   4.198158822470843  16.917148874817229 1
ion Ag   7.827043962528421   5.872491779514843  21.044203608912259 1
ion Ag   7.821214735971930   0.818917546055550  23.093993926656974 1
ion Ag   4.656594921417151   7.479402636493939  25.283181653733799 1
ion Ag   4.681154063588596   2.449823068679929  27.240937608582868 1
ion Ag   1.576257892805392   9.243016267296351   0.566310714140458 1

# Forces in Cartesian coordinates:
force Ag   0.000118131935554  -0.000209800445243  -0.000143640474487 1
force Ag   0.000275006753636   0.000111173577673  -0.000046950872884 1
force Ag  -0.000037395822684   0.000116488210608  -0.000127598955875 1
force Ag  -0.000047024130672  -0.000080208994116  -0.000015217984765 1
force Ag   0.000109088368247   0.000226350274451  -0.000078124683359 1
force Ag   0.000025110804739   0.000035795795863  -0.000030757050148 1
force Ag  -0.000030807643838  -0.000120097990982  -0.000091149426436 1
force Ag  -0.000108368063207   0.000123126061710   0.000159642405448 1
force Ag  -0.000012796535215  -0.000008835058206  -0.000235221405131 1
force Ag  -0.000067432774352  -0.000147610093780   0.000116652467160 1
force Ag   0.000058941819135  -0.000039691016753  -0.000130548122365 1
force Ag   0.000005011841473  -0.000197347688171   0.000080560122184 1
force Ag  -0.000232654309504  -0.000021231202192   0.000433074969945 1
force Ag  -0.000035952681931  -0.000042330754960  -0.000024142030103 1
force Ag  -0.000022656486269   0.000020363049230   0.000129015166118 1
force Ag   0.000141839607876   0.000037910296767  -0.000413324982991 1
force Ag  -0.000018875514113   0.000110844413524  -0.000154357401634 1
force Ag  -0.000021491339348   0.000092761853970   0.000145954921931 1
force Ag   0.000026406772623   0.000143831345693  -0.000179052130755 1
force Ag   0.000132955461364  -0.000167134069941  -0.000170699838531 1
force Ag   0.000002495168060   0.000081916648343   0.000172041102460 1
force Ag   0.000001346791084  -0.000019849355895   0.000091641526093 1
force Ag   0.000018269288630   0.000030154994065   0.000040651767501 1
force Ag  -0.000146306985188  -0.000143463882705   0.000055903062650 1
force Ag   0.000097770561958  -0.000017246300836   0.000036524259245 1
force Ag   0.000128747950575  -0.000025200733096   0.000215811288744 1
force Ag  -0.000243837011308  -0.000108184312157   0.000140940826439 1
force Ag  -0.000111950219648   0.000190194413431   0.000202784860023 1

# Energy components:
   Eewald =    16065.1739354504552466
       EH =    19866.5406703365661087
     Eloc =   -40714.0768238823584397
      Enl =      110.4401231338380285
     EvdW =       -0.4301612739363231
      Exc =     -405.7742140525179479
 Exc_core =        5.8287729847044085
       KE =      939.1411033243047086
-------------------------------------
     Etot =    -4133.1565939789461481
       TS =        0.0008303361617959
-------------------------------------
        F =    -4133.1574243151080736


Dumping 'jdft.fillings' ... done
Dumping 'jdft.wfns' ... done
Dumping 'jdft.ionpos' ... done
Dumping 'jdft.lattice' ... done
Dumping 'jdft.eigenvals' ... done
Dumping 'jdft.eigStats' ... 
	eMin: -3.130618 at state 30 ( [ +0.000000 +0.000000 +0.000000 ] spin -1 )
	HOMO: +0.252467 at state 12 ( [ +0.333333 +0.400000 +0.000000 ] spin 1 )
	mu  : +0.253328
	LUMO: +0.253921 at state 10 ( [ +0.333333 +0.000000 +0.000000 ] spin 1 )
	eMax: +0.609624 at state 45 ( [ +0.500000 +0.000000 +0.000000 ] spin -1 )
	HOMO-LUMO gap: +0.001454
	Optical gap  : +0.002935 at state 56 ( [ -0.166667 +0.200000 +0.000000 ] spin -1 )
Dumping 'jdft.Ecomponents' ... done
IonicMinimize: Iter:   7  F: -4133.157424315108074  |grad|_K:  1.345e-04  alpha:  1.000e+00  linmin:  4.941e-03  t[s]:  31302.67

#--- Lowdin population analysis ---
# oxidation-state Ag +0.143 +0.028 -0.042 -0.037 +0.005 +0.002 +0.004 +0.001 -0.003 +0.001 +0.005 +0.000 -0.056 +0.019 +0.019 -0.056 +0.000 +0.005 +0.001 +0.001 -0.003 +0.002 +0.004 +0.005 -0.037 -0.042 +0.028 +0.143
# magnetic-moments Ag -0.000 -0.000 -0.000 -0.000 -0.000 -0.000 -0.000 -0.000 -0.000 -0.000 -0.000 -0.000 -0.000 -0.000 -0.000 -0.000 -0.000 -0.000 -0.000 -0.000 -0.000 -0.000 -0.000 -0.000 -0.000 -0.000 -0.000 -0.000


Computing DFT-D3 correction:
# coordination-number Ag 4.857 6.098 7.520 8.964 8.933 9.053 9.105 9.110 9.118 9.107 9.028 8.916 8.313 6.653 6.647 8.304 8.903 9.019 9.100 9.108 9.119 9.060 9.109 8.945 8.977 7.527 6.105 4.850
# diagonal-C6 Ag 268.61 268.61 268.61 268.61 268.61 268.61 268.61 268.61 268.61 268.61 268.61 268.61 268.61 268.61 268.61 268.61 268.61 268.61 268.61 268.61 268.61 268.61 268.61 268.61 268.61 268.61 268.61 268.61
EvdW_6 =   -0.183930
EvdW_8 =   -0.245874

-------- Electronic minimization -----------
	FillingsUpdate:  mu: +0.253354700  nElectrons: 532.000000  magneticMoment: [ Abs: 0.00000  Tot: +0.00000 ]
ElecMinimize: Iter:   0  F: -4133.157324780635463  |grad|_K:  3.493e-07  alpha:  1.000e+00
	FillingsUpdate:  mu: +0.253273490  nElectrons: 532.000000  magneticMoment: [ Abs: 0.00000  Tot: +0.00000 ]
	SubspaceRotationAdjust: set factor to 0.149
ElecMinimize: Iter:   1  F: -4133.157356778983740  |grad|_K:  2.608e-07  alpha:  5.043e-01  linmin: -1.081e-07  t[s]:  31524.34
	FillingsUpdate:  mu: +0.253368230  nElectrons: 532.000000  magneticMoment: [ Abs: 0.00000  Tot: +0.00000 ]
	SubspaceRotationAdjust: set factor to 0.12
ElecMinimize: Iter:   2  F: -4133.157372749657952  |grad|_K:  2.925e-07  alpha:  4.514e-01  linmin: -8.172e-07  t[s]:  31644.54
	FillingsUpdate:  mu: +0.253393001  nElectrons: 532.000000  magneticMoment: [ Abs: 0.00000  Tot: +0.00000 ]
	SubspaceRotationAdjust: set factor to 0.107
ElecMinimize: Iter:   3  F: -4133.157398179773736  |grad|_K:  2.982e-07  alpha:  5.713e-01  linmin: -9.913e-07  t[s]:  31765.49
	FillingsUpdate:  mu: +0.253143164  nElectrons: 532.000000  magneticMoment: [ Abs: 0.00000  Tot: +0.00000 ]
	SubspaceRotationAdjust: set factor to 0.116
ElecMinimize: Iter:   4  F: -4133.157421873927888  |grad|_K:  2.499e-07  alpha:  5.120e-01  linmin:  4.352e-07  t[s]:  31885.93
	FillingsUpdate:  mu: +0.253236256  nElectrons: 532.000000  magneticMoment: [ Abs: 0.00000  Tot: +0.00000 ]
	SubspaceRotationAdjust: set factor to 0.12
ElecMinimize: Iter:   5  F: -4133.157435551945127  |grad|_K:  1.698e-07  alpha:  4.210e-01  linmin: -1.983e-07  t[s]:  32006.46
	FillingsUpdate:  mu: +0.253432496  nElectrons: 532.000000  magneticMoment: [ Abs: 0.00000  Tot: +0.00000 ]
	SubspaceRotationAdjust: set factor to 0.093
ElecMinimize: Iter:   6  F: -4133.157441032063616  |grad|_K:  1.122e-07  alpha:  3.655e-01  linmin:  1.167e-06  t[s]:  32126.86
	FillingsUpdate:  mu: +0.253404438  nElectrons: 532.000000  magneticMoment: [ Abs: 0.00000  Tot: +0.00000 ]
	SubspaceRotationAdjust: set factor to 0.0859
ElecMinimize: Iter:   7  F: -4133.157443386604427  |grad|_K:  6.257e-08  alpha:  3.596e-01  linmin:  2.379e-06  t[s]:  32247.17
	FillingsUpdate:  mu: +0.253365514  nElectrons: 532.000000  magneticMoment: [ Abs: 0.00000  Tot: +0.00000 ]
	SubspaceRotationAdjust: set factor to 0.0915
ElecMinimize: Iter:   8  F: -4133.157444191759168  |grad|_K:  4.170e-08  alpha:  3.953e-01  linmin: -4.750e-06  t[s]:  32367.38
	FillingsUpdate:  mu: +0.253377034  nElectrons: 532.000000  magneticMoment: [ Abs: 0.00000  Tot: +0.00000 ]
	SubspaceRotationAdjust: set factor to 0.0898
ElecMinimize: Iter:   9  F: -4133.157444501957798  |grad|_K:  2.430e-08  alpha:  3.431e-01  linmin:  1.136e-05  t[s]:  32487.95
	FillingsUpdate:  mu: +0.253379097  nElectrons: 532.000000  magneticMoment: [ Abs: 0.00000  Tot: +0.00000 ]
	SubspaceRotationAdjust: set factor to 0.0993
ElecMinimize: Iter:  10  F: -4133.157444624558593  |grad|_K:  1.520e-08  alpha:  3.995e-01  linmin:  3.848e-05  t[s]:  32608.47
	FillingsUpdate:  mu: +0.253371692  nElectrons: 532.000000  magneticMoment: [ Abs: 0.00000  Tot: +0.00000 ]
	SubspaceRotationAdjust: set factor to 0.114
ElecMinimize: Iter:  11  F: -4133.157444675096485  |grad|_K:  1.051e-08  alpha:  4.196e-01  linmin: -3.475e-05  t[s]:  32728.96
	FillingsUpdate:  mu: +0.253368729  nElectrons: 532.000000  magneticMoment: [ Abs: 0.00000  Tot: +0.00000 ]
	SubspaceRotationAdjust: set factor to 0.136
ElecMinimize: Iter:  12  F: -4133.157444699937514  |grad|_K:  8.558e-09  alpha:  4.311e-01  linmin:  6.313e-05  t[s]:  32849.31
ElecMinimize: Converged (|Delta F|<1.000000e-07 for 2 iters).
Setting wave functions to eigenvectors of Hamiltonian
Converging empty states (this may take a while): |deigs|: 4.283e-08

Computing DFT-D3 correction:
# coordination-number Ag 4.857 6.098 7.520 8.964 8.933 9.053 9.105 9.110 9.118 9.107 9.028 8.916 8.313 6.653 6.647 8.304 8.903 9.019 9.100 9.108 9.119 9.060 9.109 8.945 8.977 7.527 6.105 4.850
# diagonal-C6 Ag 268.61 268.61 268.61 268.61 268.61 268.61 268.61 268.61 268.61 268.61 268.61 268.61 268.61 268.61 268.61 268.61 268.61 268.61 268.61 268.61 268.61 268.61 268.61 268.61 268.61 268.61 268.61 268.61
EvdW_6 =   -0.183930
EvdW_8 =   -0.245874

# Ionic positions in cartesian coordinates:
ion Ag   9.376255431505450  -0.049087782551902  28.120256237709135 1
ion Ag   6.275867431035897   6.752850808453418   1.425581662329476 1
ion Ag   6.301006563708283   1.726508783483122   3.387749229386127 1
ion Ag   3.132476152480796   8.385900762387179   5.576601165308925 1
ion Ag   3.125359138985398   3.329529601999339   7.635114841514874 1
ion Ag  -0.011028721835949  10.015005278019908   9.694181409271458 1
ion Ag   0.000317728674108   5.001536924342343  11.765390897255131 1
ion Ag   6.256882775925286   6.705826810358889  15.875423530061443 1
ion Ag   0.001387380712660  -0.006550766615953  13.838287499028164 1
ion Ag   6.263163744408373   1.694851981277125  17.966190409998561 1
ion Ag   3.135038474925835   8.380870347058092  20.008869386619487 1
ion Ag   3.117021605424608   3.351637357012301  22.094726710695877 1
ion Ag   0.033012239752402   9.955116862024022  24.211803597465817 1
ion Ag  -0.040279709274764   5.051425192188551  26.361434415008880 1
ion Ag   1.606884366161883   4.149784118042450   2.318294284462973 1
ion Ag  -1.596221390473108  10.955321692643853   4.468084993946128 1
ion Ag   7.834670274210655   5.848908171794922   6.588523650531889 1
ion Ag   7.817235218004675   0.820665809418505   8.675327064576642 1
ion Ag   4.690496517449596   7.505729128407130  10.718689611120377 1
ion Ag   4.695143706771022   2.493643884446272  12.810673853108860 1
ion Ag   1.562044560364660   9.206020222878047  14.847648779002363 1
ion Ag  -1.554202563980691  10.893492548516262  18.990584291354828 1
ion Ag   1.564856976857077   4.197900682662797  16.920973267298809 1
ion Ag   7.826858633871649   5.869320602773298  21.048532571443303 1
ion Ag   7.820434363897472   0.816707544115542  23.104268743700661 1
ion Ag   4.654226773440520   7.473967249044079  25.290848869413367 1
ion Ag   4.678183887693423   2.445179585420516  27.252155056233445 1
ion Ag   1.576780439302769   9.251470600399916   0.556049972152972 1

# Forces in Cartesian coordinates:
force Ag  -0.000013329648307  -0.000135871426722  -0.000061909754548 1
force Ag   0.000178289567912   0.000137228532249  -0.000024363670986 1
force Ag  -0.000029316154443   0.000058614290398  -0.000051888940589 1
force Ag   0.000018231865531   0.000034562239383   0.000022363141409 1
force Ag   0.000090039244827   0.000130825001605  -0.000191928221444 1
force Ag  -0.000016468127776   0.000013431671285  -0.000089854018130 1
force Ag   0.000044339073910   0.000009527814336   0.000028423590900 1
force Ag  -0.000045341655904   0.000019185338498   0.000042234962602 1
force Ag   0.000036205107957   0.000009031067354  -0.000106231398486 1
force Ag  -0.000028951539367  -0.000081765476167   0.000003123115357 1
force Ag  -0.000037852161739  -0.000083633389786   0.000093872736494 1
force Ag  -0.000007210303477  -0.000105284097450   0.000158973876543 1
force Ag   0.000007157500932  -0.000150819355220   0.000248294245402 1
force Ag  -0.000021936993224  -0.000038031434444  -0.000109613743195 1
force Ag   0.000016409086403   0.000050664010193   0.000195628144762 1
force Ag  -0.000032250205741   0.000122549884395  -0.000208732558763 1
force Ag   0.000020051753942   0.000095088015843  -0.000202815139352 1
force Ag   0.000047604611700   0.000070677247966  -0.000109735432143 1
force Ag   0.000014627931341   0.000086872782522  -0.000026181984311 1
force Ag   0.000060530383199  -0.000007922105088  -0.000057640485772 1
force Ag  -0.000046020536880  -0.000021012658854   0.000107851441671 1
force Ag   0.000034007308913  -0.000024410211674   0.000077407528348 1
force Ag  -0.000058395066654  -0.000031353921967  -0.000046059482910 1
force Ag  -0.000110208743200  -0.000087338989055   0.000167082759325 1
force Ag  -0.000013956022988  -0.000074705923521  -0.000009962603869 1
force Ag   0.000033882259405  -0.000058847638373   0.000142683898231 1
force Ag  -0.000162109148271  -0.000099121774232   0.000117838335902 1
force Ag   0.000023059224008   0.000130358353579   0.000211793611719 1

# Energy components:
   Eewald =    16031.7940312910086504
       EH =    19833.2050016587272694
     Eloc =   -40647.3583832511721994
      Enl =      110.4429103734982789
     EvdW =       -0.4298043347558036
      Exc =     -405.7694799283688667
 Exc_core =        5.8287729337426821
       KE =      939.1303396253106257
-------------------------------------
     Etot =    -4133.1566116320082074
       TS =        0.0008330679289771
-------------------------------------
        F =    -4133.1574446999375141


Dumping 'jdft.fillings' ... done
Dumping 'jdft.wfns' ... done
Dumping 'jdft.ionpos' ... done
Dumping 'jdft.lattice' ... done
Dumping 'jdft.eigenvals' ... done
Dumping 'jdft.eigStats' ... 
	eMin: -3.130536 at state 0 ( [ +0.000000 +0.000000 +0.000000 ] spin 1 )
	HOMO: +0.252579 at state 53 ( [ -0.333333 -0.400000 +0.000000 ] spin -1 )
	mu  : +0.253369
	LUMO: +0.253899 at state 10 ( [ +0.333333 +0.000000 +0.000000 ] spin 1 )
	eMax: +0.609522 at state 15 ( [ +0.500000 +0.000000 +0.000000 ] spin 1 )
	HOMO-LUMO gap: +0.001320
	Optical gap  : +0.002926 at state 26 ( [ -0.166667 +0.200000 +0.000000 ] spin 1 )
Dumping 'jdft.Ecomponents' ... done
IonicMinimize: Iter:   8  F: -4133.157444699937514  |grad|_K:  9.350e-05  alpha:  1.000e+00  linmin: -3.892e-01  t[s]:  32977.59
IonicMinimize: Converged (|grad|_K<1.000000e-04).

#--- Lowdin population analysis ---
# oxidation-state Ag +0.143 +0.028 -0.042 -0.037 +0.005 +0.002 +0.004 +0.001 -0.003 +0.001 +0.005 +0.000 -0.056 +0.019 +0.019 -0.056 +0.000 +0.005 +0.001 +0.001 -0.003 +0.002 +0.004 +0.005 -0.037 -0.042 +0.029 +0.143
# magnetic-moments Ag -0.000 -0.000 -0.000 -0.000 -0.000 +0.000 +0.000 -0.000 -0.000 +0.000 -0.000 -0.000 -0.000 -0.000 -0.000 +0.000 -0.000 -0.000 -0.000 +0.000 -0.000 -0.000 -0.000 -0.000 +0.000 -0.000 -0.000 +0.000


Dumping 'jdft.n_up' ... done
Dumping 'jdft.n_dn' ... done
Dumping 'jdft.tau_up' ... done
Dumping 'jdft.tau_dn' ... done
Dumping 'jdft.eigenvals' ... done
Dumping 'jdft.eigStats' ... 
	eMin: -3.130536 at state 0 ( [ +0.000000 +0.000000 +0.000000 ] spin 1 )
	HOMO: +0.252579 at state 53 ( [ -0.333333 -0.400000 +0.000000 ] spin -1 )
	mu  : +0.253369
	LUMO: +0.253899 at state 10 ( [ +0.333333 +0.000000 +0.000000 ] spin 1 )
	eMax: +0.609522 at state 15 ( [ +0.500000 +0.000000 +0.000000 ] spin 1 )
	HOMO-LUMO gap: +0.001320
	Optical gap  : +0.002926 at state 26 ( [ -0.166667 +0.200000 +0.000000 ] spin 1 )
Dumping 'jdft.kPts' ... done
Dumping 'jdft.dosUp' ... done.
Dumping 'jdft.dosDn' ... done.
End date and time: Tue Dec  7 02:09:55 2021  (Duration: 0-9:10:52.69)
Done!
