
*************** JDFTx 1.7.0 (git hash 5f12716a) ***************

Start date and time: Sat Sep 10 11:45:53 2022
Executable /home/nisi6161/jdftx_alpine/build/jdftx with command-line: -i in
Running on hosts (process indices):  c3cpu-a2-u13-3.rc.int.colorado.edu (0-23)
Divided in process groups (process indices):  0 (0)  1 (1)  2 (2)  3 (3)  4 (4)  5 (5)  6 (6)  7 (7)  8 (8)  9 (9)  10 (10)  11 (11)  12 (12)  13 (13)  14 (14)  15 (15)  16 (16)  17 (17)  18 (18)  19 (19)  20 (20)  21 (21)  22 (22)  23 (23)
Resource initialization completed at t[s]:      0.01
Run totals: 24 processes, 64 threads, 0 GPUs


Input parsed successfully to the following command list (including defaults):

basis kpoint-dependent
converge-empty-states yes
coords-type Cartesian
core-overlap-check none
coulomb-interaction Periodic
davidson-band-ratio 1.1
density-of-states Etol 1.000000e-06 Esigma 1.000000e-03 \
		Complete \
	Total \
	OrthoOrbital Pt 1   s \
	OrthoOrbital Pt 1   p \
	OrthoOrbital Pt 1   px \
	OrthoOrbital Pt 1   py \
	OrthoOrbital Pt 1   pz \
	OrthoOrbital Pt 1   d \
	OrthoOrbital Pt 1   dxy \
	OrthoOrbital Pt 1   dyz \
	OrthoOrbital Pt 1   dz2 \
	OrthoOrbital Pt 1   dxz \
	OrthoOrbital Pt 1   dx2-y2 \
	OrthoOrbital Pt 2   s \
	OrthoOrbital Pt 2   p \
	OrthoOrbital Pt 2   px \
	OrthoOrbital Pt 2   py \
	OrthoOrbital Pt 2   pz \
	OrthoOrbital Pt 2   d \
	OrthoOrbital Pt 2   dxy \
	OrthoOrbital Pt 2   dyz \
	OrthoOrbital Pt 2   dz2 \
	OrthoOrbital Pt 2   dxz \
	OrthoOrbital Pt 2   dx2-y2 \
	OrthoOrbital Pt 3   s \
	OrthoOrbital Pt 3   p \
	OrthoOrbital Pt 3   px \
	OrthoOrbital Pt 3   py \
	OrthoOrbital Pt 3   pz \
	OrthoOrbital Pt 3   d \
	OrthoOrbital Pt 3   dxy \
	OrthoOrbital Pt 3   dyz \
	OrthoOrbital Pt 3   dz2 \
	OrthoOrbital Pt 3   dxz \
	OrthoOrbital Pt 3   dx2-y2 \
	OrthoOrbital Pt 4   s \
	OrthoOrbital Pt 4   p \
	OrthoOrbital Pt 4   px \
	OrthoOrbital Pt 4   py \
	OrthoOrbital Pt 4   pz \
	OrthoOrbital Pt 4   d \
	OrthoOrbital Pt 4   dxy \
	OrthoOrbital Pt 4   dyz \
	OrthoOrbital Pt 4   dz2 \
	OrthoOrbital Pt 4   dxz \
	OrthoOrbital Pt 4   dx2-y2 \
	OrthoOrbital Pt 5   s \
	OrthoOrbital Pt 5   p \
	OrthoOrbital Pt 5   px \
	OrthoOrbital Pt 5   py \
	OrthoOrbital Pt 5   pz \
	OrthoOrbital Pt 5   d \
	OrthoOrbital Pt 5   dxy \
	OrthoOrbital Pt 5   dyz \
	OrthoOrbital Pt 5   dz2 \
	OrthoOrbital Pt 5   dxz \
	OrthoOrbital Pt 5   dx2-y2 \
	OrthoOrbital Pt 6   s \
	OrthoOrbital Pt 6   p \
	OrthoOrbital Pt 6   px \
	OrthoOrbital Pt 6   py \
	OrthoOrbital Pt 6   pz \
	OrthoOrbital Pt 6   d \
	OrthoOrbital Pt 6   dxy \
	OrthoOrbital Pt 6   dyz \
	OrthoOrbital Pt 6   dz2 \
	OrthoOrbital Pt 6   dxz \
	OrthoOrbital Pt 6   dx2-y2 \
	OrthoOrbital Pt 7   s \
	OrthoOrbital Pt 7   p \
	OrthoOrbital Pt 7   px \
	OrthoOrbital Pt 7   py \
	OrthoOrbital Pt 7   pz \
	OrthoOrbital Pt 7   d \
	OrthoOrbital Pt 7   dxy \
	OrthoOrbital Pt 7   dyz \
	OrthoOrbital Pt 7   dz2 \
	OrthoOrbital Pt 7   dxz \
	OrthoOrbital Pt 7   dx2-y2 \
	OrthoOrbital Pt 8   s \
	OrthoOrbital Pt 8   p \
	OrthoOrbital Pt 8   px \
	OrthoOrbital Pt 8   py \
	OrthoOrbital Pt 8   pz \
	OrthoOrbital Pt 8   d \
	OrthoOrbital Pt 8   dxy \
	OrthoOrbital Pt 8   dyz \
	OrthoOrbital Pt 8   dz2 \
	OrthoOrbital Pt 8   dxz \
	OrthoOrbital Pt 8   dx2-y2 \
	OrthoOrbital Pt 9   s \
	OrthoOrbital Pt 9   p \
	OrthoOrbital Pt 9   px \
	OrthoOrbital Pt 9   py \
	OrthoOrbital Pt 9   pz \
	OrthoOrbital Pt 9   d \
	OrthoOrbital Pt 9   dxy \
	OrthoOrbital Pt 9   dyz \
	OrthoOrbital Pt 9   dz2 \
	OrthoOrbital Pt 9   dxz \
	OrthoOrbital Pt 9   dx2-y2 \
	OrthoOrbital Pt 10   s \
	OrthoOrbital Pt 10   p \
	OrthoOrbital Pt 10   px \
	OrthoOrbital Pt 10   py \
	OrthoOrbital Pt 10   pz \
	OrthoOrbital Pt 10   d \
	OrthoOrbital Pt 10   dxy \
	OrthoOrbital Pt 10   dyz \
	OrthoOrbital Pt 10   dz2 \
	OrthoOrbital Pt 10   dxz \
	OrthoOrbital Pt 10   dx2-y2 \
	OrthoOrbital Pt 11   s \
	OrthoOrbital Pt 11   p \
	OrthoOrbital Pt 11   px \
	OrthoOrbital Pt 11   py \
	OrthoOrbital Pt 11   pz \
	OrthoOrbital Pt 11   d \
	OrthoOrbital Pt 11   dxy \
	OrthoOrbital Pt 11   dyz \
	OrthoOrbital Pt 11   dz2 \
	OrthoOrbital Pt 11   dxz \
	OrthoOrbital Pt 11   dx2-y2 \
	OrthoOrbital Pt 12   s \
	OrthoOrbital Pt 12   p \
	OrthoOrbital Pt 12   px \
	OrthoOrbital Pt 12   py \
	OrthoOrbital Pt 12   pz \
	OrthoOrbital Pt 12   d \
	OrthoOrbital Pt 12   dxy \
	OrthoOrbital Pt 12   dyz \
	OrthoOrbital Pt 12   dz2 \
	OrthoOrbital Pt 12   dxz \
	OrthoOrbital Pt 12   dx2-y2 \
	OrthoOrbital Pt 13   s \
	OrthoOrbital Pt 13   p \
	OrthoOrbital Pt 13   px \
	OrthoOrbital Pt 13   py \
	OrthoOrbital Pt 13   pz \
	OrthoOrbital Pt 13   d \
	OrthoOrbital Pt 13   dxy \
	OrthoOrbital Pt 13   dyz \
	OrthoOrbital Pt 13   dz2 \
	OrthoOrbital Pt 13   dxz \
	OrthoOrbital Pt 13   dx2-y2 \
	OrthoOrbital Pt 14   s \
	OrthoOrbital Pt 14   p \
	OrthoOrbital Pt 14   px \
	OrthoOrbital Pt 14   py \
	OrthoOrbital Pt 14   pz \
	OrthoOrbital Pt 14   d \
	OrthoOrbital Pt 14   dxy \
	OrthoOrbital Pt 14   dyz \
	OrthoOrbital Pt 14   dz2 \
	OrthoOrbital Pt 14   dxz \
	OrthoOrbital Pt 14   dx2-y2 \
	OrthoOrbital Pt 15   s \
	OrthoOrbital Pt 15   p \
	OrthoOrbital Pt 15   px \
	OrthoOrbital Pt 15   py \
	OrthoOrbital Pt 15   pz \
	OrthoOrbital Pt 15   d \
	OrthoOrbital Pt 15   dxy \
	OrthoOrbital Pt 15   dyz \
	OrthoOrbital Pt 15   dz2 \
	OrthoOrbital Pt 15   dxz \
	OrthoOrbital Pt 15   dx2-y2 \
	OrthoOrbital Pt 16   s \
	OrthoOrbital Pt 16   p \
	OrthoOrbital Pt 16   px \
	OrthoOrbital Pt 16   py \
	OrthoOrbital Pt 16   pz \
	OrthoOrbital Pt 16   d \
	OrthoOrbital Pt 16   dxy \
	OrthoOrbital Pt 16   dyz \
	OrthoOrbital Pt 16   dz2 \
	OrthoOrbital Pt 16   dxz \
	OrthoOrbital Pt 16   dx2-y2 \
	OrthoOrbital Pt 17   s \
	OrthoOrbital Pt 17   p \
	OrthoOrbital Pt 17   px \
	OrthoOrbital Pt 17   py \
	OrthoOrbital Pt 17   pz \
	OrthoOrbital Pt 17   d \
	OrthoOrbital Pt 17   dxy \
	OrthoOrbital Pt 17   dyz \
	OrthoOrbital Pt 17   dz2 \
	OrthoOrbital Pt 17   dxz \
	OrthoOrbital Pt 17   dx2-y2 \
	OrthoOrbital Pt 18   s \
	OrthoOrbital Pt 18   p \
	OrthoOrbital Pt 18   px \
	OrthoOrbital Pt 18   py \
	OrthoOrbital Pt 18   pz \
	OrthoOrbital Pt 18   d \
	OrthoOrbital Pt 18   dxy \
	OrthoOrbital Pt 18   dyz \
	OrthoOrbital Pt 18   dz2 \
	OrthoOrbital Pt 18   dxz \
	OrthoOrbital Pt 18   dx2-y2
dump End ElecDensity KEdensity BandEigs EigStats RhoAtom DOS Kpoints
dump Ionic State IonicPositions Lattice EigStats Ecomponents
dump 
dump 
dump 
dump 
dump 
dump 
dump 
dump 
dump-name jdft.$VAR
elec-cutoff 20
elec-eigen-algo Davidson
elec-ex-corr gga-PBE
elec-initial-magnetization 0.000000 no
elec-n-bands 173
elec-smearing Fermi 0.001
electronic-minimize  \
	dirUpdateScheme      FletcherReeves \
	linminMethod         DirUpdateRecommended \
	nIterations          100 \
	history              15 \
	knormThreshold       0 \
	energyDiffThreshold  1e-07 \
	nEnergyDiff          2 \
	alphaTstart          1 \
	alphaTmin            1e-10 \
	updateTestStepSize   yes \
	alphaTreduceFactor   0.1 \
	alphaTincreaseFactor 3 \
	nAlphaAdjustMax      3 \
	wolfeEnergy          0.0001 \
	wolfeGradient        0.9 \
	fdTest               no
exchange-regularization WignerSeitzTruncated
fluid LinearPCM 298.000000 1.013250
fluid-anion F- 0.5 MeanFieldLJ \
	epsBulk 1 \
	pMol 0 \
	epsInf 1 \
	Pvap 0 \
	sigmaBulk 0 \
	Rvdw 2.24877 \
	Res 0 \
	tauNuc 343133
fluid-cation Na+ 0.5 MeanFieldLJ \
	epsBulk 1 \
	pMol 0 \
	epsInf 1 \
	Pvap 0 \
	sigmaBulk 0 \
	Rvdw 2.19208 \
	Res 0 \
	tauNuc 343133
fluid-ex-corr lda-TF lda-PZ
fluid-gummel-loop 10 1.000000e-05
fluid-minimize  \
	dirUpdateScheme      PolakRibiere \
	linminMethod         DirUpdateRecommended \
	nIterations          400 \
	history              15 \
	knormThreshold       1e-11 \
	energyDiffThreshold  0 \
	nEnergyDiff          2 \
	alphaTstart          1 \
	alphaTmin            1e-10 \
	updateTestStepSize   yes \
	alphaTreduceFactor   0.1 \
	alphaTincreaseFactor 3 \
	nAlphaAdjustMax      6 \
	wolfeEnergy          0.0001 \
	wolfeGradient        0.9 \
	fdTest               no
fluid-solvent H2O 55.338 ScalarEOS \
	epsBulk 78.4 \
	pMol 0.92466 \
	epsInf 1.77 \
	Pvap 1.06736e-10 \
	sigmaBulk 4.62e-05 \
	Rvdw 2.61727 \
	Res 1.42 \
	tauNuc 343133 \
	poleEl 15 7 1
forces-output-coords Positions
initial-state jdft.$VAR
ion Pt   0.000256001143375   6.844439862172166  64.761169186290587 1
ion Pt   0.000216603247795  14.166059196946671  62.563911371549828 1
ion Pt   5.231823978889443   0.222285215146282  45.283171011313328 1
ion Pt   0.000051302297331   5.225645223014523  59.765506737233132 1
ion Pt  -0.000024865724931  12.327052892190807  57.340086156901165 1
ion Pt  -0.000011827327536   3.417579196476006  54.915854156907621 1
ion Pt  -0.000130754957063  10.450982811954880  52.261701683687455 1
ion Pt   5.231925556928811   1.675431291256185  50.105825561736637 1
ion Pt   5.231857439584799   8.648759892621632  47.212244313543046 1
ion Pt   2.615991258859348   9.660574937586066  60.881288792798223 1
ion Pt   2.616101427878375   0.885355329678504  58.724171978395191 1
ion Pt   2.616226111669782   2.687342725328687  63.776584910266294 1
ion Pt   2.615944366748001   7.917992900139460  56.070084446156287 1
ion Pt   2.615960620739919  14.704413794201214  53.646046212639916 1
ion Pt   2.615927717474599   6.110352045927517  51.221756875395656 1
ion Pt   2.615804359793453  12.865828084247186  48.422430646441782 1
ion Pt   2.615818245414822   4.491853068608293  46.228011759312778 1
ion Pt   2.616235457339671  11.113945532503909  65.706537199430755 1
ion-species /projects/musgravc/apps/jdftx-1.6.0/build/pseudopotentials/GBRV_v1.5/$ID_pbe_v1.uspp
ion-species /projects/musgravc/apps/jdftx-1.6.0/build/pseudopotentials/GBRV_v1.5/$ID_pbe_v1.2.uspp
ion-species /projects/musgravc/apps/jdftx-1.6.0/build/pseudopotentials/GBRV_v1.5/$ID_pbe_v1.4.uspp
ion-species /projects/musgravc/apps/jdftx-1.6.0/build/pseudopotentials/GBRV_v1.5/$ID_pbe_v1.5.uspp
ion-width Ecut
ionic-minimize  \
	dirUpdateScheme      L-BFGS \
	linminMethod         DirUpdateRecommended \
	nIterations          100 \
	history              15 \
	knormThreshold       0.0001 \
	energyDiffThreshold  0.0001 \
	nEnergyDiff          2 \
	alphaTstart          1 \
	alphaTmin            1e-10 \
	updateTestStepSize   yes \
	alphaTreduceFactor   0.1 \
	alphaTincreaseFactor 3 \
	nAlphaAdjustMax      3 \
	wolfeEnergy          0.0001 \
	wolfeGradient        0.9 \
	fdTest               no
kpoint   0.000000000000   0.000000000000   0.000000000000  1.00000000000000
kpoint-folding 12 4 1 
latt-move-scale 0 0 0
latt-scale 1 1 1 
lattice  \
	   5.231996000000000    0.000000000000000    0.000000000000000  \
	   0.000000000000000   15.695986000000000    0.000000000000000  \
	   0.000000000000000    0.000000000000000   66.592426000000003 
lattice-minimize  \
	dirUpdateScheme      L-BFGS \
	linminMethod         DirUpdateRecommended \
	nIterations          0 \
	history              15 \
	knormThreshold       0 \
	energyDiffThreshold  1e-06 \
	nEnergyDiff          2 \
	alphaTstart          1 \
	alphaTmin            1e-10 \
	updateTestStepSize   yes \
	alphaTreduceFactor   0.1 \
	alphaTincreaseFactor 3 \
	nAlphaAdjustMax      3 \
	wolfeEnergy          0.0001 \
	wolfeGradient        0.9 \
	fdTest               no
lcao-params 30 1e-06 0.001
pcm-variant CANDLE
spintype z-spin
subspace-rotation-factor 1 yes
symmetries automatic
symmetry-threshold 0.0001
target-mu -0.208 no

van-der-waals D3



---------- Setting up symmetries ----------

Found 8 point-group symmetries of the bravais lattice
Found 1 space-group symmetries with basis
Applied RMS atom displacement 0 bohrs to make symmetries exact.

---------- Initializing the Grid ----------
R = 
[        5.232            0            0  ]
[            0       15.696            0  ]
[            0            0      66.5924  ]
unit cell volume = 5468.66
G =
[    1.20092          0          0  ]
[          0   0.400305          0  ]
[          0          0  0.0943529  ]
Minimum fftbox size, Smin = [  24  64  272  ]
Chosen fftbox size, S = [  24  64  280  ]

---------- Exchange Correlation functional ----------
Initalized PBE GGA exchange.
Initalized PBE GGA correlation.

---------- Setting up pseudopotentials ----------
Width of ionic core gaussian charges (only for fluid interactions / plotting) set to 0.397384

Reading pseudopotential file '/projects/musgravc/apps/jdftx-1.6.0/build/pseudopotentials/GBRV_v1.5/pt_pbe_v1.4.uspp':
  Title: Pt.  Created by USPP 7.3.6 on 31-3-15
  Reference state energy: -105.002503.  16 valence electrons in orbitals:
    |510>  occupation: 6  eigenvalue: -2.158104
    |520>  occupation: 9.5  eigenvalue: -0.335376
    |600>  occupation: 0  eigenvalue: -0.319640
    |610>  occupation: 0  eigenvalue: -0.122947
  lMax: 2  lLocal: 3  QijEcut: 5.5
  6 projectors sampled on a log grid with 745 points:
    l: 0  eig: -0.319640  rCut: 2.45
    l: 0  eig: 1.500000  rCut: 2.45
    l: 1  eig: -2.158104  rCut: 1.6
    l: 1  eig: -0.122947  rCut: 1.6
    l: 2  eig: -0.500000  rCut: 1.6
    l: 2  eig: -0.335375  rCut: 1.6
  Partial core density with radius 1.1
  Transforming core density to a uniform radial grid of dG=0.02 with 1174 points.
  Transforming local potential to a uniform radial grid of dG=0.02 with 1174 points.
  Transforming nonlocal projectors to a uniform radial grid of dG=0.02 with 432 points.
  Transforming density augmentations to a uniform radial grid of dG=0.02 with 1174 points.
  Transforming atomic orbitals to a uniform radial grid of dG=0.02 with 432 points.
  Core radius for overlap checks: 2.45 bohrs.

Initialized 1 species with 18 total atoms.

Folded 1 k-points by 12x4x1 to 48 k-points.

---------- Setting up k-points, bands, fillings ----------
Adding inversion symmetry to k-mesh for non-inversion-symmetric unit cell.
Reduced to 26 k-points under symmetry. 
Computing the number of bands and number of electrons
Reading initial fillings from file jdft.fillings.
nElectrons: 287.496816   nBands: 173   nStates: 52

----- Setting up reduced wavefunction bases (one per k-point) -----
average nbasis = 23357.729 , ideal nbasis = 23362.528

----- Initializing Supercell corresponding to k-point mesh -----
Lattice vector linear combinations in supercell:
[  12   0   0  ]
[   0   4   0  ]
[   0   0   1  ]
Supercell lattice vectors:
[  62.784  0  0  ]
[  0  62.7839  0  ]
[  0  0  66.5924  ]

Initializing DFT-D3 calculator:
	Parameters set for gga-PBE functional
	s6:  1.000  s_r6:  1.217
	s8:  0.722  s_r8:  1.000
	Per-atom parameters loaded for:
	Pt:  sqrtQ[a0]:  5.888  Rcov[a0]:  2.116  CN: [ 0.00 1.92 6.67 ]

Initializing DFT-D2 calculator for fluid / solvation:
	Pt:  C6:  815.23 Eh-a0^6  R0: 3.326 a0 (WARNING: beyond Grimme's data set)

---------- Setting up ewald sum ----------
Optimum gaussian width for ewald sums = 4.341685 bohr.
Real space sum over 855 unit cells with max indices [  9  4  2  ]
Reciprocal space sum over 5355 terms with max indices [  3  7  25  ]

Computing DFT-D3 correction:
# coordination-number Pt 7.160 8.436 5.944 9.313 9.434 9.397 9.418 9.154 7.160 9.150 9.416 7.156 9.396 9.435 9.317 8.439 7.163 5.941
# diagonal-C6 Pt 336.87 336.87 336.87 336.87 336.87 336.87 336.87 336.87 336.87 336.87 336.87 336.87 336.87 336.87 336.87 336.87 336.87 336.87
EvdW_6 =   -0.151746
EvdW_8 =   -0.247079

---------- Allocating electronic variables ----------
Initializing wave functions:  reading from 'jdft.wfns'
----- createFluidSolver() ----- (Fluid-side solver setup)
   Initializing fluid molecule 'H2O'
     Initializing site 'O'
       Electron density: proportional to exp(-r/0.36935)*erfc((r-0.51523)/0.36823) with norm 6.826
       Charge density: gaussian nuclear width 0.478731 with net site charge 0.826
       Polarizability: cuspless exponential with width 0.32 and norm 3.73
       Hard sphere radius: 2.57003 bohrs
       Positions in reference frame:
         [ +0.000000 +0.000000 +0.000000 ]
     Initializing site 'H'
       Electron density: proportional to exp(-r/0.34641)*erfc((r-0)/0.390882) with norm 0.587
       Charge density: gaussian nuclear width 0.377945 with net site charge -0.413
       Polarizability: cuspless exponential with width 0.39 and norm 3.3
       Positions in reference frame:
         [ +0.000000 -1.441945 +1.122523 ]
         [ +0.000000 +1.441945 +1.122523 ]
     Net charge: 0   dipole magnitude: 0.927204
     Initializing spherical shell mfKernel with radius 2.61727 Bohr
     deltaS corrections:
       site 'O': -7.54299
       site 'H': -6.83917
   Initializing fluid molecule 'Na+'
     Initializing site 'Na'
       Electron density: proportional to exp(-r/0.19682)*erfc((r-0.71491)/0.41314) with norm 8.1383
       Charge density: gaussian nuclear width 0.365347 with net site charge -1
       Hard sphere radius: 1.86327 bohrs
       Positions in reference frame:
         [ +0.000000 +0.000000 +0.000000 ]
     Net charge: -1   dipole magnitude: 0
     Initializing gaussian mfKernel with width: 1.55004 Bohr
     deltaS corrections:
       site 'Na': -22.3555
   Initializing fluid molecule 'F-'
     Initializing site 'F'
       Electron density: proportional to exp(-r/0.38886)*erfc((r-0)/0.438782) with norm 8
       Charge density: gaussian nuclear width 0.374796 with net site charge 1
       Hard sphere radius: 2.39995 bohrs
       Positions in reference frame:
         [ +0.000000 +0.000000 +0.000000 ]
     Net charge: 1   dipole magnitude: 0
     Initializing gaussian mfKernel with width: 1.59012 Bohr
     deltaS corrections:
       site 'F': -9.04335

Correction to mu due to finite nuclear width = -0.052253
   Cavity determined by nc: 0.00142 and sigma: 0.707107
   Nonlocal vdW cavity from gaussian model electron density with norm = 8 and sigma = 0.993594 bohr
   Charge asymmetry in cavity with sensitivity pCavity = 36.5 e-bohr/Eh
   Electrostatic cavity expanded by eta = 1.46 bohrs
   Weighted density cavitation model constrained by Nbulk: 0.0049383 bohr^-3, Pvap: 3.14029 kPa, Rvdw: 2.61727 bohr and sigmaBulk: 4.62e-05 Eh/bohr^2 at T: 298 K.
   Weighted density dispersion model using vdW pair potentials with single solvent site with sqrtC6eff: 0.77 SI.
Reading fluid state from 'jdft.fluidState'


---- Citations for features of the code used in this run ----

   Software package:
      R. Sundararaman, K. Letchworth-Weaver, K.A. Schwarz, D. Gunceler, Y. Ozhabes and T.A. Arias, 'JDFTx: software for joint density-functional theory', SoftwareX 6, 278 (2017)

   gga-PBE exchange-correlation functional:
      J.P. Perdew, K. Burke and M. Ernzerhof, Phys. Rev. Lett. 77, 3865 (1996)

   Pseudopotentials:
      KF Garrity, JW Bennett, KM Rabe and D Vanderbilt, Comput. Mater. Sci. 81, 446 (2014)

   DFT-D3 dispersion correction:
      S. Grimme, J. Antony, S. Ehrlich and H. Krieg, J. Chem. Phys. 132, 154104 (2010)

   DFT-D2 dispersion correction:
      S. Grimme, J. Comput. Chem. 27, 1787 (2006)

   Charge-asymmetric nonlocally-determined local-electric (CANDLE) solvation model:
      R. Sundararaman and W.A. Goddard III, J. Chem. Phys. 142, 064107 (2015)

   Total energy minimization with Auxiliary Hamiltonian:
      C. Freysoldt, S. Boeck, and J. Neugebauer, Phys. Rev. B 79, 241103(R) (2009)

   Grand-canonical (fixed-potential) DFT:
      R. Sundararaman, W. A. Goddard III and T. A. Arias, J. Chem. Phys. 146, 114104 (2017)

   Linear-tetrahedron sampling for density of states:
      G. Lehmann and M. Taut, Phys. status solidi (b) 54, 469 (1972)

This list may not be complete. Please suggest additional citations or
report any other bugs at https://github.com/shankar1729/jdftx/issues

Initialization completed successfully at t[s]:     17.96


Computing DFT-D3 correction:
# coordination-number Pt 7.160 8.436 5.944 9.313 9.434 9.397 9.418 9.154 7.160 9.150 9.416 7.156 9.396 9.435 9.317 8.439 7.163 5.941
# diagonal-C6 Pt 336.87 336.87 336.87 336.87 336.87 336.87 336.87 336.87 336.87 336.87 336.87 336.87 336.87 336.87 336.87 336.87 336.87 336.87
EvdW_6 =   -0.151746
EvdW_8 =   -0.247079
Shifting auxilliary hamiltonian by 0.036776 to set nElectrons=287.496816

-------- Electronic minimization -----------
	Linear fluid (dielectric constant: 78.4, screening length: 8.12261 Bohr) occupying 0.550958 of unit cell:	Completed after 23 iterations at t[s]:     37.04
	FillingsUpdate:  mu: -0.208000000  nElectrons: 287.496816  magneticMoment: [ Abs: 0.00001  Tot: +0.00001 ]
ElecMinimize: Iter:   0  G: -1541.430370185406446  |grad|_K:  9.022e-05  alpha:  1.000e+00
	Linear fluid (dielectric constant: 78.4, screening length: 8.12261 Bohr) occupying 0.546899 of unit cell:	Completed after 33 iterations at t[s]:    119.84
	Linear fluid (dielectric constant: 78.4, screening length: 8.12261 Bohr) occupying 0.550940 of unit cell:	Completed after 33 iterations at t[s]:    149.93
	FillingsUpdate:  mu: -0.208000000  nElectrons: 287.333676  magneticMoment: [ Abs: 0.00001  Tot: +0.00001 ]
	SubspaceRotationAdjust: set factor to 0.607
ElecMinimize: Iter:   1  G: -1541.436642628762911  |grad|_K:  6.921e-05  alpha:  4.510e-03  linmin:  7.736e-03  t[s]:    190.77
	Linear fluid (dielectric constant: 78.4, screening length: 8.12261 Bohr) occupying 0.550901 of unit cell:	Completed after 20 iterations at t[s]:    225.91
ElecMinimize: 	Predicted alpha/alphaT>3.000000, increasing alphaT to 1.352997e-02.
	Linear fluid (dielectric constant: 78.4, screening length: 8.12261 Bohr) occupying 0.550823 of unit cell:	Completed after 22 iterations at t[s]:    254.42
	Linear fluid (dielectric constant: 78.4, screening length: 8.12261 Bohr) occupying 0.550652 of unit cell:	Completed after 23 iterations at t[s]:    283.15
	FillingsUpdate:  mu: -0.208000000  nElectrons: 287.686620  magneticMoment: [ Abs: 0.00005  Tot: +0.00001 ]
	SubspaceRotationAdjust: set factor to 0.309
ElecMinimize: Iter:   2  G: -1541.466096003763823  |grad|_K:  4.588e-05  alpha:  3.383e-02  linmin: -2.661e-03  t[s]:    324.32
	Linear fluid (dielectric constant: 78.4, screening length: 8.12261 Bohr) occupying 0.550454 of unit cell:	Completed after 24 iterations at t[s]:    360.38
	Linear fluid (dielectric constant: 78.4, screening length: 8.12261 Bohr) occupying 0.550532 of unit cell:	Completed after 22 iterations at t[s]:    389.05
	FillingsUpdate:  mu: -0.208000000  nElectrons: 287.559036  magneticMoment: [ Abs: 0.00007  Tot: +0.00001 ]
	SubspaceRotationAdjust: set factor to 0.189
ElecMinimize: Iter:   3  G: -1541.475907636247257  |grad|_K:  5.465e-05  alpha:  2.051e-02  linmin:  1.535e-05  t[s]:    430.13
	Linear fluid (dielectric constant: 78.4, screening length: 8.12261 Bohr) occupying 0.550333 of unit cell:	Completed after 23 iterations at t[s]:    465.94
	Linear fluid (dielectric constant: 78.4, screening length: 8.12261 Bohr) occupying 0.550160 of unit cell:	Completed after 23 iterations at t[s]:    494.77
	FillingsUpdate:  mu: -0.208000000  nElectrons: 287.719001  magneticMoment: [ Abs: 0.00012  Tot: +0.00001 ]
	SubspaceRotationAdjust: set factor to 0.12
	SubspaceRotationAdjust: resetting CG because factor has changed by 0.120119
	Linear fluid (dielectric constant: 78.4, screening length: 8.12261 Bohr) occupying 0.550160 of unit cell:	Completed after 0 iterations at t[s]:    550.30
ElecMinimize: 	State modified externally: resetting search direction.
ElecMinimize: Iter:   4  G: -1541.500244962175429  |grad|_K:  2.868e-05  alpha:  3.831e-02
	Linear fluid (dielectric constant: 78.4, screening length: 8.12261 Bohr) occupying 0.550115 of unit cell:	Completed after 22 iterations at t[s]:    626.66
	Linear fluid (dielectric constant: 78.4, screening length: 8.12261 Bohr) occupying 0.550058 of unit cell:	Completed after 23 iterations at t[s]:    655.45
	FillingsUpdate:  mu: -0.208000000  nElectrons: 287.843300  magneticMoment: [ Abs: 0.00013  Tot: +0.00001 ]
	SubspaceRotationAdjust: set factor to 0.0487
ElecMinimize: Iter:   5  G: -1541.515146666460851  |grad|_K:  2.909e-05  alpha:  8.629e-02  linmin:  8.540e-04  t[s]:    696.78
	Linear fluid (dielectric constant: 78.4, screening length: 8.12261 Bohr) occupying 0.549827 of unit cell:	Completed after 24 iterations at t[s]:    732.97
	Linear fluid (dielectric constant: 78.4, screening length: 8.12261 Bohr) occupying 0.549950 of unit cell:	Completed after 24 iterations at t[s]:    761.99
	FillingsUpdate:  mu: -0.208000000  nElectrons: 287.706029  magneticMoment: [ Abs: 0.00014  Tot: +0.00001 ]
	SubspaceRotationAdjust: set factor to 0.0287
ElecMinimize: Iter:   6  G: -1541.522323905386884  |grad|_K:  1.143e-05  alpha:  4.023e-02  linmin: -6.373e-04  t[s]:    803.31
	Linear fluid (dielectric constant: 78.4, screening length: 8.12261 Bohr) occupying 0.549895 of unit cell:	Completed after 17 iterations at t[s]:    838.21
ElecMinimize: 	Predicted alpha/alphaT>3.000000, increasing alphaT to 1.206864e-01.
	Linear fluid (dielectric constant: 78.4, screening length: 8.12261 Bohr) occupying 0.549786 of unit cell:	Completed after 19 iterations at t[s]:    866.37
	Linear fluid (dielectric constant: 78.4, screening length: 8.12261 Bohr) occupying 0.549594 of unit cell:	Completed after 20 iterations at t[s]:    894.69
	FillingsUpdate:  mu: -0.208000000  nElectrons: 287.635373  magneticMoment: [ Abs: 0.00017  Tot: +0.00001 ]
	SubspaceRotationAdjust: set factor to 0.0166
ElecMinimize: Iter:   7  G: -1541.529585632038106  |grad|_K:  1.095e-05  alpha:  2.628e-01  linmin:  4.783e-04  t[s]:    935.89
	Linear fluid (dielectric constant: 78.4, screening length: 8.12261 Bohr) occupying 0.549142 of unit cell:	Completed after 23 iterations at t[s]:    971.83
	Linear fluid (dielectric constant: 78.4, screening length: 8.12261 Bohr) occupying 0.549397 of unit cell:	Completed after 22 iterations at t[s]:   1000.46
	FillingsUpdate:  mu: -0.208000000  nElectrons: 287.707881  magneticMoment: [ Abs: 0.00021  Tot: +0.00001 ]
	SubspaceRotationAdjust: set factor to 0.027
ElecMinimize: Iter:   8  G: -1541.532480683728863  |grad|_K:  4.421e-06  alpha:  1.145e-01  linmin: -4.558e-04  t[s]:   1041.76
	Linear fluid (dielectric constant: 78.4, screening length: 8.12261 Bohr) occupying 0.549296 of unit cell:	Completed after 20 iterations at t[s]:   1077.14
	Linear fluid (dielectric constant: 78.4, screening length: 8.12261 Bohr) occupying 0.549111 of unit cell:	Completed after 20 iterations at t[s]:   1105.48
	FillingsUpdate:  mu: -0.208000000  nElectrons: 287.755330  magneticMoment: [ Abs: 0.00022  Tot: +0.00001 ]
	SubspaceRotationAdjust: set factor to 0.0236
ElecMinimize: Iter:   9  G: -1541.533826821141929  |grad|_K:  4.790e-06  alpha:  3.258e-01  linmin:  1.602e-04  t[s]:   1146.90
	Linear fluid (dielectric constant: 78.4, screening length: 8.12261 Bohr) occupying 0.548562 of unit cell:	Completed after 21 iterations at t[s]:   1182.52
	Linear fluid (dielectric constant: 78.4, screening length: 8.12261 Bohr) occupying 0.548859 of unit cell:	Completed after 20 iterations at t[s]:   1210.92
	FillingsUpdate:  mu: -0.208000000  nElectrons: 287.735920  magneticMoment: [ Abs: 0.00023  Tot: +0.00001 ]
	SubspaceRotationAdjust: set factor to 0.0203
ElecMinimize: Iter:  10  G: -1541.534550281981183  |grad|_K:  2.757e-06  alpha:  1.495e-01  linmin: -5.695e-05  t[s]:   1252.08
	Linear fluid (dielectric constant: 78.4, screening length: 8.12261 Bohr) occupying 0.548704 of unit cell:	Completed after 15 iterations at t[s]:   1286.62
	Linear fluid (dielectric constant: 78.4, screening length: 8.12261 Bohr) occupying 0.548462 of unit cell:	Completed after 17 iterations at t[s]:   1314.34
	FillingsUpdate:  mu: -0.208000000  nElectrons: 287.735434  magneticMoment: [ Abs: 0.00024  Tot: +0.00001 ]
	SubspaceRotationAdjust: set factor to 0.0171
ElecMinimize: Iter:  11  G: -1541.535162867489134  |grad|_K:  2.851e-06  alpha:  3.823e-01  linmin:  1.100e-04  t[s]:   1355.51
	Linear fluid (dielectric constant: 78.4, screening length: 8.12261 Bohr) occupying 0.547919 of unit cell:	Completed after 20 iterations at t[s]:   1390.94
	Linear fluid (dielectric constant: 78.4, screening length: 8.12261 Bohr) occupying 0.548198 of unit cell:	Completed after 17 iterations at t[s]:   1418.84
	FillingsUpdate:  mu: -0.208000000  nElectrons: 287.765127  magneticMoment: [ Abs: 0.00025  Tot: +0.00001 ]
	SubspaceRotationAdjust: set factor to 0.0154
	SubspaceRotationAdjust: resetting CG because factor has changed by 0.128417
	Linear fluid (dielectric constant: 78.4, screening length: 8.12261 Bohr) occupying 0.548198 of unit cell:	Completed after 0 iterations at t[s]:   1474.21
ElecMinimize: 	State modified externally: resetting search direction.
ElecMinimize: Iter:  12  G: -1541.535481587526647  |grad|_K:  1.868e-06  alpha:  1.861e-01
	Linear fluid (dielectric constant: 78.4, screening length: 8.12261 Bohr) occupying 0.548149 of unit cell:	Completed after 15 iterations at t[s]:   1549.87
	Linear fluid (dielectric constant: 78.4, screening length: 8.12261 Bohr) occupying 0.548111 of unit cell:	Completed after 14 iterations at t[s]:   1577.12
	FillingsUpdate:  mu: -0.208000000  nElectrons: 287.758237  magneticMoment: [ Abs: 0.00026  Tot: +0.00001 ]
	SubspaceRotationAdjust: set factor to 0.0168
ElecMinimize: Iter:  13  G: -1541.535725414453736  |grad|_K:  1.135e-06  alpha:  3.313e-01  linmin:  1.124e-04  t[s]:   1618.35
	Linear fluid (dielectric constant: 78.4, screening length: 8.12261 Bohr) occupying 0.548009 of unit cell:	Completed after 15 iterations at t[s]:   1653.06
	Linear fluid (dielectric constant: 78.4, screening length: 8.12261 Bohr) occupying 0.547982 of unit cell:	Completed after 11 iterations at t[s]:   1680.04
	FillingsUpdate:  mu: -0.208000000  nElectrons: 287.770308  magneticMoment: [ Abs: 0.00026  Tot: +0.00001 ]
	SubspaceRotationAdjust: set factor to 0.0141
ElecMinimize: Iter:  14  G: -1541.535839585478016  |grad|_K:  1.177e-06  alpha:  4.201e-01  linmin:  6.873e-05  t[s]:   1721.21
	Linear fluid (dielectric constant: 78.4, screening length: 8.12261 Bohr) occupying 0.547762 of unit cell:	Completed after 18 iterations at t[s]:   1756.40
	Linear fluid (dielectric constant: 78.4, screening length: 8.12261 Bohr) occupying 0.547699 of unit cell:	Completed after 13 iterations at t[s]:   1783.56
	FillingsUpdate:  mu: -0.208000000  nElectrons: 287.762004  magneticMoment: [ Abs: 0.00028  Tot: +0.00001 ]
	SubspaceRotationAdjust: set factor to 0.0134
ElecMinimize: Iter:  15  G: -1541.535997177659510  |grad|_K:  1.239e-06  alpha:  5.401e-01  linmin:  1.338e-04  t[s]:   1824.92
	Linear fluid (dielectric constant: 78.4, screening length: 8.12261 Bohr) occupying 0.547354 of unit cell:	Completed after 15 iterations at t[s]:   1859.73
	Linear fluid (dielectric constant: 78.4, screening length: 8.12261 Bohr) occupying 0.547144 of unit cell:	Completed after 13 iterations at t[s]:   1886.91
	FillingsUpdate:  mu: -0.208000000  nElectrons: 287.776932  magneticMoment: [ Abs: 0.00033  Tot: +0.00001 ]
	SubspaceRotationAdjust: set factor to 0.0158
ElecMinimize: Iter:  16  G: -1541.536275940419955  |grad|_K:  1.370e-06  alpha:  8.639e-01  linmin:  1.084e-04  t[s]:   1928.07
	Linear fluid (dielectric constant: 78.4, screening length: 8.12261 Bohr) occupying 0.546546 of unit cell:	Completed after 19 iterations at t[s]:   1963.40
	Linear fluid (dielectric constant: 78.4, screening length: 8.12261 Bohr) occupying 0.546594 of unit cell:	Completed after 10 iterations at t[s]:   1990.17
	FillingsUpdate:  mu: -0.208000000  nElectrons: 287.799586  magneticMoment: [ Abs: 0.00040  Tot: +0.00001 ]
	SubspaceRotationAdjust: set factor to 0.0165
ElecMinimize: Iter:  17  G: -1541.536589538664202  |grad|_K:  1.344e-06  alpha:  7.964e-01  linmin:  9.616e-05  t[s]:   2031.24
	Linear fluid (dielectric constant: 78.4, screening length: 8.12261 Bohr) occupying 0.546226 of unit cell:	Completed after 15 iterations at t[s]:   2065.78
	Linear fluid (dielectric constant: 78.4, screening length: 8.12261 Bohr) occupying 0.546284 of unit cell:	Completed after 11 iterations at t[s]:   2092.65
	FillingsUpdate:  mu: -0.208000000  nElectrons: 287.807895  magneticMoment: [ Abs: 0.00043  Tot: +0.00001 ]
	SubspaceRotationAdjust: set factor to 0.0171
ElecMinimize: Iter:  18  G: -1541.536845521421355  |grad|_K:  1.424e-06  alpha:  6.750e-01  linmin:  4.272e-05  t[s]:   2133.80
	Linear fluid (dielectric constant: 78.4, screening length: 8.12261 Bohr) occupying 0.546094 of unit cell:	Completed after 17 iterations at t[s]:   2168.79
	Linear fluid (dielectric constant: 78.4, screening length: 8.12261 Bohr) occupying 0.546180 of unit cell:	Completed after 14 iterations at t[s]:   2196.21
	FillingsUpdate:  mu: -0.208000000  nElectrons: 287.828773  magneticMoment: [ Abs: 0.00043  Tot: +0.00001 ]
	SubspaceRotationAdjust: set factor to 0.0137
ElecMinimize: Iter:  19  G: -1541.537003698144190  |grad|_K:  1.440e-06  alpha:  3.727e-01  linmin:  1.607e-05  t[s]:   2237.36
	Linear fluid (dielectric constant: 78.4, screening length: 8.12261 Bohr) occupying 0.546147 of unit cell:	Completed after 15 iterations at t[s]:   2271.97
	Linear fluid (dielectric constant: 78.4, screening length: 8.12261 Bohr) occupying 0.546130 of unit cell:	Completed after 14 iterations at t[s]:   2299.32
	FillingsUpdate:  mu: -0.208000000  nElectrons: 287.819706  magneticMoment: [ Abs: 0.00040  Tot: +0.00001 ]
	SubspaceRotationAdjust: set factor to 0.0129
ElecMinimize: Iter:  20  G: -1541.537241125147375  |grad|_K:  1.259e-06  alpha:  5.453e-01  linmin:  9.669e-05  t[s]:   2340.30
	Linear fluid (dielectric constant: 78.4, screening length: 8.12261 Bohr) occupying 0.546179 of unit cell:	Completed after 13 iterations at t[s]:   2374.66
	Linear fluid (dielectric constant: 78.4, screening length: 8.12261 Bohr) occupying 0.546199 of unit cell:	Completed after 12 iterations at t[s]:   2401.68
	FillingsUpdate:  mu: -0.208000000  nElectrons: 287.820345  magneticMoment: [ Abs: 0.00034  Tot: +0.00001 ]
	SubspaceRotationAdjust: set factor to 0.0145
ElecMinimize: Iter:  21  G: -1541.537505437527443  |grad|_K:  1.196e-06  alpha:  7.954e-01  linmin: -6.855e-05  t[s]:   2442.90
	Linear fluid (dielectric constant: 78.4, screening length: 8.12261 Bohr) occupying 0.546319 of unit cell:	Completed after 15 iterations at t[s]:   2477.53
	Linear fluid (dielectric constant: 78.4, screening length: 8.12261 Bohr) occupying 0.546304 of unit cell:	Completed after 8 iterations at t[s]:   2504.05
	FillingsUpdate:  mu: -0.208000000  nElectrons: 287.820731  magneticMoment: [ Abs: 0.00028  Tot: +0.00001 ]
	SubspaceRotationAdjust: set factor to 0.017
ElecMinimize: Iter:  22  G: -1541.537715542186106  |grad|_K:  9.872e-07  alpha:  6.930e-01  linmin: -2.738e-05  t[s]:   2545.28
	Linear fluid (dielectric constant: 78.4, screening length: 8.12261 Bohr) occupying 0.546369 of unit cell:	Completed after 13 iterations at t[s]:   2579.62
	Linear fluid (dielectric constant: 78.4, screening length: 8.12261 Bohr) occupying 0.546371 of unit cell:	Completed after 2 iterations at t[s]:   2605.08
	FillingsUpdate:  mu: -0.208000000  nElectrons: 287.817777  magneticMoment: [ Abs: 0.00025  Tot: +0.00001 ]
	SubspaceRotationAdjust: set factor to 0.0199
ElecMinimize: Iter:  23  G: -1541.537862306431634  |grad|_K:  9.798e-07  alpha:  7.127e-01  linmin:  1.028e-05  t[s]:   2646.21
	Linear fluid (dielectric constant: 78.4, screening length: 8.12261 Bohr) occupying 0.546388 of unit cell:	Completed after 13 iterations at t[s]:   2680.65
	Linear fluid (dielectric constant: 78.4, screening length: 8.12261 Bohr) occupying 0.546384 of unit cell:	Completed after 13 iterations at t[s]:   2707.83
	FillingsUpdate:  mu: -0.208000000  nElectrons: 287.829724  magneticMoment: [ Abs: 0.00024  Tot: +0.00001 ]
	SubspaceRotationAdjust: set factor to 0.0187
ElecMinimize: Iter:  24  G: -1541.537970006450223  |grad|_K:  1.224e-06  alpha:  5.331e-01  linmin:  2.526e-06  t[s]:   2748.97
	Linear fluid (dielectric constant: 78.4, screening length: 8.12261 Bohr) occupying 0.546330 of unit cell:	Completed after 14 iterations at t[s]:   2783.55
	Linear fluid (dielectric constant: 78.4, screening length: 8.12261 Bohr) occupying 0.546347 of unit cell:	Completed after 13 iterations at t[s]:   2810.54
	FillingsUpdate:  mu: -0.208000000  nElectrons: 287.820646  magneticMoment: [ Abs: 0.00025  Tot: +0.00000 ]
	SubspaceRotationAdjust: set factor to 0.0151
ElecMinimize: Iter:  25  G: -1541.538086575473926  |grad|_K:  1.169e-06  alpha:  3.674e-01  linmin:  1.094e-06  t[s]:   2851.61
	Linear fluid (dielectric constant: 78.4, screening length: 8.12261 Bohr) occupying 0.546257 of unit cell:	Completed after 13 iterations at t[s]:   2885.97
	Linear fluid (dielectric constant: 78.4, screening length: 8.12261 Bohr) occupying 0.546181 of unit cell:	Completed after 13 iterations at t[s]:   2913.11
	FillingsUpdate:  mu: -0.208000000  nElectrons: 287.832374  magneticMoment: [ Abs: 0.00026  Tot: +0.00000 ]
	SubspaceRotationAdjust: set factor to 0.0154
ElecMinimize: Iter:  26  G: -1541.538282295458885  |grad|_K:  1.132e-06  alpha:  6.759e-01  linmin: -8.662e-05  t[s]:   2954.22
	Linear fluid (dielectric constant: 78.4, screening length: 8.12261 Bohr) occupying 0.545897 of unit cell:	Completed after 14 iterations at t[s]:   2988.59
	Linear fluid (dielectric constant: 78.4, screening length: 8.12261 Bohr) occupying 0.545877 of unit cell:	Completed after 3 iterations at t[s]:   3014.20
	FillingsUpdate:  mu: -0.208000000  nElectrons: 287.837806  magneticMoment: [ Abs: 0.00025  Tot: +0.00000 ]
	SubspaceRotationAdjust: set factor to 0.0158
ElecMinimize: Iter:  27  G: -1541.538479411120761  |grad|_K:  9.960e-07  alpha:  7.228e-01  linmin:  8.798e-06  t[s]:   3055.33
	Linear fluid (dielectric constant: 78.4, screening length: 8.12261 Bohr) occupying 0.545530 of unit cell:	Completed after 15 iterations at t[s]:   3089.92
	Linear fluid (dielectric constant: 78.4, screening length: 8.12261 Bohr) occupying 0.545597 of unit cell:	Completed after 7 iterations at t[s]:   3116.24
	FillingsUpdate:  mu: -0.208000000  nElectrons: 287.844362  magneticMoment: [ Abs: 0.00022  Tot: +0.00000 ]
	SubspaceRotationAdjust: set factor to 0.0161
ElecMinimize: Iter:  28  G: -1541.538601661936582  |grad|_K:  7.346e-07  alpha:  5.850e-01  linmin: -6.101e-06  t[s]:   3157.23
	Linear fluid (dielectric constant: 78.4, screening length: 8.12261 Bohr) occupying 0.545390 of unit cell:	Completed after 12 iterations at t[s]:   3191.30
	Linear fluid (dielectric constant: 78.4, screening length: 8.12261 Bohr) occupying 0.545393 of unit cell:	Completed after 1 iterations at t[s]:   3216.53
	FillingsUpdate:  mu: -0.208000000  nElectrons: 287.846368  magneticMoment: [ Abs: 0.00017  Tot: +0.00000 ]
	SubspaceRotationAdjust: set factor to 0.0163
ElecMinimize: Iter:  29  G: -1541.538667094394668  |grad|_K:  5.423e-07  alpha:  5.746e-01  linmin:  1.609e-05  t[s]:   3257.49
	Linear fluid (dielectric constant: 78.4, screening length: 8.12261 Bohr) occupying 0.545260 of unit cell:	Completed after 13 iterations at t[s]:   3291.76
	Linear fluid (dielectric constant: 78.4, screening length: 8.12261 Bohr) occupying 0.545282 of unit cell:	Completed after 10 iterations at t[s]:   3318.45
	FillingsUpdate:  mu: -0.208000000  nElectrons: 287.852295  magneticMoment: [ Abs: 0.00013  Tot: +0.00000 ]
	SubspaceRotationAdjust: set factor to 0.0142
ElecMinimize: Iter:  30  G: -1541.538696958360333  |grad|_K:  4.736e-07  alpha:  4.823e-01  linmin: -2.741e-05  t[s]:   3359.47
	Linear fluid (dielectric constant: 78.4, screening length: 8.12261 Bohr) occupying 0.545184 of unit cell:	Completed after 13 iterations at t[s]:   3393.91
	Linear fluid (dielectric constant: 78.4, screening length: 8.12261 Bohr) occupying 0.545216 of unit cell:	Completed after 10 iterations at t[s]:   3420.57
	FillingsUpdate:  mu: -0.208000000  nElectrons: 287.849109  magneticMoment: [ Abs: 0.00010  Tot: +0.00000 ]
	SubspaceRotationAdjust: set factor to 0.0106
ElecMinimize: Iter:  31  G: -1541.538712401169050  |grad|_K:  3.626e-07  alpha:  3.257e-01  linmin:  5.100e-06  t[s]:   3461.73
	Linear fluid (dielectric constant: 78.4, screening length: 8.12261 Bohr) occupying 0.545176 of unit cell:	Completed after 11 iterations at t[s]:   3495.86
	Linear fluid (dielectric constant: 78.4, screening length: 8.12261 Bohr) occupying 0.545159 of unit cell:	Completed after 9 iterations at t[s]:   3522.37
	FillingsUpdate:  mu: -0.208000000  nElectrons: 287.851479  magneticMoment: [ Abs: 0.00007  Tot: +0.00000 ]
	SubspaceRotationAdjust: set factor to 0.0116
ElecMinimize: Iter:  32  G: -1541.538725089211994  |grad|_K:  2.472e-07  alpha:  4.576e-01  linmin: -2.456e-05  t[s]:   3563.51
	Linear fluid (dielectric constant: 78.4, screening length: 8.12261 Bohr) occupying 0.545133 of unit cell:	Completed after 9 iterations at t[s]:   3597.23
	Linear fluid (dielectric constant: 78.4, screening length: 8.12261 Bohr) occupying 0.545128 of unit cell:	Completed after 2 iterations at t[s]:   3622.60
	FillingsUpdate:  mu: -0.208000000  nElectrons: 287.852809  magneticMoment: [ Abs: 0.00006  Tot: +0.00000 ]
	SubspaceRotationAdjust: set factor to 0.0135
ElecMinimize: Iter:  33  G: -1541.538732027478773  |grad|_K:  1.909e-07  alpha:  5.377e-01  linmin: -6.576e-05  t[s]:   3663.59
	Linear fluid (dielectric constant: 78.4, screening length: 8.12261 Bohr) occupying 0.545109 of unit cell:	Completed after 10 iterations at t[s]:   3697.52
	Linear fluid (dielectric constant: 78.4, screening length: 8.12261 Bohr) occupying 0.545111 of unit cell:	Completed after 3 iterations at t[s]:   3723.19
	FillingsUpdate:  mu: -0.208000000  nElectrons: 287.852090  magneticMoment: [ Abs: 0.00006  Tot: +0.00000 ]
	SubspaceRotationAdjust: set factor to 0.0134
ElecMinimize: Iter:  34  G: -1541.538735716015708  |grad|_K:  1.681e-07  alpha:  4.780e-01  linmin:  4.323e-04  t[s]:   3764.15
	Linear fluid (dielectric constant: 78.4, screening length: 8.12261 Bohr) occupying 0.545099 of unit cell:	Completed after 11 iterations at t[s]:   3797.97
	Linear fluid (dielectric constant: 78.4, screening length: 8.12261 Bohr) occupying 0.545100 of unit cell:	Completed after 2 iterations at t[s]:   3823.38
	FillingsUpdate:  mu: -0.208000000  nElectrons: 287.854042  magneticMoment: [ Abs: 0.00005  Tot: +0.00000 ]
	SubspaceRotationAdjust: set factor to 0.0127
ElecMinimize: Iter:  35  G: -1541.538738281535871  |grad|_K:  1.513e-07  alpha:  4.360e-01  linmin:  7.146e-05  t[s]:   3864.48
	Linear fluid (dielectric constant: 78.4, screening length: 8.12261 Bohr) occupying 0.545090 of unit cell:	Completed after 10 iterations at t[s]:   3898.28
	Linear fluid (dielectric constant: 78.4, screening length: 8.12261 Bohr) occupying 0.545087 of unit cell:	Completed after 3 iterations at t[s]:   3923.84
	FillingsUpdate:  mu: -0.208000000  nElectrons: 287.854008  magneticMoment: [ Abs: 0.00006  Tot: +0.00000 ]
	SubspaceRotationAdjust: set factor to 0.014
ElecMinimize: Iter:  36  G: -1541.538740928019706  |grad|_K:  1.292e-07  alpha:  5.469e-01  linmin: -5.310e-04  t[s]:   3964.79
	Linear fluid (dielectric constant: 78.4, screening length: 8.12261 Bohr) occupying 0.545077 of unit cell:	Completed after 4 iterations at t[s]:   3997.69
	Linear fluid (dielectric constant: 78.4, screening length: 8.12261 Bohr) occupying 0.545073 of unit cell:	Completed after 3 iterations at t[s]:   4023.14
	FillingsUpdate:  mu: -0.208000000  nElectrons: 287.855028  magneticMoment: [ Abs: 0.00005  Tot: +0.00000 ]
	SubspaceRotationAdjust: set factor to 0.0161
ElecMinimize: Iter:  37  G: -1541.538743668588268  |grad|_K:  1.324e-07  alpha:  7.674e-01  linmin:  1.180e-04  t[s]:   4064.19
	Linear fluid (dielectric constant: 78.4, screening length: 8.12261 Bohr) occupying 0.545059 of unit cell:	Completed after 10 iterations at t[s]:   4098.11
	Linear fluid (dielectric constant: 78.4, screening length: 8.12261 Bohr) occupying 0.545062 of unit cell:	Completed after 7 iterations at t[s]:   4124.25
	FillingsUpdate:  mu: -0.208000000  nElectrons: 287.856702  magneticMoment: [ Abs: 0.00005  Tot: +0.00000 ]
	SubspaceRotationAdjust: set factor to 0.0161
ElecMinimize: Iter:  38  G: -1541.538745898660864  |grad|_K:  1.394e-07  alpha:  6.079e-01  linmin: -6.275e-05  t[s]:   4165.25
	Linear fluid (dielectric constant: 78.4, screening length: 8.12261 Bohr) occupying 0.545049 of unit cell:	Completed after 11 iterations at t[s]:   4199.19
	Linear fluid (dielectric constant: 78.4, screening length: 8.12261 Bohr) occupying 0.545054 of unit cell:	Completed after 11 iterations at t[s]:   4226.00
	FillingsUpdate:  mu: -0.208000000  nElectrons: 287.855905  magneticMoment: [ Abs: 0.00004  Tot: +0.00000 ]
	SubspaceRotationAdjust: set factor to 0.013
ElecMinimize: Iter:  39  G: -1541.538747377356685  |grad|_K:  1.280e-07  alpha:  3.600e-01  linmin:  1.529e-05  t[s]:   4267.01
	Linear fluid (dielectric constant: 78.4, screening length: 8.12261 Bohr) occupying 0.545048 of unit cell:	Completed after 10 iterations at t[s]:   4300.84
	Linear fluid (dielectric constant: 78.4, screening length: 8.12261 Bohr) occupying 0.545046 of unit cell:	Completed after 6 iterations at t[s]:   4326.82
	FillingsUpdate:  mu: -0.208000000  nElectrons: 287.857034  magneticMoment: [ Abs: 0.00004  Tot: +0.00000 ]
	SubspaceRotationAdjust: set factor to 0.014
ElecMinimize: Iter:  40  G: -1541.538749003982730  |grad|_K:  9.913e-08  alpha:  4.714e-01  linmin: -1.498e-05  t[s]:   4367.88
	Linear fluid (dielectric constant: 78.4, screening length: 8.12261 Bohr) occupying 0.545043 of unit cell:	Completed after 7 iterations at t[s]:   4401.36
	Linear fluid (dielectric constant: 78.4, screening length: 8.12261 Bohr) occupying 0.545042 of unit cell:	Completed after 2 iterations at t[s]:   4426.82
	FillingsUpdate:  mu: -0.208000000  nElectrons: 287.857406  magneticMoment: [ Abs: 0.00003  Tot: +0.00000 ]
	SubspaceRotationAdjust: set factor to 0.0164
ElecMinimize: Iter:  41  G: -1541.538750270830178  |grad|_K:  9.027e-08  alpha:  6.106e-01  linmin: -1.075e-04  t[s]:   4467.86
	Linear fluid (dielectric constant: 78.4, screening length: 8.12261 Bohr) occupying 0.545041 of unit cell:	Completed after 10 iterations at t[s]:   4501.84
	Linear fluid (dielectric constant: 78.4, screening length: 8.12261 Bohr) occupying 0.545041 of unit cell:	Completed after 2 iterations at t[s]:   4527.17
	FillingsUpdate:  mu: -0.208000000  nElectrons: 287.856586  magneticMoment: [ Abs: 0.00003  Tot: +0.00000 ]
	SubspaceRotationAdjust: set factor to 0.0161
ElecMinimize: Iter:  42  G: -1541.538751205317112  |grad|_K:  9.734e-08  alpha:  5.391e-01  linmin:  5.064e-04  t[s]:   4568.26
	Linear fluid (dielectric constant: 78.4, screening length: 8.12261 Bohr) occupying 0.545043 of unit cell:	Completed after 10 iterations at t[s]:   4602.04
	Linear fluid (dielectric constant: 78.4, screening length: 8.12261 Bohr) occupying 0.545042 of unit cell:	Completed after 9 iterations at t[s]:   4628.62
	FillingsUpdate:  mu: -0.208000000  nElectrons: 287.857166  magneticMoment: [ Abs: 0.00003  Tot: +0.00000 ]
	SubspaceRotationAdjust: set factor to 0.0143
ElecMinimize: Iter:  43  G: -1541.538751898934606  |grad|_K:  8.755e-08  alpha:  3.611e-01  linmin: -1.131e-04  t[s]:   4669.77
	Linear fluid (dielectric constant: 78.4, screening length: 8.12261 Bohr) occupying 0.545044 of unit cell:	Completed after 8 iterations at t[s]:   4703.31
	Linear fluid (dielectric constant: 78.4, screening length: 8.12261 Bohr) occupying 0.545045 of unit cell:	Completed after 7 iterations at t[s]:   4729.53
	FillingsUpdate:  mu: -0.208000000  nElectrons: 287.856186  magneticMoment: [ Abs: 0.00003  Tot: +0.00000 ]
	SubspaceRotationAdjust: set factor to 0.0158
ElecMinimize: Iter:  44  G: -1541.538752843782277  |grad|_K:  7.752e-08  alpha:  5.802e-01  linmin: -6.571e-05  t[s]:   4770.54
	Linear fluid (dielectric constant: 78.4, screening length: 8.12261 Bohr) occupying 0.545048 of unit cell:	Completed after 4 iterations at t[s]:   4803.45
	Linear fluid (dielectric constant: 78.4, screening length: 8.12261 Bohr) occupying 0.545049 of unit cell:	Completed after 4 iterations at t[s]:   4829.17
	FillingsUpdate:  mu: -0.208000000  nElectrons: 287.855490  magneticMoment: [ Abs: 0.00003  Tot: +0.00000 ]
	SubspaceRotationAdjust: set factor to 0.0184
ElecMinimize: Iter:  45  G: -1541.538753784285291  |grad|_K:  7.839e-08  alpha:  7.420e-01  linmin:  8.999e-05  t[s]:   4870.15
	Linear fluid (dielectric constant: 78.4, screening length: 8.12261 Bohr) occupying 0.545054 of unit cell:	Completed after 9 iterations at t[s]:   4903.91
	Linear fluid (dielectric constant: 78.4, screening length: 8.12261 Bohr) occupying 0.545054 of unit cell:	Completed after 1 iterations at t[s]:   4929.03
	FillingsUpdate:  mu: -0.208000000  nElectrons: 287.855516  magneticMoment: [ Abs: 0.00004  Tot: +0.00000 ]
	SubspaceRotationAdjust: set factor to 0.018
ElecMinimize: Iter:  46  G: -1541.538754650507144  |grad|_K:  9.020e-08  alpha:  6.700e-01  linmin:  2.908e-04  t[s]:   4970.07
	Linear fluid (dielectric constant: 78.4, screening length: 8.12261 Bohr) occupying 0.545060 of unit cell:	Completed after 11 iterations at t[s]:   5004.22
	Linear fluid (dielectric constant: 78.4, screening length: 8.12261 Bohr) occupying 0.545057 of unit cell:	Completed after 10 iterations at t[s]:   5030.82
	FillingsUpdate:  mu: -0.208000000  nElectrons: 287.854290  magneticMoment: [ Abs: 0.00003  Tot: +0.00000 ]
	SubspaceRotationAdjust: set factor to 0.0144
ElecMinimize: Iter:  47  G: -1541.538755209531701  |grad|_K:  8.793e-08  alpha:  3.408e-01  linmin:  3.686e-06  t[s]:   5071.97
	Linear fluid (dielectric constant: 78.4, screening length: 8.12261 Bohr) occupying 0.545060 of unit cell:	Completed after 7 iterations at t[s]:   5105.26
	Linear fluid (dielectric constant: 78.4, screening length: 8.12261 Bohr) occupying 0.545061 of unit cell:	Completed after 4 iterations at t[s]:   5131.12
	FillingsUpdate:  mu: -0.208000000  nElectrons: 287.854355  magneticMoment: [ Abs: 0.00003  Tot: +0.00000 ]
	SubspaceRotationAdjust: set factor to 0.0151
ElecMinimize: Iter:  48  G: -1541.538755977594064  |grad|_K:  6.988e-08  alpha:  4.721e-01  linmin: -5.602e-06  t[s]:   5172.09
	Linear fluid (dielectric constant: 78.4, screening length: 8.12261 Bohr) occupying 0.545063 of unit cell:	Completed after 4 iterations at t[s]:   5204.94
	Linear fluid (dielectric constant: 78.4, screening length: 8.12261 Bohr) occupying 0.545064 of unit cell:	Completed after 3 iterations at t[s]:   5230.44
	FillingsUpdate:  mu: -0.208000000  nElectrons: 287.854194  magneticMoment: [ Abs: 0.00003  Tot: +0.00000 ]
	SubspaceRotationAdjust: set factor to 0.0172
ElecMinimize: Iter:  49  G: -1541.538756658167131  |grad|_K:  6.875e-08  alpha:  6.613e-01  linmin: -1.215e-05  t[s]:   5271.53
	Linear fluid (dielectric constant: 78.4, screening length: 8.12261 Bohr) occupying 0.545065 of unit cell:	Completed after 10 iterations at t[s]:   5305.48
	Linear fluid (dielectric constant: 78.4, screening length: 8.12261 Bohr) occupying 0.545065 of unit cell:	Completed after 7 iterations at t[s]:   5331.62
	FillingsUpdate:  mu: -0.208000000  nElectrons: 287.853353  magneticMoment: [ Abs: 0.00002  Tot: +0.00000 ]
	SubspaceRotationAdjust: set factor to 0.0155
ElecMinimize: Iter:  50  G: -1541.538757109773542  |grad|_K:  7.100e-08  alpha:  4.459e-01  linmin:  1.406e-04  t[s]:   5372.60
	Linear fluid (dielectric constant: 78.4, screening length: 8.12261 Bohr) occupying 0.545065 of unit cell:	Completed after 9 iterations at t[s]:   5406.30
	Linear fluid (dielectric constant: 78.4, screening length: 8.12261 Bohr) occupying 0.545065 of unit cell:	Completed after 2 iterations at t[s]:   5431.73
	FillingsUpdate:  mu: -0.208000000  nElectrons: 287.853738  magneticMoment: [ Abs: 0.00002  Tot: +0.00000 ]
	SubspaceRotationAdjust: set factor to 0.0135
ElecMinimize: Iter:  51  G: -1541.538757510970754  |grad|_K:  6.057e-08  alpha:  3.814e-01  linmin:  2.581e-04  t[s]:   5472.81
	Linear fluid (dielectric constant: 78.4, screening length: 8.12261 Bohr) occupying 0.545063 of unit cell:	Completed after 7 iterations at t[s]:   5506.16
	Linear fluid (dielectric constant: 78.4, screening length: 8.12261 Bohr) occupying 0.545062 of unit cell:	Completed after 2 iterations at t[s]:   5531.64
	FillingsUpdate:  mu: -0.208000000  nElectrons: 287.853326  magneticMoment: [ Abs: 0.00002  Tot: +0.00000 ]
	SubspaceRotationAdjust: set factor to 0.0159
ElecMinimize: Iter:  52  G: -1541.538757955696383  |grad|_K:  5.092e-08  alpha:  5.790e-01  linmin: -4.101e-04  t[s]:   5572.65
	Linear fluid (dielectric constant: 78.4, screening length: 8.12261 Bohr) occupying 0.545060 of unit cell:	Completed after 3 iterations at t[s]:   5605.36
	Linear fluid (dielectric constant: 78.4, screening length: 8.12261 Bohr) occupying 0.545059 of unit cell:	Completed after 0 iterations at t[s]:   5630.27
	FillingsUpdate:  mu: -0.208000000  nElectrons: 287.853077  magneticMoment: [ Abs: 0.00002  Tot: +0.00000 ]
	SubspaceRotationAdjust: set factor to 0.0182
ElecMinimize: Iter:  53  G: -1541.538758350641274  |grad|_K:  4.868e-08  alpha:  6.992e-01  linmin: -1.747e-04  t[s]:   5671.23
	Linear fluid (dielectric constant: 78.4, screening length: 8.12261 Bohr) occupying 0.545056 of unit cell:	Completed after 3 iterations at t[s]:   5704.02
	Linear fluid (dielectric constant: 78.4, screening length: 8.12261 Bohr) occupying 0.545056 of unit cell:	Completed after 0 iterations at t[s]:   5728.88
	FillingsUpdate:  mu: -0.208000000  nElectrons: 287.853289  magneticMoment: [ Abs: 0.00002  Tot: +0.00000 ]
	SubspaceRotationAdjust: set factor to 0.0203
ElecMinimize: Iter:  54  G: -1541.538758702665291  |grad|_K:  4.599e-08  alpha:  6.946e-01  linmin:  3.897e-05  t[s]:   5769.95
	Linear fluid (dielectric constant: 78.4, screening length: 8.12261 Bohr) occupying 0.545053 of unit cell:	Completed after 3 iterations at t[s]:   5802.62
	Linear fluid (dielectric constant: 78.4, screening length: 8.12261 Bohr) occupying 0.545053 of unit cell:	Completed after 0 iterations at t[s]:   5827.46
	FillingsUpdate:  mu: -0.208000000  nElectrons: 287.853191  magneticMoment: [ Abs: 0.00002  Tot: +0.00000 ]
	SubspaceRotationAdjust: set factor to 0.0218
ElecMinimize: Iter:  55  G: -1541.538758997043942  |grad|_K:  4.129e-08  alpha:  6.606e-01  linmin:  2.037e-04  t[s]:   5868.56
	Linear fluid (dielectric constant: 78.4, screening length: 8.12261 Bohr) occupying 0.545051 of unit cell:	Completed after 7 iterations at t[s]:   5901.98
	Linear fluid (dielectric constant: 78.4, screening length: 8.12261 Bohr) occupying 0.545051 of unit cell:	Completed after 0 iterations at t[s]:   5926.89
	FillingsUpdate:  mu: -0.208000000  nElectrons: 287.853521  magneticMoment: [ Abs: 0.00002  Tot: +0.00000 ]
	SubspaceRotationAdjust: set factor to 0.0224
ElecMinimize: Iter:  56  G: -1541.538759202714800  |grad|_K:  3.583e-08  alpha:  5.781e-01  linmin:  3.252e-04  t[s]:   5967.92
	Linear fluid (dielectric constant: 78.4, screening length: 8.12261 Bohr) occupying 0.545050 of unit cell:	Completed after 7 iterations at t[s]:   6001.40
	Linear fluid (dielectric constant: 78.4, screening length: 8.12261 Bohr) occupying 0.545050 of unit cell:	Completed after 2 iterations at t[s]:   6026.85
	FillingsUpdate:  mu: -0.208000000  nElectrons: 287.853389  magneticMoment: [ Abs: 0.00002  Tot: -0.00000 ]
	SubspaceRotationAdjust: set factor to 0.02
ElecMinimize: Iter:  57  G: -1541.538759322215128  |grad|_K:  3.827e-08  alpha:  4.557e-01  linmin:  1.415e-04  t[s]:   6067.91
	Linear fluid (dielectric constant: 78.4, screening length: 8.12261 Bohr) occupying 0.545048 of unit cell:	Completed after 10 iterations at t[s]:   6101.62
	Linear fluid (dielectric constant: 78.4, screening length: 8.12261 Bohr) occupying 0.545049 of unit cell:	Completed after 7 iterations at t[s]:   6127.74
	FillingsUpdate:  mu: -0.208000000  nElectrons: 287.853776  magneticMoment: [ Abs: 0.00002  Tot: -0.00001 ]
	SubspaceRotationAdjust: set factor to 0.0142
ElecMinimize: Iter:  58  G: -1541.538759387786968  |grad|_K:  2.786e-08  alpha:  2.196e-01  linmin:  2.129e-04  t[s]:   6168.84
	Linear fluid (dielectric constant: 78.4, screening length: 8.12261 Bohr) occupying 0.545048 of unit cell:	Completed after 1 iterations at t[s]:   6201.30
	Linear fluid (dielectric constant: 78.4, screening length: 8.12261 Bohr) occupying 0.545047 of unit cell:	Completed after 2 iterations at t[s]:   6226.71
	FillingsUpdate:  mu: -0.208000000  nElectrons: 287.853715  magneticMoment: [ Abs: 0.00002  Tot: -0.00001 ]
	SubspaceRotationAdjust: set factor to 0.0193
ElecMinimize: Iter:  59  G: -1541.538759465569456  |grad|_K:  2.127e-08  alpha:  4.813e-01  linmin: -2.321e-04  t[s]:   6267.75
ElecMinimize: Converged (|Delta G|<1.000000e-07 for 2 iters).
Setting wave functions to eigenvectors of Hamiltonian
Converging empty states (this may take a while): |deigs|: 2.615e-04

Computing DFT-D3 correction:
# coordination-number Pt 7.160 8.436 5.944 9.313 9.434 9.397 9.418 9.154 7.160 9.150 9.416 7.156 9.396 9.435 9.317 8.439 7.163 5.941
# diagonal-C6 Pt 336.87 336.87 336.87 336.87 336.87 336.87 336.87 336.87 336.87 336.87 336.87 336.87 336.87 336.87 336.87 336.87 336.87 336.87
EvdW_6 =   -0.151746
EvdW_8 =   -0.247079

# Ionic positions in cartesian coordinates:
ion Pt   0.000256001143375   6.844439862172166  64.761169186290587 1
ion Pt   0.000216603247795  14.166059196946671  62.563911371549828 1
ion Pt   5.231823978889443   0.222285215146282  45.283171011313328 1
ion Pt   0.000051302297331   5.225645223014523  59.765506737233132 1
ion Pt  -0.000024865724931  12.327052892190807  57.340086156901165 1
ion Pt  -0.000011827327536   3.417579196476006  54.915854156907621 1
ion Pt  -0.000130754957063  10.450982811954880  52.261701683687455 1
ion Pt   5.231925556928811   1.675431291256185  50.105825561736637 1
ion Pt   5.231857439584799   8.648759892621632  47.212244313543046 1
ion Pt   2.615991258859348   9.660574937586066  60.881288792798223 1
ion Pt   2.616101427878375   0.885355329678504  58.724171978395191 1
ion Pt   2.616226111669782   2.687342725328687  63.776584910266294 1
ion Pt   2.615944366748001   7.917992900139460  56.070084446156287 1
ion Pt   2.615960620739919  14.704413794201214  53.646046212639916 1
ion Pt   2.615927717474599   6.110352045927517  51.221756875395656 1
ion Pt   2.615804359793453  12.865828084247186  48.422430646441782 1
ion Pt   2.615818245414822   4.491853068608293  46.228011759312778 1
ion Pt   2.616235457339671  11.113945532503909  65.706537199430755 1

# Forces in Cartesian coordinates:
force Pt  -0.000000060002663   0.000439018556246   0.000547087437539 1
force Pt   0.000000572709015  -0.000230538702705   0.000488396616730 1
force Pt  -0.000000865352609  -0.000128328818324  -0.000390660795279 1
force Pt  -0.000000322708265   0.000104681112178  -0.001225241498870 1
force Pt  -0.000000699184534   0.000029938030692   0.000077232895065 1
force Pt  -0.000001255897720  -0.000116838810986  -0.000269611023906 1
force Pt  -0.000000546278870   0.000044891477658   0.001062251456546 1
force Pt  -0.000001200026771  -0.000065171481076   0.001599301234975 1
force Pt  -0.000001975108934   0.000108273619709  -0.000151588621866 1
force Pt   0.000001402202914   0.000072529131284  -0.001503795115995 1
force Pt   0.000000528369251  -0.000013177949897  -0.001016062510474 1
force Pt   0.000001498917879  -0.000152898682066   0.000274649113991 1
force Pt   0.000000584960253   0.000108384785146   0.000290589720517 1
force Pt   0.000000598946243  -0.000027663295972  -0.000067390726952 1
force Pt   0.000000057831216  -0.000116961447962   0.001275980991651 1
force Pt  -0.000001118538359   0.000236992999826  -0.000362457103661 1
force Pt  -0.000000431194071  -0.000437861869282  -0.000413510600542 1
force Pt  -0.000000990903396   0.000148755071970   0.000492110891377 1

# Energy components:
   A_diel =        0.0340819448569785
   Eewald =    14242.9153499741441919
       EH =    15689.0476326350471936
     Eloc =   -31811.1257646103331354
      Enl =      -18.9473217636983406
     EvdW =       -0.3988250708568336
      Exc =     -511.9916682170739364
 Exc_core =      295.0448774807525751
       KE =      514.0041234666837227
  MuShift =        0.0076438465180036
-------------------------------------
     Etot =    -1601.4098703139588906
       TS =        0.0024618071029645
-------------------------------------
        F =    -1601.4123321210618087
      muN =      -59.8735726554922465
-------------------------------------
        G =    -1541.5387594655694556


Dumping 'jdft.fillings' ... done
Dumping 'jdft.wfns' ... done
Dumping 'jdft.fluidState' ... done
Dumping 'jdft.ionpos' ... done
Dumping 'jdft.lattice' ... done
Dumping 'jdft.eigenvals' ... done
Dumping 'jdft.eigStats' ... 
	eMin: -2.159183 at state 49 ( [ +0.500000 +0.000000 +0.000000 ] spin -1 )
	HOMO: -0.208179 at state 30 ( [ +0.083333 +0.250000 +0.000000 ] spin -1 )
	mu  : -0.208000
	LUMO: -0.207941 at state 49 ( [ +0.500000 +0.000000 +0.000000 ] spin -1 )
	eMax: +0.099684 at state 47 ( [ +0.416667 +0.500000 +0.000000 ] spin -1 )
	HOMO-LUMO gap: +0.000238
	Optical gap  : +0.001706 at state 31 ( [ +0.083333 +0.500000 +0.000000 ] spin -1 )
Dumping 'jdft.Ecomponents' ... done
IonicMinimize: Iter:   0  G: -1541.538759465569456  |grad|_K:  4.756e-04  t[s]:   6444.19

#--- Lowdin population analysis ---
# oxidation-state Pt +0.012 -0.040 +0.095 +0.015 +0.015 +0.015 +0.011 +0.011 +0.042 +0.010 +0.011 +0.042 +0.014 +0.015 +0.015 -0.039 +0.012 +0.095
# magnetic-moments Pt -0.000 -0.000 -0.000 +0.000 +0.000 +0.000 -0.000 -0.000 -0.000 +0.000 +0.000 +0.000 +0.000 +0.000 +0.000 -0.000 -0.000 -0.000


Computing DFT-D3 correction:
# coordination-number Pt 7.156 8.434 5.943 9.312 9.436 9.401 9.418 9.153 7.157 9.149 9.415 7.153 9.399 9.437 9.316 8.437 7.160 5.940
# diagonal-C6 Pt 336.87 336.87 336.87 336.87 336.87 336.87 336.87 336.87 336.87 336.87 336.87 336.87 336.87 336.87 336.87 336.87 336.87 336.87
EvdW_6 =   -0.151750
EvdW_8 =   -0.247086
Shifting auxilliary hamiltonian by -0.000033 to set nElectrons=287.853715

-------- Electronic minimization -----------
	Linear fluid (dielectric constant: 78.4, screening length: 8.12261 Bohr) occupying 0.545020 of unit cell:	Completed after 8 iterations at t[s]:   6483.16
	FillingsUpdate:  mu: -0.208000000  nElectrons: 287.853715  magneticMoment: [ Abs: 0.00035  Tot: +0.00028 ]
ElecMinimize: Iter:   0  G: -1541.538763174386986  |grad|_K:  2.690e-07  alpha:  1.000e+00
	Linear fluid (dielectric constant: 78.4, screening length: 8.12261 Bohr) occupying 0.545022 of unit cell:	Completed after 14 iterations at t[s]:   6564.24
	Linear fluid (dielectric constant: 78.4, screening length: 8.12261 Bohr) occupying 0.545021 of unit cell:	Completed after 14 iterations at t[s]:   6591.53
	FillingsUpdate:  mu: -0.208000000  nElectrons: 287.851924  magneticMoment: [ Abs: 0.00033  Tot: +0.00029 ]
	SubspaceRotationAdjust: set factor to 0.0146
ElecMinimize: Iter:   1  G: -1541.538766900179326  |grad|_K:  1.750e-07  alpha:  2.415e-01  linmin: -1.023e-03  t[s]:   6632.61
	Linear fluid (dielectric constant: 78.4, screening length: 8.12261 Bohr) occupying 0.545022 of unit cell:	Completed after 11 iterations at t[s]:   6666.69
	Linear fluid (dielectric constant: 78.4, screening length: 8.12261 Bohr) occupying 0.545022 of unit cell:	Completed after 0 iterations at t[s]:   6691.82
	FillingsUpdate:  mu: -0.208000000  nElectrons: 287.853567  magneticMoment: [ Abs: 0.00031  Tot: +0.00029 ]
	SubspaceRotationAdjust: set factor to 0.0119
ElecMinimize: Iter:   2  G: -1541.538768443545223  |grad|_K:  8.155e-08  alpha:  2.382e-01  linmin:  2.382e-03  t[s]:   6732.81
	Linear fluid (dielectric constant: 78.4, screening length: 8.12261 Bohr) occupying 0.545023 of unit cell:	Completed after 2 iterations at t[s]:   6765.49
	Linear fluid (dielectric constant: 78.4, screening length: 8.12261 Bohr) occupying 0.545023 of unit cell:	Completed after 2 iterations at t[s]:   6790.95
	FillingsUpdate:  mu: -0.208000000  nElectrons: 287.853644  magneticMoment: [ Abs: 0.00030  Tot: +0.00029 ]
	SubspaceRotationAdjust: set factor to 0.0166
ElecMinimize: Iter:   3  G: -1541.538769090641154  |grad|_K:  5.177e-08  alpha:  4.620e-01  linmin: -1.997e-03  t[s]:   6832.08
	Linear fluid (dielectric constant: 78.4, screening length: 8.12261 Bohr) occupying 0.545024 of unit cell:	Completed after 6 iterations at t[s]:   6865.26
	Linear fluid (dielectric constant: 78.4, screening length: 8.12261 Bohr) occupying 0.545024 of unit cell:	Completed after 0 iterations at t[s]:   6890.26
	FillingsUpdate:  mu: -0.208000000  nElectrons: 287.853573  magneticMoment: [ Abs: 0.00029  Tot: +0.00029 ]
	SubspaceRotationAdjust: set factor to 0.0191
ElecMinimize: Iter:   4  G: -1541.538769428652813  |grad|_K:  4.977e-08  alpha:  5.819e-01  linmin: -3.956e-03  t[s]:   6931.77
	Linear fluid (dielectric constant: 78.4, screening length: 8.12261 Bohr) occupying 0.545023 of unit cell:	Completed after 9 iterations at t[s]:   6965.54
	Linear fluid (dielectric constant: 78.4, screening length: 8.12261 Bohr) occupying 0.545023 of unit cell:	Completed after 0 iterations at t[s]:   6990.76
	FillingsUpdate:  mu: -0.208000000  nElectrons: 287.854237  magneticMoment: [ Abs: 0.00029  Tot: +0.00028 ]
	SubspaceRotationAdjust: set factor to 0.0166
ElecMinimize: Iter:   5  G: -1541.538769736378526  |grad|_K:  6.305e-08  alpha:  5.646e-01  linmin:  1.394e-03  t[s]:   7031.82
	Linear fluid (dielectric constant: 78.4, screening length: 8.12261 Bohr) occupying 0.545022 of unit cell:	Completed after 10 iterations at t[s]:   7065.60
	Linear fluid (dielectric constant: 78.4, screening length: 8.12261 Bohr) occupying 0.545023 of unit cell:	Completed after 7 iterations at t[s]:   7092.05
	FillingsUpdate:  mu: -0.208000000  nElectrons: 287.853874  magneticMoment: [ Abs: 0.00029  Tot: +0.00027 ]
	SubspaceRotationAdjust: set factor to 0.0135
ElecMinimize: Iter:   6  G: -1541.538769984506189  |grad|_K:  4.802e-08  alpha:  3.088e-01  linmin:  1.261e-04  t[s]:   7133.32
	Linear fluid (dielectric constant: 78.4, screening length: 8.12261 Bohr) occupying 0.545022 of unit cell:	Completed after 3 iterations at t[s]:   7166.11
	Linear fluid (dielectric constant: 78.4, screening length: 8.12261 Bohr) occupying 0.545021 of unit cell:	Completed after 2 iterations at t[s]:   7191.52
	FillingsUpdate:  mu: -0.208000000  nElectrons: 287.854187  magneticMoment: [ Abs: 0.00028  Tot: +0.00027 ]
	SubspaceRotationAdjust: set factor to 0.0166
ElecMinimize: Iter:   7  G: -1541.538770281714278  |grad|_K:  3.915e-08  alpha:  6.032e-01  linmin: -1.087e-03  t[s]:   7232.65
	Linear fluid (dielectric constant: 78.4, screening length: 8.12261 Bohr) occupying 0.545019 of unit cell:	Completed after 9 iterations at t[s]:   7266.32
	Linear fluid (dielectric constant: 78.4, screening length: 8.12261 Bohr) occupying 0.545020 of unit cell:	Completed after 2 iterations at t[s]:   7291.74
	FillingsUpdate:  mu: -0.208000000  nElectrons: 287.854622  magneticMoment: [ Abs: 0.00028  Tot: +0.00027 ]
	SubspaceRotationAdjust: set factor to 0.0141
ElecMinimize: Iter:   8  G: -1541.538770419504772  |grad|_K:  4.667e-08  alpha:  4.254e-01  linmin:  3.280e-04  t[s]:   7332.90
	Linear fluid (dielectric constant: 78.4, screening length: 8.12261 Bohr) occupying 0.545017 of unit cell:	Completed after 9 iterations at t[s]:   7366.78
	Linear fluid (dielectric constant: 78.4, screening length: 8.12261 Bohr) occupying 0.545018 of unit cell:	Completed after 7 iterations at t[s]:   7393.05
	FillingsUpdate:  mu: -0.208000000  nElectrons: 287.854382  magneticMoment: [ Abs: 0.00028  Tot: +0.00027 ]
	SubspaceRotationAdjust: set factor to 0.0125
ElecMinimize: Iter:   9  G: -1541.538770518987121  |grad|_K:  2.956e-08  alpha:  2.350e-01  linmin: -2.522e-05  t[s]:   7434.25
	Linear fluid (dielectric constant: 78.4, screening length: 8.12261 Bohr) occupying 0.545018 of unit cell:	Completed after 2 iterations at t[s]:   7466.94
	Linear fluid (dielectric constant: 78.4, screening length: 8.12261 Bohr) occupying 0.545017 of unit cell:	Completed after 2 iterations at t[s]:   7492.40
	FillingsUpdate:  mu: -0.208000000  nElectrons: 287.854300  magneticMoment: [ Abs: 0.00028  Tot: +0.00027 ]
	SubspaceRotationAdjust: set factor to 0.0154
ElecMinimize: Iter:  10  G: -1541.538770605908667  |grad|_K:  2.226e-08  alpha:  4.655e-01  linmin: -1.916e-03  t[s]:   7533.33
ElecMinimize: Converged (|Delta G|<1.000000e-07 for 2 iters).
Setting wave functions to eigenvectors of Hamiltonian
Converging empty states (this may take a while): |deigs|: 9.581e-09

Computing DFT-D3 correction:
# coordination-number Pt 7.156 8.434 5.943 9.312 9.436 9.401 9.418 9.153 7.157 9.149 9.415 7.153 9.399 9.437 9.316 8.437 7.160 5.940
# diagonal-C6 Pt 336.87 336.87 336.87 336.87 336.87 336.87 336.87 336.87 336.87 336.87 336.87 336.87 336.87 336.87 336.87 336.87 336.87 336.87
EvdW_6 =   -0.151750
EvdW_8 =   -0.247086

# Ionic positions in cartesian coordinates:
ion Pt   0.000256175655124   6.844878657188055  64.761676980263630 1
ion Pt   0.000217410471222  14.165828434703609  62.564360474702063 1
ion Pt   5.231823348051246   0.222156662787600  45.282741057053549 1
ion Pt   0.000051214103478   5.225749680586342  59.764242202269770 1
ion Pt  -0.000025330395053  12.327082606681142  57.340124096331742 1
ion Pt  -0.000012848710844   3.417462134124663  54.915545252419228 1
ion Pt  -0.000131066721520  10.451027479892179  52.262724641679512 1
ion Pt   5.231924591416452   1.675365896234751  50.107385569507123 1
ion Pt   5.231855698990277   8.648867942700983  47.212053431456688 1
ion Pt   2.615992895576674   9.660647243176992  60.879745704217733 1
ion Pt   2.616102190762038   0.885341928188250  58.723116622420221 1
ion Pt   2.616227845102073   2.687189603106264  63.776820265915795 1
ion Pt   2.615945186222666   7.918101061384249  56.070335742412311 1
ion Pt   2.615961454200574  14.704385907364886  53.645939528448473 1
ion Pt   2.615928009820228   6.110234860939196  51.222993562922817 1
ion Pt   2.615803475769507  12.866064853706655  48.422028895873630 1
ion Pt   2.615818048735163   4.491414983198653  46.227558955247744 1
ion Pt   2.616234700950687  11.114094064035521  65.706990016857645 1

# Forces in Cartesian coordinates:
force Pt  -0.000000171045913   0.000359422028652   0.000482649209236 1
force Pt   0.000000400306279  -0.000191404823734   0.000598789091958 1
force Pt  -0.000000736401785  -0.000114352967600  -0.000603403588950 1
force Pt   0.000000533785398   0.000112760917077  -0.000838466525652 1
force Pt  -0.000000166124185   0.000053068859913   0.000146269034604 1
force Pt  -0.000000861055653  -0.000137585717180  -0.000227357691735 1
force Pt  -0.000000534153731   0.000078528063402   0.000825454210441 1
force Pt  -0.000001873516707  -0.000100483733855   0.000932374823390 1
force Pt  -0.000002639244896   0.000037692154504  -0.000431779660548 1
force Pt   0.000002429529090   0.000108174128524  -0.000854981713630 1
force Pt   0.000000947321117  -0.000060936089016  -0.000733493794500 1
force Pt   0.000001582998244  -0.000068168570575   0.000453414853522 1
force Pt   0.000000663909962   0.000133990827771   0.000350261186160 1
force Pt   0.000000680756029  -0.000059521916826  -0.000058073591670 1
force Pt  -0.000000379882093  -0.000109028240207   0.000908938726448 1
force Pt  -0.000001281762873   0.000186595947374  -0.000552446200220 1
force Pt  -0.000001173711622  -0.000365350274679  -0.000429085808937 1
force Pt  -0.000001484229010   0.000109262780646   0.000561797218501 1

# Energy components:
   A_diel =        0.0339431733090994
   Eewald =    14243.0571478159326944
       EH =    15689.1881357563597703
     Eloc =   -31811.4076490938314237
      Enl =      -18.9472978090092923
     EvdW =       -0.3988363368566888
      Exc =     -511.9915593265980078
 Exc_core =      295.0448774685983722
       KE =      514.0036211947158336
  MuShift =        0.0076132621267059
-------------------------------------
     Etot =    -1601.4100038952519753
       TS =        0.0024611113734477
-------------------------------------
        F =    -1601.4124650066253253
      muN =      -59.8736944007167722
-------------------------------------
        G =    -1541.5387706059086668


Dumping 'jdft.fillings' ... done
Dumping 'jdft.wfns' ... done
Dumping 'jdft.fluidState' ... done
Dumping 'jdft.ionpos' ... done
Dumping 'jdft.lattice' ... done
Dumping 'jdft.eigenvals' ... done
Dumping 'jdft.eigStats' ... 
	eMin: -2.159304 at state 23 ( [ +0.500000 +0.000000 +0.000000 ] spin 1 )
	HOMO: -0.208247 at state 4 ( [ +0.083333 +0.250000 +0.000000 ] spin 1 )
	mu  : -0.208000
	LUMO: -0.208076 at state 23 ( [ +0.500000 +0.000000 +0.000000 ] spin 1 )
	eMax: +0.099619 at state 21 ( [ +0.416667 +0.500000 +0.000000 ] spin 1 )
	HOMO-LUMO gap: +0.000171
	Optical gap  : +0.001695 at state 31 ( [ +0.083333 +0.500000 +0.000000 ] spin -1 )
Dumping 'jdft.Ecomponents' ... done
IonicMinimize: Iter:   1  G: -1541.538770605908667  |grad|_K:  3.639e-04  alpha:  1.000e+00  linmin: -9.523e-01  t[s]:   7630.30

#--- Lowdin population analysis ---
# oxidation-state Pt +0.013 -0.042 +0.098 +0.013 +0.014 +0.013 +0.010 +0.012 +0.044 +0.012 +0.009 +0.043 +0.013 +0.015 +0.013 -0.041 +0.013 +0.098
# magnetic-moments Pt +0.000 +0.000 +0.000 +0.000 -0.000 -0.000 -0.000 -0.000 +0.000 +0.000 -0.000 +0.000 -0.000 -0.000 -0.000 +0.000 +0.000 +0.000


Computing DFT-D3 correction:
# coordination-number Pt 7.145 8.424 5.941 9.304 9.443 9.411 9.411 9.148 7.140 9.145 9.409 7.137 9.410 9.444 9.308 8.426 7.148 5.939
# diagonal-C6 Pt 336.87 336.87 336.87 336.87 336.87 336.87 336.87 336.87 336.87 336.87 336.87 336.87 336.87 336.87 336.87 336.87 336.87 336.87
EvdW_6 =   -0.151747
EvdW_8 =   -0.247060
Shifting auxilliary hamiltonian by 0.000051 to set nElectrons=287.854300

-------- Electronic minimization -----------
	Linear fluid (dielectric constant: 78.4, screening length: 8.12261 Bohr) occupying 0.544928 of unit cell:	Completed after 14 iterations at t[s]:   7670.17
	FillingsUpdate:  mu: -0.208000000  nElectrons: 287.854300  magneticMoment: [ Abs: 0.02838  Tot: -0.00285 ]
ElecMinimize: Iter:   0  G: -1541.538591841342395  |grad|_K:  1.945e-06  alpha:  1.000e+00
	Linear fluid (dielectric constant: 78.4, screening length: 8.12261 Bohr) occupying 0.544958 of unit cell:	Completed after 20 iterations at t[s]:   7751.95
	Linear fluid (dielectric constant: 78.4, screening length: 8.12261 Bohr) occupying 0.544933 of unit cell:	Completed after 19 iterations at t[s]:   7779.96
	FillingsUpdate:  mu: -0.208000000  nElectrons: 287.841169  magneticMoment: [ Abs: 0.02303  Tot: -0.00285 ]
	SubspaceRotationAdjust: set factor to 0.00783
ElecMinimize: Iter:   1  G: -1541.538727947543748  |grad|_K:  7.070e-07  alpha:  1.708e-01  linmin:  1.057e-03  t[s]:   7821.28
	Linear fluid (dielectric constant: 78.4, screening length: 8.12261 Bohr) occupying 0.544943 of unit cell:	Completed after 12 iterations at t[s]:   7855.56
	Linear fluid (dielectric constant: 78.4, screening length: 8.12261 Bohr) occupying 0.544953 of unit cell:	Completed after 12 iterations at t[s]:   7882.56
	FillingsUpdate:  mu: -0.208000000  nElectrons: 287.848477  magneticMoment: [ Abs: 0.01294  Tot: -0.00284 ]
	SubspaceRotationAdjust: set factor to 0.00785
ElecMinimize: Iter:   2  G: -1541.538765747578282  |grad|_K:  2.830e-07  alpha:  3.591e-01  linmin: -1.935e-04  t[s]:   7923.61
	Linear fluid (dielectric constant: 78.4, screening length: 8.12261 Bohr) occupying 0.544963 of unit cell:	Completed after 10 iterations at t[s]:   7957.45
	Linear fluid (dielectric constant: 78.4, screening length: 8.12261 Bohr) occupying 0.544964 of unit cell:	Completed after 2 iterations at t[s]:   7982.79
	FillingsUpdate:  mu: -0.208000000  nElectrons: 287.849585  magneticMoment: [ Abs: 0.00747  Tot: -0.00284 ]
	SubspaceRotationAdjust: set factor to 0.00975
ElecMinimize: Iter:   3  G: -1541.538772504003418  |grad|_K:  1.460e-07  alpha:  3.999e-01  linmin: -1.221e-03  t[s]:   8023.73
	Linear fluid (dielectric constant: 78.4, screening length: 8.12261 Bohr) occupying 0.544971 of unit cell:	Completed after 6 iterations at t[s]:   8056.97
	Linear fluid (dielectric constant: 78.4, screening length: 8.12261 Bohr) occupying 0.544973 of unit cell:	Completed after 2 iterations at t[s]:   8082.35
	FillingsUpdate:  mu: -0.208000000  nElectrons: 287.849760  magneticMoment: [ Abs: 0.00458  Tot: -0.00283 ]
	SubspaceRotationAdjust: set factor to 0.0121
ElecMinimize: Iter:   4  G: -1541.538774973552563  |grad|_K:  1.126e-07  alpha:  5.481e-01  linmin: -4.969e-04  t[s]:   8123.95
	Linear fluid (dielectric constant: 78.4, screening length: 8.12261 Bohr) occupying 0.544978 of unit cell:	Completed after 6 iterations at t[s]:   8157.34
	Linear fluid (dielectric constant: 78.4, screening length: 8.12261 Bohr) occupying 0.544980 of unit cell:	Completed after 2 iterations at t[s]:   8183.00
	FillingsUpdate:  mu: -0.208000000  nElectrons: 287.850705  magneticMoment: [ Abs: 0.00377  Tot: -0.00283 ]
	SubspaceRotationAdjust: set factor to 0.0154
ElecMinimize: Iter:   5  G: -1541.538776949907742  |grad|_K:  1.019e-07  alpha:  7.371e-01  linmin: -4.415e-04  t[s]:   8224.09
	Linear fluid (dielectric constant: 78.4, screening length: 8.12261 Bohr) occupying 0.544980 of unit cell:	Completed after 9 iterations at t[s]:   8257.92
	Linear fluid (dielectric constant: 78.4, screening length: 8.12261 Bohr) occupying 0.544980 of unit cell:	Completed after 0 iterations at t[s]:   8283.10
	FillingsUpdate:  mu: -0.208000000  nElectrons: 287.852302  magneticMoment: [ Abs: 0.00426  Tot: -0.00281 ]
	SubspaceRotationAdjust: set factor to 0.0175
ElecMinimize: Iter:   6  G: -1541.538778690306572  |grad|_K:  1.135e-07  alpha:  7.903e-01  linmin: -1.593e-03  t[s]:   8324.04
	Linear fluid (dielectric constant: 78.4, screening length: 8.12261 Bohr) occupying 0.544967 of unit cell:	Completed after 10 iterations at t[s]:   8358.02
	Linear fluid (dielectric constant: 78.4, screening length: 8.12261 Bohr) occupying 0.544971 of unit cell:	Completed after 9 iterations at t[s]:   8384.48
	FillingsUpdate:  mu: -0.208000000  nElectrons: 287.852223  magneticMoment: [ Abs: 0.00414  Tot: -0.00279 ]
	SubspaceRotationAdjust: set factor to 0.0156
ElecMinimize: Iter:   7  G: -1541.538780258863881  |grad|_K:  1.317e-07  alpha:  5.595e-01  linmin:  1.877e-04  t[s]:   8425.51
	Linear fluid (dielectric constant: 78.4, screening length: 8.12261 Bohr) occupying 0.544951 of unit cell:	Completed after 11 iterations at t[s]:   8459.58
	Linear fluid (dielectric constant: 78.4, screening length: 8.12261 Bohr) occupying 0.544959 of unit cell:	Completed after 9 iterations at t[s]:   8486.14
	FillingsUpdate:  mu: -0.208000000  nElectrons: 287.854151  magneticMoment: [ Abs: 0.00390  Tot: -0.00276 ]
	SubspaceRotationAdjust: set factor to 0.0129
ElecMinimize: Iter:   8  G: -1541.538781547153121  |grad|_K:  1.015e-07  alpha:  3.547e-01  linmin:  5.741e-05  t[s]:   8527.17
	Linear fluid (dielectric constant: 78.4, screening length: 8.12261 Bohr) occupying 0.544947 of unit cell:	Completed after 4 iterations at t[s]:   8560.19
	Linear fluid (dielectric constant: 78.4, screening length: 8.12261 Bohr) occupying 0.544938 of unit cell:	Completed after 7 iterations at t[s]:   8586.76
	FillingsUpdate:  mu: -0.208000000  nElectrons: 287.854536  magneticMoment: [ Abs: 0.00375  Tot: -0.00272 ]
	SubspaceRotationAdjust: set factor to 0.0141
ElecMinimize: Iter:   9  G: -1541.538782902553066  |grad|_K:  8.797e-08  alpha:  6.321e-01  linmin:  4.980e-04  t[s]:   8627.80
	Linear fluid (dielectric constant: 78.4, screening length: 8.12261 Bohr) occupying 0.544919 of unit cell:	Completed after 3 iterations at t[s]:   8660.62
	Linear fluid (dielectric constant: 78.4, screening length: 8.12261 Bohr) occupying 0.544919 of unit cell:	Completed after 0 iterations at t[s]:   8685.90
	FillingsUpdate:  mu: -0.208000000  nElectrons: 287.854966  magneticMoment: [ Abs: 0.00385  Tot: -0.00268 ]
	SubspaceRotationAdjust: set factor to 0.017
ElecMinimize: Iter:  10  G: -1541.538783942598002  |grad|_K:  7.465e-08  alpha:  6.464e-01  linmin: -8.258e-05  t[s]:   8726.91
	Linear fluid (dielectric constant: 78.4, screening length: 8.12261 Bohr) occupying 0.544905 of unit cell:	Completed after 9 iterations at t[s]:   8760.65
	Linear fluid (dielectric constant: 78.4, screening length: 8.12261 Bohr) occupying 0.544905 of unit cell:	Completed after 0 iterations at t[s]:   8785.63
	FillingsUpdate:  mu: -0.208000000  nElectrons: 287.855935  magneticMoment: [ Abs: 0.00381  Tot: -0.00262 ]
	SubspaceRotationAdjust: set factor to 0.0187
ElecMinimize: Iter:  11  G: -1541.538784735186027  |grad|_K:  7.802e-08  alpha:  6.734e-01  linmin:  3.491e-04  t[s]:   8826.61
	Linear fluid (dielectric constant: 78.4, screening length: 8.12261 Bohr) occupying 0.544892 of unit cell:	Completed after 10 iterations at t[s]:   8860.48
	Linear fluid (dielectric constant: 78.4, screening length: 8.12261 Bohr) occupying 0.544894 of unit cell:	Completed after 2 iterations at t[s]:   8885.84
	FillingsUpdate:  mu: -0.208000000  nElectrons: 287.855485  magneticMoment: [ Abs: 0.00382  Tot: -0.00256 ]
	SubspaceRotationAdjust: set factor to 0.0175
ElecMinimize: Iter:  12  G: -1541.538785483674246  |grad|_K:  9.751e-08  alpha:  5.891e-01  linmin:  3.506e-04  t[s]:   8926.91
	Linear fluid (dielectric constant: 78.4, screening length: 8.12261 Bohr) occupying 0.544880 of unit cell:	Completed after 10 iterations at t[s]:   8960.77
	Linear fluid (dielectric constant: 78.4, screening length: 8.12261 Bohr) occupying 0.544885 of unit cell:	Completed after 9 iterations at t[s]:   8987.28
	FillingsUpdate:  mu: -0.208000000  nElectrons: 287.856512  magneticMoment: [ Abs: 0.00382  Tot: -0.00250 ]
	SubspaceRotationAdjust: set factor to 0.0154
ElecMinimize: Iter:  13  G: -1541.538786237936165  |grad|_K:  9.449e-08  alpha:  3.882e-01  linmin: -6.279e-05  t[s]:   9028.40
	Linear fluid (dielectric constant: 78.4, screening length: 8.12261 Bohr) occupying 0.544879 of unit cell:	Completed after 9 iterations at t[s]:   9062.21
	Linear fluid (dielectric constant: 78.4, screening length: 8.12261 Bohr) occupying 0.544876 of unit cell:	Completed after 7 iterations at t[s]:   9088.49
	FillingsUpdate:  mu: -0.208000000  nElectrons: 287.855874  magneticMoment: [ Abs: 0.00369  Tot: -0.00239 ]
	SubspaceRotationAdjust: set factor to 0.015
ElecMinimize: Iter:  14  G: -1541.538787430786897  |grad|_K:  9.588e-08  alpha:  6.305e-01  linmin: -2.551e-05  t[s]:   9129.45
	Linear fluid (dielectric constant: 78.4, screening length: 8.12261 Bohr) occupying 0.544873 of unit cell:	Completed after 9 iterations at t[s]:   9163.29
	Linear fluid (dielectric constant: 78.4, screening length: 8.12261 Bohr) occupying 0.544872 of unit cell:	Completed after 2 iterations at t[s]:   9188.73
	FillingsUpdate:  mu: -0.208000000  nElectrons: 287.856258  magneticMoment: [ Abs: 0.00317  Tot: -0.00223 ]
	SubspaceRotationAdjust: set factor to 0.0146
ElecMinimize: Iter:  15  G: -1541.538789032377736  |grad|_K:  1.100e-07  alpha:  8.226e-01  linmin: -1.072e-04  t[s]:   9229.96
	Linear fluid (dielectric constant: 78.4, screening length: 8.12261 Bohr) occupying 0.544875 of unit cell:	Completed after 10 iterations at t[s]:   9263.93
	Linear fluid (dielectric constant: 78.4, screening length: 8.12261 Bohr) occupying 0.544874 of unit cell:	Completed after 6 iterations at t[s]:   9290.15
	FillingsUpdate:  mu: -0.208000000  nElectrons: 287.855314  magneticMoment: [ Abs: 0.00256  Tot: -0.00205 ]
	SubspaceRotationAdjust: set factor to 0.0133
ElecMinimize: Iter:  16  G: -1541.538790706847976  |grad|_K:  1.097e-07  alpha:  6.465e-01  linmin:  9.453e-05  t[s]:   9331.35
	Linear fluid (dielectric constant: 78.4, screening length: 8.12261 Bohr) occupying 0.544883 of unit cell:	Completed after 10 iterations at t[s]:   9365.36
	Linear fluid (dielectric constant: 78.4, screening length: 8.12261 Bohr) occupying 0.544880 of unit cell:	Completed after 7 iterations at t[s]:   9391.74
	FillingsUpdate:  mu: -0.208000000  nElectrons: 287.856080  magneticMoment: [ Abs: 0.00224  Tot: -0.00192 ]
	SubspaceRotationAdjust: set factor to 0.0106
ElecMinimize: Iter:  17  G: -1541.538791904542450  |grad|_K:  1.006e-07  alpha:  4.777e-01  linmin: -1.524e-05  t[s]:   9433.06
	Linear fluid (dielectric constant: 78.4, screening length: 8.12261 Bohr) occupying 0.544888 of unit cell:	Completed after 10 iterations at t[s]:   9467.23
	Linear fluid (dielectric constant: 78.4, screening length: 8.12261 Bohr) occupying 0.544888 of unit cell:	Completed after 0 iterations at t[s]:   9492.31
	FillingsUpdate:  mu: -0.208000000  nElectrons: 287.855226  magneticMoment: [ Abs: 0.00203  Tot: -0.00179 ]
	SubspaceRotationAdjust: set factor to 0.00922
ElecMinimize: Iter:  18  G: -1541.538792897805706  |grad|_K:  7.729e-08  alpha:  4.649e-01  linmin:  2.639e-05  t[s]:   9533.41
	Linear fluid (dielectric constant: 78.4, screening length: 8.12261 Bohr) occupying 0.544893 of unit cell:	Completed after 6 iterations at t[s]:   9566.70
	Linear fluid (dielectric constant: 78.4, screening length: 8.12261 Bohr) occupying 0.544894 of unit cell:	Completed after 0 iterations at t[s]:   9591.73
	FillingsUpdate:  mu: -0.208000000  nElectrons: 287.855211  magneticMoment: [ Abs: 0.00190  Tot: -0.00171 ]
	SubspaceRotationAdjust: set factor to 0.00984
ElecMinimize: Iter:  19  G: -1541.538793538419668  |grad|_K:  5.418e-08  alpha:  5.087e-01  linmin: -2.784e-04  t[s]:   9632.87
	Linear fluid (dielectric constant: 78.4, screening length: 8.12261 Bohr) occupying 0.544898 of unit cell:	Completed after 2 iterations at t[s]:   9665.61
	Linear fluid (dielectric constant: 78.4, screening length: 8.12261 Bohr) occupying 0.544898 of unit cell:	Completed after 0 iterations at t[s]:   9691.23
	FillingsUpdate:  mu: -0.208000000  nElectrons: 287.855242  magneticMoment: [ Abs: 0.00180  Tot: -0.00166 ]
	SubspaceRotationAdjust: set factor to 0.011
ElecMinimize: Iter:  20  G: -1541.538793886708845  |grad|_K:  4.302e-08  alpha:  5.536e-01  linmin: -1.938e-04  t[s]:   9732.32
	Linear fluid (dielectric constant: 78.4, screening length: 8.12261 Bohr) occupying 0.544901 of unit cell:	Completed after 2 iterations at t[s]:   9764.96
	Linear fluid (dielectric constant: 78.4, screening length: 8.12261 Bohr) occupying 0.544901 of unit cell:	Completed after 0 iterations at t[s]:   9789.96
	FillingsUpdate:  mu: -0.208000000  nElectrons: 287.855072  magneticMoment: [ Abs: 0.00178  Tot: -0.00163 ]
	SubspaceRotationAdjust: set factor to 0.0131
ElecMinimize: Iter:  21  G: -1541.538794103182909  |grad|_K:  3.446e-08  alpha:  5.504e-01  linmin: -7.359e-04  t[s]:   9831.00
	Linear fluid (dielectric constant: 78.4, screening length: 8.12261 Bohr) occupying 0.544902 of unit cell:	Completed after 2 iterations at t[s]:   9863.61
	Linear fluid (dielectric constant: 78.4, screening length: 8.12261 Bohr) occupying 0.544902 of unit cell:	Completed after 0 iterations at t[s]:   9888.56
	FillingsUpdate:  mu: -0.208000000  nElectrons: 287.855030  magneticMoment: [ Abs: 0.00177  Tot: -0.00159 ]
	SubspaceRotationAdjust: set factor to 0.0161
ElecMinimize: Iter:  22  G: -1541.538794252235903  |grad|_K:  3.083e-08  alpha:  5.803e-01  linmin: -3.696e-04  t[s]:   9929.61
	Linear fluid (dielectric constant: 78.4, screening length: 8.12261 Bohr) occupying 0.544903 of unit cell:	Completed after 2 iterations at t[s]:   9962.40
	Linear fluid (dielectric constant: 78.4, screening length: 8.12261 Bohr) occupying 0.544903 of unit cell:	Completed after 0 iterations at t[s]:   9987.38
	FillingsUpdate:  mu: -0.208000000  nElectrons: 287.855162  magneticMoment: [ Abs: 0.00173  Tot: -0.00154 ]
	SubspaceRotationAdjust: set factor to 0.0196
ElecMinimize: Iter:  23  G: -1541.538794384434823  |grad|_K:  3.130e-08  alpha:  6.518e-01  linmin: -1.405e-04  t[s]:  10028.23
	Linear fluid (dielectric constant: 78.4, screening length: 8.12261 Bohr) occupying 0.544902 of unit cell:	Completed after 2 iterations at t[s]:  10060.94
	Linear fluid (dielectric constant: 78.4, screening length: 8.12261 Bohr) occupying 0.544902 of unit cell:	Completed after 0 iterations at t[s]:  10085.99
	FillingsUpdate:  mu: -0.208000000  nElectrons: 287.855292  magneticMoment: [ Abs: 0.00169  Tot: -0.00148 ]
	SubspaceRotationAdjust: set factor to 0.0233
ElecMinimize: Iter:  24  G: -1541.538794521507953  |grad|_K:  3.148e-08  alpha:  6.600e-01  linmin: -3.615e-04  t[s]:  10126.99
	Linear fluid (dielectric constant: 78.4, screening length: 8.12261 Bohr) occupying 0.544902 of unit cell:	Completed after 3 iterations at t[s]:  10159.92
	Linear fluid (dielectric constant: 78.4, screening length: 8.12261 Bohr) occupying 0.544902 of unit cell:	Completed after 0 iterations at t[s]:  10184.83
	FillingsUpdate:  mu: -0.208000000  nElectrons: 287.855283  magneticMoment: [ Abs: 0.00162  Tot: -0.00142 ]
	SubspaceRotationAdjust: set factor to 0.0249
ElecMinimize: Iter:  25  G: -1541.538794647735131  |grad|_K:  3.332e-08  alpha:  5.962e-01  linmin:  1.586e-04  t[s]:  10225.90
	Linear fluid (dielectric constant: 78.4, screening length: 8.12261 Bohr) occupying 0.544900 of unit cell:	Completed after 7 iterations at t[s]:  10259.44
	Linear fluid (dielectric constant: 78.4, screening length: 8.12261 Bohr) occupying 0.544900 of unit cell:	Completed after 2 iterations at t[s]:  10284.69
	FillingsUpdate:  mu: -0.208000000  nElectrons: 287.855652  magneticMoment: [ Abs: 0.00153  Tot: -0.00135 ]
	SubspaceRotationAdjust: set factor to 0.0226
ElecMinimize: Iter:  26  G: -1541.538794761909912  |grad|_K:  3.934e-08  alpha:  4.878e-01  linmin:  8.526e-04  t[s]:  10325.63
	Linear fluid (dielectric constant: 78.4, screening length: 8.12261 Bohr) occupying 0.544898 of unit cell:	Completed after 9 iterations at t[s]:  10359.64
	Linear fluid (dielectric constant: 78.4, screening length: 8.12261 Bohr) occupying 0.544899 of unit cell:	Completed after 8 iterations at t[s]:  10386.17
	FillingsUpdate:  mu: -0.208000000  nElectrons: 287.855422  magneticMoment: [ Abs: 0.00146  Tot: -0.00130 ]
	SubspaceRotationAdjust: set factor to 0.0164
ElecMinimize: Iter:  27  G: -1541.538794826295771  |grad|_K:  3.204e-08  alpha:  2.168e-01  linmin:  4.148e-04  t[s]:  10427.19
	Linear fluid (dielectric constant: 78.4, screening length: 8.12261 Bohr) occupying 0.544898 of unit cell:	Completed after 2 iterations at t[s]:  10459.80
	Linear fluid (dielectric constant: 78.4, screening length: 8.12261 Bohr) occupying 0.544898 of unit cell:	Completed after 3 iterations at t[s]:  10485.35
	FillingsUpdate:  mu: -0.208000000  nElectrons: 287.855623  magneticMoment: [ Abs: 0.00136  Tot: -0.00124 ]
	SubspaceRotationAdjust: set factor to 0.0195
ElecMinimize: Iter:  28  G: -1541.538794908663021  |grad|_K:  2.412e-08  alpha:  3.934e-01  linmin:  3.261e-04  t[s]:  10526.39
ElecMinimize: Converged (|Delta G|<1.000000e-07 for 2 iters).
Setting wave functions to eigenvectors of Hamiltonian
Converging empty states (this may take a while): |deigs|: 8.184e-08

Computing DFT-D3 correction:
# coordination-number Pt 7.145 8.424 5.941 9.304 9.443 9.411 9.411 9.148 7.140 9.145 9.409 7.137 9.410 9.444 9.308 8.426 7.148 5.939
# diagonal-C6 Pt 336.87 336.87 336.87 336.87 336.87 336.87 336.87 336.87 336.87 336.87 336.87 336.87 336.87 336.87 336.87 336.87 336.87 336.87
EvdW_6 =   -0.151747
EvdW_8 =   -0.247060

# Ionic positions in cartesian coordinates:
ion Pt   0.000256344044620   6.847068008955850  64.764490742801613 1
ion Pt   0.000221137887237  14.164676522102425  62.568180354017571 1
ion Pt   5.231820265322000   0.221459237130506  45.278389826520446 1
ion Pt   0.000057347357049   5.226494887352285  59.759293391906553 1
ion Pt  -0.000024158509150  12.327469023603340  57.340989416866030 1
ion Pt  -0.000016326861601   3.416563821906146  54.913982230718567 1
ion Pt  -0.000133033148890  10.451592466314683  52.267469226306858 1
ion Pt   5.231913030164646   1.674682729123922  50.112164381312866 1
ion Pt   5.231839257932545   8.649014659313808  47.208697295203471 1
ion Pt   2.616011402717894   9.661404734512953  60.875086793899271 1
ion Pt   2.616110306694723   0.884892735454248  58.718681452293303 1
ion Pt   2.616239518407686   2.686894129070502  63.779814213963007 1
ion Pt   2.615950977707966   7.919008402261251  56.072490685102821 1
ion Pt   2.615967357668716  14.703969747442137  53.645408730128864 1
ion Pt   2.615926350505917   6.109562347505436  51.228075156233679 1
ion Pt   2.615796466595569  12.867193705355920  48.418037682675980 1
ion Pt   2.615810855905810   4.489201721900848  46.224619377513726 1
ion Pt   2.616225899607258  11.114745120693728  65.710512042535072 1

# Forces in Cartesian coordinates:
force Pt   0.000000402880923   0.000172572798900  -0.000131918200327 1
force Pt   0.000001045202894   0.000072904027460   0.000114208106254 1
force Pt  -0.000001183928735   0.000024304491688  -0.000028360822804 1
force Pt   0.000000577566375  -0.000143064450731  -0.000309744222602 1
force Pt   0.000000397704801   0.000285162192495  -0.000014267327028 1
force Pt  -0.000000686242470  -0.000035000725521   0.000011717190397 1
force Pt  -0.000001131267799  -0.000005123965473   0.000225532307263 1
force Pt  -0.000001225104068  -0.000090763909649   0.000192331282149 1
force Pt  -0.000001725810510  -0.000137573994480   0.000274717022735 1
force Pt   0.000001554921762   0.000084717118041  -0.000131456858877 1
force Pt   0.000000664948795   0.000008954340670  -0.000180908474751 1
force Pt   0.000000719712239   0.000125962991157  -0.000151837229986 1
force Pt   0.000000045883489   0.000033524780607   0.000018644085968 1
force Pt  -0.000000200878994  -0.000270038082822   0.000055049818927 1
force Pt  -0.000000295630733   0.000142234470368   0.000396138937886 1
force Pt  -0.000001456784482  -0.000044414182079  -0.000007822861157 1
force Pt  -0.000000994505116  -0.000220294819369   0.000239534882962 1
force Pt  -0.000000418924053  -0.000019856714483   0.000090424953226 1

# Energy components:
   A_diel =        0.0336117600987125
   Eewald =    14240.6038806415126601
       EH =    15686.7969610674808791
     Eloc =   -31806.5597305394439900
      Enl =      -18.9477231292973514
     EvdW =       -0.3988067342436645
      Exc =     -511.9892847924554644
 Exc_core =      295.0448776346906925
       KE =      513.9983675012914546
  MuShift =        0.0075441247317031
-------------------------------------
     Etot =    -1601.4103024656369598
       TS =        0.0024620543100750
-------------------------------------
        F =    -1601.4127645199471317
      muN =      -59.8739696112840178
-------------------------------------
        G =    -1541.5387949086630215


Dumping 'jdft.fillings' ... done
Dumping 'jdft.wfns' ... done
Dumping 'jdft.fluidState' ... done
Dumping 'jdft.ionpos' ... done
Dumping 'jdft.lattice' ... done
Dumping 'jdft.eigenvals' ... done
Dumping 'jdft.eigStats' ... 
	eMin: -2.159319 at state 49 ( [ +0.500000 +0.000000 +0.000000 ] spin -1 )
	HOMO: -0.208036 at state 23 ( [ +0.500000 +0.000000 +0.000000 ] spin 1 )
	mu  : -0.208000
	LUMO: -0.208033 at state 23 ( [ +0.500000 +0.000000 +0.000000 ] spin 1 )
	eMax: +0.099599 at state 21 ( [ +0.416667 +0.500000 +0.000000 ] spin 1 )
	HOMO-LUMO gap: +0.000003
	Optical gap  : +0.000003 at state 23 ( [ +0.500000 +0.000000 +0.000000 ] spin 1 )
Dumping 'jdft.Ecomponents' ... done
IonicMinimize: Iter:   2  G: -1541.538794908663021  |grad|_K:  1.291e-04  alpha:  1.000e+00  linmin: -4.009e-01  t[s]:  10642.39
IonicMinimize: Converged (|Delta G|<1.000000e-04 for 2 iters).

#--- Lowdin population analysis ---
# oxidation-state Pt +0.011 -0.041 +0.097 +0.012 +0.015 +0.013 +0.011 +0.012 +0.043 +0.012 +0.010 +0.042 +0.013 +0.016 +0.013 -0.040 +0.012 +0.097
# magnetic-moments Pt -0.000 -0.000 -0.000 -0.000 -0.000 -0.000 -0.000 -0.000 -0.000 -0.000 -0.000 -0.000 -0.000 -0.000 -0.000 -0.000 -0.000 -0.000


Dumping 'jdft.n_up' ... done
Dumping 'jdft.n_dn' ... done
Dumping 'jdft.tau_up' ... done
Dumping 'jdft.tau_dn' ... done
Dumping 'jdft.eigenvals' ... done
Dumping 'jdft.eigStats' ... 
	eMin: -2.159319 at state 49 ( [ +0.500000 +0.000000 +0.000000 ] spin -1 )
	HOMO: -0.208036 at state 23 ( [ +0.500000 +0.000000 +0.000000 ] spin 1 )
	mu  : -0.208000
	LUMO: -0.208033 at state 23 ( [ +0.500000 +0.000000 +0.000000 ] spin 1 )
	eMax: +0.099599 at state 21 ( [ +0.416667 +0.500000 +0.000000 ] spin 1 )
	HOMO-LUMO gap: +0.000003
	Optical gap  : +0.000003 at state 23 ( [ +0.500000 +0.000000 +0.000000 ] spin 1 )
Dumping 'jdft.kPts' ... done
Dumping 'jdft.kMap' ... done
Dumping 'jdft.dosUp' ... done.
Dumping 'jdft.dosDn' ... done.
End date and time: Sat Sep 10 14:44:18 2022  (Duration: 0-2:58:25.33)
Done!

PROFILER:             augmentDensityGrid     4.722210 +/-     0.057237 s,  201 calls,    949.164227 s total
PROFILER:         augmentDensityGridGrad     0.308323 +/-     0.076006 s,  105 calls,     32.373926 s total
PROFILER:        augmentDensitySpherical     0.002049 +/-     0.000074 s,  402 calls,      0.823713 s total
PROFILER:    augmentDensitySphericalGrad     0.002331 +/-     0.000468 s,  228 calls,      0.531426 s total
PROFILER:                 augmentOverlap     1.852172 +/-     0.116556 s,  834 calls,   1544.711586 s total
PROFILER:                     diagouterI     4.455800 +/-     0.036094 s,  408 calls,   1817.966409 s total
PROFILER:              EdensityAndVscloc     3.134457 +/-     1.150920 s,  201 calls,    630.025845 s total
PROFILER:                     EnlAndGrad     0.007216 +/-     0.000906 s,  426 calls,      3.073871 s total
PROFILER:            ExCorrCommunication     0.034721 +/-     0.122484 s, 1241 calls,     43.088756 s total
PROFILER:               ExCorrFunctional     0.005789 +/-     0.000741 s,  211 calls,      1.221535 s total
PROFILER:                    ExCorrTotal     0.273642 +/-     0.259893 s,  211 calls,     57.738387 s total
PROFILER:                   Idag_DiagV_I     8.706998 +/-     1.195283 s,  222 calls,   1932.953453 s total
PROFILER:                    initWeights     1.892819 +/-     0.000000 s,    1 calls,      1.892819 s total
PROFILER:                    inv(matrix)     0.003785 +/-     0.000374 s,  396 calls,      1.498830 s total
PROFILER:            matrix::diagonalize     0.012097 +/-     0.005420 s,  622 calls,      7.524461 s total
PROFILER:                    matrix::set     0.000009 +/-     0.000008 s, 11892 calls,      0.108775 s total
PROFILER:            orthoMatrix(matrix)     0.002302 +/-     0.001045 s,  410 calls,      0.943678 s total
PROFILER:     RadialFunctionR::transform     0.063830 +/-     0.453129 s,   55 calls,      3.510627 s total
PROFILER:                    reduceKmesh     0.002306 +/-     0.000000 s,    1 calls,      0.002306 s total
PROFILER:   VanDerWaalsD3::energyAndGrad     0.008948 +/-     0.000275 s,    7 calls,      0.062633 s total
PROFILER:               WavefunctionDrag    17.186318 +/-     4.322821 s,    3 calls,     51.558955 s total
PROFILER:                            Y*M     0.560997 +/-     0.188765 s, 2717 calls,   1524.228686 s total
PROFILER:                          Y1^Y2     0.595132 +/-     0.186273 s, 1726 calls,   1027.198673 s total

MEMUSAGE:                   ColumnBundle     0.656113 GB
MEMUSAGE:        complexScalarFieldTilde     0.012817 GB
MEMUSAGE:                    IndexArrays     0.018100 GB
MEMUSAGE:                         matrix     0.023349 GB
MEMUSAGE:                           misc     0.012894 GB
MEMUSAGE:                    ScalarField     0.092926 GB
MEMUSAGE:               ScalarFieldTilde     0.067772 GB
MEMUSAGE:                          Total     0.752910 GB
